FOO
138240
    1MOL0     O    1   6.317   6.128   5.865 -0.1241 -0.0740  0.4036
    1MOL0     C    2   6.385   6.024   5.879 -0.8484  0.3613  0.4576
    1MOL0     O    3   6.345   5.898   5.888 -0.1602  0.4107 -0.6793
    1MOL0     C    4   6.210   5.850   5.890  0.5840  0.3802  1.5083
    1MOL0     C    5   6.100   5.901   5.955  0.4756 -0.6943  0.1926
    1MOL0     C    6   5.970   5.863   5.940 -0.0518  0.4035  0.1558
    1MOL0     C    7   5.945   5.754   5.853 -0.4513  0.3464  0.6205
    1MOL0     O    8   5.828   5.685   5.837  0.2278 -0.0043  0.1775
    1MOL0     C    9   5.728   5.715   5.934  0.4374 -0.8494  0.4544
    1MOL0     C   10   5.599   5.646   5.878  0.9278 -0.3577  0.0199
    1MOL0     C   11   5.479   5.711   5.954 -0.6854 -0.5445 -0.0685
    1MOL0     C   12   5.343   5.658   5.913 -0.5142  0.3398 -0.8771
    1MOL0     C   13   5.274   5.701   5.784  0.1249  0.6503 -0.0026
    1MOL0     C   14   5.129   5.649   5.788 -0.4532 -0.0622 -0.2306
    1MOL0     C   15   5.045   5.724   5.685 -0.0380 -0.5859  0.6115
    1MOL0     C   16   5.065   5.674   5.538  0.3746 -0.4142 -0.5279
    1MOL0     N   17   4.950   5.707   5.453  0.2934  0.2373  0.3316
    1MOL0     C   18   4.815   5.675   5.474 -0.6528  0.1653  0.1822
    1MOL0     C   19   4.761   5.698   5.357 -0.1195  0.0753  0.1107
    1MOL0     C   20   4.622   5.680   5.319  0.7438  0.2767 -0.1100
    1MOL0     C   21   4.596   5.595   5.196 -0.4967  0.6101 -0.1556
    1MOL0     C   22   4.471   5.636   5.116 -0.3253 -0.3424 -0.4679
    1MOL0     C   23   4.465   5.565   4.979 -0.1735  0.1421  0.2589
    1MOL0     O   24   4.473   5.419   4.981 -0.5292  0.1884  0.1071
    1MOL0     C   25   4.364   5.339   5.020 -0.3917 -0.4052 -0.8566
    1MOL0     C   26   4.378   5.198   5.015 -0.3217 -0.7320  1.0930
    1MOL0     C   27   4.270   5.112   5.045 -0.1158  0.2241  0.5645
    1MOL0     C   28   4.303   4.960   5.030  0.2768  0.4096 -0.2905
    1MOL0     C   29   4.153   5.168   5.090 -0.0210 -0.4911  0.3455
    1MOL0     C   30   4.038   5.085   5.142  0.3544 -0.1199 -0.2131
    1MOL0     O   31   3.915   5.143   5.134 -0.1803  0.8829 -0.9952
    1MOL0     C   32   3.805   5.096   5.204  0.4820  0.2402 -0.1008
    1MOL0     C   33   3.679   5.079   5.136 -0.9354  0.4441 -0.1531
    1MOL0     C   34   3.565   5.023   5.203  0.3825 -0.6135  0.0453
    1MOL0     C   35   3.563   5.003   5.336  0.4919  0.4012 -0.0701
    1MOL0     O   36   3.451   4.951   5.383  0.0845  0.6227 -1.1304
    1MOL0     C   37   3.453   4.844   5.474 -0.1581  0.4089  0.0878
    1MOL0     C   38   3.433   4.710   5.395  0.2063  0.1137 -0.4277
    1MOL0     C   39   3.287   4.695   5.344 -0.1792  0.8244 -0.3602
    1MOL0     C   40   3.182   4.691   5.458 -0.0765 -0.2814 -0.0837
    1MOL0     C   41   3.046   4.647   5.414 -0.1820 -0.7474 -1.0075
    1MOL0     C   42   3.049   4.491   5.404  0.3649  1.2234  0.4503
    1MOL0     C   43   2.920   4.444   5.332  0.1465  0.8016 -0.0241
    1MOL0     C   44   2.877   4.305   5.373 -0.2824 -0.3946  0.3359
    1MOL0    Cl   45   2.810   4.321   5.544  0.2106  0.4379 -0.1912
    1MOL0     C   46   3.690   5.013   5.405  0.4666  0.0407  0.5583
    1MOL0     C   47   3.806   5.044   5.331  0.5457  0.5851 -0.3594
    1MOL0     O   48   4.060   4.968   5.178  0.1653 -0.4318 -0.2037
    1MOL0     C   49   4.139   5.311   5.076 -0.5058  0.5816  0.5099
    1MOL0     C   50   4.240   5.398   5.052 -0.0316 -0.3523  0.7832
    1MOL0     N   51   4.846   5.749   5.269 -0.1231  0.4381  0.0125
    1MOL0     N   52   4.963   5.762   5.326  0.3518  0.1824 -0.2627
    1MOL0     C   53   6.053   5.697   5.779 -0.2637 -0.1266  1.1872
    1MOL0     C   54   6.184   5.740   5.797 -0.3458  0.5567 -0.4272
    1MOL0     C   55   6.538   6.038   5.860 -0.1054  0.5318 -0.0074
    1MOL0     C   56   6.621   5.922   5.849 -0.4304 -0.2480  0.5260
    1MOL0     C   57   6.756   5.942   5.836 -0.8831  0.5496 -0.3233
    1MOL0     C   58   6.819   6.068   5.837 -0.3179  0.5534 -0.3763
    1MOL0     O   59   6.950   6.084   5.825 -0.7962  0.2997 -0.0698
    1MOL0     C   60   7.011   6.206   5.793  0.6773 -0.2668  0.5469
    1MOL0     C   61   7.156   6.173   5.786  0.2821  0.6568 -0.4790
    1MOL0     C   62   7.236   6.128   5.911  0.4486  0.7029 -0.1024
    1MOL0     C   63   7.396   6.104   5.879  0.0007 -0.2752  0.2709
    1MOL0     C   64   7.461   6.231   5.834  0.1403  0.1351  0.3638
    1MOL0     C   65   7.512   6.335   5.799 -0.2700 -0.4374 -0.9813
    1MOL0     C   66   6.731   6.179   5.862  0.4143 -0.9753 -0.4524
    1MOL0     C   67   6.593   6.165   5.875  0.1643  0.1106  0.0505
    1MOL0     H   68   6.122   5.971   6.035  2.6609 -0.4419 -0.5475
    1MOL0     H   69   5.899   5.907   6.010 -1.2832  0.2254 -0.9496
    1MOL0     H   70   5.755   5.675   6.032 -0.7501 -0.3184  1.0216
    1MOL0     H   71   5.709   5.823   5.935  0.7612 -0.7579 -1.2177
    1MOL0     H   72   5.593   5.668   5.771 -0.5831  2.4163  0.5699
    1MOL0     H   73   5.612   5.540   5.901 -0.1360 -0.2018  1.4482
    1MOL0     H   74   5.489   5.689   6.061 -0.1205  1.3260  0.3044
    1MOL0     H   75   5.480   5.821   5.954  3.4881 -0.4344  1.2245
    1MOL0     H   76   5.347   5.548   5.918  0.6068  0.3964  0.1370
    1MOL0     H   77   5.281   5.692   5.996  1.2466  1.9154 -0.1262
    1MOL0     H   78   5.284   5.810   5.777 -0.3830  0.6806 -0.3014
    1MOL0     H   79   5.310   5.652   5.693 -1.9242 -0.3487 -0.3266
    1MOL0     H   80   5.122   5.542   5.766 -3.8064 -0.3187  1.3753
    1MOL0     H   81   5.078   5.656   5.884 -0.1782 -2.2076  0.1271
    1MOL0     H   82   4.943   5.706   5.720 -0.8723  1.1707 -0.8035
    1MOL0     H   83   5.049   5.833   5.691 -2.7033 -0.2932 -1.1071
    1MOL0     H   84   5.085   5.567   5.539  2.4312 -0.0732  0.3685
    1MOL0     H   85   5.152   5.728   5.500 -0.2033 -0.0842 -1.4012
    1MOL0     H   86   4.771   5.629   5.562  0.7058  0.7869  1.2204
    1MOL0     H   87   4.567   5.623   5.396  1.5620 -0.4995 -0.0791
    1MOL0     H   88   4.575   5.778   5.314 -0.9429 -0.5221 -0.8694
    1MOL0     H   89   4.582   5.493   5.232  0.2920  0.7585  0.5819
    1MOL0     H   90   4.683   5.600   5.130  0.2313  1.4841  0.8534
    1MOL0     H   91   4.480   5.744   5.098  1.2260 -0.6607 -1.9025
    1MOL0     H   92   4.380   5.622   5.174 -1.7741  0.8896 -2.3124
    1MOL0     H   93   4.549   5.598   4.918 -1.3133  4.6779  0.7602
    1MOL0     H   94   4.374   5.600   4.929  1.2657  0.2894 -2.4144
    1MOL0     H   95   4.479   5.164   4.993 -0.6061  0.0369 -1.7847
    1MOL0     H   96   4.294   4.912   5.128 -0.4229 -1.4029 -1.1946
    1MOL0     H   97   4.224   4.909   4.973  1.6902  0.8286 -2.7991
    1MOL0     H   98   4.403   4.933   4.996  0.4906 -3.8604  2.8938
    1MOL0     H   99   3.686   5.112   5.033 -1.7847  1.7084  0.1682
    1MOL0     H  100   3.466   5.015   5.159  0.7099  1.0828 -1.1110
    1MOL0     H  101   3.544   4.831   5.533 -0.4640 -0.0710  0.4616
    1MOL0     H  102   3.366   4.852   5.541 -1.5084 -2.5059 -1.1003
    1MOL0     H  103   3.500   4.713   5.309  1.0204 -0.9529  0.1423
    1MOL0     H  104   3.469   4.622   5.450 -3.3548 -0.7537  0.7686
    1MOL0     H  105   3.277   4.607   5.280 -1.1847  0.5710  0.1299
    1MOL0     H  106   3.282   4.787   5.285  2.4177  1.5224  0.3486
    1MOL0     H  107   3.224   4.625   5.535 -0.5559 -0.9434 -0.3751
    1MOL0     H  108   3.182   4.795   5.489 -0.4969 -0.8433  1.9273
    1MOL0     H  109   3.021   4.699   5.321  0.4352  0.6999 -0.4021
    1MOL0     H  110   2.984   4.682   5.497  2.7808  4.6197 -0.6405
    1MOL0     H  111   3.133   4.450   5.349  1.2458  1.4443  1.5988
    1MOL0     H  112   3.054   4.446   5.504  0.8613 -1.9245 -0.8908
    1MOL0     H  113   2.946   4.447   5.226 -0.8290  0.7923 -0.2713
    1MOL0     H  114   2.834   4.506   5.357  0.9576  1.3860  1.4733
    1MOL0     H  115   2.954   4.228   5.372  1.4956  1.2829 -1.2855
    1MOL0     H  116   2.792   4.278   5.309  0.6589  0.7341 -1.4625
    1MOL0     H  117   3.689   4.986   5.510 -1.2274 -1.9496  0.0841
    1MOL0     H  118   3.895   5.042   5.394 -0.0323  0.8553  0.4868
    1MOL0     H  119   4.053   5.374   5.100 -1.6116 -1.2459  1.5701
    1MOL0     H  120   4.233   5.506   5.044  1.6195 -0.3338 -1.3046
    1MOL0     H  121   6.050   5.621   5.702  4.3847 -2.1806  2.6751
    1MOL0     H  122   6.266   5.697   5.741  1.4986 -0.9982  3.1922
    1MOL0     H  123   6.583   5.820   5.850 -1.3306 -0.0699 -2.5228
    1MOL0     H  124   6.823   5.857   5.831  1.8945  2.6618 -2.6023
    1MOL0     H  125   6.975   6.250   5.699 -1.6388 -1.1969  0.9283
    1MOL0     H  126   6.988   6.277   5.872 -0.9652  0.6935 -0.7093
    1MOL0     H  127   7.192   6.269   5.747 -2.1741  1.0447 -1.9816
    1MOL0     H  128   7.177   6.098   5.709  0.3981  0.7313 -0.5212
    1MOL0     H  129   7.193   6.031   5.940  1.1803 -0.4260 -2.5296
    1MOL0     H  130   7.233   6.196   5.996  1.3161  0.1078  0.4250
    1MOL0     H  131   7.392   6.020   5.809 -1.0924 -1.0338  1.2077
    1MOL0     H  132   7.445   6.078   5.973  1.7527  2.8478  0.3402
    1MOL0     H  133   7.539   6.437   5.779 -2.3877 -0.0436 -2.1728
    1MOL0     H  134   6.775   6.278   5.870 -2.6534  0.7572 -2.7531
    1MOL0     H  135   6.539   6.254   5.906 -0.1542  0.0632 -0.3692
    2MOL0     O  136   5.373   4.441   5.258  0.5640  0.4108  1.2165
    2MOL0     C  137   5.453   4.482   5.171  0.4261  0.3019  0.0991
    2MOL0     O  138   5.430   4.589   5.089 -1.1568 -0.6436  1.0241
    2MOL0     C  139   5.302   4.637   5.100  0.8520  0.1039  0.0919
    2MOL0     C  140   5.209   4.560   5.043 -0.3100  0.1078  0.1633
    2MOL0     C  141   5.081   4.598   5.055 -0.5010  0.1317 -0.4749
    2MOL0     C  142   5.041   4.732   5.089 -0.3299 -0.8914  0.6110
    2MOL0     O  143   4.917   4.779   5.076 -0.0195 -0.2092 -0.4513
    2MOL0     C  144   4.810   4.704   5.146 -0.1228 -0.0554 -0.3510
    2MOL0     C  145   4.768   4.779   5.284  0.7147  0.6355 -0.1871
    2MOL0     C  146   4.678   4.905   5.256  0.0826  0.4842 -0.0951
    2MOL0     C  147   4.672   4.994   5.379 -0.3665  0.7116  0.4674
    2MOL0     C  148   4.553   5.095   5.367  0.6260 -0.3908 -0.0698
    2MOL0     C  149   4.530   5.161   5.500 -0.2313 -0.3478  0.3615
    2MOL0     C  150   4.433   5.276   5.504  0.0282  0.4109 -0.6937
    2MOL0     C  151   4.299   5.252   5.435  0.0128 -0.3836 -0.1356
    2MOL0     N  152   4.218   5.154   5.506  0.0610  0.5685  0.3013
    2MOL0     C  153   4.187   5.155   5.642  0.2457 -0.5416  0.4433
    2MOL0     C  154   4.121   5.045   5.672 -0.0863  0.2414 -0.1463
    2MOL0     C  155   4.043   5.002   5.794  0.4979  0.4678  0.2326
    2MOL0     C  156   3.908   5.070   5.782  1.2605  0.8181  0.3172
    2MOL0     C  157   3.904   5.213   5.853  0.1652  1.1533 -0.1803
    2MOL0     C  158   3.755   5.253   5.855 -0.1419  0.3294 -0.0913
    2MOL0     O  159   3.684   5.230   5.737 -0.4334 -0.3975 -0.2126
    2MOL0     C  160   3.550   5.235   5.763  0.5183 -0.0514  0.1952
    2MOL0     C  161   3.482   5.356   5.754  0.1821 -0.0893 -0.1463
    2MOL0     C  162   3.346   5.356   5.768  0.7302 -0.4738  0.4957
    2MOL0     C  163   3.283   5.491   5.742 -0.1733  0.4558  0.5562
    2MOL0     C  164   3.275   5.244   5.814 -0.3756  0.3822  0.3549
    2MOL0     C  165   3.137   5.259   5.848  1.1805 -0.1826 -0.5880
    2MOL0     O  166   3.101   5.357   5.943 -0.4549  0.2618 -0.8880
    2MOL0     C  167   2.971   5.352   5.991  0.0616  0.2329 -0.3080
    2MOL0     C  168   2.860   5.343   5.906 -0.0211  1.2542  0.0167
    2MOL0     C  169   2.724   5.343   5.946  0.9590  0.2129  0.3821
    2MOL0     C  170   2.703   5.356   6.082  0.3168  0.1632 -0.2907
    2MOL0     O  171   2.567   5.340   6.117 -0.6281 -0.5097 -0.5252
    2MOL0     C  172   2.528   5.363   6.254 -0.1951 -0.4129  0.7557
    2MOL0     C  173   2.379   5.402   6.279 -0.6742 -0.2363  0.3138
    2MOL0     C  174   2.288   5.310   6.203 -0.6943 -0.3752  1.1373
    2MOL0     C  175   2.145   5.362   6.202  1.1166  0.1002  0.7625
    2MOL0     C  176   2.046   5.285   6.104  0.3932  0.1011 -0.3447
    2MOL0     C  177   1.898   5.336   6.130 -0.5132 -0.4298  0.1251
    2MOL0     C  178   1.839   5.383   5.995 -1.1837  0.1108  0.1273
    2MOL0     C  179   1.703   5.461   6.013 -0.7397  0.5400  0.3109
    2MOL0    Cl  180   1.564   5.348   6.051 -0.3625 -0.1778 -0.0358
    2MOL0     C  181   2.817   5.374   6.172  0.0854 -0.3934 -0.9622
    2MOL0     C  182   2.945   5.377   6.123  0.5377 -0.3499  0.6807
    2MOL0     O  183   3.066   5.170   5.796 -0.6664 -0.4245  0.0927
    2MOL0     C  184   3.343   5.119   5.832 -0.0671  0.4994  0.1374
    2MOL0     C  185   3.480   5.114   5.804  0.4026  0.0319  0.5061
    2MOL0     N  186   4.111   4.972   5.555  0.1996  0.5469  0.1635
    2MOL0     N  187   4.168   5.034   5.455 -0.5808 -0.1094  0.3531
    2MOL0     C  188   5.143   4.821   5.131 -1.0671  0.2491 -0.7633
    2MOL0     C  189   5.275   4.767   5.145 -0.5210  0.0652 -0.1852
    2MOL0     C  190   5.592   4.422   5.166  0.5616 -0.5078 -0.3501
    2MOL0     C  191   5.628   4.308   5.240 -0.6003  0.1906  0.6871
    2MOL0     C  192   5.764   4.263   5.231 -0.3001  0.0543 -0.1651
    2MOL0     C  193   5.854   4.336   5.147 -0.0697 -0.0042  0.6407
    2MOL0     O  194   5.991   4.314   5.146  0.5909  0.7517  0.3473
    2MOL0     C  195   6.053   4.192   5.200 -0.2153  0.0706 -0.0904
    2MOL0     C  196   6.207   4.201   5.199  0.8619  0.2356  0.7215
    2MOL0     C  197   6.256   4.234   5.057  0.6380  0.0706  0.1790
    2MOL0     C  198   6.411   4.258   5.049  0.1637 -1.0668 -0.5732
    2MOL0     C  199   6.484   4.135   5.090  0.1613  0.0462 -0.9991
    2MOL0     C  200   6.552   4.044   5.114  0.1868  0.4275  0.0672
    2MOL0     C  201   5.815   4.453   5.074 -0.0970  0.8357 -1.4458
    2MOL0     C  202   5.681   4.487   5.077  0.8047  0.1934  0.7702
    2MOL0     H  203   5.249   4.474   4.990  0.7612  0.4732  0.3640
    2MOL0     H  204   4.992   4.546   5.021 -0.7007 -0.5303  1.0185
    2MOL0     H  205   4.722   4.709   5.081 -0.1657 -0.2209 -0.3059
    2MOL0     H  206   4.837   4.602   5.174  2.0406  0.8515  1.1274
    2MOL0     H  207   4.707   4.706   5.338  0.0129  1.5884  0.3530
    2MOL0     H  208   4.855   4.804   5.345  2.1767 -0.4118 -1.7640
    2MOL0     H  209   4.712   4.966   5.171  0.1782  3.0268  1.6793
    2MOL0     H  210   4.582   4.861   5.229  0.8838 -0.8747 -0.8529
    2MOL0     H  211   4.639   4.940   5.469  1.4373  1.0776  1.4108
    2MOL0     H  212   4.774   5.033   5.388  1.0887 -1.9694 -2.2861
    2MOL0     H  213   4.568   5.174   5.294  0.7326 -0.7950 -0.4843
    2MOL0     H  214   4.460   5.042   5.343  0.8398  0.1430 -2.2740
    2MOL0     H  215   4.498   5.089   5.576  1.4488  0.4590  1.9131
    2MOL0     H  216   4.626   5.206   5.528 -0.4295  0.7700 -0.6593
    2MOL0     H  217   4.411   5.288   5.610  0.1697 -1.6448 -0.4029
    2MOL0     H  218   4.479   5.367   5.462 -0.2885 -0.6492 -3.5923
    2MOL0     H  219   4.309   5.210   5.334  1.5578 -0.1105 -0.1204
    2MOL0     H  220   4.244   5.346   5.427 -0.1395 -0.2551  1.8557
    2MOL0     H  221   4.188   5.238   5.712  0.3860 -0.4491  0.3327
    2MOL0     H  222   4.032   4.893   5.783  2.4147 -0.0016  2.2173
    2MOL0     H  223   4.100   5.016   5.886  1.3907  0.1997 -0.2755
    2MOL0     H  224   3.842   5.004   5.839  0.2166  1.6966  0.1586
    2MOL0     H  225   3.870   5.068   5.680  1.0038 -0.3738  0.4256
    2MOL0     H  226   3.965   5.289   5.804 -2.0435  2.3285 -1.2276
    2MOL0     H  227   3.942   5.203   5.956  0.7087 -1.1150 -0.5472
    2MOL0     H  228   3.750   5.361   5.868 -2.7150  0.1156  1.4404
    2MOL0     H  229   3.710   5.195   5.937  0.3486 -0.7005 -0.5266
    2MOL0     H  230   3.532   5.445   5.719  2.0842 -1.5680 -1.4278
    2MOL0     H  231   3.258   5.538   5.837  0.1038  2.0474 -0.1243
    2MOL0     H  232   3.354   5.550   5.684 -0.0707  0.6233  0.8562
    2MOL0     H  233   3.192   5.485   5.682 -0.8285  0.5988  1.5156
    2MOL0     H  234   2.881   5.348   5.799 -0.2717  1.7649 -0.0109
    2MOL0     H  235   2.644   5.339   5.873  2.4016 -0.9774 -1.2212
    2MOL0     H  236   2.552   5.271   6.307  0.3741 -0.1888  0.8838
    2MOL0     H  237   2.588   5.447   6.290 -1.9132  2.2308 -1.9876
    2MOL0     H  238   2.363   5.399   6.388  3.6948  1.1914  1.2292
    2MOL0     H  239   2.371   5.505   6.244 -1.6660  0.3198  2.0461
    2MOL0     H  240   2.294   5.212   6.252  1.2667 -1.2121 -0.6536
    2MOL0     H  241   2.316   5.295   6.099 -1.5287  2.5305  0.3974
    2MOL0     H  242   2.107   5.326   6.298 -0.7389 -0.8225 -0.2672
    2MOL0     H  243   2.142   5.470   6.184 -1.7492  0.2088  1.4938
    2MOL0     H  244   2.045   5.176   6.117 -0.5797  0.2610  1.0449
    2MOL0     H  245   2.073   5.305   6.000  1.9615 -2.7113 -0.5921
    2MOL0     H  246   1.834   5.262   6.179  0.1073 -0.3317  1.1133
    2MOL0     H  247   1.899   5.424   6.195 -5.1892  0.4452 -0.6724
    2MOL0     H  248   1.827   5.301   5.924 -0.0484 -2.1279  2.3536
    2MOL0     H  249   1.917   5.450   5.958 -1.4596  0.6050  0.4346
    2MOL0     H  250   1.691   5.518   5.921  2.2145  1.4157  0.3643
    2MOL0     H  251   1.709   5.531   6.097 -1.0722  0.4009  0.4523
    2MOL0     H  252   2.804   5.399   6.276 -1.4385  3.4876 -1.8965
    2MOL0     H  253   3.026   5.397   6.193  0.6332 -0.0144  0.4789
    2MOL0     H  254   3.283   5.036   5.867 -1.0657  1.0527 -0.2513
    2MOL0     H  255   3.533   5.021   5.823  0.1782 -0.2931 -0.3799
    2MOL0     H  256   5.123   4.926   5.146  0.3969  0.9644 -3.2330
    2MOL0     H  257   5.356   4.826   5.185  0.4005 -0.3286 -1.3869
    2MOL0     H  258   5.556   4.256   5.303 -0.6252 -1.3393 -0.5558
    2MOL0     H  259   5.800   4.188   5.300 -2.5114  0.8492  1.9974
    2MOL0     H  260   6.028   4.175   5.305  2.0403  0.0271  0.4896
    2MOL0     H  261   6.021   4.101   5.148  0.1606  0.7766 -1.5992
    2MOL0     H  262   6.238   4.100   5.227 -2.3463 -0.7635  1.0514
    2MOL0     H  263   6.238   4.272   5.277  0.5801 -0.5881  1.5988
    2MOL0     H  264   6.198   4.319   5.019  0.4193 -1.0873 -2.3153
    2MOL0     H  265   6.233   4.152   4.989 -0.0683 -1.2987  2.0193
    2MOL0     H  266   6.438   4.349   5.103 -2.6494 -0.4263 -0.0715
    2MOL0     H  267   6.434   4.270   4.943 -0.3938  0.6801 -0.5226
    2MOL0     H  268   6.610   3.955   5.132  0.6835  0.5906 -0.7174
    2MOL0     H  269   5.879   4.520   5.018  0.7958  1.3794  0.1657
    2MOL0     H  270   5.657   4.582   5.030 -1.0376 -0.2231  0.7696
    3MOL0     O  271   2.510   8.600   3.311  0.2710 -0.5835 -0.1716
    3MOL0     C  272   2.627   8.652   3.330  0.3561 -0.2314 -0.0770
    3MOL0     O  273   2.693   8.735   3.243  0.3536 -0.2377 -0.1239
    3MOL0     C  274   2.644   8.771   3.118  0.5898 -0.5825  0.3445
    3MOL0     C  275   2.521   8.730   3.056 -0.7530  1.2993 -0.1310
    3MOL0     C  276   2.498   8.768   2.927  0.5142 -0.6846 -0.5310
    3MOL0     C  277   2.589   8.837   2.849 -0.6028  0.1095  0.1247
    3MOL0     O  278   2.578   8.863   2.714  0.2128  0.5077 -0.1658
    3MOL0     C  279   2.445   8.862   2.648  0.0417  0.1404  0.1618
    3MOL0     C  280   2.460   8.851   2.494  0.3218 -0.7329  0.2061
    3MOL0     C  281   2.547   8.960   2.438 -0.6925  0.4495  0.5751
    3MOL0     C  282   2.533   8.956   2.286  0.5332  0.1697 -0.4777
    3MOL0     C  283   2.622   9.057   2.223  0.0491 -0.2117  0.7005
    3MOL0     C  284   2.578   9.204   2.247 -0.3990  0.3429  0.4276
    3MOL0     C  285   2.630   9.301   2.130 -0.0205 -0.2770  0.5275
    3MOL0     C  286   2.555   9.281   2.005  0.2093 -0.0349 -0.2870
    3MOL0     N  287   2.587   9.373   1.892  0.4810 -0.5381 -0.1136
    3MOL0     C  288   2.711   9.421   1.846  0.1001  0.0163  0.2481
    3MOL0     C  289   2.687   9.491   1.736 -0.4944 -0.3595  0.4314
    3MOL0     C  290   2.802   9.533   1.645 -1.1510 -1.2133  0.4213
    3MOL0     C  291   2.745   9.580   1.503  0.3983 -0.5722  0.0984
    3MOL0     C  292   2.854   9.631   1.418 -0.1286  0.5117  0.0041
    3MOL0     C  293   2.820   9.650   1.279 -0.6794 -0.2875 -0.0754
    3MOL0     O  294   2.726   9.756   1.250 -0.4716  0.1320  0.5457
    3MOL0     C  295   2.603   9.701   1.212 -0.1136  0.4007  0.3016
    3MOL0     C  296   2.581   9.681   1.075 -0.0266  0.0493  0.6462
    3MOL0     C  297   2.453   9.650   1.026  0.6945 -0.2659 -0.3252
    3MOL0     C  298   2.421   9.649   0.883  0.1918  0.2367  0.1613
    3MOL0     C  299   2.347   9.638   1.113 -0.1572 -0.4679  0.3109
    3MOL0     C  300   2.204   9.621   1.074 -0.4874 -0.4207 -0.5682
    3MOL0     O  301   2.145   9.521   1.144  0.3439 -0.1536  0.3685
    3MOL0     C  302   2.024   9.463   1.104 -0.2637 -0.5300 -0.2560
    3MOL0     C  303   1.937   9.437   1.208 -0.4694 -0.8670  0.3236
    3MOL0     C  304   1.821   9.377   1.184  0.6203  0.2196  0.4210
    3MOL0     C  305   1.786   9.343   1.051 -0.1257  1.0811  0.4393
    3MOL0     O  306   1.676   9.270   1.023  0.7979  0.3745  0.2325
    3MOL0     C  307   1.561   9.298   1.094  0.4220 -0.1603 -0.2876
    3MOL0     C  308   1.446   9.219   1.030 -0.2868 -0.4839  0.8980
    3MOL0     C  309   1.481   9.066   0.995  0.5627  0.1164  0.0464
    3MOL0     C  310   1.461   8.968   1.113  0.8124  0.7651  0.4195
    3MOL0     C  311   1.520   8.822   1.090 -0.4069 -0.5244  0.2553
    3MOL0     C  312   1.676   8.807   1.079  0.0430 -0.6362  0.2428
    3MOL0     C  313   1.757   8.876   1.194  0.2354  0.2494  0.6695
    3MOL0     C  314   1.902   8.893   1.144 -0.5420  0.3101 -1.4070
    3MOL0    Cl  315   2.000   8.945   1.283  0.3395  0.7029  0.4321
    3MOL0     C  316   1.873   9.375   0.952 -0.2269 -0.3013  0.1834
    3MOL0     C  317   1.987   9.445   0.972 -0.1917  0.3405  0.0088
    3MOL0     O  318   2.149   9.693   0.995 -0.7114 -0.1117  0.0630
    3MOL0     C  319   2.374   9.637   1.252 -0.2397  0.2064  0.0390
    3MOL0     C  320   2.500   9.671   1.301 -0.2291 -0.1345 -0.2386
    3MOL0     N  321   2.553   9.489   1.713  0.3812  0.1998 -0.3146
    3MOL0     N  322   2.485   9.424   1.810 -1.0561  0.5948  1.0478
    3MOL0     C  323   2.708   8.881   2.911  0.0004 -0.1329  0.0175
    3MOL0     C  324   2.734   8.848   3.047 -0.5593 -0.2305  0.1060
    3MOL0     C  325   2.701   8.616   3.452  0.9924 -0.0304  0.2546
    3MOL0     C  326   2.641   8.567   3.567  0.0759  0.5463 -0.0954
    3MOL0     C  327   2.704   8.553   3.691 -0.4118 -0.1218 -0.0416
    3MOL0     C  328   2.843   8.572   3.699 -0.0730 -0.4327 -0.3994
    3MOL0     O  329   2.904   8.568   3.829  0.6260  0.4167  0.2451
    3MOL0     C  330   3.053   8.549   3.822  0.3706 -0.1772 -0.2277
    3MOL0     C  331   3.116   8.692   3.863  0.3077  0.2593 -0.8516
    3MOL0     C  332   3.269   8.681   3.849  0.6290  0.2976  0.0666
    3MOL0     C  333   3.338   8.815   3.877 -0.3859 -0.4408  0.6492
    3MOL0     C  334   3.478   8.819   3.840 -0.3540 -0.1179  0.9123
    3MOL0     C  335   3.592   8.821   3.796 -0.7604  0.9221 -0.1401
    3MOL0     C  336   2.907   8.637   3.588  0.2748 -0.1805 -0.4044
    3MOL0     C  337   2.837   8.649   3.470  0.0075 -0.8009  0.1082
    3MOL0     H  338   2.445   8.668   3.101  0.6915  0.7103  1.6185
    3MOL0     H  339   2.404   8.740   2.881 -1.4196  3.9952  0.0267
    3MOL0     H  340   2.382   8.779   2.682 -0.6927  0.0855 -1.2909
    3MOL0     H  341   2.391   8.952   2.678 -0.7610  0.5602 -2.3261
    3MOL0     H  342   2.501   8.754   2.465 -0.3416 -0.4322 -1.8532
    3MOL0     H  343   2.362   8.865   2.448  1.7329 -3.1146 -4.1035
    3MOL0     H  344   2.519   9.058   2.476  2.2701  1.2225  0.9509
    3MOL0     H  345   2.648   8.935   2.471 -1.0497 -0.5327  0.9715
    3MOL0     H  346   2.574   8.859   2.255  1.9957  0.0233  1.6921
    3MOL0     H  347   2.429   8.950   2.252  0.1973  0.5082  0.4905
    3MOL0     H  348   2.716   9.043   2.275 -1.2226 -1.1096  2.8953
    3MOL0     H  349   2.622   9.044   2.114 -2.9496  0.4098  0.5191
    3MOL0     H  350   2.469   9.207   2.258 -0.7255 -4.0997  0.0982
    3MOL0     H  351   2.620   9.245   2.340 -0.7438 -3.0643  2.2325
    3MOL0     H  352   2.620   9.407   2.155  0.9337  0.1568 -0.7998
    3MOL0     H  353   2.737   9.282   2.117 -0.0485 -0.6108  0.7628
    3MOL0     H  354   2.445   9.275   2.004  0.2493 -1.8270 -2.4563
    3MOL0     H  355   2.576   9.179   1.971 -3.8174 -0.6528 -1.4683
    3MOL0     H  356   2.809   9.401   1.890  1.1601  1.8775 -1.0898
    3MOL0     H  357   2.857   9.613   1.694 -1.6228  0.4770 -1.6763
    3MOL0     H  358   2.874   9.451   1.633 -0.4894 -0.8282  1.5597
    3MOL0     H  359   2.680   9.667   1.516  0.8993  0.2992 -2.5832
    3MOL0     H  360   2.694   9.495   1.456  0.7796 -1.3668  1.1029
    3MOL0     H  361   2.937   9.560   1.415 -0.7340 -0.2775  1.2033
    3MOL0     H  362   2.889   9.720   1.472  1.7289 -0.2585  0.1479
    3MOL0     H  363   2.775   9.552   1.261 -2.4929  0.3342  0.8364
    3MOL0     H  364   2.907   9.659   1.213 -0.3272 -0.4835  0.3515
    3MOL0     H  365   2.662   9.696   1.004 -0.2157  1.9210  0.7618
    3MOL0     H  366   2.509   9.680   0.827 -1.2938 -0.1089 -2.5469
    3MOL0     H  367   2.382   9.554   0.844 -0.1994  1.1994 -1.8978
    3MOL0     H  368   2.347   9.726   0.862  0.1560 -0.1470 -1.2174
    3MOL0     H  369   1.968   9.455   1.311  2.0931 -1.8632 -0.2013
    3MOL0     H  370   1.762   9.349   1.270  0.1536  1.2137  0.4317
    3MOL0     H  371   1.564   9.264   1.197 -3.4718 -2.8302 -0.7984
    3MOL0     H  372   1.535   9.404   1.096  1.2094  0.0403  2.0788
    3MOL0     H  373   1.364   9.228   1.102  1.2585 -0.2606  2.6839
    3MOL0     H  374   1.425   9.264   0.932  1.2486 -2.5729 -0.4855
    3MOL0     H  375   1.582   9.050   0.955  0.0775 -4.8870  0.1049
    3MOL0     H  376   1.406   9.029   0.924 -1.3190  1.8906  0.9981
    3MOL0     H  377   1.515   9.018   1.194 -0.1743  3.8028 -0.6689
    3MOL0     H  378   1.355   8.968   1.139  1.4695  0.7986  3.5389
    3MOL0     H  379   1.476   8.784   0.997  0.0610 -0.0836 -0.1542
    3MOL0     H  380   1.483   8.769   1.178 -0.4091  0.3926  0.8148
    3MOL0     H  381   1.703   8.702   1.065  3.5800 -0.0341  1.3826
    3MOL0     H  382   1.710   8.850   0.985  1.0766 -1.0568  0.4049
    3MOL0     H  383   1.769   8.805   1.277  0.6293  1.8789  2.0562
    3MOL0     H  384   1.713   8.972   1.220  1.5053  1.0044  0.1570
    3MOL0     H  385   1.896   8.967   1.063 -0.9253  0.9991 -0.7540
    3MOL0     H  386   1.950   8.799   1.116  2.0332  1.3836 -0.8650
    3MOL0     H  387   1.866   9.332   0.852 -3.1549  1.4192 -0.4910
    3MOL0     H  388   2.058   9.471   0.895  1.3010  1.0822  1.5664
    3MOL0     H  389   2.285   9.635   1.314 -0.7442  0.9534 -0.6414
    3MOL0     H  390   2.508   9.697   1.406 -0.5091  0.3095 -0.3232
    3MOL0     H  391   2.778   8.933   2.846 -1.7844 -0.6531 -2.4533
    3MOL0     H  392   2.823   8.882   3.098 -1.3930 -2.1718  3.1596
    3MOL0     H  393   2.535   8.542   3.566 -0.1302  1.4058 -1.2139
    3MOL0     H  394   2.644   8.510   3.770 -0.7227  0.2693 -0.0644
    3MOL0     H  395   3.088   8.482   3.901  1.4092  1.7111  0.9864
    3MOL0     H  396   3.096   8.520   3.726 -0.9405 -1.6983 -0.3953
    3MOL0     H  397   3.103   8.695   3.971 -0.2505 -0.2846 -0.8959
    3MOL0     H  398   3.061   8.774   3.815  1.0315  0.3302 -1.5853
    3MOL0     H  399   3.279   8.644   3.746  1.4991 -3.6206  1.3982
    3MOL0     H  400   3.298   8.601   3.918  0.9611 -0.1242 -0.5517
    3MOL0     H  401   3.334   8.830   3.985  1.1626  1.0662  0.5352
    3MOL0     H  402   3.284   8.887   3.815  1.2454 -0.5045 -0.9370
    3MOL0     H  403   3.692   8.822   3.758 -0.3088 -2.6679  0.6520
    3MOL0     H  404   3.008   8.675   3.600  1.0932 -2.7278  1.6998
    3MOL0     H  405   2.889   8.695   3.387 -1.4837  0.0498 -0.4038
    4MOL0     O  406   4.765   2.469   0.885  0.1506 -0.5991 -0.2291
    4MOL0     C  407   4.797   2.494   0.769  0.3644  0.0561  0.3313
    4MOL0     O  408   4.710   2.495   0.664  0.6559 -0.0314 -0.1003
    4MOL0     C  409   4.584   2.446   0.669 -0.7434  0.9762 -0.8118
    4MOL0     C  410   4.553   2.317   0.726 -0.2802  0.2241 -0.4556
    4MOL0     C  411   4.429   2.260   0.705  0.3958 -0.3703  0.3649
    4MOL0     C  412   4.327   2.327   0.626 -0.9955  0.3790 -0.5145
    4MOL0     O  413   4.218   2.264   0.589  0.4987 -1.2066  0.0076
    4MOL0     C  414   4.237   2.148   0.515  0.0034  0.3775  0.3208
    4MOL0     C  415   4.110   2.097   0.450 -0.9324 -0.0566  0.2358
    4MOL0     C  416   4.009   2.051   0.557  0.4482 -0.8550 -0.0631
    4MOL0     C  417   3.908   1.960   0.487  0.1669 -0.0671 -0.3922
    4MOL0     C  418   3.797   1.923   0.584 -0.1924  0.2335  0.1081
    4MOL0     C  419   3.691   1.837   0.506  0.6449 -0.4770  0.6607
    4MOL0     C  420   3.557   1.832   0.575  0.6413  0.2475  0.3655
    4MOL0     C  421   3.456   1.720   0.529 -0.2592  0.3423 -0.0059
    4MOL0     N  422   3.345   1.789   0.455 -0.7436  0.1242 -0.0401
    4MOL0     C  423   3.220   1.796   0.492  0.4377 -0.7777 -0.2449
    4MOL0     C  424   3.147   1.846   0.390 -0.2350  0.2187 -0.1961
    4MOL0     C  425   3.007   1.891   0.386  1.2020 -0.7499  0.9180
    4MOL0     C  426   2.907   1.807   0.465  0.0268 -0.1462  0.9424
    4MOL0     C  427   2.764   1.856   0.431 -0.4753  0.4453  1.1302
    4MOL0     C  428   2.662   1.803   0.524 -0.2029 -0.6287  0.1349
    4MOL0     O  429   2.537   1.847   0.466  0.3155 -0.2295  0.4555
    4MOL0     C  430   2.423   1.828   0.548  0.6403 -0.6891 -0.1164
    4MOL0     C  431   2.425   1.783   0.681 -0.6314  0.6955 -0.2769
    4MOL0     C  432   2.309   1.762   0.754  0.3134 -0.1205 -0.4203
    4MOL0     C  433   2.340   1.686   0.893 -0.8847 -0.2643  0.2042
    4MOL0     C  434   2.185   1.779   0.695 -0.4368 -0.7231  0.9017
    4MOL0     C  435   2.062   1.761   0.765 -0.5240  0.7754 -0.9191
    4MOL0     O  436   2.055   1.628   0.822  0.7773  0.1569 -0.2560
    4MOL0     C  437   1.937   1.568   0.844  0.9366 -0.1439 -0.4753
    4MOL0     C  438   1.841   1.624   0.927 -0.6043  0.2490 -0.7204
    4MOL0     C  439   1.719   1.550   0.949 -0.4803  0.5139 -0.4981
    4MOL0     C  440   1.701   1.422   0.889  0.6608  0.8711 -0.5843
    4MOL0     O  441   1.589   1.345   0.929 -0.3493 -0.7900  0.9546
    4MOL0     C  442   1.465   1.396   0.888  0.8577 -0.3059 -0.2720
    4MOL0     C  443   1.368   1.386   0.998 -1.1231 -0.5263 -0.1545
    4MOL0     C  444   1.236   1.440   0.961  0.2482 -0.5651  0.3226
    4MOL0     C  445   1.111   1.372   1.022  0.6312  0.1948 -1.4169
    4MOL0     C  446   1.042   1.278   0.922  0.3740  0.0059  0.6251
    4MOL0     C  447   0.919   1.205   0.986  0.0293  0.6650  0.6144
    4MOL0     C  448   0.798   1.297   1.012  0.0141 -0.6935  0.3181
    4MOL0     C  449   0.666   1.233   0.948 -0.4625 -0.1842 -0.9046
    4MOL0    Cl  450   0.559   1.348   0.864 -0.3532 -0.1263  0.1733
    4MOL0     C  451   1.803   1.363   0.823  0.7199  0.2036  0.4328
    4MOL0     C  452   1.914   1.438   0.790  0.6910  0.9202  0.9697
    4MOL0     O  453   1.963   1.825   0.739  0.2373 -0.2097 -0.2603
    4MOL0     C  454   2.188   1.830   0.566  0.1274 -0.6467 -0.1495
    4MOL0     C  455   2.301   1.844   0.492 -0.1979 -0.2672 -0.2463
    4MOL0     N  456   3.238   1.880   0.293  0.2850 -0.3210  0.8372
    4MOL0     N  457   3.352   1.836   0.327  0.8786  0.7628 -0.4790
    4MOL0     C  458   4.355   2.452   0.578 -0.3458  0.4309  0.4453
    4MOL0     C  459   4.480   2.513   0.607 -0.1007  0.5013  0.5191
    4MOL0     C  460   4.922   2.575   0.747 -0.1339 -0.1920 -0.8252
    4MOL0     C  461   4.935   2.655   0.630 -0.2956 -0.1936 -0.2698
    4MOL0     C  462   5.056   2.723   0.613 -0.1371  0.4546  0.4283
    4MOL0     C  463   5.154   2.718   0.711  0.3808  0.0201  0.5966
    4MOL0     O  464   5.263   2.798   0.681  0.0210  0.0534  0.4316
    4MOL0     C  465   5.373   2.806   0.777 -0.2399  0.0313  0.2968
    4MOL0     C  466   5.447   2.926   0.714  0.1591  0.3579  0.4221
    4MOL0     C  467   5.515   2.890   0.580  0.4262  0.7327  0.0101
    4MOL0     C  468   5.629   2.983   0.538 -0.5942  0.5428 -0.6724
    4MOL0     C  469   5.698   2.943   0.406  0.3306  0.9078  0.2583
    4MOL0     C  470   5.743   2.915   0.291  0.3355 -0.2350  0.0394
    4MOL0     C  471   5.143   2.648   0.830 -0.1993 -0.5638 -0.7423
    4MOL0     C  472   5.020   2.578   0.851  0.0923 -0.7529 -0.0784
    4MOL0     H  473   4.630   2.263   0.780 -0.4354 -0.5551 -0.9939
    4MOL0     H  474   4.396   2.172   0.760 -1.9471  0.5697  0.5741
    4MOL0     H  475   4.292   2.157   0.421 -1.4019  1.5816 -0.4233
    4MOL0     H  476   4.272   2.065   0.578 -0.1785 -0.5602 -0.7756
    4MOL0     H  477   4.067   2.166   0.376  1.7861  0.2768 -1.1473
    4MOL0     H  478   4.131   2.024   0.371 -0.1676  2.4305 -2.0019
    4MOL0     H  479   4.060   1.996   0.637  3.8788  2.8012  0.5477
    4MOL0     H  480   3.973   2.145   0.598 -0.4726 -0.8884 -0.7648
    4MOL0     H  481   3.868   2.017   0.403 -1.1091  2.8360  1.9849
    4MOL0     H  482   3.953   1.868   0.448 -0.0034 -0.2454 -0.1765
    4MOL0     H  483   3.848   1.863   0.659 -1.5774  1.9505  2.5845
    4MOL0     H  484   3.752   2.014   0.625 -0.6080  0.7784 -1.4461
    4MOL0     H  485   3.675   1.891   0.412 -3.1646 -1.2764  0.7052
    4MOL0     H  486   3.734   1.738   0.490 -0.4405 -1.1984  2.0477
    4MOL0     H  487   3.566   1.834   0.684 -0.4277  0.2515  0.4620
    4MOL0     H  488   3.505   1.925   0.552 -1.3606 -1.6102 -3.5825
    4MOL0     H  489   3.415   1.664   0.614 -0.4582 -3.2830 -2.2695
    4MOL0     H  490   3.506   1.646   0.466  0.4766  1.2512 -0.5022
    4MOL0     H  491   3.186   1.756   0.588  0.8764 -1.3401 -0.3153
    4MOL0     H  492   3.012   1.997   0.414  0.3095  0.0810 -1.6917
    4MOL0     H  493   2.983   1.880   0.280  0.1404  0.8323  0.9671
    4MOL0     H  494   2.922   1.822   0.572 -0.4998  1.9009  0.7794
    4MOL0     H  495   2.914   1.700   0.445 -1.6943 -0.3218  1.0714
    4MOL0     H  496   2.730   1.858   0.327  0.9230  1.3673  0.6582
    4MOL0     H  497   2.776   1.963   0.448  2.1413  0.2746  0.7680
    4MOL0     H  498   2.677   1.848   0.622 -0.3002  0.3468 -0.2818
    4MOL0     H  499   2.657   1.693   0.522  1.0101 -0.6968 -1.3545
    4MOL0     H  500   2.521   1.749   0.718 -0.6299  0.3348 -0.6023
    4MOL0     H  501   2.255   1.681   0.962 -0.6560 -2.7052  0.3989
    4MOL0     H  502   2.367   1.581   0.879 -1.0312 -0.1297 -1.1657
    4MOL0     H  503   2.422   1.739   0.943  1.2007 -2.9352 -0.1541
    4MOL0     H  504   1.855   1.724   0.966 -1.0608  0.3974 -0.9280
    4MOL0     H  505   1.638   1.589   1.010 -0.8410  0.5342 -0.9749
    4MOL0     H  506   1.471   1.502   0.865 -1.2278 -0.1532 -0.3371
    4MOL0     H  507   1.433   1.344   0.797 -1.7999  0.6709  0.0145
    4MOL0     H  508   1.368   1.281   1.028  2.4455 -0.1437  1.8122
    4MOL0     H  509   1.414   1.435   1.085 -3.5550  1.9903 -0.1787
    4MOL0     H  510   1.224   1.443   0.852 -0.3864 -1.4761  0.3578
    4MOL0     H  511   1.232   1.546   0.988 -1.0935 -0.1033 -1.4667
    4MOL0     H  512   1.140   1.308   1.106  0.8383 -0.0883 -1.7035
    4MOL0     H  513   1.047   1.452   1.060  2.0511  0.8105 -0.2160
    4MOL0     H  514   1.115   1.204   0.889 -1.9461 -0.5626 -4.0547
    4MOL0     H  515   1.021   1.330   0.828 -1.7137 -2.6061 -0.4837
    4MOL0     H  516   0.889   1.128   0.914  0.2724  0.5169  0.6689
    4MOL0     H  517   0.948   1.156   1.079  0.3307  1.0013  0.6993
    4MOL0     H  518   0.807   1.389   0.953 -2.5504 -0.9337 -0.5880
    4MOL0     H  519   0.795   1.314   1.120 -1.5936  0.3707  0.1430
    4MOL0     H  520   0.611   1.184   1.029 -0.0293 -0.8412 -0.9994
    4MOL0     H  521   0.687   1.149   0.880 -2.2724 -1.3364 -0.1378
    4MOL0     H  522   1.795   1.261   0.787 -2.5206  0.1857  0.9089
    4MOL0     H  523   1.995   1.392   0.733 -2.2515 -1.4005 -1.7155
    4MOL0     H  524   2.104   1.872   0.511 -1.0198  0.3238  2.1711
    4MOL0     H  525   2.294   1.869   0.386  2.9126 -1.9359 -0.9818
    4MOL0     H  526   4.273   2.494   0.520 -0.4859 -0.9179 -0.3748
    4MOL0     H  527   4.510   2.606   0.561  0.9748  0.4438  1.0708
    4MOL0     H  528   4.864   2.641   0.549  0.6398 -2.1817 -0.8046
    4MOL0     H  529   5.065   2.778   0.520 -3.7750  1.9836  0.7990
    4MOL0     H  530   5.342   2.828   0.879 -0.7459 -2.0870  0.6466
    4MOL0     H  531   5.434   2.715   0.773 -1.7796 -1.0104 -0.3926
    4MOL0     H  532   5.524   2.942   0.790 -0.0622 -2.4946  1.3818
    4MOL0     H  533   5.377   3.008   0.695 -0.7557 -0.6723 -0.9186
    4MOL0     H  534   5.433   2.890   0.507 -0.4946  1.5371  1.0057
    4MOL0     H  535   5.550   2.790   0.606 -0.7963  0.4873  0.8045
    4MOL0     H  536   5.708   3.009   0.609 -0.4065 -0.8108 -0.3628
    4MOL0     H  537   5.579   3.077   0.513  1.4204  0.9624 -3.5533
    4MOL0     H  538   5.770   2.883   0.193  0.9063 -0.7740  0.3617
    4MOL0     H  539   5.218   2.658   0.908 -0.8869  3.1160 -0.3836
    4MOL0     H  540   4.996   2.518   0.938 -1.9935  0.1397  0.0277
    5MOL0     O  541  11.233   7.494   6.334 -0.6193  0.3452 -0.2003
    5MOL0     C  542  11.212   7.372   6.328 -0.5283 -0.4232 -0.3490
    5MOL0     O  543  11.102   7.305   6.278 -0.1220 -0.1854 -0.9486
    5MOL0     C  544  10.987   7.370   6.244  0.1631 -0.9199 -0.4680
    5MOL0     C  545  10.924   7.329   6.126 -0.7020 -0.1721 -0.9402
    5MOL0     C  546  10.800   7.382   6.090  0.1746 -0.0069 -0.1444
    5MOL0     C  547  10.741   7.478   6.168 -0.7519 -0.7790  0.2413
    5MOL0     O  548  10.615   7.528   6.163 -0.0730 -0.0344  0.5104
    5MOL0     C  549  10.571   7.556   6.033 -0.3212 -0.0446  0.4623
    5MOL0     C  550  10.423   7.593   6.051 -0.0429 -0.0843  0.2826
    5MOL0     C  551  10.373   7.644   5.917  1.0819 -0.3013  0.3690
    5MOL0     C  552  10.238   7.705   5.934  0.4782  0.4519  0.8418
    5MOL0     C  553  10.155   7.695   5.800  0.0185  0.1929  0.1982
    5MOL0     C  554  10.209   7.806   5.708  0.3555 -0.0962  0.1498
    5MOL0     C  555  10.164   7.801   5.563  0.6167  0.1386 -0.6444
    5MOL0     C  556  10.024   7.840   5.539 -0.4330 -0.0833 -0.3803
    5MOL0     N  557   9.915   7.753   5.569 -0.2055  1.1344 -0.2362
    5MOL0     C  558   9.842   7.686   5.472  0.8551  0.5146 -0.3592
    5MOL0     C  559   9.735   7.627   5.528 -0.5867  0.3029  0.3536
    5MOL0     C  560   9.634   7.532   5.453 -0.6404 -0.0347 -0.3838
    5MOL0     C  561   9.555   7.435   5.541 -0.9603  0.4503  0.3865
    5MOL0     C  562   9.506   7.311   5.472  0.5009 -0.0813  0.4158
    5MOL0     C  563   9.412   7.342   5.359  0.2433  0.5032 -0.3875
    5MOL0     O  564   9.371   7.222   5.291  0.8203  0.2557 -0.7032
    5MOL0     C  565   9.242   7.206   5.259 -0.1851 -0.5989 -0.0492
    5MOL0     C  566   9.147   7.308   5.235 -0.2088  0.3141  0.3510
    5MOL0     C  567   9.022   7.284   5.172 -0.2459  0.2499 -0.1296
    5MOL0     C  568   8.921   7.410   5.154 -0.7159  0.1892  0.0330
    5MOL0     C  569   8.978   7.153   5.136  0.1055 -0.4910 -0.6444
    5MOL0     C  570   8.833   7.126   5.100  0.1350  0.0631 -0.2601
    5MOL0     O  571   8.778   7.013   5.164 -0.0743  0.4067  0.0909
    5MOL0     C  572   8.642   6.997   5.178 -0.0996 -0.1992  1.0630
    5MOL0     C  573   8.584   7.017   5.306 -0.1672  0.2950  0.7146
    5MOL0     C  574   8.454   7.004   5.332  0.2102 -0.9882 -0.1958
    5MOL0     C  575   8.367   6.968   5.228 -0.2271 -0.8361 -0.6716
    5MOL0     O  576   8.238   6.954   5.265  0.4883  0.2739 -0.2456
    5MOL0     C  577   8.150   6.914   5.159 -0.2712  0.0210 -0.3685
    5MOL0     C  578   8.010   6.907   5.220 -0.0734  0.5693 -0.1838
    5MOL0     C  579   7.922   6.823   5.128 -0.8582 -0.4112 -0.1855
    5MOL0     C  580   7.779   6.841   5.168  0.5230 -1.1802  0.3208
    5MOL0     C  581   7.689   6.775   5.059  0.6034  0.6168  0.5147
    5MOL0     C  582   7.541   6.751   5.103 -0.7420 -0.6145 -0.7283
    5MOL0     C  583   7.452   6.691   4.989 -0.4896  1.5910 -0.3257
    5MOL0     C  584   7.301   6.665   5.024  0.1767  0.5979 -1.0703
    5MOL0    Cl  585   7.305   6.516   5.127 -0.0399 -0.0673 -0.1566
    5MOL0     C  586   8.419   6.952   5.098  0.0770  0.6089 -0.2318
    5MOL0     C  587   8.555   6.962   5.073  0.0654 -0.6832  0.1633
    5MOL0     O  588   8.771   7.200   5.019 -0.0475 -0.8409 -0.3739
    5MOL0     C  589   9.076   7.053   5.153  0.5873  0.1678  1.1627
    5MOL0     C  590   9.203   7.081   5.206  0.7558 -0.3103  0.2142
    5MOL0     N  591   9.735   7.671   5.662 -0.0909 -0.7174 -0.6234
    5MOL0     N  592   9.840   7.744   5.682 -0.2968 -0.5017  0.4376
    5MOL0     C  593  10.813   7.523   6.279  0.0694 -0.0511 -0.7055
    5MOL0     C  594  10.933   7.471   6.327 -0.0007 -0.0667  0.1177
    5MOL0     C  595  11.320   7.283   6.380 -0.3341  0.1069 -0.0691
    5MOL0     C  596  11.330   7.149   6.337  0.3267 -0.7936  0.3557
    5MOL0     C  597  11.433   7.070   6.381 -0.1807  0.1686 -0.0962
    5MOL0     C  598  11.544   7.122   6.449  0.4617  0.1701  0.1985
    5MOL0     O  599  11.642   7.057   6.505  0.6393  0.0842  0.1470
    5MOL0     C  600  11.639   6.914   6.504 -1.0042  0.3597  0.0516
    5MOL0     C  601  11.543   6.871   6.616  0.6501  0.3934  1.0505
    5MOL0     C  602  11.564   6.724   6.655  0.7329  0.1879 -0.2091
    5MOL0     C  603  11.454   6.664   6.744 -0.1396  0.9989 -0.6511
    5MOL0     C  604  11.315   6.669   6.704 -0.2496 -0.4476  0.0012
    5MOL0     C  605  11.210   6.679   6.653  0.0465 -0.3098 -0.1236
    5MOL0     C  606  11.534   7.259   6.491  1.0050  1.2850 -0.5315
    5MOL0     C  607  11.423   7.333   6.456  0.0585 -0.5006 -0.3829
    5MOL0     H  608  10.962   7.244   6.072  0.4076 -1.2118  1.3547
    5MOL0     H  609  10.750   7.340   6.003  1.5541  0.3698 -1.1680
    5MOL0     H  610  10.629   7.636   5.987  2.4095  1.4647  5.7169
    5MOL0     H  611  10.566   7.470   5.966  1.6805  0.9173 -0.9993
    5MOL0     H  612  10.371   7.501   6.079 -2.0465  0.4880 -1.3782
    5MOL0     H  613  10.418   7.661   6.136  1.1882  0.3915 -0.0020
    5MOL0     H  614  10.444   7.707   5.862 -0.1791 -1.2391 -2.4964
    5MOL0     H  615  10.368   7.554   5.855  0.2777 -0.4910  0.6962
    5MOL0     H  616  10.177   7.647   6.005  1.1195  0.2808  1.2562
    5MOL0     H  617  10.242   7.809   5.968  2.5708  0.6665  0.0790
    5MOL0     H  618  10.162   7.596   5.754 -0.4664 -0.3540  1.2478
    5MOL0     H  619  10.047   7.703   5.815 -0.1387 -2.2861  0.8999
    5MOL0     H  620  10.183   7.899   5.759  1.1365  1.5019 -2.2018
    5MOL0     H  621  10.317   7.798   5.699  0.4754  0.1139  1.2369
    5MOL0     H  622  10.229   7.870   5.508 -1.3021  0.2976 -2.8395
    5MOL0     H  623  10.183   7.707   5.511  1.2932  1.0915 -2.2179
    5MOL0     H  624  10.018   7.867   5.433  0.4692 -1.3609 -0.7837
    5MOL0     H  625  10.006   7.930   5.597  0.1663 -1.5123  2.1705
    5MOL0     H  626   9.867   7.677   5.367  0.0518 -0.1205 -0.5140
    5MOL0     H  627   9.566   7.593   5.394  0.6917  1.7001 -0.1959
    5MOL0     H  628   9.696   7.466   5.393  0.2823 -1.1484  1.6706
    5MOL0     H  629   9.483   7.504   5.584  0.1602  0.3256  2.5997
    5MOL0     H  630   9.615   7.400   5.626  0.5877  2.0156  0.0021
    5MOL0     H  631   9.459   7.256   5.554  1.3735 -0.3725  0.7403
    5MOL0     H  632   9.578   7.242   5.426 -0.1409 -0.3560 -0.1875
    5MOL0     H  633   9.464   7.401   5.283  1.2601  0.8271  0.5304
    5MOL0     H  634   9.325   7.394   5.401  0.6993  2.1100 -1.3103
    5MOL0     H  635   9.174   7.411   5.256  1.9465 -0.1894  0.3363
    5MOL0     H  636   8.905   7.414   5.046 -0.8456  1.4943  0.0837
    5MOL0     H  637   8.827   7.395   5.207 -0.4758 -0.3983  0.2996
    5MOL0     H  638   8.965   7.504   5.190  1.3891 -0.6281 -0.2798
    5MOL0     H  639   8.649   7.024   5.393 -1.7061 -0.9302  2.0150
    5MOL0     H  640   8.404   7.029   5.425 -2.3075 -0.9402 -1.4673
    5MOL0     H  641   8.144   6.986   5.077 -0.7585 -1.1488 -1.3897
    5MOL0     H  642   8.175   6.812   5.129  1.1119  0.0039  0.7207
    5MOL0     H  643   8.028   6.869   5.320  0.9231 -0.4455 -0.7269
    5MOL0     H  644   7.973   7.010   5.223 -0.3432  0.4638  0.1474
    5MOL0     H  645   7.966   6.722   5.128  3.6467  1.3117  0.5346
    5MOL0     H  646   7.936   6.859   5.026 -3.5727  0.4190 -0.3233
    5MOL0     H  647   7.764   6.795   5.267  0.3054 -1.7463  0.0344
    5MOL0     H  648   7.751   6.946   5.180 -3.5067 -2.2035  1.4780
    5MOL0     H  649   7.726   6.673   5.044 -0.0619  0.3919  0.3874
    5MOL0     H  650   7.696   6.816   4.958  0.3811 -2.1309 -0.7258
    5MOL0     H  651   7.544   6.690   5.194 -4.3685  1.3443  0.9388
    5MOL0     H  652   7.505   6.850   5.132  0.7124 -0.0817 -0.6811
    5MOL0     H  653   7.491   6.592   4.964 -1.1581  1.2102  0.1170
    5MOL0     H  654   7.458   6.765   4.910  2.9190  1.1442 -0.6448
    5MOL0     H  655   7.243   6.649   4.933 -0.4568  1.2596 -0.7890
    5MOL0     H  656   7.256   6.753   5.071 -3.3020 -1.0970 -0.9800
    5MOL0     H  657   8.358   6.920   5.014 -1.4895  0.2066  1.0108
    5MOL0     H  658   8.594   6.953   4.972 -2.9085  0.7695 -1.2257
    5MOL0     H  659   9.051   6.955   5.113  1.7426  0.5238 -0.5389
    5MOL0     H  660   9.280   7.008   5.226 -0.1424 -0.6653  2.9234
    5MOL0     H  661  10.766   7.605   6.333 -1.5849 -1.7270  0.5053
    5MOL0     H  662  10.973   7.505   6.422  0.9325  2.0802 -0.9825
    5MOL0     H  663  11.256   7.115   6.265 -1.7878  1.5689  1.2540
    5MOL0     H  664  11.435   6.966   6.347 -1.6689  0.1596 -0.1954
    5MOL0     H  665  11.619   6.867   6.407 -2.3656 -1.8154  1.3243
    5MOL0     H  666  11.741   6.883   6.531 -1.4574  0.8825  2.6052
    5MOL0     H  667  11.444   6.898   6.578  1.6835  1.6807 -0.9205
    5MOL0     H  668  11.577   6.931   6.701  2.3864 -1.4415  1.7272
    5MOL0     H  669  11.660   6.713   6.707 -0.6749  1.6309  2.9614
    5MOL0     H  670  11.567   6.668   6.561  1.9476  1.7757 -1.1799
    5MOL0     H  671  11.466   6.725   6.834 -1.3139  2.3450 -1.3573
    5MOL0     H  672  11.486   6.560   6.756  0.3030  1.0020 -1.6676
    5MOL0     H  673  11.118   6.688   6.599 -0.7217  1.5833  1.3873
    5MOL0     H  674  11.615   7.299   6.551  0.2061 -0.4233  1.8431
    5MOL0     H  675  11.415   7.438   6.482 -4.1110 -0.9176  0.8245
    6MOL0     O  676   2.250   1.208   2.976  0.5404 -0.1102 -0.0952
    6MOL0     C  677   2.343   1.135   2.992 -0.7356  0.2274  0.2742
    6MOL0     O  678   2.367   1.018   2.931  0.4760  0.2221 -0.4499
    6MOL0     C  679   2.285   0.958   2.841  0.9649  0.5079  0.7175
    6MOL0     C  680   2.148   0.986   2.825  0.0664 -0.1496  1.1131
    6MOL0     C  681   2.067   0.919   2.739  0.4086 -0.1273  0.3861
    6MOL0     C  682   2.116   0.813   2.659 -0.5274  0.0815 -0.2938
    6MOL0     O  683   2.039   0.755   2.560 -0.7299 -0.2738  0.3865
    6MOL0     C  684   1.898   0.766   2.562  0.6088  0.5172  0.3245
    6MOL0     C  685   1.837   0.643   2.481 -0.6657  0.3108 -0.0534
    6MOL0     C  686   1.682   0.652   2.470  0.4374  1.0280  0.5401
    6MOL0     C  687   1.623   0.549   2.563  0.3440  0.4711 -0.1307
    6MOL0     C  688   1.463   0.525   2.541 -1.2992 -0.1145  0.1368
    6MOL0     C  689   1.409   0.415   2.635  0.7461 -0.1455  0.0860
    6MOL0     C  690   1.257   0.398   2.614  0.3745 -0.8168  0.1251
    6MOL0     C  691   1.233   0.295   2.506  0.8196  0.4453  0.1913
    6MOL0     N  692   1.100   0.309   2.443 -1.2625 -0.2940 -0.3938
    6MOL0     C  693   1.062   0.428   2.390 -0.4959 -0.0173  0.2734
    6MOL0     C  694   0.932   0.418   2.373 -0.5958  1.1225  0.9232
    6MOL0     C  695   0.833   0.522   2.319 -0.1693 -0.2005 -0.3823
    6MOL0     C  696   0.788   0.609   2.437  0.1219  0.5318 -0.2075
    6MOL0     C  697   0.679   0.707   2.411 -0.0270 -0.9841 -0.0954
    6MOL0     C  698   0.540   0.659   2.444  0.4912 -0.4370 -0.2967
    6MOL0     O  699   0.442   0.751   2.400 -0.2563  1.2580 -0.2198
    6MOL0     C  700   0.309   0.756   2.452 -0.2270  0.6371 -0.2321
    6MOL0     C  701   0.263   0.647   2.537  0.1344  0.3623  0.4462
    6MOL0     C  702   0.127   0.646   2.584 -0.7293  0.4431 -1.0223
    6MOL0     C  703   0.088   0.532   2.676  0.1696  0.0172  0.0203
    6MOL0     C  704   0.042   0.754   2.546  0.1395 -0.3380  0.0293
    6MOL0     C  705  -0.105   0.765   2.594 -0.1688  0.1311  0.4690
    6MOL0     O  706  -0.156   0.889   2.623  0.4434  0.2571  0.4157
    6MOL0     C  707  -0.278   0.888   2.685  0.0280 -0.0165  1.5274
    6MOL0     C  708  -0.378   0.949   2.614  0.0659 -0.6123 -0.7698
    6MOL0     C  709  -0.503   0.970   2.668  0.0617  0.3784  0.4880
    6MOL0     C  710  -0.527   0.923   2.802 -0.1148 -0.6644  0.3632
    6MOL0     O  711  -0.645   0.938   2.863  0.5888  0.7714 -0.2791
    6MOL0     C  712  -0.752   0.855   2.804  0.0945  0.4102 -0.3106
    6MOL0     C  713  -0.901   0.908   2.835 -0.1156  0.7938  0.0443
    6MOL0     C  714  -0.996   0.810   2.780  0.1484 -0.5867  1.0517
    6MOL0     C  715  -1.134   0.815   2.841  0.2988  0.2441  0.2068
    6MOL0     C  716  -1.198   0.949   2.853  0.6438  0.5492 -0.3424
    6MOL0     C  717  -1.346   0.927   2.885 -0.5504  0.0114 -0.5701
    6MOL0     C  718  -1.433   1.055   2.855 -0.1736 -0.1123 -0.3263
    6MOL0     C  719  -1.581   1.038   2.901  0.9645  0.2984 -0.0647
    6MOL0    Cl  720  -1.605   1.075   3.069  0.0651  0.1918 -0.0037
    6MOL0     C  721  -0.421   0.861   2.877  1.0871 -0.2689  0.0408
    6MOL0     C  722  -0.296   0.845   2.813  0.0835  0.3930  0.4352
    6MOL0     O  723  -0.178   0.665   2.584  0.1390 -0.7962  0.5831
    6MOL0     C  724   0.088   0.847   2.453 -0.8810  0.1681  0.7630
    6MOL0     C  725   0.222   0.863   2.405  0.4012  1.1123 -0.7963
    6MOL0     N  726   0.890   0.297   2.424 -0.4449 -0.7261 -0.5687
    6MOL0     N  727   0.990   0.235   2.464 -0.0287 -0.2042  0.1156
    6MOL0     C  728   2.253   0.781   2.674 -0.2580  0.4754 -0.1222
    6MOL0     C  729   2.340   0.856   2.758  0.7702 -0.2852 -0.1409
    6MOL0     C  730   2.449   1.187   3.071  0.3771  0.4536  0.2882
    6MOL0     C  731   2.581   1.129   3.070  0.4812 -0.1610  0.2484
    6MOL0     C  732   2.683   1.171   3.151 -0.6948 -0.1005  0.0252
    6MOL0     C  733   2.657   1.273   3.247  0.0117  0.1193  0.3905
    6MOL0     O  734   2.752   1.312   3.334 -0.3690  0.1018 -0.1107
    6MOL0     C  735   2.877   1.225   3.346  0.8862 -0.2291 -0.4479
    6MOL0     C  736   2.974   1.267   3.449 -0.6202  0.6442  0.2704
    6MOL0     C  737   3.080   1.154   3.491  0.6296  0.1874 -0.6627
    6MOL0     C  738   3.197   1.132   3.404  0.6381  0.3836 -0.2448
    6MOL0     C  739   3.170   1.086   3.262  0.4732  0.2575 -0.1150
    6MOL0     C  740   3.139   1.041   3.155  0.1047  0.1703 -0.1214
    6MOL0     C  741   2.541   1.338   3.242  0.2156  0.3288 -0.0155
    6MOL0     C  742   2.432   1.293   3.160 -0.6570 -1.2780  0.7974
    6MOL0     H  743   2.099   1.065   2.881  1.5199  1.4901  0.1747
    6MOL0     H  744   1.963   0.948   2.729  0.4898  0.9658  2.2164
    6MOL0     H  745   1.862   0.751   2.664  1.1194  2.1941  0.7850
    6MOL0     H  746   1.874   0.863   2.518  6.0065  1.2878 -1.5857
    6MOL0     H  747   1.883   0.642   2.381 -0.6914 -1.3501 -0.0764
    6MOL0     H  748   1.865   0.550   2.532 -1.9009  0.2225  0.4858
    6MOL0     H  749   1.650   0.755   2.489  2.8554  1.9997 -0.3208
    6MOL0     H  750   1.646   0.618   2.372  1.4952 -1.0781  0.8189
    6MOL0     H  751   1.690   0.463   2.559  0.8073  0.8502 -0.5356
    6MOL0     H  752   1.641   0.580   2.667 -1.2410  1.1245 -0.0162
    6MOL0     H  753   1.412   0.622   2.552 -0.4126  0.4443 -0.6028
    6MOL0     H  754   1.455   0.488   2.439 -0.0562 -1.1288  0.3861
    6MOL0     H  755   1.450   0.314   2.622 -0.4736 -1.0757  2.6974
    6MOL0     H  756   1.426   0.445   2.739 -0.4700  2.6112 -0.4148
    6MOL0     H  757   1.212   0.371   2.711 -0.5121  2.4230  0.7393
    6MOL0     H  758   1.216   0.496   2.588  1.2030 -0.2398  0.9555
    6MOL0     H  759   1.243   0.192   2.542  1.2442 -1.1881 -4.0078
    6MOL0     H  760   1.309   0.306   2.429  0.2900  3.2041 -0.0517
    6MOL0     H  761   1.109   0.523   2.362  1.0483 -0.9307 -0.3807
    6MOL0     H  762   0.868   0.596   2.246 -1.5908  1.1062  0.1941
    6MOL0     H  763   0.747   0.468   2.280 -0.8025  0.3569  0.2045
    6MOL0     H  764   0.874   0.672   2.461  2.0547 -1.1262 -2.3050
    6MOL0     H  765   0.768   0.540   2.520 -3.1796 -1.6651 -2.5579
    6MOL0     H  766   0.682   0.738   2.306  3.8279  1.1152  0.4636
    6MOL0     H  767   0.696   0.802   2.462 -0.1366 -0.8446 -0.3146
    6MOL0     H  768   0.539   0.641   2.552  2.8085 -0.9774 -0.3098
    6MOL0     H  769   0.525   0.561   2.398  1.7913 -1.2041  0.7992
    6MOL0     H  770   0.335   0.567   2.555  0.8499 -0.4087 -4.3696
    6MOL0     H  771   0.010   0.572   2.742 -0.9309 -0.0383 -1.2048
    6MOL0     H  772   0.054   0.444   2.621 -0.4023 -2.1877  3.5943
    6MOL0     H  773   0.173   0.510   2.741  0.1601  0.6353  0.2525
    6MOL0     H  774  -0.348   0.974   2.513  0.6136  0.3052 -0.3970
    6MOL0     H  775  -0.576   1.026   2.611  1.6548  1.7863 -0.2606
    6MOL0     H  776  -0.748   0.855   2.695 -2.6779 -1.1023 -0.4933
    6MOL0     H  777  -0.740   0.751   2.835  2.2914  1.0804  1.3844
    6MOL0     H  778  -0.914   0.930   2.941 -1.0060  0.4051  0.0249
    6MOL0     H  779  -0.924   1.001   2.781 -0.9094 -1.1380 -3.1710
    6MOL0     H  780  -0.957   0.708   2.777  2.0906  0.0512 -3.0835
    6MOL0     H  781  -1.005   0.825   2.672 -1.4741  0.3113  1.2790
    6MOL0     H  782  -1.201   0.757   2.778 -1.4803  1.3692  0.9741
    6MOL0     H  783  -1.127   0.761   2.936  1.4954  0.1583  0.0770
    6MOL0     H  784  -1.202   1.006   2.759  0.2930 -0.7088 -1.1165
    6MOL0     H  785  -1.128   0.996   2.922  0.8666  0.2051 -0.3351
    6MOL0     H  786  -1.386   0.838   2.835  0.0410 -0.6300  0.0704
    6MOL0     H  787  -1.367   0.908   2.990 -2.6276  3.2371 -0.2697
    6MOL0     H  788  -1.437   1.053   2.746 -0.7933 -0.6973 -0.3057
    6MOL0     H  789  -1.388   1.148   2.890  2.1077 -1.3090  0.1260
    6MOL0     H  790  -1.615   0.936   2.878  0.3277  0.7901 -1.4275
    6MOL0     H  791  -1.639   1.116   2.851  0.4331  0.7086  1.1434
    6MOL0     H  792  -0.434   0.834   2.981 -1.7467 -1.7638 -0.5998
    6MOL0     H  793  -0.211   0.806   2.867  0.5795 -0.6137 -1.0152
    6MOL0     H  794   0.015   0.923   2.426 -1.0263 -1.1492 -3.1978
    6MOL0     H  795   0.238   0.945   2.336 -0.8583  1.5640 -0.5723
    6MOL0     H  796   2.300   0.693   2.632 -0.4055  0.4269 -0.1854
    6MOL0     H  797   2.442   0.819   2.769  1.0071 -0.7211 -3.1821
    6MOL0     H  798   2.596   1.037   3.014  1.2444  0.9930 -1.5562
    6MOL0     H  799   2.778   1.118   3.147 -1.6680 -1.8472 -0.8057
    6MOL0     H  800   2.831   1.128   3.366 -1.9000  0.4569 -2.7869
    6MOL0     H  801   2.923   1.223   3.246 -0.7337 -0.5560 -1.2244
    6MOL0     H  802   2.906   1.293   3.531 -3.3035 -4.5153  0.0402
    6MOL0     H  803   3.028   1.358   3.419 -0.5336 -0.0321 -1.7550
    6MOL0     H  804   3.028   1.058   3.505  0.3187  0.1329 -2.0267
    6MOL0     H  805   3.131   1.182   3.583 -0.9214 -1.7596  0.9123
    6MOL0     H  806   3.264   1.062   3.456 -1.1064  0.0805  1.6896
    6MOL0     H  807   3.242   1.232   3.401 -0.8589  1.1498  1.5466
    6MOL0     H  808   3.109   0.994   3.063  0.7774 -1.1949  0.3428
    6MOL0     H  809   2.521   1.414   3.317 -1.1413 -1.9167  2.0482
    6MOL0     H  810   2.336   1.344   3.172 -0.0895  0.5713 -1.7779
    7MOL0     O  811   3.725   9.984   4.262 -0.6032 -0.0099  0.2449
    7MOL0     C  812   3.667  10.091   4.262 -0.3338 -0.3254  0.7380
    7MOL0     O  813   3.528  10.113   4.269 -0.3971  0.2293 -0.0636
    7MOL0     C  814   3.443  10.009   4.280 -0.7957 -0.2727 -0.2385
    7MOL0     C  815   3.440   9.898   4.196 -0.6747  0.0307  0.5792
    7MOL0     C  816   3.346   9.789   4.207  0.2231 -0.0321 -0.0065
    7MOL0     C  817   3.239   9.802   4.299 -0.1267  0.3899  0.6505
    7MOL0     O  818   3.130   9.723   4.306 -0.4095  0.5067  0.1245
    7MOL0     C  819   3.132   9.601   4.226 -0.4886  0.0278  0.1863
    7MOL0     C  820   3.077   9.610   4.079  0.6163 -0.0607  0.4196
    7MOL0     C  821   2.925   9.603   4.081  0.1899 -0.6024 -0.4304
    7MOL0     C  822   2.859   9.601   3.942  0.1347 -0.4605 -0.2175
    7MOL0     C  823   2.742   9.496   3.923 -0.5196 -0.1471  0.0296
    7MOL0     C  824   2.618   9.548   3.987  0.3568  0.1023  0.2347
    7MOL0     C  825   2.495   9.472   3.939 -0.3302 -0.1094 -0.0483
    7MOL0     C  826   2.490   9.327   3.955 -0.4288  0.1401  0.2010
    7MOL0     N  827   2.497   9.290   4.099 -0.6092 -0.6203  0.4790
    7MOL0     C  828   2.612   9.280   4.171  0.2388  0.6766 -0.4248
    7MOL0     C  829   2.564   9.253   4.303 -0.3733 -0.0899  0.6062
    7MOL0     C  830   2.644   9.242   4.433 -0.4135  0.4923  1.3985
    7MOL0     C  831   2.789   9.225   4.383 -0.3553  0.3491  0.5297
    7MOL0     C  832   2.891   9.173   4.486 -0.6539  0.1886 -0.3166
    7MOL0     C  833   2.902   9.266   4.601  0.0579 -0.2465 -0.1398
    7MOL0     O  834   2.999   9.223   4.698 -0.6715  0.2751 -0.0513
    7MOL0     C  835   3.124   9.287   4.709  0.5338  0.5135 -0.4518
    7MOL0     C  836   3.144   9.415   4.694 -0.0349 -0.1661 -0.6179
    7MOL0     C  837   3.280   9.473   4.721 -0.0110  0.0969  0.3091
    7MOL0     C  838   3.288   9.626   4.710  0.5001 -0.2081  0.2693
    7MOL0     C  839   3.392   9.387   4.764  0.8274  0.4433 -0.6784
    7MOL0     C  840   3.529   9.437   4.797  0.2881  0.8439 -1.0365
    7MOL0     O  841   3.617   9.340   4.846  0.0094 -0.7130 -0.0178
    7MOL0     C  842   3.747   9.367   4.884 -0.6330 -0.1040  0.0339
    7MOL0     C  843   3.835   9.464   4.833  0.2001  0.4088 -0.1280
    7MOL0     C  844   3.977   9.467   4.868  0.8348  0.0690  1.2496
    7MOL0     C  845   4.031   9.379   4.962 -0.4316  0.5777 -0.2565
    7MOL0     O  846   4.162   9.377   5.008  0.2047 -0.3336 -0.2378
    7MOL0     C  847   4.257   9.473   4.962  0.3648 -0.5027  0.0651
    7MOL0     C  848   4.397   9.414   4.990  0.1750  0.0928 -0.9337
    7MOL0     C  849   4.502   9.533   4.993  0.5179 -0.1395 -0.3517
    7MOL0     C  850   4.648   9.489   4.967  0.3744  0.7498 -0.3888
    7MOL0     C  851   4.731   9.616   4.981  0.5819  0.4646 -0.4874
    7MOL0     C  852   4.887   9.584   4.958  0.8143 -0.1718  0.9899
    7MOL0     C  853   4.980   9.701   4.967 -1.0009  0.0476  0.1279
    7MOL0     C  854   5.125   9.675   4.914  0.9799 -0.2788 -0.6714
    7MOL0    Cl  855   5.203   9.532   4.996 -0.0088  0.3311  0.1699
    7MOL0     C  856   3.942   9.286   5.014  0.4641  0.7118  0.6787
    7MOL0     C  857   3.806   9.283   4.972  0.0355 -0.3093 -0.8713
    7MOL0     O  858   3.559   9.546   4.761  0.5052 -0.5513  0.4526
    7MOL0     C  859   3.363   9.252   4.779 -0.1333 -0.0193 -0.0421
    7MOL0     C  860   3.231   9.205   4.751  0.7000 -0.2013 -0.4240
    7MOL0     N  861   2.426   9.252   4.298 -0.4988 -0.3157 -0.6096
    7MOL0     N  862   2.394   9.268   4.177  0.8113 -0.1254  0.5932
    7MOL0     C  863   3.242   9.914   4.387  0.0685 -0.7501 -0.0443
    7MOL0     C  864   3.343  10.017   4.371  0.3098  0.6574 -0.4868
    7MOL0     C  865   3.731  10.219   4.223  0.0619  0.2685 -0.0341
    7MOL0     C  866   3.875  10.219   4.225 -0.3426 -0.1824  0.3002
    7MOL0     C  867   3.959  10.325   4.194  0.3430 -0.8989  0.2310
    7MOL0     C  868   3.897  10.448   4.158  0.2243  1.3982 -0.1227
    7MOL0     O  869   3.966  10.562   4.121 -0.2820  0.2475  0.1230
    7MOL0     C  870   4.090  10.582   4.188 -0.2591 -0.2868  0.9832
    7MOL0     C  871   4.203  10.566   4.081 -0.9166 -0.2645 -0.2560
    7MOL0     C  872   4.198  10.670   3.968  0.4545 -0.8131 -0.5120
    7MOL0     C  873   4.339  10.714   3.913 -0.5206  0.0018 -1.1641
    7MOL0     C  874   4.415  10.601   3.859  0.3749 -0.2456  0.4612
    7MOL0     C  875   4.471  10.504   3.809  0.6064 -0.7750  0.2165
    7MOL0     C  876   3.758  10.447   4.150  0.5623 -0.1502 -0.0372
    7MOL0     C  877   3.670  10.343   4.181 -0.0463 -1.0488  0.2140
    7MOL0     H  878   3.516   9.893   4.119  0.5146  0.5965  1.6847
    7MOL0     H  879   3.362   9.697   4.152  0.5015 -0.4440  0.7506
    7MOL0     H  880   3.234   9.563   4.228 -0.3128  0.3802 -1.1292
    7MOL0     H  881   3.071   9.522   4.271 -1.8324  0.5909 -0.5595
    7MOL0     H  882   3.103   9.707   4.034  0.0566  0.5432  1.3559
    7MOL0     H  883   3.108   9.524   4.020 -0.9397  0.2008 -0.8568
    7MOL0     H  884   2.899   9.510   4.133  1.0785 -1.4110 -1.3842
    7MOL0     H  885   2.893   9.690   4.139  2.0279  0.8005 -1.4029
    7MOL0     H  886   2.805   9.696   3.934 -2.0050 -1.2745  2.8072
    7MOL0     H  887   2.937   9.596   3.866  1.1433 -1.4349  0.8558
    7MOL0     H  888   2.732   9.491   3.815  2.6891 -1.2851 -0.3315
    7MOL0     H  889   2.772   9.400   3.966 -1.2892 -1.0590 -1.4112
    7MOL0     H  890   2.627   9.553   4.096 -0.5248  1.2294  0.2747
    7MOL0     H  891   2.593   9.650   3.958 -1.0561  0.4419  2.4287
    7MOL0     H  892   2.414   9.520   3.995  0.6878 -0.2719  1.6481
    7MOL0     H  893   2.484   9.494   3.833  1.1722  1.1734  0.0238
    7MOL0     H  894   2.579   9.287   3.905  1.1257  3.8657 -0.3735
    7MOL0     H  895   2.396   9.291   3.913  1.3620 -2.8979 -1.5387
    7MOL0     H  896   2.715   9.294   4.139  1.1549 -0.2790  1.9034
    7MOL0     H  897   2.625   9.334   4.490 -0.4342  0.0496  2.1176
    7MOL0     H  898   2.603   9.155   4.485  1.1180  0.2227  2.1909
    7MOL0     H  899   2.832   9.313   4.333 -3.0972  3.0160  2.4970
    7MOL0     H  900   2.798   9.156   4.298 -0.1729 -0.0510  0.8724
    7MOL0     H  901   2.991   9.145   4.453 -0.2252  1.3359 -0.0265
    7MOL0     H  902   2.860   9.077   4.528  0.6529 -0.3335 -0.4897
    7MOL0     H  903   2.799   9.278   4.636 -0.3525 -3.0103 -0.1834
    7MOL0     H  904   2.925   9.365   4.560  2.9320 -0.6021  0.4290
    7MOL0     H  905   3.069   9.483   4.655 -0.0604  1.4595  2.0075
    7MOL0     H  906   3.348   9.667   4.791 -1.9907 -1.5912  3.0111
    7MOL0     H  907   3.336   9.646   4.614 -0.4859  0.5063 -0.0940
    7MOL0     H  908   3.185   9.664   4.710 -0.1946 -1.9479  0.5682
    7MOL0     H  909   3.808   9.543   4.763  0.1135  1.4939  1.0884
    7MOL0     H  910   4.045   9.537   4.823  0.8781 -1.5333 -1.3636
    7MOL0     H  911   4.241   9.484   4.854  1.1168 -2.6234 -0.3109
    7MOL0     H  912   4.241   9.571   5.006  1.0213  0.2024 -1.2100
    7MOL0     H  913   4.384   9.365   5.087 -4.0240  2.1604 -0.2337
    7MOL0     H  914   4.424   9.336   4.917  1.9913  0.7523 -1.0233
    7MOL0     H  915   4.487   9.575   5.092  0.7185  1.5133 -0.9952
    7MOL0     H  916   4.486   9.609   4.915  2.1862 -1.4315 -2.0566
    7MOL0     H  917   4.687   9.416   5.039  0.2549 -0.0488 -1.1111
    7MOL0     H  918   4.668   9.444   4.869 -2.7203 -1.0517 -0.3289
    7MOL0     H  919   4.721   9.646   5.086 -0.1127  0.0911 -0.4492
    7MOL0     H  920   4.711   9.697   4.910  0.1718 -1.3130 -2.5123
    7MOL0     H  921   4.922   9.513   5.033  3.2551  0.8890  0.9570
    7MOL0     H  922   4.905   9.535   4.862 -2.1616  1.9141 -0.8116
    7MOL0     H  923   4.977   9.744   5.067 -3.5755  3.2064 -1.1134
    7MOL0     H  924   4.930   9.774   4.903 -1.9535  0.0524  0.8609
    7MOL0     H  925   5.195   9.755   4.940  2.4393 -0.7966 -2.7512
    7MOL0     H  926   5.115   9.661   4.806 -2.0263  0.0308 -0.5321
    7MOL0     H  927   3.972   9.221   5.095 -1.2989  1.9959  2.4587
    7MOL0     H  928   3.742   9.207   5.015 -1.2690  1.5237  0.5805
    7MOL0     H  929   3.438   9.174   4.786 -1.2194 -1.1453 -0.5571
    7MOL0     H  930   3.215   9.098   4.758  0.9121 -0.3926 -2.3145
    7MOL0     H  931   3.169   9.938   4.463 -0.8991 -0.7123 -0.9525
    7MOL0     H  932   3.323  10.109   4.425 -2.5878 -0.1393 -0.0114
    7MOL0     H  933   3.935  10.133   4.253  1.2451 -0.0784 -2.3609
    7MOL0     H  934   4.066  10.309   4.204  0.3518 -0.4395  0.9533
    7MOL0     H  935   4.098  10.683   4.229 -1.5618  0.9788 -1.7235
    7MOL0     H  936   4.109  10.517   4.275  1.2079  1.3848  1.9869
    7MOL0     H  937   4.194  10.464   4.043  1.2173 -1.7648  2.8975
    7MOL0     H  938   4.296  10.582   4.136 -1.1831  3.4938 -0.6029
    7MOL0     H  939   4.130  10.750   3.999  1.5405 -0.5051  1.1902
    7MOL0     H  940   4.152  10.634   3.875  2.1080 -1.2804 -1.1796
    7MOL0     H  941   4.401  10.756   3.993 -0.8756 -2.8386  0.7370
    7MOL0     H  942   4.329  10.794   3.838 -2.2850  0.3729 -0.5779
    7MOL0     H  943   4.503  10.415   3.759 -3.8739 -1.5205 -1.9060
    7MOL0     H  944   3.706  10.541   4.134  0.1312 -0.9492 -4.7775
    7MOL0     H  945   3.563  10.361   4.181  0.2421  0.8765  0.2852
    8MOL0     O  946   6.851   2.351  10.463  0.7653 -0.3946  0.4648
    8MOL0     C  947   6.818   2.258  10.395  0.0234  0.5683 -0.2544
    8MOL0     O  948   6.704   2.257  10.318  0.0752  0.2919 -0.0622
    8MOL0     C  949   6.607   2.355  10.313 -0.5832 -0.2014 -0.4418
    8MOL0     C  950   6.492   2.324  10.236 -0.8458 -0.5832 -0.5065
    8MOL0     C  951   6.376   2.402  10.246 -0.0555  0.2719  0.7366
    8MOL0     C  952   6.378   2.528  10.302 -0.0209  0.1901 -0.1296
    8MOL0     O  953   6.266   2.597  10.330  0.1022 -1.2867  0.3984
    8MOL0     C  954   6.261   2.743  10.351  0.6748  0.7976 -0.5047
    8MOL0     C  955   6.122   2.797  10.375 -0.9088 -0.4534 -0.1166
    8MOL0     C  956   6.025   2.747  10.267 -0.2570  0.7338  0.3270
    8MOL0     C  957   5.893   2.818  10.282  0.2452 -0.9477  0.2101
    8MOL0     C  958   5.778   2.712  10.271 -0.3125 -0.5238 -0.8406
    8MOL0     C  959   5.644   2.788  10.246 -0.2869 -0.3205 -0.0101
    8MOL0     C  960   5.527   2.724  10.303  0.4727  0.4666 -0.0909
    8MOL0     C  961   5.498   2.594  10.222  0.4824 -0.4116 -0.9411
    8MOL0     N  962   5.432   2.626  10.093  0.8078 -0.0438  0.4050
    8MOL0     C  963   5.305   2.678  10.091  0.3356 -0.0201  0.9402
    8MOL0     C  964   5.283   2.704   9.958  1.0156  0.7872 -0.6330
    8MOL0     C  965   5.166   2.785   9.911 -0.2047  0.8630 -0.0084
    8MOL0     C  966   5.033   2.720   9.953 -0.7370 -0.0016 -0.0505
    8MOL0     C  967   4.917   2.800   9.899 -0.2880 -0.3070  0.2277
    8MOL0     C  968   4.788   2.714   9.893  0.3312  0.2694 -0.6012
    8MOL0     O  969   4.776   2.661   9.759 -0.7139 -0.6450  0.0444
    8MOL0     C  970   4.658   2.605   9.722  0.5906 -0.0843  0.0985
    8MOL0     C  971   4.553   2.564   9.813  0.0019  0.2114 -0.0048
    8MOL0     C  972   4.451   2.485   9.769 -0.1303 -0.2760 -0.0721
    8MOL0     C  973   4.354   2.426   9.874  0.2623  0.1042  0.3163
    8MOL0     C  974   4.439   2.464   9.627  0.6502 -0.8415  0.0651
    8MOL0     C  975   4.318   2.390   9.580 -0.2363 -0.6125 -0.0151
    8MOL0     O  976   4.229   2.466   9.522  0.3691  0.1480 -0.6706
    8MOL0     C  977   4.109   2.417   9.477 -0.1487  0.5810 -0.5623
    8MOL0     C  978   4.043   2.301   9.525  0.4150 -0.1522 -0.1979
    8MOL0     C  979   3.914   2.275   9.472 -0.5673 -0.1433 -0.2791
    8MOL0     C  980   3.848   2.361   9.378 -0.0402  0.7798 -1.2337
    8MOL0     O  981   3.721   2.325   9.341  0.0302  0.5282  0.4400
    8MOL0     C  982   3.656   2.416   9.244  0.2344 -0.0851 -0.0609
    8MOL0     C  983   3.507   2.373   9.245  0.4350 -0.8107  0.7797
    8MOL0     C  984   3.485   2.277   9.134  0.6223 -0.2881  0.5981
    8MOL0     C  985   3.328   2.245   9.136 -0.4252  0.1284 -0.9482
    8MOL0     C  986   3.308   2.162   9.000  0.1585 -0.6837 -0.4849
    8MOL0     C  987   3.168   2.116   8.969  0.3844  0.3922  0.2699
    8MOL0     C  988   3.173   2.029   8.837  0.5355  0.2430  0.8191
    8MOL0     C  989   3.041   2.011   8.764 -0.3641  0.0841  0.4698
    8MOL0    Cl  990   2.932   1.890   8.828  0.4911 -0.0608 -0.5392
    8MOL0     C  991   3.919   2.475   9.329  0.3299 -0.5892  0.5741
    8MOL0     C  992   4.049   2.496   9.377  0.2623  0.1109  0.7454
    8MOL0     O  993   4.312   2.269   9.597 -0.5304 -0.1080 -0.4399
    8MOL0     C  994   4.539   2.495   9.537 -0.1657 -0.1288 -0.2411
    8MOL0     C  995   4.650   2.564   9.587 -0.2216  0.2414 -0.4747
    8MOL0     N  996   5.399   2.666   9.892  0.5420 -0.3065  0.1529
    8MOL0     N  997   5.494   2.634   9.972  1.5982  0.0741  0.1401
    8MOL0     C  998   6.495   2.571  10.353 -1.4152 -0.2182 -0.0068
    8MOL0     C  999   6.607   2.486  10.365  0.2947 -0.6773 -1.2291
    8MOL0     C 1000   6.901   2.135  10.390 -0.4929 -0.4605  0.1724
    8MOL0     C 1001   6.867   2.027  10.307 -0.2903 -0.4429 -0.6240
    8MOL0     C 1002   6.950   1.917  10.303  0.0804 -0.1315 -0.3757
    8MOL0     C 1003   7.067   1.911  10.384  0.4082 -0.0965 -0.3374
    8MOL0     O 1004   7.142   1.796  10.365 -0.2670 -0.2483 -0.2659
    8MOL0     C 1005   7.265   1.770  10.433 -0.0529  0.4593 -0.3571
    8MOL0     C 1006   7.374   1.687  10.360  0.8321 -0.2309  0.5603
    8MOL0     C 1007   7.316   1.548  10.338 -0.3451 -0.7961 -0.0322
    8MOL0     C 1008   7.430   1.448  10.309  0.8578  0.8407 -0.1683
    8MOL0     C 1009   7.389   1.310  10.328  0.1745  0.2377 -0.0068
    8MOL0     C 1010   7.382   1.187  10.347 -0.0562 -0.0381  0.0494
    8MOL0     C 1011   7.103   2.019  10.466  0.2355 -0.2061 -0.4436
    8MOL0     C 1012   7.015   2.123  10.472  0.6514  0.1270 -1.3308
    8MOL0     H 1013   6.493   2.233  10.176 -0.5936 -0.5346 -0.5747
    8MOL0     H 1014   6.284   2.354  10.211  1.2921 -2.1433  0.2731
    8MOL0     H 1015   6.311   2.765  10.446  0.5241 -0.4539 -0.1194
    8MOL0     H 1016   6.312   2.797  10.271 -0.3737 -0.4613 -2.0876
    8MOL0     H 1017   6.087   2.772  10.476 -1.1994 -3.4563 -0.8647
    8MOL0     H 1018   6.139   2.905  10.374  0.5564 -0.6580 -1.4698
    8MOL0     H 1019   6.071   2.765  10.169 -0.2386  0.2324  0.2384
    8MOL0     H 1020   6.016   2.638  10.264  1.7908  0.5431 -1.1375
    8MOL0     H 1021   5.887   2.872  10.376 -0.3389  1.4829 -1.1451
    8MOL0     H 1022   5.883   2.895  10.205 -1.4120  1.0805  2.3026
    8MOL0     H 1023   5.795   2.646  10.185  1.0569 -0.1504 -0.8791
    8MOL0     H 1024   5.765   2.656  10.364  2.3477 -0.9728 -0.6667
    8MOL0     H 1025   5.648   2.889  10.289 -1.4473  0.2327 -1.1300
    8MOL0     H 1026   5.637   2.820  10.142 -0.7625  2.1780  0.7079
    8MOL0     H 1027   5.539   2.699  10.409  0.5050 -0.9470 -0.4012
    8MOL0     H 1028   5.441   2.790  10.311 -1.3120 -1.2529 -3.2184
    8MOL0     H 1029   5.423   2.535  10.276  0.0989 -3.5077 -4.4213
    8MOL0     H 1030   5.583   2.532  10.193 -0.3005 -1.6554 -0.6802
    8MOL0     H 1031   5.243   2.696  10.178 -1.6796 -1.1542 -0.1948
    8MOL0     H 1032   5.176   2.888   9.947  0.6351  0.9986 -0.6078
    8MOL0     H 1033   5.178   2.793   9.802  3.5240  2.1680  0.3418
    8MOL0     H 1034   5.029   2.707  10.062 -3.8146 -0.9137 -0.1739
    8MOL0     H 1035   5.028   2.617   9.915 -2.1905 -0.2797  0.8178
    8MOL0     H 1036   4.947   2.845   9.803  1.1394 -0.2307  0.6801
    8MOL0     H 1037   4.899   2.881   9.969  2.7542  0.1428  0.6586
    8MOL0     H 1038   4.703   2.773   9.927 -0.1215 -0.9348  0.4290
    8MOL0     H 1039   4.810   2.623   9.949  0.5008 -0.0146 -1.1214
    8MOL0     H 1040   4.552   2.581   9.920 -1.0014  0.6337 -0.0713
    8MOL0     H 1041   4.347   2.488   9.963  0.2270  1.1838 -0.4150
    8MOL0     H 1042   4.252   2.411   9.838  0.0070  0.1370  1.0199
    8MOL0     H 1043   4.405   2.333   9.901  0.4801  1.0716  3.5903
    8MOL0     H 1044   4.078   2.245   9.611 -0.5964  0.2130  0.4803
    8MOL0     H 1045   3.861   2.188   9.509  0.9071 -1.0512 -0.2120
    8MOL0     H 1046   3.671   2.518   9.281  2.3193  0.3094 -1.7979
    8MOL0     H 1047   3.689   2.406   9.140  1.1121 -1.5365  0.3378
    8MOL0     H 1048   3.481   2.330   9.343 -0.4240  0.2381  1.0243
    8MOL0     H 1049   3.444   2.460   9.227  0.3275 -1.4654 -2.5879
    8MOL0     H 1050   3.556   2.195   9.150  1.0170  0.5759  4.1044
    8MOL0     H 1051   3.512   2.335   9.045 -3.0318 -0.6567 -0.9200
    8MOL0     H 1052   3.302   2.169   9.210 -0.0603 -0.3268 -1.2739
    8MOL0     H 1053   3.255   2.326   9.142  0.4638  0.8237  1.6006
    8MOL0     H 1054   3.383   2.084   8.991 -0.7691 -1.7041  0.3556
    8MOL0     H 1055   3.333   2.227   8.915 -0.0676 -2.6742 -2.1503
    8MOL0     H 1056   3.132   2.058   9.054  5.3468 -0.7844  1.9210
    8MOL0     H 1057   3.109   2.207   8.952 -0.5047 -0.1163  0.6247
    8MOL0     H 1058   3.198   1.927   8.866  0.1771 -1.0892 -3.0044
    8MOL0     H 1059   3.255   2.065   8.774 -0.7638 -0.0004 -1.1109
    8MOL0     H 1060   3.073   1.985   8.662  0.3728  2.9062 -0.0953
    8MOL0     H 1061   2.989   2.107   8.770  0.8992  0.7231  1.8023
    8MOL0     H 1062   3.879   2.541   9.252  0.2752 -1.9032 -0.5562
    8MOL0     H 1063   4.097   2.588   9.343 -1.6655  1.4039  1.3821
    8MOL0     H 1064   4.533   2.472   9.432 -3.3984  0.6138 -0.3126
    8MOL0     H 1065   4.728   2.569   9.511 -2.4250  1.1691 -2.8498
    8MOL0     H 1066   6.503   2.669  10.399  1.4206 -0.7197  0.7552
    8MOL0     H 1067   6.691   2.529  10.419 -0.0677 -0.8116 -0.5496
    8MOL0     H 1068   6.782   2.025  10.241  0.5434 -0.6608 -1.7153
    8MOL0     H 1069   6.930   1.833  10.237 -1.2046  0.5551 -0.8918
    8MOL0     H 1070   7.317   1.865  10.451 -0.1893  0.6673 -1.0292
    8MOL0     H 1071   7.232   1.728  10.529  1.8131  1.0033  0.5734
    8MOL0     H 1072   7.459   1.676  10.428 -0.5466 -1.8712  2.1233
    8MOL0     H 1073   7.403   1.736  10.266  0.2793  1.7691  1.3892
    8MOL0     H 1074   7.244   1.563  10.257  1.3337 -1.7757 -1.7670
    8MOL0     H 1075   7.251   1.523  10.423  2.1406 -3.4159  1.2654
    8MOL0     H 1076   7.515   1.448  10.379  0.1758 -1.8318  0.7868
    8MOL0     H 1077   7.472   1.457  10.208  1.5211 -2.3252 -0.2844
    8MOL0     H 1078   7.374   1.081  10.364  1.6850 -0.9402 -3.5556
    8MOL0     H 1079   7.199   2.014  10.517  0.9459  0.8799 -1.6179
    8MOL0     H 1080   7.033   2.211  10.532  0.1132 -0.2246 -0.6427
    9MOL0     O 1081  10.067   3.728   5.910  0.5172  0.2576 -0.6093
    9MOL0     C 1082  10.056   3.710   6.031 -0.5755 -0.0519 -0.6439
    9MOL0     O 1083   9.936   3.719   6.104  0.4313 -0.6682  0.5660
    9MOL0     C 1084   9.819   3.741   6.027 -0.5729 -0.6130 -0.4349
    9MOL0     C 1085   9.773   3.871   5.995 -0.0681  0.6894 -0.0855
    9MOL0     C 1086   9.657   3.880   5.919  0.0968 -0.4151 -0.7038
    9MOL0     C 1087   9.577   3.775   5.890 -0.7516 -0.3845  1.2008
    9MOL0     O 1088   9.445   3.780   5.837  0.0312  0.7555 -0.0313
    9MOL0     C 1089   9.390   3.902   5.800 -0.2743  0.7444  0.0358
    9MOL0     C 1090   9.245   3.881   5.750  0.2746 -0.5411 -0.0068
    9MOL0     C 1091   9.134   3.967   5.821  0.8053 -0.4173 -0.1090
    9MOL0     C 1092   8.992   3.939   5.772 -0.2207 -0.0259  0.0954
    9MOL0     C 1093   8.876   4.033   5.830 -0.6261 -0.1342  0.6430
    9MOL0     C 1094   8.862   4.149   5.735  0.5685  0.0367  0.3028
    9MOL0     C 1095   8.744   4.245   5.770 -0.5859 -0.8035 -0.9139
    9MOL0     C 1096   8.740   4.282   5.921  0.5935  0.2728 -0.1042
    9MOL0     N 1097   8.647   4.391   5.946 -0.3910 -0.2891 -0.0601
    9MOL0     C 1098   8.534   4.423   5.875 -0.3197  1.0159  0.0212
    9MOL0     C 1099   8.486   4.534   5.940 -0.3460  0.2736 -0.4734
    9MOL0     C 1100   8.365   4.624   5.911 -0.1048 -1.1417 -0.1745
    9MOL0     C 1101   8.399   4.775   5.917 -0.2697  0.9422  0.5703
    9MOL0     C 1102   8.278   4.873   5.925  0.2180 -0.3277 -0.0942
    9MOL0     C 1103   8.310   5.014   5.931  0.1124 -0.5597  0.0643
    9MOL0     O 1104   8.279   5.077   5.808  0.5226  0.2534  0.0074
    9MOL0     C 1105   8.147   5.108   5.785 -0.7507  0.5505 -0.0058
    9MOL0     C 1106   8.138   5.203   5.686 -0.1186  0.7546 -0.0637
    9MOL0     C 1107   8.011   5.239   5.638 -0.2190 -0.2868 -0.2964
    9MOL0     C 1108   8.003   5.345   5.531  0.0266  0.4155  0.8360
    9MOL0     C 1109   7.896   5.188   5.704 -0.1967  0.7901 -0.1366
    9MOL0     C 1110   7.755   5.225   5.674  0.0816  0.6121  0.7687
    9MOL0     O 1111   7.664   5.168   5.757 -0.3903  0.2403 -0.3158
    9MOL0     C 1112   7.533   5.196   5.735  0.2435 -0.4054  0.5293
    9MOL0     C 1113   7.457   5.089   5.684  0.2008 -0.4496 -0.3782
    9MOL0     C 1114   7.317   5.103   5.666 -0.4134  0.7830 -0.1941
    9MOL0     C 1115   7.249   5.213   5.712  0.4173  0.5558 -0.5497
    9MOL0     O 1116   7.115   5.235   5.703  0.7426  0.5639 -0.1232
    9MOL0     C 1117   7.037   5.148   5.611  0.7033 -1.2176 -0.1247
    9MOL0     C 1118   6.909   5.220   5.586  0.1864 -0.0521  0.0239
    9MOL0     C 1119   6.918   5.369   5.530  0.2594  0.4228 -0.1655
    9MOL0     C 1120   7.007   5.376   5.404 -0.4488 -0.5324  0.3616
    9MOL0     C 1121   6.992   5.514   5.335 -0.1192 -0.2305  0.4849
    9MOL0     C 1122   6.862   5.530   5.240  0.1851  1.0125  0.2076
    9MOL0     C 1123   6.861   5.629   5.125 -0.0534  0.6713  0.2757
    9MOL0     C 1124   6.946   5.571   5.015 -0.3244  0.5592  0.8224
    9MOL0    Cl 1125   6.939   5.654   4.858  0.3673  0.3104 -0.3723
    9MOL0     C 1126   7.328   5.304   5.781  0.0963  0.4953 -0.8875
    9MOL0     C 1127   7.468   5.303   5.792  0.6101 -1.0569 -0.2189
    9MOL0     O 1128   7.734   5.295   5.574  0.6443  0.2888 -0.1197
    9MOL0     C 1129   7.921   5.110   5.818  0.1566  0.8547  0.1338
    9MOL0     C 1130   8.039   5.058   5.858  0.1287  0.1324  0.8057
    9MOL0     N 1131   8.582   4.575   6.030 -0.2779 -0.0898  0.2238
    9MOL0     N 1132   8.669   4.488   6.038  0.1638  0.0130  0.2705
    9MOL0     C 1133   9.628   3.647   5.914  0.5783 -0.0598 -0.2249
    9MOL0     C 1134   9.747   3.631   5.984 -0.3131  0.2891  0.2274
    9MOL0     C 1135  10.190   3.696   6.104  0.1500  0.2378  0.0759
    9MOL0     C 1136  10.190   3.642   6.233  0.7800 -0.0503  0.5586
    9MOL0     C 1137  10.314   3.624   6.304  0.2790 -0.1088  0.9484
    9MOL0     C 1138  10.430   3.674   6.246 -0.5367  1.3655  0.2759
    9MOL0     O 1139  10.551   3.666   6.317  0.9129 -0.2605 -0.0974
    9MOL0     C 1140  10.672   3.724   6.260  0.5666  0.1768  0.4141
    9MOL0     C 1141  10.804   3.679   6.339 -0.5603  0.0589  0.1472
    9MOL0     C 1142  10.852   3.540   6.306 -0.4001  0.2603  0.4946
    9MOL0     C 1143  10.969   3.532   6.207 -0.1220 -0.7761 -0.0044
    9MOL0     C 1144  11.005   3.412   6.143 -0.2606  0.0536  0.4829
    9MOL0     C 1145  11.051   3.315   6.099 -0.1064 -0.4378  0.0368
    9MOL0     C 1146  10.429   3.725   6.115  0.5295 -0.1681 -0.2403
    9MOL0     C 1147  10.315   3.733   6.042  0.6495 -0.4820 -0.1246
    9MOL0     H 1148   9.831   3.959   6.022 -2.4268  2.0835  0.6668
    9MOL0     H 1149   9.617   3.980   5.906 -0.9153 -0.8253 -0.8050
    9MOL0     H 1150   9.395   3.982   5.874  1.1528  2.0465 -1.3945
    9MOL0     H 1151   9.462   3.933   5.723 -0.1690 -2.2382 -1.2082
    9MOL0     H 1152   9.244   3.904   5.643  0.7043  0.0329  0.1084
    9MOL0     H 1153   9.217   3.776   5.767 -2.0271  0.3408  2.2120
    9MOL0     H 1154   9.130   3.943   5.927 -0.6746 -1.8687 -0.4442
    9MOL0     H 1155   9.160   4.072   5.801 -3.7774  0.3261 -4.0442
    9MOL0     H 1156   8.994   3.947   5.662  2.5487 -1.2222 -0.0393
    9MOL0     H 1157   8.970   3.837   5.803 -2.7308  0.7837  1.2332
    9MOL0     H 1158   8.783   3.975   5.829 -0.0465 -1.1057  0.7333
    9MOL0     H 1159   8.896   4.059   5.934  0.0600 -0.3375  0.5688
    9MOL0     H 1160   8.948   4.215   5.747  1.1181 -0.4792 -0.7128
    9MOL0     H 1161   8.841   4.120   5.632 -3.5020  0.1036  0.9322
    9MOL0     H 1162   8.750   4.340   5.716  4.2377 -1.2500 -1.5464
    9MOL0     H 1163   8.649   4.197   5.745  0.5266 -1.6882 -3.8378
    9MOL0     H 1164   8.842   4.294   5.959  1.0016  0.1386 -1.1367
    9MOL0     H 1165   8.698   4.196   5.975 -1.0751  0.5961 -0.8566
    9MOL0     H 1166   8.485   4.384   5.786 -1.0560  3.0509 -0.5163
    9MOL0     H 1167   8.326   4.610   5.810 -1.0981 -1.7734  0.2890
    9MOL0     H 1168   8.287   4.594   5.981  0.7463 -1.7117  0.5478
    9MOL0     H 1169   8.459   4.781   5.826  1.2134 -4.5702  0.8144
    9MOL0     H 1170   8.463   4.789   6.004  1.0379 -1.4210  0.0744
    9MOL0     H 1171   8.223   4.846   6.016 -2.5270  0.0163 -1.5671
    9MOL0     H 1172   8.207   4.848   5.846 -3.7139 -1.1829  3.3441
    9MOL0     H 1173   8.418   5.010   5.946  0.0393  0.6093  1.0394
    9MOL0     H 1174   8.264   5.070   6.013  1.9349  1.0561  0.0397
    9MOL0     H 1175   8.231   5.243   5.646  0.0749  1.3088  0.9010
    9MOL0     H 1176   8.097   5.382   5.489 -0.4436 -0.0630 -0.6744
    9MOL0     H 1177   7.951   5.291   5.452 -0.2123 -1.0418  1.9590
    9MOL0     H 1178   7.942   5.431   5.562  2.8215  2.9973 -0.2831
    9MOL0     H 1179   7.507   4.997   5.654  1.4327 -0.4947  1.6163
    9MOL0     H 1180   7.263   5.021   5.621  0.7197  0.1224 -0.3881
    9MOL0     H 1181   7.084   5.142   5.512 -0.7761 -1.3024 -0.8543
    9MOL0     H 1182   7.014   5.049   5.651 -4.5017  0.3212  1.4809
    9MOL0     H 1183   6.857   5.160   5.510 -0.5045  1.6299 -0.8797
    9MOL0     H 1184   6.858   5.233   5.682  0.9284 -0.0606  0.4261
    9MOL0     H 1185   6.958   5.437   5.605 -0.6539  1.6792 -0.7837
    9MOL0     H 1186   6.821   5.415   5.509  1.6427  3.2231 -0.8908
    9MOL0     H 1187   7.111   5.367   5.436  0.4629  1.0654 -1.8999
    9MOL0     H 1188   6.989   5.293   5.335 -0.5264  0.2734 -0.6076
    9MOL0     H 1189   7.076   5.539   5.270 -1.5473  1.3603 -0.8977
    9MOL0     H 1190   6.989   5.599   5.404  0.6026  1.0534 -0.9846
    9MOL0     H 1191   6.825   5.432   5.210  1.3917  0.1828  1.3326
    9MOL0     H 1192   6.789   5.573   5.309 -0.8737 -0.9041  0.3388
    9MOL0     H 1193   6.916   5.720   5.149 -1.1140  2.1230 -2.3012
    9MOL0     H 1194   6.758   5.656   5.096 -0.5083 -0.1088  1.1256
    9MOL0     H 1195   6.921   5.466   4.998  1.1934  0.1592  0.9624
    9MOL0     H 1196   7.050   5.574   5.048  0.7186  1.3249 -2.1997
    9MOL0     H 1197   7.279   5.382   5.838  0.8309  0.1411  0.2801
    9MOL0     H 1198   7.517   5.381   5.851 -0.9594 -0.5356  0.4325
    9MOL0     H 1199   7.843   5.080   5.887  0.4647 -1.1502 -0.3434
    9MOL0     H 1200   8.061   4.995   5.944  0.0918 -0.2128  0.5630
    9MOL0     H 1201   9.581   3.552   5.889  1.0668 -0.3312 -0.1355
    9MOL0     H 1202   9.765   3.526   6.008  0.3728  0.0568 -1.2133
    9MOL0     H 1203  10.092   3.612   6.270  0.6616 -1.2501 -0.6613
    9MOL0     H 1204  10.318   3.577   6.402 -1.5094  1.7517  2.0141
    9MOL0     H 1205  10.681   3.690   6.156  0.4415 -1.7904  1.0177
    9MOL0     H 1206  10.661   3.833   6.268  0.9423  0.1485  1.3379
    9MOL0     H 1207  10.798   3.701   6.447  0.1140  2.9709 -0.3213
    9MOL0     H 1208  10.884   3.744   6.302  0.3944 -1.2183 -0.0922
    9MOL0     H 1209  10.772   3.474   6.272  1.5069 -2.0367  0.2245
    9MOL0     H 1210  10.884   3.494   6.399 -0.6710 -2.1738 -0.5324
    9MOL0     H 1211  11.060   3.565   6.257 -0.1930 -0.5790 -0.0023
    9MOL0     H 1212  10.949   3.608   6.130 -2.7128  0.5166  1.7859
    9MOL0     H 1213  11.102   3.235   6.049 -0.7590 -2.6169  2.5954
    9MOL0     H 1214  10.515   3.771   6.068 -0.6132  1.6714 -0.6412
    9MOL0     H 1215  10.312   3.778   5.943  0.2048 -1.2567 -0.4697
   10MOL0     O 1216   4.034   9.863  10.496  0.1518  0.0917 -0.1860
   10MOL0     C 1217   4.060   9.839  10.379 -1.0987  1.0185 -0.0894
   10MOL0     O 1218   4.184   9.824  10.329  0.1062 -0.5925 -0.1463
   10MOL0     C 1219   4.295   9.868  10.392 -0.1095 -0.1898  0.3933
   10MOL0     C 1220   4.412   9.850  10.312  0.3926 -0.7787  0.4031
   10MOL0     C 1221   4.538   9.886  10.358 -0.4972 -0.7514  0.6438
   10MOL0     C 1222   4.550   9.947  10.484  0.0985 -0.0035 -0.4803
   10MOL0     O 1223   4.677   9.973  10.519  0.5629  0.8691  0.0297
   10MOL0     C 1224   4.721   9.996  10.651 -0.8554  0.3687  0.0996
   10MOL0     C 1225   4.872  10.013  10.627 -0.2952 -1.2960 -0.0559
   10MOL0     C 1226   4.963   9.952  10.736  0.6519 -0.4302  0.2462
   10MOL0     C 1227   4.947  10.014  10.886  0.2363  0.4939  0.0289
   10MOL0     C 1228   5.074  10.000  10.966 -0.0613 -0.9856  0.4863
   10MOL0     C 1229   5.053  10.024  11.121  0.2010 -0.1556  0.1992
   10MOL0     C 1230   5.024  10.173  11.136  0.1137 -0.2010  0.4551
   10MOL0     C 1231   5.053  10.227  11.266  0.7691  0.1415  0.5911
   10MOL0     N 1232   4.935  10.212  11.354  0.2920 -0.0973  0.6789
   10MOL0     C 1233   4.868  10.322  11.416  0.1255 -0.2389 -0.2944
   10MOL0     C 1234   4.743  10.276  11.434 -0.0684  0.4445 -0.1266
   10MOL0     C 1235   4.643  10.347  11.521  0.4018 -0.3572  1.2354
   10MOL0     C 1236   4.542  10.244  11.568 -0.5616 -0.5666  0.9819
   10MOL0     C 1237   4.444  10.308  11.661  0.2272 -0.3827 -0.2300
   10MOL0     C 1238   4.326  10.228  11.694  0.9369 -0.4834  0.2267
   10MOL0     O 1239   4.249  10.217  11.576  0.7623  0.8839  0.4332
   10MOL0     C 1240   4.121  10.153  11.589 -0.7238 -0.0025 -0.2721
   10MOL0     C 1241   4.061  10.110  11.712 -0.3288 -0.2999 -0.0835
   10MOL0     C 1242   3.930  10.054  11.720 -0.9288 -0.4523  0.0407
   10MOL0     C 1243   3.891  10.028  11.866  0.9381 -0.3682  0.1320
   10MOL0     C 1244   3.865  10.046  11.594  0.6312 -0.4148 -0.3823
   10MOL0     C 1245   3.727   9.992  11.595 -1.1553 -0.9349  1.0156
   10MOL0     O 1246   3.651  10.035  11.491 -0.0375  0.5005  0.9547
   10MOL0     C 1247   3.528   9.978  11.471 -0.0730 -0.1210  0.1501
   10MOL0     C 1248   3.521   9.852  11.419 -0.2844  0.2226 -0.2784
   10MOL0     C 1249   3.402   9.789  11.391  0.1907 -0.2469  0.6241
   10MOL0     C 1250   3.279   9.853  11.424  0.3841 -0.5015  0.1591
   10MOL0     O 1251   3.167   9.774  11.408 -0.5497 -0.2435 -0.4705
   10MOL0     C 1252   3.039   9.819  11.439  0.5775 -0.7758 -0.5725
   10MOL0     C 1253   2.935   9.722  11.400 -0.2690 -0.6340  0.7578
   10MOL0     C 1254   2.793   9.779  11.417 -0.5673 -0.2397 -0.1404
   10MOL0     C 1255   2.691   9.672  11.381 -0.0704  0.5420 -0.8393
   10MOL0     C 1256   2.574   9.742  11.332  0.3595 -0.3622  0.8560
   10MOL0     C 1257   2.449   9.644  11.313  0.0760  0.3082  0.7920
   10MOL0     C 1258   2.318   9.716  11.268  0.6408 -0.1555  0.3777
   10MOL0     C 1259   2.241   9.771  11.391  0.0407 -0.2973  0.3817
   10MOL0    Cl 1260   2.112   9.661  11.443  0.2712  0.3766 -0.4205
   10MOL0     C 1261   3.291   9.982  11.487  0.0021 -0.9813  0.4094
   10MOL0     C 1262   3.408  10.051  11.501  0.0304  0.3990  0.5575
   10MOL0     O 1263   3.692   9.914  11.686 -0.4422 -0.0140  0.2320
   10MOL0     C 1264   3.933  10.069  11.475  1.0184 -0.0126 -0.2596
   10MOL0     C 1265   4.059  10.125  11.470  0.1805 -0.7846 -0.6696
   10MOL0     N 1266   4.738  10.143  11.396  0.0294 -0.4498  0.4286
   10MOL0     N 1267   4.849  10.110  11.345 -0.0156  0.0858 -0.4581
   10MOL0     C 1268   4.434   9.967  10.563  0.4356  0.7796 -0.3351
   10MOL0     C 1269   4.311   9.932  10.513  0.1438  0.0584 -0.3058
   10MOL0     C 1270   3.947   9.797  10.296  0.4499  0.2979 -0.7857
   10MOL0     C 1271   3.973   9.770  10.161 -0.0073  0.6393 -0.4897
   10MOL0     C 1272   3.870   9.721  10.075 -0.3970  0.1558 -0.1253
   10MOL0     C 1273   3.739   9.701  10.120 -0.6117 -0.3496 -0.5416
   10MOL0     O 1274   3.639   9.673  10.027  0.7824 -0.2565 -0.1556
   10MOL0     C 1275   3.500   9.656  10.070 -0.5339 -0.5368 -0.1666
   10MOL0     C 1276   3.426   9.790  10.114  0.4286 -0.1878 -0.0619
   10MOL0     C 1277   3.361   9.859   9.994  0.9932  0.8047 -0.7068
   10MOL0     C 1278   3.282   9.982  10.033  0.1482 -0.4884 -0.3264
   10MOL0     C 1279   3.165   9.950  10.111  0.0886  0.7189  0.1560
   10MOL0     C 1280   3.059   9.927  10.168  0.2943  0.2473  0.3490
   10MOL0     C 1281   3.718   9.734  10.253 -0.6249  0.5683 -0.2655
   10MOL0     C 1282   3.819   9.782  10.342 -0.0224  0.3544 -0.2715
   10MOL0     H 1283   4.401   9.813  10.210  2.2815 -1.0672  0.2666
   10MOL0     H 1284   4.630   9.870  10.301 -1.9910 -0.2765 -2.0734
   10MOL0     H 1285   4.671  10.073  10.710 -0.2928  2.0649 -1.5414
   10MOL0     H 1286   4.729   9.906  10.712  2.2625  0.9208  0.6673
   10MOL0     H 1287   4.891   9.968  10.529  2.3222 -1.6222  0.5496
   10MOL0     H 1288   4.899  10.118  10.613 -0.1411 -0.6890  3.8185
   10MOL0     H 1289   4.955   9.843  10.734  2.1134 -0.5446 -1.3950
   10MOL0     H 1290   5.065   9.964  10.698  0.8370 -0.6269  0.6788
   10MOL0     H 1291   4.918  10.119  10.887  2.4618  1.2059 -1.3494
   10MOL0     H 1292   4.872   9.955  10.937  1.5286 -0.1197  1.2899
   10MOL0     H 1293   5.103   9.894  10.970  1.6024 -0.5160  1.9878
   10MOL0     H 1294   5.158  10.055  10.924  1.7282 -4.0329 -0.2396
   10MOL0     H 1295   4.975   9.964  11.169  0.1541  0.3433  0.7520
   10MOL0     H 1296   5.152  10.006  11.165  0.6331  2.4193  0.4484
   10MOL0     H 1297   5.071  10.233  11.058 -1.2840  0.0587 -0.2154
   10MOL0     H 1298   4.920  10.194  11.112  0.0780 -1.1074 -0.2151
   10MOL0     H 1299   5.077  10.333  11.262  0.6019  0.1607  0.0817
   10MOL0     H 1300   5.143  10.178  11.304  1.0161 -1.0012 -1.3612
   10MOL0     H 1301   4.906  10.416  11.452 -0.7146 -1.3109  3.8775
   10MOL0     H 1302   4.696  10.401  11.600  1.4841  3.0143 -1.5591
   10MOL0     H 1303   4.585  10.414  11.457  0.0829 -2.0525 -0.3187
   10MOL0     H 1304   4.593  10.162  11.619 -0.3009 -1.9365 -1.3564
   10MOL0     H 1305   4.496  10.202  11.478  1.5434  1.3945 -1.1511
   10MOL0     H 1306   4.406  10.402  11.620 -1.4107 -1.9452 -2.5338
   10MOL0     H 1307   4.500  10.323  11.754  2.6386  0.3246 -1.7028
   10MOL0     H 1308   4.271  10.278  11.774  2.6226  3.9177 -1.0275
   10MOL0     H 1309   4.361  10.128  11.722 -1.7100 -2.3861 -2.6131
   10MOL0     H 1310   4.125  10.128  11.798  2.7253  0.5708 -2.3793
   10MOL0     H 1311   3.895   9.923  11.899  3.9380 -0.7925 -1.2540
   10MOL0     H 1312   3.962  10.081  11.930  0.8454 -2.1089  1.7607
   10MOL0     H 1313   3.793  10.075  11.877  0.5607 -0.8480 -1.0190
   10MOL0     H 1314   3.617   9.806  11.394 -1.2784 -1.4032 -1.2564
   10MOL0     H 1315   3.413   9.688  11.355  1.4170 -0.1976  0.8155
   10MOL0     H 1316   3.023   9.854  11.542 -2.6856 -2.6832 -0.3118
   10MOL0     H 1317   3.024   9.903  11.371  1.1337 -0.3582 -0.1868
   10MOL0     H 1318   2.957   9.701  11.294  3.6395  2.6600  0.6796
   10MOL0     H 1319   2.942   9.633  11.464 -0.9716 -0.6373  0.8336
   10MOL0     H 1320   2.793   9.864  11.349  0.3079  0.9161  1.2458
   10MOL0     H 1321   2.782   9.821  11.518  1.8918  2.6057 -0.9094
   10MOL0     H 1322   2.736   9.601  11.312  0.3537 -0.4914  0.4522
   10MOL0     H 1323   2.679   9.616  11.474 -3.2357 -0.1892 -1.5838
   10MOL0     H 1324   2.589   9.800  11.241 -1.8738  0.6469  1.0578
   10MOL0     H 1325   2.551   9.821  11.403  0.6810  2.6293 -2.1200
   10MOL0     H 1326   2.475   9.563  11.244 -0.6074  0.8922 -0.1848
   10MOL0     H 1327   2.425   9.586  11.402 -0.9759 -0.6998 -0.1101
   10MOL0     H 1328   2.265   9.639  11.212 -1.4336  1.1535  0.4534
   10MOL0     H 1329   2.338   9.805  11.206 -1.6674  0.5013  0.5029
   10MOL0     H 1330   2.194   9.865  11.361 -0.3493 -0.7261 -0.3800
   10MOL0     H 1331   2.312   9.784  11.474 -0.1425  1.0711  0.3491
   10MOL0     H 1332   3.200  10.032  11.519  0.2139 -0.9478  0.9627
   10MOL0     H 1333   3.406  10.149  11.547 -1.9490  1.0741 -0.8253
   10MOL0     H 1334   3.880  10.049  11.382  1.8400 -0.3420 -0.6695
   10MOL0     H 1335   4.107  10.143  11.375  0.4671 -0.4137 -0.4567
   10MOL0     H 1336   4.437  10.021  10.657 -2.7781  3.1814 -1.4347
   10MOL0     H 1337   4.235   9.953  10.588  0.1023 -0.9930 -0.0373
   10MOL0     H 1338   4.076   9.778  10.128  0.5824  1.3136  1.4146
   10MOL0     H 1339   3.887   9.713   9.968 -0.2144  0.6225 -0.1330
   10MOL0     H 1340   3.445   9.617   9.984 -0.8591  1.3707 -0.8750
   10MOL0     H 1341   3.496   9.578  10.147 -0.4888 -1.3082 -0.9263
   10MOL0     H 1342   3.491   9.862  10.163  1.4544 -1.3782  0.3868
   10MOL0     H 1343   3.346   9.757  10.181 -1.7608  1.3075 -1.7861
   10MOL0     H 1344   3.294   9.791   9.941 -0.1514  1.8366 -0.6157
   10MOL0     H 1345   3.429   9.889   9.914  1.1370  1.0476 -0.4963
   10MOL0     H 1346   3.258  10.043   9.945 -1.2144 -0.0373  0.3178
   10MOL0     H 1347   3.351  10.040  10.095 -0.8268 -0.3629  0.6952
   10MOL0     H 1348   2.963   9.901  10.208 -0.1183  1.0305 -0.1132
   10MOL0     H 1349   3.617   9.739  10.293 -0.0652  2.0485  1.0680
   10MOL0     H 1350   3.793   9.813  10.442  0.6814  3.4084 -0.9281
   11MOL0     O 1351   8.670   3.148   1.487 -0.0091 -0.1533  0.7778
   11MOL0     C 1352   8.712   3.258   1.522 -0.4030 -0.7309  0.3186
   11MOL0     O 1353   8.636   3.343   1.591 -0.0549  0.1831  0.1400
   11MOL0     C 1354   8.498   3.345   1.592  0.1735 -0.0838  0.7358
   11MOL0     C 1355   8.417   3.288   1.488 -0.2831  0.5313 -0.3263
   11MOL0     C 1356   8.278   3.304   1.497  0.0942  0.4898 -0.3205
   11MOL0     C 1357   8.220   3.372   1.612  0.0985 -0.4674 -0.3341
   11MOL0     O 1358   8.087   3.411   1.624 -0.1258  0.1677 -1.2215
   11MOL0     C 1359   8.001   3.342   1.534  0.1710  0.2765 -0.0225
   11MOL0     C 1360   7.859   3.356   1.597 -0.4148 -0.6927  0.3491
   11MOL0     C 1361   7.748   3.287   1.516  0.3786 -0.1720  0.8009
   11MOL0     C 1362   7.612   3.342   1.568 -0.5032 -0.0003  0.3233
   11MOL0     C 1363   7.586   3.296   1.708  0.2705 -0.3372 -0.0524
   11MOL0     C 1364   7.477   3.373   1.779  0.4724 -0.4543  0.4972
   11MOL0     C 1365   7.441   3.321   1.922 -0.8542  0.1978  0.0734
   11MOL0     C 1366   7.303   3.381   1.957  0.0034  0.0084 -0.1063
   11MOL0     N 1367   7.190   3.318   1.885  0.1017 -1.0282 -0.3849
   11MOL0     C 1368   7.156   3.189   1.860 -0.0660  0.4216 -0.0228
   11MOL0     C 1369   7.034   3.198   1.812  1.2118  0.4487  0.7503
   11MOL0     C 1370   6.940   3.088   1.788 -0.7384  0.7800 -0.6066
   11MOL0     C 1371   6.914   3.024   1.931 -0.3526 -0.7089  0.5441
   11MOL0     C 1372   6.869   3.121   2.038  0.0169  0.7161 -0.0132
   11MOL0     C 1373   6.740   3.176   1.985  0.3391 -0.4815 -0.3675
   11MOL0     O 1374   6.667   3.232   2.088 -0.2887 -0.3609 -0.1406
   11MOL0     C 1375   6.530   3.221   2.085  0.0104 -0.6927 -0.2582
   11MOL0     C 1376   6.465   3.208   2.199  0.2520 -0.3730 -0.5909
   11MOL0     C 1377   6.323   3.209   2.214  0.2591 -0.4241  0.8622
   11MOL0     C 1378   6.281   3.201   2.356 -1.4518 -0.2036  0.8615
   11MOL0     C 1379   6.245   3.218   2.092 -0.4736 -0.1984  0.1205
   11MOL0     C 1380   6.101   3.232   2.088  0.3935  0.8983 -0.3453
   11MOL0     O 1381   6.037   3.206   1.974  0.1936  0.4805 -0.3430
   11MOL0     C 1382   5.907   3.182   1.973  0.1201  0.4429  0.3341
   11MOL0     C 1383   5.850   3.059   2.013 -0.1265 -0.1384  0.4337
   11MOL0     C 1384   5.717   3.014   1.979  0.0713 -0.8541 -0.5442
   11MOL0     C 1385   5.638   3.099   1.914 -0.4392  0.7149  0.4111
   11MOL0     O 1386   5.514   3.049   1.874 -0.4723  0.5473  0.0492
   11MOL0     C 1387   5.430   3.120   1.781  0.1913 -0.1856 -0.1412
   11MOL0     C 1388   5.292   3.038   1.750  0.8443 -0.3136 -0.6478
   11MOL0     C 1389   5.197   3.107   1.649  0.1717 -0.7625  0.7609
   11MOL0     C 1390   5.062   3.047   1.657 -0.3616 -0.1335 -0.0091
   11MOL0     C 1391   4.953   3.115   1.574 -0.7657  0.6288  0.0225
   11MOL0     C 1392   4.813   3.050   1.576 -0.1130  0.0548 -1.1859
   11MOL0     C 1393   4.699   3.098   1.492 -0.4001  0.0864  0.1854
   11MOL0     C 1394   4.712   3.022   1.361 -0.0818  0.3451 -1.0346
   11MOL0    Cl 1395   4.635   3.106   1.227 -0.0017  0.1525  0.3574
   11MOL0     C 1396   5.676   3.228   1.894 -0.0267 -0.1624 -0.6989
   11MOL0     C 1397   5.808   3.272   1.916  0.1743  0.4734  0.1338
   11MOL0     O 1398   6.046   3.266   2.189 -0.1540  0.0142 -0.2657
   11MOL0     C 1399   6.315   3.220   1.970  0.6967 -1.0802 -0.1507
   11MOL0     C 1400   6.453   3.233   1.970  0.2956  0.8240  0.4664
   11MOL0     N 1401   6.992   3.330   1.798 -0.1158 -1.1186 -0.3377
   11MOL0     N 1402   7.089   3.401   1.842 -0.2420  0.3126  0.0160
   11MOL0     C 1403   8.305   3.429   1.711  0.0918 -0.3813  0.2774
   11MOL0     C 1404   8.445   3.413   1.703 -0.5781  1.1593  0.8340
   11MOL0     C 1405   8.855   3.292   1.494  0.0288  0.0124 -0.0977
   11MOL0     C 1406   8.899   3.412   1.555  0.8624  0.8718  0.0150
   11MOL0     C 1407   9.026   3.454   1.538 -0.3373  0.5758 -0.7392
   11MOL0     C 1408   9.128   3.381   1.462  0.2506  0.5359 -0.1545
   11MOL0     O 1409   9.249   3.436   1.444  0.4580 -1.1177 -0.7748
   11MOL0     C 1410   9.261   3.488   1.307  0.1968 -0.0946  0.1717
   11MOL0     C 1411   9.398   3.538   1.305 -0.2234 -0.3978  0.1680
   11MOL0     C 1412   9.410   3.672   1.374  0.0103  0.2859 -0.1152
   11MOL0     C 1413   9.528   3.686   1.466 -0.1894 -0.1142 -0.2710
   11MOL0     C 1414   9.525   3.820   1.534  0.4273 -0.1888  0.0668
   11MOL0     C 1415   9.542   3.933   1.580 -0.4149 -0.4790 -0.6898
   11MOL0     C 1416   9.082   3.267   1.399 -0.3417  0.8030 -0.0291
   11MOL0     C 1417   8.951   3.220   1.417 -0.0711  0.2053  0.1369
   11MOL0     H 1418   8.444   3.222   1.406 -3.8230  0.4978 -1.6710
   11MOL0     H 1419   8.213   3.270   1.417 -1.8292  2.0372  0.5043
   11MOL0     H 1420   8.001   3.379   1.431 -0.5211 -2.3857 -1.0565
   11MOL0     H 1421   8.014   3.233   1.531 -3.2701 -0.2445 -1.8305
   11MOL0     H 1422   7.862   3.295   1.688  0.9051 -1.7405 -0.3595
   11MOL0     H 1423   7.839   3.459   1.627  0.5159 -0.2097 -0.5957
   11MOL0     H 1424   7.759   3.314   1.410 -1.7445  1.3720  0.9123
   11MOL0     H 1425   7.769   3.181   1.530  0.6968 -0.0443  1.3187
   11MOL0     H 1426   7.617   3.451   1.567  2.0149 -0.0384  1.0008
   11MOL0     H 1427   7.531   3.307   1.503 -0.0451  1.7425 -1.2837
   11MOL0     H 1428   7.570   3.188   1.714  1.3075 -0.5006 -0.0940
   11MOL0     H 1429   7.674   3.314   1.770  1.3932 -1.4299 -1.2677
   11MOL0     H 1430   7.492   3.480   1.794 -0.6173 -0.3638  1.0985
   11MOL0     H 1431   7.385   3.371   1.719 -1.0690  0.3588  2.6923
   11MOL0     H 1432   7.430   3.212   1.912 -1.2833  0.2668 -0.2675
   11MOL0     H 1433   7.516   3.352   1.995 -2.5266  3.8890  0.4329
   11MOL0     H 1434   7.303   3.490   1.954  0.1424  0.0892  1.6798
   11MOL0     H 1435   7.306   3.355   2.063 -0.4494  2.0362  0.4323
   11MOL0     H 1436   7.224   3.107   1.883 -2.0334 -1.8804 -1.8999
   11MOL0     H 1437   6.851   3.129   1.740 -0.1066  1.8308 -0.9130
   11MOL0     H 1438   6.985   3.011   1.724  1.0581  0.7974  0.5426
   11MOL0     H 1439   7.015   2.989   1.952  1.4061  2.8379 -1.3035
   11MOL0     H 1440   6.845   2.940   1.916  2.2406 -2.6974 -0.9998
   11MOL0     H 1441   6.938   3.204   2.056 -2.3679  2.6307  0.9323
   11MOL0     H 1442   6.855   3.067   2.133 -0.1066 -0.3608 -0.6308
   11MOL0     H 1443   6.677   3.099   1.938 -1.1428  0.0552  0.6622
   11MOL0     H 1444   6.769   3.254   1.915  0.2927 -0.6125 -0.5335
   11MOL0     H 1445   6.531   3.211   2.286  0.4956  0.3141 -0.7920
   11MOL0     H 1446   6.204   3.126   2.373  0.4215 -2.3401  0.3434
   11MOL0     H 1447   6.366   3.151   2.403 -1.6450 -1.8857 -0.5074
   11MOL0     H 1448   6.259   3.304   2.386  2.1581  1.3493 -1.2353
   11MOL0     H 1449   5.916   2.993   2.068 -0.5369  0.9379  2.2786
   11MOL0     H 1450   5.693   2.912   2.009  2.4759 -1.2858  0.1181
   11MOL0     H 1451   5.398   3.210   1.835 -2.5226 -1.7860  1.0801
   11MOL0     H 1452   5.484   3.152   1.691  2.0993 -0.2997  0.8981
   11MOL0     H 1453   5.318   2.943   1.703  1.8389  0.0562 -0.8803
   11MOL0     H 1454   5.225   3.025   1.835 -2.2105 -0.4532 -2.9088
   11MOL0     H 1455   5.238   3.100   1.548 -1.6631  3.0552 -0.4311
   11MOL0     H 1456   5.188   3.214   1.667 -0.3774 -0.8259  0.8917
   11MOL0     H 1457   5.062   2.941   1.631  1.0539 -0.9943  3.0015
   11MOL0     H 1458   5.024   3.042   1.760  0.7400 -2.0142  0.3600
   11MOL0     H 1459   4.986   3.125   1.470 -0.2917  1.8210  0.2640
   11MOL0     H 1460   4.935   3.219   1.604  1.3259  1.6130 -1.9057
   11MOL0     H 1461   4.829   2.941   1.572 -0.2191  0.0609 -1.9635
   11MOL0     H 1462   4.783   3.076   1.678 -0.1504  2.1092 -1.6926
   11MOL0     H 1463   4.711   3.206   1.474  0.2342  0.1870  1.1428
   11MOL0     H 1464   4.597   3.085   1.529 -1.3144  2.7579 -1.0847
   11MOL0     H 1465   4.660   2.928   1.383  1.2875 -0.2988 -0.3997
   11MOL0     H 1466   4.814   2.995   1.332 -0.4038 -0.9724 -1.0088
   11MOL0     H 1467   5.605   3.300   1.855 -0.3374  0.9540  1.7270
   11MOL0     H 1468   5.838   3.375   1.899 -0.0964  1.1609  3.3174
   11MOL0     H 1469   6.261   3.218   1.876  1.4296 -1.9869 -0.5591
   11MOL0     H 1470   6.512   3.241   1.879  2.2507 -2.5405  1.2429
   11MOL0     H 1471   8.275   3.491   1.795  2.4795  0.5550  0.5281
   11MOL0     H 1472   8.505   3.435   1.790 -0.8270  1.5716  0.9049
   11MOL0     H 1473   8.834   3.473   1.618 -2.4861 -1.8299 -0.5703
   11MOL0     H 1474   9.059   3.535   1.603 -1.6470 -1.3102  2.5089
   11MOL0     H 1475   9.249   3.400   1.243 -0.3260 -0.3873  0.6582
   11MOL0     H 1476   9.178   3.543   1.262 -1.4061 -0.0626  2.9290
   11MOL0     H 1477   9.429   3.540   1.200 -1.1777 -3.8820 -0.3259
   11MOL0     H 1478   9.453   3.460   1.358 -3.1283 -1.3879  1.9449
   11MOL0     H 1479   9.325   3.688   1.440  1.0441  2.7485  0.7533
   11MOL0     H 1480   9.416   3.739   1.288  1.5939 -1.7347 -1.6951
   11MOL0     H 1481   9.615   3.695   1.400 -0.1871 -0.4923 -0.3234
   11MOL0     H 1482   9.543   3.604   1.537  0.3483  0.6559  0.5238
   11MOL0     H 1483   9.564   4.031   1.615 -0.9479 -1.3620  2.3639
   11MOL0     H 1484   9.155   3.226   1.331  0.2145  0.8761  0.5188
   11MOL0     H 1485   8.909   3.132   1.369 -0.2135  0.2248  0.2255
   12MOL0     O 1486   1.593  10.165   9.526 -0.8769  0.2422  0.1628
   12MOL0     C 1487   1.673  10.078   9.548  0.2782  0.0197 -0.0760
   12MOL0     O 1488   1.649   9.960   9.619  0.0082 -0.5957  0.3309
   12MOL0     C 1489   1.523   9.945   9.673  1.2183  0.1978 -0.5114
   12MOL0     C 1490   1.519   9.893   9.802  0.0750 -0.2608  0.2071
   12MOL0     C 1491   1.395   9.874   9.872 -0.0885  0.1008  0.7410
   12MOL0     C 1492   1.274   9.897   9.803 -0.1506  0.2201  0.2440
   12MOL0     O 1493   1.157   9.886   9.876  0.1362  0.4658  0.4977
   12MOL0     C 1494   1.034   9.903   9.807 -0.2724  0.4440  0.0806
   12MOL0     C 1495   0.924   9.902   9.909  0.2008 -0.0134  0.0059
   12MOL0     C 1496   0.787   9.932   9.847 -0.7170 -0.2241 -0.4608
   12MOL0     C 1497   0.689   9.943   9.956 -0.2118  0.4079 -0.1655
   12MOL0     C 1498   0.555   9.969   9.887  0.6912  0.2262  0.7509
   12MOL0     C 1499   0.428   9.971   9.981 -0.4151 -0.7348  0.5249
   12MOL0     C 1500   0.454  10.047  10.104 -1.0469  0.0011  0.0281
   12MOL0     C 1501   0.334  10.056  10.190 -0.1482  0.0214 -0.1178
   12MOL0     N 1502   0.263   9.929  10.192 -0.4276  0.1705  0.1107
   12MOL0     C 1503   0.156   9.898  10.122 -0.3612 -0.1589  0.4792
   12MOL0     C 1504   0.112   9.777  10.166 -0.3484 -0.8888  0.6126
   12MOL0     C 1505  -0.015   9.713  10.108  0.2342  0.0089  0.4795
   12MOL0     C 1506  -0.146   9.753  10.182  0.2994 -0.1134  0.8417
   12MOL0     C 1507  -0.268   9.678  10.113  0.5441 -0.0603  0.9289
   12MOL0     C 1508  -0.397   9.712  10.187 -0.0411 -0.5131 -0.7714
   12MOL0     O 1509  -0.511   9.654  10.114 -0.2226 -0.5645  0.2369
   12MOL0     C 1510  -0.620   9.621  10.183 -0.6206 -0.5025  0.1459
   12MOL0     C 1511  -0.719   9.547  10.115  0.4626 -0.0748 -0.1671
   12MOL0     C 1512  -0.838   9.502  10.167 -0.0015  0.0387 -0.7535
   12MOL0     C 1513  -0.935   9.418  10.077  0.2185  0.1588 -0.3709
   12MOL0     C 1514  -0.867   9.531  10.305  0.1531 -0.9328 -0.3630
   12MOL0     C 1515  -0.978   9.460  10.385 -0.3962  0.0163  0.8006
   12MOL0     O 1516  -1.095   9.420  10.323 -0.1253 -0.4032  0.3272
   12MOL0     C 1517  -1.191   9.358  10.398  0.6857  0.0360 -0.2136
   12MOL0     C 1518  -1.206   9.220  10.405  0.4896 -0.2216 -0.1090
   12MOL0     C 1519  -1.318   9.165  10.474  0.4838 -0.2695  0.0850
   12MOL0     C 1520  -1.419   9.246  10.530  0.0762  0.3498 -0.1196
   12MOL0     O 1521  -1.524   9.191  10.606  0.1890  0.0116 -0.4973
   12MOL0     C 1522  -1.652   9.257  10.609  0.1756  0.5501 -0.1833
   12MOL0     C 1523  -1.752   9.173  10.687 -0.0281  0.3393 -0.1938
   12MOL0     C 1524  -1.850   9.252  10.774  0.0461  0.0999  0.6527
   12MOL0     C 1525  -1.952   9.323  10.684 -0.4472 -0.5014  0.4688
   12MOL0     C 1526  -2.073   9.390  10.736  0.2573 -0.6303  1.4073
   12MOL0     C 1527  -2.049   9.470  10.864 -0.4747 -0.1837 -0.3071
   12MOL0     C 1528  -2.188   9.532  10.895 -0.2320  0.3281 -0.0733
   12MOL0     C 1529  -2.162   9.631  11.008  0.5105  0.3971 -0.7681
   12MOL0    Cl 1530  -2.086   9.793  10.947 -0.0930  0.0105 -0.1242
   12MOL0     C 1531  -1.402   9.383  10.513  0.2321 -0.2135 -0.8061
   12MOL0     C 1532  -1.287   9.440  10.453 -0.4256  0.0719  0.1914
   12MOL0     O 1533  -0.960   9.438  10.505  0.4909  0.0616  0.2223
   12MOL0     C 1534  -0.762   9.591  10.374 -0.6602  0.5614  0.1650
   12MOL0     C 1535  -0.644   9.645  10.318  0.5781 -0.2879 -0.3497
   12MOL0     N 1536   0.194   9.734  10.271  0.0555  0.6809  0.6542
   12MOL0     N 1537   0.286   9.826  10.287  0.0701 -0.0462  0.3595
   12MOL0     C 1538   1.283   9.942   9.670 -0.1161  0.1402  0.0742
   12MOL0     C 1539   1.398   9.974   9.605  0.3193  0.1705 -0.2204
   12MOL0     C 1540   1.814  10.082   9.498 -0.1217 -0.3389 -1.3776
   12MOL0     C 1541   1.890   9.959   9.493 -0.4457  0.5225  0.4631
   12MOL0     C 1542   2.013   9.965   9.420 -1.1208  0.1399 -0.8282
   12MOL0     C 1543   2.069  10.090   9.374  0.0980 -0.2244  0.4495
   12MOL0     O 1544   2.197  10.089   9.313  0.2074  0.2938 -0.0897
   12MOL0     C 1545   2.280  10.211   9.327  0.9181  0.4109 -0.0034
   12MOL0     C 1546   2.421  10.175   9.260  0.3461  0.4391 -0.1956
   12MOL0     C 1547   2.491  10.055   9.314 -0.1252  0.4294  0.1307
   12MOL0     C 1548   2.628  10.040   9.256  0.0287 -0.0357 -0.4774
   12MOL0     C 1549   2.697   9.918   9.308  0.0800  0.2103  0.1603
   12MOL0     C 1550   2.761   9.820   9.352  0.2589  0.1608 -0.1528
   12MOL0     C 1551   1.985  10.205   9.384 -0.1851  0.2431  0.7220
   12MOL0     C 1552   1.858  10.202   9.447  0.3752  0.9024  0.0267
   12MOL0     H 1553   1.605   9.860   9.858 -0.6429  0.4057  1.7775
   12MOL0     H 1554   1.397   9.844   9.976  1.9215  2.6209  1.5200
   12MOL0     H 1555   1.027  10.002   9.761 -0.8974  0.7227  0.7565
   12MOL0     H 1556   1.025   9.827   9.729  0.1909  0.0019  0.4502
   12MOL0     H 1557   0.924   9.804   9.959  0.9889 -0.6057 -1.1132
   12MOL0     H 1558   0.944   9.981   9.982 -0.5802 -0.7085  1.0150
   12MOL0     H 1559   0.797  10.030   9.798  1.9839 -1.4194 -2.5626
   12MOL0     H 1560   0.753   9.857   9.775 -1.2940  0.9843 -1.5010
   12MOL0     H 1561   0.678   9.847  10.009  1.8604  1.3289  2.1497
   12MOL0     H 1562   0.715  10.019  10.030  1.2288 -2.3381  2.4125
   12MOL0     H 1563   0.570  10.064   9.834  2.0306 -0.8423 -0.8769
   12MOL0     H 1564   0.533   9.895   9.810 -0.4904  1.9557 -0.6672
   12MOL0     H 1565   0.354  10.021   9.917  0.0437 -1.5638 -0.7030
   12MOL0     H 1566   0.410   9.865  10.003  1.4931 -1.0074  1.0129
   12MOL0     H 1567   0.531   9.998  10.164 -2.0157 -0.0912  1.2150
   12MOL0     H 1568   0.497  10.144  10.080 -0.7860 -0.4572 -1.5103
   12MOL0     H 1569   0.269  10.137  10.157 -1.6931 -0.0342  2.4937
   12MOL0     H 1570   0.359  10.072  10.295 -2.8646 -1.3849  0.8584
   12MOL0     H 1571   0.104   9.958  10.048  1.1567 -0.5603 -0.9666
   12MOL0     H 1572  -0.028   9.724  10.000 -1.3309 -2.7322  0.3060
   12MOL0     H 1573  -0.002   9.605  10.117 -1.2986 -0.3298 -0.8951
   12MOL0     H 1574  -0.159   9.858  10.155  0.3205 -0.3363 -0.0679
   12MOL0     H 1575  -0.143   9.739  10.291  0.5715 -0.4522  0.7893
   12MOL0     H 1576  -0.252   9.570  10.125 -2.0300 -0.5113  0.8435
   12MOL0     H 1577  -0.269   9.697  10.005  1.1945 -0.7268  0.8009
   12MOL0     H 1578  -0.425   9.818  10.181 -0.0568 -0.3951  1.0019
   12MOL0     H 1579  -0.388   9.692  10.294  0.1500  1.7019 -0.3276
   12MOL0     H 1580  -0.694   9.514  10.014 -0.8845 -3.9065  0.5930
   12MOL0     H 1581  -0.975   9.323  10.115  0.9293 -0.1375 -0.3414
   12MOL0     H 1582  -1.014   9.480  10.034  0.2681 -0.2861 -1.1267
   12MOL0     H 1583  -0.875   9.381   9.992 -0.4719  2.0479 -1.7376
   12MOL0     H 1584  -1.132   9.154  10.361 -0.2183 -1.4001  0.4521
   12MOL0     H 1585  -1.335   9.058  10.477 -2.0694  0.0760  1.0088
   12MOL0     H 1586  -1.643   9.350  10.665  1.0659 -0.1984  0.9779
   12MOL0     H 1587  -1.690   9.274  10.508 -2.6059 -3.2719 -0.0064
   12MOL0     H 1588  -1.802   9.096  10.628 -1.6472 -0.7199  2.3680
   12MOL0     H 1589  -1.696   9.110  10.757 -2.0269 -0.7661  0.4851
   12MOL0     H 1590  -1.812   9.331  10.840 -0.0749  0.5709  0.1693
   12MOL0     H 1591  -1.904   9.182  10.839 -0.5365 -0.0099  0.0557
   12MOL0     H 1592  -1.896   9.402  10.633  0.8016 -0.9782  1.0589
   12MOL0     H 1593  -1.978   9.257  10.601  3.3767 -0.2363 -1.1519
   12MOL0     H 1594  -2.142   9.306  10.750 -0.1241 -0.5553  0.1633
   12MOL0     H 1595  -2.125   9.444  10.656  0.7085 -1.8341  0.2658
   12MOL0     H 1596  -2.032   9.401  10.947 -1.0542 -0.2076 -0.2032
   12MOL0     H 1597  -1.969   9.544  10.860 -1.0091  0.4380  0.1658
   12MOL0     H 1598  -2.255   9.446  10.908  2.7625 -2.1460  0.1985
   12MOL0     H 1599  -2.219   9.584  10.804 -3.4699 -0.5304  0.4135
   12MOL0     H 1600  -2.103   9.580  11.085 -1.3522 -0.0691  0.4394
   12MOL0     H 1601  -2.256   9.643  11.063  1.8127 -0.7097  1.8977
   12MOL0     H 1602  -1.478   9.446  10.557 -0.7400 -1.0563 -1.2211
   12MOL0     H 1603  -1.279   9.547  10.436 -1.0928 -0.4242 -4.6697
   12MOL0     H 1604  -0.791   9.599  10.478 -3.9356  0.9219 -0.6602
   12MOL0     H 1605  -0.574   9.706  10.375  0.9329 -1.0295  0.0170
   12MOL0     H 1606   1.190   9.946   9.613 -0.3098  1.2155  0.4424
   12MOL0     H 1607   1.390  10.011   9.503 -2.5336 -0.8987 -0.4768
   12MOL0     H 1608   1.845   9.868   9.529  1.1890  0.6151  3.0045
   12MOL0     H 1609   2.070   9.874   9.413  0.5906  0.6833  3.4645
   12MOL0     H 1610   2.232  10.292   9.272 -0.3439 -0.3187 -0.0035
   12MOL0     H 1611   2.290  10.250   9.428 -0.9856 -0.5699  0.5986
   12MOL0     H 1612   2.478  10.268   9.260 -0.8901  1.2454 -1.2525
   12MOL0     H 1613   2.409  10.146   9.155  2.3568 -4.7947  0.7359
   12MOL0     H 1614   2.425   9.970   9.292  0.6974 -0.6741  1.7459
   12MOL0     H 1615   2.506  10.074   9.421  1.0081 -0.2414  0.1036
   12MOL0     H 1616   2.678  10.133   9.284 -1.7985  0.5264  1.2387
   12MOL0     H 1617   2.632  10.034   9.147  4.2519 -0.6471 -0.4224
   12MOL0     H 1618   2.809   9.728   9.378  2.1673  0.7299 -1.4380
   12MOL0     H 1619   2.015  10.301   9.343 -0.9747 -0.0766 -0.6854
   12MOL0     H 1620   1.799  10.292   9.438 -2.1327 -0.6067  0.4377
   13MOL0     O 1621   8.892   2.506   3.298  0.7987  0.1946  0.0238
   13MOL0     C 1622   8.890   2.443   3.194  0.1440  0.0802  0.0271
   13MOL0     O 1623   8.781   2.415   3.124  0.6957  0.3185 -0.0820
   13MOL0     C 1624   8.659   2.435   3.177 -0.6558  0.4520  0.0445
   13MOL0     C 1625   8.611   2.360   3.287  0.1066 -0.7684  1.0307
   13MOL0     C 1626   8.482   2.377   3.322  0.4406 -0.2117 -1.0043
   13MOL0     C 1627   8.392   2.464   3.268  0.3978  0.1249 -0.0126
   13MOL0     O 1628   8.268   2.480   3.321 -0.2533  0.3671  1.1054
   13MOL0     C 1629   8.245   2.615   3.351 -0.1708  0.8460  0.8361
   13MOL0     C 1630   8.147   2.683   3.256  0.6469 -0.3652 -0.0877
   13MOL0     C 1631   8.013   2.605   3.247  0.3804 -0.1292  0.0524
   13MOL0     C 1632   7.947   2.624   3.387  0.9995  0.3797 -0.9678
   13MOL0     C 1633   7.805   2.552   3.391 -1.2607 -0.2270 -0.1597
   13MOL0     C 1634   7.710   2.589   3.275  0.0771 -0.5757 -0.0724
   13MOL0     C 1635   7.650   2.735   3.294 -0.1289 -0.5056  0.7455
   13MOL0     C 1636   7.541   2.731   3.397 -0.0655  0.6314  0.2378
   13MOL0     N 1637   7.416   2.651   3.349 -0.3836  0.7680 -0.5818
   13MOL0     C 1638   7.355   2.655   3.228 -0.8867  0.4210 -0.1922
   13MOL0     C 1639   7.245   2.577   3.244 -0.7853  1.0751 -0.5766
   13MOL0     C 1640   7.147   2.546   3.135  1.1412 -0.4506  0.1503
   13MOL0     C 1641   7.007   2.576   3.182  0.2993  0.4107 -0.1853
   13MOL0     C 1642   6.904   2.539   3.073  0.2036 -0.7405 -0.6874
   13MOL0     C 1643   6.754   2.558   3.124  0.1379 -0.1639 -0.4842
   13MOL0     O 1644   6.662   2.535   3.005  0.2083  0.0734 -0.5241
   13MOL0     C 1645   6.528   2.514   3.032  0.3780  0.0643 -0.4173
   13MOL0     C 1646   6.458   2.479   2.922  0.4132  0.0899  0.2783
   13MOL0     C 1647   6.318   2.447   2.923 -0.2350 -0.5528 -0.3508
   13MOL0     C 1648   6.264   2.383   2.796  0.2058  0.2847  0.2642
   13MOL0     C 1649   6.247   2.469   3.039  0.6027 -0.6260 -0.1395
   13MOL0     C 1650   6.102   2.454   3.055  0.2624  0.1714  0.1123
   13MOL0     O 1651   6.014   2.533   2.976  0.7054  0.2610 -0.8194
   13MOL0     C 1652   5.883   2.544   3.011 -0.7115 -0.4678  0.0249
   13MOL0     C 1653   5.822   2.502   3.132  0.6213 -0.1469 -0.0764
   13MOL0     C 1654   5.690   2.534   3.158  1.0166  0.3526 -1.2591
   13MOL0     C 1655   5.610   2.607   3.069 -0.4566 -0.5796  0.2088
   13MOL0     O 1656   5.481   2.647   3.085 -0.6253 -0.0681  0.2493
   13MOL0     C 1657   5.403   2.605   3.196  0.2723 -0.6626 -0.5776
   13MOL0     C 1658   5.257   2.626   3.182  0.7646 -0.2452  0.0336
   13MOL0     C 1659   5.215   2.773   3.185  0.6791  0.6049  0.1613
   13MOL0     C 1660   5.061   2.772   3.142 -0.5782 -0.3824 -0.5429
   13MOL0     C 1661   5.005   2.912   3.117  0.0713 -0.1229 -0.7049
   13MOL0     C 1662   4.852   2.931   3.074 -0.4231  0.6317 -0.2683
   13MOL0     C 1663   4.808   3.074   3.062 -0.2501 -0.9721 -0.4963
   13MOL0     C 1664   4.659   3.091   3.015 -0.3844  0.7557 -1.1244
   13MOL0    Cl 1665   4.544   3.008   3.133 -0.2179  0.1165  0.1590
   13MOL0     C 1666   5.670   2.646   2.948  0.4091  0.4534  0.1246
   13MOL0     C 1667   5.805   2.610   2.917  0.1455 -0.7463 -0.8052
   13MOL0     O 1668   6.071   2.374   3.144 -0.0102  0.3879 -0.1958
   13MOL0     C 1669   6.315   2.517   3.152 -0.5566 -1.0055 -1.0472
   13MOL0     C 1670   6.456   2.530   3.153 -1.3637 -0.6446  0.2277
   13MOL0     N 1671   7.239   2.533   3.376  0.2335 -0.5122 -0.6061
   13MOL0     N 1672   7.344   2.577   3.441  0.0264 -0.1055  0.2782
   13MOL0     C 1673   8.431   2.528   3.153  0.4102 -0.5820 -0.5161
   13MOL0     C 1674   8.570   2.516   3.105  0.5940  0.7333  0.5553
   13MOL0     C 1675   9.028   2.396   3.148  0.0278  0.1242  0.1318
   13MOL0     C 1676   9.041   2.358   3.013 -0.3502  0.3669  0.3888
   13MOL0     C 1677   9.167   2.356   2.953 -0.0524  0.1821 -0.0817
   13MOL0     C 1678   9.279   2.356   3.029 -0.9226 -0.0568  0.5580
   13MOL0     O 1679   9.408   2.352   2.974 -0.7425  0.9887  0.5240
   13MOL0     C 1680   9.445   2.343   2.831 -0.8183 -0.6012 -0.7802
   13MOL0     C 1681   9.599   2.333   2.805  0.4092 -1.3536  0.3727
   13MOL0     C 1682   9.647   2.207   2.881 -0.1827 -0.7087  0.0770
   13MOL0     C 1683   9.807   2.191   2.862 -0.0772  0.0554  0.2130
   13MOL0     C 1684   9.850   2.068   2.933 -0.2707  0.3118  0.2403
   13MOL0     C 1685   9.879   1.961   2.998 -0.1069 -0.5781  0.6023
   13MOL0     C 1686   9.270   2.367   3.165 -0.0504  0.7300  0.0411
   13MOL0     C 1687   9.147   2.397   3.224  0.0477  0.0091 -0.0420
   13MOL0     H 1688   8.677   2.297   3.346 -0.1941 -3.0511 -0.8842
   13MOL0     H 1689   8.455   2.317   3.408  0.9124  1.6690  0.4999
   13MOL0     H 1690   8.216   2.618   3.457  2.6686 -1.5046  1.7999
   13MOL0     H 1691   8.335   2.678   3.353  0.2054  0.3606 -0.1826
   13MOL0     H 1692   8.129   2.783   3.297  0.3943 -0.0578 -0.9269
   13MOL0     H 1693   8.173   2.693   3.150 -0.1538  2.4629 -0.0993
   13MOL0     H 1694   7.957   2.654   3.167  0.1287 -2.8655 -1.6060
   13MOL0     H 1695   8.015   2.500   3.213 -0.1027  0.0448 -0.5442
   13MOL0     H 1696   8.008   2.581   3.467  1.4333  0.8701 -1.0326
   13MOL0     H 1697   7.946   2.732   3.401 -0.8833  0.4746 -1.5991
   13MOL0     H 1698   7.826   2.445   3.384  0.9864  0.0176  1.5692
   13MOL0     H 1699   7.760   2.579   3.487  0.5415 -0.8784  0.9205
   13MOL0     H 1700   7.753   2.586   3.175  0.1672  0.2578 -0.0624
   13MOL0     H 1701   7.629   2.515   3.270 -1.7229  1.3195 -0.0660
   13MOL0     H 1702   7.727   2.803   3.331 -0.4605 -0.9852  2.3723
   13MOL0     H 1703   7.615   2.768   3.196  0.9474 -0.9089  0.2054
   13MOL0     H 1704   7.513   2.835   3.415 -0.8144  1.2516 -3.5779
   13MOL0     H 1705   7.587   2.682   3.483  1.9822 -0.2859 -1.2988
   13MOL0     H 1706   7.394   2.706   3.140  0.2685 -3.6247 -2.2553
   13MOL0     H 1707   7.168   2.604   3.045 -2.1044 -0.9899 -1.1066
   13MOL0     H 1708   7.162   2.440   3.112  0.9822 -1.0023  2.3677
   13MOL0     H 1709   6.990   2.682   3.199 -2.8583  0.2209 -1.4261
   13MOL0     H 1710   6.986   2.514   3.270 -0.0465 -1.3835 -1.4655
   13MOL0     H 1711   6.908   2.433   3.048 -0.1820 -0.8621 -0.2335
   13MOL0     H 1712   6.914   2.604   2.985  3.8483 -0.2832 -0.0859
   13MOL0     H 1713   6.738   2.656   3.169 -0.5362  0.1145 -1.3097
   13MOL0     H 1714   6.735   2.487   3.206  4.0084  0.9955  1.6695
   13MOL0     H 1715   6.518   2.456   2.834  1.2786  0.9664  0.6184
   13MOL0     H 1716   6.263   2.456   2.715 -1.1993 -0.4951 -0.4649
   13MOL0     H 1717   6.320   2.295   2.761  0.1735  1.2364 -2.3901
   13MOL0     H 1718   6.160   2.350   2.802 -0.7003  2.2157 -2.6225
   13MOL0     H 1719   5.877   2.454   3.212  2.4040  2.5721  0.4597
   13MOL0     H 1720   5.649   2.518   3.257  1.4682  0.3086 -1.0778
   13MOL0     H 1721   5.410   2.498   3.219  1.6928 -0.2779  0.9913
   13MOL0     H 1722   5.437   2.653   3.288 -2.9133 -1.3037  1.0520
   13MOL0     H 1723   5.225   2.570   3.094 -0.0414 -2.0773  1.4197
   13MOL0     H 1724   5.205   2.570   3.260 -2.2808 -3.5519 -3.9141
   13MOL0     H 1725   5.278   2.815   3.107 -2.0134  2.5396 -1.1426
   13MOL0     H 1726   5.228   2.819   3.283  0.6608 -0.5443  0.7167
   13MOL0     H 1727   5.052   2.717   3.047  4.5287 -1.6747 -0.5443
   13MOL0     H 1728   4.999   2.725   3.219  0.7492  0.5360  1.1396
   13MOL0     H 1729   5.074   2.972   3.057  2.2189 -1.5190  0.2340
   13MOL0     H 1730   5.001   2.958   3.216 -0.0890 -2.3114  0.3520
   13MOL0     H 1731   4.833   2.889   2.975  0.0804 -1.6406  0.5296
   13MOL0     H 1732   4.797   2.867   3.145  2.1117  0.9997  2.1941
   13MOL0     H 1733   4.870   3.123   2.985  1.0826 -0.1002  1.0665
   13MOL0     H 1734   4.830   3.136   3.150 -0.2697 -0.3890 -0.8913
   13MOL0     H 1735   4.643   3.046   2.917 -2.1351 -1.4597  0.0827
   13MOL0     H 1736   4.636   3.198   3.016 -3.7406  0.2006  1.6097
   13MOL0     H 1737   5.615   2.706   2.877  0.2654 -0.5230 -0.6114
   13MOL0     H 1738   5.840   2.651   2.823  0.2295  1.0992 -0.0305
   13MOL0     H 1739   6.261   2.532   3.245  0.6321 -1.6904 -0.2205
   13MOL0     H 1740   6.504   2.560   3.246 -0.2964  1.0017 -0.7918
   13MOL0     H 1741   8.368   2.594   3.094 -0.4561 -1.7972 -0.9796
   13MOL0     H 1742   8.591   2.570   3.014  3.9013  0.2051  0.9024
   13MOL0     H 1743   8.956   2.355   2.946 -0.7182  0.9565  0.8164
   13MOL0     H 1744   9.177   2.352   2.845  0.5018  1.0346 -0.0758
   13MOL0     H 1745   9.391   2.262   2.782  0.6585 -1.4575 -1.0320
   13MOL0     H 1746   9.410   2.432   2.778 -1.0405 -0.8754 -1.0992
   13MOL0     H 1747   9.650   2.427   2.829  0.1764 -0.9735 -0.5535
   13MOL0     H 1748   9.615   2.313   2.698 -0.0208  1.6209 -0.3302
   13MOL0     H 1749   9.594   2.128   2.827 -0.9243 -0.9764  1.1659
   13MOL0     H 1750   9.611   2.209   2.985  0.4127 -1.6303  0.3119
   13MOL0     H 1751   9.865   2.277   2.897  2.6633 -1.7311  0.3517
   13MOL0     H 1752   9.831   2.191   2.755 -2.1029  1.4328 -0.3034
   13MOL0     H 1753   9.915   1.880   3.057 -1.2589 -0.1001  2.0236
   13MOL0     H 1754   9.351   2.381   3.236 -1.5565  1.0433  1.7738
   13MOL0     H 1755   9.128   2.423   3.328 -2.5425  2.0461 -0.8970
   14MOL0     O 1756   3.470   5.647   6.172 -0.7113  0.0293 -0.2496
   14MOL0     C 1757   3.495   5.727   6.085 -0.2166  0.6325  0.2230
   14MOL0     O 1758   3.409   5.824   6.044  0.4865  0.3174 -0.4548
   14MOL0     C 1759   3.286   5.828   6.099 -0.5537  0.1601 -1.1942
   14MOL0     C 1760   3.267   5.930   6.198 -0.3934 -0.2901  0.7243
   14MOL0     C 1761   3.142   5.944   6.259 -0.1486 -0.3401 -0.1254
   14MOL0     C 1762   3.035   5.861   6.230 -0.2883  0.1710 -1.1073
   14MOL0     O 1763   2.908   5.871   6.295 -0.0036 -0.2241  0.0213
   14MOL0     C 1764   2.792   5.807   6.245 -0.4131  0.0089  0.0481
   14MOL0     C 1765   2.749   5.880   6.119 -0.1806  0.2018  0.0915
   14MOL0     C 1766   2.602   5.848   6.079 -0.7155  0.9179  0.0542
   14MOL0     C 1767   2.566   5.703   6.065 -0.3656  0.5739 -1.0138
   14MOL0     C 1768   2.472   5.679   5.953 -0.1310 -0.5856 -0.8487
   14MOL0     C 1769   2.333   5.746   5.982  0.5280 -0.4585  0.0054
   14MOL0     C 1770   2.213   5.662   5.911 -0.1510 -1.1809  0.3756
   14MOL0     C 1771   2.226   5.675   5.757 -0.3548  0.0794  1.4853
   14MOL0     N 1772   2.095   5.675   5.685  0.1161 -0.4809  0.5664
   14MOL0     C 1773   2.038   5.780   5.611  0.0739 -0.4411  0.1558
   14MOL0     C 1774   1.926   5.717   5.558  0.4967  0.6107 -0.9914
   14MOL0     C 1775   1.820   5.792   5.466 -0.4578  0.4437 -0.0559
   14MOL0     C 1776   1.684   5.721   5.443 -0.8282  0.8382 -0.4176
   14MOL0     C 1777   1.713   5.614   5.343 -0.8955 -0.2523  0.4338
   14MOL0     C 1778   1.585   5.531   5.316  0.7127 -0.3260  0.3969
   14MOL0     O 1779   1.503   5.617   5.232  0.3864  0.0412  0.0847
   14MOL0     C 1780   1.383   5.581   5.177  0.2647 -0.0593 -1.3353
   14MOL0     C 1781   1.342   5.448   5.179  0.0946 -0.6781  0.2066
   14MOL0     C 1782   1.209   5.413   5.150 -0.3770  0.4170  0.5598
   14MOL0     C 1783   1.197   5.264   5.131  0.7322 -0.3748 -0.4756
   14MOL0     C 1784   1.106   5.514   5.125 -0.3367  0.5376  0.6123
   14MOL0     C 1785   0.961   5.478   5.110 -0.4946  0.6282 -0.3557
   14MOL0     O 1786   0.878   5.573   5.063 -0.0007 -0.0084 -0.2084
   14MOL0     C 1787   0.745   5.546   5.063  0.4786  1.5642 -0.3473
   14MOL0     C 1788   0.683   5.542   4.942 -0.2310 -0.9219  0.1560
   14MOL0     C 1789   0.555   5.517   4.917  0.9086 -0.2409  0.4495
   14MOL0     C 1790   0.477   5.483   5.027 -0.5754 -0.5759  0.6478
   14MOL0     O 1791   0.346   5.453   5.010 -0.9901 -0.5717 -0.1583
   14MOL0     C 1792   0.283   5.470   4.883  1.0259  0.0027  0.3234
   14MOL0     C 1793   0.134   5.435   4.893 -0.0599  0.8921  0.7296
   14MOL0     C 1794   0.068   5.438   4.755 -1.0220 -0.2901  0.0192
   14MOL0     C 1795  -0.073   5.394   4.761  1.2573 -0.7841  0.3093
   14MOL0     C 1796  -0.139   5.392   4.625 -0.5354  1.3594  0.4175
   14MOL0     C 1797  -0.288   5.349   4.643  0.6380  0.1996  0.0226
   14MOL0     C 1798  -0.365   5.345   4.515 -0.4203  0.4654  0.5524
   14MOL0     C 1799  -0.489   5.263   4.529  0.7469 -0.5650  0.4354
   14MOL0    Cl 1800  -0.572   5.270   4.372  0.0273 -0.1136 -0.2084
   14MOL0     C 1801   0.540   5.473   5.156  0.6893  0.2207 -0.1717
   14MOL0     C 1802   0.672   5.507   5.176  0.7745 -0.0311 -0.2940
   14MOL0     O 1803   0.923   5.373   5.158  0.3351 -0.1505 -0.6278
   14MOL0     C 1804   1.153   5.648   5.112 -0.0570  0.4804  0.0847
   14MOL0     C 1805   1.292   5.678   5.133  0.6171 -0.1767 -0.1550
   14MOL0     N 1806   1.915   5.576   5.593 -0.0217 -0.4299  0.2171
   14MOL0     N 1807   2.014   5.565   5.671  0.0467 -0.1401  0.3299
   14MOL0     C 1808   3.055   5.755   6.143 -0.5162  0.2813 -0.0021
   14MOL0     C 1809   3.181   5.733   6.081  0.4223  0.1132  0.0715
   14MOL0     C 1810   3.626   5.722   6.009  0.6199 -0.2361 -0.3627
   14MOL0     C 1811   3.666   5.844   5.944 -0.3786  0.1677  0.3262
   14MOL0     C 1812   3.794   5.861   5.902 -0.4933 -0.9541  1.1462
   14MOL0     C 1813   3.887   5.765   5.916 -0.1489 -0.2175  0.6544
   14MOL0     O 1814   4.003   5.780   5.843 -0.7177  0.4230 -0.3780
   14MOL0     C 1815   4.095   5.673   5.829 -1.2699  0.1534 -0.1670
   14MOL0     C 1816   4.222   5.702   5.751 -0.7578 -0.6815 -1.2318
   14MOL0     C 1817   4.325   5.586   5.766 -0.1100 -0.2137 -0.8508
   14MOL0     C 1818   4.447   5.600   5.681  0.9176  0.4295 -0.0266
   14MOL0     C 1819   4.533   5.716   5.697  0.2705  0.3609  0.7731
   14MOL0     C 1820   4.610   5.807   5.732 -0.0127  0.3517  0.6564
   14MOL0     C 1821   3.855   5.653   5.995  1.1017 -0.0324  0.1390
   14MOL0     C 1822   3.721   5.625   6.033 -0.2805  0.5680  1.1957
   14MOL0     H 1823   3.341   6.009   6.203 -2.0337  1.4586 -1.0268
   14MOL0     H 1824   3.124   6.021   6.333 -0.8615  0.7119 -1.3509
   14MOL0     H 1825   2.805   5.701   6.221 -1.0617  0.0933 -0.7224
   14MOL0     H 1826   2.709   5.819   6.315 -0.4892  2.3356 -0.3570
   14MOL0     H 1827   2.762   5.986   6.142  1.8221 -0.1577  0.8736
   14MOL0     H 1828   2.810   5.852   6.033 -0.3165 -0.7261  0.2882
   14MOL0     H 1829   2.530   5.885   6.152 -1.8243 -1.2059  0.1269
   14MOL0     H 1830   2.586   5.898   5.983 -1.3660  0.1151 -0.2760
   14MOL0     H 1831   2.654   5.647   6.033 -0.3404 -0.7279  1.1768
   14MOL0     H 1832   2.530   5.665   6.162  1.5431 -0.0749 -0.5262
   14MOL0     H 1833   2.510   5.714   5.856  2.7918 -3.1023 -0.7831
   14MOL0     H 1834   2.459   5.571   5.943 -0.1681 -1.1262  3.4725
   14MOL0     H 1835   2.317   5.731   6.089  3.2404 -0.1804  0.5327
   14MOL0     H 1836   2.333   5.853   5.959  1.6015 -0.3190  0.5819
   14MOL0     H 1837   2.213   5.557   5.939  1.7527 -1.7176 -1.3890
   14MOL0     H 1838   2.112   5.697   5.936  0.2738  0.9566 -0.6207
   14MOL0     H 1839   2.284   5.589   5.723 -2.7532 -1.0944  0.0366
   14MOL0     H 1840   2.289   5.760   5.728  0.8638 -1.4563 -0.6440
   14MOL0     H 1841   2.079   5.880   5.601 -0.0188 -0.2453  1.5657
   14MOL0     H 1842   1.792   5.885   5.517  1.4709  0.7321  0.5826
   14MOL0     H 1843   1.878   5.821   5.378 -0.6003  1.4018  0.1461
   14MOL0     H 1844   1.597   5.783   5.420 -0.7991  1.1862  0.3924
   14MOL0     H 1845   1.649   5.670   5.533  0.5655 -1.5409 -1.1383
   14MOL0     H 1846   1.781   5.536   5.379  0.0348  0.3037 -0.1021
   14MOL0     H 1847   1.752   5.660   5.252  1.0661 -0.2105  1.2508
   14MOL0     H 1848   1.531   5.512   5.409  0.7640 -2.7725 -0.0136
   14MOL0     H 1849   1.610   5.432   5.278  2.2865  0.0042  0.5121
   14MOL0     H 1850   1.421   5.375   5.190  0.5089 -0.6982 -2.4273
   14MOL0     H 1851   1.108   5.243   5.191  1.6006  1.6844  1.6932
   14MOL0     H 1852   1.192   5.228   5.028  1.8957 -2.0807  0.0271
   14MOL0     H 1853   1.281   5.212   5.177  1.5661  2.9072  2.1741
   14MOL0     H 1854   0.763   5.559   4.870  0.6511  1.3203  1.5707
   14MOL0     H 1855   0.515   5.514   4.816 -0.7181  0.3371  1.0572
   14MOL0     H 1856   0.280   5.574   4.848 -2.4020 -0.4498 -1.0949
   14MOL0     H 1857   0.323   5.412   4.800 -3.2620  0.4862 -2.3479
   14MOL0     H 1858   0.128   5.334   4.935 -0.3272  1.1211  1.2417
   14MOL0     H 1859   0.069   5.498   4.953 -1.1322  0.5144  0.0157
   14MOL0     H 1860   0.117   5.363   4.691 -1.1859 -0.8010  0.4860
   14MOL0     H 1861   0.074   5.543   4.724 -1.7118  0.2712  1.7140
   14MOL0     H 1862  -0.078   5.296   4.810 -0.9028 -0.1898  1.4116
   14MOL0     H 1863  -0.139   5.458   4.822  0.8247 -0.7121 -0.2249
   14MOL0     H 1864  -0.089   5.316   4.563 -1.2568  1.4881 -0.3436
   14MOL0     H 1865  -0.130   5.491   4.580  1.4989  0.6984 -0.7675
   14MOL0     H 1866  -0.287   5.254   4.697  1.7907  0.7058  0.9229
   14MOL0     H 1867  -0.329   5.420   4.716  0.2543 -0.0854  0.0900
   14MOL0     H 1868  -0.304   5.306   4.433  0.4916  2.3640  0.2680
   14MOL0     H 1869  -0.393   5.447   4.485 -2.0787 -0.1590 -0.1687
   14MOL0     H 1870  -0.553   5.291   4.613  1.1028  1.8018 -0.0283
   14MOL0     H 1871  -0.464   5.158   4.547 -0.7971 -0.5901  2.7380
   14MOL0     H 1872   0.481   5.430   5.236 -1.7504  0.3512 -1.7755
   14MOL0     H 1873   0.705   5.487   5.278 -1.1895 -2.0594  0.0409
   14MOL0     H 1874   1.080   5.723   5.084 -0.7901 -1.2421 -3.1117
   14MOL0     H 1875   1.317   5.783   5.129 -2.3593  0.6277 -0.2801
   14MOL0     H 1876   2.984   5.678   6.115  1.1727 -1.5676  0.6444
   14MOL0     H 1877   3.202   5.656   6.007 -1.4778 -0.4228  0.0369
   14MOL0     H 1878   3.600   5.928   5.926 -1.9881 -0.8327  1.3480
   14MOL0     H 1879   3.827   5.951   5.852  0.4570 -2.8307 -1.8334
   14MOL0     H 1880   4.127   5.647   5.930 -3.0586  1.3902  0.7850
   14MOL0     H 1881   4.044   5.586   5.785 -1.8276  0.9310 -1.1014
   14MOL0     H 1882   4.266   5.798   5.780 -2.4826 -0.7095  1.9123
   14MOL0     H 1883   4.202   5.716   5.645  2.8255  0.1974 -1.9325
   14MOL0     H 1884   4.276   5.490   5.749 -0.8886  0.0401 -0.1674
   14MOL0     H 1885   4.353   5.587   5.872  2.6594  0.6293 -1.5273
   14MOL0     H 1886   4.412   5.600   5.577  1.3712 -1.7765 -0.2174
   14MOL0     H 1887   4.503   5.507   5.684  1.5578  0.8289  1.4035
   14MOL0     H 1888   4.672   5.888   5.767 -1.5980  3.1981 -2.5895
   14MOL0     H 1889   3.932   5.577   6.010  0.2926 -0.3384  3.6705
   14MOL0     H 1890   3.698   5.543   6.100 -1.4074 -0.9838 -0.9263
   15MOL0     O 1891   4.816   3.706   4.061 -0.0445  0.6858 -0.2669
   15MOL0     C 1892   4.842   3.632   4.160  0.2615 -0.2660  1.0531
   15MOL0     O 1893   4.753   3.594   4.259  0.3154  0.0992  0.3727
   15MOL0     C 1894   4.628   3.659   4.257 -0.7302 -0.2785 -0.0757
   15MOL0     C 1895   4.614   3.798   4.253  0.2035  0.5910 -0.0444
   15MOL0     C 1896   4.486   3.862   4.249  0.7672  0.3518 -0.1321
   15MOL0     C 1897   4.367   3.784   4.250 -0.7281 -0.1167 -0.1641
   15MOL0     O 1898   4.236   3.826   4.241 -0.2766  0.4147  0.4871
   15MOL0     C 1899   4.211   3.971   4.254 -0.2155 -0.7030  0.6241
   15MOL0     C 1900   4.062   3.985   4.305  0.3994 -0.3446 -0.9002
   15MOL0     C 1901   3.965   4.009   4.178  0.2285 -0.0770  0.5259
   15MOL0     C 1902   3.816   4.003   4.213 -0.0424  0.0478 -0.1457
   15MOL0     C 1903   3.722   4.049   4.090 -0.7255  0.1013  0.3491
   15MOL0     C 1904   3.574   4.023   4.109  0.8964  0.1051  0.3743
   15MOL0     C 1905   3.533   3.870   4.106 -0.0611  0.2176 -0.1403
   15MOL0     C 1906   3.375   3.851   4.102 -0.0735 -1.2611  0.7082
   15MOL0     N 1907   3.342   3.897   3.970 -0.0693 -0.4742  0.4160
   15MOL0     C 1908   3.325   3.800   3.874  1.0109 -1.5033 -0.0971
   15MOL0     C 1909   3.278   3.871   3.760 -0.2748 -0.5198  0.9055
   15MOL0     C 1910   3.228   3.807   3.633 -0.2973  0.2788  0.6630
   15MOL0     C 1911   3.105   3.712   3.655  0.1435  0.0477 -0.2995
   15MOL0     C 1912   2.979   3.784   3.707 -0.4831 -0.2143  0.2106
   15MOL0     C 1913   2.870   3.696   3.772 -0.6984 -0.6067  0.3239
   15MOL0     O 1914   2.798   3.614   3.675  0.0575 -0.8725  0.0726
   15MOL0     C 1915   2.677   3.661   3.627  0.7251  0.2989 -0.3673
   15MOL0     C 1916   2.608   3.566   3.551  0.1306  0.4328 -0.2596
   15MOL0     C 1917   2.481   3.591   3.492  0.0847 -0.2399  0.5996
   15MOL0     C 1918   2.405   3.477   3.425 -0.5258  0.5830 -0.0767
   15MOL0     C 1919   2.426   3.718   3.509 -0.0184 -0.0223 -0.3155
   15MOL0     C 1920   2.293   3.753   3.454  0.1816 -0.0563  0.3818
   15MOL0     O 1921   2.284   3.723   3.317 -0.7134  0.1141 -0.6393
   15MOL0     C 1922   2.164   3.731   3.267  0.2120  0.1914  0.4754
   15MOL0     C 1923   2.078   3.840   3.278 -0.4651  0.8729 -0.0971
   15MOL0     C 1924   1.956   3.833   3.215  0.1841 -0.1401 -0.3950
   15MOL0     C 1925   1.908   3.718   3.146  0.1636 -0.7249 -0.2684
   15MOL0     O 1926   1.782   3.720   3.095  0.0026  0.3507  0.2229
   15MOL0     C 1927   1.681   3.802   3.157 -0.3286  0.5550  0.2274
   15MOL0     C 1928   1.548   3.748   3.113  0.0597  0.2881  0.3686
   15MOL0     C 1929   1.511   3.607   3.151 -0.8411 -0.5513 -0.9725
   15MOL0     C 1930   1.499   3.581   3.311 -0.1608  0.3627  0.9821
   15MOL0     C 1931   1.421   3.451   3.336  0.0876  0.7899 -0.7703
   15MOL0     C 1932   1.429   3.418   3.491  0.3539  0.8730  0.4195
   15MOL0     C 1933   1.349   3.294   3.530 -0.1641 -0.6024  0.1118
   15MOL0     C 1934   1.440   3.170   3.535  0.4488 -1.1609 -0.9897
   15MOL0    Cl 1935   1.589   3.183   3.652  0.3246 -0.5280 -0.3916
   15MOL0     C 1936   1.992   3.607   3.141  0.5280 -0.1272  0.1594
   15MOL0     C 1937   2.120   3.611   3.198 -0.3053 -1.1287 -1.4012
   15MOL0     O 1938   2.210   3.813   3.522 -0.0324  0.4993 -0.2529
   15MOL0     C 1939   2.493   3.816   3.586 -0.4452  0.3048 -0.8088
   15MOL0     C 1940   2.624   3.786   3.635 -0.2585  0.0011 -0.0927
   15MOL0     N 1941   3.263   4.005   3.801 -0.1596 -0.6084  0.7067
   15MOL0     N 1942   3.293   4.011   3.927 -0.8261 -0.9447  0.4784
   15MOL0     C 1943   4.378   3.642   4.250 -0.0728  0.8198  0.1920
   15MOL0     C 1944   4.509   3.580   4.258  0.4568  0.4383  0.2558
   15MOL0     C 1945   4.986   3.605   4.179 -1.3090 -0.6164  1.0301
   15MOL0     C 1946   5.034   3.515   4.281  0.5780 -0.2355 -0.2368
   15MOL0     C 1947   5.168   3.485   4.300  0.1882 -0.8601  0.4756
   15MOL0     C 1948   5.254   3.546   4.217 -0.7152 -0.2803 -0.1216
   15MOL0     O 1949   5.377   3.511   4.259 -0.4579 -0.3877  0.1089
   15MOL0     C 1950   5.487   3.521   4.159 -0.0425 -0.5154 -0.2529
   15MOL0     C 1951   5.609   3.436   4.213  0.2647 -0.6162 -0.5100
   15MOL0     C 1952   5.748   3.488   4.151  0.5165  0.6462  0.4072
   15MOL0     C 1953   5.760   3.528   4.004  1.0128 -0.5666  0.2174
   15MOL0     C 1954   5.897   3.530   3.955  0.2235 -0.4281 -0.1040
   15MOL0     C 1955   6.013   3.520   3.923 -1.1589  0.1008  0.4713
   15MOL0     C 1956   5.222   3.642   4.124 -0.0122  0.0903  0.2597
   15MOL0     C 1957   5.085   3.665   4.101  0.4443 -0.7382  0.2202
   15MOL0     H 1958   4.701   3.863   4.253  1.2175 -0.7079  1.3691
   15MOL0     H 1959   4.474   3.969   4.233  0.3156  0.1594 -1.1161
   15MOL0     H 1960   4.279   4.015   4.328 -1.6107 -0.4955  1.8373
   15MOL0     H 1961   4.230   4.016   4.156  1.1624 -0.2034  1.0817
   15MOL0     H 1962   4.021   3.898   4.357 -1.5499  0.9972 -0.0806
   15MOL0     H 1963   4.059   4.070   4.374  2.3710 -1.8064  1.1094
   15MOL0     H 1964   3.982   4.110   4.140  0.1385  1.3202  3.8541
   15MOL0     H 1965   3.983   3.938   4.096  2.1067 -0.8191  1.5206
   15MOL0     H 1966   3.780   3.906   4.247  0.6396  0.0206  0.5304
   15MOL0     H 1967   3.796   4.069   4.298 -1.0472 -1.1251  0.5632
   15MOL0     H 1968   3.738   4.151   4.052 -1.7072 -0.7687 -2.7379
   15MOL0     H 1969   3.757   3.986   4.008 -0.2659 -2.4451  2.3913
   15MOL0     H 1970   3.547   4.092   4.189  3.5985  2.8217 -0.8413
   15MOL0     H 1971   3.530   4.075   4.023 -1.0629 -1.1545  0.5696
   15MOL0     H 1972   3.579   3.834   4.014  1.6919 -2.5238  1.6758
   15MOL0     H 1973   3.577   3.827   4.196 -0.5927  0.8669  0.4408
   15MOL0     H 1974   3.332   3.929   4.166  0.5443 -0.2995 -0.0045
   15MOL0     H 1975   3.339   3.750   4.121 -2.1170 -0.9508 -1.0931
   15MOL0     H 1976   3.341   3.692   3.877  1.7839 -1.5549 -3.1326
   15MOL0     H 1977   3.215   3.887   3.559  3.2914  1.2826  0.8971
   15MOL0     H 1978   3.310   3.742   3.600  2.4272  3.9446 -0.4400
   15MOL0     H 1979   3.128   3.647   3.740 -0.2034 -2.3624 -1.9503
   15MOL0     H 1980   3.088   3.665   3.558  3.1674 -1.1547 -0.3608
   15MOL0     H 1981   2.932   3.836   3.624  1.5060  0.3687 -0.5938
   15MOL0     H 1982   3.023   3.853   3.780 -1.0841 -0.6873  1.0440
   15MOL0     H 1983   2.807   3.759   3.835 -1.4017  1.9593 -2.6963
   15MOL0     H 1984   2.913   3.634   3.851 -0.4754  2.1179  2.4782
   15MOL0     H 1985   2.651   3.466   3.544  1.3488  1.0469 -2.9834
   15MOL0     H 1986   2.405   3.492   3.316 -0.8762 -0.3653 -0.2107
   15MOL0     H 1987   2.455   3.386   3.457  0.0276  1.2376  0.9724
   15MOL0     H 1988   2.300   3.479   3.453 -0.4186  1.6670  0.3219
   15MOL0     H 1989   2.111   3.938   3.312 -0.8519  2.0461 -2.8517
   15MOL0     H 1990   1.888   3.916   3.223 -2.0400 -1.8557 -0.5593
   15MOL0     H 1991   1.688   3.785   3.265  1.7568  0.8639  0.1933
   15MOL0     H 1992   1.693   3.910   3.139  1.6077  0.5276  1.0313
   15MOL0     H 1993   1.471   3.818   3.146  0.2427  0.3319  0.7050
   15MOL0     H 1994   1.546   3.750   3.004 -2.3477 -1.9356  0.2710
   15MOL0     H 1995   1.577   3.531   3.109 -0.6612 -0.7919 -0.2555
   15MOL0     H 1996   1.412   3.589   3.108 -3.2426  1.4657  3.0692
   15MOL0     H 1997   1.599   3.580   3.356  1.1104 -0.5433 -1.6527
   15MOL0     H 1998   1.447   3.669   3.351  2.2725  2.7127 -0.7033
   15MOL0     H 1999   1.458   3.362   3.283  0.4539 -0.2930  1.1895
   15MOL0     H 2000   1.316   3.456   3.306 -0.6829 -2.6955  0.8588
   15MOL0     H 2001   1.535   3.408   3.518  0.7512 -0.7683 -1.4528
   15MOL0     H 2002   1.391   3.510   3.537 -0.1950  1.7033 -1.5813
   15MOL0     H 2003   1.262   3.266   3.470  1.1019 -1.4955 -1.3698
   15MOL0     H 2004   1.321   3.306   3.635  1.8075 -4.6512  1.2860
   15MOL0     H 2005   1.487   3.146   3.439 -0.1921  1.2743 -1.9747
   15MOL0     H 2006   1.376   3.093   3.579 -2.3187  2.1747  1.3596
   15MOL0     H 2007   1.965   3.525   3.076  1.0395  0.8641 -1.3473
   15MOL0     H 2008   2.188   3.526   3.201 -0.4450 -1.2153 -0.1431
   15MOL0     H 2009   2.438   3.909   3.601 -0.3336  0.1832  0.4732
   15MOL0     H 2010   2.669   3.876   3.676 -1.5974  0.3149  0.7536
   15MOL0     H 2011   4.290   3.578   4.252  0.1301  0.5596  1.4118
   15MOL0     H 2012   4.506   3.472   4.265  1.1002  0.4167  0.2382
   15MOL0     H 2013   4.962   3.461   4.343  2.2180 -1.8785  0.3265
   15MOL0     H 2014   5.208   3.416   4.373 -0.5348 -2.4476 -0.5630
   15MOL0     H 2015   5.456   3.490   4.059 -0.0211 -0.2799 -0.3329
   15MOL0     H 2016   5.511   3.627   4.154  0.1576 -0.4186  1.8730
   15MOL0     H 2017   5.602   3.328   4.192  1.0623 -1.0175  1.1394
   15MOL0     H 2018   5.621   3.450   4.320  0.9782 -0.6992 -0.5721
   15MOL0     H 2019   5.813   3.402   4.165  1.0244  1.1166  0.9670
   15MOL0     H 2020   5.790   3.567   4.212  0.8109  1.5822 -0.9552
   15MOL0     H 2021   5.716   3.628   3.990  1.3667 -0.6067 -1.3773
   15MOL0     H 2022   5.690   3.471   3.941  0.5658  1.4367 -1.2090
   15MOL0     H 2023   6.113   3.509   3.888 -1.4902  2.2859 -1.4725
   15MOL0     H 2024   5.302   3.693   4.070  2.3567 -1.4163  2.1494
   15MOL0     H 2025   5.054   3.743   4.034 -1.6032 -1.7387 -0.0677
   16MOL0     O 2026   8.099   0.480   5.268 -0.2996 -0.3809  0.2470
   16MOL0     C 2027   8.188   0.566   5.293  0.6390 -0.5652  0.3457
   16MOL0     O 2028   8.167   0.685   5.351  0.5988 -0.6154 -1.1519
   16MOL0     C 2029   8.039   0.733   5.389  0.1507  1.3262 -0.7759
   16MOL0     C 2030   8.042   0.870   5.421  0.8028 -0.6194 -0.4065
   16MOL0     C 2031   7.925   0.940   5.450 -0.6137  0.5616 -0.1166
   16MOL0     C 2032   7.802   0.872   5.456  0.0051 -0.4736 -0.5363
   16MOL0     O 2033   7.685   0.952   5.485  0.3820  0.4122  0.2395
   16MOL0     C 2034   7.559   0.891   5.480  0.1059  0.5574  0.1878
   16MOL0     C 2035   7.452   0.990   5.521 -0.6279  0.5469  0.2097
   16MOL0     C 2036   7.307   0.928   5.520  0.1837 -0.7063 -0.8362
   16MOL0     C 2037   7.200   1.035   5.528  0.9117 -0.2083 -0.5594
   16MOL0     C 2038   7.054   0.972   5.565  0.4996 -0.3131  0.0223
   16MOL0     C 2039   7.004   0.869   5.450  0.4270  0.0538 -0.4105
   16MOL0     C 2040   6.861   0.831   5.479 -0.4296 -0.2720  0.4083
   16MOL0     C 2041   6.815   0.727   5.372 -0.7866 -0.2896 -0.8601
   16MOL0     N 2042   6.683   0.676   5.401 -0.4906  0.1007 -0.2908
   16MOL0     C 2043   6.562   0.736   5.390 -0.3598  0.1630  0.1089
   16MOL0     C 2044   6.473   0.640   5.426 -0.5702 -0.4574 -0.4802
   16MOL0     C 2045   6.322   0.649   5.435 -0.1810  0.1307  0.1825
   16MOL0     C 2046   6.271   0.535   5.348  0.6265  0.0558 -0.8867
   16MOL0     C 2047   6.116   0.555   5.312 -0.6579  0.4207  0.0582
   16MOL0     C 2048   6.016   0.496   5.420 -1.0122  0.0315 -0.0438
   16MOL0     O 2049   6.059   0.533   5.555 -0.0186  1.1285  0.2566
   16MOL0     C 2050   6.024   0.442   5.658  0.7129 -0.2245  0.4842
   16MOL0     C 2051   6.122   0.397   5.746  0.7427  0.1845  0.1248
   16MOL0     C 2052   6.090   0.319   5.864  1.1800 -0.4967  0.4721
   16MOL0     C 2053   6.206   0.297   5.963  0.2638 -0.4924  0.0310
   16MOL0     C 2054   5.962   0.272   5.880 -0.1949  0.0326 -0.7427
   16MOL0     C 2055   5.916   0.171   5.982  0.4408 -0.0797 -1.3159
   16MOL0     O 2056   5.780   0.150   6.000  0.3396 -0.0505 -0.7559
   16MOL0     C 2057   5.742   0.026   6.045 -0.0932 -0.7798 -0.6797
   16MOL0     C 2058   5.612   0.022   6.089  0.8542 -0.5867  0.3379
   16MOL0     C 2059   5.546  -0.094   6.141 -0.2834 -0.2363  0.2854
   16MOL0     C 2060   5.624  -0.211   6.145  0.4125 -0.6808  0.4860
   16MOL0     O 2061   5.586  -0.341   6.188  0.3226  0.0888 -0.1527
   16MOL0     C 2062   5.452  -0.373   6.223 -0.8993 -0.6747 -0.3150
   16MOL0     C 2063   5.456  -0.387   6.380  0.0960  0.1024 -0.0853
   16MOL0     C 2064   5.308  -0.400   6.435 -0.3936 -0.5432 -0.1598
   16MOL0     C 2065   5.242  -0.527   6.387 -1.0384 -0.4642  0.2192
   16MOL0     C 2066   5.103  -0.564   6.451 -0.7569 -0.0594  1.5008
   16MOL0     C 2067   5.010  -0.441   6.448 -0.8387  0.3048 -0.3754
   16MOL0     C 2068   4.868  -0.491   6.477  0.0791 -0.3334  0.3582
   16MOL0     C 2069   4.777  -0.376   6.526 -0.9157 -0.5644 -0.4028
   16MOL0    Cl 2070   4.836  -0.311   6.679  0.0099  0.0206 -0.2398
   16MOL0     C 2071   5.758  -0.213   6.089 -0.6395  0.2948 -0.5082
   16MOL0     C 2072   5.817  -0.096   6.042 -0.4340 -0.1302  0.2810
   16MOL0     O 2073   6.005   0.113   6.045 -0.6592 -0.1171 -0.3924
   16MOL0     C 2074   5.865   0.316   5.792 -0.1580 -0.5108  0.2813
   16MOL0     C 2075   5.898   0.395   5.689  0.3367 -0.8345  0.0177
   16MOL0     N 2076   6.547   0.525   5.456  0.1296  0.2600 -0.0112
   16MOL0     N 2077   6.672   0.543   5.437 -0.0368 -0.1673 -0.1798
   16MOL0     C 2078   7.797   0.735   5.421  0.3850  0.4556 -0.1727
   16MOL0     C 2079   7.914   0.662   5.388 -0.0453 -0.2911  0.2220
   16MOL0     C 2080   8.329   0.541   5.249  0.1605  0.3890  0.3355
   16MOL0     C 2081   8.357   0.425   5.167  0.1549 -0.3393  0.0683
   16MOL0     C 2082   8.489   0.396   5.113 -0.3594 -0.6426  0.1251
   16MOL0     C 2083   8.595   0.478   5.146 -0.2543 -0.1135 -0.0447
   16MOL0     O 2084   8.723   0.464   5.092  0.0371  0.0578 -0.2491
   16MOL0     C 2085   8.742   0.513   4.955  0.1848 -0.1576 -0.1390
   16MOL0     C 2086   8.881   0.482   4.911  0.1007  0.3865 -0.3277
   16MOL0     C 2087   8.934   0.584   4.809 -0.3537 -0.1255  0.2384
   16MOL0     C 2088   9.070   0.521   4.761 -0.2844  0.2244 -0.1180
   16MOL0     C 2089   9.147   0.614   4.672 -0.1905  0.3867 -1.0459
   16MOL0     C 2090   9.207   0.687   4.598  0.1584  0.2606 -0.2027
   16MOL0     C 2091   8.569   0.589   5.237  0.6477 -0.2187  0.8204
   16MOL0     C 2092   8.441   0.616   5.285 -0.5331 -0.2969  0.8180
   16MOL0     H 2093   8.135   0.924   5.414  0.8965 -0.8479 -0.9651
   16MOL0     H 2094   7.907   1.047   5.457 -3.5737  0.0691  1.0397
   16MOL0     H 2095   7.539   0.849   5.381 -0.6224 -3.9297  2.0064
   16MOL0     H 2096   7.556   0.803   5.545 -1.3215  2.5092  2.9541
   16MOL0     H 2097   7.486   1.027   5.618  1.3729  0.0284 -0.2552
   16MOL0     H 2098   7.457   1.075   5.453 -1.6813 -0.0599 -0.6518
   16MOL0     H 2099   7.287   0.857   5.439 -0.7274 -0.6496 -0.6628
   16MOL0     H 2100   7.297   0.876   5.615  3.1891  0.8773  0.5061
   16MOL0     H 2101   7.229   1.108   5.604 -0.0053 -0.4744  0.0689
   16MOL0     H 2102   7.199   1.091   5.435 -0.3128  1.6793  0.5187
   16MOL0     H 2103   7.059   0.932   5.667  1.2843  1.1580  0.5831
   16MOL0     H 2104   6.979   1.051   5.563 -1.3787 -1.8377  2.8028
   16MOL0     H 2105   7.006   0.917   5.352  4.0232  1.2134  0.1066
   16MOL0     H 2106   7.060   0.775   5.456 -1.7847 -1.2609  1.4198
   16MOL0     H 2107   6.852   0.794   5.582 -0.7237 -1.7198 -0.1272
   16MOL0     H 2108   6.801   0.921   5.464  1.6523  1.5766  2.3358
   16MOL0     H 2109   6.882   0.641   5.383  0.6051  0.3812 -3.3484
   16MOL0     H 2110   6.830   0.764   5.271 -1.0784  0.7458 -0.5330
   16MOL0     H 2111   6.534   0.833   5.348 -0.8939 -0.6381 -1.4713
   16MOL0     H 2112   6.296   0.634   5.540  0.4250  1.4429  0.5396
   16MOL0     H 2113   6.288   0.749   5.407 -2.6729  0.0422  2.4802
   16MOL0     H 2114   6.282   0.440   5.401 -2.8341  0.3726  0.6974
   16MOL0     H 2115   6.339   0.530   5.263  1.8699  1.1162 -0.0102
   16MOL0     H 2116   6.095   0.497   5.222  1.2992 -0.1852 -0.0401
   16MOL0     H 2117   6.084   0.659   5.300 -2.3384  0.3078  2.6550
   16MOL0     H 2118   6.011   0.391   5.390  1.4010 -0.1363 -0.0078
   16MOL0     H 2119   5.919   0.545   5.409 -0.7927  0.7316  1.0700
   16MOL0     H 2120   6.221   0.421   5.708  0.3248 -0.3590 -1.3560
   16MOL0     H 2121   6.208   0.192   5.993 -2.1774  0.2334  3.2976
   16MOL0     H 2122   6.302   0.325   5.918  0.4094 -0.5190  0.3203
   16MOL0     H 2123   6.198   0.360   6.052 -0.9399  0.1936 -0.5455
   16MOL0     H 2124   5.574   0.123   6.095  2.2131 -0.1021  1.0143
   16MOL0     H 2125   5.446  -0.088   6.183 -0.2331  0.3515  0.3232
   16MOL0     H 2126   5.384  -0.290   6.200  1.0768  0.0793 -4.3439
   16MOL0     H 2127   5.430  -0.467   6.172 -0.1614 -1.4870  0.8142
   16MOL0     H 2128   5.515  -0.477   6.399  1.2604  0.6828 -0.8041
   16MOL0     H 2129   5.501  -0.300   6.429 -1.3817  2.1769 -2.1659
   16MOL0     H 2130   5.246  -0.312   6.418 -0.7461 -0.9307 -0.9438
   16MOL0     H 2131   5.315  -0.404   6.545 -1.0982 -0.8465 -0.1191
   16MOL0     H 2132   5.231  -0.507   6.279 -1.2176  1.0152  0.4842
   16MOL0     H 2133   5.307  -0.614   6.396 -3.1906 -2.0038  1.6401
   16MOL0     H 2134   5.126  -0.597   6.553 -0.6127  0.9163  1.7968
   16MOL0     H 2135   5.062  -0.651   6.400  2.7873 -1.3637  0.6000
   16MOL0     H 2136   5.049  -0.382   6.531 -1.4010 -0.5160  0.5035
   16MOL0     H 2137   5.011  -0.391   6.350  1.4581  0.2508 -0.4306
   16MOL0     H 2138   4.879  -0.564   6.558 -1.2056 -0.5121  0.3817
   16MOL0     H 2139   4.824  -0.540   6.390  0.5070 -0.5155  0.2424
   16MOL0     H 2140   4.671  -0.404   6.534 -0.8025 -0.8374  0.1517
   16MOL0     H 2141   4.774  -0.297   6.450 -2.4622 -2.0725 -2.0248
   16MOL0     H 2142   5.805  -0.311   6.089  2.3571  1.5983  0.5191
   16MOL0     H 2143   5.911  -0.097   5.989  0.4445  3.5029  1.5201
   16MOL0     H 2144   5.764   0.276   5.791  0.2265 -1.4998 -0.5906
   16MOL0     H 2145   5.810   0.426   5.633 -0.0658  0.7415  1.4425
   16MOL0     H 2146   7.707   0.675   5.426  1.5806 -1.7358 -2.5595
   16MOL0     H 2147   7.909   0.554   5.371  0.3512 -0.5720  1.7395
   16MOL0     H 2148   8.277   0.352   5.158 -0.1994  0.0276  0.1897
   16MOL0     H 2149   8.513   0.311   5.050  0.4945 -0.8313  0.6748
   16MOL0     H 2150   8.665   0.467   4.892 -1.2990  3.0269 -0.8463
   16MOL0     H 2151   8.722   0.620   4.942  1.0745  0.0760  0.3666
   16MOL0     H 2152   8.885   0.386   4.859  1.3420 -1.1441  2.4112
   16MOL0     H 2153   8.945   0.469   4.999  0.8230  1.0500 -0.7411
   16MOL0     H 2154   8.961   0.680   4.853  2.7189 -0.3493 -0.9139
   16MOL0     H 2155   8.868   0.606   4.724  0.2059  0.6898  0.0053
   16MOL0     H 2156   9.039   0.438   4.697  1.1885  2.4857 -4.1783
   16MOL0     H 2157   9.136   0.482   4.839  0.4385  0.4997 -0.5874
   16MOL0     H 2158   9.264   0.750   4.534 -1.2299  1.2631 -0.5162
   16MOL0     H 2159   8.640   0.662   5.274  1.8258 -1.1303  0.4490
   16MOL0     H 2160   8.428   0.704   5.347  0.0701  0.7074 -0.4268
   17MOL0     O 2161   6.239  10.625   6.174  0.0981 -0.4137  0.3946
   17MOL0     C 2162   6.229  10.726   6.246 -0.3048 -0.0161  0.1428
   17MOL0     O 2163   6.110  10.771   6.297 -0.4111 -1.2877  0.0662
   17MOL0     C 2164   5.996  10.699   6.283 -0.5115 -0.2560 -0.5890
   17MOL0     C 2165   5.875  10.761   6.255  0.1282 -0.0245  0.0307
   17MOL0     C 2166   5.766  10.674   6.226 -0.4793  0.3323 -0.0216
   17MOL0     C 2167   5.763  10.539   6.257 -0.7771  0.4397  0.2389
   17MOL0     O 2168   5.659  10.459   6.242  0.3510 -0.5042  0.0400
   17MOL0     C 2169   5.551  10.490   6.340 -0.5843 -0.6183 -0.0176
   17MOL0     C 2170   5.438  10.386   6.342  0.2076  0.1526 -0.0608
   17MOL0     C 2171   5.364  10.376   6.204  0.0769 -0.3254 -0.5814
   17MOL0     C 2172   5.271  10.265   6.196  0.3700  0.5722 -0.5099
   17MOL0     C 2173   5.153  10.279   6.307  0.4821 -0.3778  0.0590
   17MOL0     C 2174   5.061  10.387   6.259 -0.2969 -0.0938 -0.5775
   17MOL0     C 2175   4.952  10.413   6.359  0.4309 -0.1788 -0.1099
   17MOL0     C 2176   4.851  10.296   6.356  0.8421 -0.7678  1.3134
   17MOL0     N 2177   4.720  10.349   6.396 -0.1715  0.4774  0.5778
   17MOL0     C 2178   4.681  10.361   6.529 -1.1278  1.1714 -0.0896
   17MOL0     C 2179   4.556  10.400   6.519  0.7832 -0.5023  0.6233
   17MOL0     C 2180   4.452  10.449   6.617  0.2186  1.3246  0.3452
   17MOL0     C 2181   4.430  10.596   6.622 -0.5760 -0.5244  0.5434
   17MOL0     C 2182   4.350  10.636   6.739  0.6040  0.3488  0.0819
   17MOL0     C 2183   4.200  10.639   6.703 -0.2860 -1.2019 -0.2292
   17MOL0     O 2184   4.143  10.693   6.820  0.2069  0.0616 -0.0193
   17MOL0     C 2185   4.012  10.667   6.838  0.3922 -0.2184  0.5367
   17MOL0     C 2186   3.954  10.736   6.943  1.0072 -0.3242 -0.1491
   17MOL0     C 2187   3.823  10.729   6.977  0.9155  0.2214  0.4920
   17MOL0     C 2188   3.783  10.822   7.085  0.0668 -0.1847 -0.1245
   17MOL0     C 2189   3.736  10.652   6.898  0.3451  0.5901  0.5133
   17MOL0     C 2190   3.589  10.644   6.927 -0.7294  0.9203  0.3950
   17MOL0     O 2191   3.557  10.667   7.060 -0.7239 -0.8273 -0.0377
   17MOL0     C 2192   3.428  10.657   7.093 -0.2866 -0.9118  0.0403
   17MOL0     C 2193   3.360  10.542   7.123  0.3128  0.4308  0.1433
   17MOL0     C 2194   3.218  10.548   7.148  0.6788 -0.5213 -0.8056
   17MOL0     C 2195   3.144  10.662   7.137  0.1870 -0.1371  0.8842
   17MOL0     O 2196   3.011  10.650   7.162  0.4663 -0.3941  0.1736
   17MOL0     C 2197   2.924  10.687   7.055  0.4354  0.1570  0.3411
   17MOL0     C 2198   2.777  10.629   7.068 -1.1945 -0.3949 -0.6253
   17MOL0     C 2199   2.673  10.711   6.998 -0.0544  0.1283 -1.0817
   17MOL0     C 2200   2.541  10.673   7.061 -0.3032 -0.0218  0.0439
   17MOL0     C 2201   2.434  10.688   6.954  0.3636  0.3929 -1.4937
   17MOL0     C 2202   2.303  10.681   7.030  0.1132  0.5016  0.0928
   17MOL0     C 2203   2.179  10.716   6.938 -0.1207  0.4710 -0.2184
   17MOL0     C 2204   2.086  10.807   7.024  0.5829  0.7456 -1.0406
   17MOL0    Cl 2205   1.929  10.817   6.938 -0.4928 -0.1014  0.1098
   17MOL0     C 2206   3.210  10.773   7.100 -0.3186 -0.0074 -0.2808
   17MOL0     C 2207   3.345  10.772   7.073 -0.7754  0.3313  0.3561
   17MOL0     O 2208   3.515  10.620   6.834  0.7756 -0.3589 -0.0149
   17MOL0     C 2209   3.788  10.575   6.791 -0.9740 -0.1688  0.0104
   17MOL0     C 2210   3.927  10.586   6.760  0.0605  0.9556 -0.1536
   17MOL0     N 2211   4.529  10.436   6.388  0.0196 -0.3084  0.1845
   17MOL0     N 2212   4.629  10.397   6.317  0.0778 -0.3891  0.2291
   17MOL0     C 2213   5.885  10.492   6.303 -0.1076  0.2879 -0.5180
   17MOL0     C 2214   6.001  10.568   6.317  0.0098 -0.6578  0.1028
   17MOL0     C 2215   6.348  10.800   6.283 -0.1590 -1.0385  0.1362
   17MOL0     C 2216   6.483  10.751   6.268  0.5717 -0.0137  0.2768
   17MOL0     C 2217   6.598  10.825   6.304  0.8750  0.0585 -1.0987
   17MOL0     C 2218   6.579  10.957   6.347 -0.3535 -0.3612 -0.4865
   17MOL0     O 2219   6.701  11.023   6.363  0.3625  0.5412  0.0116
   17MOL0     C 2220   6.699  11.163   6.385  0.1577 -0.3625 -0.0156
   17MOL0     C 2221   6.840  11.204   6.445  0.8962  0.6910  0.4699
   17MOL0     C 2222   6.953  11.225   6.342  0.0192  0.7573  0.8738
   17MOL0     C 2223   6.901  11.335   6.237 -0.8908  0.8185 -0.7683
   17MOL0     C 2224   6.852  11.286   6.119  0.2561  0.9548  0.0579
   17MOL0     C 2225   6.824  11.245   6.007  0.5424  0.1785 -0.7713
   17MOL0     C 2226   6.449  11.017   6.343  0.6009 -0.1511 -0.2565
   17MOL0     C 2227   6.332  10.932   6.320 -0.6503 -0.5478 -0.5022
   17MOL0     H 2228   5.869  10.867   6.231 -0.2894  0.1574  0.8952
   17MOL0     H 2229   5.680  10.723   6.183 -1.4793 -1.8001 -0.5991
   17MOL0     H 2230   5.589  10.477   6.442 -2.3972  0.8573  0.9160
   17MOL0     H 2231   5.517  10.594   6.328  2.1219  0.2729 -0.9227
   17MOL0     H 2232   5.480  10.291   6.375 -1.4466 -0.4498  0.4572
   17MOL0     H 2233   5.374  10.415   6.427  3.1577  0.4252  2.2141
   17MOL0     H 2234   5.312  10.468   6.176  0.2211  0.6578  2.0767
   17MOL0     H 2235   5.440  10.374   6.125 -1.1817  0.9612 -1.9072
   17MOL0     H 2236   5.233  10.262   6.093 -0.1776  1.7895 -0.3570
   17MOL0     H 2237   5.318  10.169   6.220 -4.5174 -1.1132  4.5804
   17MOL0     H 2238   5.111  10.178   6.298  3.5754 -1.8200  0.2513
   17MOL0     H 2239   5.196  10.286   6.408  0.6237  3.6059 -0.1259
   17MOL0     H 2240   5.121  10.478   6.249  0.4171 -0.7295 -2.5801
   17MOL0     H 2241   5.027  10.370   6.156  0.6115 -0.0416 -0.8981
   17MOL0     H 2242   4.982  10.421   6.464 -3.2632  1.0100  1.0282
   17MOL0     H 2243   4.898  10.504   6.331  0.3310  0.0043  0.6548
   17MOL0     H 2244   4.882  10.218   6.425 -2.8664 -1.5005  2.3529
   17MOL0     H 2245   4.854  10.260   6.253  1.2694  0.7868  0.7485
   17MOL0     H 2246   4.752  10.331   6.604  0.8896 -1.0203 -2.6659
   17MOL0     H 2247   4.361  10.398   6.585  2.1944 -1.3191 -1.5158
   17MOL0     H 2248   4.480  10.425   6.720  2.9946  1.4096 -0.3015
   17MOL0     H 2249   4.374  10.617   6.530 -1.6032  0.2200  1.3173
   17MOL0     H 2250   4.525  10.649   6.636 -0.8085 -0.8179  4.1445
   17MOL0     H 2251   4.385  10.737   6.763 -0.9949  0.6357  1.3954
   17MOL0     H 2252   4.361  10.580   6.833 -0.4998  0.5934  0.3734
   17MOL0     H 2253   4.166  10.537   6.682 -3.6322 -0.5647  1.4102
   17MOL0     H 2254   4.187  10.704   6.615  2.1286  2.9759  2.1728
   17MOL0     H 2255   4.024  10.804   6.991  0.2776  1.0107 -0.9365
   17MOL0     H 2256   3.708  10.893   7.048  0.5570 -0.3239 -1.4220
   17MOL0     H 2257   3.747  10.768   7.173 -1.6200  0.8455 -0.1359
   17MOL0     H 2258   3.871  10.878   7.118  1.0336 -0.8483 -1.4990
   17MOL0     H 2259   3.414  10.448   7.130 -1.1484 -0.3118  2.4636
   17MOL0     H 2260   3.164  10.457   7.171  0.3712 -0.2988 -0.6308
   17MOL0     H 2261   2.920  10.795   7.044  0.3569  0.0552 -0.8044
   17MOL0     H 2262   2.963  10.658   6.956  0.3316  1.5866 -0.1429
   17MOL0     H 2263   2.775  10.524   7.038  1.0455 -0.1217 -1.9193
   17MOL0     H 2264   2.756  10.617   7.175  0.0327  1.0398 -0.1840
   17MOL0     H 2265   2.676  10.680   6.894 -2.1817 -1.3801 -0.7539
   17MOL0     H 2266   2.671  10.820   7.013 -1.7077  0.0557 -0.5825
   17MOL0     H 2267   2.533  10.565   7.079 -1.9638  0.1983  0.8200
   17MOL0     H 2268   2.525  10.729   7.154 -0.8011 -1.9354  1.1688
   17MOL0     H 2269   2.444  10.625   6.865 -2.1827 -0.0039 -1.5617
   17MOL0     H 2270   2.455  10.789   6.917 -0.4342  1.7372  1.4796
   17MOL0     H 2271   2.305  10.574   7.056 -0.1030  0.1345 -1.3070
   17MOL0     H 2272   2.307  10.745   7.118 -2.4510 -0.3258  0.9000
   17MOL0     H 2273   2.129  10.622   6.914 -1.3444  1.4734 -1.7800
   17MOL0     H 2274   2.212  10.773   6.850  2.6626 -0.7038 -0.0554
   17MOL0     H 2275   2.129  10.908   7.028  2.3565 -0.0172  1.3510
   17MOL0     H 2276   2.088  10.768   7.126 -1.3040 -2.0853 -1.9775
   17MOL0     H 2277   3.159  10.868   7.088  2.9927  1.9965  0.1922
   17MOL0     H 2278   3.400  10.859   7.041  0.9942 -0.8114  0.1769
   17MOL0     H 2279   3.730  10.503   6.736 -1.1178 -2.4450  2.8949
   17MOL0     H 2280   3.969  10.522   6.682 -0.3786 -1.3433  1.3878
   17MOL0     H 2281   5.883  10.386   6.325 -1.3165  0.1953 -0.9701
   17MOL0     H 2282   6.090  10.514   6.350  0.4851 -1.8888 -2.8820
   17MOL0     H 2283   6.500  10.652   6.226 -1.0761 -0.9230  1.6756
   17MOL0     H 2284   6.702  10.795   6.298  1.8381  2.3461  1.9030
   17MOL0     H 2285   6.670  11.203   6.287  1.8279 -0.0189 -0.4084
   17MOL0     H 2286   6.621  11.185   6.458 -1.4680 -0.8199 -1.5149
   17MOL0     H 2287   6.872  11.119   6.507  0.3128  0.4047  0.3881
   17MOL0     H 2288   6.826  11.285   6.517  0.6445  0.9839  0.0944
   17MOL0     H 2289   6.982  11.134   6.291 -0.2632  1.4495 -0.5664
   17MOL0     H 2290   7.037  11.273   6.393  0.5658  2.9510 -1.8447
   17MOL0     H 2291   6.990  11.392   6.207 -1.6607  1.6209 -1.5499
   17MOL0     H 2292   6.839  11.413   6.280  1.0226  2.2439 -0.4511
   17MOL0     H 2293   6.810  11.194   5.914  0.9660 -1.2940 -0.0584
   17MOL0     H 2294   6.445  11.118   6.381  0.1533 -0.3460  0.2270
   17MOL0     H 2295   6.235  10.977   6.341 -0.4178 -0.6768  0.9186
   18MOL0     O 2296   5.985  10.333   5.257  0.0663 -0.2767 -0.4265
   18MOL0     C 2297   6.028  10.221   5.280 -0.2523  0.5827  0.2923
   18MOL0     O 2298   5.956  10.112   5.326 -0.0035 -0.1632  0.0469
   18MOL0     C 2299   5.824  10.137   5.356  0.1715 -0.3384  0.2830
   18MOL0     C 2300   5.786  10.208   5.474 -0.5850  0.1996  0.6263
   18MOL0     C 2301   5.654  10.249   5.494  0.1572  0.5192 -0.3964
   18MOL0     C 2302   5.554  10.202   5.401  0.4725  0.3009 -0.9642
   18MOL0     O 2303   5.421  10.233   5.406  0.4601 -0.4933  0.0886
   18MOL0     C 2304   5.398  10.376   5.422  0.1977 -0.2933 -0.6955
   18MOL0     C 2305   5.257  10.417   5.401  0.2428  0.5589 -0.2627
   18MOL0     C 2306   5.177  10.460   5.527  0.4198  0.5602  0.5726
   18MOL0     C 2307   5.080  10.569   5.500  0.3854  0.2214  0.1266
   18MOL0     C 2308   4.968  10.565   5.605  0.5433  0.5622  0.4046
   18MOL0     C 2309   5.012  10.551   5.759  0.4806  0.1513  0.0941
   18MOL0     C 2310   4.898  10.500   5.852 -0.1459 -0.0938  0.2113
   18MOL0     C 2311   4.889  10.348   5.852 -0.1443 -0.2225 -0.1075
   18MOL0     N 2312   4.763  10.298   5.914 -0.8206  0.3210  0.2977
   18MOL0     C 2313   4.640  10.291   5.849 -0.8292  0.4146 -0.3536
   18MOL0     C 2314   4.555  10.222   5.924 -0.0402 -0.1227  0.1472
   18MOL0     C 2315   4.408  10.197   5.902 -0.3045  1.0906  0.4023
   18MOL0     C 2316   4.330  10.322   5.852  0.6355 -0.0237  0.1634
   18MOL0     C 2317   4.358  10.456   5.925  0.0982 -0.2089  0.3602
   18MOL0     C 2318   4.332  10.456   6.076  0.1296  0.0473  0.2712
   18MOL0     O 2319   4.201  10.418   6.118 -0.2977 -0.4183 -0.5726
   18MOL0     C 2320   4.099  10.500   6.077  0.6623  0.3744 -0.1425
   18MOL0     C 2321   3.986  10.453   6.008  0.5787  0.8635 -0.0036
   18MOL0     C 2322   3.877  10.523   5.977  0.8356 -0.9563 -0.2559
   18MOL0     C 2323   3.760  10.462   5.918  0.6209  0.3243  0.1042
   18MOL0     C 2324   3.886  10.665   6.002  0.0301  0.1086  0.9903
   18MOL0     C 2325   3.775  10.764   5.970 -0.6201  0.6993  0.1444
   18MOL0     O 2326   3.679  10.734   5.876  0.6061 -0.2949 -0.0009
   18MOL0     C 2327   3.578  10.820   5.839 -0.3954 -1.2245 -0.8040
   18MOL0     C 2328   3.468  10.766   5.768 -0.9115 -0.5061  0.4504
   18MOL0     C 2329   3.362  10.843   5.722 -0.5603  0.2739 -0.0215
   18MOL0     C 2330   3.354  10.981   5.749 -0.0835 -0.1548 -0.4495
   18MOL0     O 2331   3.254  11.061   5.706 -0.1984 -0.8928 -0.0433
   18MOL0     C 2332   3.123  10.994   5.699  0.4914  1.0203 -0.6226
   18MOL0     C 2333   2.992  11.077   5.691  1.1187 -0.7106 -0.3589
   18MOL0     C 2334   2.875  10.988   5.716 -0.0316  0.0558 -0.0009
   18MOL0     C 2335   2.745  11.065   5.686  0.5528 -0.5408 -0.7461
   18MOL0     C 2336   2.617  10.986   5.717  0.0510  0.0701 -0.2437
   18MOL0     C 2337   2.488  11.066   5.700 -0.2813  0.9515  0.1401
   18MOL0     C 2338   2.375  10.964   5.716  0.3685 -0.4227 -0.0088
   18MOL0     C 2339   2.242  11.038   5.696  0.6175 -0.1017 -0.4214
   18MOL0    Cl 2340   2.099  10.930   5.723 -0.2108 -0.3259  0.0072
   18MOL0     C 2341   3.460  11.041   5.820  0.3326 -0.4104  0.4750
   18MOL0     C 2342   3.568  10.965   5.863 -0.1186  0.8756 -0.1428
   18MOL0     O 2343   3.782  10.866   6.033 -0.2373  0.9070  0.3508
   18MOL0     C 2344   3.994  10.715   6.073 -0.6276 -0.2289 -0.1015
   18MOL0     C 2345   4.095  10.632   6.112  0.8770  0.3321  0.5054
   18MOL0     N 2346   4.634  10.178   6.036 -0.2570 -0.6162  0.6992
   18MOL0     N 2347   4.752  10.230   6.031  0.8137 -0.8891  0.6839
   18MOL0     C 2348   5.590  10.121   5.294 -0.3258 -0.5789 -0.0219
   18MOL0     C 2349   5.724  10.091   5.267 -0.3492 -0.9662  0.6022
   18MOL0     C 2350   6.162  10.192   5.222 -0.2434 -0.0199  0.4211
   18MOL0     C 2351   6.213  10.054   5.209 -0.4882  0.3919 -0.2230
   18MOL0     C 2352   6.343  10.023   5.158 -0.1449 -0.4397  0.4778
   18MOL0     C 2353   6.428  10.132   5.121 -0.0623  0.2014 -0.0407
   18MOL0     O 2354   6.558  10.113   5.085 -1.0430  0.0755 -0.1475
   18MOL0     C 2355   6.625   9.988   5.111 -0.4546 -0.8966 -0.0013
   18MOL0     C 2356   6.775  10.029   5.142  0.1036  1.3984 -0.1663
   18MOL0     C 2357   6.855  10.070   5.022  0.3287 -0.0547  0.5219
   18MOL0     C 2358   7.008  10.057   5.048  0.3011 -0.0463  0.3567
   18MOL0     C 2359   7.065  10.142   5.151 -0.1341  0.1003  0.1752
   18MOL0     C 2360   7.119  10.208   5.233  0.3274 -0.0015  0.0493
   18MOL0     C 2361   6.382  10.263   5.141  0.2161  0.1641 -0.3392
   18MOL0     C 2362   6.253  10.294   5.182  0.3696 -0.2828  0.3934
   18MOL0     H 2363   5.865  10.227   5.545 -0.2315  1.2238 -0.0309
   18MOL0     H 2364   5.623  10.301   5.584 -0.9801 -0.2892 -0.3072
   18MOL0     H 2365   5.430  10.407   5.522 -0.9077 -3.4849  0.7964
   18MOL0     H 2366   5.462  10.427   5.350  2.2666  0.0148  1.2531
   18MOL0     H 2367   5.261  10.505   5.335 -2.2497 -0.4546 -1.9115
   18MOL0     H 2368   5.200  10.337   5.355  1.4997  0.4874 -1.7633
   18MOL0     H 2369   5.122  10.371   5.558  2.0896 -1.1845 -1.1733
   18MOL0     H 2370   5.246  10.491   5.606 -0.1709 -0.0709  1.3564
   18MOL0     H 2371   5.129  10.664   5.522  0.5375  0.3945 -0.9239
   18MOL0     H 2372   5.050  10.566   5.395 -0.5170 -0.4791  0.3968
   18MOL0     H 2373   4.901  10.652   5.609 -0.9269 -0.4457 -0.8890
   18MOL0     H 2374   4.903  10.481   5.579  0.1054  1.3679 -1.2568
   18MOL0     H 2375   5.099  10.487   5.773 -0.5505 -0.9482  1.8696
   18MOL0     H 2376   5.044  10.653   5.778 -0.5864  0.7089 -0.9032
   18MOL0     H 2377   4.918  10.534   5.954  1.2561 -1.5118  0.4481
   18MOL0     H 2378   4.802  10.549   5.829 -0.7259 -0.8793  0.8871
   18MOL0     H 2379   4.981  10.303   5.890  0.9593  0.0345 -2.2862
   18MOL0     H 2380   4.884  10.318   5.747  0.6260  0.7329 -0.4381
   18MOL0     H 2381   4.616  10.344   5.757 -0.5063  0.2603 -0.5313
   18MOL0     H 2382   4.396  10.113   5.834 -0.6851 -0.3564  2.1720
   18MOL0     H 2383   4.350  10.165   5.989 -2.8745  0.7972 -1.3115
   18MOL0     H 2384   4.223  10.309   5.868  0.7713  0.2386  1.3995
   18MOL0     H 2385   4.349  10.335   5.745 -0.0192  1.4083  0.1942
   18MOL0     H 2386   4.300  10.538   5.881  0.0836 -0.2827  0.2420
   18MOL0     H 2387   4.461  10.475   5.892 -0.0972 -0.3934 -0.3763
   18MOL0     H 2388   4.346  10.560   6.107 -1.6252  0.9093 -1.5909
   18MOL0     H 2389   4.402  10.401   6.139  1.7815  2.7055  0.9009
   18MOL0     H 2390   3.977  10.349   5.980 -2.0472  1.7779 -3.1529
   18MOL0     H 2391   3.763  10.487   5.811  2.3475  0.6207  0.1895
   18MOL0     H 2392   3.768  10.353   5.909 -0.1715  0.3649 -1.5588
   18MOL0     H 2393   3.666  10.493   5.963  1.1764  4.0834 -0.9966
   18MOL0     H 2394   3.467  10.658   5.758 -2.1463 -0.4637 -0.1387
   18MOL0     H 2395   3.284  10.800   5.660  2.1884 -1.4716 -2.5456
   18MOL0     H 2396   3.101  10.923   5.619 -2.6116  0.0185  0.9493
   18MOL0     H 2397   3.125  10.940   5.794  0.2663 -0.1875 -1.2808
   18MOL0     H 2398   2.994  11.160   5.761  0.6650 -1.4884  0.6084
   18MOL0     H 2399   2.974  11.118   5.591 -2.0890  0.2713  0.4915
   18MOL0     H 2400   2.864  10.941   5.815 -0.0011 -0.4407 -0.2306
   18MOL0     H 2401   2.880  10.905   5.645  1.1944 -0.3446  0.5145
   18MOL0     H 2402   2.754  11.147   5.758  0.3446 -0.4778 -0.7923
   18MOL0     H 2403   2.721  11.100   5.586  2.4242  0.1683 -0.9981
   18MOL0     H 2404   2.614  10.939   5.816  0.5703  1.3140  0.3854
   18MOL0     H 2405   2.620  10.913   5.636 -0.3604  0.4410 -0.5936
   18MOL0     H 2406   2.501  11.131   5.787 -0.5909  2.9177 -1.2224
   18MOL0     H 2407   2.479  11.126   5.609 -1.0176  0.3502 -0.2018
   18MOL0     H 2408   2.377  10.915   5.814 -0.6828 -2.3777 -0.9127
   18MOL0     H 2409   2.391  10.881   5.646  0.6710  1.7819 -2.7306
   18MOL0     H 2410   2.235  11.084   5.597 -1.0543  0.0259 -0.2853
   18MOL0     H 2411   2.239  11.125   5.763  0.7182 -0.4317  0.0133
   18MOL0     H 2412   3.447  11.146   5.844 -1.6087 -0.4726 -0.1191
   18MOL0     H 2413   3.652  11.016   5.909  0.5700 -0.1330 -0.2464
   18MOL0     H 2414   4.002  10.819   6.100  2.8003 -0.1061 -1.2338
   18MOL0     H 2415   4.170  10.674   6.179 -0.4464 -1.3866  3.2438
   18MOL0     H 2416   5.517  10.088   5.221 -0.0595 -2.3784  0.4763
   18MOL0     H 2417   5.755  10.038   5.177  2.0664  1.5296 -0.1730
   18MOL0     H 2418   6.150   9.971   5.238  0.3589  0.0356  0.6633
   18MOL0     H 2419   6.356   9.918   5.134 -0.8648 -0.3956 -0.1644
   18MOL0     H 2420   6.580   9.951   5.203 -0.3817 -0.6686  0.1271
   18MOL0     H 2421   6.618   9.930   5.019  0.0040 -2.1157  0.7162
   18MOL0     H 2422   6.830   9.950   5.193 -1.7063  0.3354  0.2414
   18MOL0     H 2423   6.786  10.108   5.217 -1.1144  1.0208  0.4539
   18MOL0     H 2424   6.824  10.174   5.009 -3.2807 -0.2792  5.0380
   18MOL0     H 2425   6.826  10.012   4.933  0.2193 -0.0688  0.5663
   18MOL0     H 2426   7.060  10.077   4.954 -0.8733  1.4028 -0.0308
   18MOL0     H 2427   7.030   9.951   5.068 -0.8119 -0.2063  0.8327
   18MOL0     H 2428   7.171  10.277   5.297  1.3452 -0.3526 -0.3809
   18MOL0     H 2429   6.451  10.338   5.103  0.7673  0.8527  1.8189
   18MOL0     H 2430   6.232  10.400   5.192 -0.6567 -0.5047  0.6879
   19MOL0     O 2431   1.962   7.784  10.461  0.0121 -0.4833  0.2634
   19MOL0     C 2432   1.983   7.844  10.569 -1.0153  0.6828 -0.4717
   19MOL0     O 2433   1.912   7.807  10.679 -0.2200 -0.3359 -0.9792
   19MOL0     C 2434   1.789   7.750  10.668  0.1011  0.5296  0.4900
   19MOL0     C 2435   1.758   7.666  10.780 -1.2052 -0.1811  0.7446
   19MOL0     C 2436   1.627   7.621  10.794  0.1605 -0.3131 -0.6698
   19MOL0     C 2437   1.521   7.642  10.702 -0.0302  0.6308  0.6457
   19MOL0     O 2438   1.397   7.593  10.734  0.7180  0.4518  0.6490
   19MOL0     C 2439   1.288   7.585  10.640  0.3862 -0.1286  0.9335
   19MOL0     C 2440   1.161   7.545  10.715 -0.3644  0.1569 -0.5719
   19MOL0     C 2441   1.028   7.543  10.638 -0.1275  0.3398 -0.6534
   19MOL0     C 2442   0.916   7.502  10.734  0.1381  0.9091  0.0576
   19MOL0     C 2443   0.779   7.521  10.659  0.9845 -0.0396  0.8132
   19MOL0     C 2444   0.661   7.475  10.738 -0.0108 -0.4098 -0.1240
   19MOL0     C 2445   0.527   7.535  10.681 -0.1717 -0.8126  0.0538
   19MOL0     C 2446   0.406   7.477  10.747 -0.3839 -0.8119 -0.7343
   19MOL0     N 2447   0.285   7.461  10.657 -0.1185 -0.6761  0.2533
   19MOL0     C 2448   0.276   7.380  10.548  0.1945 -0.0648 -0.0755
   19MOL0     C 2449   0.145   7.350  10.537 -0.6345  0.2330  0.8468
   19MOL0     C 2450   0.100   7.252  10.426 -0.1538 -0.0524 -0.0195
   19MOL0     C 2451  -0.007   7.154  10.479 -0.3339  0.2401  0.0739
   19MOL0     C 2452  -0.152   7.182  10.437  0.0863 -0.3066  0.8029
   19MOL0     C 2453  -0.215   7.316  10.484  0.8714 -0.9363  0.4875
   19MOL0     O 2454  -0.344   7.335  10.416  0.0786  0.2429 -0.2835
   19MOL0     C 2455  -0.342   7.351  10.283  0.1980 -0.1528 -0.6265
   19MOL0     C 2456  -0.405   7.254  10.211  0.2853 -0.3189  0.4774
   19MOL0     C 2457  -0.410   7.252  10.069 -0.1562  0.0401  0.3061
   19MOL0     C 2458  -0.473   7.138   9.994 -0.7178  0.6742 -0.1227
   19MOL0     C 2459  -0.338   7.361  10.004  0.3171 -0.1722  0.4760
   19MOL0     C 2460  -0.337   7.383   9.855 -0.9213  0.6824 -0.6472
   19MOL0     O 2461  -0.214   7.417   9.807  0.7767  0.2550  0.3662
   19MOL0     C 2462  -0.202   7.435   9.672 -0.1354  0.2715  0.2184
   19MOL0     C 2463  -0.260   7.351   9.573 -0.5980  0.0705  0.2076
   19MOL0     C 2464  -0.257   7.377   9.436 -0.3089  0.4922 -0.2051
   19MOL0     C 2465  -0.178   7.485   9.394  0.0123  0.7138 -0.6223
   19MOL0     O 2466  -0.170   7.507   9.254  1.1640 -0.3898 -0.1028
   19MOL0     C 2467  -0.105   7.625   9.193 -0.0128 -0.4407 -1.2242
   19MOL0     C 2468   0.046   7.613   9.209 -0.4277  0.0007  0.1542
   19MOL0     C 2469   0.101   7.505   9.116 -0.2592 -0.1233 -0.8254
   19MOL0     C 2470   0.230   7.436   9.167 -0.3037 -0.9920 -0.7170
   19MOL0     C 2471   0.348   7.534   9.154  0.0512  0.3542 -0.0841
   19MOL0     C 2472   0.478   7.470   9.209  1.2655  1.0168 -0.6733
   19MOL0     C 2473   0.586   7.577   9.205 -0.6081 -0.4733  0.0764
   19MOL0     C 2474   0.724   7.514   9.198  0.6234  0.8157  0.4542
   19MOL0    Cl 2475   0.835   7.634   9.260 -0.0612 -0.0587  0.2504
   19MOL0     C 2476  -0.122   7.578   9.492 -0.9907  0.0554 -0.2720
   19MOL0     C 2477  -0.131   7.548   9.633 -0.4869 -1.2160  0.3559
   19MOL0     O 2478  -0.450   7.382   9.803 -0.1048 -0.1853  0.3592
   19MOL0     C 2479  -0.269   7.456  10.085  0.1541  0.0695 -0.4978
   19MOL0     C 2480  -0.260   7.441  10.220 -0.0923  0.3591  1.2871
   19MOL0     N 2481   0.071   7.422  10.623  0.4163 -0.1398  0.5770
   19MOL0     N 2482   0.158   7.491  10.696  0.1261 -0.8606  0.8781
   19MOL0     C 2483   1.561   7.714  10.586 -0.7165  0.1252  0.2044
   19MOL0     C 2484   1.685   7.776  10.574 -0.2706 -0.1607  0.1409
   19MOL0     C 2485   2.094   7.940  10.584 -0.0696 -0.3212 -0.3341
   19MOL0     C 2486   2.145   8.006  10.475 -0.8767  0.4918  0.2696
   19MOL0     C 2487   2.246   8.098  10.490 -0.0143 -0.7074  0.3161
   19MOL0     C 2488   2.294   8.127  10.617  0.1814 -0.5970 -0.8851
   19MOL0     O 2489   2.383   8.233  10.628  0.0836 -0.0856  0.6033
   19MOL0     C 2490   2.491   8.243  10.530  0.3545  0.4646  1.0305
   19MOL0     C 2491   2.628   8.295  10.585 -0.5244  0.1374 -1.3868
   19MOL0     C 2492   2.744   8.290  10.482 -0.2784 -0.4410  0.4378
   19MOL0     C 2493   2.892   8.274  10.534 -0.7212 -0.3223  0.0661
   19MOL0     C 2494   2.911   8.358  10.652  0.1008 -0.4669 -0.4240
   19MOL0     C 2495   2.913   8.426  10.753 -0.2755 -0.4540  0.1148
   19MOL0     C 2496   2.240   8.069  10.733  0.0470  0.4684 -0.1038
   19MOL0     C 2497   2.139   7.965  10.715 -1.5105  0.8485  0.3573
   19MOL0     H 2498   1.829   7.653  10.862 -0.1130  0.0087 -0.1457
   19MOL0     H 2499   1.593   7.573  10.885 -0.3505  3.5464  1.3831
   19MOL0     H 2500   1.276   7.685  10.596  1.1840 -0.5381 -0.2754
   19MOL0     H 2501   1.312   7.517  10.557  1.3279  0.0050  1.0874
   19MOL0     H 2502   1.189   7.448  10.757  1.3365  1.8281  2.5209
   19MOL0     H 2503   1.140   7.606  10.804 -0.5464 -1.1923  0.3368
   19MOL0     H 2504   1.019   7.640  10.589  2.1055  0.2065 -1.4591
   19MOL0     H 2505   1.044   7.463  10.565 -0.5415  0.8600 -1.3274
   19MOL0     H 2506   0.935   7.399  10.762  0.9567  0.9915 -0.1518
   19MOL0     H 2507   0.924   7.565  10.823  0.6907  0.0989  0.5923
   19MOL0     H 2508   0.771   7.630  10.652 -0.1944  0.0675  2.9855
   19MOL0     H 2509   0.777   7.470  10.562 -1.7709 -0.3559  0.9474
   19MOL0     H 2510   0.657   7.366  10.743 -0.9042 -0.4147 -0.6371
   19MOL0     H 2511   0.676   7.515  10.838  1.2572 -0.4002 -0.2993
   19MOL0     H 2512   0.522   7.643  10.698 -2.7166 -1.0882  1.6042
   19MOL0     H 2513   0.515   7.504  10.577  0.0859 -0.9456  0.0629
   19MOL0     H 2514   0.374   7.530  10.837 -1.8134 -1.0230 -1.0943
   19MOL0     H 2515   0.438   7.384  10.796  3.2667  1.8828  2.7323
   19MOL0     H 2516   0.365   7.344  10.496  0.7885 -2.4742  2.3778
   19MOL0     H 2517   0.060   7.306  10.339  0.2092  1.1861  0.5615
   19MOL0     H 2518   0.191   7.201  10.392  0.0087  1.4047 -1.9454
   19MOL0     H 2519  -0.010   7.156  10.588  1.0064  2.5341  0.1333
   19MOL0     H 2520   0.036   7.062  10.437  0.9140  0.2057  1.3338
   19MOL0     H 2521  -0.227   7.106  10.463 -1.8149 -0.2487 -3.5885
   19MOL0     H 2522  -0.150   7.178  10.327  1.0835  0.3673  0.7863
   19MOL0     H 2523  -0.145   7.398  10.468  3.5277 -2.5538  2.8439
   19MOL0     H 2524  -0.216   7.315  10.593  1.5362 -0.1558  0.5087
   19MOL0     H 2525  -0.467   7.183  10.265 -2.2376  0.5394 -1.0864
   19MOL0     H 2526  -0.567   7.171   9.948 -1.1054  1.6603  1.3156
   19MOL0     H 2527  -0.413   7.097   9.912 -0.1372 -0.9520  1.0767
   19MOL0     H 2528  -0.490   7.056  10.064 -0.8767  2.4838  2.0676
   19MOL0     H 2529  -0.305   7.260   9.612 -2.1276  0.4864 -0.5300
   19MOL0     H 2530  -0.325   7.325   9.368  1.2177 -0.3716 -1.1352
   19MOL0     H 2531  -0.138   7.634   9.089 -0.5590  1.1595 -0.9492
   19MOL0     H 2532  -0.133   7.716   9.248  1.6545 -0.8974  0.5055
   19MOL0     H 2533   0.100   7.703   9.179 -1.3232 -0.5393 -3.6353
   19MOL0     H 2534   0.070   7.599   9.314 -2.3087 -0.8158  0.5232
   19MOL0     H 2535   0.110   7.544   9.014  0.5273  0.6420 -0.4815
   19MOL0     H 2536   0.025   7.427   9.118  1.7814 -2.2086  0.6563
   19MOL0     H 2537   0.226   7.403   9.271  2.8775 -0.9764 -0.5055
   19MOL0     H 2538   0.260   7.362   9.093  0.5562 -1.0031 -0.3677
   19MOL0     H 2539   0.329   7.619   9.220 -0.0175  0.3725 -0.1279
   19MOL0     H 2540   0.373   7.572   9.054  0.7284  2.9062  0.9912
   19MOL0     H 2541   0.464   7.423   9.307 -0.5113 -1.2685 -1.9365
   19MOL0     H 2542   0.507   7.391   9.140  2.7611  0.2120  0.7924
   19MOL0     H 2543   0.588   7.626   9.303  1.6465 -1.0692  0.3754
   19MOL0     H 2544   0.580   7.652   9.126  1.9711  0.8028  0.9789
   19MOL0     H 2545   0.752   7.477   9.099 -3.9400  2.5972 -1.8092
   19MOL0     H 2546   0.718   7.426   9.262  1.3222  1.0247  0.8160
   19MOL0     H 2547  -0.073   7.673   9.471  1.2936 -0.8778  0.5516
   19MOL0     H 2548  -0.094   7.616   9.709 -2.7786  1.5916 -0.8138
   19MOL0     H 2549  -0.219   7.544  10.046  0.5370  0.3458  0.5859
   19MOL0     H 2550  -0.190   7.505  10.273  0.8889 -1.9147  2.9277
   19MOL0     H 2551   1.476   7.731  10.521 -0.1711  0.2393 -0.4867
   19MOL0     H 2552   1.709   7.854  10.502  0.9376  0.1482  0.8430
   19MOL0     H 2553   2.094   7.982  10.382  1.4407 -2.5646 -0.3981
   19MOL0     H 2554   2.276   8.161  10.406  1.9572 -1.2278  0.5617
   19MOL0     H 2555   2.529   8.148  10.491 -0.1482  0.4324  0.6193
   19MOL0     H 2556   2.462   8.303  10.443  0.9256 -0.2288  0.3408
   19MOL0     H 2557   2.654   8.236  10.674  1.0687  1.5574 -0.8448
   19MOL0     H 2558   2.620   8.403  10.606  0.6218  0.0098 -0.0660
   19MOL0     H 2559   2.736   8.387  10.432 -1.6592 -0.1151  1.2392
   19MOL0     H 2560   2.727   8.212  10.407  1.6190 -1.1629  0.7033
   19MOL0     H 2561   2.962   8.295  10.453 -0.3668  0.2774  0.5203
   19MOL0     H 2562   2.901   8.168  10.558 -1.2420 -0.1703  0.9853
   19MOL0     H 2563   2.922   8.490  10.838 -0.0202  1.0183 -0.9777
   19MOL0     H 2564   2.277   8.093  10.832 -1.8316  1.8372  0.3196
   19MOL0     H 2565   2.091   7.923  10.803 -3.1438 -3.3217 -2.2347
   20MOL0     O 2566   2.803   5.001   6.977  0.4123 -0.7989 -0.1744
   20MOL0     C 2567   2.808   4.920   6.886 -0.4249  0.4668 -0.1382
   20MOL0     O 2568   2.704   4.854   6.827 -0.2652 -0.3882 -0.4963
   20MOL0     C 2569   2.568   4.872   6.845 -0.6976 -0.4939  0.1602
   20MOL0     C 2570   2.509   4.956   6.939  0.5478 -0.2578 -0.0730
   20MOL0     C 2571   2.369   4.970   6.948 -0.5167  0.1830 -0.8256
   20MOL0     C 2572   2.287   4.909   6.854 -0.2013 -0.2442  0.5047
   20MOL0     O 2573   2.160   4.941   6.862 -0.5710 -0.2748  0.1174
   20MOL0     C 2574   2.069   4.944   6.747 -0.8621  0.2717  0.0627
   20MOL0     C 2575   1.921   4.951   6.799  0.2045  0.8890 -0.9114
   20MOL0     C 2576   1.826   4.898   6.692  0.6437 -0.3377 -0.2553
   20MOL0     C 2577   1.675   4.930   6.722 -0.6086 -0.4617  0.3136
   20MOL0     C 2578   1.594   4.880   6.596  0.3905 -0.0515 -0.7468
   20MOL0     C 2579   1.442   4.892   6.624  0.3115  0.7374 -0.3099
   20MOL0     C 2580   1.381   4.814   6.743  0.3477  0.2040 -0.7331
   20MOL0     C 2581   1.393   4.654   6.740 -0.1531 -0.1470  0.4048
   20MOL0     N 2582   1.319   4.598   6.629 -0.8048 -0.0040  0.9969
   20MOL0     C 2583   1.182   4.590   6.612  0.2425  0.2566 -0.1725
   20MOL0     C 2584   1.167   4.521   6.500  1.0654  1.2258 -0.0552
   20MOL0     C 2585   1.033   4.485   6.440 -0.3536 -0.2951 -0.1855
   20MOL0     C 2586   0.985   4.349   6.491 -0.7598 -0.9184  0.3123
   20MOL0     C 2587   0.836   4.336   6.513 -0.6995  0.2146 -0.9617
   20MOL0     C 2588   0.755   4.393   6.390  0.4466 -0.0334  0.2622
   20MOL0     O 2589   0.639   4.315   6.368  0.4353  0.2157 -0.2974
   20MOL0     C 2590   0.531   4.349   6.440  0.2875  0.2528 -0.3272
   20MOL0     C 2591   0.446   4.451   6.383  0.9794  0.2723 -0.0305
   20MOL0     C 2592   0.320   4.483   6.445  0.4097  0.1308  0.0064
   20MOL0     C 2593   0.235   4.585   6.364 -0.0366 -0.0364  0.5010
   20MOL0     C 2594   0.290   4.428   6.567  0.2672 -0.0959 -0.6465
   20MOL0     C 2595   0.167   4.459   6.640 -0.4105 -0.4561  0.7494
   20MOL0     O 2596   0.105   4.357   6.704  0.2928  0.5426 -0.7379
   20MOL0     C 2597  -0.013   4.383   6.771  0.3128 -0.3279  0.0205
   20MOL0     C 2598  -0.145   4.352   6.718 -1.4817 -0.5321  0.6113
   20MOL0     C 2599  -0.261   4.357   6.790 -0.3406 -0.3169 -0.0315
   20MOL0     C 2600  -0.259   4.398   6.921 -0.4082  0.4154  0.3503
   20MOL0     O 2601  -0.372   4.407   6.999 -0.3575 -0.3094 -0.3893
   20MOL0     C 2602  -0.490   4.446   6.942 -0.4055 -0.3245  0.1579
   20MOL0     C 2603  -0.590   4.490   7.044 -0.1311 -0.2621 -0.5132
   20MOL0     C 2604  -0.572   4.634   7.099  0.5925 -0.4638 -0.1632
   20MOL0     C 2605  -0.682   4.670   7.195  0.3182  0.3385 -0.5902
   20MOL0     C 2606  -0.681   4.810   7.242 -0.0189  0.6071  0.5573
   20MOL0     C 2607  -0.786   4.818   7.350  0.2794  0.5153 -0.3383
   20MOL0     C 2608  -0.807   4.964   7.376  0.4171  0.0274 -0.3215
   20MOL0     C 2609  -0.891   5.031   7.260  0.3063  0.8672  0.0970
   20MOL0    Cl 2610  -1.060   4.963   7.242 -0.3139  0.5413  0.3706
   20MOL0     C 2611  -0.131   4.428   6.978  0.0471 -0.0838 -0.4138
   20MOL0     C 2612  -0.016   4.414   6.910 -0.9708  0.4766  0.6281
   20MOL0     O 2613   0.123   4.575   6.630 -0.6014  0.0887  0.0315
   20MOL0     C 2614   0.383   4.334   6.621  0.4538 -0.8116 -0.5697
   20MOL0     C 2615   0.498   4.291   6.562 -0.6411 -0.2731 -0.4414
   20MOL0     N 2616   1.290   4.503   6.433 -0.0276  0.0012 -0.1532
   20MOL0     N 2617   1.378   4.561   6.512  0.3040 -0.3505 -0.2145
   20MOL0     C 2618   2.350   4.829   6.754 -0.2702  0.6320 -0.0660
   20MOL0     C 2619   2.489   4.800   6.761  0.7029 -0.1783  0.5056
   20MOL0     C 2620   2.942   4.899   6.816 -0.6285  0.2476 -0.3279
   20MOL0     C 2621   2.969   4.796   6.722 -0.1632 -0.1586 -0.6661
   20MOL0     C 2622   3.095   4.781   6.668  0.2664 -0.2521 -0.1026
   20MOL0     C 2623   3.205   4.863   6.705  0.8231 -0.8186  0.2732
   20MOL0     O 2624   3.327   4.834   6.644  0.0041  0.0033 -0.0419
   20MOL0     C 2625   3.425   4.934   6.647 -0.8330  0.2231  0.3637
   20MOL0     C 2626   3.549   4.878   6.579 -0.3313 -0.6573 -0.3882
   20MOL0     C 2627   3.677   4.956   6.603  0.4923  0.3598 -0.5180
   20MOL0     C 2628   3.802   4.891   6.546  0.1560  0.2145  0.3656
   20MOL0     C 2629   3.842   4.773   6.619  0.4213  0.3042 -0.2462
   20MOL0     C 2630   3.861   4.678   6.687  0.2060  0.0449 -0.2810
   20MOL0     C 2631   3.178   4.971   6.798  0.7241  0.8379 -0.5273
   20MOL0     C 2632   3.046   4.989   6.849  0.2311  0.2363  0.5438
   20MOL0     H 2633   2.560   5.012   7.016 -0.8580 -0.7041  1.2397
   20MOL0     H 2634   2.324   5.028   7.028 -3.5585 -1.4985 -1.1380
   20MOL0     H 2635   2.084   5.025   6.676 -0.0637  0.3546  0.3094
   20MOL0     H 2636   2.090   4.853   6.690  0.4079  2.1615 -2.7116
   20MOL0     H 2637   1.906   4.882   6.883  0.4512  0.1183 -1.4827
   20MOL0     H 2638   1.891   5.052   6.827 -0.2563  0.3869  0.4818
   20MOL0     H 2639   1.856   4.934   6.594  2.4849 -2.5830 -0.5842
   20MOL0     H 2640   1.834   4.789   6.697 -0.7716 -0.4376  0.2650
   20MOL0     H 2641   1.644   4.898   6.821  0.7993  3.6289  2.2981
   20MOL0     H 2642   1.665   5.039   6.730 -1.2387 -0.5416  0.6482
   20MOL0     H 2643   1.623   4.941   6.510  0.2476  0.9843 -0.0932
   20MOL0     H 2644   1.611   4.776   6.570  0.7364  0.2824 -1.8952
   20MOL0     H 2645   1.433   5.000   6.632  2.2920  0.9109  0.2668
   20MOL0     H 2646   1.386   4.854   6.538  1.4727 -0.3698 -0.6152
   20MOL0     H 2647   1.435   4.844   6.833 -0.4336  2.3679 -0.9469
   20MOL0     H 2648   1.273   4.832   6.749  0.4232  0.5718 -0.4650
   20MOL0     H 2649   1.363   4.618   6.839 -0.3132 -2.2178 -0.3476
   20MOL0     H 2650   1.500   4.633   6.731 -0.0485  0.5133  0.0601
   20MOL0     H 2651   1.114   4.628   6.688  3.1237  0.3126  2.5374
   20MOL0     H 2652   0.963   4.562   6.474  1.9333  0.2157  3.9826
   20MOL0     H 2653   1.043   4.485   6.332  1.2142  0.8295 -0.0604
   20MOL0     H 2654   1.035   4.315   6.582 -1.0424 -2.4284 -0.0742
   20MOL0     H 2655   0.999   4.270   6.417 -2.0871 -1.6576  0.8160
   20MOL0     H 2656   0.802   4.384   6.605 -2.9277 -2.6967 -0.1030
   20MOL0     H 2657   0.817   4.228   6.521 -1.2379  0.3794  0.0905
   20MOL0     H 2658   0.826   4.399   6.307 -1.3155  3.2285 -1.1723
   20MOL0     H 2659   0.726   4.496   6.412  0.0786 -0.1825  0.4783
   20MOL0     H 2660   0.466   4.515   6.297 -3.5486  0.9888 -0.8049
   20MOL0     H 2661   0.290   4.619   6.276  0.4301 -0.5862  0.5799
   20MOL0     H 2662   0.148   4.529   6.330  2.1518 -2.1548 -2.0196
   20MOL0     H 2663   0.204   4.676   6.418 -0.3979 -0.6647  1.3726
   20MOL0     H 2664  -0.151   4.310   6.618 -1.2996 -0.1386  0.4314
   20MOL0     H 2665  -0.352   4.314   6.750 -1.4067  1.8271 -0.1089
   20MOL0     H 2666  -0.479   4.528   6.871 -0.7152  1.2783  1.8600
   20MOL0     H 2667  -0.532   4.353   6.903 -1.7369  0.2320  0.2161
   20MOL0     H 2668  -0.694   4.498   7.009 -0.2156  0.1501 -0.1722
   20MOL0     H 2669  -0.590   4.413   7.123 -0.5165 -1.5944 -1.7610
   20MOL0     H 2670  -0.578   4.704   7.016 -0.0708 -0.1930  0.1118
   20MOL0     H 2671  -0.478   4.635   7.156  0.2423  1.7058  0.4387
   20MOL0     H 2672  -0.781   4.659   7.150 -0.3684  1.1959  0.6715
   20MOL0     H 2673  -0.666   4.598   7.275  3.1378 -1.6823 -2.7351
   20MOL0     H 2674  -0.705   4.873   7.156  2.2536 -1.3612 -1.6432
   20MOL0     H 2675  -0.583   4.836   7.283  0.9623  0.1668 -1.3979
   20MOL0     H 2676  -0.878   4.764   7.325 -1.1928  1.3168  2.8214
   20MOL0     H 2677  -0.742   4.766   7.436 -1.9592 -2.2804 -0.7287
   20MOL0     H 2678  -0.712   5.018   7.377  0.9520 -0.9075  0.2997
   20MOL0     H 2679  -0.862   4.973   7.470  0.5622  1.0234 -0.3212
   20MOL0     H 2680  -0.834   5.040   7.168  0.8972 -0.0618  0.3658
   20MOL0     H 2681  -0.907   5.132   7.300 -3.1292  0.1014  1.0526
   20MOL0     H 2682  -0.115   4.474   7.075  0.1243  1.9519 -1.3428
   20MOL0     H 2683   0.086   4.425   6.944 -0.0582 -2.6768 -0.7723
   20MOL0     H 2684   0.365   4.290   6.719  0.0438  0.7121  0.0688
   20MOL0     H 2685   0.561   4.220   6.614 -0.1414 -0.4939 -1.3327
   20MOL0     H 2686   2.287   4.780   6.680 -1.0646  0.5842  0.6232
   20MOL0     H 2687   2.541   4.731   6.696 -1.1077 -0.1479 -1.0680
   20MOL0     H 2688   2.880   4.738   6.698  0.3556 -2.8160  3.0908
   20MOL0     H 2689   3.116   4.695   6.605 -0.1040 -2.4049  2.4813
   20MOL0     H 2690   3.390   5.021   6.590 -3.2264 -2.1467 -2.0603
   20MOL0     H 2691   3.458   4.956   6.749  0.7730 -1.4387  0.2623
   20MOL0     H 2692   3.537   4.878   6.471  2.6745 -0.8321 -0.8251
   20MOL0     H 2693   3.567   4.779   6.622  1.6617  0.2320  0.9937
   20MOL0     H 2694   3.691   4.976   6.709 -2.4279  0.5727 -0.0917
   20MOL0     H 2695   3.653   5.048   6.548 -0.7461 -0.1089 -0.8033
   20MOL0     H 2696   3.875   4.972   6.536 -1.1291  1.5990  1.7218
   20MOL0     H 2697   3.784   4.864   6.441  1.1455 -0.9373  0.4731
   20MOL0     H 2698   3.875   4.600   6.760 -1.4942 -2.2616 -2.2851
   20MOL0     H 2699   3.254   5.035   6.841  1.4525 -1.0814  1.1879
   20MOL0     H 2700   3.029   5.078   6.907  0.2082  1.8691 -1.8137
   21MOL0     O 2701   0.996   2.923   5.820 -0.3234  0.2365  0.1398
   21MOL0     C 2702   1.055   2.848   5.896 -0.0121  0.0207  0.4006
   21MOL0     O 2703   1.007   2.793   6.007 -0.1134 -0.1839 -0.6652
   21MOL0     C 2704   0.874   2.762   6.011 -0.8741 -0.3972 -0.1866
   21MOL0     C 2705   0.847   2.629   6.050  0.3983  0.1835  0.6462
   21MOL0     C 2706   0.721   2.587   6.070  0.6242  0.2545  0.2347
   21MOL0     C 2707   0.612   2.680   6.055 -0.0924  0.2111 -0.0103
   21MOL0     O 2708   0.484   2.625   6.077  0.3611  0.0045  0.6189
   21MOL0     C 2709   0.369   2.694   6.014 -0.2830  0.0400 -1.0942
   21MOL0     C 2710   0.256   2.594   5.991  0.1010 -0.0056 -0.5619
   21MOL0     C 2711   0.140   2.664   5.932 -0.6087  0.2279  0.9714
   21MOL0     C 2712   0.026   2.572   5.898  0.3712 -0.0703  0.6598
   21MOL0     C 2713  -0.082   2.651   5.822  0.0153 -0.3398 -0.3957
   21MOL0     C 2714  -0.188   2.558   5.774 -0.1381 -0.3583  0.7255
   21MOL0     C 2715  -0.293   2.645   5.697 -0.4207 -0.1593 -0.1514
   21MOL0     C 2716  -0.422   2.580   5.665  0.3292 -0.3567 -0.2994
   21MOL0     N 2717  -0.483   2.620   5.542  0.1123 -0.1681  0.2252
   21MOL0     C 2718  -0.458   2.574   5.414 -0.5000 -0.5247 -0.7498
   21MOL0     C 2719  -0.539   2.655   5.334 -0.1929  0.0674  0.0214
   21MOL0     C 2720  -0.564   2.618   5.187 -0.1585  0.4021 -0.0237
   21MOL0     C 2721  -0.716   2.606   5.167  0.3099  0.7223 -0.3069
   21MOL0     C 2722  -0.788   2.746   5.165 -0.7657 -0.1318 -0.0621
   21MOL0     C 2723  -0.937   2.733   5.196 -0.3975 -0.8217 -0.6741
   21MOL0     O 2724  -0.998   2.643   5.107  0.2058 -0.4180 -0.6861
   21MOL0     C 2725  -1.134   2.641   5.101 -0.1546  0.3621  0.4966
   21MOL0     C 2726  -1.225   2.724   5.168 -0.9270 -0.5224  0.5753
   21MOL0     C 2727  -1.359   2.703   5.159 -0.6477  0.7134 -0.8127
   21MOL0     C 2728  -1.445   2.798   5.225 -0.1839 -0.4907  1.0125
   21MOL0     C 2729  -1.408   2.607   5.065 -0.4019  0.4666  0.2949
   21MOL0     C 2730  -1.544   2.567   5.052  0.2374 -0.0671  0.8181
   21MOL0     O 2731  -1.628   2.575   5.161 -0.0082 -0.3573 -0.5012
   21MOL0     C 2732  -1.762   2.548   5.140 -0.5202 -0.6874 -0.3006
   21MOL0     C 2733  -1.845   2.655   5.179  0.0143  0.3461 -0.1519
   21MOL0     C 2734  -1.981   2.636   5.172 -0.0161  1.0667  0.9188
   21MOL0     C 2735  -2.037   2.518   5.128 -0.5792 -0.2330  0.0413
   21MOL0     O 2736  -2.178   2.510   5.123 -0.2139 -0.4434 -0.4385
   21MOL0     C 2737  -2.239   2.378   5.148 -0.3211  0.9149  0.2400
   21MOL0     C 2738  -2.384   2.394   5.190 -0.2371  0.0691  0.5011
   21MOL0     C 2739  -2.406   2.338   5.336  0.4113 -0.3553 -0.2070
   21MOL0     C 2740  -2.558   2.357   5.345  0.4991  0.0688 -0.0133
   21MOL0     C 2741  -2.604   2.297   5.485 -0.3819  0.4675  0.9657
   21MOL0     C 2742  -2.752   2.314   5.517 -0.8865  0.1235  0.0868
   21MOL0     C 2743  -2.774   2.456   5.575  0.8601  0.0286 -0.3456
   21MOL0     C 2744  -2.913   2.512   5.543  0.1662  0.1643  0.3420
   21MOL0    Cl 2745  -3.041   2.394   5.566  0.2364  0.3108 -0.2131
   21MOL0     C 2746  -1.952   2.412   5.095 -0.1071  0.4224 -0.1424
   21MOL0     C 2747  -1.813   2.427   5.091  0.3700 -0.9236 -0.2297
   21MOL0     O 2748  -1.574   2.519   4.941 -0.1223 -0.3772 -0.0304
   21MOL0     C 2749  -1.315   2.524   5.001  0.2231 -0.6209  1.0846
   21MOL0     C 2750  -1.180   2.544   5.011  0.0038  0.1837 -0.6583
   21MOL0     N 2751  -0.608   2.743   5.409 -0.1091 -0.3461  1.2988
   21MOL0     N 2752  -0.571   2.726   5.533 -0.3717  0.3170 -0.6040
   21MOL0     C 2753   0.634   2.822   6.031  0.3675  0.7080  0.4665
   21MOL0     C 2754   0.769   2.854   6.009  0.2358  0.5270  0.2260
   21MOL0     C 2755   1.195   2.822   5.858 -0.1777  0.0390  0.2023
   21MOL0     C 2756   1.274   2.726   5.924 -0.0536 -0.4333  0.2765
   21MOL0     C 2757   1.404   2.695   5.887  1.1861  1.3209  0.1734
   21MOL0     C 2758   1.470   2.764   5.782 -0.1567 -0.1142 -0.7908
   21MOL0     O 2759   1.600   2.727   5.768  0.3162 -0.1296  0.0201
   21MOL0     C 2760   1.653   2.771   5.644 -0.9816 -0.5322 -0.0506
   21MOL0     C 2761   1.791   2.706   5.614  0.1860 -0.0895  0.4980
   21MOL0     C 2762   1.899   2.718   5.721  0.3012 -0.2030 -0.4520
   21MOL0     C 2763   2.039   2.683   5.668  0.3948 -0.0352  0.7496
   21MOL0     C 2764   2.155   2.720   5.753  0.6707  0.1829 -0.0697
   21MOL0     C 2765   2.258   2.762   5.794  0.2492 -0.1315  0.3472
   21MOL0     C 2766   1.391   2.855   5.712 -1.0279  0.5144 -0.3861
   21MOL0     C 2767   1.263   2.886   5.755 -0.7219 -0.0644 -0.2145
   21MOL0     H 2768   0.936   2.573   6.079 -0.3517  0.2493  3.3368
   21MOL0     H 2769   0.697   2.492   6.118  3.0556 -0.5893 -0.0428
   21MOL0     H 2770   0.335   2.769   6.086  5.8491 -0.7263  3.3415
   21MOL0     H 2771   0.404   2.744   5.923  0.3378 -0.2496 -1.0123
   21MOL0     H 2772   0.301   2.514   5.931  0.2647 -0.3086 -0.0519
   21MOL0     H 2773   0.241   2.552   6.091  0.7257 -1.1687 -0.9345
   21MOL0     H 2774   0.094   2.731   6.006 -1.0792  1.3076 -0.2605
   21MOL0     H 2775   0.176   2.724   5.848 -3.8914 -0.1156 -0.8527
   21MOL0     H 2776   0.065   2.496   5.830  0.6853  0.2898  0.4290
   21MOL0     H 2777  -0.019   2.522   5.985  0.4030 -0.9374  0.1812
   21MOL0     H 2778  -0.126   2.721   5.894 -2.3053 -2.4103  0.3567
   21MOL0     H 2779  -0.045   2.696   5.729 -0.1485 -1.4409 -1.0022
   21MOL0     H 2780  -0.149   2.482   5.706 -0.1269  0.6248 -0.4087
   21MOL0     H 2781  -0.241   2.514   5.859  0.7022 -0.7205  1.0638
   21MOL0     H 2782  -0.308   2.740   5.750  0.2456 -0.6028  0.8714
   21MOL0     H 2783  -0.240   2.666   5.605 -1.2360 -1.9387 -1.0847
   21MOL0     H 2784  -0.496   2.598   5.744 -3.1263 -0.2698 -3.2747
   21MOL0     H 2785  -0.409   2.472   5.674 -2.1135 -0.6250  1.0112
   21MOL0     H 2786  -0.395   2.491   5.385 -2.4569 -2.9567  1.4398
   21MOL0     H 2787  -0.528   2.682   5.106 -3.3858  0.3261 -1.6806
   21MOL0     H 2788  -0.511   2.525   5.163 -0.8621  0.1511 -0.6803
   21MOL0     H 2789  -0.751   2.542   5.249  2.2210  0.3838  0.2846
   21MOL0     H 2790  -0.747   2.555   5.075  0.6868  1.9978 -1.1729
   21MOL0     H 2791  -0.793   2.790   5.065 -1.8919  1.8407  0.8076
   21MOL0     H 2792  -0.746   2.829   5.222 -2.5075  0.6910  0.0662
   21MOL0     H 2793  -0.974   2.834   5.175 -0.1145 -0.4227  0.6302
   21MOL0     H 2794  -0.933   2.712   5.303  1.5194  1.9321 -0.0828
   21MOL0     H 2795  -1.187   2.809   5.223  1.1881 -2.9695  3.2106
   21MOL0     H 2796  -1.394   2.892   5.247 -2.3682  1.1748 -0.7475
   21MOL0     H 2797  -1.535   2.820   5.167 -0.4860 -2.1053  0.8104
   21MOL0     H 2798  -1.481   2.744   5.313 -1.6554 -0.8126  0.2362
   21MOL0     H 2799  -1.798   2.746   5.215  0.8288 -1.3883  3.6537
   21MOL0     H 2800  -2.042   2.718   5.208  1.5961  2.0577  1.5303
   21MOL0     H 2801  -2.232   2.306   5.066 -0.5397  1.4483 -0.2549
   21MOL0     H 2802  -2.186   2.334   5.234 -1.4786  0.6114  0.8209
   21MOL0     H 2803  -2.396   2.503   5.194  0.7273  0.5272 -3.9794
   21MOL0     H 2804  -2.456   2.350   5.120 -1.1462 -1.0896  2.1014
   21MOL0     H 2805  -2.375   2.401   5.419  1.2553 -2.9353  1.5540
   21MOL0     H 2806  -2.367   2.237   5.351  0.3528 -0.4076 -0.3981
   21MOL0     H 2807  -2.589   2.462   5.342  2.5561  0.8894  3.0933
   21MOL0     H 2808  -2.603   2.305   5.260  1.6121  0.1205 -0.6506
   21MOL0     H 2809  -2.535   2.332   5.563  0.3945  2.1103 -0.3832
   21MOL0     H 2810  -2.574   2.192   5.487  1.9675  1.0858  1.3678
   21MOL0     H 2811  -2.818   2.312   5.430  0.0252 -0.0270 -0.6294
   21MOL0     H 2812  -2.784   2.232   5.581  0.1550 -0.9051 -0.6560
   21MOL0     H 2813  -2.698   2.531   5.549  3.0800 -1.0422  2.5859
   21MOL0     H 2814  -2.762   2.451   5.683 -1.1712  0.3099 -0.0790
   21MOL0     H 2815  -2.914   2.540   5.438 -0.7554  2.1481  0.8435
   21MOL0     H 2816  -2.939   2.597   5.607 -0.9155  1.4007 -1.6440
   21MOL0     H 2817  -1.993   2.312   5.082  0.4015  0.2133 -0.1338
   21MOL0     H 2818  -1.742   2.346   5.075 -0.1391 -1.4149 -0.0224
   21MOL0     H 2819  -1.344   2.438   4.942  2.0720  0.1597 -1.1299
   21MOL0     H 2820  -1.116   2.485   4.946 -1.2708 -1.4299 -0.5260
   21MOL0     H 2821   0.559   2.900   6.029  0.9906  1.3188 -1.8340
   21MOL0     H 2822   0.799   2.951   5.972  3.7213 -0.7462 -0.7496
   21MOL0     H 2823   1.219   2.670   6.000 -1.8684 -0.1473 -0.7694
   21MOL0     H 2824   1.457   2.614   5.935  1.5223  0.6018 -1.3483
   21MOL0     H 2825   1.592   2.744   5.558  0.4019 -2.4339 -0.5137
   21MOL0     H 2826   1.663   2.879   5.660 -0.4314 -0.7461  1.2290
   21MOL0     H 2827   1.833   2.743   5.520 -0.3867 -0.9793 -0.1289
   21MOL0     H 2828   1.763   2.601   5.601  0.0854 -0.1036  0.8293
   21MOL0     H 2829   1.877   2.655   5.808 -0.0462  0.0292 -0.3700
   21MOL0     H 2830   1.897   2.816   5.770 -1.2702  0.5811 -1.9740
   21MOL0     H 2831   2.039   2.733   5.571 -1.8650  1.2349  1.3385
   21MOL0     H 2832   2.038   2.575   5.649 -1.3808  0.0137  0.4115
   21MOL0     H 2833   2.360   2.784   5.818  0.7237 -1.1656 -0.6282
   21MOL0     H 2834   1.437   2.909   5.630  1.4979 -1.3926 -0.3646
   21MOL0     H 2835   1.207   2.955   5.693  0.6003 -1.8310 -3.6192
   22MOL0     O 2836  10.072   4.355   4.775 -0.2343 -0.0947 -0.0699
   22MOL0     C 2837  10.070   4.263   4.855  0.0956 -0.1500 -0.8503
   22MOL0     O 2838   9.960   4.210   4.914  0.5990  0.7507  0.1596
   22MOL0     C 2839   9.840   4.235   4.847  0.0134  0.6108 -0.3250
   22MOL0     C 2840   9.763   4.331   4.894 -0.4575 -0.2432 -0.1362
   22MOL0     C 2841   9.644   4.364   4.831 -0.4117 -0.0590  1.0600
   22MOL0     C 2842   9.604   4.289   4.721  0.2422  0.0262 -0.1787
   22MOL0     O 2843   9.489   4.327   4.662  0.3947  0.2894  0.1436
   22MOL0     C 2844   9.438   4.246   4.551  0.3628  0.1205  0.5765
   22MOL0     C 2845   9.280   4.256   4.565 -0.8719  0.0308 -0.8036
   22MOL0     C 2846   9.239   4.407   4.572  0.9541  0.2288 -0.8095
   22MOL0     C 2847   9.088   4.414   4.556 -0.2547 -0.2375 -0.2641
   22MOL0     C 2848   9.042   4.556   4.580  0.2955 -0.5181  0.1165
   22MOL0     C 2849   8.892   4.569   4.552  0.7135 -0.4744 -0.4668
   22MOL0     C 2850   8.840   4.714   4.556  0.0769  0.3972 -0.0789
   22MOL0     C 2851   8.687   4.717   4.572  0.6262 -0.1223 -0.1724
   22MOL0     N 2852   8.638   4.855   4.571 -0.5788 -0.3773  0.0013
   22MOL0     C 2853   8.664   4.946   4.465  0.4049 -0.1769 -0.2291
   22MOL0     C 2854   8.597   5.064   4.500 -0.2798 -0.1078 -0.5857
   22MOL0     C 2855   8.590   5.190   4.413  0.0838 -0.0414  0.8562
   22MOL0     C 2856   8.471   5.286   4.422 -0.5440  0.0069 -0.0696
   22MOL0     C 2857   8.513   5.419   4.369 -0.0298  0.2067  0.1059
   22MOL0     C 2858   8.402   5.499   4.310  0.2400 -0.2221  0.1084
   22MOL0     O 2859   8.325   5.426   4.207 -0.5336 -0.3006  0.4031
   22MOL0     C 2860   8.201   5.462   4.174  0.0018  0.4185  0.0937
   22MOL0     C 2861   8.090   5.414   4.251 -0.6058  0.7705 -0.4477
   22MOL0     C 2862   7.964   5.442   4.205 -0.1656  0.5084  0.5300
   22MOL0     C 2863   7.855   5.381   4.289 -0.2618 -0.3865  0.3247
   22MOL0     C 2864   7.940   5.512   4.085  0.2046  0.2896  0.2339
   22MOL0     C 2865   7.804   5.554   4.043 -0.5919 -0.7805  0.2724
   22MOL0     O 2866   7.789   5.588   3.907  0.5379 -0.0108 -0.2562
   22MOL0     C 2867   7.673   5.625   3.847  0.0582  0.2213 -0.2161
   22MOL0     C 2868   7.540   5.596   3.884 -0.1547 -0.4718 -0.7353
   22MOL0     C 2869   7.437   5.633   3.791 -0.5472  0.9560  0.3674
   22MOL0     C 2870   7.471   5.678   3.666 -0.2843  0.0773  0.1488
   22MOL0     O 2871   7.379   5.725   3.569 -0.3851 -0.1944 -0.4025
   22MOL0     C 2872   7.247   5.654   3.576  0.9389 -0.1714  0.3877
   22MOL0     C 2873   7.137   5.737   3.656  0.8948 -0.0760  0.7280
   22MOL0     C 2874   6.998   5.688   3.613  0.5771  0.1050 -0.0788
   22MOL0     C 2875   6.892   5.789   3.650 -0.1684 -1.1124 -0.5911
   22MOL0     C 2876   6.750   5.744   3.616 -0.2494 -0.2395  0.7771
   22MOL0     C 2877   6.647   5.850   3.655 -0.3409 -0.2447 -0.1689
   22MOL0     C 2878   6.502   5.821   3.596  0.6813 -0.2868 -0.3619
   22MOL0     C 2879   6.414   5.948   3.593 -0.0351  1.1476  0.2121
   22MOL0    Cl 2880   6.397   6.036   3.750 -0.1534  0.4957 -0.4128
   22MOL0     C 2881   7.595   5.722   3.648  0.4687 -0.1374 -0.7422
   22MOL0     C 2882   7.692   5.689   3.734  0.0304 -1.1060 -0.8855
   22MOL0     O 2883   7.719   5.586   4.126 -0.6512 -0.0433 -0.2556
   22MOL0     C 2884   8.046   5.553   4.007 -0.6891  0.6714  0.0618
   22MOL0     C 2885   8.177   5.536   4.060  0.1862  0.1700 -0.5233
   22MOL0     N 2886   8.529   5.043   4.619  1.6480 -0.5656 -0.3479
   22MOL0     N 2887   8.556   4.923   4.661  0.4717  0.3889  0.8933
   22MOL0     C 2888   9.686   4.186   4.671 -0.5347 -0.4946  0.2288
   22MOL0     C 2889   9.805   4.160   4.735 -0.0417 -0.0405 -0.0026
   22MOL0     C 2890  10.197   4.209   4.902  0.7235  0.0984 -0.5164
   22MOL0     C 2891  10.198   4.100   4.991 -0.0944 -0.1213 -0.9550
   22MOL0     C 2892  10.313   4.040   5.034 -0.7134 -0.2552  0.3680
   22MOL0     C 2893  10.434   4.100   4.992 -0.7329  0.5178 -0.2238
   22MOL0     O 2894  10.546   4.027   5.024 -0.4944 -0.1890 -0.5221
   22MOL0     C 2895  10.671   4.108   5.041  0.5078 -0.1998  0.6733
   22MOL0     C 2896  10.780   4.007   5.081  0.0366 -0.4557  0.0611
   22MOL0     C 2897  10.752   3.964   5.225 -0.7443 -0.5905  0.3293
   22MOL0     C 2898  10.678   3.831   5.223 -0.1809 -0.2615  0.5963
   22MOL0     C 2899  10.623   3.804   5.357  0.2865 -0.0004 -0.2857
   22MOL0     C 2900  10.586   3.774   5.469 -0.3001  0.2073 -0.1206
   22MOL0     C 2901  10.434   4.208   4.897 -0.6543  0.2326 -0.8802
   22MOL0     C 2902  10.318   4.266   4.862 -0.6541 -0.2320  0.7934
   22MOL0     H 2903   9.779   4.376   4.991 -0.6950 -1.1265  0.3223
   22MOL0     H 2904   9.574   4.440   4.862 -0.8998  1.2169 -2.7432
   22MOL0     H 2905   9.479   4.283   4.456 -0.6155 -2.6075 -1.0370
   22MOL0     H 2906   9.468   4.141   4.561  2.6314  0.6234 -0.1447
   22MOL0     H 2907   9.243   4.197   4.481 -0.3768 -1.0037 -0.3125
   22MOL0     H 2908   9.261   4.197   4.655  2.9999 -1.4910 -0.8011
   22MOL0     H 2909   9.270   4.450   4.667 -0.5988  0.8144 -0.5372
   22MOL0     H 2910   9.285   4.472   4.497  0.4239  0.4429 -0.9522
   22MOL0     H 2911   9.055   4.391   4.454 -1.6090  2.3367 -0.4965
   22MOL0     H 2912   9.038   4.346   4.626 -1.3565  1.0639  0.2816
   22MOL0     H 2913   9.070   4.603   4.675 -0.8174 -0.1242  0.2693
   22MOL0     H 2914   9.096   4.621   4.511  1.1078 -1.0208  0.2557
   22MOL0     H 2915   8.880   4.542   4.447 -0.4058 -0.3124 -0.3886
   22MOL0     H 2916   8.832   4.506   4.619  0.8219  0.6191  0.6861
   22MOL0     H 2917   8.888   4.765   4.641  0.5758  1.1659 -0.8020
   22MOL0     H 2918   8.879   4.769   4.469  0.6480 -1.3004 -0.9329
   22MOL0     H 2919   8.649   4.666   4.661 -0.5774  2.8179  1.1483
   22MOL0     H 2920   8.630   4.676   4.489  2.1534  0.4381 -1.5579
   22MOL0     H 2921   8.718   4.914   4.376 -1.5125 -0.1543 -1.4777
   22MOL0     H 2922   8.674   5.250   4.450  0.4644 -1.1295  1.7951
   22MOL0     H 2923   8.610   5.175   4.306 -2.1942  2.0895  0.0331
   22MOL0     H 2924   8.448   5.288   4.528  0.5392  2.3089  0.1799
   22MOL0     H 2925   8.392   5.241   4.362 -1.3200  1.1027  0.0977
   22MOL0     H 2926   8.585   5.396   4.289  0.5638 -0.1886  0.7450
   22MOL0     H 2927   8.563   5.472   4.450  0.4703  0.6786 -0.5051
   22MOL0     H 2928   8.443   5.593   4.271  0.2219  0.5644  1.9178
   22MOL0     H 2929   8.327   5.521   4.386 -0.0711 -0.8839 -0.0043
   22MOL0     H 2930   8.118   5.344   4.329  1.7293 -1.1210 -2.7933
   22MOL0     H 2931   7.772   5.341   4.230  0.1061 -2.7433  1.3030
   22MOL0     H 2932   7.899   5.298   4.346 -2.9593 -0.7362  2.0810
   22MOL0     H 2933   7.821   5.451   4.365  3.7290  1.8490  0.3321
   22MOL0     H 2934   7.511   5.544   3.974 -0.9653 -2.3924 -2.0414
   22MOL0     H 2935   7.331   5.622   3.812 -0.7112  0.7868 -0.5181
   22MOL0     H 2936   7.220   5.643   3.470  0.8084  4.2664 -0.2602
   22MOL0     H 2937   7.264   5.556   3.620  3.0068  0.2017  0.5063
   22MOL0     H 2938   7.148   5.729   3.765 -0.8684 -2.5031  0.8137
   22MOL0     H 2939   7.152   5.843   3.633  1.6851  0.9655  5.1214
   22MOL0     H 2940   6.988   5.597   3.673  1.8301 -0.1417 -0.2094
   22MOL0     H 2941   6.992   5.647   3.511  0.8355 -2.2041  0.7578
   22MOL0     H 2942   6.903   5.822   3.754  0.1803  2.0963 -1.5490
   22MOL0     H 2943   6.906   5.872   3.580 -2.3137 -0.3625 -0.2299
   22MOL0     H 2944   6.717   5.655   3.671 -0.1064  0.1707  1.5495
   22MOL0     H 2945   6.756   5.717   3.511  0.1185  2.5044  0.0145
   22MOL0     H 2946   6.634   5.847   3.763  1.1238 -4.1826  0.0746
   22MOL0     H 2947   6.683   5.951   3.633  1.5896 -0.0790  3.1339
   22MOL0     H 2948   6.448   5.751   3.661  1.4705 -1.6260 -1.0961
   22MOL0     H 2949   6.513   5.773   3.499 -2.6989  0.0800 -1.0515
   22MOL0     H 2950   6.313   5.920   3.561 -0.8630  0.4912  3.1069
   22MOL0     H 2951   6.450   6.017   3.516  0.8193  2.2507  1.5703
   22MOL0     H 2952   7.615   5.788   3.565 -1.1317  1.1137 -0.2009
   22MOL0     H 2953   7.793   5.717   3.707  0.0798  0.7147  0.9947
   22MOL0     H 2954   8.033   5.601   3.911  3.2255 -0.4839 -1.2574
   22MOL0     H 2955   8.255   5.588   4.005 -1.9451  2.5504 -1.4951
   22MOL0     H 2956   9.677   4.146   4.571 -2.3003  1.8241 -0.6462
   22MOL0     H 2957   9.869   4.082   4.696  0.5002  0.9563 -1.1535
   22MOL0     H 2958  10.105   4.060   5.029  0.6731 -1.9214 -0.8915
   22MOL0     H 2959  10.330   3.950   5.092 -1.5533 -1.1844 -0.7803
   22MOL0     H 2960  10.705   4.144   4.943 -0.2193  0.1845  0.5568
   22MOL0     H 2961  10.657   4.195   5.105  0.6882  0.9777 -0.8182
   22MOL0     H 2962  10.881   4.049   5.076  0.0292 -0.5487 -1.3939
   22MOL0     H 2963  10.779   3.916   5.021 -0.1598 -2.2161  2.5887
   22MOL0     H 2964  10.676   4.028   5.269 -0.4821 -0.0689  0.0353
   22MOL0     H 2965  10.842   3.966   5.288 -0.4403  0.9793 -0.1155
   22MOL0     H 2966  10.754   3.755   5.203 -0.0477 -0.1285  0.6002
   22MOL0     H 2967  10.602   3.824   5.144  1.0098 -1.4092 -0.4996
   22MOL0     H 2968  10.544   3.753   5.565  0.0639  2.2238  0.5404
   22MOL0     H 2969  10.533   4.246   4.873  0.6244  0.7761  4.1313
   22MOL0     H 2970  10.325   4.353   4.797  2.0000 -2.5136 -2.2393
   23MOL0     O 2971   2.305   7.763   4.776  0.1034  1.2148  0.1079
   23MOL0     C 2972   2.342   7.856   4.844  0.3722 -0.3996  0.0751
   23MOL0     O 2973   2.286   7.984   4.847 -0.7143 -0.6955  0.4193
   23MOL0     C 2974   2.155   8.006   4.801 -0.2353  0.5081 -0.1984
   23MOL0     C 2975   2.053   7.913   4.817  0.4006 -0.4964 -0.3063
   23MOL0     C 2976   1.918   7.946   4.785  0.3597  0.3186 -0.2672
   23MOL0     C 2977   1.879   8.064   4.725  0.6585 -0.2927 -0.3116
   23MOL0     O 2978   1.750   8.079   4.679  0.1952  0.3266 -0.0174
   23MOL0     C 2979   1.718   8.156   4.566  0.2827  0.0558  0.6004
   23MOL0     C 2980   1.564   8.141   4.551 -0.9197 -0.9531  0.1465
   23MOL0     C 2981   1.527   7.998   4.499  0.3409 -0.1299  0.0974
   23MOL0     C 2982   1.380   7.979   4.462 -0.8697  0.6415  0.1706
   23MOL0     C 2983   1.346   7.991   4.313 -0.0721 -0.3419  0.9555
   23MOL0     C 2984   1.194   8.022   4.289  0.5219 -0.5029  0.0726
   23MOL0     C 2985   1.111   7.899   4.329 -0.1073  0.3551  0.5106
   23MOL0     C 2986   0.958   7.935   4.328 -0.2901  0.6559  0.8904
   23MOL0     N 2987   0.907   7.951   4.191 -0.9669 -0.0261 -0.2906
   23MOL0     C 2988   0.911   8.065   4.113 -0.3414  0.8622 -0.6168
   23MOL0     C 2989   0.830   8.039   4.014  0.2801 -0.1005 -0.0478
   23MOL0     C 2990   0.793   8.121   3.906 -0.6636  0.1831  0.4269
   23MOL0     C 2991   0.688   8.226   3.918  0.7431  0.6533 -0.2099
   23MOL0     C 2992   0.543   8.167   3.893  0.3376  0.2517 -0.8389
   23MOL0     C 2993   0.510   8.097   3.764 -1.5106 -0.2988  0.2077
   23MOL0     O 2994   0.502   8.199   3.667  0.0934  0.0857 -0.0315
   23MOL0     C 2995   0.427   8.176   3.549  0.1816 -0.2489 -0.0488
   23MOL0     C 2996   0.394   8.273   3.460 -1.0109 -0.3025 -0.0388
   23MOL0     C 2997   0.311   8.256   3.352 -0.6228 -0.1387 -0.7691
   23MOL0     C 2998   0.265   8.382   3.280 -0.1517 -0.1904 -0.7070
   23MOL0     C 2999   0.259   8.128   3.322  1.0583 -0.5024 -0.0855
   23MOL0     C 3000   0.178   8.092   3.196  0.5277 -0.7230 -0.8052
   23MOL0     O 3001   0.167   7.958   3.174 -0.0393  0.2749 -0.4099
   23MOL0     C 3002   0.075   7.901   3.083  0.1711  0.0036 -0.3201
   23MOL0     C 3003   0.098   7.779   3.020  0.7501 -0.6643 -0.6111
   23MOL0     C 3004  -0.000   7.715   2.944  0.5876 -0.5433 -0.0220
   23MOL0     C 3005  -0.117   7.782   2.915  0.7371 -0.3889 -0.2255
   23MOL0     O 3006  -0.213   7.713   2.843 -0.4156  0.6511 -0.0927
   23MOL0     C 3007  -0.341   7.774   2.825  0.1037  0.5225 -0.1985
   23MOL0     C 3008  -0.430   7.673   2.770  0.9753 -0.0714  1.0667
   23MOL0     C 3009  -0.571   7.726   2.763 -0.1100  0.7228  0.5750
   23MOL0     C 3010  -0.675   7.617   2.718  0.0622 -0.5877  0.6830
   23MOL0     C 3011  -0.807   7.689   2.720 -0.8050  0.3408  0.5147
   23MOL0     C 3012  -0.911   7.576   2.713 -0.4103 -0.0210 -0.4737
   23MOL0     C 3013  -1.053   7.634   2.710 -0.3681  0.7274 -0.3611
   23MOL0     C 3014  -1.159   7.529   2.720  1.1279  0.9175  0.1879
   23MOL0    Cl 3015  -1.171   7.479   2.901 -0.2243  0.2727  0.1928
   23MOL0     C 3016  -0.141   7.905   2.976 -0.5090  0.0252 -0.8340
   23MOL0     C 3017  -0.044   7.962   3.058 -0.8701  0.0249 -0.2437
   23MOL0     O 3018   0.120   8.178   3.132 -0.1888  0.6143  0.2876
   23MOL0     C 3019   0.308   8.024   3.403 -0.3761  0.6301 -1.1772
   23MOL0     C 3020   0.379   8.050   3.518  0.3844  0.0915 -0.3029
   23MOL0     N 3021   0.768   7.912   4.032 -0.4293 -0.2018 -0.1662
   23MOL0     N 3022   0.815   7.867   4.142 -0.4166 -0.0211  0.5093
   23MOL0     C 3023   1.983   8.157   4.716 -0.3853 -0.3143 -0.5042
   23MOL0     C 3024   2.111   8.136   4.769 -0.8981  0.3887  1.3005
   23MOL0     C 3025   2.462   7.841   4.932  0.0786 -0.3305 -0.1898
   23MOL0     C 3026   2.538   7.723   4.924  0.6099  0.2737  0.3094
   23MOL0     C 3027   2.640   7.698   5.010  0.5338  1.3192 -0.1000
   23MOL0     C 3028   2.678   7.788   5.109 -1.5511 -1.4372 -0.5892
   23MOL0     O 3029   2.795   7.782   5.189 -0.5114  0.4098  0.4349
   23MOL0     C 3030   2.885   7.666   5.194  0.4825 -0.9321  0.9457
   23MOL0     C 3031   2.971   7.650   5.068  0.4952  0.3448  0.2291
   23MOL0     C 3032   3.017   7.502   5.064  0.5023  0.1338 -0.8928
   23MOL0     C 3033   3.108   7.482   4.943  0.2016 -0.2800 -0.5133
   23MOL0     C 3034   3.042   7.510   4.812  0.7535  0.1679  0.9132
   23MOL0     C 3035   2.995   7.516   4.699 -0.1186 -0.0871 -0.4576
   23MOL0     C 3036   2.601   7.903   5.114  0.3081 -0.1333 -0.6349
   23MOL0     C 3037   2.492   7.929   5.034  1.2544 -0.0574 -0.4343
   23MOL0     H 3038   2.066   7.816   4.863  3.0959 -1.2435 -2.3838
   23MOL0     H 3039   1.843   7.869   4.798 -0.9437  1.5992  0.0252
   23MOL0     H 3040   1.742   8.261   4.582  1.8817 -0.2467  0.3569
   23MOL0     H 3041   1.767   8.107   4.481 -2.7550  2.1256 -2.6074
   23MOL0     H 3042   1.511   8.171   4.642 -2.7143 -0.2750 -1.0768
   23MOL0     H 3043   1.532   8.211   4.474 -0.9512 -1.8471 -0.6823
   23MOL0     H 3044   1.585   7.971   4.410  3.6333  1.8209  1.4821
   23MOL0     H 3045   1.561   7.925   4.573  2.0546 -2.3541 -2.6647
   23MOL0     H 3046   1.355   7.875   4.488  2.5715 -0.7855 -1.5788
   23MOL0     H 3047   1.307   8.039   4.516 -3.7610 -2.3938 -0.0372
   23MOL0     H 3048   1.406   8.073   4.272 -1.4905  0.2949  0.0581
   23MOL0     H 3049   1.369   7.901   4.255 -2.1829 -2.0473  2.6216
   23MOL0     H 3050   1.171   8.105   4.355  1.3139  0.3837 -0.7466
   23MOL0     H 3051   1.171   8.057   4.188  0.2187  4.9988  1.7213
   23MOL0     H 3052   1.123   7.821   4.252 -2.2617 -0.6407  1.1077
   23MOL0     H 3053   1.139   7.861   4.427  1.6358  3.0422  1.1521
   23MOL0     H 3054   0.937   8.035   4.369 -0.2593  0.3386  1.7128
   23MOL0     H 3055   0.903   7.863   4.390  0.0812  0.3684  0.8860
   23MOL0     H 3056   0.972   8.152   4.137  1.4490 -0.7199  0.9702
   23MOL0     H 3057   0.884   8.166   3.865 -0.5746  0.3448  0.7967
   23MOL0     H 3058   0.757   8.053   3.828 -2.7014  1.6498  0.0110
   23MOL0     H 3059   0.705   8.305   3.845  1.4127  1.3537  0.6823
   23MOL0     H 3060   0.705   8.275   4.014  1.6433  2.5054 -1.2560
   23MOL0     H 3061   0.467   8.241   3.917  0.9097 -0.1855  2.9760
   23MOL0     H 3062   0.529   8.091   3.971  0.2083  1.6831  0.5690
   23MOL0     H 3063   0.417   8.041   3.776  0.1826 -4.4070 -3.3820
   23MOL0     H 3064   0.580   8.020   3.730 -2.0675 -0.6844 -0.0848
   23MOL0     H 3065   0.435   8.368   3.494  1.6397 -1.6233  0.6958
   23MOL0     H 3066   0.156   8.389   3.271 -0.4319  2.5236  2.6795
   23MOL0     H 3067   0.298   8.473   3.331 -2.5436 -0.8384  2.2730
   23MOL0     H 3068   0.312   8.385   3.181 -0.4088  1.0226 -0.8136
   23MOL0     H 3069   0.194   7.735   3.044  1.8814  0.7779 -2.2854
   23MOL0     H 3070   0.014   7.611   2.916  4.5157 -0.2081  0.1858
   23MOL0     H 3071  -0.378   7.806   2.923  1.4663 -0.5091  0.6981
   23MOL0     H 3072  -0.326   7.862   2.762  0.1541  0.0584 -0.8457
   23MOL0     H 3073  -0.399   7.652   2.667 -0.4685 -1.2575  0.8448
   23MOL0     H 3074  -0.415   7.577   2.820  2.0937 -1.4395 -1.6474
   23MOL0     H 3075  -0.577   7.807   2.689 -1.5640 -0.0369 -0.1761
   23MOL0     H 3076  -0.608   7.766   2.858  0.8498 -0.3385  1.4175
   23MOL0     H 3077  -0.648   7.573   2.622 -0.9541 -1.8738  0.9629
   23MOL0     H 3078  -0.679   7.544   2.800 -1.7665 -1.3691 -0.0726
   23MOL0     H 3079  -0.813   7.768   2.644 -0.9018 -0.8903 -0.7863
   23MOL0     H 3080  -0.813   7.730   2.822  1.8978  0.3451  0.7388
   23MOL0     H 3081  -0.897   7.506   2.630  0.8146  1.1252 -1.2751
   23MOL0     H 3082  -0.906   7.525   2.809 -1.2005  1.8342  0.6053
   23MOL0     H 3083  -1.063   7.690   2.617  1.2822 -0.8654 -1.5895
   23MOL0     H 3084  -1.068   7.707   2.789 -0.5895 -0.2094  0.4923
   23MOL0     H 3085  -1.134   7.443   2.658  1.1111  0.7597  0.4027
   23MOL0     H 3086  -1.259   7.552   2.680 -1.1673 -0.3807  4.5239
   23MOL0     H 3087  -0.231   7.962   2.957  1.3079  2.8342 -1.4970
   23MOL0     H 3088  -0.073   8.059   3.097 -2.5891 -0.5943  0.1185
   23MOL0     H 3089   0.283   7.923   3.374 -0.9193 -0.0517  1.4379
   23MOL0     H 3090   0.393   7.969   3.589  0.2079  0.8902  0.6623
   23MOL0     H 3091   1.962   8.259   4.685 -1.9022 -0.9768 -1.7908
   23MOL0     H 3092   2.173   8.224   4.761  0.6744 -0.8367 -1.5781
   23MOL0     H 3093   2.530   7.638   4.858  0.1748 -0.0365  0.7493
   23MOL0     H 3094   2.687   7.602   4.993  0.2501  0.1118  4.6539
   23MOL0     H 3095   2.932   7.666   5.293  0.2878  1.3896  1.0962
   23MOL0     H 3096   2.816   7.581   5.198 -2.3868  1.0981 -0.7513
   23MOL0     H 3097   3.053   7.722   5.068 -0.7791  1.9588 -1.7197
   23MOL0     H 3098   2.910   7.672   4.979 -2.2275  0.2544  1.9379
   23MOL0     H 3099   2.932   7.433   5.074 -1.2737  2.2825 -0.3038
   23MOL0     H 3100   3.076   7.499   5.156  2.2788  2.7181 -1.8479
   23MOL0     H 3101   3.140   7.377   4.942  0.3343 -0.2938 -3.1813
   23MOL0     H 3102   3.194   7.547   4.959 -1.8927  3.9010 -4.1147
   23MOL0     H 3103   2.955   7.527   4.601  1.1346 -0.6774 -1.0574
   23MOL0     H 3104   2.616   7.975   5.194 -3.8604 -0.7415  0.9570
   23MOL0     H 3105   2.438   8.022   5.048 -0.4494 -1.1791  0.8986
   24MOL0     O 3106   6.297   1.484  10.707 -0.2050 -0.7611 -0.5182
   24MOL0     C 3107   6.401   1.543  10.728  0.5851 -0.4014  0.9046
   24MOL0     O 3108   6.444   1.669  10.673  1.1220  0.4102 -0.3988
   24MOL0     C 3109   6.361   1.760  10.612  0.3714 -0.1052 -0.1100
   24MOL0     C 3110   6.260   1.724  10.527 -0.6129 -0.0147  0.6574
   24MOL0     C 3111   6.178   1.813  10.462 -0.0047  0.2431  0.7704
   24MOL0     C 3112   6.185   1.954  10.493 -0.3238 -0.5770 -0.3531
   24MOL0     O 3113   6.121   2.047  10.413  0.1937 -0.4116  0.6246
   24MOL0     C 3114   6.150   2.185  10.443  0.6690 -0.4317 -0.0171
   24MOL0     C 3115   6.058   2.276  10.355  0.2466  0.8195 -1.0282
   24MOL0     C 3116   5.912   2.245  10.380  0.8458  0.7226  0.1826
   24MOL0     C 3117   5.818   2.272  10.255  0.1845 -0.2634  0.2879
   24MOL0     C 3118   5.675   2.283  10.300  0.0319  0.3980  0.1999
   24MOL0     C 3119   5.616   2.154  10.359  0.1061 -0.5188 -0.2542
   24MOL0     C 3120   5.621   2.031  10.257  0.5785 -0.3981  0.8038
   24MOL0     C 3121   5.581   1.903  10.331 -0.3029 -0.0782  0.3840
   24MOL0     N 3122   5.607   1.772  10.265 -0.1803 -0.0358  0.1192
   24MOL0     C 3123   5.726   1.710  10.287  0.6101 -0.8965 -0.5167
   24MOL0     C 3124   5.692   1.587  10.268  0.1268  0.3790  0.1776
   24MOL0     C 3125   5.776   1.457  10.278  0.1009 -0.4618  0.0932
   24MOL0     C 3126   5.898   1.463  10.389  0.1644  0.0239  0.4590
   24MOL0     C 3127   5.974   1.328  10.377  0.1359 -0.5523  0.4888
   24MOL0     C 3128   6.102   1.328  10.461 -0.0213 -0.3260 -0.3694
   24MOL0     O 3129   6.185   1.215  10.417  0.3943  0.6758  0.3103
   24MOL0     C 3130   6.296   1.189  10.495  0.4744  0.6545 -0.3034
   24MOL0     C 3131   6.404   1.152  10.425 -0.2250  0.2909 -0.2287
   24MOL0     C 3132   6.521   1.101  10.483  0.4889  0.4569  0.3739
   24MOL0     C 3133   6.634   1.074  10.386  0.4314  0.1496  0.2259
   24MOL0     C 3134   6.518   1.067  10.618  0.8568 -0.7355  0.3610
   24MOL0     C 3135   6.628   1.003  10.684 -0.4567  0.1950 -0.6335
   24MOL0     O 3136   6.612   0.891  10.762  0.1739 -0.2325 -0.4712
   24MOL0     C 3137   6.723   0.815  10.798  0.0789 -0.4352 -0.2307
   24MOL0     C 3138   6.801   0.752  10.700  0.2477 -0.1037  0.1155
   24MOL0     C 3139   6.901   0.656  10.735  0.0964 -0.2005  0.8553
   24MOL0     C 3140   6.921   0.635  10.869 -1.1090  0.3658  0.1653
   24MOL0     O 3141   7.042   0.566  10.908  0.4395 -0.8430  0.2922
   24MOL0     C 3142   7.160   0.637  10.860 -1.1196 -0.1582 -0.5503
   24MOL0     C 3143   7.283   0.548  10.904  0.4702 -0.1159 -0.2065
   24MOL0     C 3144   7.419   0.612  10.891  0.2187 -0.1894  0.1961
   24MOL0     C 3145   7.524   0.524  10.960  0.9581 -0.2776 -0.4593
   24MOL0     C 3146   7.667   0.571  10.946 -0.0966  0.0041  0.3087
   24MOL0     C 3147   7.765   0.486  11.022  0.4252 -0.5835 -0.4623
   24MOL0     C 3148   7.914   0.534  11.026  0.8685  0.2078  0.1401
   24MOL0     C 3149   8.002   0.492  10.911  0.5027  0.0647  0.8895
   24MOL0    Cl 3150   8.176   0.557  10.924  0.1121  0.2076  0.3401
   24MOL0     C 3151   6.834   0.689  10.964 -0.3582 -0.0184 -0.9496
   24MOL0     C 3152   6.747   0.785  10.935  0.0277  0.2477 -0.8681
   24MOL0     O 3153   6.726   1.074  10.690  0.7178 -0.1518 -0.1412
   24MOL0     C 3154   6.398   1.089  10.689  0.5049  0.3273 -0.0868
   24MOL0     C 3155   6.291   1.153  10.631  0.5989 -0.2497  0.3400
   24MOL0     N 3156   5.565   1.575  10.218 -0.7319 -0.6459 -0.6597
   24MOL0     N 3157   5.508   1.693  10.222  0.1126  0.6224 -0.7329
   24MOL0     C 3158   6.287   1.995  10.590  0.2089  0.6910  0.2309
   24MOL0     C 3159   6.368   1.901  10.641  0.3495  0.8498  0.0782
   24MOL0     C 3160   6.496   1.472  10.812 -0.6638 -0.3272  0.3514
   24MOL0     C 3161   6.461   1.358  10.887 -0.1057  0.2371 -0.5843
   24MOL0     C 3162   6.555   1.284  10.957  0.8943 -0.3215  0.1346
   24MOL0     C 3163   6.685   1.331  10.969  0.2540  0.2307  0.3254
   24MOL0     O 3164   6.779   1.264  11.038 -0.4485  0.3464 -0.9166
   24MOL0     C 3165   6.844   1.157  10.970  0.6440 -0.3189 -0.1011
   24MOL0     C 3166   6.952   1.086  11.055  0.2252 -0.3134  0.2737
   24MOL0     C 3167   6.896   1.026  11.181 -1.0179 -0.7389  0.6444
   24MOL0     C 3168   7.001   0.993  11.291  0.5173  0.0082 -1.1946
   24MOL0     C 3169   7.093   0.884  11.253  0.6070  0.1605  0.1439
   24MOL0     C 3170   7.138   0.780  11.219 -0.5584  0.5584  0.1516
   24MOL0     C 3171   6.728   1.442  10.899  0.5369 -0.0149 -0.4873
   24MOL0     C 3172   6.635   1.512  10.824  0.3043 -0.0651  0.9375
   24MOL0     H 3173   6.245   1.622  10.491 -0.3542 -0.2208  1.1174
   24MOL0     H 3174   6.107   1.778  10.388  1.4007 -0.8906 -0.1051
   24MOL0     H 3175   6.134   2.198  10.551  0.1649 -0.3505 -0.0984
   24MOL0     H 3176   6.252   2.210  10.414  0.6380  0.7718  0.8432
   24MOL0     H 3177   6.085   2.379  10.377  1.6280  0.0494  1.1959
   24MOL0     H 3178   6.096   2.264  10.253  1.6898  1.0302 -0.5401
   24MOL0     H 3179   5.896   2.139  10.404 -0.5159  1.4241  2.7740
   24MOL0     H 3180   5.871   2.299  10.465 -2.5746 -0.4508 -0.5791
   24MOL0     H 3181   5.844   2.361  10.198 -0.9590 -2.0039 -3.2298
   24MOL0     H 3182   5.834   2.187  10.188 -2.2901 -1.6762  1.3786
   24MOL0     H 3183   5.669   2.371  10.365  3.8114 -0.9775  2.7253
   24MOL0     H 3184   5.623   2.295  10.204  2.5519 -1.0410 -1.4365
   24MOL0     H 3185   5.676   2.132  10.447 -1.7742 -3.8609  0.3578
   24MOL0     H 3186   5.511   2.169  10.387 -0.3341 -1.7938 -1.1425
   24MOL0     H 3187   5.554   2.041  10.171 -1.3805 -2.0000  2.0424
   24MOL0     H 3188   5.722   2.012  10.220  0.0236  0.9910 -1.6034
   24MOL0     H 3189   5.475   1.908  10.356 -0.2804 -1.7238  0.9556
   24MOL0     H 3190   5.621   1.910  10.433 -2.0264  1.2828  1.0074
   24MOL0     H 3191   5.824   1.751  10.308  0.7634 -2.6536  2.9901
   24MOL0     H 3192   5.714   1.371  10.306  1.5943 -1.3840  0.6790
   24MOL0     H 3193   5.813   1.436  10.178 -0.5277 -2.1929  0.1878
   24MOL0     H 3194   5.859   1.480  10.490  1.6442  0.2371  1.0160
   24MOL0     H 3195   5.965   1.545  10.363  1.2379 -1.7227 -2.8210
   24MOL0     H 3196   5.992   1.303  10.273 -0.6979 -0.0337  0.2128
   24MOL0     H 3197   5.905   1.258  10.424  1.1818  0.2772  3.5345
   24MOL0     H 3198   6.079   1.327  10.568 -1.3136  1.5721 -0.5806
   24MOL0     H 3199   6.162   1.414  10.429 -0.0733 -0.5533 -1.0887
   24MOL0     H 3200   6.414   1.160  10.317 -2.1200 -1.5654 -0.6363
   24MOL0     H 3201   6.617   0.987  10.322  2.8996  1.1205 -1.9386
   24MOL0     H 3202   6.644   1.160  10.319 -0.8312  0.5018  0.4605
   24MOL0     H 3203   6.730   1.063  10.438  1.7738  1.7749 -1.7217
   24MOL0     H 3204   6.778   0.772  10.596 -1.4339 -1.9366  0.0609
   24MOL0     H 3205   6.966   0.616  10.658 -0.8201  1.3587 -0.7890
   24MOL0     H 3206   7.171   0.662  10.754  2.1389 -2.1601 -0.8267
   24MOL0     H 3207   7.175   0.732  10.912  3.8997  0.3817 -2.4505
   24MOL0     H 3208   7.263   0.523  11.009  2.4137 -0.2103  0.1680
   24MOL0     H 3209   7.293   0.462  10.837 -2.3888 -1.6783  1.1522
   24MOL0     H 3210   7.433   0.714  10.928  0.1345  0.2471 -0.9461
   24MOL0     H 3211   7.449   0.607  10.786  2.8266 -1.6899  0.9214
   24MOL0     H 3212   7.499   0.530  11.066  0.3280 -0.7115 -0.5765
   24MOL0     H 3213   7.503   0.418  10.943 -6.1442  0.5352  0.1164
   24MOL0     H 3214   7.664   0.680  10.961  0.0431  0.3138 -1.6075
   24MOL0     H 3215   7.701   0.545  10.845 -2.1336 -1.5939 -0.0415
   24MOL0     H 3216   7.730   0.493  11.125  0.6694  1.6227 -0.4786
   24MOL0     H 3217   7.753   0.383  10.987 -3.7728 -1.9751  3.9867
   24MOL0     H 3218   7.960   0.498  11.118  2.3980 -0.6325 -0.9049
   24MOL0     H 3219   7.907   0.643  11.038 -0.3176 -0.1080  3.3741
   24MOL0     H 3220   7.950   0.535  10.825  0.7284  2.9598  2.0958
   24MOL0     H 3221   8.008   0.383  10.904 -2.7847 -0.1226 -1.1698
   24MOL0     H 3222   6.854   0.662  11.067  0.5041 -1.5698 -1.4984
   24MOL0     H 3223   6.709   0.855  11.009  1.1634 -0.6626  0.6277
   24MOL0     H 3224   6.399   1.071  10.797 -2.0087  0.6716  0.0408
   24MOL0     H 3225   6.198   1.177  10.682  0.4646  0.6793 -0.2999
   24MOL0     H 3226   6.315   2.094  10.624  1.7285  0.9606 -1.6080
   24MOL0     H 3227   6.446   1.941  10.705  2.0414  0.3118 -1.5605
   24MOL0     H 3228   6.357   1.326  10.881  0.0276 -0.2516 -0.3441
   24MOL0     H 3229   6.512   1.195  11.003  0.6179 -2.1319 -3.2677
   24MOL0     H 3230   6.764   1.084  10.952  0.3064  0.0981 -0.2789
   24MOL0     H 3231   6.873   1.202  10.875 -2.7651  1.3177 -0.4877
   24MOL0     H 3232   7.029   1.159  11.080  0.4036 -1.1461  2.4022
   24MOL0     H 3233   6.995   1.006  10.994  0.6246  0.0704  0.0452
   24MOL0     H 3234   6.842   0.932  11.170 -0.8936 -0.6422 -1.1226
   24MOL0     H 3235   6.842   1.101  11.239  1.1825  2.0658 -0.6926
   24MOL0     H 3236   6.949   0.970  11.385  2.3206 -0.2728 -0.2241
   24MOL0     H 3237   7.047   1.088  11.319 -3.5082  1.3784  1.6825
   24MOL0     H 3238   7.169   0.684  11.186  3.2314  0.9950  1.9642
   24MOL0     H 3239   6.832   1.469  10.910  0.1718  0.9948  0.5825
   24MOL0     H 3240   6.661   1.599  10.765 -1.5570 -1.3876 -2.1080
   25MOL0     O 3241   4.789  11.046   5.975  0.1157  0.0068 -0.0307
   25MOL0     C 3242   4.848  10.958   6.045  0.1771 -0.2241  0.2445
   25MOL0     O 3243   4.786  10.881   6.141 -0.3463 -0.2971  0.0697
   25MOL0     C 3244   4.671  10.916   6.211 -0.3978 -0.0404 -0.6887
   25MOL0     C 3245   4.632  11.044   6.249  0.4812  0.5402  0.0562
   25MOL0     C 3246   4.513  11.068   6.317  0.3627  0.0636 -0.7899
   25MOL0     C 3247   4.437  10.963   6.366 -0.4963  0.3025  0.8182
   25MOL0     O 3248   4.320  10.979   6.427  0.4101 -0.4515  0.1669
   25MOL0     C 3249   4.276  11.110   6.454  0.0181 -0.1763  0.5588
   25MOL0     C 3250   4.133  11.102   6.518 -0.3676  0.9606 -0.0188
   25MOL0     C 3251   4.025  11.062   6.412 -0.3314 -0.5317 -0.0611
   25MOL0     C 3252   3.892  11.065   6.485  0.1231  0.1370 -0.1809
   25MOL0     C 3253   3.758  11.035   6.420  0.1967 -0.1092 -0.1249
   25MOL0     C 3254   3.715  11.138   6.313 -0.2586  0.8189 -0.0846
   25MOL0     C 3255   3.677  11.271   6.369 -0.0783  0.6452 -0.0477
   25MOL0     C 3256   3.545  11.270   6.449  0.8439 -0.1145  0.1324
   25MOL0     N 3257   3.426  11.333   6.378  0.1378  0.1235  0.3596
   25MOL0     C 3258   3.413  11.455   6.316  0.3117  0.0386 -0.4776
   25MOL0     C 3259   3.276  11.460   6.274  0.6597 -0.5201  0.6691
   25MOL0     C 3260   3.215  11.580   6.204  0.5506 -0.8649  0.0007
   25MOL0     C 3261   3.067  11.565   6.198 -0.1652  0.7237  0.4646
   25MOL0     C 3262   2.991  11.693   6.156 -0.2992 -0.1250 -0.3796
   25MOL0     C 3263   2.838  11.680   6.168  0.9224 -0.4706 -0.1705
   25MOL0     O 3264   2.795  11.577   6.079 -0.5387  0.5399  0.0831
   25MOL0     C 3265   2.668  11.531   6.084 -0.0695 -0.0679  0.1376
   25MOL0     C 3266   2.646  11.394   6.074 -0.1771  0.3455  0.3766
   25MOL0     C 3267   2.517  11.338   6.059 -1.1422  0.3254 -0.3940
   25MOL0     C 3268   2.507  11.190   6.044  0.5055 -0.5674 -0.1970
   25MOL0     C 3269   2.412  11.427   6.067  0.2743 -0.4637 -0.2862
   25MOL0     C 3270   2.262  11.389   6.051 -1.1235  0.4978 -0.5187
   25MOL0     O 3271   2.219  11.276   6.112 -0.6239  0.2817  0.3151
   25MOL0     C 3272   2.084  11.264   6.125  0.4353  0.2667  1.0676
   25MOL0     C 3273   2.019  11.185   6.032 -0.1208  0.2825 -0.0937
   25MOL0     C 3274   1.880  11.161   6.055  0.5628 -0.1912 -0.2471
   25MOL0     C 3275   1.813  11.203   6.172 -0.0840  0.0373 -0.2236
   25MOL0     O 3276   1.680  11.188   6.206 -0.3093  0.1366  0.0161
   25MOL0     C 3277   1.578  11.190   6.099 -0.5913 -0.0390 -0.8927
   25MOL0     C 3278   1.441  11.206   6.166  0.9222  1.2197 -0.1907
   25MOL0     C 3279   1.416  11.351   6.201  1.0315  0.5587 -0.0491
   25MOL0     C 3280   1.296  11.348   6.304  0.4361  0.2912  0.6491
   25MOL0     C 3281   1.268  11.490   6.357  0.0598 -0.1246  0.2529
   25MOL0     C 3282   1.143  11.497   6.443 -0.4951 -0.1858 -1.5254
   25MOL0     C 3283   1.016  11.470   6.359 -0.2942 -0.6432 -0.1657
   25MOL0     C 3284   0.887  11.515   6.427  0.6689  0.9677  0.0537
   25MOL0    Cl 3285   0.752  11.464   6.326  0.1742  0.0470 -0.5135
   25MOL0     C 3286   1.882  11.280   6.264  1.2308  0.2124  0.3665
   25MOL0     C 3287   2.011  11.311   6.236 -0.3861  0.4146  0.2303
   25MOL0     O 3288   2.187  11.472   6.002 -0.3194  0.1787 -0.1326
   25MOL0     C 3289   2.426  11.565   6.083  0.0009 -0.2554 -0.2420
   25MOL0     C 3290   2.556  11.623   6.093 -0.4998  0.4972  0.4297
   25MOL0     N 3291   3.212  11.345   6.311  0.2986 -0.3225  0.1862
   25MOL0     N 3292   3.306  11.272   6.360  0.0592  0.4396 -0.2172
   25MOL0     C 3293   4.479  10.833   6.326  0.0525  0.5065  0.3471
   25MOL0     C 3294   4.588  10.807   6.246 -0.2895  0.4959  0.5643
   25MOL0     C 3295   4.979  10.907   6.000  0.4930  0.0279  0.7530
   25MOL0     C 3296   5.061  10.986   5.920  0.1575  0.5778 -0.0996
   25MOL0     C 3297   5.194  10.940   5.902  0.6714 -0.8357  0.8671
   25MOL0     C 3298   5.239  10.817   5.939 -0.4595  0.3847 -0.8699
   25MOL0     O 3299   5.370  10.776   5.913  0.2815 -0.6956 -0.5899
   25MOL0     C 3300   5.409  10.640   5.921 -0.2842  0.7431 -0.3350
   25MOL0     C 3301   5.554  10.633   5.881 -0.0541 -0.5274 -0.8854
   25MOL0     C 3302   5.595  10.495   5.840 -0.1110  0.1880  0.4816
   25MOL0     C 3303   5.731  10.502   5.773 -0.1093  0.0930  0.3776
   25MOL0     C 3304   5.834  10.523   5.877  0.0626 -0.4361 -0.0339
   25MOL0     C 3305   5.931  10.548   5.950 -0.4437  0.6834  0.2677
   25MOL0     C 3306   5.151  10.747   6.023 -0.2875  0.3314  0.5669
   25MOL0     C 3307   5.023  10.787   6.044 -0.4760  0.1660 -0.2142
   25MOL0     H 3308   4.695  11.128   6.220  0.4777  0.3017 -0.6596
   25MOL0     H 3309   4.483  11.170   6.337 -3.5447 -1.1336  0.2223
   25MOL0     H 3310   4.346  11.153   6.526 -0.3880 -0.9763  1.4559
   25MOL0     H 3311   4.271  11.180   6.370 -3.8855  2.9562  3.0709
   25MOL0     H 3312   4.136  11.038   6.607 -3.7480  0.4360 -0.1530
   25MOL0     H 3313   4.113  11.201   6.560  0.6718 -0.2121  3.6225
   25MOL0     H 3314   4.031  11.137   6.333  2.2403 -0.3076  0.2702
   25MOL0     H 3315   4.035  10.960   6.375  1.1176  0.2946 -2.1230
   25MOL0     H 3316   3.902  11.000   6.573 -1.7910 -0.6782 -0.5114
   25MOL0     H 3317   3.881  11.166   6.526  0.6912  0.3241 -0.4786
   25MOL0     H 3318   3.759  10.945   6.358 -2.1591  1.0979 -2.1347
   25MOL0     H 3319   3.678  11.016   6.493  0.0803  1.0822  0.0684
   25MOL0     H 3320   3.801  11.143   6.245 -0.4891  0.0962 -0.4352
   25MOL0     H 3321   3.631  11.096   6.256  0.4789  0.0958 -0.6551
   25MOL0     H 3322   3.760  11.307   6.431 -0.5060  2.3458 -0.4242
   25MOL0     H 3323   3.654  11.342   6.289 -1.7932  1.3199  0.9944
   25MOL0     H 3324   3.558  11.340   6.532  1.4833 -0.3799  0.2646
   25MOL0     H 3325   3.512  11.172   6.485 -1.6506  0.8689  0.6934
   25MOL0     H 3326   3.489  11.530   6.296  1.2339 -1.7259 -4.8142
   25MOL0     H 3327   3.235  11.673   6.258  0.4961 -0.3600 -0.8326
   25MOL0     H 3328   3.260  11.591   6.105 -1.0270 -2.8096 -1.0054
   25MOL0     H 3329   3.037  11.539   6.299 -0.9067 -3.8402 -0.7047
   25MOL0     H 3330   3.043  11.475   6.141 -0.7891 -0.0278  1.8721
   25MOL0     H 3331   3.025  11.719   6.055  0.1365  1.9635  0.2644
   25MOL0     H 3332   3.027  11.777   6.216 -0.0781  1.0875 -2.1244
   25MOL0     H 3333   2.782  11.769   6.137  1.2685 -0.5926 -1.2111
   25MOL0     H 3334   2.808  11.653   6.270  1.7387 -1.7742 -0.2422
   25MOL0     H 3335   2.731  11.328   6.059 -1.7474 -1.2911 -2.1060
   25MOL0     H 3336   2.424  11.161   5.978  0.4941  2.0412 -1.4479
   25MOL0     H 3337   2.600  11.148   6.006 -0.0146  0.4847 -2.8155
   25MOL0     H 3338   2.494  11.137   6.139  1.6954 -0.0236  0.2832
   25MOL0     H 3339   2.073  11.118   5.966 -0.7832 -1.3571  0.9571
   25MOL0     H 3340   1.811  11.108   5.990  1.4099 -1.3682 -0.2163
   25MOL0     H 3341   1.603  11.269   6.027  2.1919 -0.7603 -0.8396
   25MOL0     H 3342   1.573  11.095   6.045  1.1543 -1.2818  0.9574
   25MOL0     H 3343   1.370  11.160   6.096 -0.2261  0.4596  1.3989
   25MOL0     H 3344   1.444  11.147   6.258  0.7595  0.8510 -0.4200
   25MOL0     H 3345   1.401  11.409   6.109  1.8595  1.1290  0.1681
   25MOL0     H 3346   1.494  11.395   6.264  1.6873  0.9114 -1.0792
   25MOL0     H 3347   1.205  11.306   6.259  0.4162 -0.0543  1.0098
   25MOL0     H 3348   1.335  11.284   6.384  1.7455  0.1506 -0.0638
   25MOL0     H 3349   1.249  11.558   6.274  1.3264 -0.6638 -0.5028
   25MOL0     H 3350   1.356  11.525   6.412  1.6993 -0.4617 -2.0326
   25MOL0     H 3351   1.149  11.428   6.527  1.8948  0.9568 -0.6801
   25MOL0     H 3352   1.136  11.602   6.473 -0.4854  0.1144 -2.5100
   25MOL0     H 3353   1.010  11.368   6.320  2.3253  0.7069 -4.7918
   25MOL0     H 3354   1.027  11.539   6.275 -1.2222  1.1280  1.0944
   25MOL0     H 3355   0.881  11.624   6.439  1.0919  1.2257 -1.7918
   25MOL0     H 3356   0.879  11.474   6.528 -2.0950  1.7100  0.2147
   25MOL0     H 3357   1.827  11.308   6.353  0.2479 -0.5120  0.0052
   25MOL0     H 3358   2.073  11.375   6.298  0.5893 -2.2907  2.1748
   25MOL0     H 3359   2.342  11.633   6.075  0.5443  0.9877  2.9867
   25MOL0     H 3360   2.575  11.729   6.105  4.0743  0.1446 -1.5963
   25MOL0     H 3361   4.417  10.745   6.342  0.6025  0.0412 -0.0621
   25MOL0     H 3362   4.616  10.709   6.209 -2.4595 -0.7412  1.9640
   25MOL0     H 3363   5.019  11.079   5.883 -0.9879 -0.7722 -2.4143
   25MOL0     H 3364   5.263  11.006   5.850 -0.9071 -0.5896 -1.0387
   25MOL0     H 3365   5.406  10.598   6.022 -1.0558 -0.6833 -0.9213
   25MOL0     H 3366   5.349  10.573   5.858  0.9355  1.3306 -2.2018
   25MOL0     H 3367   5.615  10.654   5.968 -1.4970  1.4272 -0.2629
   25MOL0     H 3368   5.574  10.702   5.798 -2.6681  1.2019 -0.2022
   25MOL0     H 3369   5.522  10.441   5.779  1.2692 -1.6431  0.3314
   25MOL0     H 3370   5.607  10.430   5.928  0.6839  1.5647  1.4373
   25MOL0     H 3371   5.724  10.568   5.687  0.7236 -1.2895 -0.7990
   25MOL0     H 3372   5.748  10.403   5.729 -3.0821  0.5948 -2.2143
   25MOL0     H 3373   6.013  10.583   6.009 -0.0912  0.9205 -0.3522
   25MOL0     H 3374   5.183  10.655   6.071  2.1235  1.8691  2.1350
   25MOL0     H 3375   4.956  10.722   6.099  2.2403 -2.6982 -0.0086
   26MOL0     O 3376   4.612  10.489  10.017  0.3754  0.1313  0.0681
   26MOL0     C 3377   4.577  10.409  10.102  0.4697 -0.1623  0.5119
   26MOL0     O 3378   4.655  10.348  10.193  0.1294  0.2966  0.1484
   26MOL0     C 3379   4.793  10.367  10.202  0.1352  0.3273 -0.3627
   26MOL0     C 3380   4.876  10.258  10.188 -0.4303  0.2662  0.2394
   26MOL0     C 3381   5.019  10.274  10.178  0.2408 -0.5966  0.7957
   26MOL0     C 3382   5.074  10.403  10.166 -0.0723  0.6500 -0.3398
   26MOL0     O 3383   5.213  10.416  10.160  0.5160  0.2727  0.4818
   26MOL0     C 3384   5.271  10.521  10.237  0.0169  0.0596  0.4532
   26MOL0     C 3385   5.409  10.465  10.280  0.5305 -0.1541  0.4494
   26MOL0     C 3386   5.505  10.426  10.166  0.1192 -0.7171  0.2083
   26MOL0     C 3387   5.639  10.413  10.232  0.5354  0.5069  0.6345
   26MOL0     C 3388   5.746  10.376  10.123  0.5021 -0.5347  0.3618
   26MOL0     C 3389   5.864  10.302  10.173 -0.5495 -0.1515 -0.3864
   26MOL0     C 3390   5.817  10.158  10.218  0.4250  0.0209  0.0856
   26MOL0     C 3391   5.929  10.053  10.218  0.7823 -0.6862 -0.0779
   26MOL0     N 3392   5.871   9.929  10.270 -0.6526 -0.2165 -0.5982
   26MOL0     C 3393   5.773   9.851  10.214  0.1179  0.1388 -0.4470
   26MOL0     C 3394   5.771   9.737  10.284 -0.0480 -0.6950  0.3837
   26MOL0     C 3395   5.680   9.624  10.255  0.2376  0.3587 -0.7098
   26MOL0     C 3396   5.761   9.503  10.220  0.4070 -0.0098 -0.8955
   26MOL0     C 3397   5.673   9.376  10.216  0.8271  0.1389 -0.2747
   26MOL0     C 3398   5.613   9.346  10.356 -0.6770 -0.3756 -0.5747
   26MOL0     O 3399   5.491   9.414  10.377  0.3153 -0.4171  0.4655
   26MOL0     C 3400   5.372   9.359  10.324 -0.4756 -0.3105 -0.7140
   26MOL0     C 3401   5.313   9.242  10.372  1.4832  0.2186  0.5658
   26MOL0     C 3402   5.181   9.192  10.334  0.1232  0.0194 -0.0832
   26MOL0     C 3403   5.126   9.079  10.416  0.0120  0.5723  0.1472
   26MOL0     C 3404   5.119   9.257  10.221  1.3517  0.1048  0.1655
   26MOL0     C 3405   4.985   9.207  10.174  0.1629  0.6415 -0.1835
   26MOL0     O 3406   4.935   9.086  10.201  0.6600  0.4329  0.0275
   26MOL0     C 3407   4.793   9.058  10.191 -0.1985 -0.2124  0.1322
   26MOL0     C 3408   4.703   9.088  10.294  0.9897 -0.6976 -0.7939
   26MOL0     C 3409   4.560   9.066  10.273  0.6502 -0.1118 -0.4594
   26MOL0     C 3410   4.513   9.011  10.160 -0.1626 -0.5067  0.1838
   26MOL0     O 3411   4.383   9.001  10.125  0.2418  0.1445 -0.2102
   26MOL0     C 3412   4.286   9.085  10.183 -0.0994  0.4643  0.2365
   26MOL0     C 3413   4.162   9.072  10.090 -0.5023  0.4652 -0.5804
   26MOL0     C 3414   4.048   9.148  10.149  0.1952 -0.8911 -0.4618
   26MOL0     C 3415   3.919   9.134  10.073 -0.7178  0.0520 -0.4747
   26MOL0     C 3416   3.811   9.229  10.116 -0.0322  0.2567  0.6167
   26MOL0     C 3417   3.693   9.223  10.019  0.6440  0.2233 -0.4210
   26MOL0     C 3418   3.586   9.332  10.035  0.2025 -0.1277  0.1979
   26MOL0     C 3419   3.531   9.321  10.178  0.2281 -0.1860  0.6313
   26MOL0    Cl 3420   3.355   9.360  10.182  0.2348 -0.3541  0.6428
   26MOL0     C 3421   4.607   8.977  10.058  0.0211  0.1355 -0.0603
   26MOL0     C 3422   4.744   9.005  10.067 -0.7767 -0.7736  0.1200
   26MOL0     O 3423   4.934   9.286  10.100  0.1873  0.1014  0.5843
   26MOL0     C 3424   5.191   9.367  10.158  0.1820  0.2805 -0.4523
   26MOL0     C 3425   5.311   9.418  10.214 -0.4863  0.7591  0.6914
   26MOL0     N 3426   5.858   9.748  10.378  0.9479 -0.3423 -0.7012
   26MOL0     N 3427   5.927   9.856  10.368 -0.4771  1.2101  0.1634
   26MOL0     C 3428   4.990  10.515  10.178  0.3008 -0.2728 -0.2325
   26MOL0     C 3429   4.850  10.496  10.198 -0.4566  0.5784 -0.3386
   26MOL0     C 3430   4.432  10.388  10.130  0.7315 -0.2550 -1.0632
   26MOL0     C 3431   4.342  10.461  10.057  0.4995 -0.1162 -0.6269
   26MOL0     C 3432   4.208  10.430  10.063 -0.3915 -0.1117 -0.2476
   26MOL0     C 3433   4.165  10.319  10.139  0.3170 -1.2694  0.0383
   26MOL0     O 3434   4.037  10.272  10.111 -0.2285  0.0901  0.0257
   26MOL0     C 3435   3.981  10.165  10.183 -0.3424 -0.0397 -0.3702
   26MOL0     C 3436   3.829  10.158  10.164 -0.3441 -0.8937 -0.0244
   26MOL0     C 3437   3.788  10.171  10.018  0.7314  0.5062 -0.2068
   26MOL0     C 3438   3.642  10.115   9.988 -0.1527 -0.6299 -0.4367
   26MOL0     C 3439   3.614  10.141   9.841 -0.6208 -0.3255 -0.0861
   26MOL0     C 3440   3.591  10.160   9.722  0.2545  0.4819  0.2188
   26MOL0     C 3441   4.252  10.252  10.221 -0.1396  0.5217 -0.1210
   26MOL0     C 3442   4.385  10.283  10.219 -0.3645 -0.6180 -0.0726
   26MOL0     H 3443   4.840  10.156  10.191  1.3355 -0.4186 -0.3840
   26MOL0     H 3444   5.084  10.190  10.157 -0.1511  0.1516 -4.7628
   26MOL0     H 3445   5.277  10.618  10.186 -0.7661  0.5458  1.2430
   26MOL0     H 3446   5.214  10.542  10.328 -0.8829  1.2209 -0.3504
   26MOL0     H 3447   5.447  10.547  10.343  0.1336  1.3094 -1.1416
   26MOL0     H 3448   5.384  10.379  10.342  1.2796 -0.3821  0.4480
   26MOL0     H 3449   5.482  10.330  10.119 -1.2168  0.4970 -1.7739
   26MOL0     H 3450   5.512  10.502  10.086 -0.8819  2.1379  2.6504
   26MOL0     H 3451   5.661  10.511  10.276 -4.1308  1.9174  0.3290
   26MOL0     H 3452   5.633  10.337  10.310 -2.0182  0.9238  0.9277
   26MOL0     H 3453   5.711  10.310  10.043 -2.4965  1.4231 -0.0789
   26MOL0     H 3454   5.777  10.468  10.072  1.3664 -0.0738  1.6568
   26MOL0     H 3455   5.940  10.308  10.095  0.3264  0.3563  0.4808
   26MOL0     H 3456   5.913  10.348  10.260 -2.1439  3.7827 -1.3809
   26MOL0     H 3457   5.784  10.165  10.322  0.8112 -2.0677  0.3977
   26MOL0     H 3458   5.741  10.117  10.151 -0.2481  0.1611  0.7503
   26MOL0     H 3459   6.018  10.087  10.271  1.9843  0.1755 -2.5271
   26MOL0     H 3460   5.971  10.038  10.118  2.8085 -0.3213  0.6673
   26MOL0     H 3461   5.718   9.861  10.121 -0.6798 -3.0797 -0.4267
   26MOL0     H 3462   5.614   9.615  10.341 -1.8887  0.1620 -2.2732
   26MOL0     H 3463   5.607   9.646  10.177 -0.4318 -1.9288 -0.7896
   26MOL0     H 3464   5.843   9.484  10.289 -0.4889  1.1503  0.5547
   26MOL0     H 3465   5.819   9.511  10.128 -0.1502  2.3699 -1.0956
   26MOL0     H 3466   5.738   9.292  10.190  0.8296  0.3804 -1.0700
   26MOL0     H 3467   5.601   9.387  10.134  0.8252 -0.1789 -0.3169
   26MOL0     H 3468   5.685   9.379  10.432 -1.4258 -0.6878  0.2919
   26MOL0     H 3469   5.605   9.241  10.384  2.1866 -0.5019  0.0143
   26MOL0     H 3470   5.371   9.190  10.448  0.8997  0.3690  1.1228
   26MOL0     H 3471   5.018   9.096  10.424 -0.1042  1.7844 -2.8634
   26MOL0     H 3472   5.129   8.975  10.382 -0.3700  0.7123 -0.3196
   26MOL0     H 3473   5.171   9.071  10.516  1.6073 -0.6744 -0.6316
   26MOL0     H 3474   4.726   9.129  10.392 -0.0155 -0.7051 -0.5448
   26MOL0     H 3475   4.488   9.089  10.350 -0.1329  0.2570 -1.2881
   26MOL0     H 3476   4.272   9.047  10.284  5.1832  2.0413  1.9091
   26MOL0     H 3477   4.318   9.190  10.189  2.5976 -0.3165  1.1635
   26MOL0     H 3478   4.178   9.125   9.995 -0.2508  2.4982  0.5265
   26MOL0     H 3479   4.135   8.967  10.080 -1.8046  0.9273 -2.7104
   26MOL0     H 3480   4.083   9.251  10.156 -0.5547 -0.6904  0.6430
   26MOL0     H 3481   4.035   9.116  10.253  5.3897 -0.6078  0.5266
   26MOL0     H 3482   3.947   9.149   9.968 -1.3672 -3.2482 -1.2538
   26MOL0     H 3483   3.889   9.029  10.080  1.4030 -0.6888 -1.6492
   26MOL0     H 3484   3.855   9.329  10.106  4.1165 -1.2063  1.9727
   26MOL0     H 3485   3.781   9.221  10.220 -0.4047  0.5545  0.5341
   26MOL0     H 3486   3.723   9.230   9.914 -2.8592 -0.1024 -1.5471
   26MOL0     H 3487   3.646   9.125  10.028 -1.3108  1.0376 -1.2899
   26MOL0     H 3488   3.512   9.316   9.956  0.7238 -5.1325  0.4174
   26MOL0     H 3489   3.622   9.435  10.022  1.4050 -0.3700  1.3783
   26MOL0     H 3490   3.581   9.381  10.254 -1.1702 -0.5544  1.8763
   26MOL0     H 3491   3.540   9.217  10.210 -0.8985 -0.0958  1.2844
   26MOL0     H 3492   4.566   8.937   9.966 -0.7417  0.3199  0.1896
   26MOL0     H 3493   4.822   8.982   9.995 -1.6830  0.4082 -1.2824
   26MOL0     H 3494   5.144   9.426  10.080  0.7329  1.1720 -0.1299
   26MOL0     H 3495   5.363   9.498  10.164 -0.7762  0.8271  0.4941
   26MOL0     H 3496   5.032  10.614  10.168  0.4647 -0.5287 -2.6459
   26MOL0     H 3497   4.799  10.591  10.210  1.7374  1.8634 -0.7184
   26MOL0     H 3498   4.369  10.539   9.987  0.9257  0.8391  0.5685
   26MOL0     H 3499   4.132  10.463   9.993 -1.8283  1.2212  1.8293
   26MOL0     H 3500   4.022  10.073  10.139 -1.6407 -0.7052 -0.2121
   26MOL0     H 3501   4.013  10.178  10.287 -1.9572 -0.1837  0.1659
   26MOL0     H 3502   3.784  10.242  10.217  0.7528  1.2934 -2.3746
   26MOL0     H 3503   3.799  10.061  10.205 -2.4282 -0.6838 -0.9240
   26MOL0     H 3504   3.851  10.100   9.963  0.3226 -0.6272  0.7232
   26MOL0     H 3505   3.795  10.272   9.976 -0.7081  0.0958 -1.5494
   26MOL0     H 3506   3.565  10.173  10.040 -0.5176 -0.1494 -1.4654
   26MOL0     H 3507   3.624  10.011  10.013  0.3737 -0.9588 -1.3619
   26MOL0     H 3508   3.562  10.175   9.620 -1.2659  0.9380  0.6854
   26MOL0     H 3509   4.224  10.177  10.293  1.6931  0.2773  0.3895
   26MOL0     H 3510   4.447  10.223  10.285  0.6215 -1.1381 -1.4356
   27MOL0     O 3511   4.470   0.365   8.344 -0.5104  0.0627  0.1858
   27MOL0     C 3512   4.453   0.339   8.464 -0.2659 -0.0866  0.2384
   27MOL0     O 3513   4.333   0.353   8.532  0.0654 -0.3756 -0.2370
   27MOL0     C 3514   4.218   0.364   8.460 -0.0606 -0.2211 -0.2071
   27MOL0     C 3515   4.184   0.292   8.347  0.0338  1.1546 -0.2019
   27MOL0     C 3516   4.064   0.297   8.283  0.4215 -0.3175 -0.3601
   27MOL0     C 3517   3.964   0.385   8.333 -0.0134  0.4296 -0.4937
   27MOL0     O 3518   3.845   0.382   8.265 -0.6929 -0.4866 -0.2514
   27MOL0     C 3519   3.736   0.450   8.321 -0.7607 -0.9466  0.0269
   27MOL0     C 3520   3.619   0.390   8.246  0.0655 -0.1235 -0.2978
   27MOL0     C 3521   3.488   0.458   8.291  0.3818 -0.9083  0.0811
   27MOL0     C 3522   3.378   0.373   8.235  0.8070 -0.1346 -0.3089
   27MOL0     C 3523   3.242   0.447   8.219  0.6741 -0.3800 -0.4897
   27MOL0     C 3524   3.118   0.363   8.196 -0.7177 -0.1955 -0.0472
   27MOL0     C 3525   3.147   0.270   8.072 -0.5355  0.6045 -0.0405
   27MOL0     C 3526   3.164   0.331   7.939  0.1566 -0.2225 -0.1086
   27MOL0     N 3527   3.044   0.401   7.895 -0.4084 -0.8078  0.2393
   27MOL0     C 3528   3.023   0.537   7.883 -0.2713 -0.3900  0.2545
   27MOL0     C 3529   2.922   0.548   7.791  0.7536 -0.6411 -0.4091
   27MOL0     C 3530   2.866   0.690   7.751  0.3731  1.3412  0.0817
   27MOL0     C 3531   2.758   0.670   7.640 -0.4584  0.4437  0.5646
   27MOL0     C 3532   2.614   0.682   7.693  0.6157 -0.5969 -0.6412
   27MOL0     C 3533   2.521   0.700   7.576  0.5973 -0.7385  0.1115
   27MOL0     O 3534   2.379   0.707   7.612  0.2005 -0.0732 -0.7741
   27MOL0     C 3535   2.292   0.609   7.576 -0.5466 -0.2634 -0.0630
   27MOL0     C 3536   2.158   0.632   7.596  0.2156  0.1193 -0.6022
   27MOL0     C 3537   2.059   0.534   7.565  0.1849  0.1237  0.4241
   27MOL0     C 3538   1.916   0.587   7.553  0.0600  0.8024 -0.5756
   27MOL0     C 3539   2.088   0.404   7.514  0.4200  0.3091  0.0280
   27MOL0     C 3540   2.002   0.301   7.454  0.7540 -0.3459 -0.2353
   27MOL0     O 3541   1.865   0.316   7.482  0.0146 -0.6667 -0.1574
   27MOL0     C 3542   1.763   0.245   7.430  0.2100 -0.1578 -0.2561
   27MOL0     C 3543   1.645   0.254   7.507  0.4036  0.0947  0.3003
   27MOL0     C 3544   1.527   0.190   7.454  0.4279 -0.7101 -0.0693
   27MOL0     C 3545   1.533   0.111   7.339 -0.5340 -0.7403 -0.2803
   27MOL0     O 3546   1.421   0.043   7.301 -0.7323  0.3715  0.0310
   27MOL0     C 3547   1.359   0.069   7.178  0.0334 -0.0374  0.3727
   27MOL0     C 3548   1.230  -0.001   7.169  0.1705 -0.2871  0.4370
   27MOL0     C 3549   1.129   0.038   7.287  0.4064 -0.5226 -0.5717
   27MOL0     C 3550   0.981  -0.003   7.257 -0.8985 -0.0423  0.1544
   27MOL0     C 3551   0.886   0.016   7.367 -0.7010 -0.4248  0.0022
   27MOL0     C 3552   0.775  -0.095   7.363  0.1284 -0.4692  0.3194
   27MOL0     C 3553   0.693  -0.076   7.488  0.0543  0.0383  0.2988
   27MOL0     C 3554   0.572  -0.163   7.505 -0.6294  0.7646  0.5298
   27MOL0    Cl 3555   0.486  -0.137   7.649  0.6941  0.2954 -0.1834
   27MOL0     C 3556   1.653   0.101   7.271  0.0496 -0.1910 -0.0830
   27MOL0     C 3557   1.770   0.166   7.314  0.2884  0.7927 -1.3437
   27MOL0     O 3558   2.056   0.201   7.400 -0.4407 -0.2634 -0.0128
   27MOL0     C 3559   2.231   0.382   7.502 -0.0165  0.2313  0.7191
   27MOL0     C 3560   2.330   0.477   7.532  0.5760 -0.1190  0.5066
   27MOL0     N 3561   2.883   0.420   7.765  0.6295  0.2112 -0.8951
   27MOL0     N 3562   2.946   0.334   7.833 -0.9196  0.0119  0.0773
   27MOL0     C 3563   3.992   0.460   8.450  0.1175 -0.2132 -0.5511
   27MOL0     C 3564   4.115   0.451   8.515  0.0020 -0.2558 -0.3471
   27MOL0     C 3565   4.567   0.276   8.535 -0.6523 -0.8624  0.3318
   27MOL0     C 3566   4.690   0.254   8.464 -0.8596  0.5406 -0.6811
   27MOL0     C 3567   4.801   0.204   8.534  0.5476 -0.0747 -1.0621
   27MOL0     C 3568   4.791   0.170   8.671 -0.8010  0.5727  0.1346
   27MOL0     O 3569   4.897   0.125   8.746  0.0973  0.6939  0.2202
   27MOL0     C 3570   4.915  -0.020   8.734  0.0475 -0.3434  0.4740
   27MOL0     C 3571   5.061  -0.051   8.765 -0.1857  1.1943  0.0727
   27MOL0     C 3572   5.154   0.004   8.653 -0.0305  0.3375 -0.4343
   27MOL0     C 3573   5.303  -0.026   8.679  0.1379  0.6032 -0.6393
   27MOL0     C 3574   5.387   0.002   8.557 -0.0113  1.1290 -0.3291
   27MOL0     C 3575   5.461   0.024   8.466  0.2266 -0.4632  0.6002
   27MOL0     C 3576   4.668   0.182   8.736  0.7321 -0.1012  0.3805
   27MOL0     C 3577   4.564   0.248   8.674  0.0791  0.0968  1.2825
   27MOL0     H 3578   4.261   0.241   8.289  0.1249  1.3673 -0.2693
   27MOL0     H 3579   4.036   0.234   8.199 -2.3800  1.3431 -0.7871
   27MOL0     H 3580   3.731   0.445   8.431 -0.1944  0.5883  0.1548
   27MOL0     H 3581   3.744   0.557   8.299 -2.2007 -0.7572  0.3251
   27MOL0     H 3582   3.627   0.401   8.137 -1.0449  1.0921 -0.2777
   27MOL0     H 3583   3.619   0.285   8.274  2.0100  0.1633  1.0100
   27MOL0     H 3584   3.484   0.465   8.400  2.8560  0.4616  0.1463
   27MOL0     H 3585   3.479   0.554   8.240  0.5190 -0.9127  0.0477
   27MOL0     H 3586   3.407   0.343   8.134 -0.4494  0.8623 -0.9882
   27MOL0     H 3587   3.370   0.289   8.304 -0.9808  0.0981 -0.1924
   27MOL0     H 3588   3.239   0.500   8.315  1.0813 -2.9141  1.0233
   27MOL0     H 3589   3.256   0.508   8.130 -0.0215 -0.5478 -0.7190
   27MOL0     H 3590   3.105   0.306   8.288  3.5543 -2.1481 -0.3956
   27MOL0     H 3591   3.032   0.426   8.172  0.4964  1.3763 -0.4656
   27MOL0     H 3592   3.238   0.210   8.085 -0.1219  0.3046 -3.5584
   27MOL0     H 3593   3.061   0.203   8.074  1.0914 -1.6168  1.6248
   27MOL0     H 3594   3.187   0.250   7.869  0.0335 -1.1195  0.8765
   27MOL0     H 3595   3.238   0.412   7.934  1.4744 -1.4075 -0.3623
   27MOL0     H 3596   3.071   0.624   7.928  1.2713 -0.1104 -1.8098
   27MOL0     H 3597   2.808   0.732   7.833 -1.9505 -1.5784  0.1097
   27MOL0     H 3598   2.947   0.754   7.715  2.5637 -2.9267 -3.7528
   27MOL0     H 3599   2.778   0.579   7.584  3.3963  1.8294 -0.6436
   27MOL0     H 3600   2.764   0.755   7.572 -0.7228  1.5930  1.9286
   27MOL0     H 3601   2.589   0.769   7.755 -2.8698  0.3602 -3.0697
   27MOL0     H 3602   2.571   0.605   7.758  0.1394  2.5421  3.1632
   27MOL0     H 3603   2.538   0.625   7.497  1.9977 -1.3007  0.9165
   27MOL0     H 3604   2.544   0.798   7.533 -1.6799  0.0876  0.6150
   27MOL0     H 3605   2.125   0.734   7.611 -0.9130 -0.2669 -0.3191
   27MOL0     H 3606   1.875   0.596   7.452  0.5388 -0.5122 -0.8973
   27MOL0     H 3607   1.858   0.514   7.610  0.4786 -0.1002 -1.2889
   27MOL0     H 3608   1.892   0.676   7.613 -2.5268 -2.5512  3.9761
   27MOL0     H 3609   1.645   0.319   7.594  1.2378  1.7732 -0.8917
   27MOL0     H 3610   1.430   0.192   7.501 -0.1717 -0.5383 -1.2782
   27MOL0     H 3611   1.351   0.178   7.166  1.3103 -0.1070 -1.5106
   27MOL0     H 3612   1.430   0.041   7.100  0.2683  1.1630  0.1275
   27MOL0     H 3613   1.209   0.039   7.069  3.0299  1.3545  0.3934
   27MOL0     H 3614   1.248  -0.108   7.154  1.2412  0.0168 -0.6341
   27MOL0     H 3615   1.117   0.147   7.284 -0.3598 -0.6054 -0.7194
   27MOL0     H 3616   1.164   0.006   7.386 -0.5753 -0.0601 -0.0645
   27MOL0     H 3617   0.957   0.065   7.175  2.1970  1.7737  0.5923
   27MOL0     H 3618   0.990  -0.106   7.223  0.2797 -0.2383  1.0069
   27MOL0     H 3619   0.848   0.118   7.354 -0.1487 -0.0913  0.9062
   27MOL0     H 3620   0.925   0.014   7.469 -1.4194  0.2808  0.3040
   27MOL0     H 3621   0.704  -0.078   7.282 -2.3706 -0.1226  2.4358
   27MOL0     H 3622   0.813  -0.198   7.361 -0.2306 -0.6040 -1.6810
   27MOL0     H 3623   0.674   0.029   7.508 -0.5872  0.6673 -2.9942
   27MOL0     H 3624   0.763  -0.095   7.570  1.2503  2.4321 -0.0854
   27MOL0     H 3625   0.603  -0.268   7.495  1.3974  1.4901 -2.1180
   27MOL0     H 3626   0.504  -0.144   7.422  2.0359  1.6134 -1.6166
   27MOL0     H 3627   1.652   0.042   7.180 -2.5068  1.0702 -0.9702
   27MOL0     H 3628   1.859   0.166   7.252  0.2055 -2.1356 -1.5926
   27MOL0     H 3629   2.269   0.286   7.468 -1.1539  0.3869 -1.1486
   27MOL0     H 3630   2.429   0.438   7.510  0.6378 -0.4980  1.4048
   27MOL0     H 3631   3.917   0.527   8.490  0.0171  0.1191 -1.2704
   27MOL0     H 3632   4.138   0.514   8.601 -1.3262 -0.1691 -0.0400
   27MOL0     H 3633   4.702   0.262   8.357 -0.1078  2.3969 -0.5087
   27MOL0     H 3634   4.902   0.190   8.496  1.5240  0.3539  1.2138
   27MOL0     H 3635   4.848  -0.064   8.808 -2.4337  0.0877 -1.3778
   27MOL0     H 3636   4.886  -0.066   8.639  0.2117 -1.1615  0.8072
   27MOL0     H 3637   5.070  -0.160   8.772 -3.1333  0.9795  2.5445
   27MOL0     H 3638   5.088  -0.011   8.863 -1.1660 -1.5850  1.5865
   27MOL0     H 3639   5.145   0.112   8.637 -0.2331  0.0737 -2.3305
   27MOL0     H 3640   5.130  -0.031   8.552  1.9393  1.8247 -1.4905
   27MOL0     H 3641   5.307  -0.130   8.711 -0.2802  0.5304 -0.8221
   27MOL0     H 3642   5.336   0.041   8.759  1.7032  0.0223 -0.7577
   27MOL0     H 3643   5.529   0.035   8.384 -1.8424  0.1883 -1.1068
   27MOL0     H 3644   4.660   0.146   8.838 -0.3161 -1.2186 -0.0652
   27MOL0     H 3645   4.473   0.265   8.731  0.0109 -0.9454  1.5035
   28MOL0     O 3646   3.823   0.372  10.397  0.8370 -0.0132 -0.0992
   28MOL0     C 3647   3.860   0.279  10.329  0.4214 -0.2397 -0.7287
   28MOL0     O 3648   3.784   0.178  10.281  0.0346  0.2628  0.4749
   28MOL0     C 3649   3.653   0.176  10.319 -0.0800 -0.2354  0.3384
   28MOL0     C 3650   3.542   0.214  10.241 -0.4219 -0.4010  0.3134
   28MOL0     C 3651   3.408   0.207  10.301 -1.0820  0.5192  0.3112
   28MOL0     C 3652   3.394   0.163  10.432  0.1197  0.3724 -0.1510
   28MOL0     O 3653   3.259   0.157  10.476 -0.5229  0.4573  0.1566
   28MOL0     C 3654   3.239   0.136  10.617  0.3529 -0.6192 -0.1862
   28MOL0     C 3655   3.094   0.158  10.639 -0.0893  0.4969  0.4419
   28MOL0     C 3656   2.999   0.052  10.576 -0.1463 -0.5399 -0.4413
   28MOL0     C 3657   2.846   0.078  10.595 -0.9995  0.4056 -0.3102
   28MOL0     C 3658   2.782  -0.043  10.526 -0.3584 -0.5031  0.2835
   28MOL0     C 3659   2.630  -0.051  10.559  0.0227 -0.8745 -0.1747
   28MOL0     C 3660   2.562  -0.177  10.500 -0.2948  0.3467  0.2660
   28MOL0     C 3661   2.408  -0.154  10.488 -0.9216  0.5230  0.5398
   28MOL0     N 3662   2.346  -0.255  10.397 -0.8572 -0.5048  0.5629
   28MOL0     C 3663   2.234  -0.235  10.325  0.2359  0.6752 -0.7668
   28MOL0     C 3664   2.201  -0.354  10.262 -0.0126 -0.9785 -0.2738
   28MOL0     C 3665   2.078  -0.383  10.176 -0.4410 -0.0557 -0.3775
   28MOL0     C 3666   1.944  -0.330  10.221 -0.5273  0.0219  0.2151
   28MOL0     C 3667   1.885  -0.432  10.320  1.3161 -0.1455 -0.2024
   28MOL0     C 3668   1.729  -0.432  10.333  0.8991 -0.1802  0.4191
   28MOL0     O 3669   1.696  -0.290  10.362 -0.3464  0.0059 -0.0835
   28MOL0     C 3670   1.561  -0.267  10.385  0.5762 -0.4466  0.6378
   28MOL0     C 3671   1.530  -0.139  10.440  1.0278 -0.2323  0.5593
   28MOL0     C 3672   1.398  -0.103  10.466 -0.1292 -0.7229  0.3295
   28MOL0     C 3673   1.380   0.045  10.499 -0.4535  0.7182 -0.2707
   28MOL0     C 3674   1.287  -0.193  10.462  0.8130 -0.8346 -0.2542
   28MOL0     C 3675   1.148  -0.151  10.495 -0.2295 -0.7465  0.8539
   28MOL0     O 3676   1.051  -0.236  10.476  0.3828 -0.2187  0.2290
   28MOL0     C 3677   0.925  -0.186  10.468  0.7374 -0.5499  0.3629
   28MOL0     C 3678   0.833  -0.192  10.576  0.3776  0.0376 -0.0482
   28MOL0     C 3679   0.704  -0.124  10.577 -0.9524  0.4810 -0.3056
   28MOL0     C 3680   0.661  -0.058  10.464 -0.4159  0.3300  0.2780
   28MOL0     O 3681   0.535  -0.004  10.456  0.1687 -0.3635  0.3616
   28MOL0     C 3682   0.467  -0.013  10.335  1.0965  0.0017 -0.2988
   28MOL0     C 3683   0.314   0.002  10.356 -0.0363  0.0514  0.1316
   28MOL0     C 3684   0.269   0.133  10.419  0.0049  0.8333 -0.1733
   28MOL0     C 3685   0.123   0.167  10.403 -0.3422  0.3731  0.1108
   28MOL0     C 3686   0.095   0.317  10.435 -0.5552 -0.1821  0.0304
   28MOL0     C 3687  -0.053   0.352  10.415  0.3650  0.2619 -0.3466
   28MOL0     C 3688  -0.076   0.505  10.430  0.4313 -0.1155 -0.9811
   28MOL0     C 3689  -0.214   0.536  10.387 -0.5273  0.2248 -0.3866
   28MOL0    Cl 3690  -0.344   0.456  10.481  0.1135  0.0405 -0.1148
   28MOL0     C 3691   0.754  -0.041  10.358 -0.2007  0.2679 -1.0753
   28MOL0     C 3692   0.879  -0.104  10.362  0.7468  0.2887  0.0430
   28MOL0     O 3693   1.141  -0.051  10.571 -0.1450 -0.0760 -0.2534
   28MOL0     C 3694   1.318  -0.321  10.411  0.5874 -0.0074  0.0450
   28MOL0     C 3695   1.453  -0.356  10.381 -0.2562 -0.3828  0.1336
   28MOL0     N 3696   2.294  -0.448  10.305  0.2061 -0.2668  0.2638
   28MOL0     N 3697   2.378  -0.391  10.377 -0.1618 -0.1359 -0.5346
   28MOL0     C 3698   3.507   0.116  10.502  0.0650 -0.3927 -0.6070
   28MOL0     C 3699   3.633   0.133  10.449  0.2952  0.0174 -0.7982
   28MOL0     C 3700   4.012   0.280  10.304  0.0615  0.6105 -0.1130
   28MOL0     C 3701   4.076   0.187  10.215  0.4054  0.5023 -0.6861
   28MOL0     C 3702   4.203   0.211  10.173  0.5791 -0.2670 -0.2871
   28MOL0     C 3703   4.281   0.314  10.218  0.2563 -0.0852 -0.0002
   28MOL0     O 3704   4.408   0.348  10.181  0.3674  0.2485  0.2656
   28MOL0     C 3705   4.490   0.244  10.137 -0.6089  0.2712 -0.3538
   28MOL0     C 3706   4.640   0.264  10.153  0.0007  0.2667 -0.2778
   28MOL0     C 3707   4.686   0.227  10.298 -0.6439  0.4956  0.0483
   28MOL0     C 3708   4.825   0.177  10.312  0.3845  0.1620  0.0832
   28MOL0     C 3709   4.876   0.193  10.444  0.6306 -0.2897 -0.1549
   28MOL0     C 3710   4.923   0.201  10.555 -0.0224  1.1924  0.8776
   28MOL0     C 3711   4.228   0.396  10.318  0.7346 -0.3605  0.6435
   28MOL0     C 3712   4.092   0.383  10.353  0.1618 -0.0342  0.7383
   28MOL0     H 3713   3.556   0.258  10.143  0.3184  0.3278  0.7287
   28MOL0     H 3714   3.320   0.237  10.245 -0.5664  1.2563 -0.1230
   28MOL0     H 3715   3.274   0.036  10.644  2.6297 -0.3788 -1.9205
   28MOL0     H 3716   3.280   0.215  10.681 -0.6995 -0.8679  0.8187
   28MOL0     H 3717   3.073   0.155  10.746 -2.8128  1.2963  0.0067
   28MOL0     H 3718   3.061   0.254  10.598 -1.8429  0.3009  1.3141
   28MOL0     H 3719   3.024   0.043  10.470  1.0844 -1.1638 -0.1215
   28MOL0     H 3720   3.030  -0.038  10.630  0.6764 -0.8233 -1.3541
   28MOL0     H 3721   2.837   0.076  10.704  1.3120 -0.4029 -0.0686
   28MOL0     H 3722   2.820   0.176  10.553  0.8453 -0.1210 -2.8992
   28MOL0     H 3723   2.801  -0.024  10.420  0.5152 -0.9956  0.3431
   28MOL0     H 3724   2.827  -0.136  10.563  0.5543 -0.4552 -0.6653
   28MOL0     H 3725   2.615  -0.050  10.667 -0.7575  1.6330 -0.2374
   28MOL0     H 3726   2.578   0.038  10.521 -0.5598 -0.1258  2.1884
   28MOL0     H 3727   2.605  -0.181  10.400  0.0447  1.6979  0.3386
   28MOL0     H 3728   2.579  -0.264  10.564  0.8064  0.3202 -0.0552
   28MOL0     H 3729   2.383  -0.056  10.446 -1.9095  0.8203  1.7590
   28MOL0     H 3730   2.367  -0.162  10.589  0.3956 -0.1531  1.0340
   28MOL0     H 3731   2.170  -0.148  10.318 -0.4949  0.1328 -0.9923
   28MOL0     H 3732   2.104  -0.332  10.082  2.5391  1.1084  0.9626
   28MOL0     H 3733   2.086  -0.487  10.145 -0.3024 -0.1445 -0.0418
   28MOL0     H 3734   1.873  -0.354  10.141 -0.1312  0.4673 -0.2829
   28MOL0     H 3735   1.941  -0.224  10.246 -2.0528  0.2373 -0.7519
   28MOL0     H 3736   1.920  -0.416  10.422 -0.2177 -2.0552  0.6772
   28MOL0     H 3737   1.907  -0.536  10.295 -1.3189 -0.7950 -0.0888
   28MOL0     H 3738   1.688  -0.494  10.413 -0.2756 -0.1081 -0.0954
   28MOL0     H 3739   1.682  -0.461  10.239  0.9034 -1.2588  0.7402
   28MOL0     H 3740   1.608  -0.064  10.442  0.0687  0.8899 -1.1853
   28MOL0     H 3741   1.295   0.085  10.443 -0.0858  3.8946  1.2501
   28MOL0     H 3742   1.369   0.066  10.605 -1.0280  0.6417 -0.3098
   28MOL0     H 3743   1.466   0.099  10.459  1.2147 -2.1653 -0.8771
   28MOL0     H 3744   0.850  -0.244  10.669 -0.6245 -1.0262 -0.4284
   28MOL0     H 3745   0.630  -0.139  10.655 -0.0875  0.3675  0.5068
   28MOL0     H 3746   0.496   0.061  10.261  1.1247 -1.3319 -1.6835
   28MOL0     H 3747   0.488  -0.108  10.284 -1.9605 -0.6136 -0.6382
   28MOL0     H 3748   0.269  -0.013  10.257  1.2907 -0.3828 -0.4269
   28MOL0     H 3749   0.293  -0.079  10.427  2.3935 -0.6355  0.1658
   28MOL0     H 3750   0.326   0.207  10.363  0.7740  0.4181  0.0484
   28MOL0     H 3751   0.293   0.140  10.525 -0.8685 -3.1978  0.4563
   28MOL0     H 3752   0.101   0.150  10.297  0.4566 -2.4197  0.3306
   28MOL0     H 3753   0.056   0.106  10.464  1.0362 -0.4179  0.8770
   28MOL0     H 3754   0.144   0.386  10.365 -0.8960 -0.4174 -0.4426
   28MOL0     H 3755   0.113   0.340  10.540 -4.7075  0.2439  0.8184
   28MOL0     H 3756  -0.083   0.320  10.315  2.6992 -0.6040 -0.8535
   28MOL0     H 3757  -0.107   0.305  10.498  0.7660  0.3086 -0.0532
   28MOL0     H 3758  -0.003   0.563  10.372  0.7369  1.5049  0.9284
   28MOL0     H 3759  -0.056   0.534  10.533  1.8891  1.2155 -1.5902
   28MOL0     H 3760  -0.227   0.495  10.286 -1.1334 -0.8357  0.1148
   28MOL0     H 3761  -0.236   0.643  10.397 -0.1426  0.4006 -1.3089
   28MOL0     H 3762   0.725   0.021  10.274  0.6667  0.4169 -1.2696
   28MOL0     H 3763   0.954  -0.090  10.285  3.0372 -2.9619  1.4489
   28MOL0     H 3764   1.247  -0.403  10.401 -2.0543  2.1935 -0.1580
   28MOL0     H 3765   1.461  -0.458  10.345 -1.6812 -0.3392 -0.3890
   28MOL0     H 3766   3.498   0.070  10.600 -1.2283  1.1968  0.0819
   28MOL0     H 3767   3.726   0.102  10.494  0.9062  2.2601 -0.4325
   28MOL0     H 3768   4.026   0.099  10.177  0.7655  0.6175 -1.4334
   28MOL0     H 3769   4.246   0.139  10.105 -0.8571  0.3146 -1.8893
   28MOL0     H 3770   4.469   0.159  10.203  0.6793 -1.6876 -2.3366
   28MOL0     H 3771   4.460   0.210  10.038 -2.7670  0.7895  0.0783
   28MOL0     H 3772   4.670   0.362  10.115 -1.9612 -0.0606 -2.9250
   28MOL0     H 3773   4.695   0.199  10.084  1.8844 -0.0381  1.4009
   28MOL0     H 3774   4.623   0.148  10.340  0.1524 -0.4012 -0.4088
   28MOL0     H 3775   4.665   0.313  10.361 -2.8916 -1.6391  2.4771
   28MOL0     H 3776   4.889   0.228  10.240  0.5130 -2.3624 -1.7472
   28MOL0     H 3777   4.826   0.071  10.283  2.2896  0.1936 -0.1473
   28MOL0     H 3778   4.968   0.204  10.652  2.2664  1.8762 -0.1281
   28MOL0     H 3779   4.293   0.473  10.359 -0.4388  1.4557 -0.7286
   28MOL0     H 3780   4.048   0.443  10.432  0.4522  1.5074 -0.2241
   29MOL0     O 3781   3.657   2.269   8.868 -0.2492  0.1816 -0.7424
   29MOL0     C 3782   3.758   2.264   8.800 -0.9118  0.5441  0.5771
   29MOL0     O 3783   3.763   2.264   8.664  0.1787 -0.0185 -0.2533
   29MOL0     C 3784   3.644   2.279   8.587 -0.0442 -0.3268 -0.6687
   29MOL0     C 3785   3.604   2.401   8.525  1.0461 -0.1837 -0.4129
   29MOL0     C 3786   3.496   2.409   8.450 -0.2141 -0.9286  0.1180
   29MOL0     C 3787   3.412   2.308   8.438 -0.0765  1.0163  0.6614
   29MOL0     O 3788   3.304   2.318   8.345  0.1459  1.1736 -0.9582
   29MOL0     C 3789   3.178   2.252   8.379  0.3511  0.7036 -0.4873
   29MOL0     C 3790   3.047   2.322   8.325 -0.1313 -0.2592 -0.0225
   29MOL0     C 3791   3.046   2.375   8.174  0.0072 -0.1435  0.3675
   29MOL0     C 3792   2.918   2.449   8.145  0.1524 -0.6722 -0.1509
   29MOL0     C 3793   2.899   2.487   7.994  0.1922  0.4281 -0.6015
   29MOL0     C 3794   2.837   2.379   7.911  0.2241 -0.2598 -0.2567
   29MOL0     C 3795   2.763   2.431   7.791  0.4814 -0.1390  0.5526
   29MOL0     C 3796   2.864   2.505   7.704  0.8494 -0.3368  0.3718
   29MOL0     N 3797   2.803   2.571   7.597  0.8620 -0.4517 -0.3014
   29MOL0     C 3798   2.757   2.704   7.599  0.0720  0.3509  0.1845
   29MOL0     C 3799   2.723   2.721   7.464 -0.1185  0.0132 -0.0298
   29MOL0     C 3800   2.661   2.835   7.385 -0.0524  0.1940 -0.4644
   29MOL0     C 3801   2.552   2.917   7.461 -1.5933 -0.5501 -0.0722
   29MOL0     C 3802   2.614   3.014   7.557 -0.1495  0.0007 -1.1389
   29MOL0     C 3803   2.505   3.070   7.660  0.6698 -0.8827  0.3597
   29MOL0     O 3804   2.461   2.970   7.744  0.0861  0.5328 -0.2233
   29MOL0     C 3805   2.330   2.979   7.790  0.4616 -0.0290 -0.6319
   29MOL0     C 3806   2.279   2.858   7.835  0.2532  0.1553  0.6418
   29MOL0     C 3807   2.147   2.834   7.870  0.4140  0.7063  1.1938
   29MOL0     C 3808   2.098   2.690   7.920  0.2538 -0.7243  0.8951
   29MOL0     C 3809   2.055   2.941   7.863  0.0990 -0.2313 -0.5164
   29MOL0     C 3810   1.912   2.934   7.894 -0.8719  1.7126  0.0472
   29MOL0     O 3811   1.842   2.828   7.850  0.0093 -0.0924  1.0868
   29MOL0     C 3812   1.710   2.811   7.883  0.6434  0.5734 -0.5253
   29MOL0     C 3813   1.680   2.703   7.972  0.0051 -0.0730 -0.5789
   29MOL0     C 3814   1.547   2.683   8.018 -0.1926  0.0582 -0.6176
   29MOL0     C 3815   1.451   2.777   7.987  0.1581  0.3722 -0.3963
   29MOL0     O 3816   1.327   2.775   8.034  1.0067  0.5289 -0.6284
   29MOL0     C 3817   1.271   2.646   8.075 -0.1644  0.4016  0.0123
   29MOL0     C 3818   1.137   2.684   8.138  0.3262 -0.5625  0.0131
   29MOL0     C 3819   1.155   2.753   8.271  0.3788  0.4783  0.1835
   29MOL0     C 3820   1.026   2.800   8.335  0.1875  0.3802 -0.5760
   29MOL0     C 3821   0.926   2.687   8.387 -0.1548  0.4430  0.3253
   29MOL0     C 3822   0.785   2.727   8.410 -0.2200  0.3376 -1.0292
   29MOL0     C 3823   0.772   2.801   8.541  0.6928  0.3557  0.6893
   29MOL0     C 3824   0.625   2.817   8.577 -0.5665 -0.6359 -0.8039
   29MOL0    Cl 3825   0.536   2.653   8.595 -0.1516  0.2524  0.0647
   29MOL0     C 3826   1.479   2.876   7.889 -0.4435 -0.1879  0.5762
   29MOL0     C 3827   1.605   2.882   7.836  0.3732 -0.5894  0.4583
   29MOL0     O 3828   1.867   3.022   7.961 -0.2326  0.4767  0.6655
   29MOL0     C 3829   2.108   3.072   7.828  0.3340  0.2009 -0.1031
   29MOL0     C 3830   2.240   3.096   7.783 -0.6586 -0.0557  1.1393
   29MOL0     N 3831   2.760   2.611   7.395 -0.0561  0.0020  0.3001
   29MOL0     N 3832   2.810   2.519   7.474 -1.0653  0.3132 -0.3522
   29MOL0     C 3833   3.444   2.184   8.495  0.2203  0.5664 -0.4846
   29MOL0     C 3834   3.558   2.166   8.567  0.0517 -0.6681 -0.5719
   29MOL0     C 3835   3.895   2.258   8.859 -0.2175 -0.2770 -0.4604
   29MOL0     C 3836   4.013   2.241   8.787 -0.1032  0.3515 -0.6240
   29MOL0     C 3837   4.141   2.243   8.845 -0.0105  0.1111 -0.5428
   29MOL0     C 3838   4.151   2.247   8.983  0.1915  0.2362 -0.7985
   29MOL0     O 3839   4.266   2.256   9.059 -0.4748 -0.1488 -0.3783
   29MOL0     C 3840   4.384   2.280   8.982 -0.1355  0.1139  0.2544
   29MOL0     C 3841   4.501   2.300   9.073  0.1446 -0.9312 -0.0080
   29MOL0     C 3842   4.513   2.209   9.182  1.0806 -0.2707 -0.6610
   29MOL0     C 3843   4.636   2.258   9.258  0.0166 -0.5934  0.0525
   29MOL0     C 3844   4.648   2.180   9.375 -0.5476  0.6253  0.7248
   29MOL0     C 3845   4.642   2.132   9.487 -0.7132 -0.3918  0.8740
   29MOL0     C 3846   4.029   2.266   9.058 -0.7302 -1.0899 -0.1473
   29MOL0     C 3847   3.909   2.263   8.995 -0.9613  0.0182  0.3882
   29MOL0     H 3848   3.670   2.486   8.536 -0.5546  1.1102 -0.5213
   29MOL0     H 3849   3.476   2.503   8.399  0.7512  0.1042  1.5495
   29MOL0     H 3850   3.183   2.150   8.339 -2.1991 -0.5441  2.0232
   29MOL0     H 3851   3.173   2.251   8.488  2.9241  1.0241 -0.2869
   29MOL0     H 3852   2.964   2.251   8.321 -1.0247  0.7832 -4.0526
   29MOL0     H 3853   3.034   2.399   8.402  1.0368 -0.9950  0.9504
   29MOL0     H 3854   3.126   2.449   8.158 -1.6942  1.1747 -3.5209
   29MOL0     H 3855   3.068   2.288   8.112  0.9172  0.3806 -0.0603
   29MOL0     H 3856   2.834   2.396   8.190  0.3461  0.4350  1.5892
   29MOL0     H 3857   2.917   2.541   8.203  2.3627 -1.0515  0.5825
   29MOL0     H 3858   2.848   2.583   7.984  2.7547  1.9102 -0.3060
   29MOL0     H 3859   2.996   2.521   7.958  0.0385 -0.0140 -1.4585
   29MOL0     H 3860   2.912   2.304   7.884  0.1229 -0.6507  0.5134
   29MOL0     H 3861   2.759   2.328   7.969  2.6712 -1.9468  1.7821
   29MOL0     H 3862   2.708   2.357   7.732  0.3890 -1.0766  1.7586
   29MOL0     H 3863   2.687   2.507   7.810 -1.4601 -1.3587 -1.7434
   29MOL0     H 3864   2.943   2.434   7.676 -1.4528 -2.7219 -0.4657
   29MOL0     H 3865   2.909   2.582   7.768  0.3104 -0.9832  1.5733
   29MOL0     H 3866   2.731   2.776   7.675  4.1797  2.4602 -0.1747
   29MOL0     H 3867   2.738   2.910   7.367  2.1145 -1.9810 -0.7220
   29MOL0     H 3868   2.616   2.800   7.292 -1.8022  0.6675  0.1675
   29MOL0     H 3869   2.495   2.840   7.514 -0.0393 -0.7966  1.3093
   29MOL0     H 3870   2.493   2.982   7.396 -1.8122 -0.0438  0.6224
   29MOL0     H 3871   2.651   3.099   7.498  0.3133  0.4416 -0.2230
   29MOL0     H 3872   2.699   2.967   7.608 -1.9411 -0.4705  1.5631
   29MOL0     H 3873   2.424   3.094   7.590  1.4264 -1.0786 -0.6088
   29MOL0     H 3874   2.542   3.161   7.706  0.4176 -1.1291  1.0534
   29MOL0     H 3875   2.355   2.782   7.850 -1.8934 -1.8607  2.0643
   29MOL0     H 3876   2.071   2.683   8.026 -0.3322 -3.4459  0.6421
   29MOL0     H 3877   2.009   2.665   7.861 -0.0468 -0.4699  1.2384
   29MOL0     H 3878   2.176   2.613   7.921 -2.4214 -3.6727  0.4740
   29MOL0     H 3879   1.769   2.646   7.993  1.4387  2.1135 -0.3435
   29MOL0     H 3880   1.524   2.596   8.079 -0.6104  1.5228  1.4296
   29MOL0     H 3881   1.269   2.576   7.991  0.0402  0.5168 -0.0907
   29MOL0     H 3882   1.328   2.593   8.152  0.4015  0.2666 -0.4816
   29MOL0     H 3883   1.067   2.729   8.067 -0.5089  1.1908  1.8555
   29MOL0     H 3884   1.090   2.589   8.166  0.4738 -0.4184  0.7649
   29MOL0     H 3885   1.209   2.844   8.246  1.2289  0.5626  2.1553
   29MOL0     H 3886   1.219   2.695   8.337 -0.5763  1.9445  2.5258
   29MOL0     H 3887   1.047   2.874   8.413  2.1980 -1.3052  0.5510
   29MOL0     H 3888   0.969   2.866   8.268  2.2979  1.2924 -1.5607
   29MOL0     H 3889   0.963   2.643   8.481 -0.0842  1.9079  1.0026
   29MOL0     H 3890   0.927   2.604   8.315  3.2243 -1.2063  2.0286
   29MOL0     H 3891   0.746   2.799   8.338 -2.2150 -0.7860 -1.1469
   29MOL0     H 3892   0.720   2.639   8.408 -1.0160  0.8195  1.2158
   29MOL0     H 3893   0.821   2.898   8.529  0.0302  0.3828 -2.7054
   29MOL0     H 3894   0.817   2.743   8.623  0.9267 -0.4188  0.0292
   29MOL0     H 3895   0.581   2.879   8.499 -1.4222 -1.1837 -0.7710
   29MOL0     H 3896   0.615   2.885   8.662 -1.8812  0.3928 -1.7416
   29MOL0     H 3897   1.399   2.944   7.860  0.8048  1.9466  1.8949
   29MOL0     H 3898   1.627   2.958   7.761  0.6557 -0.6723  0.4537
   29MOL0     H 3899   2.044   3.159   7.829 -1.2300 -0.8764 -1.4289
   29MOL0     H 3900   2.281   3.185   7.737  1.1724 -0.5098  1.8155
   29MOL0     H 3901   3.373   2.104   8.476  2.3089 -1.7986  0.9501
   29MOL0     H 3902   3.596   2.076   8.614  0.5452 -0.1729 -0.0074
   29MOL0     H 3903   4.009   2.237   8.679 -2.1194 -1.7536 -0.5350
   29MOL0     H 3904   4.233   2.246   8.787  0.0615 -2.3245 -0.6690
   29MOL0     H 3905   4.408   2.191   8.924  2.0400 -0.7150  2.2555
   29MOL0     H 3906   4.361   2.362   8.914 -2.1582 -0.2022  0.4943
   29MOL0     H 3907   4.496   2.403   9.109  2.7200 -0.1086 -1.7498
   29MOL0     H 3908   4.592   2.304   9.013 -0.7228  2.6007 -1.3188
   29MOL0     H 3909   4.540   2.109   9.146  2.5690 -0.4464  0.8398
   29MOL0     H 3910   4.425   2.213   9.247  1.3013  3.1346 -0.3987
   29MOL0     H 3911   4.633   2.362   9.292  0.7759 -1.4748  3.2006
   29MOL0     H 3912   4.728   2.252   9.199  0.1796  0.7910  0.1231
   29MOL0     H 3913   4.643   2.097   9.588 -1.0509 -0.5691  0.8162
   29MOL0     H 3914   4.033   2.276   9.167 -0.8145 -1.7104 -0.0847
   29MOL0     H 3915   3.816   2.267   9.052 -1.4972 -1.5113 -0.3099
   30MOL0     O 3916   1.681   1.318   7.259 -0.2168  0.8205  0.0722
   30MOL0     C 3917   1.714   1.432   7.299  1.6525  0.3577  0.2806
   30MOL0     O 3918   1.617   1.520   7.344 -0.3059 -0.6768 -0.0754
   30MOL0     C 3919   1.482   1.485   7.355  0.0389 -0.6157  0.3830
   30MOL0     C 3920   1.418   1.398   7.252 -0.2591  0.4586  0.1327
   30MOL0     C 3921   1.283   1.386   7.255  0.7551 -0.5217 -0.1677
   30MOL0     C 3922   1.198   1.457   7.344 -0.9884 -0.5893 -0.4297
   30MOL0     O 3923   1.066   1.464   7.314 -0.1038 -0.1440  0.4443
   30MOL0     C 3924   0.977   1.442   7.427 -0.5043  0.2787 -0.1077
   30MOL0     C 3925   0.836   1.428   7.372  0.7220  0.3502  0.6930
   30MOL0     C 3926   0.736   1.381   7.481  0.4977 -0.2579  0.2629
   30MOL0     C 3927   0.594   1.383   7.422  0.6648  0.6663 -0.5042
   30MOL0     C 3928   0.485   1.304   7.498 -0.8716 -0.8622 -0.5849
   30MOL0     C 3929   0.368   1.260   7.422 -0.1970  0.2147 -0.1941
   30MOL0     C 3930   0.284   1.170   7.513  0.2197  0.3696 -0.9937
   30MOL0     C 3931   0.204   1.239   7.622  0.2503 -0.7102  0.1392
   30MOL0     N 3932   0.076   1.181   7.668  0.5441 -0.0741 -0.1294
   30MOL0     C 3933   0.076   1.062   7.746  0.0677 -0.6993  1.0439
   30MOL0     C 3934  -0.057   1.027   7.731  0.1092  0.6250  1.0420
   30MOL0     C 3935  -0.117   0.905   7.787 -0.1158 -0.0248 -0.2978
   30MOL0     C 3936  -0.082   0.777   7.715  0.0225 -0.5961  0.3683
   30MOL0     C 3937  -0.137   0.666   7.797 -0.6272 -0.5156 -0.1235
   30MOL0     C 3938  -0.120   0.526   7.733  1.3116 -0.5907 -0.1442
   30MOL0     O 3939  -0.190   0.430   7.812 -0.6479  0.7871  0.4202
   30MOL0     C 3940  -0.327   0.411   7.815 -0.5713 -0.2644  0.5095
   30MOL0     C 3941  -0.417   0.489   7.733 -0.8223  0.5213 -0.4292
   30MOL0     C 3942  -0.554   0.463   7.734 -0.8076  0.8293 -0.6146
   30MOL0     C 3943  -0.623   0.543   7.634  0.3171  0.2634  0.5621
   30MOL0     C 3944  -0.594   0.350   7.808 -0.5503  0.6558  0.1715
   30MOL0     C 3945  -0.742   0.320   7.798  0.2296 -0.2900  0.2128
   30MOL0     O 3946  -0.837   0.418   7.837 -0.8676  0.1475  0.1829
   30MOL0     C 3947  -0.968   0.417   7.784 -0.1268 -0.6878 -0.6291
   30MOL0     C 3948  -1.015   0.333   7.685  0.9087 -0.1868  0.0046
   30MOL0     C 3949  -1.149   0.346   7.637 -0.8614 -0.6291  0.2458
   30MOL0     C 3950  -1.221   0.458   7.675 -0.1085 -0.2026 -0.6195
   30MOL0     O 3951  -1.352   0.477   7.634  0.1768 -0.3126 -0.3907
   30MOL0     C 3952  -1.378   0.454   7.498  0.4746  0.0296  0.3719
   30MOL0     C 3953  -1.515   0.507   7.465  0.6044 -0.0651  0.2012
   30MOL0     C 3954  -1.575   0.502   7.323 -0.5076  0.5350 -0.2462
   30MOL0     C 3955  -1.529   0.633   7.258  1.0750  0.5733 -0.0068
   30MOL0     C 3956  -1.490   0.629   7.113  0.0415  1.0293  0.0924
   30MOL0     C 3957  -1.613   0.605   7.016 -0.5310 -0.6259 -0.3096
   30MOL0     C 3958  -1.568   0.574   6.874  0.0210 -0.2174 -0.1049
   30MOL0     C 3959  -1.677   0.593   6.774  0.3874  0.5485 -0.6219
   30MOL0    Cl 3960  -1.639   0.513   6.617  0.0369 -0.2160 -0.2204
   30MOL0     C 3961  -1.172   0.546   7.776 -0.1778 -0.0496 -0.2504
   30MOL0     C 3962  -1.051   0.514   7.837 -0.3219 -0.4312 -0.1979
   30MOL0     O 3963  -0.769   0.207   7.762  0.7115 -0.9265  0.2033
   30MOL0     C 3964  -0.507   0.268   7.885 -0.2179  0.3560 -0.3685
   30MOL0     C 3965  -0.370   0.302   7.887 -0.4872 -0.9114  0.9278
   30MOL0     N 3966  -0.121   1.115   7.642 -0.8788  0.3700  0.1599
   30MOL0     N 3967  -0.042   1.203   7.603  0.3266 -0.6321 -1.1248
   30MOL0     C 3968   1.266   1.531   7.446 -0.1606  0.5513  0.9172
   30MOL0     C 3969   1.404   1.551   7.442 -0.1514  0.4093  0.0485
   30MOL0     C 3970   1.852   1.483   7.291  0.2767  0.3205 -0.5863
   30MOL0     C 3971   1.954   1.424   7.219  0.0656 -0.3572 -0.3618
   30MOL0     C 3972   2.078   1.482   7.210  0.0143 -0.3980  0.0616
   30MOL0     C 3973   2.113   1.601   7.275 -0.6805 -0.1260  0.2731
   30MOL0     O 3974   2.233   1.671   7.271 -0.1669  0.0783  0.0385
   30MOL0     C 3975   2.340   1.614   7.185  0.4817 -0.9223 -0.4538
   30MOL0     C 3976   2.415   1.496   7.249  0.2198  0.0843  0.6050
   30MOL0     C 3977   2.541   1.539   7.325 -0.7918  0.4795 -0.0721
   30MOL0     C 3978   2.503   1.594   7.459  0.4622 -0.3454  0.0376
   30MOL0     C 3979   2.623   1.614   7.543  0.0692 -0.0454  0.8086
   30MOL0     C 3980   2.721   1.634   7.615 -0.6864  0.9989  1.2541
   30MOL0     C 3981   2.013   1.660   7.357 -0.2163 -0.0533  0.0583
   30MOL0     C 3982   1.886   1.593   7.368  0.1299 -1.1613  0.4741
   30MOL0     H 3983   1.474   1.349   7.173 -1.6673 -0.2208 -0.4789
   30MOL0     H 3984   1.230   1.328   7.180  1.4664 -1.4163 -0.0034
   30MOL0     H 3985   1.015   1.364   7.492 -1.0025  0.6133  0.6013
   30MOL0     H 3986   0.986   1.534   7.486  0.7345 -0.2166  0.4943
   30MOL0     H 3987   0.796   1.524   7.338 -1.3408 -0.0958  1.6967
   30MOL0     H 3988   0.836   1.357   7.288  0.2858 -0.1878  1.1430
   30MOL0     H 3989   0.756   1.276   7.503 -1.5092 -0.7508  0.0024
   30MOL0     H 3990   0.737   1.450   7.567 -1.2581  2.0631 -1.4386
   30MOL0     H 3991   0.556   1.483   7.398 -1.1076  1.3533  4.0945
   30MOL0     H 3992   0.596   1.326   7.329 -1.4255 -0.6009  0.1485
   30MOL0     H 3993   0.515   1.212   7.550 -1.6484 -0.4906  0.5727
   30MOL0     H 3994   0.455   1.374   7.577  0.8099  0.6083 -1.1682
   30MOL0     H 3995   0.302   1.344   7.400 -0.6583 -0.1404 -0.1637
   30MOL0     H 3996   0.394   1.195   7.338  1.8753 -1.5950  1.7012
   30MOL0     H 3997   0.211   1.128   7.443 -1.1585  1.3656 -0.1771
   30MOL0     H 3998   0.339   1.088   7.561  0.4416  1.8614  1.4558
   30MOL0     H 3999   0.187   1.343   7.593  0.4872 -0.7159 -0.0235
   30MOL0     H 4000   0.263   1.244   7.715  2.6281 -1.0045 -1.2658
   30MOL0     H 4001   0.153   1.004   7.795  1.7276  1.4061  1.1096
   30MOL0     H 4002  -0.077   0.893   7.888 -2.0754  1.8586  0.7874
   30MOL0     H 4003  -0.225   0.915   7.802 -0.3279 -1.8940 -0.2957
   30MOL0     H 4004   0.026   0.772   7.701 -0.1934  0.0182 -2.0045
   30MOL0     H 4005  -0.133   0.772   7.619  2.0789 -0.1276 -0.7986
   30MOL0     H 4006  -0.241   0.695   7.814 -0.3188  1.4983 -1.3162
   30MOL0     H 4007  -0.094   0.662   7.897 -1.3019 -0.6634  0.1705
   30MOL0     H 4008  -0.016   0.497   7.718  1.4083  0.3571 -1.4145
   30MOL0     H 4009  -0.159   0.526   7.631  0.1721  1.1487  0.2648
   30MOL0     H 4010  -0.375   0.571   7.677  0.4131 -0.0182 -0.3171
   30MOL0     H 4011  -0.614   0.647   7.668  4.9257 -0.0552  1.0263
   30MOL0     H 4012  -0.570   0.527   7.539 -0.4762 -0.3832  0.2167
   30MOL0     H 4013  -0.726   0.514   7.616  0.6889  0.3148 -2.0903
   30MOL0     H 4014  -0.977   0.236   7.655 -0.7174 -1.6589  2.3207
   30MOL0     H 4015  -1.195   0.282   7.561 -1.2891  1.6135 -1.4932
   30MOL0     H 4016  -1.300   0.509   7.444  0.1961  0.7787  0.7306
   30MOL0     H 4017  -1.370   0.349   7.469  1.5916  0.0828  0.4428
   30MOL0     H 4018  -1.592   0.464   7.530  1.2643 -0.1230  0.9554
   30MOL0     H 4019  -1.508   0.611   7.500 -3.7923  0.7791 -0.8037
   30MOL0     H 4020  -1.684   0.506   7.323 -0.4920  2.5701  1.8397
   30MOL0     H 4021  -1.537   0.414   7.269 -0.7949  0.5282 -0.4406
   30MOL0     H 4022  -1.616   0.699   7.261 -0.6059 -1.5438 -0.1316
   30MOL0     H 4023  -1.441   0.677   7.306  0.8248  2.4517 -1.1351
   30MOL0     H 4024  -1.417   0.548   7.107  0.6250  1.4807  0.9036
   30MOL0     H 4025  -1.437   0.718   7.079  2.5300 -0.5603 -0.4273
   30MOL0     H 4026  -1.675   0.528   7.061  0.3326 -0.1260  1.9271
   30MOL0     H 4027  -1.665   0.702   7.013 -1.3241 -1.0416 -0.1003
   30MOL0     H 4028  -1.531   0.472   6.861 -0.8936 -0.6425  0.5569
   30MOL0     H 4029  -1.486   0.642   6.849  0.3669 -0.3958  0.5282
   30MOL0     H 4030  -1.680   0.700   6.752  1.7198  0.2155 -2.6985
   30MOL0     H 4031  -1.775   0.559   6.809  1.1392 -2.8903 -1.4702
   30MOL0     H 4032  -1.223   0.640   7.796  1.2761  0.9033 -0.8823
   30MOL0     H 4033  -1.013   0.584   7.911 -1.7056  3.0855 -2.5765
   30MOL0     H 4034  -0.548   0.188   7.945 -0.5291  0.8756  0.1282
   30MOL0     H 4035  -0.299   0.243   7.943 -0.8224 -0.5217  1.7709
   30MOL0     H 4036   1.227   1.591   7.528  2.0130  5.5577 -1.2747
   30MOL0     H 4037   1.457   1.617   7.510  0.2412 -1.3971  1.6010
   30MOL0     H 4038   1.926   1.341   7.155 -1.2235  0.7771 -1.3263
   30MOL0     H 4039   2.146   1.429   7.144 -1.6241  0.1829 -2.1694
   30MOL0     H 4040   2.301   1.594   7.085  0.2751  1.2097 -0.8406
   30MOL0     H 4041   2.420   1.686   7.162 -1.8471  1.6507 -0.9860
   30MOL0     H 4042   2.442   1.426   7.169 -0.7311 -1.0940  1.2623
   30MOL0     H 4043   2.340   1.448   7.314 -1.1507 -1.0801 -1.7015
   30MOL0     H 4044   2.611   1.594   7.262  1.3288 -0.9476  0.9609
   30MOL0     H 4045   2.598   1.450   7.351 -0.1145  0.7171 -0.7068
   30MOL0     H 4046   2.436   1.525   7.511 -0.6982  2.2049  2.1812
   30MOL0     H 4047   2.457   1.693   7.456 -2.7683 -1.7258 -2.0111
   30MOL0     H 4048   2.816   1.658   7.657 -1.1272  4.2964  0.6880
   30MOL0     H 4049   2.033   1.753   7.408  0.1484 -0.4321  0.6171
   30MOL0     H 4050   1.819   1.646   7.435  0.1459 -0.6251  0.0726
   31MOL0     O 4051  11.165   5.889  10.973 -0.0361  0.3601  0.2450
   31MOL0     C 4052  11.165   5.922  10.853 -0.0210 -0.1525 -0.0184
   31MOL0     O 4053  11.052   5.921  10.767 -0.5430 -0.4150 -0.8331
   31MOL0     C 4054  10.926   5.893  10.831  0.9425  0.4487 -1.0128
   31MOL0     C 4055  10.889   5.813  10.943  0.9986 -0.6407 -0.4402
   31MOL0     C 4056  10.753   5.800  10.978 -0.3975 -0.6580 -0.1631
   31MOL0     C 4057  10.660   5.865  10.902  0.1311 -0.5776 -0.4481
   31MOL0     O 4058  10.530   5.831  10.931 -0.0222 -0.1974  0.3098
   31MOL0     C 4059  10.437   5.943  10.927  0.1231  0.2484  0.0431
   31MOL0     C 4060  10.305   5.873  10.952  0.0312 -0.2486 -0.3311
   31MOL0     C 4061  10.196   5.985  10.940 -0.0285  0.2529  0.2646
   31MOL0     C 4062  10.061   5.927  10.971 -0.8655 -0.5667  0.0033
   31MOL0     C 4063   9.944   6.018  10.936  0.9823 -0.6056  1.5062
   31MOL0     C 4064   9.812   5.952  10.978 -0.3053 -0.3774  0.6257
   31MOL0     C 4065   9.736   6.051  11.066 -1.3746 -0.6582  0.0722
   31MOL0     C 4066   9.597   5.989  11.076 -0.7313  0.3297  0.7938
   31MOL0     N 4067   9.508   6.072  11.155 -0.0651  0.8211 -0.2576
   31MOL0     C 4068   9.515   6.093  11.292 -0.5878 -0.0929  0.9040
   31MOL0     C 4069   9.396   6.160  11.314 -0.2870 -0.2061 -0.5921
   31MOL0     C 4070   9.355   6.234  11.450  0.4331 -0.1614 -0.0539
   31MOL0     C 4071   9.211   6.272  11.474  0.3315 -0.8774 -0.1193
   31MOL0     C 4072   9.177   6.398  11.394 -1.1562 -0.6114  0.5994
   31MOL0     C 4073   9.029   6.411  11.380 -0.0688 -0.1102  0.5676
   31MOL0     O 4074   8.964   6.440  11.504 -0.6614 -0.5482  0.4966
   31MOL0     C 4075   8.836   6.488  11.495 -0.2924  0.0787  0.6743
   31MOL0     C 4076   8.769   6.495  11.625 -0.4305  0.4651  0.5525
   31MOL0     C 4077   8.629   6.536  11.632 -0.3274  0.2408  0.7520
   31MOL0     C 4078   8.569   6.536  11.768 -0.0468  0.1191 -0.0327
   31MOL0     C 4079   8.562   6.576  11.519  0.4034  0.3088  0.0173
   31MOL0     C 4080   8.425   6.624  11.521  0.1923  0.1904  0.1063
   31MOL0     O 4081   8.346   6.591  11.417 -0.0419  0.3345  0.0900
   31MOL0     C 4082   8.214   6.624  11.413  0.0410  0.0844  0.3605
   31MOL0     C 4083   8.121   6.579  11.507  0.3328  0.1808  0.2277
   31MOL0     C 4084   7.988   6.603  11.478  0.7061  0.6368 -0.1738
   31MOL0     C 4085   7.936   6.655  11.361  0.2012  0.8013  0.2405
   31MOL0     O 4086   7.795   6.644  11.336 -0.3111 -0.4168 -0.6094
   31MOL0     C 4087   7.746   6.714  11.218 -1.0178 -1.0725 -0.1327
   31MOL0     C 4088   7.594   6.704  11.199 -0.7834 -0.0544 -0.2236
   31MOL0     C 4089   7.565   6.739  11.048 -0.3835  0.3529 -0.3468
   31MOL0     C 4090   7.586   6.886  11.011  0.0813  0.9669 -0.7046
   31MOL0     C 4091   7.518   6.927  10.883  0.6808 -0.2531 -0.0645
   31MOL0     C 4092   7.560   7.058  10.822 -0.3702 -0.5956 -0.7718
   31MOL0     C 4093   7.491   7.162  10.905  0.5892 -0.1705 -0.0730
   31MOL0     C 4094   7.592   7.277  10.915 -0.3834 -0.5835  0.2360
   31MOL0    Cl 4095   7.693   7.309  10.771 -0.5010 -0.4777 -0.2609
   31MOL0     C 4096   8.031   6.703  11.271  0.1625  0.0181  0.2055
   31MOL0     C 4097   8.167   6.679  11.293 -0.7158  0.1451 -0.3193
   31MOL0     O 4098   8.390   6.689  11.622 -0.2616  0.0063 -0.1985
   31MOL0     C 4099   8.630   6.566  11.394 -0.8280 -0.9293 -0.2558
   31MOL0     C 4100   8.762   6.527  11.382  0.4923  0.8691  0.9363
   31MOL0     N 4101   9.320   6.166  11.207 -0.4609 -0.5852 -0.1739
   31MOL0     N 4102   9.386   6.116  11.106 -0.1907 -0.2010 -0.0662
   31MOL0     C 4103  10.691   5.950  10.793  0.7876 -0.4515 -0.2113
   31MOL0     C 4104  10.826   5.959  10.760  0.1529 -0.5903  0.0547
   31MOL0     C 4105  11.300   5.929  10.789 -0.0773  0.8833  0.0496
   31MOL0     C 4106  11.320   5.955  10.645  0.4937 -0.2795  0.9704
   31MOL0     C 4107  11.448   5.923  10.594  0.7502 -0.0914  0.5131
   31MOL0     C 4108  11.554   5.884  10.669 -0.1318  0.0297 -0.7810
   31MOL0     O 4109  11.671   5.858  10.604 -1.3095  0.1575  0.2479
   31MOL0     C 4110  11.764   5.965  10.579  0.6901  0.2543  0.4635
   31MOL0     C 4111  11.871   5.978  10.694  0.1385 -0.7749 -0.0698
   31MOL0     C 4112  12.005   6.022  10.644 -0.5210  0.2251 -0.1847
   31MOL0     C 4113  12.089   6.094  10.757  0.1590  0.1084 -0.2750
   31MOL0     C 4114  12.226   6.121  10.698  0.6528  1.2088  0.2361
   31MOL0     C 4115  12.328   6.134  10.626  0.8585  0.1114 -0.6034
   31MOL0     C 4116  11.541   5.869  10.804  0.0308 -0.1733 -0.0199
   31MOL0     C 4117  11.413   5.888  10.864  0.7899 -0.1619 -1.0417
   31MOL0     H 4118  10.964   5.754  10.995  0.7545 -0.2234  0.3907
   31MOL0     H 4119  10.718   5.731  11.054  1.2937 -2.9839 -1.3574
   31MOL0     H 4120  10.464   6.027  10.992  3.8501  0.6929 -1.7788
   31MOL0     H 4121  10.433   5.979  10.824 -1.2308  0.4103  0.1373
   31MOL0     H 4122  10.275   5.809  10.869  1.9507 -1.3005 -0.2786
   31MOL0     H 4123  10.294   5.809  11.040 -1.4709 -1.7628 -1.5422
   31MOL0     H 4124  10.228   6.070  11.001  0.1201 -1.0386  2.0584
   31MOL0     H 4125  10.194   6.011  10.834 -1.2043 -2.5443 -0.4821
   31MOL0     H 4126  10.049   5.829  10.925 -3.5174 -0.6087  0.6321
   31MOL0     H 4127  10.059   5.910  11.079 -0.1948 -1.7126 -0.1485
   31MOL0     H 4128   9.958   6.116  10.983  0.4146  0.3572 -0.2428
   31MOL0     H 4129   9.934   6.041  10.830 -2.4039 -0.8225  1.6981
   31MOL0     H 4130   9.755   5.918  10.890 -0.4620  0.8146  0.2569
   31MOL0     H 4131   9.832   5.869  11.047 -0.8149 -3.0582 -2.1890
   31MOL0     H 4132   9.773   6.062  11.168 -1.2374  0.5505 -0.0920
   31MOL0     H 4133   9.740   6.150  11.020 -1.2467  0.1403  1.7509
   31MOL0     H 4134   9.607   5.887  11.115  0.3530 -0.9083 -2.3592
   31MOL0     H 4135   9.551   5.977  10.977  0.3297  1.1649  0.1895
   31MOL0     H 4136   9.597   6.070  11.359  1.1809 -0.1576 -1.2067
   31MOL0     H 4137   9.384   6.169  11.533  4.0879  0.1342 -0.9005
   31MOL0     H 4138   9.419   6.321  11.471 -0.8557  0.9805 -0.7487
   31MOL0     H 4139   9.195   6.304  11.577  3.1118  0.3810  0.0161
   31MOL0     H 4140   9.154   6.187  11.436  0.8592 -0.2937 -2.3842
   31MOL0     H 4141   9.220   6.391  11.294  0.0820 -0.0856  1.0670
   31MOL0     H 4142   9.215   6.493  11.432 -1.2008 -0.0588 -0.7072
   31MOL0     H 4143   8.976   6.324  11.339 -0.9466  0.3725  0.6741
   31MOL0     H 4144   9.010   6.501  11.321  1.0968  1.7765  2.9222
   31MOL0     H 4145   8.820   6.449  11.709 -0.5582 -1.2666 -0.2807
   31MOL0     H 4146   8.646   6.488  11.829  1.2512  0.5521 -1.2747
   31MOL0     H 4147   8.553   6.638  11.802  1.1355  0.3701 -0.1629
   31MOL0     H 4148   8.484   6.468  11.775  1.0190 -1.3632 -0.8324
   31MOL0     H 4149   8.137   6.521  11.598 -3.6090 -0.6492  0.5732
   31MOL0     H 4150   7.922   6.564  11.555 -0.7679 -0.3741 -1.8617
   31MOL0     H 4151   7.767   6.821  11.226 -0.8193 -1.2396  2.3922
   31MOL0     H 4152   7.792   6.670  11.129 -1.0144  0.8975 -1.1802
   31MOL0     H 4153   7.553   6.604  11.219 -1.7792  0.7217  1.8597
   31MOL0     H 4154   7.549   6.774  11.270  0.7679  1.0755 -0.3035
   31MOL0     H 4155   7.460   6.709  11.034 -0.0209 -3.0638  2.6985
   31MOL0     H 4156   7.615   6.679  10.973 -0.8583  1.5715 -1.6923
   31MOL0     H 4157   7.548   6.948  11.093  1.1063 -2.4229  2.5789
   31MOL0     H 4158   7.691   6.917  11.009  0.8850 -1.6137 -1.1947
   31MOL0     H 4159   7.410   6.915  10.895  0.9978 -2.4917  0.9518
   31MOL0     H 4160   7.549   6.851  10.811 -1.3164 -3.2022  1.9358
   31MOL0     H 4161   7.670   7.061  10.828 -0.4018 -1.6609  1.4122
   31MOL0     H 4162   7.535   7.073  10.717 -2.3108 -0.4046 -0.3161
   31MOL0     H 4163   7.461   7.135  11.007 -0.1253  0.2407 -0.1613
   31MOL0     H 4164   7.403   7.208  10.858 -0.6512 -1.1755  1.1606
   31MOL0     H 4165   7.669   7.252  10.989  0.6756 -2.7150 -1.4845
   31MOL0     H 4166   7.549   7.373  10.945 -0.5206 -0.4390 -0.4202
   31MOL0     H 4167   8.023   6.741  11.170 -0.0320 -1.6957 -0.4536
   31MOL0     H 4168   8.242   6.726  11.230 -0.8595  0.7624 -0.0349
   31MOL0     H 4169   8.569   6.600  11.311 -3.2934 -0.1726  1.7375
   31MOL0     H 4170   8.808   6.521  11.284  1.1600 -0.4841  1.2929
   31MOL0     H 4171  10.629   6.024  10.743  2.3015  1.8702  1.1113
   31MOL0     H 4172  10.855   6.020  10.675  1.6948  0.2384  1.1262
   31MOL0     H 4173  11.243   5.996  10.581  1.4997  1.0825  0.5903
   31MOL0     H 4174  11.459   5.961  10.493 -2.5665  0.1081  0.1194
   31MOL0     H 4175  11.812   5.933  10.487 -0.2235 -0.1772  0.1283
   31MOL0     H 4176  11.724   6.062  10.549  1.0973 -0.1005 -1.2912
   31MOL0     H 4177  11.889   5.881  10.742 -1.9735 -0.5913  1.2182
   31MOL0     H 4178  11.837   6.051  10.768 -2.2254 -0.5197 -1.3165
   31MOL0     H 4179  11.988   6.080  10.552 -2.1688 -0.4998 -0.3603
   31MOL0     H 4180  12.054   5.931  10.611 -3.2036 -1.6077  0.5628
   31MOL0     H 4181  12.079   6.026  10.841 -0.2545 -0.2863 -0.6360
   31MOL0     H 4182  12.037   6.186  10.784  0.2626 -0.3760  1.7047
   31MOL0     H 4183  12.425   6.149  10.583  0.9278  0.5115 -0.3064
   31MOL0     H 4184  11.632   5.842  10.857  2.0518  3.1517 -1.5087
   31MOL0     H 4185  11.404   5.883  10.972 -2.7709 -1.8354 -1.2889
   32MOL0     O 4186   8.390   5.958   9.132 -0.4331 -0.2139  0.7155
   32MOL0     C 4187   8.401   6.031   9.229 -0.2195 -0.2654 -0.4226
   32MOL0     O 4188   8.301   6.087   9.307 -0.0503 -0.2858  0.9332
   32MOL0     C 4189   8.162   6.069   9.276  0.3948  0.0105 -0.1042
   32MOL0     C 4190   8.083   6.149   9.360  0.1549 -0.2001 -0.2860
   32MOL0     C 4191   7.947   6.112   9.374 -0.1333 -0.5072  0.0799
   32MOL0     C 4192   7.882   6.017   9.288  0.6525 -0.2983 -0.2394
   32MOL0     O 4193   7.742   5.990   9.302 -0.6569  0.2886  0.2981
   32MOL0     C 4194   7.667   6.016   9.188 -0.1574  0.6142 -0.4037
   32MOL0     C 4195   7.526   5.960   9.218 -0.3474  0.2327 -0.5769
   32MOL0     C 4196   7.431   5.998   9.098 -0.3485 -0.6670  0.2470
   32MOL0     C 4197   7.294   5.950   9.126 -0.3150 -0.9390 -0.1380
   32MOL0     C 4198   7.185   6.039   9.073 -0.7264 -0.1243 -0.7390
   32MOL0     C 4199   7.048   6.004   9.132  0.3321  0.1596  0.9564
   32MOL0     C 4200   6.937   6.105   9.078 -0.2654 -0.4397  1.2836
   32MOL0     C 4201   6.907   6.211   9.178  0.0266  0.0635 -0.6959
   32MOL0     N 4202   6.787   6.276   9.121 -0.1245  0.3243 -0.2849
   32MOL0     C 4203   6.665   6.215   9.133  0.6570 -0.1631  0.8155
   32MOL0     C 4204   6.582   6.291   9.061 -0.4917  0.1389  0.5071
   32MOL0     C 4205   6.433   6.283   9.058  1.6772  0.5310  0.1918
   32MOL0     C 4206   6.395   6.230   8.926 -0.7277 -0.1661  0.2716
   32MOL0     C 4207   6.242   6.212   8.916  0.6505 -0.1792  0.2840
   32MOL0     C 4208   6.167   6.342   8.960 -0.0959 -0.9363 -0.7117
   32MOL0     O 4209   6.032   6.326   8.914  0.6665  0.3120  0.1036
   32MOL0     C 4210   5.926   6.394   8.972 -0.3582  0.0862 -0.3028
   32MOL0     C 4211   5.943   6.457   9.094 -0.1551 -0.6143 -0.2206
   32MOL0     C 4212   5.829   6.525   9.150  0.4596  0.4276  0.2529
   32MOL0     C 4213   5.858   6.594   9.284  0.0597 -0.1353  0.1281
   32MOL0     C 4214   5.701   6.534   9.088 -0.1159  1.0646 -0.2356
   32MOL0     C 4215   5.583   6.602   9.148 -0.1605 -0.5763  0.6963
   32MOL0     O 4216   5.469   6.575   9.083  0.2371 -0.3519  0.4955
   32MOL0     C 4217   5.350   6.624   9.147  0.3958 -0.2358  0.4627
   32MOL0     C 4218   5.330   6.754   9.127  0.6352 -0.0234 -0.0383
   32MOL0     C 4219   5.216   6.808   9.186 -0.4440 -0.2121  0.6987
   32MOL0     C 4220   5.118   6.732   9.253  0.0436  0.5859 -0.4267
   32MOL0     O 4221   5.009   6.810   9.287 -0.2206  0.0355 -1.0003
   32MOL0     C 4222   4.927   6.748   9.388  0.0106  0.3302  0.5906
   32MOL0     C 4223   4.792   6.820   9.423 -0.4179 -0.3589 -0.1719
   32MOL0     C 4224   4.670   6.753   9.362 -0.1464  0.0643 -0.6441
   32MOL0     C 4225   4.535   6.794   9.426 -0.2643 -0.8386  0.5870
   32MOL0     C 4226   4.482   6.924   9.377 -0.5652  0.2301 -0.3291
   32MOL0     C 4227   4.375   6.974   9.474 -0.1256 -0.4025  0.0508
   32MOL0     C 4228   4.301   7.106   9.431  0.0753 -0.6193 -0.2072
   32MOL0     C 4229   4.178   7.140   9.516 -0.7887 -0.8503 -0.3253
   32MOL0    Cl 4230   4.078   7.269   9.441  0.0341  0.0809 -0.0525
   32MOL0     C 4231   5.130   6.595   9.255 -0.7083  0.1207 -0.9499
   32MOL0     C 4232   5.250   6.546   9.207 -0.1145  0.0361 -0.0137
   32MOL0     O 4233   5.590   6.669   9.250 -0.8429  0.1068 -0.2728
   32MOL0     C 4234   5.705   6.472   8.963  0.2181 -0.1237  0.1248
   32MOL0     C 4235   5.808   6.396   8.910 -0.2558 -0.1099  0.6420
   32MOL0     N 4236   6.658   6.390   9.002 -0.3080  0.8317 -0.1974
   32MOL0     N 4237   6.781   6.382   9.042 -1.1922  0.2825 -0.6912
   32MOL0     C 4238   7.959   5.943   9.204  0.2249 -0.4303  0.5186
   32MOL0     C 4239   8.101   5.966   9.196  0.4553 -0.2738 -0.3302
   32MOL0     C 4240   8.543   6.070   9.266 -0.2922 -0.6017 -0.1897
   32MOL0     C 4241   8.561   6.161   9.375 -0.9460  0.2814 -0.0281
   32MOL0     C 4242   8.691   6.202   9.409 -0.5327  0.3444  0.5656
   32MOL0     C 4243   8.802   6.147   9.347 -0.8246 -0.3678 -0.1440
   32MOL0     O 4244   8.933   6.183   9.385 -0.3688 -0.3216 -0.7472
   32MOL0     C 4245   9.053   6.119   9.355 -0.2178 -0.0563  0.3139
   32MOL0     C 4246   9.111   6.186   9.225  0.0964  0.1361 -0.0161
   32MOL0     C 4247   9.226   6.098   9.171 -0.1253  0.4402 -0.2629
   32MOL0     C 4248   9.268   6.125   9.030 -0.0001  0.0756  0.9737
   32MOL0     C 4249   9.403   6.062   9.002 -0.6490 -0.2371  0.2107
   32MOL0     C 4250   9.516   6.034   8.968  0.9083  0.4491 -0.0339
   32MOL0     C 4251   8.787   6.053   9.245  0.5241 -0.1256  0.1200
   32MOL0     C 4252   8.655   6.015   9.203 -0.0969  0.1821 -0.1891
   32MOL0     H 4253   8.128   6.214   9.435 -0.5094 -0.5815  0.4594
   32MOL0     H 4254   7.901   6.157   9.462  0.3619 -2.1183  1.2156
   32MOL0     H 4255   7.663   6.124   9.174 -0.4674  0.7063  0.3497
   32MOL0     H 4256   7.697   5.970   9.093  1.5014  1.2449 -0.2172
   32MOL0     H 4257   7.531   5.852   9.229 -1.3660  0.2927  0.7228
   32MOL0     H 4258   7.485   6.004   9.309 -1.7216 -0.8629 -0.6378
   32MOL0     H 4259   7.416   6.106   9.087 -3.9657 -1.2392 -2.2123
   32MOL0     H 4260   7.459   5.956   9.001  2.9560 -0.0997  0.8394
   32MOL0     H 4261   7.280   5.846   9.096  0.5263 -1.7437  1.9994
   32MOL0     H 4262   7.282   5.950   9.235 -0.3595  1.9357 -0.0656
   32MOL0     H 4263   7.200   6.145   9.097  1.5483 -0.1840 -1.6521
   32MOL0     H 4264   7.188   6.035   8.964  0.7352  0.8094 -0.7700
   32MOL0     H 4265   7.024   5.902   9.099 -0.7531  1.0368 -1.1261
   32MOL0     H 4266   7.046   5.996   9.241  1.0393 -0.5866  0.9328
   32MOL0     H 4267   6.972   6.156   8.987 -1.0246 -0.1858  1.1255
   32MOL0     H 4268   6.848   6.049   9.047 -1.4013  2.0510 -0.2830
   32MOL0     H 4269   6.992   6.279   9.169  0.0061 -0.0630 -2.0054
   32MOL0     H 4270   6.895   6.175   9.281 -3.1040  1.6274 -0.4140
   32MOL0     H 4271   6.644   6.138   9.206  2.3877 -0.4724  1.0048
   32MOL0     H 4272   6.399   6.214   9.136 -1.0564 -0.3153 -1.6227
   32MOL0     H 4273   6.397   6.386   9.066  2.3618  0.7790  0.1808
   32MOL0     H 4274   6.449   6.138   8.903 -0.3714 -0.6787  2.8455
   32MOL0     H 4275   6.432   6.304   8.854  0.7809  1.9924  3.0702
   32MOL0     H 4276   6.204   6.123   8.968  0.3341  0.1812  0.6777
   32MOL0     H 4277   6.227   6.190   8.810  0.0072 -2.6060  0.8177
   32MOL0     H 4278   6.216   6.423   8.905 -0.3611 -0.5429 -0.3637
   32MOL0     H 4279   6.181   6.345   9.068  0.3908 -3.2227 -0.6485
   32MOL0     H 4280   6.038   6.456   9.146 -1.1352 -2.7856  1.7187
   32MOL0     H 4281   5.779   6.572   9.357  0.3342 -4.2005 -0.5729
   32MOL0     H 4282   5.952   6.559   9.327  0.3517  1.5637  0.9573
   32MOL0     H 4283   5.859   6.703   9.274  1.2765  0.2475  3.2533
   32MOL0     H 4284   5.402   6.817   9.074  3.3920 -2.2395  0.8157
   32MOL0     H 4285   5.194   6.913   9.173  0.0048 -0.0300  1.3338
   32MOL0     H 4286   4.900   6.646   9.358 -3.4808  1.0254  0.9196
   32MOL0     H 4287   4.974   6.749   9.486  2.8368  1.4472 -0.6677
   32MOL0     H 4288   4.791   6.806   9.532 -0.2209 -0.2349 -0.1548
   32MOL0     H 4289   4.801   6.927   9.399 -3.1197 -0.4249 -1.8542
   32MOL0     H 4290   4.681   6.646   9.377 -1.0672 -0.0297 -0.5462
   32MOL0     H 4291   4.668   6.762   9.253 -1.8440 -0.7175 -0.7073
   32MOL0     H 4292   4.453   6.732   9.387 -1.7965  1.6717 -0.4546
   32MOL0     H 4293   4.538   6.778   9.534 -1.6787 -0.2651  0.7410
   32MOL0     H 4294   4.437   6.914   9.278  0.6368  0.0778 -0.8847
   32MOL0     H 4295   4.567   6.993   9.367 -0.9889  1.0710  1.4645
   32MOL0     H 4296   4.291   6.906   9.493 -1.0785  1.1378  1.7636
   32MOL0     H 4297   4.426   6.976   9.571 -0.7734 -0.4890  0.4033
   32MOL0     H 4298   4.277   7.092   9.325  1.8238 -1.9211 -0.4870
   32MOL0     H 4299   4.369   7.191   9.447  0.3694 -1.1036  1.1699
   32MOL0     H 4300   4.217   7.175   9.612 -2.1003  0.9469 -0.3911
   32MOL0     H 4301   4.121   7.048   9.532 -2.3130 -0.3215 -2.2619
   32MOL0     H 4302   5.055   6.524   9.288 -0.2481 -0.5316 -1.2839
   32MOL0     H 4303   5.268   6.439   9.210 -0.4632 -0.0168  0.3026
   32MOL0     H 4304   5.615   6.448   8.906  0.7465  0.5747 -1.0419
   32MOL0     H 4305   5.791   6.331   8.825  1.0798  0.2859  0.0419
   32MOL0     H 4306   7.911   5.853   9.166 -0.4581 -0.5451  1.5986
   32MOL0     H 4307   8.150   5.906   9.120 -0.6643  0.9807 -2.1266
   32MOL0     H 4308   8.480   6.194   9.440 -2.7981 -1.9141 -1.0825
   32MOL0     H 4309   8.707   6.274   9.489  2.9013 -1.8792  2.1244
   32MOL0     H 4310   9.126   6.119   9.436 -0.7872 -3.6202  0.9997
   32MOL0     H 4311   9.039   6.013   9.329 -0.9327  0.2141 -0.4665
   32MOL0     H 4312   9.156   6.284   9.245  1.5515 -0.0901 -1.8376
   32MOL0     H 4313   9.027   6.201   9.157  0.2928  0.3596 -0.2123
   32MOL0     H 4314   9.196   5.993   9.178 -0.5118  0.5483 -0.2597
   32MOL0     H 4315   9.313   6.112   9.237  1.7265 -1.7496 -2.0759
   32MOL0     H 4316   9.272   6.231   9.003 -0.8624  0.2659  1.5634
   32MOL0     H 4317   9.188   6.079   8.971  1.3075 -0.5627 -0.3674
   32MOL0     H 4318   9.609   6.000   8.927  1.8535  1.6924  1.0160
   32MOL0     H 4319   8.878   6.013   9.203  1.0383  0.5154  0.6146
   32MOL0     H 4320   8.648   5.966   9.107  1.0772  1.6529 -1.0675
   33MOL0     O 4321   6.070   9.033  10.853 -0.4989  0.2467 -0.5486
   33MOL0     C 4322   6.040   9.141  10.893 -0.3940 -0.4102 -0.3951
   33MOL0     O 4323   6.097   9.261  10.865  0.2104 -0.2045  0.1708
   33MOL0     C 4324   6.201   9.268  10.772  0.1690  0.1198  1.1811
   33MOL0     C 4325   6.238   9.180  10.670  0.5042  0.9380  0.3274
   33MOL0     C 4326   6.339   9.210  10.583  0.3192 -0.4852 -0.3153
   33MOL0     C 4327   6.421   9.327  10.601  0.0485 -0.1124  0.3241
   33MOL0     O 4328   6.517   9.369  10.515 -0.1533  0.0402  0.6406
   33MOL0     C 4329   6.613   9.271  10.475  0.7680 -0.2993 -0.7279
   33MOL0     C 4330   6.725   9.340  10.393 -0.0843 -0.1094 -0.4387
   33MOL0     C 4331   6.681   9.394  10.254  0.9459  0.1388  1.2623
   33MOL0     C 4332   6.803   9.398  10.163  0.3669 -0.2622  0.5576
   33MOL0     C 4333   6.746   9.438  10.021 -0.2664  0.2676 -0.0804
   33MOL0     C 4334   6.862   9.435   9.918 -0.1779 -0.1480 -0.1464
   33MOL0     C 4335   6.822   9.498   9.785 -0.2485 -0.0045  0.5966
   33MOL0     C 4336   6.933   9.486   9.683 -0.0667 -0.5744  0.6960
   33MOL0     N 4337   6.869   9.520   9.555 -0.3841  0.4740 -0.4866
   33MOL0     C 4338   6.804   9.630   9.517 -0.1859 -0.2490  0.6966
   33MOL0     C 4339   6.768   9.621   9.382 -0.3424  1.0382  0.9932
   33MOL0     C 4340   6.673   9.709   9.299 -0.1636  0.4626  0.4223
   33MOL0     C 4341   6.525   9.658   9.303  0.5031  0.3070  0.7232
   33MOL0     C 4342   6.458   9.669   9.441 -0.4787 -0.3791  0.0990
   33MOL0     C 4343   6.410   9.811   9.494  0.2993  0.1017  0.1365
   33MOL0     O 4344   6.367   9.790   9.627  0.2259  0.4219  0.1452
   33MOL0     C 4345   6.233   9.775   9.645 -0.4346 -0.0645  0.3682
   33MOL0     C 4346   6.183   9.799   9.776  0.4006  1.1131  0.4612
   33MOL0     C 4347   6.046   9.792   9.801 -0.4734  0.4478  0.7353
   33MOL0     C 4348   6.000   9.828   9.936  0.2363 -0.3894 -0.7118
   33MOL0     C 4349   5.954   9.749   9.697  0.0924  0.4141  0.7011
   33MOL0     C 4350   5.809   9.732   9.718 -0.6356  0.3649  0.5903
   33MOL0     O 4351   5.729   9.648   9.633  0.8272  0.3920 -0.3585
   33MOL0     C 4352   5.607   9.603   9.680 -1.0514 -0.0740 -0.2653
   33MOL0     C 4353   5.498   9.616   9.594  0.2364 -0.0816  0.1529
   33MOL0     C 4354   5.378   9.555   9.632 -0.3499 -0.9323  0.0974
   33MOL0     C 4355   5.370   9.491   9.759 -0.3015  0.6209 -0.4604
   33MOL0     O 4356   5.247   9.454   9.812 -0.1173  0.3944  0.2846
   33MOL0     C 4357   5.137   9.436   9.722 -0.4594 -0.2606 -0.0326
   33MOL0     C 4358   5.011   9.402   9.796 -0.0264 -0.5252  0.1092
   33MOL0     C 4359   4.886   9.389   9.704  0.2278 -0.2645 -0.5390
   33MOL0     C 4360   4.761   9.360   9.790  0.2380  0.0286  0.4558
   33MOL0     C 4361   4.647   9.342   9.687 -0.2212 -0.1629 -0.1201
   33MOL0     C 4362   4.523   9.293   9.750  0.0396 -0.3263 -0.6664
   33MOL0     C 4363   4.457   9.408   9.832  0.1223 -0.0016  0.4035
   33MOL0     C 4364   4.329   9.357   9.901 -0.5694 -0.2657 -0.0910
   33MOL0    Cl 4365   4.244   9.495   9.982 -0.2507  0.5325  0.1685
   33MOL0     C 4366   5.475   9.479   9.843 -0.1761  0.3300 -0.0462
   33MOL0     C 4367   5.591   9.539   9.807  0.2375  0.2214 -0.9258
   33MOL0     O 4368   5.762   9.809   9.804  0.1421  0.4535 -0.6438
   33MOL0     C 4369   6.009   9.705   9.570 -0.1736 -0.6574 -0.0437
   33MOL0     C 4370   6.148   9.721   9.548  0.4151  0.1734 -0.6421
   33MOL0     N 4371   6.827   9.504   9.340  0.3302  0.6032 -0.2408
   33MOL0     N 4372   6.882   9.443   9.445  0.1348  0.0585  1.4570
   33MOL0     C 4373   6.378   9.416  10.704 -0.2093  0.4269  0.4251
   33MOL0     C 4374   6.269   9.387  10.787 -0.5549 -1.0000  1.3314
   33MOL0     C 4375   5.920   9.142  10.990 -0.0698  0.0255 -0.2237
   33MOL0     C 4376   5.894   9.257  11.078  1.2700 -0.1661 -0.1994
   33MOL0     C 4377   5.792   9.251  11.178  0.8996 -0.0628 -0.3121
   33MOL0     C 4378   5.721   9.132  11.195 -0.5214  0.3970 -0.3152
   33MOL0     O 4379   5.614   9.119  11.289  0.7282  0.0643  0.2084
   33MOL0     C 4380   5.550   9.238  11.353  0.0614  0.0550 -0.4252
   33MOL0     C 4381   5.486   9.327  11.259 -0.8857 -0.7051  0.3353
   33MOL0     C 4382   5.344   9.281  11.229 -0.8514 -0.1028 -0.0539
   33MOL0     C 4383   5.259   9.350  11.119  0.5629  0.0553 -0.6170
   33MOL0     C 4384   5.209   9.485  11.141 -0.1385 -0.8942 -1.1404
   33MOL0     C 4385   5.155   9.593  11.155  0.1005  0.1244  0.3019
   33MOL0     C 4386   5.741   9.020  11.110 -0.1532  0.4728 -0.4336
   33MOL0     C 4387   5.836   9.030  11.010 -0.6185 -0.3249 -0.1889
   33MOL0     H 4388   6.189   9.084  10.658  2.8256 -0.4975  1.5723
   33MOL0     H 4389   6.363   9.136  10.508 -0.8651 -0.9135 -0.2815
   33MOL0     H 4390   6.652   9.228  10.568 -1.2841 -1.8881 -0.5385
   33MOL0     H 4391   6.567   9.196  10.411 -0.6618 -1.5163  1.5811
   33MOL0     H 4392   6.759   9.426  10.452 -1.7353 -0.0129  0.3958
   33MOL0     H 4393   6.805   9.268  10.373  0.2685  0.3711 -0.7890
   33MOL0     H 4394   6.604   9.329  10.210  1.6054  1.4420 -2.1603
   33MOL0     H 4395   6.632   9.491  10.263 -1.6335 -0.7146 -1.6656
   33MOL0     H 4396   6.874   9.474  10.197  1.2205 -0.3612 -0.8989
   33MOL0     H 4397   6.842   9.296  10.169 -2.3090 -1.4153 -0.0470
   33MOL0     H 4398   6.673   9.366   9.983  0.6212  0.3516 -2.0958
   33MOL0     H 4399   6.693   9.534  10.024  0.6892  0.8139 -0.2816
   33MOL0     H 4400   6.958   9.481   9.944  0.7323 -1.7749 -0.5111
   33MOL0     H 4401   6.895   9.332   9.901 -1.0969 -0.3652 -0.6544
   33MOL0     H 4402   6.728   9.458   9.744 -0.2293  1.8877 -1.4873
   33MOL0     H 4403   6.800   9.604   9.797  1.9762  0.6015 -0.2201
   33MOL0     H 4404   6.986   9.391   9.688  1.3259  0.1788  0.5936
   33MOL0     H 4405   7.010   9.563   9.695 -0.8784  0.6528 -1.4609
   33MOL0     H 4406   6.760   9.703   9.585  0.8425 -2.6704  4.2476
   33MOL0     H 4407   6.698   9.813   9.324  0.0620  1.0680 -1.9896
   33MOL0     H 4408   6.700   9.709   9.193 -0.6676  2.1561  0.2652
   33MOL0     H 4409   6.516   9.553   9.273 -0.6568  0.0511  1.9070
   33MOL0     H 4410   6.466   9.723   9.238  2.8654  3.8763  1.8618
   33MOL0     H 4411   6.531   9.633   9.514 -0.6129 -1.8210 -0.4287
   33MOL0     H 4412   6.375   9.598   9.446  0.8844 -2.0827 -0.1257
   33MOL0     H 4413   6.337   9.848   9.421  2.6129  3.4086 -0.7356
   33MOL0     H 4414   6.490   9.886   9.491 -0.2863  1.1586  4.5671
   33MOL0     H 4415   6.253   9.840   9.849  2.6736 -1.3365 -0.1964
   33MOL0     H 4416   5.942   9.748   9.984 -1.7495  1.3766 -0.0497
   33MOL0     H 4417   6.083   9.839  10.006 -2.9833 -2.7467  4.0016
   33MOL0     H 4418   5.936   9.916   9.941 -0.6528 -1.0958  1.2637
   33MOL0     H 4419   5.495   9.666   9.497  0.5079 -0.5296 -0.0892
   33MOL0     H 4420   5.298   9.587   9.566 -0.1649  1.0858  0.7971
   33MOL0     H 4421   5.115   9.527   9.665 -3.2364 -1.0964 -0.4695
   33MOL0     H 4422   5.152   9.356   9.650 -1.4130 -2.4408  2.0467
   33MOL0     H 4423   5.006   9.305   9.846 -1.1572 -0.1304  0.8075
   33MOL0     H 4424   4.998   9.466   9.884  1.4200 -1.7926  1.2962
   33MOL0     H 4425   4.906   9.314   9.627 -0.0477 -1.5105  0.5580
   33MOL0     H 4426   4.867   9.480   9.647  1.6097  0.2039 -0.2876
   33MOL0     H 4427   4.773   9.277   9.861 -0.1054 -0.2642  0.1821
   33MOL0     H 4428   4.743   9.446   9.855  0.6138 -2.4134  4.0816
   33MOL0     H 4429   4.679   9.278   9.604  1.9542  1.2903 -0.4936
   33MOL0     H 4430   4.609   9.432   9.639  0.5607 -0.8488 -2.1239
   33MOL0     H 4431   4.451   9.275   9.670  1.3118  1.5521 -2.3440
   33MOL0     H 4432   4.559   9.206   9.806  3.2015 -1.9420 -4.6968
   33MOL0     H 4433   4.430   9.486   9.761 -1.5969 -0.0619  0.9515
   33MOL0     H 4434   4.518   9.449   9.913  0.9057 -2.9713  1.4617
   33MOL0     H 4435   4.360   9.277   9.969  1.5268 -0.2079 -0.8978
   33MOL0     H 4436   4.263   9.311   9.827 -1.0725 -0.4379  0.4597
   33MOL0     H 4437   5.463   9.432   9.940 -0.7780 -1.1514 -0.8091
   33MOL0     H 4438   5.672   9.524   9.877  0.9778  0.8381 -1.6276
   33MOL0     H 4439   5.949   9.668   9.488 -1.5993  4.2272 -1.5527
   33MOL0     H 4440   6.183   9.690   9.450 -3.1496 -2.5054 -1.3075
   33MOL0     H 4441   6.434   9.509  10.704 -1.5298  1.2808 -0.6031
   33MOL0     H 4442   6.233   9.454  10.864  2.4601 -0.1962  2.1858
   33MOL0     H 4443   5.942   9.353  11.061  1.7746 -0.4571 -0.4403
   33MOL0     H 4444   5.771   9.343  11.232  0.0536 -1.7684  2.4403
   33MOL0     H 4445   5.484   9.199  11.430  2.1485 -1.7905  0.5363
   33MOL0     H 4446   5.629   9.297  11.401  1.6740  0.7008 -3.5702
   33MOL0     H 4447   5.539   9.326  11.164 -2.4151 -0.8184 -0.5505
   33MOL0     H 4448   5.500   9.427  11.302  2.7192 -1.5472  1.4662
   33MOL0     H 4449   5.283   9.292  11.319 -0.6106  6.4565 -0.2689
   33MOL0     H 4450   5.356   9.177  11.195  0.4656 -0.1299  0.4156
   33MOL0     H 4451   5.175   9.282  11.109 -0.1152  0.7021  0.4726
   33MOL0     H 4452   5.327   9.347  11.033  0.8544  1.6801 -0.4848
   33MOL0     H 4453   5.095   9.680  11.172  1.1084  0.7107  0.9728
   33MOL0     H 4454   5.690   8.924  11.119  1.0631 -0.2753 -1.1792
   33MOL0     H 4455   5.848   8.945  10.944 -0.6766  0.2377 -0.9342
   34MOL0     O 4456   7.084   2.993   0.115  0.4146  0.4138 -0.1867
   34MOL0     C 4457   7.134   3.055   0.206 -0.0152 -0.5088  0.4849
   34MOL0     O 4458   7.065   3.134   0.298  0.2859  0.1102 -0.3016
   34MOL0     C 4459   6.928   3.170   0.291 -0.5079  2.0612 -0.2912
   34MOL0     C 4460   6.860   3.192   0.169  0.0897 -1.3809 -0.0968
   34MOL0     C 4461   6.723   3.222   0.168 -0.0040  0.7821 -1.1947
   34MOL0     C 4462   6.649   3.232   0.286 -0.8431 -0.0477  0.7933
   34MOL0     O 4463   6.509   3.256   0.270 -0.7868  0.3415  0.5304
   34MOL0     C 4464   6.434   3.282   0.388  0.1362  1.0713  0.6427
   34MOL0     C 4465   6.302   3.347   0.349  0.3316 -0.3223  0.2864
   34MOL0     C 4466   6.314   3.468   0.247  0.0548  0.1908  0.0649
   34MOL0     C 4467   6.219   3.579   0.274 -0.0799 -0.1149 -0.3789
   34MOL0     C 4468   6.243   3.697   0.182 -0.0634  0.0083  0.3578
   34MOL0     C 4469   6.183   3.831   0.236  0.5075 -0.3779  0.4622
   34MOL0     C 4470   6.030   3.834   0.278 -1.1141 -0.8223 -0.1541
   34MOL0     C 4471   5.998   3.981   0.296  0.1932  0.4592  1.1559
   34MOL0     N 4472   5.874   4.008   0.375  0.8106 -0.9308  0.1125
   34MOL0     C 4473   5.747   3.950   0.355 -0.1862  0.5418 -0.2477
   34MOL0     C 4474   5.668   4.039   0.418  0.3907  0.1001  0.3683
   34MOL0     C 4475   5.517   4.048   0.409  0.7007  0.7363  0.5195
   34MOL0     C 4476   5.450   3.918   0.454 -1.0199  0.0245  1.0253
   34MOL0     C 4477   5.297   3.952   0.468 -0.3094  0.6025  0.5257
   34MOL0     C 4478   5.229   3.823   0.514  0.0092  0.0359 -0.0693
   34MOL0     O 4479   5.239   3.709   0.432 -0.4669  0.1108  0.3254
   34MOL0     C 4480   5.158   3.681   0.326 -0.0919  0.3654  0.2230
   34MOL0     C 4481   5.025   3.729   0.315  0.7567 -0.0790 -0.0192
   34MOL0     C 4482   4.945   3.690   0.212 -0.8033  0.5843  0.1187
   34MOL0     C 4483   4.807   3.761   0.206  0.5174  0.5869  0.2513
   34MOL0     C 4484   4.989   3.592   0.118 -0.4476 -1.1026 -0.3103
   34MOL0     C 4485   4.900   3.546   0.017 -0.2531 -0.1765 -0.4046
   34MOL0     O 4486   4.788   3.487   0.067  0.0754  0.1636 -0.2207
   34MOL0     C 4487   4.692   3.418  -0.010 -0.3334 -0.5916 -0.1727
   34MOL0     C 4488   4.562   3.430   0.031  0.4405  0.1857 -0.4568
   34MOL0     C 4489   4.459   3.358  -0.032 -0.3789 -0.8353  0.0572
   34MOL0     C 4490   4.488   3.265  -0.130 -0.4186 -0.1579 -0.5944
   34MOL0     O 4491   4.389   3.183  -0.175  0.5703  0.5397  0.2612
   34MOL0     C 4492   4.416   3.044  -0.199 -0.3879 -0.0385 -0.6769
   34MOL0     C 4493   4.307   2.982  -0.292 -0.1773  0.1466  0.6308
   34MOL0     C 4494   4.169   2.992  -0.229 -0.2223 -0.0351  0.0604
   34MOL0     C 4495   4.144   2.864  -0.139  0.9785  0.3446  0.2574
   34MOL0     C 4496   3.988   2.835  -0.103 -0.3662 -0.0342 -0.4390
   34MOL0     C 4497   3.977   2.720  -0.001 -0.1930 -0.5853  0.7826
   34MOL0     C 4498   3.847   2.672   0.016  1.1831 -0.0760 -0.0737
   34MOL0     C 4499   3.737   2.778   0.017 -0.4284 -0.2615 -0.3154
   34MOL0    Cl 4500   3.573   2.728   0.065 -0.5554  0.2789 -0.4897
   34MOL0     C 4501   4.621   3.258  -0.171 -0.6052 -0.4073 -0.2487
   34MOL0     C 4502   4.718   3.328  -0.107 -0.1776  0.1494  0.0503
   34MOL0     O 4503   4.954   3.519  -0.095 -0.3779 -0.0577  0.3779
   34MOL0     C 4504   5.116   3.529   0.131 -0.0596 -0.0999  0.1284
   34MOL0     C 4505   5.198   3.576   0.237  0.1136 -1.0782 -0.3380
   34MOL0     N 4506   5.743   4.123   0.488  0.3715  0.1626  0.3108
   34MOL0     N 4507   5.867   4.104   0.469  0.4786 -0.5906 -0.2238
   34MOL0     C 4508   6.724   3.198   0.401  0.4381  1.0494  0.6002
   34MOL0     C 4509   6.853   3.157   0.408  0.3766 -0.2649 -0.4337
   34MOL0     C 4510   7.282   3.027   0.229 -0.1997 -0.2640  0.0675
   34MOL0     C 4511   7.355   3.113   0.306  0.9649 -0.4337  0.0938
   34MOL0     C 4512   7.494   3.101   0.316  0.4872 -0.0191 -0.6467
   34MOL0     C 4513   7.560   3.000   0.243  0.8033  0.0826 -0.2904
   34MOL0     O 4514   7.690   2.972   0.254 -0.1298  0.3820 -0.6897
   34MOL0     C 4515   7.776   3.085   0.265  0.1212 -0.1001 -0.2405
   34MOL0     C 4516   7.925   3.032   0.247  0.1981  0.0995  0.0651
   34MOL0     C 4517   8.039   3.089   0.330 -0.9614 -0.5668  0.2138
   34MOL0     C 4518   8.082   3.233   0.289  0.1171 -1.0618  0.2613
   34MOL0     C 4519   7.981   3.333   0.327 -0.1230 -0.3165 -0.0894
   34MOL0     C 4520   7.896   3.410   0.371  0.5968  0.6331  0.2444
   34MOL0     C 4521   7.484   2.917   0.163  0.6824  0.6568 -0.2780
   34MOL0     C 4522   7.348   2.930   0.152  0.2524 -0.5647 -0.4903
   34MOL0     H 4523   6.911   3.202   0.074  0.6457  2.3558  0.4250
   34MOL0     H 4524   6.673   3.249   0.076 -0.8662  2.0640 -0.4022
   34MOL0     H 4525   6.420   3.189   0.444 -1.3912  0.9894  0.1799
   34MOL0     H 4526   6.488   3.347   0.457 -1.9745  1.1625  2.2804
   34MOL0     H 4527   6.240   3.277   0.292 -1.0915 -0.9517  2.4685
   34MOL0     H 4528   6.259   3.384   0.442  0.6919  2.3883 -0.5530
   34MOL0     H 4529   6.418   3.504   0.245 -0.5148  3.0248  4.7545
   34MOL0     H 4530   6.288   3.432   0.148  0.9313 -3.0759  0.9053
   34MOL0     H 4531   6.121   3.530   0.267  0.6241 -1.9942  1.6353
   34MOL0     H 4532   6.228   3.610   0.379 -0.7997 -1.4125  0.0956
   34MOL0     H 4533   6.349   3.715   0.164 -0.2042  0.1684 -0.3178
   34MOL0     H 4534   6.214   3.663   0.082  1.8332  2.2327 -1.0303
   34MOL0     H 4535   6.247   3.883   0.309 -0.0255  2.2286 -0.7814
   34MOL0     H 4536   6.185   3.890   0.144  1.1111 -3.1388 -1.3969
   34MOL0     H 4537   5.971   3.791   0.196 -1.2815 -1.2249  0.1750
   34MOL0     H 4538   6.011   3.781   0.372  0.6421  0.7751  1.1770
   34MOL0     H 4539   5.987   4.032   0.199 -4.9184 -1.0974  0.6150
   34MOL0     H 4540   6.083   4.033   0.341  0.1425  1.5205  0.0678
   34MOL0     H 4541   5.716   3.865   0.295  2.8321 -1.4358  0.7640
   34MOL0     H 4542   5.477   4.124   0.477  1.8457 -0.2563  2.3774
   34MOL0     H 4543   5.485   4.071   0.307  1.5422 -1.1673 -0.2209
   34MOL0     H 4544   5.493   3.893   0.551  1.1350 -1.0392 -0.1349
   34MOL0     H 4545   5.465   3.830   0.391 -3.2521 -0.4845  1.1453
   34MOL0     H 4546   5.270   3.987   0.368  0.6301 -2.3351 -0.8990
   34MOL0     H 4547   5.275   4.039   0.530  0.1461  2.2036 -1.4496
   34MOL0     H 4548   5.123   3.845   0.529  0.0394 -1.3274  2.6799
   34MOL0     H 4549   5.268   3.798   0.613  0.1593 -0.0307 -0.1448
   34MOL0     H 4550   4.981   3.800   0.385  0.7664  0.0271 -0.1201
   34MOL0     H 4551   4.814   3.867   0.234 -0.4044  0.4858  0.9284
   34MOL0     H 4552   4.769   3.760   0.103  1.5071  1.4252 -0.1406
   34MOL0     H 4553   4.735   3.721   0.278  0.8082  1.3559  0.9889
   34MOL0     H 4554   4.543   3.496   0.115 -0.2179 -1.2092  0.5324
   34MOL0     H 4555   4.359   3.377   0.003 -0.1428 -1.5589  1.1675
   34MOL0     H 4556   4.512   3.034  -0.249 -0.1937  2.2725 -0.8621
   34MOL0     H 4557   4.417   2.994  -0.101  1.3709  1.3282  0.0558
   34MOL0     H 4558   4.294   3.045  -0.381  2.8960  2.3692  1.6208
   34MOL0     H 4559   4.331   2.878  -0.317 -1.5033 -0.0068 -0.1154
   34MOL0     H 4560   4.095   2.990  -0.310  1.5420  1.4271 -1.6836
   34MOL0     H 4561   4.153   3.085  -0.172 -1.4962 -1.5218  2.2913
   34MOL0     H 4562   4.181   2.779  -0.198 -0.4334 -0.7611  0.9146
   34MOL0     H 4563   4.212   2.866  -0.054 -0.0270 -0.3395  1.0976
   34MOL0     H 4564   3.942   2.793  -0.193  0.8330 -0.0495 -1.0741
   34MOL0     H 4565   3.940   2.929  -0.076  0.1171 -0.5189  2.3765
   34MOL0     H 4566   4.045   2.637  -0.023  1.4531  0.7008  0.7777
   34MOL0     H 4567   4.003   2.758   0.099 -0.3671 -0.0252  0.6180
   34MOL0     H 4568   3.843   2.618   0.111 -0.4020 -0.8053 -0.5037
   34MOL0     H 4569   3.838   2.600  -0.066  0.8277  0.6859 -0.7215
   34MOL0     H 4570   3.734   2.830  -0.078 -0.6364  0.8022  0.2599
   34MOL0     H 4571   3.762   2.843   0.101 -0.2195 -0.4844 -0.2012
   34MOL0     H 4572   4.659   3.194  -0.250  3.4631  1.1396  0.1989
   34MOL0     H 4573   4.823   3.312  -0.132 -0.2547  1.1653 -0.9967
   34MOL0     H 4574   5.150   3.452   0.062  2.2366  2.2351 -1.5647
   34MOL0     H 4575   5.299   3.540   0.255 -0.6432 -1.0216  7.3135
   34MOL0     H 4576   6.673   3.205   0.496  0.1322  1.4445  0.4076
   34MOL0     H 4577   6.897   3.143   0.506  0.7698  3.6316  0.1000
   34MOL0     H 4578   7.321   3.200   0.361  1.7135  0.4069 -0.7353
   34MOL0     H 4579   7.552   3.166   0.380 -0.3205  2.4303 -2.2192
   34MOL0     H 4580   7.752   3.160   0.189  2.3732 -0.5098 -1.4342
   34MOL0     H 4581   7.772   3.132   0.364  1.2995  4.8638 -2.2762
   34MOL0     H 4582   7.944   3.025   0.140 -2.7187 -2.1989 -0.4454
   34MOL0     H 4583   7.924   2.927   0.276  1.3317  0.0659  0.0371
   34MOL0     H 4584   8.131   3.032   0.310  0.0134  1.1435 -0.3562
   34MOL0     H 4585   8.013   3.085   0.436 -1.3342 -0.1618  0.1405
   34MOL0     H 4586   8.104   3.236   0.182 -0.9408 -1.8451  0.0109
   34MOL0     H 4587   8.175   3.256   0.344 -1.3563  2.2874  1.6452
   34MOL0     H 4588   7.823   3.482   0.402  1.5074  2.8522 -2.3553
   34MOL0     H 4589   7.531   2.837   0.106 -1.1897 -0.1928 -0.6799
   34MOL0     H 4590   7.290   2.877   0.077 -1.2604 -0.4671  0.5455
   35MOL0     O 4591   2.397   9.846   6.768  0.1768  0.3663  0.0587
   35MOL0     C 4592   2.431   9.756   6.699 -0.0638 -0.1054  0.2095
   35MOL0     O 4593   2.350   9.673   6.635  0.3259 -0.0035 -0.1267
   35MOL0     C 4594   2.215   9.686   6.629  0.1203 -0.8686  0.0809
   35MOL0     C 4595   2.139   9.799   6.656 -0.6460  0.1094  0.3517
   35MOL0     C 4596   1.994   9.794   6.644  0.1824 -0.1779  0.3200
   35MOL0     C 4597   1.924   9.681   6.611  0.4507 -0.7110  0.3958
   35MOL0     O 4598   1.794   9.653   6.609 -0.0440 -0.1887 -0.0694
   35MOL0     C 4599   1.712   9.767   6.614 -0.7624 -0.3076  0.0419
   35MOL0     C 4600   1.569   9.722   6.588 -0.1946 -0.5058  0.1084
   35MOL0     C 4601   1.470   9.843   6.607 -0.1550 -0.1108  0.1519
   35MOL0     C 4602   1.347   9.796   6.539 -0.2870 -0.1712  0.5025
   35MOL0     C 4603   1.217   9.867   6.580 -0.2919 -0.1473  0.3887
   35MOL0     C 4604   1.091   9.812   6.508 -0.7714  0.1210 -0.4734
   35MOL0     C 4605   0.965   9.838   6.596  0.4637 -0.1270  0.5802
   35MOL0     C 4606   0.895   9.975   6.586 -0.9389  0.1491  0.6314
   35MOL0     N 4607   0.971  10.089   6.641 -0.5034  0.5848 -0.3948
   35MOL0     C 4608   0.991  10.210   6.577 -0.3274 -0.7914  0.9475
   35MOL0     C 4609   1.081  10.278   6.649  0.0616  1.2280  0.6569
   35MOL0     C 4610   1.147  10.399   6.594  0.2300  0.4907  0.0866
   35MOL0     C 4611   1.293  10.389   6.635 -0.1839 -0.2868 -0.3071
   35MOL0     C 4612   1.365  10.261   6.576 -0.0810  0.0239 -0.3418
   35MOL0     C 4613   1.512  10.301   6.578  0.3456  0.0379  0.3402
   35MOL0     O 4614   1.592  10.195   6.532  0.3242 -0.5332 -0.4089
   35MOL0     C 4615   1.726  10.206   6.551 -0.2966  0.0142  0.5142
   35MOL0     C 4616   1.782  10.306   6.627  0.7158 -1.4140 -0.4844
   35MOL0     C 4617   1.917  10.310   6.655 -0.0538 -0.1080  0.6242
   35MOL0     C 4618   1.963  10.434   6.734 -0.2275 -0.3865 -0.5618
   35MOL0     C 4619   2.006  10.214   6.602  0.8673  0.6217 -0.6959
   35MOL0     C 4620   2.153  10.207   6.622 -0.3530  0.4659 -0.4952
   35MOL0     O 4621   2.201  10.258   6.738  0.8156 -0.2409 -0.3365
   35MOL0     C 4622   2.337  10.257   6.777 -0.2117  0.5021  0.8182
   35MOL0     C 4623   2.452  10.241   6.694  0.1300 -0.9469  0.0643
   35MOL0     C 4624   2.579  10.247   6.750 -0.7116 -1.0557 -0.0871
   35MOL0     C 4625   2.605  10.253   6.889 -0.0320  0.1622  0.1061
   35MOL0     O 4626   2.733  10.250   6.934 -0.3623  0.3735  1.1452
   35MOL0     C 4627   2.760  10.186   7.060  0.8185 -0.4328 -0.4056
   35MOL0     C 4628   2.899  10.108   7.055 -0.3608  0.4372 -0.0434
   35MOL0     C 4629   3.024  10.191   7.040  0.1562  0.3935 -0.3607
   35MOL0     C 4630   3.121  10.121   6.951 -0.4402  0.5133  0.4578
   35MOL0     C 4631   3.242  10.211   6.907  0.2783 -0.3063 -0.1319
   35MOL0     C 4632   3.384  10.148   6.931  0.4751 -0.0017 -0.5137
   35MOL0     C 4633   3.486  10.202   6.833  0.3696  0.4531 -0.9792
   35MOL0     C 4634   3.626  10.173   6.871  0.0356  0.5364 -0.0412
   35MOL0    Cl 4635   3.683  10.300   6.979  0.4480  0.3755 -0.6516
   35MOL0     C 4636   2.492  10.263   6.967  0.4363 -0.4580 -1.2298
   35MOL0     C 4637   2.366  10.272   6.911  0.4675 -0.1176  0.6085
   35MOL0     O 4638   2.218  10.146   6.536 -0.4219  0.4637 -0.4285
   35MOL0     C 4639   1.947  10.105   6.528  0.2801  0.2333  0.7985
   35MOL0     C 4640   1.811  10.103   6.511  0.4593 -0.2512  1.0156
   35MOL0     N 4641   1.095  10.207   6.766  0.5217 -0.2095 -0.3050
   35MOL0     N 4642   1.032  10.092   6.761 -0.1792 -0.6810 -0.6108
   35MOL0     C 4643   2.005   9.572   6.582 -0.3644 -0.0340 -0.7417
   35MOL0     C 4644   2.145   9.574   6.600  0.1931 -0.3882  0.3753
   35MOL0     C 4645   2.567   9.703   6.701 -0.1526 -0.6434 -0.3543
   35MOL0     C 4646   2.613   9.587   6.637  0.0554 -0.8251 -0.7353
   35MOL0     C 4647   2.749   9.559   6.632 -0.4606 -0.5847 -0.1120
   35MOL0     C 4648   2.853   9.642   6.693  0.6133 -0.6296  0.8536
   35MOL0     O 4649   2.984   9.598   6.702  0.0518 -0.4297  0.2131
   35MOL0     C 4650   3.075   9.692   6.769 -0.3235  0.6952  0.3707
   35MOL0     C 4651   3.223   9.642   6.767 -0.4146 -0.0223  0.1036
   35MOL0     C 4652   3.307   9.743   6.836 -1.0283  0.1310 -0.5882
   35MOL0     C 4653   3.426   9.677   6.906 -0.2580  0.6951 -0.3211
   35MOL0     C 4654   3.504   9.781   6.977 -0.3085  0.3464 -0.2267
   35MOL0     C 4655   3.582   9.841   7.045 -0.2261 -0.2723 -0.8140
   35MOL0     C 4656   2.801   9.764   6.741 -0.3194  0.1257 -0.3796
   35MOL0     C 4657   2.669   9.785   6.761 -0.1497 -0.2390 -0.1551
   35MOL0     H 4658   2.190   9.886   6.694  2.0593 -1.3346  0.3003
   35MOL0     H 4659   1.934   9.875   6.686 -0.0809 -0.7324  1.0285
   35MOL0     H 4660   1.714   9.820   6.709 -0.2118  0.0760 -0.1753
   35MOL0     H 4661   1.734   9.838   6.534 -1.4947  1.4008  1.3027
   35MOL0     H 4662   1.580   9.687   6.485  0.6306 -3.3790  1.0596
   35MOL0     H 4663   1.529   9.642   6.651  0.6895 -1.0877 -0.0540
   35MOL0     H 4664   1.448   9.853   6.714 -1.5095 -1.0537  0.0003
   35MOL0     H 4665   1.516   9.931   6.563  0.0235 -0.2666  0.0251
   35MOL0     H 4666   1.362   9.803   6.431  0.8567 -0.4815  0.6286
   35MOL0     H 4667   1.331   9.689   6.554  1.4914 -0.3559  1.3376
   35MOL0     H 4668   1.208   9.860   6.689 -1.2387 -0.0060  0.3295
   35MOL0     H 4669   1.234   9.971   6.548  1.9214 -0.6289 -0.1753
   35MOL0     H 4670   1.086   9.856   6.408  0.8826  0.1678 -0.5552
   35MOL0     H 4671   1.091   9.702   6.506 -1.2804 -0.0398  2.8840
   35MOL0     H 4672   0.884   9.773   6.561  0.1803  0.8169 -0.5396
   35MOL0     H 4673   0.984   9.798   6.697  1.0034 -0.2911  0.4175
   35MOL0     H 4674   0.807   9.963   6.648 -0.7922  4.7290  2.0405
   35MOL0     H 4675   0.880   9.986   6.478 -0.2472 -2.7295  0.1467
   35MOL0     H 4676   0.945  10.249   6.486  1.7303  1.0383  0.6124
   35MOL0     H 4677   1.140  10.404   6.485 -0.2733 -0.0368  0.0910
   35MOL0     H 4678   1.101  10.487   6.641  1.5041  1.0844  0.2795
   35MOL0     H 4679   1.299  10.409   6.742  2.7892 -0.8429 -0.2921
   35MOL0     H 4680   1.345  10.474   6.590  2.2253 -2.3206 -1.5639
   35MOL0     H 4681   1.323  10.237   6.477 -1.2002 -4.6269  0.9887
   35MOL0     H 4682   1.339  10.175   6.639 -0.3669 -0.5332 -1.1939
   35MOL0     H 4683   1.541  10.321   6.681  1.4440  1.8595 -0.2643
   35MOL0     H 4684   1.530  10.394   6.522 -0.8273 -0.1956 -0.4597
   35MOL0     H 4685   1.719  10.386   6.664 -0.0155 -1.4712 -1.5575
   35MOL0     H 4686   2.068  10.456   6.712  0.3274 -1.2658  1.0878
   35MOL0     H 4687   1.908  10.525   6.706 -1.1901 -0.7412  0.1264
   35MOL0     H 4688   1.956  10.418   6.842  0.1316  0.4207 -0.4146
   35MOL0     H 4689   2.443  10.234   6.586 -0.3077 -4.1032  0.2004
   35MOL0     H 4690   2.665  10.238   6.684 -1.3251  0.0143 -1.0622
   35MOL0     H 4691   2.766  10.254   7.145  1.7067  0.6011 -1.2667
   35MOL0     H 4692   2.680  10.112   7.074  1.3671 -0.6621  1.7821
   35MOL0     H 4693   2.908  10.056   7.151  1.7216  0.6837 -0.0518
   35MOL0     H 4694   2.893  10.033   6.976  1.6960 -2.8171  2.6124
   35MOL0     H 4695   3.060  10.215   7.141 -0.1171 -0.3047 -0.0918
   35MOL0     H 4696   2.997  10.284   6.989  0.6190  1.2262  0.8702
   35MOL0     H 4697   3.153  10.025   6.994 -1.0557  0.1619  0.1517
   35MOL0     H 4698   3.073  10.094   6.857 -1.7163  2.9036  0.3698
   35MOL0     H 4699   3.237  10.313   6.945 -2.1337  1.0169 -3.4584
   35MOL0     H 4700   3.234  10.223   6.799  0.3462  1.2746  0.0232
   35MOL0     H 4701   3.408  10.152   7.038 -1.3088  2.4565 -0.1194
   35MOL0     H 4702   3.375  10.041   6.907  1.4376 -1.1848  3.5361
   35MOL0     H 4703   3.471  10.310   6.830  1.1551  0.7733  2.6413
   35MOL0     H 4704   3.461  10.162   6.735 -2.0717  0.5000 -0.4258
   35MOL0     H 4705   3.687  10.186   6.781 -1.2102 -2.3087 -1.4145
   35MOL0     H 4706   3.641  10.068   6.896  0.6598  0.7748  0.6500
   35MOL0     H 4707   2.494  10.269   7.075 -0.1562 -1.9464 -1.1118
   35MOL0     H 4708   2.278  10.263   6.974  0.5808  0.1678  0.8054
   35MOL0     H 4709   1.993  10.024   6.471 -1.7746  1.5341 -3.1096
   35MOL0     H 4710   1.764  10.025   6.453 -0.6728 -0.5995  2.3423
   35MOL0     H 4711   1.958   9.480   6.550 -0.8919  0.0299 -0.1811
   35MOL0     H 4712   2.195   9.478   6.596 -1.6669 -1.4847  1.7950
   35MOL0     H 4713   2.549   9.506   6.602 -2.4284  1.5633 -2.1071
   35MOL0     H 4714   2.792   9.461   6.611  2.0274  0.3248  0.3856
   35MOL0     H 4715   3.081   9.784   6.712 -0.1035  0.3699 -0.1337
   35MOL0     H 4716   3.048   9.701   6.875 -4.9004  2.6171 -0.7273
   35MOL0     H 4717   3.259   9.622   6.665  1.3159 -1.1931  0.8945
   35MOL0     H 4718   3.237   9.544   6.815  1.7981 -0.0329 -0.4480
   35MOL0     H 4719   3.242   9.798   6.905  2.2540  3.8570 -0.1188
   35MOL0     H 4720   3.355   9.815   6.769 -0.1885 -0.6053 -0.7969
   35MOL0     H 4721   3.487   9.611   6.843  1.2702  1.1662  0.6250
   35MOL0     H 4722   3.398   9.610   6.987 -1.0751  0.0193 -1.1320
   35MOL0     H 4723   3.661   9.894   7.094 -0.8024 -1.4017  1.4747
   35MOL0     H 4724   2.865   9.847   6.771  1.9862 -2.1162  1.3487
   35MOL0     H 4725   2.630   9.870   6.817 -0.1780 -1.1435  1.2429
   36MOL0     O 4726   2.516   9.528   9.124 -0.6473  0.2619 -0.7905
   36MOL0     C 4727   2.579   9.528   9.237 -0.5201 -0.4669 -0.4520
   36MOL0     O 4728   2.526   9.574   9.355  0.0156  0.7895  0.0919
   36MOL0     C 4729   2.390   9.581   9.363  0.0512 -0.4391 -0.0918
   36MOL0     C 4730   2.328   9.490   9.446  0.2664  0.3399  0.3525
   36MOL0     C 4731   2.190   9.482   9.453  0.0495 -0.4239  0.1823
   36MOL0     C 4732   2.114   9.561   9.371  0.1459 -0.2870  0.3459
   36MOL0     O 4733   1.977   9.551   9.365 -0.4833 -0.0722  0.9958
   36MOL0     C 4734   1.929   9.453   9.274  0.0577 -0.5156 -0.0846
   36MOL0     C 4735   1.799   9.404   9.328  0.8624  1.3523  0.0024
   36MOL0     C 4736   1.822   9.324   9.461  0.7730  0.2932  0.1648
   36MOL0     C 4737   1.901   9.198   9.436 -0.6783 -0.3254  0.0739
   36MOL0     C 4738   1.905   9.109   9.560 -0.9589  0.0973 -0.1002
   36MOL0     C 4739   1.997   9.170   9.673 -0.5449 -0.1893 -0.4920
   36MOL0     C 4740   1.966   9.094   9.800 -0.3346 -0.0844  0.3172
   36MOL0     C 4741   2.073   9.150   9.904 -0.7942 -0.0202 -0.5239
   36MOL0     N 4742   2.023   9.108  10.035  1.1976  0.2781 -0.2881
   36MOL0     C 4743   2.011   8.978  10.081  0.6265  0.1605  0.4994
   36MOL0     C 4744   1.925   8.987  10.189  0.0838 -0.4598  0.0127
   36MOL0     C 4745   1.879   8.877  10.269  1.0161 -0.2119 -0.7510
   36MOL0     C 4746   1.738   8.829  10.229  0.3307  0.7280 -0.1006
   36MOL0     C 4747   1.665   8.772  10.356 -0.1585  0.6370 -0.3974
   36MOL0     C 4748   1.531   8.705  10.325 -0.0314  0.9653  0.2308
   36MOL0     O 4749   1.556   8.575  10.269 -0.1513 -0.1215 -0.1931
   36MOL0     C 4750   1.455   8.487  10.249 -0.5811  0.2170  0.3809
   36MOL0     C 4751   1.346   8.485  10.338 -0.0452 -0.7680  0.4114
   36MOL0     C 4752   1.228   8.416  10.311  0.3708  0.5901  1.2450
   36MOL0     C 4753   1.118   8.414  10.410 -0.7212 -0.2259 -0.6891
   36MOL0     C 4754   1.218   8.348  10.177 -0.3639  0.4828  0.7962
   36MOL0     C 4755   1.096   8.279  10.130 -0.3769  0.0898  0.6007
   36MOL0     O 4756   0.999   8.234  10.229  0.3723  0.9439 -0.9228
   36MOL0     C 4757   0.879   8.188  10.174  0.6377  0.0408 -0.1845
   36MOL0     C 4758   0.877   8.080  10.092  0.1638  0.0054 -0.7688
   36MOL0     C 4759   0.762   8.035  10.026 -0.1296 -0.1127  0.8661
   36MOL0     C 4760   0.644   8.106  10.041  0.3018  0.1270 -0.2127
   36MOL0     O 4761   0.530   8.061   9.989  0.3208  0.5133  0.7183
   36MOL0     C 4762   0.521   7.963   9.885  0.4412  0.5077 -0.1500
   36MOL0     C 4763   0.554   8.030   9.750 -0.1612 -0.7546 -0.7758
   36MOL0     C 4764   0.516   7.937   9.636  0.9032 -0.9168 -0.7896
   36MOL0     C 4765   0.557   8.003   9.503  0.5086  0.4154 -0.2264
   36MOL0     C 4766   0.502   7.926   9.383  0.1116  0.2041  0.1688
   36MOL0     C 4767   0.341   7.920   9.388 -0.2576  0.4454  0.2188
   36MOL0     C 4768   0.279   8.054   9.359  0.0149  0.9334 -0.2943
   36MOL0     C 4769   0.211   8.059   9.222 -0.0807  1.0187 -0.4252
   36MOL0    Cl 4770   0.065   7.943   9.215 -0.4387 -0.1132  0.2023
   36MOL0     C 4771   0.637   8.213  10.131  0.7023 -0.1521 -0.6563
   36MOL0     C 4772   0.755   8.254  10.193 -0.1223  0.8677 -0.7032
   36MOL0     O 4773   1.081   8.274  10.007  0.4574 -0.1219  0.6665
   36MOL0     C 4774   1.329   8.362  10.091 -0.3965  1.6662  0.0094
   36MOL0     C 4775   1.448   8.425  10.120  0.2908 -0.8008 -0.0980
   36MOL0     N 4776   1.892   9.121  10.208 -0.1759 -0.1178  0.3122
   36MOL0     N 4777   1.958   9.191  10.118  0.9486  0.0780  0.3393
   36MOL0     C 4778   2.172   9.671   9.308 -0.9341  0.3484 -0.5930
   36MOL0     C 4779   2.315   9.684   9.303  0.8741  0.2188  0.1141
   36MOL0     C 4780   2.717   9.464   9.248 -0.2623 -0.6208 -0.6913
   36MOL0     C 4781   2.794   9.421   9.128  0.4695 -0.1344 -0.1979
   36MOL0     C 4782   2.902   9.342   9.151  0.4928 -0.6424  0.2053
   36MOL0     C 4783   2.960   9.320   9.278 -1.0120 -0.1529 -0.1238
   36MOL0     O 4784   3.078   9.252   9.307 -0.6525  0.2015  0.0393
   36MOL0     C 4785   3.138   9.170   9.211 -0.9134 -0.4927  0.5891
   36MOL0     C 4786   3.062   9.043   9.175 -0.3395 -0.1836  0.5480
   36MOL0     C 4787   3.018   8.950   9.288 -0.4950 -0.2259 -0.0532
   36MOL0     C 4788   3.130   8.897   9.377  0.7323 -0.1070  0.2541
   36MOL0     C 4789   3.085   8.780   9.463  0.5787 -0.0706  0.6518
   36MOL0     C 4790   3.061   8.679   9.527  0.0357  0.3809 -0.5221
   36MOL0     C 4791   2.899   9.374   9.392  0.6774  0.3275  0.5987
   36MOL0     C 4792   2.776   9.450   9.380 -0.0318  0.6388 -0.5174
   36MOL0     H 4793   2.389   9.418   9.501  0.4021 -0.2072 -0.4888
   36MOL0     H 4794   2.145   9.400   9.507 -2.3507 -1.3059 -2.8748
   36MOL0     H 4795   1.904   9.503   9.180 -2.3119 -0.3172  0.5972
   36MOL0     H 4796   2.003   9.372   9.271  0.5804 -0.1189  1.3080
   36MOL0     H 4797   1.740   9.488   9.365  1.2687  1.0409  1.4047
   36MOL0     H 4798   1.746   9.346   9.252 -0.1519  1.8649  0.2990
   36MOL0     H 4799   1.868   9.382   9.542 -2.8991 -0.4614  3.0435
   36MOL0     H 4800   1.722   9.299   9.498 -1.0874  2.9921 -2.5568
   36MOL0     H 4801   1.844   9.144   9.359 -2.3858 -2.1770  2.4553
   36MOL0     H 4802   2.004   9.224   9.409 -0.0975 -0.3622  2.1234
   36MOL0     H 4803   1.806   9.107   9.605  0.3664  0.4740  3.0995
   36MOL0     H 4804   1.930   9.004   9.541  0.8547  0.3881  0.4292
   36MOL0     H 4805   2.100   9.176   9.637 -0.7629  3.0363 -0.8593
   36MOL0     H 4806   1.978   9.277   9.685  1.5220  0.4409 -2.0989
   36MOL0     H 4807   1.872   9.110   9.854 -0.0862 -0.1386  0.7752
   36MOL0     H 4808   1.982   8.988   9.779  0.4612  0.4932 -2.4023
   36MOL0     H 4809   2.072   9.259   9.897 -2.2621  0.0660  0.4909
   36MOL0     H 4810   2.170   9.104   9.884 -0.7900 -2.2832  3.6675
   36MOL0     H 4811   2.070   8.894  10.047  1.8056 -0.1434  3.0449
   36MOL0     H 4812   1.954   8.797  10.280 -0.1838 -1.3621 -0.7014
   36MOL0     H 4813   1.867   8.931  10.363  2.3778  0.1809 -0.7732
   36MOL0     H 4814   1.747   8.753  10.152 -0.0338  1.5355 -0.9559
   36MOL0     H 4815   1.678   8.916  10.201  0.9440  1.7697  1.6491
   36MOL0     H 4816   1.645   8.852  10.428  0.3678  1.0372 -0.6947
   36MOL0     H 4817   1.739   8.706  10.401  0.8827  3.2010  1.9415
   36MOL0     H 4818   1.461   8.751  10.254 -0.2622 -1.1912 -1.0142
   36MOL0     H 4819   1.489   8.704  10.426 -0.5936 -1.7207  0.0353
   36MOL0     H 4820   1.351   8.543  10.430  2.9597  0.9340 -0.6492
   36MOL0     H 4821   1.103   8.312  10.446  2.0700 -1.0749 -1.6648
   36MOL0     H 4822   1.146   8.481  10.491 -0.3495 -0.2717 -0.7767
   36MOL0     H 4823   1.024   8.446  10.362  0.1386 -1.4174 -3.4044
   36MOL0     H 4824   0.967   8.023  10.073  0.1977 -0.7043  1.3065
   36MOL0     H 4825   0.771   7.952   9.957  0.5132  1.7281 -1.4137
   36MOL0     H 4826   0.577   7.875   9.920  1.1254  0.2439 -1.8103
   36MOL0     H 4827   0.417   7.931   9.881  0.9612 -1.1277 -1.6989
   36MOL0     H 4828   0.503   8.123   9.722  0.7260 -0.9247 -3.1543
   36MOL0     H 4829   0.660   8.056   9.739 -1.0475  3.8825 -0.5857
   36MOL0     H 4830   0.408   7.918   9.642  0.4746  1.6557  1.5520
   36MOL0     H 4831   0.574   7.845   9.647  1.2325 -0.4266  2.3305
   36MOL0     H 4832   0.517   8.105   9.516  1.1537  0.5906  0.4864
   36MOL0     H 4833   0.666   8.011   9.501  0.3989  2.3366 -1.6414
   36MOL0     H 4834   0.543   7.825   9.380 -0.1065 -0.1977  4.4750
   36MOL0     H 4835   0.522   7.982   9.292  2.5597 -0.5165  0.2032
   36MOL0     H 4836   0.311   7.858   9.303 -4.0696  2.6097 -0.2491
   36MOL0     H 4837   0.295   7.885   9.480 -0.3623  3.4891  1.4596
   36MOL0     H 4838   0.346   8.140   9.364  1.7095 -0.3913  0.7743
   36MOL0     H 4839   0.198   8.062   9.433 -0.9656 -1.4757 -1.0057
   36MOL0     H 4840   0.287   8.031   9.148 -1.1538  2.0369 -1.9623
   36MOL0     H 4841   0.182   8.162   9.202  0.0362  1.3291  0.9305
   36MOL0     H 4842   0.541   8.257  10.156  0.4742  0.5732 -2.6594
   36MOL0     H 4843   0.747   8.338  10.261 -2.2931 -0.2048  0.4601
   36MOL0     H 4844   1.322   8.324   9.989  1.3200  1.1966  0.0330
   36MOL0     H 4845   1.526   8.434  10.045  1.4810 -1.3185  1.0341
   36MOL0     H 4846   2.111   9.739   9.249  2.0786  4.0502  0.1581
   36MOL0     H 4847   2.358   9.767   9.249 -1.0565 -0.0074 -1.8829
   36MOL0     H 4848   2.751   9.439   9.031 -0.5813  0.6511  0.3932
   36MOL0     H 4849   2.956   9.305   9.064 -3.6018  1.2948 -3.5413
   36MOL0     H 4850   3.147   9.220   9.114  1.8543 -0.2681  0.8790
   36MOL0     H 4851   3.236   9.130   9.238  0.1676  1.6829  0.1269
   36MOL0     H 4852   3.128   8.993   9.104  0.5137 -3.0460  3.1592
   36MOL0     H 4853   2.968   9.074   9.127  0.6001  1.8639 -0.1183
   36MOL0     H 4854   2.959   8.872   9.238  0.4633 -1.5011  0.7317
   36MOL0     H 4855   2.947   9.007   9.349 -3.4689 -1.9575 -1.6200
   36MOL0     H 4856   3.159   8.982   9.439  1.2350 -0.6356  0.7523
   36MOL0     H 4857   3.212   8.860   9.315  1.4424  0.0798  1.0705
   36MOL0     H 4858   3.042   8.584   9.573  1.7762 -0.6045 -1.7383
   36MOL0     H 4859   2.925   9.351   9.495  0.5090 -1.0327  0.3545
   36MOL0     H 4860   2.726   9.495   9.465  2.7730  0.6302  1.2431
   37MOL0     O 4861   8.843   7.501   7.472  0.2310  0.4612 -0.2178
   37MOL0     C 4862   8.811   7.575   7.385  0.2660 -0.5960  0.0165
   37MOL0     O 4863   8.701   7.563   7.304 -0.3661 -0.2653 -0.2445
   37MOL0     C 4864   8.608   7.460   7.329 -0.2981  0.0973 -0.4143
   37MOL0     C 4865   8.484   7.478   7.376  0.5687  0.9941  0.1939
   37MOL0     C 4866   8.382   7.384   7.368  0.9200 -0.5539 -0.4389
   37MOL0     C 4867   8.407   7.254   7.319  0.0164  0.4268  0.9500
   37MOL0     O 4868   8.313   7.153   7.315 -0.3510  0.2477  0.2458
   37MOL0     C 4869   8.176   7.187   7.358 -0.7834 -0.4459 -1.2652
   37MOL0     C 4870   8.098   7.062   7.333 -0.2242  0.4840  0.3557
   37MOL0     C 4871   7.951   7.079   7.379 -0.1905 -0.0615 -0.5197
   37MOL0     C 4872   7.879   6.947   7.372  1.1497  0.5192  0.2904
   37MOL0     C 4873   7.730   6.968   7.426 -0.3950  0.6341 -0.6990
   37MOL0     C 4874   7.664   6.832   7.455 -0.9730 -0.5965 -0.0888
   37MOL0     C 4875   7.527   6.855   7.509  0.2446 -0.7731  0.1475
   37MOL0     C 4876   7.464   6.735   7.586 -0.3501 -0.4844  0.2228
   37MOL0     N 4877   7.333   6.768   7.645 -0.1847  0.1884  0.0192
   37MOL0     C 4878   7.309   6.862   7.737  0.9195  0.3804 -0.5138
   37MOL0     C 4879   7.170   6.853   7.749  0.4381 -0.6224  0.4998
   37MOL0     C 4880   7.078   6.947   7.830  0.0871  0.3114 -0.3720
   37MOL0     C 4881   6.929   6.951   7.779  0.7149 -0.1691  0.2564
   37MOL0     C 4882   6.856   7.076   7.829 -0.8005 -0.2033 -0.2779
   37MOL0     C 4883   6.721   7.084   7.770  0.2093  0.6586 -0.6143
   37MOL0     O 4884   6.716   7.079   7.629  0.2740 -0.0898  0.2950
   37MOL0     C 4885   6.597   7.070   7.555 -0.5607 -0.0815  0.4877
   37MOL0     C 4886   6.612   7.075   7.416  0.0311 -0.5792 -0.2439
   37MOL0     C 4887   6.499   7.057   7.331 -0.9920  0.3390  0.4426
   37MOL0     C 4888   6.518   7.055   7.182  0.0132 -0.0789 -0.3372
   37MOL0     C 4889   6.370   7.035   7.384  0.0402 -0.6887 -0.3775
   37MOL0     C 4890   6.253   6.994   7.299 -0.2582 -0.4345 -0.3139
   37MOL0     O 4891   6.172   6.901   7.354 -0.2509 -0.3497  0.4924
   37MOL0     C 4892   6.050   6.891   7.299  0.9587 -0.3002  0.0259
   37MOL0     C 4893   6.015   6.782   7.218 -0.1635  0.7625 -0.9667
   37MOL0     C 4894   5.888   6.779   7.158  1.4403 -0.0749 -0.7566
   37MOL0     C 4895   5.785   6.868   7.176 -1.0853 -0.0565  0.1144
   37MOL0     O 4896   5.674   6.856   7.098  0.4292  0.5751 -0.1013
   37MOL0     C 4897   5.554   6.890   7.163  0.5275  0.7110 -0.7776
   37MOL0     C 4898   5.443   6.865   7.060 -0.2711  0.3253 -0.2713
   37MOL0     C 4899   5.426   6.713   7.045  0.0003 -0.1143  1.2093
   37MOL0     C 4900   5.351   6.675   6.918  0.3807 -0.8507  0.0382
   37MOL0     C 4901   5.197   6.688   6.951  0.2416  0.1452 -0.1158
   37MOL0     C 4902   5.116   6.671   6.820 -0.5906 -0.4967 -0.0830
   37MOL0     C 4903   4.983   6.748   6.810 -0.2885  0.8269 -0.8116
   37MOL0     C 4904   4.900   6.713   6.687  0.1337  0.4575  0.1747
   37MOL0    Cl 4905   4.892   6.526   6.647 -0.0957 -0.1103  0.1504
   37MOL0     C 4906   5.816   6.978   7.257  0.3145 -0.4902 -0.8651
   37MOL0     C 4907   5.947   6.993   7.315  0.3009  0.6464 -0.0434
   37MOL0     O 4908   6.231   7.067   7.200  0.2067 -0.3467 -0.5555
   37MOL0     C 4909   6.361   7.055   7.527  0.0590  0.0691  0.0598
   37MOL0     C 4910   6.469   7.062   7.614 -0.7830  0.0514  0.5793
   37MOL0     N 4911   7.121   6.750   7.666  0.1107  0.6136  0.1498
   37MOL0     N 4912   7.222   6.710   7.594 -0.4917 -1.1112 -0.5519
   37MOL0     C 4913   8.539   7.228   7.276  0.5472  0.6152 -0.8511
   37MOL0     C 4914   8.639   7.328   7.287  0.5105 -0.1363  0.2853
   37MOL0     C 4915   8.894   7.690   7.371 -0.2384 -0.5266  0.0233
   37MOL0     C 4916   9.030   7.689   7.397  0.1381  0.4264  0.1391
   37MOL0     C 4917   9.118   7.794   7.380  0.0738  0.5551  0.5930
   37MOL0     C 4918   9.065   7.914   7.319  0.3537  0.2567  0.1428
   37MOL0     O 4919   9.137   8.027   7.304 -0.3101  0.0780  0.3360
   37MOL0     C 4920   9.275   8.017   7.263  0.4033  0.0547  0.4015
   37MOL0     C 4921   9.370   8.039   7.386  0.0936  0.2412  0.1832
   37MOL0     C 4922   9.348   8.169   7.465 -0.4193 -0.0049 -0.2859
   37MOL0     C 4923   9.424   8.292   7.400  0.5194  0.3979 -0.1415
   37MOL0     C 4924   9.466   8.384   7.503  0.4166 -0.9600 -0.1095
   37MOL0     C 4925   9.506   8.476   7.577  0.1864 -0.0893 -0.0796
   37MOL0     C 4926   8.927   7.918   7.290 -0.2408  0.4373 -0.1424
   37MOL0     C 4927   8.841   7.811   7.317  0.7500 -0.1940 -0.7888
   37MOL0     H 4928   8.465   7.583   7.400 -1.2999  0.3735  1.7619
   37MOL0     H 4929   8.285   7.417   7.404  0.0881 -2.9384 -0.3404
   37MOL0     H 4930   8.172   7.201   7.466 -0.9114 -3.3650 -0.7931
   37MOL0     H 4931   8.120   7.268   7.310 -4.1722 -0.9617  1.4658
   37MOL0     H 4932   8.083   7.037   7.227 -2.0543 -1.7738  1.0634
   37MOL0     H 4933   8.142   6.977   7.387  0.0595 -0.5810 -1.4293
   37MOL0     H 4934   7.952   7.111   7.483 -1.5963 -1.6105  0.0072
   37MOL0     H 4935   7.893   7.147   7.315 -2.2813 -0.7455  0.5706
   37MOL0     H 4936   7.864   6.914   7.269 -2.8475  0.6827  0.6523
   37MOL0     H 4937   7.936   6.873   7.429  2.6548  2.3663  1.3158
   37MOL0     H 4938   7.749   7.014   7.523  0.1121 -2.0560  0.5896
   37MOL0     H 4939   7.667   7.041   7.376 -3.4432 -1.0297  0.4615
   37MOL0     H 4940   7.654   6.780   7.358  1.5210  0.6509 -1.0901
   37MOL0     H 4941   7.729   6.781   7.527 -0.0367 -0.2429 -0.6703
   37MOL0     H 4942   7.522   6.939   7.580 -2.5738  0.2619 -1.1259
   37MOL0     H 4943   7.462   6.884   7.426 -0.6551  0.5234  1.2695
   37MOL0     H 4944   7.517   6.710   7.678  1.9147  1.6040 -0.3760
   37MOL0     H 4945   7.462   6.652   7.515 -0.1873  1.0587 -1.6862
   37MOL0     H 4946   7.373   6.926   7.796 -0.8290  0.7406  1.1070
   37MOL0     H 4947   7.080   6.908   7.932 -1.8026 -2.2696 -1.2040
   37MOL0     H 4948   7.120   7.048   7.826 -1.1946  0.8424 -0.9685
   37MOL0     H 4949   6.873   6.862   7.806  0.8537 -1.1771 -2.4780
   37MOL0     H 4950   6.937   6.945   7.670 -0.6698  0.5738  0.0862
   37MOL0     H 4951   6.920   7.158   7.797  1.7166 -1.0369  2.1731
   37MOL0     H 4952   6.846   7.082   7.938 -0.4227 -1.3501 -0.1615
   37MOL0     H 4953   6.662   7.170   7.801  0.7009  1.5886 -2.1305
   37MOL0     H 4954   6.670   6.994   7.805  2.0440  0.2571  1.2017
   37MOL0     H 4955   6.704   7.093   7.363  0.8961 -1.6139  0.8384
   37MOL0     H 4956   6.616   7.091   7.150 -0.7260  1.0926 -1.3725
   37MOL0     H 4957   6.499   6.952   7.149 -1.8485 -0.8670  2.7507
   37MOL0     H 4958   6.446   7.130   7.147  1.7285  2.3493  1.0339
   37MOL0     H 4959   6.082   6.699   7.200 -0.8627  0.4280 -2.0961
   37MOL0     H 4960   5.876   6.693   7.093  2.9269  0.5724 -1.9517
   37MOL0     H 4961   5.529   6.833   7.253 -0.1526 -3.4490 -3.3021
   37MOL0     H 4962   5.554   6.997   7.186 -0.5902  1.2289 -2.9113
   37MOL0     H 4963   5.351   6.919   7.082 -0.0230  0.7597 -0.2989
   37MOL0     H 4964   5.475   6.904   6.964 -1.4216 -0.8057 -1.1465
   37MOL0     H 4965   5.372   6.660   7.124 -1.4778 -0.6654 -0.1074
   37MOL0     H 4966   5.523   6.662   7.048 -0.8736 -1.9846 -0.0009
   37MOL0     H 4967   5.368   6.743   6.835 -0.9103  0.7910  1.0580
   37MOL0     H 4968   5.370   6.573   6.885  1.1630 -0.8312  0.3859
   37MOL0     H 4969   5.181   6.788   6.991 -1.6213 -1.3264  3.2576
   37MOL0     H 4970   5.160   6.616   7.026  0.4425  0.6408  0.4694
   37MOL0     H 4971   5.168   6.716   6.735 -1.8668  0.4725 -0.3917
   37MOL0     H 4972   5.091   6.565   6.809 -1.2716 -0.3112 -0.4058
   37MOL0     H 4973   5.000   6.856   6.807  0.4960  0.8839  2.3038
   37MOL0     H 4974   4.926   6.726   6.901 -1.7106  2.1829 -1.3303
   37MOL0     H 4975   4.942   6.765   6.600 -1.0176  0.0435 -0.6553
   37MOL0     H 4976   4.794   6.743   6.692  0.0944  1.0092 -2.4120
   37MOL0     H 4977   5.747   7.059   7.272  1.2839  0.4444 -1.3103
   37MOL0     H 4978   5.961   7.079   7.381 -0.7447 -1.2831  2.8969
   37MOL0     H 4979   6.266   7.029   7.573 -0.2902  0.5775 -0.3677
   37MOL0     H 4980   6.466   7.050   7.722 -1.6112  0.1573  0.5770
   37MOL0     H 4981   8.566   7.130   7.237 -0.4086  0.4489 -1.1280
   37MOL0     H 4982   8.734   7.322   7.236  0.8258  0.6516  0.7590
   37MOL0     H 4983   9.064   7.600   7.449  0.1371  1.0057  1.1494
   37MOL0     H 4984   9.222   7.777   7.406  1.7947  2.4165 -3.9334
   37MOL0     H 4985   9.299   7.925   7.208  1.6798 -0.9471  2.4976
   37MOL0     H 4986   9.288   8.095   7.188  0.3692 -0.3246 -0.0047
   37MOL0     H 4987   9.475   8.026   7.358  0.3595 -2.7556  2.1069
   37MOL0     H 4988   9.344   7.953   7.450 -0.6093 -1.4715 -2.2683
   37MOL0     H 4989   9.386   8.159   7.567 -2.7541  1.4708  0.7922
   37MOL0     H 4990   9.241   8.187   7.474  0.0544  3.0105  0.4898
   37MOL0     H 4991   9.350   8.341   7.337 -2.7790 -0.7878  2.4824
   37MOL0     H 4992   9.508   8.250   7.344 -0.4807 -2.3236  0.2526
   37MOL0     H 4993   9.536   8.556   7.642 -0.4899 -0.6481  0.9412
   37MOL0     H 4994   8.880   8.002   7.241  1.8298  2.4650  1.1661
   37MOL0     H 4995   8.738   7.807   7.281  1.1007  0.0809 -1.8786
   38MOL0     O 4996   0.639   6.972  10.899 -0.6613  0.1644 -0.2062
   38MOL0     C 4997   0.714   6.922  10.813  0.4722  0.0852 -0.6016
   38MOL0     O 4998   0.676   6.815  10.728 -0.0247  0.6111  0.0518
   38MOL0     C 4999   0.568   6.734  10.754 -0.3949 -1.1955 -0.5308
   38MOL0     C 5000   0.456   6.765  10.842  0.4299  0.8770 -0.0904
   38MOL0     C 5001   0.354   6.665  10.862  0.9718 -0.5274  0.3687
   38MOL0     C 5002   0.373   6.537  10.801 -0.1591 -0.0311 -0.0175
   38MOL0     O 5003   0.271   6.447  10.834 -0.7364 -0.4433 -0.1187
   38MOL0     C 5004   0.287   6.320  10.772  0.3674  0.0616 -0.0744
   38MOL0     C 5005   0.169   6.236  10.791 -0.2170 -0.3319 -0.0355
   38MOL0     C 5006   0.032   6.315  10.772 -0.6361 -0.8779  0.3302
   38MOL0     C 5007  -0.042   6.309  10.909 -0.4944 -0.1039  0.1876
   38MOL0     C 5008  -0.181   6.374  10.915 -0.5562 -0.1985  0.4481
   38MOL0     C 5009  -0.286   6.310  10.824 -0.1627 -0.4200 -0.1360
   38MOL0     C 5010  -0.426   6.364  10.865  0.3276 -0.3887 -0.9156
   38MOL0     C 5011  -0.533   6.350  10.752  0.4667 -0.2869 -0.1433
   38MOL0     N 5012  -0.676   6.397  10.785 -0.4844  0.3653 -0.3140
   38MOL0     C 5013  -0.754   6.330  10.871 -0.1789  0.0840 -0.3383
   38MOL0     C 5014  -0.859   6.418  10.890  0.1908  0.1175 -0.2824
   38MOL0     C 5015  -0.975   6.391  10.986  0.3189 -0.0145 -0.1321
   38MOL0     C 5016  -1.104   6.457  10.920 -0.1216 -0.2610 -0.1491
   38MOL0     C 5017  -1.232   6.421  11.005  0.0917 -0.2079 -0.5168
   38MOL0     C 5018  -1.363   6.482  10.945 -1.0131  0.0451 -0.3868
   38MOL0     O 5019  -1.388   6.420  10.823 -0.3042  0.0722 -0.0290
   38MOL0     C 5020  -1.530   6.402  10.791 -0.6556  0.6568 -0.2043
   38MOL0     C 5021  -1.563   6.279  10.747 -0.1000  1.2825 -0.5546
   38MOL0     C 5022  -1.700   6.243  10.733  0.3156  0.3581  0.0130
   38MOL0     C 5023  -1.723   6.111  10.673 -0.2408  0.9828 -0.4724
   38MOL0     C 5024  -1.799   6.342  10.752  0.5717 -0.3434  0.6099
   38MOL0     C 5025  -1.946   6.321  10.729  0.4956  0.9026 -0.0297
   38MOL0     O 5026  -2.017   6.435  10.746  0.4721  0.2281  0.9405
   38MOL0     C 5027  -2.145   6.426  10.795 -0.3107 -0.0883 -0.1093
   38MOL0     C 5028  -2.176   6.336  10.898  0.1620  0.6868  0.5548
   38MOL0     C 5029  -2.297   6.341  10.960 -0.0764 -0.2094 -0.2779
   38MOL0     C 5030  -2.397   6.434  10.921  0.4007 -0.4865 -0.1177
   38MOL0     O 5031  -2.512   6.420  10.981  0.4965 -0.4866  0.3140
   38MOL0     C 5032  -2.631   6.480  10.917 -0.7837 -0.1066 -0.0772
   38MOL0     C 5033  -2.759   6.451  10.991  0.4744 -0.4887 -0.1903
   38MOL0     C 5034  -2.898   6.464  10.919 -0.2991 -0.5459 -0.1043
   38MOL0     C 5035  -2.949   6.610  10.908  0.8371  0.1220  0.0480
   38MOL0     C 5036  -3.102   6.618  10.886 -0.0762  0.4031 -0.2022
   38MOL0     C 5037  -3.151   6.762  10.850  0.6617 -0.9722  0.7201
   38MOL0     C 5038  -3.295   6.756  10.800 -0.1590  0.0118 -0.8741
   38MOL0     C 5039  -3.347   6.893  10.769  0.7382  0.8777 -0.1900
   38MOL0    Cl 5040  -3.385   6.984  10.928 -0.2447 -0.4700  0.4926
   38MOL0     C 5041  -2.368   6.518  10.814 -0.2924 -0.8472 -0.4931
   38MOL0     C 5042  -2.240   6.524  10.754 -0.2895  0.9359 -0.5161
   38MOL0     O 5043  -1.995   6.211  10.694  0.2617 -1.2442 -0.0814
   38MOL0     C 5044  -1.757   6.459  10.821  0.3345 -1.1446  0.0465
   38MOL0     C 5045  -1.626   6.491  10.833 -0.7909  0.5722 -0.1724
   38MOL0     N 5046  -0.837   6.528  10.816  0.1483 -0.3832 -0.1669
   38MOL0     N 5047  -0.725   6.518  10.758  0.0701  0.5775 -0.3331
   38MOL0     C 5048   0.497   6.513  10.730 -0.1591  0.5446  1.1273
   38MOL0     C 5049   0.582   6.611  10.695 -0.3215 -0.4665  0.3999
   38MOL0     C 5050   0.858   6.968  10.799  0.7606 -0.9927  0.5259
   38MOL0     C 5051   0.895   7.099  10.842  0.0262 -0.8055 -0.9110
   38MOL0     C 5052   1.021   7.144  10.821 -0.0128  0.5224 -0.1153
   38MOL0     C 5053   1.119   7.065  10.754 -0.6471  0.9413  0.1069
   38MOL0     O 5054   1.245   7.112  10.745  0.5260 -0.0295  0.1554
   38MOL0     C 5055   1.345   7.028  10.800 -0.6578 -0.2302 -0.2861
   38MOL0     C 5056   1.406   7.119  10.910 -0.1080  0.7945 -0.2218
   38MOL0     C 5057   1.476   7.237  10.853 -0.2667 -0.3845 -0.0405
   38MOL0     C 5058   1.626   7.202  10.826  0.5952  0.7117 -0.3341
   38MOL0     C 5059   1.671   7.264  10.702  0.5486  0.8354  0.1230
   38MOL0     C 5060   1.707   7.327  10.610 -0.3698  0.8477  0.2074
   38MOL0     C 5061   1.077   6.939  10.715  1.0438 -0.0815 -0.2619
   38MOL0     C 5062   0.946   6.888  10.734  0.0770  0.0138 -0.2199
   38MOL0     H 5063   0.430   6.852  10.902 -4.5471 -1.5822  1.8950
   38MOL0     H 5064   0.267   6.691  10.921 -0.8344  1.7854 -3.0039
   38MOL0     H 5065   0.304   6.323  10.664 -2.8240  0.0805 -0.6897
   38MOL0     H 5066   0.378   6.272  10.808 -0.2408 -1.0987 -0.0388
   38MOL0     H 5067   0.175   6.161  10.711 -0.8104  0.3283 -0.7131
   38MOL0     H 5068   0.173   6.189  10.889  1.7139  0.2032  0.1680
   38MOL0     H 5069   0.044   6.417  10.735  3.1022 -0.9909  0.8822
   38MOL0     H 5070  -0.034   6.267  10.698 -0.7099 -0.0946 -0.1216
   38MOL0     H 5071  -0.060   6.202  10.924 -1.7036 -0.8853 -4.8534
   38MOL0     H 5072   0.009   6.363  10.989  1.5086  0.3336 -1.3088
   38MOL0     H 5073  -0.211   6.380  11.020  1.3893  3.2000  0.9755
   38MOL0     H 5074  -0.180   6.479  10.885  0.6624 -0.7081 -1.5011
   38MOL0     H 5075  -0.270   6.352  10.725  0.1216  0.2748  0.2051
   38MOL0     H 5076  -0.283   6.200  10.823 -0.8811 -0.4420 -1.7686
   38MOL0     H 5077  -0.464   6.311  10.953  1.8742  0.3728  0.2451
   38MOL0     H 5078  -0.418   6.465  10.905  0.3208  0.1100 -2.1567
   38MOL0     H 5079  -0.542   6.245  10.723  0.5332  0.3338 -2.6006
   38MOL0     H 5080  -0.487   6.402  10.669  0.9708 -0.7732 -0.1753
   38MOL0     H 5081  -0.725   6.235  10.916  4.5302  0.6341 -1.6435
   38MOL0     H 5082  -0.985   6.282  10.987  2.8689 -0.3009 -0.3397
   38MOL0     H 5083  -0.960   6.436  11.084 -4.2592 -0.7716  1.1845
   38MOL0     H 5084  -1.117   6.424  10.817 -0.1359 -0.2282 -0.1576
   38MOL0     H 5085  -1.097   6.566  10.931 -1.7083 -0.3021  2.1310
   38MOL0     H 5086  -1.213   6.432  11.112 -1.3828  0.0818 -0.2723
   38MOL0     H 5087  -1.250   6.313  10.999  2.5014 -0.6192 -1.5172
   38MOL0     H 5088  -1.352   6.588  10.919 -0.9560  0.0532 -0.3308
   38MOL0     H 5089  -1.440   6.476  11.023 -0.7820 -0.1813 -0.1749
   38MOL0     H 5090  -1.486   6.205  10.729  0.9244  2.6664 -2.2341
   38MOL0     H 5091  -1.781   6.111  10.580 -3.6993 -3.5197  1.3040
   38MOL0     H 5092  -1.641   6.041  10.656 -0.2016  0.4962  1.5381
   38MOL0     H 5093  -1.792   6.062  10.742 -1.1718  3.8159  0.7456
   38MOL0     H 5094  -2.103   6.260  10.921 -0.2248  0.0687 -0.1968
   38MOL0     H 5095  -2.312   6.264  11.035 -2.1138 -3.0740 -3.3282
   38MOL0     H 5096  -2.624   6.589  10.909  0.9237  0.0102  2.0885
   38MOL0     H 5097  -2.638   6.435  10.817  1.6723  0.4004 -0.5498
   38MOL0     H 5098  -2.746   6.345  11.015  0.2086 -0.5044 -0.1148
   38MOL0     H 5099  -2.765   6.504  11.086  0.2718 -1.6262  0.4478
   38MOL0     H 5100  -2.958   6.401  10.985  0.4015 -2.7563 -1.4473
   38MOL0     H 5101  -2.900   6.413  10.823 -0.9210  0.9370 -0.9095
   38MOL0     H 5102  -2.929   6.662  11.002 -2.2207 -1.4590  1.6938
   38MOL0     H 5103  -2.902   6.660  10.823 -0.5508 -1.1268 -1.5295
   38MOL0     H 5104  -3.152   6.572  10.972  4.0517 -2.0739  1.1623
   38MOL0     H 5105  -3.110   6.551  10.800  0.7036 -1.7660  1.3165
   38MOL0     H 5106  -3.169   6.818  10.942 -5.4942  0.8294 -1.0982
   38MOL0     H 5107  -3.086   6.803  10.772  0.4699 -0.3053  0.9110
   38MOL0     H 5108  -3.352   6.702  10.876  3.4384  3.1252  4.8055
   38MOL0     H 5109  -3.286   6.695  10.710 -2.1510  0.9501 -1.7571
   38MOL0     H 5110  -3.433   6.888  10.703  1.6437 -0.9289 -1.3331
   38MOL0     H 5111  -3.274   6.956  10.716  0.2179  1.7268  0.0853
   38MOL0     H 5112  -2.437   6.596  10.783  0.7075  0.2460 -0.0716
   38MOL0     H 5113  -2.210   6.594  10.677  1.0692 -1.5281 -2.4115
   38MOL0     H 5114  -1.829   6.532  10.857 -0.1352  0.8137 -4.2293
   38MOL0     H 5115  -1.602   6.590  10.873 -2.5441  1.2297 -0.6560
   38MOL0     H 5116   0.531   6.414  10.704 -1.6156  1.0054 -3.5663
   38MOL0     H 5117   0.672   6.582  10.643 -1.0198 -1.7550 -0.1277
   38MOL0     H 5118   0.821   7.161  10.891  0.2784 -1.0801 -0.1706
   38MOL0     H 5119   1.061   7.242  10.846  0.3136  0.2428  0.4871
   38MOL0     H 5120   1.306   6.934  10.839  2.0014 -0.2521  2.6247
   38MOL0     H 5121   1.427   7.009  10.730 -1.2575 -2.6810 -0.3923
   38MOL0     H 5122   1.476   7.061  10.971  0.4283  1.4443 -0.2040
   38MOL0     H 5123   1.322   7.146  10.974 -0.6339 -2.0565  0.4200
   38MOL0     H 5124   1.491   7.311  10.933  0.2983 -0.9401  0.3812
   38MOL0     H 5125   1.410   7.280  10.777 -2.8467 -1.8845  1.2141
   38MOL0     H 5126   1.639   7.093  10.821  0.1206  0.6273  0.1006
   38MOL0     H 5127   1.691   7.237  10.906  1.1500 -2.6848  0.8587
   38MOL0     H 5128   1.743   7.379  10.524 -1.5382 -1.4839 -1.8436
   38MOL0     H 5129   1.152   6.879  10.664  0.5762 -1.3673  0.5089
   38MOL0     H 5130   0.908   6.798  10.688 -1.7174 -0.2541  1.5980
   39MOL0     O 5131   5.023  11.145   9.297  0.6922  0.4057 -0.2829
   39MOL0     C 5132   5.081  11.194   9.204 -0.0308  1.0841 -0.2741
   39MOL0     O 5133   5.031  11.264   9.102  0.0160  0.1257 -0.5095
   39MOL0     C 5134   4.897  11.288   9.114 -0.1515 -0.2726  0.7722
   39MOL0     C 5135   4.809  11.198   9.053  0.9864  0.1400 -0.4525
   39MOL0     C 5136   4.667  11.222   9.059 -0.2393  1.0028 -0.0216
   39MOL0     C 5137   4.615  11.325   9.126  0.9812 -0.0951  0.1877
   39MOL0     O 5138   4.474  11.336   9.118  0.3475  0.1772  0.3157
   39MOL0     C 5139   4.407  11.463   9.160  0.4150 -0.3444  0.4036
   39MOL0     C 5140   4.267  11.482   9.101 -0.0092  0.1169 -0.1212
   39MOL0     C 5141   4.190  11.355   9.141  0.4708  0.7417  0.1910
   39MOL0     C 5142   4.044  11.362   9.098  0.5416 -0.1805 -0.3974
   39MOL0     C 5143   4.000  11.216   9.104  0.0425 -0.0937 -0.5551
   39MOL0     C 5144   3.861  11.217   9.047  0.7391 -1.5195 -0.8902
   39MOL0     C 5145   3.786  11.090   9.053 -0.3961  0.2216 -0.8896
   39MOL0     C 5146   3.681  11.090   8.943  0.4044  0.1912  0.4728
   39MOL0     N 5147   3.590  10.963   8.941  0.5161 -0.0652 -0.4681
   39MOL0     C 5148   3.523  10.928   8.826 -0.8174  0.1980  0.1089
   39MOL0     C 5149   3.429  10.843   8.862 -0.3439 -0.5037  0.4214
   39MOL0     C 5150   3.324  10.786   8.769 -0.5182  0.1794 -0.0726
   39MOL0     C 5151   3.205  10.714   8.821 -0.2571  1.0123  0.6038
   39MOL0     C 5152   3.103  10.813   8.879  0.4824  0.0017  0.1666
   39MOL0     C 5153   2.966  10.761   8.935 -0.2353 -0.4635 -0.1015
   39MOL0     O 5154   2.902  10.709   8.814  0.7648 -0.2181 -0.0875
   39MOL0     C 5155   2.774  10.660   8.828 -0.0359  0.0021 -0.1636
   39MOL0     C 5156   2.720  10.614   8.943  0.2001 -1.0514  0.7501
   39MOL0     C 5157   2.584  10.569   8.950 -0.2007  0.0197 -0.0227
   39MOL0     C 5158   2.537  10.514   9.080  0.4092 -0.4617  0.3579
   39MOL0     C 5159   2.499  10.573   8.831 -0.5940 -0.5729 -0.1819
   39MOL0     C 5160   2.355  10.542   8.820  0.3148  0.3962  0.2506
   39MOL0     O 5161   2.295  10.471   8.926 -0.0359 -0.5111  0.6067
   39MOL0     C 5162   2.159  10.447   8.939  0.4790 -0.0945 -0.0874
   39MOL0     C 5163   2.119  10.316   8.993  0.0442 -0.4051 -0.0805
   39MOL0     C 5164   1.991  10.283   9.033 -0.0310  0.1749  0.7344
   39MOL0     C 5165   1.888  10.379   9.010 -0.4441 -0.4449 -0.0920
   39MOL0     O 5166   1.762  10.351   9.060 -0.2788  0.0304 -0.4596
   39MOL0     C 5167   1.673  10.462   9.084 -0.6232  0.7559 -0.0117
   39MOL0     C 5168   1.574  10.398   9.175  0.0658  0.7568 -0.4776
   39MOL0     C 5169   1.475  10.497   9.226 -0.4849 -0.8388 -0.2744
   39MOL0     C 5170   1.347  10.425   9.272 -0.7021 -0.0548 -0.0723
   39MOL0     C 5171   1.263  10.527   9.347 -0.1465 -0.1061  0.3981
   39MOL0     C 5172   1.117  10.481   9.356  1.2990 -0.1018  0.7478
   39MOL0     C 5173   1.045  10.572   9.458 -0.2480 -0.1585 -0.1431
   39MOL0     C 5174   0.899  10.540   9.497 -0.1111 -0.4156 -0.0893
   39MOL0    Cl 5175   0.784  10.554   9.356 -0.1673  0.2518 -0.1832
   39MOL0     C 5176   1.922  10.496   8.943  0.0065  0.4753  0.7029
   39MOL0     C 5177   2.047  10.533   8.907 -0.0860  0.0205  0.2929
   39MOL0     O 5178   2.288  10.596   8.727 -0.7437 -0.6203  0.3832
   39MOL0     C 5179   2.563  10.615   8.717  0.1877 -0.3196  0.4186
   39MOL0     C 5180   2.696  10.661   8.716 -0.2373  0.4977 -0.6409
   39MOL0     N 5181   3.447  10.823   9.000  0.8033  0.3430 -0.6216
   39MOL0     N 5182   3.541  10.895   9.045 -0.2353  1.0334 -0.2461
   39MOL0     C 5183   4.698  11.416   9.188  0.1869  0.2507 -0.3575
   39MOL0     C 5184   4.839  11.394   9.188  0.8702  0.7600 -0.3627
   39MOL0     C 5185   5.227  11.179   9.204 -0.7364 -0.0698  0.2888
   39MOL0     C 5186   5.288  11.101   9.299 -0.1642  0.0148 -0.3576
   39MOL0     C 5187   5.422  11.070   9.293 -0.0652 -0.2083 -0.3545
   39MOL0     C 5188   5.501  11.126   9.185 -0.1059 -0.1270  0.0630
   39MOL0     O 5189   5.635  11.106   9.179 -0.0495 -0.4696 -0.2658
   39MOL0     C 5190   5.708  11.050   9.283  0.1192 -0.1162 -0.4818
   39MOL0     C 5191   5.856  11.064   9.262  0.3303 -0.7931 -0.2729
   39MOL0     C 5192   5.925  11.035   9.396  0.2780 -0.5042  0.5324
   39MOL0     C 5193   6.078  11.045   9.400  0.0983  0.4382 -0.2608
   39MOL0     C 5194   6.129  11.180   9.360  0.1404  0.5500  0.7412
   39MOL0     C 5195   6.177  11.284   9.350 -0.9788  0.3833  0.8884
   39MOL0     C 5196   5.439  11.202   9.084  0.1441 -0.2436 -0.4522
   39MOL0     C 5197   5.304  11.233   9.102 -0.3040  0.1428  0.1382
   39MOL0     H 5198   4.849  11.113   8.999 -0.8413 -1.9480  1.2522
   39MOL0     H 5199   4.605  11.151   9.005  1.4465 -0.9477  0.4918
   39MOL0     H 5200   4.395  11.462   9.268 -2.0954 -1.6933  0.1814
   39MOL0     H 5201   4.463  11.555   9.143 -1.6074  1.3855  2.4902
   39MOL0     H 5202   4.234  11.571   9.155  1.2309 -0.2913  1.3792
   39MOL0     H 5203   4.274  11.488   8.992  0.5863 -0.6676 -0.1328
   39MOL0     H 5204   4.242  11.277   9.085  1.2022 -0.6667  2.7347
   39MOL0     H 5205   4.196  11.338   9.248 -1.0517  0.6310  0.2883
   39MOL0     H 5206   3.992  11.426   9.170  2.4147  1.9762 -0.8500
   39MOL0     H 5207   4.032  11.394   8.994  0.1007 -0.9714 -0.5966
   39MOL0     H 5208   4.066  11.149   9.049  1.4496  0.7489  0.0366
   39MOL0     H 5209   4.005  11.190   9.210  0.2806 -0.1692 -0.5837
   39MOL0     H 5210   3.799  11.296   9.090  3.9681  0.9106 -0.3655
   39MOL0     H 5211   3.872  11.252   8.944 -1.0032  1.0560 -0.3057
   39MOL0     H 5212   3.854  11.004   9.043 -0.6449 -0.3772  1.7746
   39MOL0     H 5213   3.740  11.067   9.149 -0.6404 -2.5840 -1.5884
   39MOL0     H 5214   3.723  11.099   8.843 -0.4646  3.4435  0.2795
   39MOL0     H 5215   3.620  11.179   8.964 -1.3706 -1.5225  3.1129
   39MOL0     H 5216   3.545  10.984   8.735  1.3316  0.3668  0.6887
   39MOL0     H 5217   3.292  10.874   8.713  2.7552  2.4023  1.2035
   39MOL0     H 5218   3.375  10.719   8.698 -2.7422 -2.8943  1.0006
   39MOL0     H 5219   3.227  10.628   8.886  0.2454  0.7963  0.1549
   39MOL0     H 5220   3.150  10.672   8.736 -0.1827  1.7340  0.1930
   39MOL0     H 5221   3.080  10.894   8.809 -4.7587 -2.1031 -0.9683
   39MOL0     H 5222   3.144  10.860   8.969  1.9859 -2.4240  0.8311
   39MOL0     H 5223   2.914  10.840   8.991  1.0011 -0.0796  0.5432
   39MOL0     H 5224   2.974  10.679   9.008 -2.3340 -2.2796 -1.7523
   39MOL0     H 5225   2.776  10.608   9.036 -1.4201  1.6299  2.0012
   39MOL0     H 5226   2.470  10.586   9.127  1.8365  0.0085  1.7655
   39MOL0     H 5227   2.480  10.423   9.056 -2.7846  1.4609  0.0926
   39MOL0     H 5228   2.616  10.496   9.154  0.9928  4.0154  1.0912
   39MOL0     H 5229   2.199  10.243   9.005  0.7760  0.7164  2.4800
   39MOL0     H 5230   1.984  10.184   9.077  1.2920 -0.4165 -0.3036
   39MOL0     H 5231   1.735  10.539   9.130  1.7591 -1.8337  1.4264
   39MOL0     H 5232   1.620  10.497   8.995  0.8709  0.7236 -0.9441
   39MOL0     H 5233   1.526  10.321   9.113  0.1854  0.6074 -0.3837
   39MOL0     H 5234   1.625  10.337   9.249  1.6888 -0.2985 -2.3652
   39MOL0     H 5235   1.448  10.575   9.155  1.2536  0.4990  0.4724
   39MOL0     H 5236   1.513  10.555   9.311  0.0810 -2.1321  0.3939
   39MOL0     H 5237   1.309  10.379   9.180  2.9524 -0.6313 -1.4797
   39MOL0     H 5238   1.373  10.345   9.342 -0.1591 -1.4705 -1.8148
   39MOL0     H 5239   1.262  10.621   9.290 -0.2815  1.0876  2.2799
   39MOL0     H 5240   1.300  10.543   9.449 -2.4503 -1.6029  1.5434
   39MOL0     H 5241   1.060  10.492   9.263  0.2208 -0.7045  1.3180
   39MOL0     H 5242   1.113  10.377   9.387 -0.1929  0.4219  2.4728
   39MOL0     H 5243   1.043  10.677   9.425  0.3504 -0.3930 -0.9508
   39MOL0     H 5244   1.103  10.569   9.551 -0.6824  0.8558  0.1719
   39MOL0     H 5245   0.865  10.613   9.571 -0.4330  0.9436 -1.5091
   39MOL0     H 5246   0.898  10.437   9.532  3.2135 -0.3235  0.6276
   39MOL0     H 5247   1.851  10.577   8.928 -1.4806 -0.7289  0.9512
   39MOL0     H 5248   2.065  10.624   8.850 -1.2507 -0.3073 -0.6194
   39MOL0     H 5249   2.523  10.625   8.616  0.4192 -3.0450 -0.0371
   39MOL0     H 5250   2.730  10.693   8.617 -1.8057  4.2348 -0.1137
   39MOL0     H 5251   4.654  11.498   9.243 -1.8755 -1.9389  1.5034
   39MOL0     H 5252   4.903  11.466   9.237  1.2308  0.6714 -0.7003
   39MOL0     H 5253   5.220  11.051   9.367  1.0783 -3.7753 -1.6014
   39MOL0     H 5254   5.466  11.010   9.372 -2.9916  0.6550  2.0984
   39MOL0     H 5255   5.699  11.098   9.381  0.1873  0.5405 -0.7912
   39MOL0     H 5256   5.685  10.943   9.286  1.2424 -0.4112  3.2220
   39MOL0     H 5257   5.890  11.161   9.224  1.6291 -2.8455 -5.2270
   39MOL0     H 5258   5.894  10.995   9.185  0.4868  1.6597 -2.5429
   39MOL0     H 5259   5.899  10.931   9.418 -3.8789 -0.4952 -2.9220
   39MOL0     H 5260   5.881  11.105   9.468 -0.6247 -1.0197  0.4968
   39MOL0     H 5261   6.128  10.981   9.327  0.6597  0.5602  0.0063
   39MOL0     H 5262   6.115  11.018   9.499  2.1286  1.3515 -0.6975
   39MOL0     H 5263   6.216  11.384   9.352  2.4686 -0.8343  1.9692
   39MOL0     H 5264   5.498  11.259   9.013 -0.0163  0.2316 -0.2096
   39MOL0     H 5265   5.265  11.303   9.029  0.7033  0.8393  0.2587
   40MOL0     O 5266   0.217   8.547   5.736  0.3786 -0.5128 -0.3909
   40MOL0     C 5267   0.147   8.591   5.824 -0.4393  1.3689 -0.5223
   40MOL0     O 5268   0.022   8.637   5.808  0.5811 -0.2699 -0.2874
   40MOL0     C 5269  -0.024   8.642   5.674 -0.4759 -0.1417 -0.4582
   40MOL0     C 5270  -0.159   8.624   5.652  0.2631 -0.3823 -0.4753
   40MOL0     C 5271  -0.224   8.639   5.531 -0.1839  0.1535  0.7261
   40MOL0     C 5272  -0.153   8.662   5.420  0.0950 -0.4743  0.9332
   40MOL0     O 5273  -0.223   8.651   5.301  0.9990  0.3515 -0.2400
   40MOL0     C 5274  -0.162   8.659   5.171  0.5023 -1.0432  0.0210
   40MOL0     C 5275  -0.260   8.619   5.060  0.8209  0.0397  0.2032
   40MOL0     C 5276  -0.379   8.718   5.061  0.0143  0.1997 -0.0917
   40MOL0     C 5277  -0.467   8.698   4.935 -0.5005  1.1838  0.6920
   40MOL0     C 5278  -0.595   8.779   4.937  1.2021 -0.2895 -0.1634
   40MOL0     C 5279  -0.701   8.727   5.038 -0.0779 -0.5866  0.2764
   40MOL0     C 5280  -0.822   8.825   5.042  0.1400  0.4184  0.1234
   40MOL0     C 5281  -0.925   8.794   5.156  0.7955  0.4197 -0.9619
   40MOL0     N 5282  -0.948   8.647   5.171  0.8908 -0.3542  0.1341
   40MOL0     C 5283  -0.987   8.560   5.074 -0.4180  0.0523  0.3873
   40MOL0     C 5284  -0.970   8.436   5.123  0.0325  0.0775  0.4125
   40MOL0     C 5285  -0.995   8.299   5.056  0.5732  0.5955  0.0709
   40MOL0     C 5286  -0.882   8.202   5.058  0.0064 -0.5401 -0.4240
   40MOL0     C 5287  -0.788   8.244   4.940 -1.0549 -0.1217 -0.7293
   40MOL0     C 5288  -0.654   8.181   4.954  0.4903  0.7082 -0.4694
   40MOL0     O 5289  -0.562   8.260   4.886  0.7231  0.2609  0.2438
   40MOL0     C 5290  -0.428   8.238   4.866 -0.0543 -0.6810 -0.5566
   40MOL0     C 5291  -0.363   8.134   4.921 -0.3123 -0.0355 -0.3314
   40MOL0     C 5292  -0.228   8.113   4.890  0.8786  0.0392  0.3272
   40MOL0     C 5293  -0.170   7.981   4.927 -0.1775  0.7225  0.3218
   40MOL0     C 5294  -0.150   8.221   4.838 -0.4279 -0.3649 -0.0848
   40MOL0     C 5295  -0.004   8.210   4.796  0.8379  0.0961  0.1476
   40MOL0     O 5296   0.069   8.095   4.805 -0.1790 -0.3054 -0.4037
   40MOL0     C 5297   0.203   8.110   4.836 -0.4225 -0.2752 -0.8293
   40MOL0     C 5298   0.296   8.066   4.747 -0.1322 -0.3120  0.1415
   40MOL0     C 5299   0.430   8.048   4.784 -0.0059 -0.1889  0.0052
   40MOL0     C 5300   0.477   8.069   4.917  0.2050 -0.1478  0.3076
   40MOL0     O 5301   0.602   8.031   4.943  0.1132  0.3180  0.3267
   40MOL0     C 5302   0.639   8.031   5.079 -0.2353  0.5091  0.8120
   40MOL0     C 5303   0.775   7.952   5.078  0.7942 -0.4780 -0.9614
   40MOL0     C 5304   0.891   8.038   5.036  0.3987  0.4687 -0.5454
   40MOL0     C 5305   0.983   8.063   5.154  0.2756 -0.0129 -0.5983
   40MOL0     C 5306   1.092   7.964   5.168 -0.9445 -0.1831 -0.4624
   40MOL0     C 5307   1.157   7.991   5.302 -0.4966 -0.2935  0.3301
   40MOL0     C 5308   1.227   7.880   5.368 -1.0940  0.0698 -1.3202
   40MOL0     C 5309   1.381   7.874   5.331  0.3259 -0.5245  0.4496
   40MOL0    Cl 5310   1.463   8.003   5.414  0.1670  0.1626 -0.2058
   40MOL0     C 5311   0.381   8.138   4.998 -0.2520 -1.0912  0.1580
   40MOL0     C 5312   0.250   8.158   4.960 -0.1784  0.0541 -0.0253
   40MOL0     O 5313   0.038   8.315   4.744 -0.8053 -0.4410  0.7649
   40MOL0     C 5314  -0.217   8.345   4.809  0.0917  0.5542 -0.0196
   40MOL0     C 5315  -0.354   8.350   4.824  0.2554  0.1185  0.7039
   40MOL0     N 5316  -0.925   8.448   5.258  0.5722 -0.3407  0.5100
   40MOL0     N 5317  -0.902   8.575   5.279  0.1541  0.6899  0.0225
   40MOL0     C 5318  -0.014   8.675   5.426 -0.0520 -0.2604  0.3170
   40MOL0     C 5319   0.044   8.677   5.556  0.6252 -0.1017 -0.4757
   40MOL0     C 5320   0.204   8.583   5.963 -0.0351 -0.3492  0.6249
   40MOL0     C 5321   0.133   8.643   6.063 -0.1074 -0.2357  0.4637
   40MOL0     C 5322   0.168   8.629   6.198 -0.8027 -0.4920  1.0319
   40MOL0     C 5323   0.281   8.562   6.235 -0.3715 -0.0461 -0.7500
   40MOL0     O 5324   0.297   8.565   6.377 -0.2134 -0.1331 -0.1516
   40MOL0     C 5325   0.414   8.504   6.425  0.1052 -0.4564 -1.4961
   40MOL0     C 5326   0.419   8.503   6.577 -0.7266 -1.1452 -0.4012
   40MOL0     C 5327   0.442   8.644   6.634 -0.1080 -0.8695  0.2003
   40MOL0     C 5328   0.506   8.629   6.777  0.1766  0.1078  0.0464
   40MOL0     C 5329   0.649   8.635   6.765 -0.0369  1.0993 -0.9978
   40MOL0     C 5330   0.773   8.623   6.771  0.0078  0.0179 -0.1192
   40MOL0     C 5331   0.362   8.496   6.128  0.2581 -0.1376 -0.7187
   40MOL0     C 5332   0.313   8.500   5.998  0.1805 -0.4009  0.4748
   40MOL0     H 5333  -0.221   8.604   5.739  0.8227  2.5862  0.7312
   40MOL0     H 5334  -0.328   8.612   5.514 -0.6238  2.7909 -1.5116
   40MOL0     H 5335  -0.122   8.759   5.155 -0.3349 -0.3268  2.1108
   40MOL0     H 5336  -0.079   8.588   5.173 -1.2070 -3.1574 -0.1667
   40MOL0     H 5337  -0.202   8.641   4.969  0.3780  1.1340  0.1640
   40MOL0     H 5338  -0.296   8.516   5.064  0.0827  0.3061  0.5326
   40MOL0     H 5339  -0.431   8.714   5.157  0.7628 -0.0573  0.3045
   40MOL0     H 5340  -0.339   8.819   5.058  0.0956  0.1617 -0.3650
   40MOL0     H 5341  -0.409   8.723   4.845 -2.5211  0.7230 -0.8001
   40MOL0     H 5342  -0.484   8.590   4.927  0.2772  1.1487 -1.0517
   40MOL0     H 5343  -0.582   8.883   4.969 -2.7515  1.1339 -2.5289
   40MOL0     H 5344  -0.644   8.790   4.840  1.5493 -0.3356 -0.3480
   40MOL0     H 5345  -0.733   8.630   5.000 -1.6639  0.3197 -0.8731
   40MOL0     H 5346  -0.647   8.732   5.133  2.5772  3.3567 -1.1606
   40MOL0     H 5347  -0.786   8.927   5.056  0.4359  0.2347  0.7265
   40MOL0     H 5348  -0.877   8.822   4.947 -0.3679  2.1633  0.3287
   40MOL0     H 5349  -1.021   8.840   5.127 -0.0193 -0.2689  0.5307
   40MOL0     H 5350  -0.890   8.838   5.250  3.2208 -1.4461 -0.9017
   40MOL0     H 5351  -1.013   8.591   4.974  0.2620  0.8330  0.4430
   40MOL0     H 5352  -1.083   8.252   5.103  0.9342  1.1665  1.3667
   40MOL0     H 5353  -1.039   8.322   4.959  1.1838 -0.2343 -0.4181
   40MOL0     H 5354  -0.923   8.103   5.036 -3.7404  0.3989  1.5052
   40MOL0     H 5355  -0.829   8.200   5.154  0.7505 -2.0614 -0.8374
   40MOL0     H 5356  -0.770   8.352   4.939  1.8740 -0.3566  3.3043
   40MOL0     H 5357  -0.829   8.204   4.846  0.3682 -1.8898 -0.6460
   40MOL0     H 5358  -0.652   8.083   4.906  1.9897  0.9704 -1.0148
   40MOL0     H 5359  -0.627   8.179   5.060  1.1485  0.5867 -0.6343
   40MOL0     H 5360  -0.426   8.057   4.966  1.5593 -0.2122  2.2543
   40MOL0     H 5361  -0.096   8.001   5.005 -3.5251  5.4609  2.7735
   40MOL0     H 5362  -0.245   7.914   4.970 -0.1381  1.2010  1.1514
   40MOL0     H 5363  -0.131   7.928   4.839  2.1401 -2.4899  3.0505
   40MOL0     H 5364   0.268   8.028   4.650 -1.5830  2.6988 -0.7597
   40MOL0     H 5365   0.509   8.006   4.723 -0.1419  0.5157 -0.6665
   40MOL0     H 5366   0.652   8.136   5.108  0.9224  1.4428 -2.5868
   40MOL0     H 5367   0.566   7.976   5.138  0.2835 -0.0402  0.9532
   40MOL0     H 5368   0.797   7.907   5.175  0.7934 -0.0975 -0.7835
   40MOL0     H 5369   0.765   7.873   5.002  0.0255 -1.0642 -0.2746
   40MOL0     H 5370   0.851   8.132   4.997  2.2644 -0.3591 -4.9888
   40MOL0     H 5371   0.944   7.998   4.949  0.9641 -0.5273  0.2398
   40MOL0     H 5372   1.006   8.170   5.151 -0.3508  0.2841  2.3316
   40MOL0     H 5373   0.920   8.065   5.244  0.7697  1.7711 -0.2539
   40MOL0     H 5374   1.170   7.971   5.091 -1.1966 -1.5424 -0.8699
   40MOL0     H 5375   1.054   7.862   5.174 -0.0910 -0.5223 -0.6335
   40MOL0     H 5376   1.222   8.075   5.279 -0.0304 -0.9193 -0.7080
   40MOL0     H 5377   1.077   8.024   5.369 -1.8612 -1.2401 -0.7597
   40MOL0     H 5378   1.175   7.786   5.347 -0.8184 -0.1027 -1.2325
   40MOL0     H 5379   1.213   7.876   5.476 -5.7577 -1.0328 -1.7307
   40MOL0     H 5380   1.390   7.887   5.223 -0.3414  1.3061  0.5732
   40MOL0     H 5381   1.425   7.779   5.363 -1.6085 -1.5615  0.1938
   40MOL0     H 5382   0.413   8.165   5.098  0.1381 -2.9617  0.5737
   40MOL0     H 5383   0.190   8.191   5.044  2.7279 -0.6598  2.5518
   40MOL0     H 5384  -0.176   8.433   4.762 -0.1237 -0.8410 -3.0527
   40MOL0     H 5385  -0.425   8.431   4.814 -1.1848 -1.0707  0.8942
   40MOL0     H 5386   0.050   8.702   5.342 -3.0803  1.7196 -1.5725
   40MOL0     H 5387   0.146   8.714   5.562  1.1136 -1.5770  1.1753
   40MOL0     H 5388   0.047   8.707   6.049 -2.5210 -2.5461  3.2931
   40MOL0     H 5389   0.113   8.683   6.274  0.7767 -0.0617  1.9251
   40MOL0     H 5390   0.425   8.403   6.385  2.3540  0.1154 -2.4683
   40MOL0     H 5391   0.502   8.562   6.395  2.5411 -0.3628  4.5535
   40MOL0     H 5392   0.501   8.437   6.606 -0.8300 -1.7819 -1.4880
   40MOL0     H 5393   0.327   8.460   6.618 -0.7927 -2.9456 -2.2810
   40MOL0     H 5394   0.347   8.699   6.631  0.6951  0.5318 -1.2608
   40MOL0     H 5395   0.512   8.703   6.574  0.0290  0.4745  1.5910
   40MOL0     H 5396   0.475   8.538   6.831  1.4071  0.1096  0.7775
   40MOL0     H 5397   0.469   8.711   6.839 -1.9989  0.1955 -1.2537
   40MOL0     H 5398   0.879   8.620   6.786  0.2651  1.8614 -1.1790
   40MOL0     H 5399   0.454   8.444   6.151 -0.8034 -1.3067  1.0756
   40MOL0     H 5400   0.382   8.446   5.933  0.0628 -1.3164  1.0982
   41MOL0     O 5401   1.430   5.939   8.453 -0.2940 -0.1287 -0.8073
   41MOL0     C 5402   1.495   5.935   8.557 -0.0382  0.8276 -0.0564
   41MOL0     O 5403   1.511   6.045   8.637 -0.2205  0.2433 -0.2827
   41MOL0     C 5404   1.446   6.161   8.598 -0.1871  0.7057  0.3411
   41MOL0     C 5405   1.306   6.156   8.573 -0.4401 -0.8549  0.0206
   41MOL0     C 5406   1.240   6.275   8.542  0.6471 -0.3152 -0.0389
   41MOL0     C 5407   1.297   6.395   8.544 -0.7520 -0.4589  0.2073
   41MOL0     O 5408   1.226   6.507   8.530  0.0542  0.4254  0.0685
   41MOL0     C 5409   1.190   6.563   8.665 -0.3188  0.3891 -0.0686
   41MOL0     C 5410   1.088   6.679   8.645  0.2148 -0.5172  0.0522
   41MOL0     C 5411   0.948   6.619   8.622  0.7251  0.6184 -0.2241
   41MOL0     C 5412   0.839   6.731   8.616  0.0962  0.3603 -0.1969
   41MOL0     C 5413   0.702   6.685   8.564  1.0471 -0.6423  0.1945
   41MOL0     C 5414   0.614   6.806   8.528 -0.0598  0.8033  0.6093
   41MOL0     C 5415   0.588   6.888   8.658 -0.2061  0.1624  1.4100
   41MOL0     C 5416   0.473   6.989   8.645 -0.3907 -0.0996  1.3133
   41MOL0     N 5417   0.333   6.936   8.639 -0.2003 -0.6415 -0.1819
   41MOL0     C 5418   0.245   6.964   8.532 -0.5327 -0.4181 -1.0491
   41MOL0     C 5419   0.130   6.895   8.551 -0.2331  0.3784 -0.0442
   41MOL0     C 5420   0.015   6.899   8.464  0.2145 -0.0048 -0.4277
   41MOL0     C 5421  -0.090   6.803   8.506 -0.1890 -0.0205  0.4457
   41MOL0     C 5422  -0.205   6.803   8.400 -0.1750  0.7600 -0.1535
   41MOL0     C 5423  -0.329   6.730   8.457  0.6503  0.4908 -0.0030
   41MOL0     O 5424  -0.381   6.810   8.560  0.4753  0.4560 -0.0640
   41MOL0     C 5425  -0.498   6.774   8.619 -0.2826 -0.0875  0.4907
   41MOL0     C 5426  -0.534   6.859   8.725 -1.0387  0.1870 -0.3262
   41MOL0     C 5427  -0.632   6.824   8.813 -0.5091  0.4807  1.3538
   41MOL0     C 5428  -0.639   6.897   8.941 -0.6474 -0.4791  0.5476
   41MOL0     C 5429  -0.720   6.716   8.785 -0.3901 -0.0635 -0.3683
   41MOL0     C 5430  -0.834   6.663   8.873 -0.6511 -0.2194 -0.3611
   41MOL0     O 5431  -0.915   6.563   8.821 -0.6303  0.9150 -0.2858
   41MOL0     C 5432  -1.030   6.525   8.882 -0.5528 -0.6884 -0.1513
   41MOL0     C 5433  -1.135   6.613   8.903  0.3194 -0.4608  0.2897
   41MOL0     C 5434  -1.249   6.569   8.977  0.2448 -0.3938  0.0370
   41MOL0     C 5435  -1.252   6.447   9.037  0.9576 -0.8684  0.2957
   41MOL0     O 5436  -1.373   6.415   9.101 -0.4252 -0.1862 -0.7971
   41MOL0     C 5437  -1.424   6.287   9.086  0.1029  0.1394 -0.3829
   41MOL0     C 5438  -1.558   6.274   9.162  0.6284 -0.5149 -0.3648
   41MOL0     C 5439  -1.676   6.332   9.072  0.4353  0.4859  0.8391
   41MOL0     C 5440  -1.683   6.484   9.059  0.3676 -0.4373  0.2296
   41MOL0     C 5441  -1.813   6.538   9.007  0.4585 -0.5014 -0.5705
   41MOL0     C 5442  -1.849   6.502   8.863  0.0758 -0.2353  0.5850
   41MOL0     C 5443  -1.987   6.556   8.823  0.5999 -0.5406  0.5865
   41MOL0     C 5444  -2.063   6.489   8.709  0.4613 -0.5993  1.3760
   41MOL0    Cl 5445  -2.129   6.337   8.776  0.0761  0.0610  0.5877
   41MOL0     C 5446  -1.154   6.354   9.013  0.0159 -0.3625  0.0602
   41MOL0     C 5447  -1.042   6.393   8.937  0.4006 -0.1640  0.3112
   41MOL0     O 5448  -0.861   6.728   8.967 -0.4276 -0.0442 -0.8184
   41MOL0     C 5449  -0.695   6.646   8.667 -0.1672  0.5446  0.0757
   41MOL0     C 5450  -0.588   6.674   8.581  0.0086  0.1626  0.9060
   41MOL0     N 5451   0.164   6.812   8.663  0.3596  0.0488  0.2086
   41MOL0     N 5452   0.277   6.843   8.720 -0.2164 -0.1344 -0.0962
   41MOL0     C 5453   1.435   6.404   8.568 -0.5933 -0.2828  0.0417
   41MOL0     C 5454   1.514   6.287   8.593  0.0742 -0.3049  0.7056
   41MOL0     C 5455   1.584   5.817   8.586 -0.5988 -0.8621 -0.2276
   41MOL0     C 5456   1.610   5.779   8.718  0.5659  0.0011 -0.4208
   41MOL0     C 5457   1.675   5.658   8.743  0.7180  0.8369 -0.0550
   41MOL0     C 5458   1.739   5.584   8.645  0.1511  0.4329 -1.0282
   41MOL0     O 5459   1.793   5.459   8.683  0.2556 -0.1762 -0.0839
   41MOL0     C 5460   1.808   5.368   8.577  0.8178  0.2158  0.1990
   41MOL0     C 5461   1.853   5.228   8.633 -0.3605 -0.7926 -0.5967
   41MOL0     C 5462   1.884   5.131   8.520 -0.7634 -1.0294 -0.2325
   41MOL0     C 5463   1.902   4.993   8.584  0.2141 -0.6967 -0.3117
   41MOL0     C 5464   1.942   4.890   8.493  0.2339  0.7407 -0.0661
   41MOL0     C 5465   1.957   4.794   8.413  0.0472 -0.6080  0.1163
   41MOL0     C 5466   1.723   5.634   8.513  1.0756  0.6707  0.9655
   41MOL0     C 5467   1.644   5.744   8.476 -0.1295 -0.1547 -0.1223
   41MOL0     H 5468   1.253   6.062   8.570  0.0336 -1.1397  0.4258
   41MOL0     H 5469   1.133   6.261   8.536  0.7339 -0.9640 -0.0911
   41MOL0     H 5470   1.145   6.479   8.718 -1.3526  1.1174  0.2298
   41MOL0     H 5471   1.278   6.597   8.720 -0.5252 -0.4236  0.7876
   41MOL0     H 5472   1.098   6.737   8.737  5.4843  1.2571 -1.3134
   41MOL0     H 5473   1.114   6.745   8.562 -0.1359 -0.5140 -0.0603
   41MOL0     H 5474   0.951   6.558   8.531  2.1245 -0.4596  0.5078
   41MOL0     H 5475   0.925   6.544   8.698 -0.4198 -3.1792 -3.9064
   41MOL0     H 5476   0.823   6.757   8.721  1.0122  1.1873 -0.2400
   41MOL0     H 5477   0.876   6.819   8.561 -0.0033  0.3779 -0.2364
   41MOL0     H 5478   0.720   6.620   8.478 -0.0299 -1.7637  0.7751
   41MOL0     H 5479   0.653   6.616   8.634 -1.3256 -1.1292 -1.8362
   41MOL0     H 5480   0.663   6.863   8.448 -0.2110  1.0471  0.6885
   41MOL0     H 5481   0.520   6.780   8.477  1.0564  0.1906 -1.2656
   41MOL0     H 5482   0.568   6.812   8.734  0.9111 -2.3138 -0.6176
   41MOL0     H 5483   0.671   6.953   8.686 -1.0133  3.0433 -2.1888
   41MOL0     H 5484   0.496   7.056   8.561  1.2961 -2.1544  0.0265
   41MOL0     H 5485   0.478   7.047   8.737 -0.0898 -0.7881  1.7364
   41MOL0     H 5486   0.266   7.025   8.445  0.4504 -1.5499 -1.6460
   41MOL0     H 5487  -0.025   7.001   8.472  1.7608  0.5436  0.7792
   41MOL0     H 5488   0.040   6.877   8.360 -0.2394 -0.9376 -0.3413
   41MOL0     H 5489  -0.129   6.814   8.608 -1.3179 -3.0142  0.4348
   41MOL0     H 5490  -0.043   6.705   8.496  2.2711  1.1961 -0.6753
   41MOL0     H 5491  -0.172   6.754   8.307  1.3390  0.3300  0.5758
   41MOL0     H 5492  -0.223   6.911   8.388  0.0137  0.7386 -0.6689
   41MOL0     H 5493  -0.298   6.629   8.486  0.2588 -0.6658 -3.2792
   41MOL0     H 5494  -0.404   6.706   8.381  1.4464 -2.2591 -0.0049
   41MOL0     H 5495  -0.464   6.940   8.744  3.6253 -3.3955 -0.4625
   41MOL0     H 5496  -0.576   6.987   8.943  0.1741 -0.9356 -1.5886
   41MOL0     H 5497  -0.740   6.935   8.957 -0.7110 -1.5475  3.1559
   41MOL0     H 5498  -0.614   6.836   9.028 -0.9491  0.4291  1.2939
   41MOL0     H 5499  -1.125   6.714   8.864 -2.4211 -0.5494 -0.8384
   41MOL0     H 5500  -1.329   6.640   8.988 -0.0940 -0.9778  1.5429
   41MOL0     H 5501  -1.436   6.258   8.981 -0.8936 -1.6140  0.1885
   41MOL0     H 5502  -1.353   6.224   9.141  1.2460  0.5264 -1.3746
   41MOL0     H 5503  -1.580   6.169   9.181 -1.2182 -0.3590 -1.3930
   41MOL0     H 5504  -1.565   6.335   9.252 -1.2340  1.2740 -1.6247
   41MOL0     H 5505  -1.772   6.292   9.106 -0.8403  1.1069 -1.7306
   41MOL0     H 5506  -1.659   6.298   8.969  1.9069  0.1287  1.1815
   41MOL0     H 5507  -1.671   6.532   9.156 -1.3789 -0.2269  0.3810
   41MOL0     H 5508  -1.601   6.514   8.993 -2.0943 -1.5703 -3.7112
   41MOL0     H 5509  -1.811   6.647   9.006 -0.1914 -0.4484  0.7750
   41MOL0     H 5510  -1.897   6.513   9.074  1.1548 -1.4712 -0.0260
   41MOL0     H 5511  -1.768   6.547   8.805 -0.3698 -1.5309 -1.1271
   41MOL0     H 5512  -1.846   6.395   8.840 -1.1844 -0.3106  0.7345
   41MOL0     H 5513  -1.977   6.662   8.798 -2.1710 -0.4198 -0.3378
   41MOL0     H 5514  -2.057   6.551   8.907  2.0514  0.0833  1.8941
   41MOL0     H 5515  -1.997   6.486   8.622  1.4298  0.4574  2.0367
   41MOL0     H 5516  -2.138   6.563   8.680  1.1757 -0.2004  0.4672
   41MOL0     H 5517  -1.156   6.258   9.063  1.4718 -0.4835 -0.0654
   41MOL0     H 5518  -0.964   6.322   8.909  0.5509 -0.9466  2.5133
   41MOL0     H 5519  -0.759   6.565   8.635  0.5419  0.6779 -1.7742
   41MOL0     H 5520  -0.563   6.604   8.501  0.4883  0.8128  0.4730
   41MOL0     H 5521   1.481   6.503   8.565 -2.0959  0.5410  2.1241
   41MOL0     H 5522   1.622   6.296   8.600  0.3215 -1.4087 -0.9541
   41MOL0     H 5523   1.563   5.840   8.795  0.5478  1.8272 -1.8196
   41MOL0     H 5524   1.683   5.637   8.850  2.3066  0.1343 -0.2744
   41MOL0     H 5525   1.720   5.367   8.512  1.7355 -0.1319 -1.0832
   41MOL0     H 5526   1.884   5.415   8.513  0.2480  0.6745 -0.1470
   41MOL0     H 5527   1.766   5.193   8.689 -0.8856  0.4124 -0.6290
   41MOL0     H 5528   1.931   5.238   8.708 -2.3127 -0.6561  1.5272
   41MOL0     H 5529   1.982   5.165   8.484 -1.4411  1.4445  0.0493
   41MOL0     H 5530   1.810   5.149   8.441 -1.8604 -0.4964  0.8825
   41MOL0     H 5531   1.806   4.964   8.628 -1.2260 -0.5865 -3.1585
   41MOL0     H 5532   1.975   5.002   8.665  0.6519  0.3180 -0.7952
   41MOL0     H 5533   1.967   4.720   8.336 -1.3794 -0.1503 -0.5478
   41MOL0     H 5534   1.752   5.576   8.426  0.6577 -3.0721  3.0951
   41MOL0     H 5535   1.624   5.769   8.372  2.3281  0.0920 -0.6056
   42MOL0     O 5536   6.971   4.788   5.378 -0.3715 -0.1973 -0.0423
   42MOL0     C 5537   6.977   4.789   5.502  0.1622  0.1057  0.1144
   42MOL0     O 5538   6.877   4.818   5.587 -0.0007 -0.1503 -0.1022
   42MOL0     C 5539   6.751   4.849   5.548  0.0141 -0.0252  0.9882
   42MOL0     C 5540   6.692   4.823   5.422 -0.3716 -0.5588 -0.1408
   42MOL0     C 5541   6.558   4.870   5.400 -1.0247  0.1149 -0.3186
   42MOL0     C 5542   6.475   4.912   5.501 -1.1408 -0.4759 -0.0032
   42MOL0     O 5543   6.342   4.946   5.483  0.2287 -0.2553  0.6494
   42MOL0     C 5544   6.262   4.934   5.599  0.7344 -0.6872  0.2151
   42MOL0     C 5545   6.249   5.072   5.659  0.4522 -0.5268  0.3750
   42MOL0     C 5546   6.236   5.074   5.815  1.1659  0.1567  0.2621
   42MOL0     C 5547   6.115   4.976   5.861  0.4921 -0.2528  0.2738
   42MOL0     C 5548   5.985   5.031   5.812  0.0941  0.0242 -0.5813
   42MOL0     C 5549   5.871   4.929   5.834  0.0745 -1.1730  0.6038
   42MOL0     C 5550   5.739   4.996   5.791  0.9030 -0.0824  0.1902
   42MOL0     C 5551   5.631   4.887   5.779  0.5414  0.1256 -0.8182
   42MOL0     N 5552   5.607   4.803   5.897 -0.1427 -0.5532 -0.2024
   42MOL0     C 5553   5.632   4.670   5.906  0.2513  0.2735 -0.1060
   42MOL0     C 5554   5.600   4.628   6.031 -0.5757 -0.5435  0.7350
   42MOL0     C 5555   5.596   4.482   6.065  0.3127 -0.6297 -0.7541
   42MOL0     C 5556   5.448   4.435   6.076  0.1423  0.0348  0.2529
   42MOL0     C 5557   5.382   4.408   5.938 -0.0053 -0.1591  0.0796
   42MOL0     C 5558   5.230   4.394   5.932 -0.4602  0.0642 -0.2810
   42MOL0     O 5559   5.189   4.334   5.804 -0.0488  0.4960 -0.3727
   42MOL0     C 5560   5.068   4.369   5.754  0.6470  0.0301 -0.0797
   42MOL0     C 5561   5.049   4.338   5.625 -0.1450 -0.0477  0.4409
   42MOL0     C 5562   4.931   4.357   5.547  0.3372  0.4142 -0.3126
   42MOL0     C 5563   4.942   4.328   5.390  0.3031 -0.1362 -0.0652
   42MOL0     C 5564   4.811   4.398   5.616 -0.0566  0.1728 -0.0006
   42MOL0     C 5565   4.685   4.419   5.550 -0.0348 -0.2078  0.0817
   42MOL0     O 5566   4.608   4.517   5.610  0.2194  0.1328 -0.4097
   42MOL0     C 5567   4.474   4.501   5.583  0.5466  0.1528 -0.3000
   42MOL0     C 5568   4.398   4.391   5.606 -0.3611  0.1319  0.4280
   42MOL0     C 5569   4.261   4.387   5.580 -0.4600 -0.4509  0.3964
   42MOL0     C 5570   4.197   4.509   5.535  0.8853 -0.3716 -0.0190
   42MOL0     O 5571   4.063   4.489   5.521 -0.2397  0.5087 -0.5051
   42MOL0     C 5572   3.990   4.601   5.475  1.0513 -0.2670 -0.4293
   42MOL0     C 5573   3.845   4.563   5.455  0.3953  0.0964 -0.0307
   42MOL0     C 5574   3.825   4.507   5.314  0.2393  0.3724 -0.3254
   42MOL0     C 5575   3.698   4.424   5.301 -0.1019  0.1661 -0.4699
   42MOL0     C 5576   3.682   4.356   5.168  0.5902  0.0004 -0.6300
   42MOL0     C 5577   3.534   4.323   5.154 -0.2475 -0.0604  0.1319
   42MOL0     C 5578   3.488   4.284   5.012  0.3298  0.1404  0.8789
   42MOL0     C 5579   3.349   4.215   5.010 -0.4519 -0.3303  0.2706
   42MOL0    Cl 5580   3.239   4.314   5.103  0.0539  0.0406 -0.0395
   42MOL0     C 5581   4.273   4.626   5.512 -0.3124  0.4985 -0.9113
   42MOL0     C 5582   4.413   4.614   5.527 -0.7961  0.1065  0.1972
   42MOL0     O 5583   4.646   4.345   5.450  0.4942  0.1934 -0.6837
   42MOL0     C 5584   4.829   4.427   5.749  0.2110 -0.3398  0.3252
   42MOL0     C 5585   4.957   4.418   5.814  0.0362 -0.2015  0.6925
   42MOL0     N 5586   5.570   4.744   6.099  0.8476  0.5595 -0.8399
   42MOL0     N 5587   5.572   4.847   6.022 -0.8565  0.3198  1.0264
   42MOL0     C 5588   6.533   4.927   5.632 -0.1212  0.8500  0.3733
   42MOL0     C 5589   6.674   4.902   5.646  1.2893 -0.0894  0.3234
   42MOL0     C 5590   7.110   4.771   5.557  0.0194  0.1576 -0.8064
   42MOL0     C 5591   7.223   4.766   5.464  1.4807  0.0277 -0.1827
   42MOL0     C 5592   7.352   4.747   5.517  0.0989  0.1451 -1.1299
   42MOL0     C 5593   7.368   4.748   5.657 -0.3750  0.3690 -0.0182
   42MOL0     O 5594   7.494   4.722   5.705 -0.3740  0.0212 -0.1195
   42MOL0     C 5595   7.527   4.739   5.839 -0.1038  0.1496 -0.1496
   42MOL0     C 5596   7.670   4.774   5.844  0.1557 -0.0373  0.5839
   42MOL0     C 5597   7.748   4.642   5.814  0.6487 -1.1893  0.0800
   42MOL0     C 5598   7.898   4.673   5.834 -0.8179  0.2629  0.2329
   42MOL0     C 5599   7.994   4.593   5.762 -0.1926  0.8197 -0.2109
   42MOL0     C 5600   8.087   4.527   5.711 -0.3082  0.2442  0.3245
   42MOL0     C 5601   7.258   4.751   5.742  0.2098 -0.5110  0.3399
   42MOL0     C 5602   7.128   4.745   5.687  0.3225 -0.6033  0.2515
   42MOL0     H 5603   6.742   4.778   5.337 -1.2936  0.3969 -1.2145
   42MOL0     H 5604   6.515   4.862   5.301 -3.1471  3.0765  0.2532
   42MOL0     H 5605   6.162   4.906   5.566 -0.8435  0.7288  3.2978
   42MOL0     H 5606   6.302   4.859   5.668 -0.8488 -0.3935  1.5303
   42MOL0     H 5607   6.339   5.126   5.630  2.3782 -2.8765  1.5454
   42MOL0     H 5608   6.161   5.124   5.622  1.4818  1.6662  0.8361
   42MOL0     H 5609   6.329   5.032   5.856  1.5627  2.1888  1.6056
   42MOL0     H 5610   6.229   5.175   5.857  1.0053  1.2571 -2.2381
   42MOL0     H 5611   6.135   4.877   5.819  0.9745  0.0596 -0.2665
   42MOL0     H 5612   6.116   4.973   5.970 -3.1860  2.4413  0.5750
   42MOL0     H 5613   5.968   5.126   5.864  2.1465  0.9179 -1.4091
   42MOL0     H 5614   5.982   5.053   5.705 -0.0965  1.8463 -0.2325
   42MOL0     H 5615   5.902   4.840   5.779 -0.8208 -2.1298  1.5973
   42MOL0     H 5616   5.855   4.910   5.941 -2.2962  0.0763  0.5543
   42MOL0     H 5617   5.710   5.080   5.854  1.4885 -0.1342  0.5314
   42MOL0     H 5618   5.750   5.029   5.687 -1.1275  0.3977  0.0810
   42MOL0     H 5619   5.655   4.819   5.697 -1.3114 -2.2700  0.4881
   42MOL0     H 5620   5.534   4.935   5.764  0.3851  0.8982  1.9940
   42MOL0     H 5621   5.670   4.603   5.830  0.6923 -0.5392  0.8215
   42MOL0     H 5622   5.664   4.425   6.001  1.3594 -0.3238  0.0587
   42MOL0     H 5623   5.645   4.462   6.161 -0.0794  1.8415  0.0293
   42MOL0     H 5624   5.390   4.516   6.121  2.7699  3.9688 -2.6773
   42MOL0     H 5625   5.438   4.343   6.133 -1.9621  0.1616  0.1764
   42MOL0     H 5626   5.424   4.323   5.883  0.3733  0.5863 -0.8049
   42MOL0     H 5627   5.415   4.496   5.881 -0.0899  2.3402  3.5733
   42MOL0     H 5628   5.184   4.493   5.938 -1.3490 -0.4195  2.5064
   42MOL0     H 5629   5.201   4.336   6.020  1.4300  0.6739  0.7849
   42MOL0     H 5630   5.128   4.285   5.573  0.5081  2.7086 -1.5960
   42MOL0     H 5631   5.042   4.298   5.359  0.9905 -0.8685  2.5868
   42MOL0     H 5632   4.880   4.242   5.361  1.9966 -0.8370 -1.8085
   42MOL0     H 5633   4.908   4.415   5.334  1.4486 -1.8043 -3.6863
   42MOL0     H 5634   4.441   4.299   5.644 -1.0956  0.0409  1.0639
   42MOL0     H 5635   4.195   4.304   5.599 -0.3497 -0.1187  2.4371
   42MOL0     H 5636   3.989   4.685   5.546 -0.2966 -0.1694 -0.5253
   42MOL0     H 5637   4.027   4.644   5.382  2.0981  1.3436  0.6750
   42MOL0     H 5638   3.822   4.486   5.530  3.4176 -0.8489  0.0612
   42MOL0     H 5639   3.778   4.649   5.442  0.5983  0.2306 -0.1840
   42MOL0     H 5640   3.916   4.448   5.295  0.8897  0.8253  1.2215
   42MOL0     H 5641   3.827   4.592   5.245  0.9477  2.9042  2.5790
   42MOL0     H 5642   3.704   4.341   5.372 -1.9016  0.8127  0.4858
   42MOL0     H 5643   3.617   4.493   5.323 -0.2533  0.6813 -2.4234
   42MOL0     H 5644   3.743   4.266   5.159  1.7291  0.6312  0.5095
   42MOL0     H 5645   3.725   4.422   5.093  2.6164 -0.3170  0.2022
   42MOL0     H 5646   3.497   4.249   5.225 -1.0221  0.1953  0.0089
   42MOL0     H 5647   3.483   4.419   5.171 -0.0916  0.1566 -0.5898
   42MOL0     H 5648   3.559   4.222   4.957 -1.4218 -0.6932 -0.5491
   42MOL0     H 5649   3.484   4.376   4.953  0.5508  0.8173  1.8832
   42MOL0     H 5650   3.368   4.120   5.061 -0.6403  0.7089  2.3861
   42MOL0     H 5651   3.314   4.203   4.907 -2.8970 -1.3981  1.1614
   42MOL0     H 5652   4.227   4.715   5.471 -0.1577  1.0123  0.0078
   42MOL0     H 5653   4.472   4.695   5.485 -0.7235  0.0880  0.2629
   42MOL0     H 5654   4.750   4.456   5.818  0.4341  0.4191  0.2676
   42MOL0     H 5655   4.955   4.453   5.917 -0.5000  0.1007  0.5789
   42MOL0     H 5656   6.487   4.969   5.721  1.1835  0.2027  1.3902
   42MOL0     H 5657   6.706   4.931   5.745 -0.0141 -0.7151  0.9408
   42MOL0     H 5658   7.206   4.789   5.359  0.3918 -1.7035 -0.4269
   42MOL0     H 5659   7.444   4.734   5.461  0.6696 -1.3640  0.0874
   42MOL0     H 5660   7.467   4.818   5.886 -1.1088 -0.3961 -0.4856
   42MOL0     H 5661   7.514   4.642   5.889  1.0856  0.6036  1.1016
   42MOL0     H 5662   7.704   4.826   5.935  1.5643  0.4897 -0.2121
   42MOL0     H 5663   7.698   4.842   5.763 -1.0159 -1.0100 -0.6602
   42MOL0     H 5664   7.727   4.613   5.710 -0.0989  1.0454 -0.4549
   42MOL0     H 5665   7.727   4.558   5.880  2.3013 -0.1093  2.1233
   42MOL0     H 5666   7.919   4.654   5.940  3.0104  0.2486 -0.3764
   42MOL0     H 5667   7.920   4.779   5.822 -0.6494  0.2059  0.0469
   42MOL0     H 5668   8.163   4.480   5.652  2.1581 -0.2188  3.5734
   42MOL0     H 5669   7.264   4.755   5.850 -1.4976  0.6465  0.4397
   42MOL0     H 5670   7.041   4.742   5.751 -0.3864 -0.2067 -0.6803
   43MOL0     O 5671   0.525   2.746  10.474 -0.0908 -0.0834 -0.3453
   43MOL0     C 5672   0.491   2.693  10.582  0.4474 -0.2270  0.3393
   43MOL0     O 5673   0.408   2.589  10.592 -0.0744 -0.1415 -0.1063
   43MOL0     C 5674   0.330   2.546  10.493  0.4003  1.2532  0.1926
   43MOL0     C 5675   0.336   2.407  10.456  0.1270  0.6435 -1.2591
   43MOL0     C 5676   0.262   2.356  10.350 -0.1214  0.3825 -0.3486
   43MOL0     C 5677   0.179   2.442  10.280 -0.1905 -1.3063 -0.4226
   43MOL0     O 5678   0.107   2.398  10.180 -0.8631 -0.5285 -0.0672
   43MOL0     C 5679  -0.041   2.385  10.198 -0.3531 -0.4688 -0.0820
   43MOL0     C 5680  -0.094   2.249  10.180 -0.5077  0.9749  0.7787
   43MOL0     C 5681  -0.072   2.165  10.304  0.3100  0.8134  0.0678
   43MOL0     C 5682  -0.104   2.017  10.276 -0.0039 -0.4759 -0.0655
   43MOL0     C 5683  -0.104   1.947  10.416  0.0863 -0.2708  0.4777
   43MOL0     C 5684  -0.122   1.798  10.397 -0.0612  0.3876 -0.6523
   43MOL0     C 5685  -0.108   1.724  10.542  0.0613 -0.6967 -0.1834
   43MOL0     C 5686  -0.216   1.761  10.653 -1.3959  0.8422 -0.3857
   43MOL0     N 5687  -0.340   1.720  10.604 -0.5193 -0.0927  0.4251
   43MOL0     C 5688  -0.405   1.593  10.598 -0.5519  0.5075  0.4835
   43MOL0     C 5689  -0.528   1.614  10.547 -0.8431 -0.5351  0.4351
   43MOL0     C 5690  -0.635   1.509  10.529 -0.1626 -0.2277  0.5328
   43MOL0     C 5691  -0.699   1.535  10.393  0.4991  0.1835  0.3792
   43MOL0     C 5692  -0.780   1.417  10.344  0.0554  0.1314 -0.0636
   43MOL0     C 5693  -0.864   1.456  10.224 -0.0557  0.4263 -0.0275
   43MOL0     O 5694  -0.923   1.333  10.177  0.2459 -0.5139 -0.0724
   43MOL0     C 5695  -1.046   1.286  10.219 -0.2112 -0.6687 -0.3465
   43MOL0     C 5696  -1.131   1.348  10.312 -0.1818  0.3337 -0.3386
   43MOL0     C 5697  -1.262   1.307  10.325  0.0797  0.2186 -0.2253
   43MOL0     C 5698  -1.341   1.393  10.428  0.7626  0.3398  0.1936
   43MOL0     C 5699  -1.307   1.192  10.259  0.0067 -0.1052  0.1421
   43MOL0     C 5700  -1.445   1.130  10.276 -0.3250  0.0925  0.1594
   43MOL0     O 5701  -1.525   1.185  10.371  0.4073 -0.0805  0.4711
   43MOL0     C 5702  -1.635   1.106  10.411 -0.4715 -0.0246 -0.3798
   43MOL0     C 5703  -1.639   0.962  10.414 -0.4385  1.4020 -0.6584
   43MOL0     C 5704  -1.753   0.895  10.457  0.1751 -0.5457 -0.8457
   43MOL0     C 5705  -1.863   0.964  10.493 -0.9982 -1.7704 -0.0926
   43MOL0     O 5706  -1.974   0.892  10.530 -0.0957  0.2384  0.3285
   43MOL0     C 5707  -2.101   0.959  10.494 -0.1405 -0.1616 -0.0911
   43MOL0     C 5708  -2.224   0.865  10.516  0.5168 -0.1164 -0.3193
   43MOL0     C 5709  -2.242   0.817  10.670 -1.0979  0.8092 -0.6749
   43MOL0     C 5710  -2.380   0.739  10.680 -0.6236  0.7604  0.4022
   43MOL0     C 5711  -2.409   0.695  10.822  0.6913 -0.1168  0.0399
   43MOL0     C 5712  -2.515   0.589  10.825  0.0155 -0.2526 -0.1757
   43MOL0     C 5713  -2.650   0.640  10.767  0.4738 -0.4910  0.1620
   43MOL0     C 5714  -2.752   0.538  10.743  0.1711  0.3763 -0.6643
   43MOL0    Cl 5715  -2.888   0.620  10.647 -0.3037 -0.3805  0.1701
   43MOL0     C 5716  -1.859   1.104  10.497  0.6060  0.6852 -0.3124
   43MOL0     C 5717  -1.737   1.179  10.458  1.0292  0.1177  0.4189
   43MOL0     O 5718  -1.468   1.036  10.203  0.0972  0.1065 -0.2409
   43MOL0     C 5719  -1.222   1.124  10.177 -0.9278  0.1902 -0.2764
   43MOL0     C 5720  -1.095   1.169  10.152 -0.8942 -0.9874  0.1953
   43MOL0     N 5721  -0.546   1.748  10.531 -0.4549  0.7251 -1.0310
   43MOL0     N 5722  -0.433   1.811  10.554  0.2640  0.3682  0.2946
   43MOL0     C 5723   0.175   2.579  10.309 -0.2403 -0.1499  0.1439
   43MOL0     C 5724   0.253   2.631  10.417 -0.3459  0.0754 -0.5014
   43MOL0     C 5725   0.535   2.768  10.700 -0.0005  0.2458 -0.1463
   43MOL0     C 5726   0.470   2.752  10.826 -0.5246  0.9755  0.6243
   43MOL0     C 5727   0.507   2.836  10.933 -0.0917 -0.2044 -0.1326
   43MOL0     C 5728   0.622   2.920  10.930  0.3513 -0.5287  0.8987
   43MOL0     O 5729   0.671   2.988  11.039  0.0615  0.0316  1.4230
   43MOL0     C 5730   0.621   2.954  11.170 -0.6290  0.3938 -0.0056
   43MOL0     C 5731   0.731   3.006  11.262  0.1543  0.5735 -0.3754
   43MOL0     C 5732   0.862   2.935  11.241  0.0195 -0.2797  1.1068
   43MOL0     C 5733   0.981   3.017  11.307  0.3402  0.5418 -0.4546
   43MOL0     C 5734   1.006   3.155  11.267 -0.5160 -0.3260  0.3100
   43MOL0     C 5735   1.033   3.266  11.237 -0.0502  0.1458  0.1328
   43MOL0     C 5736   0.692   2.936  10.810  0.0824  0.6788  0.6308
   43MOL0     C 5737   0.641   2.865  10.696 -0.2129  1.0283  0.2349
   43MOL0     H 5738   0.416   2.347  10.499 -2.4300 -1.3993  1.0225
   43MOL0     H 5739   0.271   2.250  10.327  3.2551  1.0513 -2.8703
   43MOL0     H 5740  -0.065   2.428  10.296  0.8287 -1.2355  0.5674
   43MOL0     H 5741  -0.088   2.434  10.112  2.4043  0.9674 -0.9206
   43MOL0     H 5742  -0.202   2.263  10.169 -0.8933 -2.1132 -0.5621
   43MOL0     H 5743  -0.059   2.212  10.083 -1.3429 -0.4548  0.9907
   43MOL0     H 5744   0.032   2.162  10.336  0.0437 -0.7637  0.8999
   43MOL0     H 5745  -0.128   2.204  10.390  0.5909  0.7319  0.2913
   43MOL0     H 5746  -0.204   2.009  10.233 -0.4200 -0.6343  0.9090
   43MOL0     H 5747  -0.033   1.965  10.211  0.6236 -0.0570  0.2665
   43MOL0     H 5748  -0.008   1.964  10.467  1.8448 -0.5960 -2.4965
   43MOL0     H 5749  -0.180   1.978  10.489  1.3482 -2.0665  2.7046
   43MOL0     H 5750  -0.218   1.773  10.350  0.3622 -0.9213 -0.8468
   43MOL0     H 5751  -0.049   1.758  10.327 -0.9553 -0.9157 -0.8885
   43MOL0     H 5752  -0.121   1.618  10.515  1.5646 -0.8113 -0.5521
   43MOL0     H 5753  -0.005   1.733  10.578 -0.4837 -0.9051  1.5406
   43MOL0     H 5754  -0.204   1.864  10.689 -0.1342 -0.1742  2.4184
   43MOL0     H 5755  -0.187   1.699  10.738  0.9156  1.0714 -0.9401
   43MOL0     H 5756  -0.356   1.498  10.616  0.2997  0.8568  0.0851
   43MOL0     H 5757  -0.591   1.410  10.521 -0.9096 -0.5212 -0.0758
   43MOL0     H 5758  -0.705   1.499  10.613 -1.3325  0.7736 -0.2731
   43MOL0     H 5759  -0.623   1.552  10.316  2.3920 -0.2496  2.0686
   43MOL0     H 5760  -0.753   1.630  10.401  0.4274  0.1198  0.6667
   43MOL0     H 5761  -0.843   1.387  10.428 -0.5015  0.0476 -0.5099
   43MOL0     H 5762  -0.706   1.339  10.326 -0.2782 -0.2100  0.0406
   43MOL0     H 5763  -0.806   1.504  10.145  0.9742  0.5321  0.7750
   43MOL0     H 5764  -0.939   1.534  10.243  0.4388  0.8880  0.0407
   43MOL0     H 5765  -1.115   1.436  10.373  1.3771 -1.1087  1.4449
   43MOL0     H 5766  -1.302   1.496  10.427 -0.3636  0.7863  0.7609
   43MOL0     H 5767  -1.439   1.415  10.385  0.8905  0.3653 -0.0839
   43MOL0     H 5768  -1.344   1.357  10.532  0.4648 -0.5113 -0.1032
   43MOL0     H 5769  -1.548   0.904  10.402 -0.9014  0.0976  1.5584
   43MOL0     H 5770  -1.758   0.787  10.466  0.7037 -0.5613 -0.7204
   43MOL0     H 5771  -2.124   1.036  10.568 -3.5220 -0.9459 -0.1718
   43MOL0     H 5772  -2.098   1.008  10.396  2.0403 -1.0349 -0.5304
   43MOL0     H 5773  -2.313   0.924  10.491 -1.4506 -3.5387 -2.2861
   43MOL0     H 5774  -2.223   0.777  10.450  1.1202  0.9769 -1.8019
   43MOL0     H 5775  -2.241   0.912  10.724  1.0140 -0.9056  2.6175
   43MOL0     H 5776  -2.162   0.749  10.700 -2.3988 -0.7075 -0.4649
   43MOL0     H 5777  -2.459   0.802  10.637 -0.7973 -0.6711 -1.4752
   43MOL0     H 5778  -2.367   0.653  10.614  0.5203  1.4135 -0.2539
   43MOL0     H 5779  -2.454   0.783  10.868 -0.6109 -0.1423 -1.1157
   43MOL0     H 5780  -2.323   0.666  10.883  1.9787 -0.5514 -1.8946
   43MOL0     H 5781  -2.472   0.511  10.762  0.3309  0.2127 -0.5385
   43MOL0     H 5782  -2.540   0.556  10.927 -0.4114 -0.1890 -0.2593
   43MOL0     H 5783  -2.633   0.693  10.673  2.4200  0.1550  0.8243
   43MOL0     H 5784  -2.688   0.710  10.842 -2.7093  0.2048 -1.8907
   43MOL0     H 5785  -2.791   0.495  10.836  0.1141 -1.0925 -1.3337
   43MOL0     H 5786  -2.708   0.451  10.691 -0.5012  0.6525 -1.7257
   43MOL0     H 5787  -1.946   1.161  10.527  1.2482  1.1345  0.7658
   43MOL0     H 5788  -1.727   1.288  10.456 -1.1803  0.4306  2.2919
   43MOL0     H 5789  -1.240   1.034  10.119  0.6687 -0.1675 -0.2787
   43MOL0     H 5790  -1.032   1.112  10.084 -1.1421 -0.2305 -0.6872
   43MOL0     H 5791   0.111   2.635  10.242 -2.9584 -0.1399  2.5315
   43MOL0     H 5792   0.244   2.737  10.437 -0.2105 -0.0039 -0.0095
   43MOL0     H 5793   0.386   2.688  10.850  1.7149 -2.5345 -0.1668
   43MOL0     H 5794   0.438   2.838  11.018  1.0602  0.0218  0.8192
   43MOL0     H 5795   0.529   3.010  11.184 -0.3072  0.4112  2.4766
   43MOL0     H 5796   0.617   2.845  11.183  0.8657 -0.0066 -2.1931
   43MOL0     H 5797   0.701   3.012  11.367 -0.3957 -1.7770 -0.3400
   43MOL0     H 5798   0.728   3.110  11.228 -0.9557  0.5475 -0.3744
   43MOL0     H 5799   0.886   2.938  11.134  0.8241  1.8899  1.3075
   43MOL0     H 5800   0.864   2.833  11.280 -0.9868  0.4276  3.1280
   43MOL0     H 5801   1.073   2.961  11.285  0.0505 -0.3643  0.5674
   43MOL0     H 5802   0.966   3.018  11.416 -1.8149  2.4024 -0.6979
   43MOL0     H 5803   1.060   3.369  11.229  0.1468  0.2401  1.5875
   43MOL0     H 5804   0.781   2.998  10.804  0.0956  0.5094 -1.4973
   43MOL0     H 5805   0.690   2.892  10.603 -0.3333  3.2076  0.7501
   44MOL0     O 5806   9.325  10.743   0.327 -0.3242  0.3673 -0.9478
   44MOL0     C 5807   9.408  10.656   0.296  0.0769  0.4806 -0.1665
   44MOL0     O 5808   9.390  10.526   0.323  0.4344  0.7866  0.7038
   44MOL0     C 5809   9.259  10.488   0.361  0.2315 -0.4230 -0.6452
   44MOL0     C 5810   9.172  10.429   0.265  0.4299  1.4234 -0.9017
   44MOL0     C 5811   9.036  10.406   0.296  0.7300  0.6128  1.1975
   44MOL0     C 5812   8.984  10.457   0.420  0.5820  0.8583 -1.0599
   44MOL0     O 5813   8.853  10.447   0.432 -0.2585 -0.0447 -0.0712
   44MOL0     C 5814   8.772  10.533   0.508  0.7511  0.4248  0.2893
   44MOL0     C 5815   8.728  10.651   0.426  0.1912 -0.3041  0.0858
   44MOL0     C 5816   8.602  10.724   0.468  0.4746 -0.3272 -0.2764
   44MOL0     C 5817   8.633  10.813   0.585 -0.2860  0.2498  0.5665
   44MOL0     C 5818   8.522  10.919   0.617 -0.1945  0.5924  0.6715
   44MOL0     C 5819   8.391  10.871   0.684  0.5303  0.5085 -0.0654
   44MOL0     C 5820   8.280  10.977   0.697 -0.2010  0.5782 -0.5067
   44MOL0     C 5821   8.158  10.926   0.777 -0.4112 -0.1934 -0.1749
   44MOL0     N 5822   8.047  11.022   0.775  0.3198  0.0972 -0.1150
   44MOL0     C 5823   8.037  11.131   0.846 -0.5893  0.0973 -0.1384
   44MOL0     C 5824   7.912  11.176   0.835 -0.0993 -0.1526  0.4364
   44MOL0     C 5825   7.847  11.307   0.866 -0.1903 -0.4906 -0.2264
   44MOL0     C 5826   7.706  11.286   0.926  0.0715  0.2488 -0.0519
   44MOL0     C 5827   7.720  11.245   1.064 -0.1557  0.1001 -0.3964
   44MOL0     C 5828   7.583  11.224   1.123  0.0899 -0.1208 -1.2719
   44MOL0     O 5829   7.566  11.167   1.263 -0.3672 -0.2339  0.1714
   44MOL0     C 5830   7.441  11.153   1.317 -0.0239  0.0755  0.3932
   44MOL0     C 5831   7.327  11.159   1.232  1.0942 -1.3937 -0.6098
   44MOL0     C 5832   7.195  11.150   1.277  0.0655 -0.9028  0.6892
   44MOL0     C 5833   7.090  11.133   1.177  0.0803 -0.0059 -0.5614
   44MOL0     C 5834   7.169  11.150   1.416  0.7959 -0.2977 -0.0672
   44MOL0     C 5835   7.028  11.156   1.475  0.2199 -0.0874  0.6499
   44MOL0     O 5836   6.920  11.195   1.397  0.8951 -0.3859 -0.2256
   44MOL0     C 5837   6.793  11.213   1.447 -0.5618 -0.0459 -0.2420
   44MOL0     C 5838   6.709  11.305   1.380 -0.4741  0.6092  0.1865
   44MOL0     C 5839   6.574  11.320   1.397 -0.3347  0.9940 -1.0606
   44MOL0     C 5840   6.513  11.240   1.500 -0.0874 -0.4707  0.0189
   44MOL0     O 5841   6.379  11.244   1.501  0.2135  0.7934 -0.9861
   44MOL0     C 5842   6.313  11.143   1.585  0.0592  0.6391  0.0242
   44MOL0     C 5843   6.162  11.156   1.583 -0.5911 -0.3339 -0.2250
   44MOL0     C 5844   6.090  11.070   1.679 -0.4503 -0.1690 -0.3691
   44MOL0     C 5845   5.936  11.081   1.667 -0.5612 -0.5708  0.1748
   44MOL0     C 5846   5.865  11.015   1.790  0.3706  0.1469 -0.4390
   44MOL0     C 5847   5.711  11.018   1.787 -0.8116  0.2151  0.1385
   44MOL0     C 5848   5.640  10.946   1.907  0.5603 -0.0862  0.6225
   44MOL0     C 5849   5.488  10.972   1.897  0.0322 -0.2233 -0.6234
   44MOL0    Cl 5850   5.419  10.851   1.779  0.0183 -0.0340  0.1322
   44MOL0     C 5851   6.597  11.144   1.562 -0.2119 -0.2344 -0.5348
   44MOL0     C 5852   6.731  11.128   1.542 -0.0148 -0.1055 -0.1395
   44MOL0     O 5853   7.027  11.124   1.595 -0.0314 -0.2595 -0.1787
   44MOL0     C 5854   7.281  11.129   1.499 -0.7901  0.3329 -0.1301
   44MOL0     C 5855   7.413  11.133   1.454  0.8004  0.3471 -0.6502
   44MOL0     N 5856   7.848  11.097   0.736  0.4767 -0.1392 -1.1482
   44MOL0     N 5857   7.936  11.004   0.703  0.9417 -0.3372  0.0338
   44MOL0     C 5858   9.071  10.507   0.510  0.6815  0.7138 -0.0771
   44MOL0     C 5859   9.211  10.525   0.489  0.5153 -0.5156  0.6287
   44MOL0     C 5860   9.546  10.695   0.258 -0.1019 -0.5095 -0.6629
   44MOL0     C 5861   9.573  10.816   0.196  0.8638 -0.3628 -0.1852
   44MOL0     C 5862   9.709  10.847   0.173 -0.0170  0.4377 -0.2813
   44MOL0     C 5863   9.813  10.755   0.205 -0.1193  0.7647  0.1737
   44MOL0     O 5864   9.948  10.766   0.191 -0.3743 -0.2365  0.3594
   44MOL0     C 5865   9.991  10.881   0.123  0.1111  0.4764 -0.3172
   44MOL0     C 5866  10.125  10.859   0.058 -0.7022  0.1211 -0.6899
   44MOL0     C 5867  10.156  10.948  -0.062  0.6729 -0.0976 -0.3055
   44MOL0     C 5868  10.291  10.907  -0.128  1.0288  0.3893  0.0664
   44MOL0     C 5869  10.406  10.902  -0.037  0.1030 -0.2731 -0.1148
   44MOL0     C 5870  10.503  10.905   0.032 -0.1207  0.8452 -0.6987
   44MOL0     C 5871   9.781  10.631   0.262  0.2813 -0.9776 -0.2621
   44MOL0     C 5872   9.649  10.608   0.296  0.0007  0.1771  0.9759
   44MOL0     H 5873   9.209  10.401   0.167  0.6845  1.9844 -0.9665
   44MOL0     H 5874   8.966  10.357   0.229  0.7334 -0.2275  1.7924
   44MOL0     H 5875   8.679  10.481   0.530 -0.0680  3.0547  3.8073
   44MOL0     H 5876   8.802  10.553   0.611 -0.3896 -0.9127  0.9257
   44MOL0     H 5877   8.809  10.725   0.432  1.1792 -1.3274 -0.0996
   44MOL0     H 5878   8.725  10.621   0.321  0.5956 -1.2089  0.3212
   44MOL0     H 5879   8.575  10.794   0.389  0.9705  1.4423  1.0665
   44MOL0     H 5880   8.518  10.658   0.493 -1.4276  1.3155 -1.9984
   44MOL0     H 5881   8.644  10.748   0.672 -0.6484 -2.7426 -1.4519
   44MOL0     H 5882   8.728  10.862   0.563  0.6284 -1.7681 -0.2348
   44MOL0     H 5883   8.577  10.990   0.678  1.0968 -2.0630  2.7907
   44MOL0     H 5884   8.491  10.972   0.526 -1.5931 -0.3695  0.5539
   44MOL0     H 5885   8.345  10.789   0.629 -1.4553  1.3270  0.2598
   44MOL0     H 5886   8.418  10.838   0.785  0.6312  3.7515  1.1166
   44MOL0     H 5887   8.307  11.075   0.738 -1.3084  0.5792  0.2905
   44MOL0     H 5888   8.236  11.000   0.599  0.0693  1.2152 -0.4848
   44MOL0     H 5889   8.187  10.911   0.882 -0.5421 -0.3172 -0.1563
   44MOL0     H 5890   8.126  10.834   0.728 -2.7175  0.1304  0.5803
   44MOL0     H 5891   8.124  11.172   0.897 -0.4711  3.3839 -2.6190
   44MOL0     H 5892   7.895  11.383   0.928  0.1992  0.1951 -1.3545
   44MOL0     H 5893   7.826  11.351   0.769 -2.1188 -2.7747 -0.9459
   44MOL0     H 5894   7.649  11.201   0.887  0.6596 -0.2590  0.1837
   44MOL0     H 5895   7.648  11.379   0.920 -0.2528 -0.0004 -0.9787
   44MOL0     H 5896   7.771  11.324   1.121 -1.0170 -0.0650  0.6228
   44MOL0     H 5897   7.770  11.148   1.066 -0.9532 -0.3200  1.7635
   44MOL0     H 5898   7.531  11.160   1.051 -0.9416 -0.5581 -0.1651
   44MOL0     H 5899   7.540  11.323   1.108  0.0422  0.1915  0.6435
   44MOL0     H 5900   7.345  11.166   1.126  1.1277  0.2433 -0.5239
   44MOL0     H 5901   7.001  11.081   1.216 -2.0730  2.5380 -1.7612
   44MOL0     H 5902   7.058  11.232   1.145 -0.7031 -0.7534 -2.2117
   44MOL0     H 5903   7.127  11.078   1.090  3.0655 -0.2144  0.7122
   44MOL0     H 5904   6.754  11.370   1.305  2.6088  0.2026  1.5333
   44MOL0     H 5905   6.508  11.383   1.338  3.3861  3.5054 -2.9417
   44MOL0     H 5906   6.328  11.045   1.537 -1.9227 -0.7571  2.0378
   44MOL0     H 5907   6.359  11.140   1.684  2.6138  0.2735 -1.0861
   44MOL0     H 5908   6.148  11.264   1.592  1.1245 -0.0360 -0.7140
   44MOL0     H 5909   6.120  11.127   1.486  0.0433 -2.3884  0.0589
   44MOL0     H 5910   6.128  11.099   1.777 -0.2488 -1.5509 -0.0086
   44MOL0     H 5911   6.117  10.964   1.673  0.5110  0.0124  0.5171
   44MOL0     H 5912   5.915  11.188   1.660 -1.6011 -0.8744 -3.1077
   44MOL0     H 5913   5.914  11.033   1.571  1.3326  1.6870 -1.5020
   44MOL0     H 5914   5.892  11.077   1.876 -2.4695 -0.2184  0.8251
   44MOL0     H 5915   5.904  10.915   1.814  1.3972  0.8847  1.1658
   44MOL0     H 5916   5.696  11.125   1.806  0.8696  0.2273  1.6043
   44MOL0     H 5917   5.680  10.990   1.686  3.3260 -2.8558 -0.5425
   44MOL0     H 5918   5.681  10.985   2.001 -0.7777  1.7882  0.4915
   44MOL0     H 5919   5.654  10.838   1.909  2.6539  0.1423  0.5401
   44MOL0     H 5920   5.459  11.076   1.885  2.0646  1.2709  4.4560
   44MOL0     H 5921   5.440  10.952   1.994  1.8372 -0.2082  0.3332
   44MOL0     H 5922   6.541  11.069   1.619 -0.8924  0.2232 -0.5918
   44MOL0     H 5923   6.777  11.047   1.598  2.4120  0.5530 -1.0867
   44MOL0     H 5924   7.279  11.115   1.606  0.2912 -0.5337 -0.2091
   44MOL0     H 5925   7.492  11.117   1.526  1.6803 -1.7734 -1.9900
   44MOL0     H 5926   9.024  10.525   0.606 -2.0355 -0.3057 -1.1252
   44MOL0     H 5927   9.289  10.566   0.553  0.4826  2.9078 -1.2961
   44MOL0     H 5928   9.493  10.875   0.153  2.2107  0.3167 -1.8510
   44MOL0     H 5929   9.736  10.934   0.114  1.6175  0.1567  0.0274
   44MOL0     H 5930   9.922  10.914   0.045 -0.1112  1.8798  0.4501
   44MOL0     H 5931  10.003  10.966   0.190 -0.4275 -1.0424  1.8159
   44MOL0     H 5932  10.144  10.755   0.032 -0.6332 -0.2745  0.8648
   44MOL0     H 5933  10.203  10.876   0.132 -1.5768 -0.9862  0.5363
   44MOL0     H 5934  10.182  11.047  -0.022  3.1650 -2.0366  3.4144
   44MOL0     H 5935  10.071  10.945  -0.131  0.9597 -1.0544 -0.6375
   44MOL0     H 5936  10.308  10.982  -0.206 -3.3649  1.3038 -0.2850
   44MOL0     H 5937  10.275  10.812  -0.180 -0.6948  0.8242 -0.2684
   44MOL0     H 5938  10.590  10.885   0.091 -0.5833 -1.1426 -0.6051
   44MOL0     H 5939   9.856  10.557   0.287 -0.1214 -0.5460  2.6194
   44MOL0     H 5940   9.628  10.522   0.360  1.0748 -1.0764 -0.2930
   45MOL0     O 5941   4.183   1.807   7.015  0.5423  0.2140 -0.0972
   45MOL0     C 5942   4.109   1.866   7.095  0.2275  0.6393  0.9313
   45MOL0     O 5943   3.974   1.891   7.076  0.0466 -0.2143  0.0538
   45MOL0     C 5944   3.929   1.908   6.942  1.0685 -0.3405  0.9853
   45MOL0     C 5945   4.006   1.941   6.834 -0.3325 -0.6685 -0.5772
   45MOL0     C 5946   3.949   1.951   6.707 -0.1023  0.1293  0.7038
   45MOL0     C 5947   3.814   1.921   6.682 -0.9044 -1.0953  0.8044
   45MOL0     O 5948   3.755   1.945   6.561  0.3448  0.4532 -0.1034
   45MOL0     C 5949   3.834   1.936   6.435  0.6097  0.2968 -0.0994
   45MOL0     C 5950   3.759   2.001   6.322 -0.6085  0.1603 -1.1099
   45MOL0     C 5951   3.636   1.912   6.276 -0.2779  0.5780 -0.7845
   45MOL0     C 5952   3.538   1.993   6.193 -0.3500  0.6185  0.0457
   45MOL0     C 5953   3.425   1.913   6.147  0.6160 -1.2707  0.0275
   45MOL0     C 5954   3.348   1.987   6.035  0.5441 -0.1453  1.0396
   45MOL0     C 5955   3.224   1.913   5.993  0.4202  0.4333 -0.0352
   45MOL0     C 5956   3.240   1.769   5.927  0.6041 -0.6158  0.1754
   45MOL0     N 5957   3.110   1.698   5.902  0.0686 -0.8506  0.4364
   45MOL0     C 5958   3.046   1.621   5.998  0.6629  0.0593  0.9346
   45MOL0     C 5959   2.940   1.569   5.934  0.0161  0.6225  0.4117
   45MOL0     C 5960   2.824   1.488   5.989  0.4152 -0.8055  0.3518
   45MOL0     C 5961   2.710   1.574   6.039 -0.5772  0.1334 -0.9798
   45MOL0     C 5962   2.575   1.492   6.050 -0.7602  0.4496 -0.3839
   45MOL0     C 5963   2.460   1.585   6.081 -0.1334  0.4024 -0.1162
   45MOL0     O 5964   2.427   1.594   6.223 -0.4686 -0.3226 -0.3706
   45MOL0     C 5965   2.296   1.609   6.272  0.1626 -0.5696  0.0764
   45MOL0     C 5966   2.180   1.621   6.185 -0.3166  0.0135 -0.8275
   45MOL0     C 5967   2.053   1.617   6.232  0.7727 -0.0409  0.3133
   45MOL0     C 5968   1.948   1.624   6.119 -0.4202  0.0017  0.6786
   45MOL0     C 5969   2.033   1.634   6.372  0.2289  0.4941  0.6494
   45MOL0     C 5970   1.894   1.652   6.433  0.7227 -0.2206 -0.3724
   45MOL0     O 5971   1.784   1.609   6.364  0.1490  0.7048  0.3390
   45MOL0     C 5972   1.658   1.637   6.400  0.4584  0.1043 -0.5853
   45MOL0     C 5973   1.586   1.547   6.469  0.3573 -0.1743  0.3760
   45MOL0     C 5974   1.442   1.553   6.480 -0.3046 -0.2606  0.3691
   45MOL0     C 5975   1.381   1.660   6.406  0.7491  0.0641  0.3347
   45MOL0     O 5976   1.242   1.680   6.398  0.2866  0.5200  0.0449
   45MOL0     C 5977   1.159   1.572   6.440 -1.1897  0.9831  0.6806
   45MOL0     C 5978   1.025   1.591   6.363 -0.0555  1.0036  0.4937
   45MOL0     C 5979   0.931   1.684   6.430  0.3663 -0.5706  0.5324
   45MOL0     C 5980   0.819   1.740   6.339  0.1270 -0.2938 -0.8816
   45MOL0     C 5981   0.711   1.806   6.421 -0.3365  1.0133 -0.1045
   45MOL0     C 5982   0.589   1.847   6.342  0.2008  0.6137  0.3241
   45MOL0     C 5983   0.485   1.933   6.427 -0.0710 -0.4229  0.2963
   45MOL0     C 5984   0.539   2.078   6.466 -0.4202  0.2733 -0.0160
   45MOL0    Cl 5985   0.426   2.139   6.595 -0.2800  0.2363  0.1643
   45MOL0     C 5986   1.454   1.756   6.340  0.3194 -0.6535  0.0995
   45MOL0     C 5987   1.596   1.741   6.337 -0.0587 -0.0072 -0.9163
   45MOL0     O 5988   1.891   1.709   6.544 -0.2490 -0.1624 -0.7281
   45MOL0     C 5989   2.141   1.639   6.457 -0.6907 -0.5994 -0.1965
   45MOL0     C 5990   2.280   1.628   6.409  0.5564  0.0835 -0.8194
   45MOL0     N 5991   2.950   1.598   5.801 -0.4708 -0.0317  0.3905
   45MOL0     N 5992   3.055   1.674   5.779 -0.6101 -0.1862 -0.5781
   45MOL0     C 5993   3.737   1.893   6.794  0.2419  0.1356  0.8377
   45MOL0     C 5994   3.794   1.885   6.916  0.0848 -0.0290 -0.9138
   45MOL0     C 5995   4.157   1.895   7.224 -1.3411 -0.3775  0.4058
   45MOL0     C 5996   4.123   2.011   7.295 -0.9466  0.2941 -0.8346
   45MOL0     C 5997   4.168   2.031   7.423 -0.1654 -0.2622 -0.4529
   45MOL0     C 5998   4.259   1.941   7.480 -0.1119  0.1434 -1.1101
   45MOL0     O 5999   4.305   1.976   7.601 -0.3835 -0.2272  0.1122
   45MOL0     C 6000   4.341   1.868   7.693 -0.7257  0.9957  0.1822
   45MOL0     C 6001   4.487   1.851   7.691 -0.4903  0.5196  0.2000
   45MOL0     C 6002   4.553   1.968   7.755 -0.1862 -0.5933  0.1887
   45MOL0     C 6003   4.706   1.944   7.758  0.3897  0.5120 -0.0095
   45MOL0     C 6004   4.780   2.029   7.849  1.0112  0.4365  0.7833
   45MOL0     C 6005   4.831   2.119   7.906 -0.7285 -0.5080 -0.6903
   45MOL0     C 6006   4.301   1.827   7.403 -0.0022 -1.1069 -0.8043
   45MOL0     C 6007   4.247   1.807   7.278 -0.3364  0.1278  0.5654
   45MOL0     H 6008   4.113   1.961   6.842 -0.1843  0.2908 -3.7599
   45MOL0     H 6009   4.015   1.990   6.629 -0.9505  0.6885  0.2495
   45MOL0     H 6010   3.923   1.997   6.455 -0.2638  1.4526  0.3277
   45MOL0     H 6011   3.845   1.828   6.420 -2.1960 -0.1859  0.6879
   45MOL0     H 6012   3.737   2.101   6.360 -0.1647 -0.7672  1.9014
   45MOL0     H 6013   3.821   2.020   6.235 -1.2790  4.0828 -0.8897
   45MOL0     H 6014   3.670   1.828   6.216 -1.8152  0.6342 -1.7581
   45MOL0     H 6015   3.584   1.874   6.364  1.1361 -0.3123 -0.2938
   45MOL0     H 6016   3.504   2.083   6.244 -0.0476  1.6357 -1.4721
   45MOL0     H 6017   3.595   2.031   6.108  2.3593 -1.6876  0.7026
   45MOL0     H 6018   3.466   1.821   6.105 -0.1562 -2.4686  1.7527
   45MOL0     H 6019   3.365   1.891   6.236  1.5022  0.4668  1.1249
   45MOL0     H 6020   3.306   2.080   6.074  2.8312  1.2319  0.4430
   45MOL0     H 6021   3.409   2.016   5.949  1.6939 -2.4410  0.9866
   45MOL0     H 6022   3.154   1.898   6.075 -0.6045  0.3440 -0.8997
   45MOL0     H 6023   3.170   1.976   5.922  2.6039  0.3437 -1.9120
   45MOL0     H 6024   3.300   1.712   5.999 -2.8135 -1.1638  2.8237
   45MOL0     H 6025   3.288   1.783   5.830 -0.8804  2.4901 -0.2271
   45MOL0     H 6026   3.066   1.599   6.103 -1.2743  0.1642  1.3625
   45MOL0     H 6027   2.772   1.431   5.911 -0.4399  1.2236 -0.6216
   45MOL0     H 6028   2.866   1.430   6.072  1.7686  0.6563  0.7306
   45MOL0     H 6029   2.705   1.651   5.962 -0.3704  3.7841  2.3831
   45MOL0     H 6030   2.724   1.620   6.137 -0.8332 -0.9221 -0.4236
   45MOL0     H 6031   2.587   1.425   6.136 -1.5840 -0.1604 -0.7374
   45MOL0     H 6032   2.543   1.430   5.967 -1.2459  2.9267 -2.1460
   45MOL0     H 6033   2.376   1.531   6.036 -0.6256  1.1886 -0.1672
   45MOL0     H 6034   2.466   1.678   6.023  2.0720 -0.1187 -0.7853
   45MOL0     H 6035   2.204   1.638   6.081  0.2981 -1.7486 -1.0109
   45MOL0     H 6036   1.876   1.541   6.127  0.7853 -1.0754  0.6842
   45MOL0     H 6037   1.906   1.725   6.117  2.3111  1.2158  0.1528
   45MOL0     H 6038   1.998   1.599   6.025 -0.1613 -3.3590  1.5787
   45MOL0     H 6039   1.643   1.483   6.536 -1.2177 -4.0086 -1.6334
   45MOL0     H 6040   1.387   1.488   6.547 -0.7001 -1.5859 -1.1840
   45MOL0     H 6041   1.197   1.477   6.402 -1.6074 -0.1512  2.9288
   45MOL0     H 6042   1.136   1.562   6.546  0.5230  2.8065  1.2757
   45MOL0     H 6043   1.057   1.608   6.260  0.0570  2.2447  0.7194
   45MOL0     H 6044   0.976   1.493   6.362 -0.5192  1.2112 -1.5470
   45MOL0     H 6045   0.990   1.771   6.462  0.2944  0.2823 -1.5207
   45MOL0     H 6046   0.894   1.632   6.519 -1.3244  0.7091  0.6344
   45MOL0     H 6047   0.862   1.809   6.266  0.9836 -0.8030 -0.8620
   45MOL0     H 6048   0.776   1.656   6.283 -1.5854  0.7305 -1.2064
   45MOL0     H 6049   0.757   1.890   6.473 -1.2154  0.0761  2.2958
   45MOL0     H 6050   0.679   1.729   6.491 -0.3740 -2.3061 -3.4388
   45MOL0     H 6051   0.620   1.906   6.255  0.2444 -1.1845 -0.9530
   45MOL0     H 6052   0.538   1.758   6.304 -0.9909  1.8340 -1.0273
   45MOL0     H 6053   0.465   1.871   6.515  1.3224  0.7159  1.4756
   45MOL0     H 6054   0.391   1.950   6.373  0.0637  1.2099  0.5151
   45MOL0     H 6055   0.528   2.143   6.379  0.9236 -0.0681 -0.4657
   45MOL0     H 6056   0.644   2.075   6.496  0.1265  1.4052 -1.6603
   45MOL0     H 6057   1.385   1.828   6.297 -1.9514 -2.2630  0.8652
   45MOL0     H 6058   1.650   1.820   6.285 -2.3239  1.6284 -0.9464
   45MOL0     H 6059   2.118   1.637   6.563 -0.0685 -2.5266 -0.0589
   45MOL0     H 6060   2.360   1.608   6.480  1.6277 -0.1584 -2.0599
   45MOL0     H 6061   3.631   1.877   6.782  0.5842 -1.1024 -0.8908
   45MOL0     H 6062   3.728   1.861   6.998 -3.1805  1.3401 -2.9627
   45MOL0     H 6063   4.051   2.069   7.238 -1.0125 -0.7694 -1.8583
   45MOL0     H 6064   4.131   2.120   7.473  1.0284 -0.2956  0.5483
   45MOL0     H 6065   4.289   1.877   7.789 -2.0815  1.1611 -0.5376
   45MOL0     H 6066   4.296   1.775   7.657  1.8125 -0.4387  0.4476
   45MOL0     H 6067   4.524   1.837   7.589 -0.8220  1.1482 -0.0190
   45MOL0     H 6068   4.498   1.764   7.756 -3.3353  0.2838  0.5207
   45MOL0     H 6069   4.513   1.980   7.856 -0.1703 -0.0993  0.1390
   45MOL0     H 6070   4.548   2.051   7.684  1.9386 -1.9817 -1.7223
   45MOL0     H 6071   4.760   1.954   7.664 -0.3350  0.3552 -0.4450
   45MOL0     H 6072   4.724   1.842   7.792  1.9823  0.6208 -0.4527
   45MOL0     H 6073   4.887   2.185   7.970 -2.0113 -0.0827  0.0271
   45MOL0     H 6074   4.370   1.754   7.443 -1.4312 -1.5188  1.0629
   45MOL0     H 6075   4.271   1.722   7.215 -1.5887 -0.3066  0.6311
   46MOL0     O 6076   9.688   7.313   0.497  0.3702  0.6542 -0.7817
   46MOL0     C 6077   9.795   7.263   0.540 -0.8126  0.3343  0.6935
   46MOL0     O 6078   9.806   7.157   0.611 -0.2049 -0.0763 -0.6139
   46MOL0     C 6079   9.690   7.114   0.671 -0.7579 -0.3651 -0.1352
   46MOL0     C 6080   9.696   6.971   0.681 -0.9666  0.1154 -0.4314
   46MOL0     C 6081   9.603   6.894   0.748  0.6081  0.1896 -0.3224
   46MOL0     C 6082   9.491   6.959   0.805 -0.4430 -0.3149 -0.3636
   46MOL0     O 6083   9.390   6.902   0.875  0.2048 -0.1285 -0.5130
   46MOL0     C 6084   9.373   6.762   0.851 -0.1238  0.6107 -0.1105
   46MOL0     C 6085   9.270   6.706   0.946 -0.1214  1.1606 -0.7465
   46MOL0     C 6086   9.144   6.789   0.935 -0.1576 -0.4780 -0.0825
   46MOL0     C 6087   9.034   6.700   0.998  0.2681 -1.2782  0.3570
   46MOL0     C 6088   8.903   6.759   0.982  0.5781 -0.0321  0.6124
   46MOL0     C 6089   8.777   6.674   1.019 -0.4483 -0.0495  0.0625
   46MOL0     C 6090   8.745   6.549   0.927 -0.0978 -0.4759 -0.4732
   46MOL0     C 6091   8.604   6.502   0.953  1.0752  0.1401 -0.0362
   46MOL0     N 6092   8.612   6.380   1.035 -0.5602  0.2111  0.4128
   46MOL0     C 6093   8.653   6.376   1.165  0.0778 -0.8438 -0.0462
   46MOL0     C 6094   8.619   6.257   1.206  0.2392 -0.2286  0.8822
   46MOL0     C 6095   8.644   6.205   1.341 -0.3494 -0.0825 -0.2482
   46MOL0     C 6096   8.558   6.266   1.461 -0.4009 -0.2932  0.2484
   46MOL0     C 6097   8.430   6.197   1.500 -0.6604 -0.2986 -0.4588
   46MOL0     C 6098   8.335   6.156   1.387  0.4950 -0.3611 -0.1719
   46MOL0     O 6099   8.294   6.286   1.337  0.2037  0.4241 -0.3216
   46MOL0     C 6100   8.179   6.287   1.263  1.3012 -1.0879  0.3372
   46MOL0     C 6101   8.162   6.208   1.151  0.2036  0.1472  0.5309
   46MOL0     C 6102   8.050   6.211   1.067 -0.2193 -0.2305  0.7919
   46MOL0     C 6103   8.066   6.136   0.932 -0.3282  0.1544  0.4210
   46MOL0     C 6104   7.939   6.290   1.098  0.6848 -0.6679 -0.1499
   46MOL0     C 6105   7.811   6.304   1.022  0.8088 -0.8991 -0.0505
   46MOL0     O 6106   7.715   6.398   1.064 -0.0705  0.3549  0.2425
   46MOL0     C 6107   7.600   6.411   0.994  0.0351 -0.2653  0.1688
   46MOL0     C 6108   7.501   6.306   0.989 -0.8745  0.1986  0.1683
   46MOL0     C 6109   7.382   6.332   0.929  0.2709  0.5632  0.3501
   46MOL0     C 6110   7.358   6.458   0.864  0.5137  0.8650  1.0228
   46MOL0     O 6111   7.231   6.476   0.812  0.3162  0.5081 -0.1157
   46MOL0     C 6112   7.167   6.601   0.828 -0.6032 -0.3385  0.5061
   46MOL0     C 6113   7.014   6.587   0.842  0.0086 -0.2092  0.1433
   46MOL0     C 6114   6.935   6.716   0.818  0.4854 -0.1946  0.7484
   46MOL0     C 6115   6.783   6.691   0.824  0.1433 -0.1348 -0.5421
   46MOL0     C 6116   6.705   6.812   0.796  0.3842  0.6502  0.2917
   46MOL0     C 6117   6.663   6.837   0.642 -0.3694 -0.5249  0.9020
   46MOL0     C 6118   6.559   6.953   0.632 -0.6771  0.1099 -0.0987
   46MOL0     C 6119   6.424   6.937   0.708  0.3912  0.8822 -0.3078
   46MOL0    Cl 6120   6.339   6.791   0.635 -0.1261 -0.0674 -0.0283
   46MOL0     C 6121   7.452   6.557   0.858 -0.1994  0.1510 -0.8042
   46MOL0     C 6122   7.573   6.534   0.936  1.0276 -0.1563 -0.4655
   46MOL0     O 6123   7.798   6.236   0.923 -0.2754 -0.9411 -0.1434
   46MOL0     C 6124   7.948   6.364   1.220 -0.1731  0.7252 -0.1153
   46MOL0     C 6125   8.066   6.363   1.299  0.5229  0.2042  0.6035
   46MOL0     N 6126   8.560   6.184   1.107  0.0776  0.2817  0.3633
   46MOL0     N 6127   8.566   6.257   1.004 -0.4159  0.5649  0.0956
   46MOL0     C 6128   9.484   7.099   0.796 -0.0943  0.3506  0.3007
   46MOL0     C 6129   9.583   7.178   0.731  0.4643 -0.5033 -0.2759
   46MOL0     C 6130   9.915   7.332   0.494  0.3340 -0.2995  0.1161
   46MOL0     C 6131   9.913   7.451   0.422 -0.0610  0.1189 -0.3041
   46MOL0     C 6132  10.033   7.506   0.383 -0.2142  0.6104 -0.0623
   46MOL0     C 6133  10.156   7.456   0.410 -0.9173 -0.4407 -0.1228
   46MOL0     O 6134  10.260   7.528   0.367 -0.6795 -0.4047 -0.4564
   46MOL0     C 6135  10.388   7.497   0.417 -0.0623 -0.6235 -0.1932
   46MOL0     C 6136  10.489   7.552   0.315  0.0360  0.5401 -0.3527
   46MOL0     C 6137  10.493   7.708   0.302  0.7037  0.0655 -0.2177
   46MOL0     C 6138  10.592   7.759   0.198 -0.2517 -0.2039 -0.3035
   46MOL0     C 6139  10.727   7.706   0.216  0.3707 -0.7391  0.6667
   46MOL0     C 6140  10.832   7.640   0.229 -0.4125 -0.2577 -0.3617
   46MOL0     C 6141  10.159   7.331   0.466  1.1583  0.3781  0.6082
   46MOL0     C 6142  10.040   7.271   0.504  0.5827  0.1468  0.5330
   46MOL0     H 6143   9.778   6.913   0.639  0.2615  0.2566  1.6273
   46MOL0     H 6144   9.627   6.788   0.751  0.7381  0.2114 -0.5635
   46MOL0     H 6145   9.336   6.755   0.748 -0.4000  1.9940 -0.1177
   46MOL0     H 6146   9.466   6.707   0.869 -0.3626 -0.0144 -0.7231
   46MOL0     H 6147   9.251   6.602   0.916 -0.3186  0.7423  0.7434
   46MOL0     H 6148   9.303   6.709   1.050  1.5217  1.0215 -1.2483
   46MOL0     H 6149   9.158   6.877   0.999  1.3203 -1.2576  0.7264
   46MOL0     H 6150   9.119   6.822   0.834 -3.0024  1.0545  1.0026
   46MOL0     H 6151   9.033   6.601   0.950  0.7538  0.1425 -2.8052
   46MOL0     H 6152   9.067   6.685   1.101  1.0721 -3.5018 -0.1587
   46MOL0     H 6153   8.911   6.839   1.056  2.4912  0.7568 -0.4042
   46MOL0     H 6154   8.884   6.806   0.886  0.4531 -0.5716  0.3658
   46MOL0     H 6155   8.788   6.627   1.117  0.7959 -0.7183 -0.3817
   46MOL0     H 6156   8.693   6.745   1.030  0.3550  0.9444 -0.0790
   46MOL0     H 6157   8.768   6.581   0.825  1.6960  0.9441  0.3111
   46MOL0     H 6158   8.822   6.475   0.953 -1.0021 -0.8528  1.3314
   46MOL0     H 6159   8.560   6.475   0.856  2.0687 -1.1527 -0.1604
   46MOL0     H 6160   8.530   6.567   1.001 -3.5086 -2.8281 -2.2881
   46MOL0     H 6161   8.692   6.454   1.231 -2.0484 -0.4286  0.8467
   46MOL0     H 6162   8.619   6.098   1.337 -0.9825 -0.1016  2.5214
   46MOL0     H 6163   8.752   6.216   1.353 -0.4546  1.1614 -0.2827
   46MOL0     H 6164   8.540   6.370   1.433  0.2997 -0.1223  0.3989
   46MOL0     H 6165   8.624   6.266   1.549  0.4310  0.9494 -0.3418
   46MOL0     H 6166   8.371   6.253   1.573  1.1673 -0.7638  1.4653
   46MOL0     H 6167   8.464   6.109   1.556 -1.1517 -1.1418 -1.4601
   46MOL0     H 6168   8.248   6.101   1.424  1.3451 -0.7462  1.3335
   46MOL0     H 6169   8.379   6.091   1.310 -0.9789 -0.1556 -1.2396
   46MOL0     H 6170   8.250   6.148   1.129 -2.0736 -3.0051 -0.7832
   46MOL0     H 6171   8.153   6.070   0.934 -1.5250 -1.4595  1.3867
   46MOL0     H 6172   7.980   6.069   0.928 -0.6823  0.6250 -0.0935
   46MOL0     H 6173   8.067   6.214   0.855 -0.6404 -1.1352 -0.9372
   46MOL0     H 6174   7.522   6.212   1.039  0.7305  0.6062  0.3038
   46MOL0     H 6175   7.303   6.259   0.919 -1.1708  2.2033 -0.7384
   46MOL0     H 6176   7.194   6.655   0.919 -1.9995 -0.6990  1.1673
   46MOL0     H 6177   7.188   6.656   0.736  2.1243 -2.2066 -0.0907
   46MOL0     H 6178   6.980   6.526   0.757 -1.1915  0.7953 -0.1363
   46MOL0     H 6179   6.978   6.548   0.938 -0.3524  1.8457  0.8968
   46MOL0     H 6180   6.948   6.764   0.720 -2.1290  0.4752  0.6318
   46MOL0     H 6181   6.959   6.788   0.896 -1.7183  1.4434  0.0288
   46MOL0     H 6182   6.755   6.605   0.762 -3.5551  2.3069 -2.6432
   46MOL0     H 6183   6.765   6.673   0.930  1.6548  2.0272  0.1605
   46MOL0     H 6184   6.741   6.911   0.827  1.2165  0.3796  0.2083
   46MOL0     H 6185   6.615   6.805   0.857  0.2668  0.9780  0.1607
   46MOL0     H 6186   6.747   6.870   0.579 -0.9139  3.2516  1.9144
   46MOL0     H 6187   6.627   6.747   0.593  0.5885 -0.2965 -0.2714
   46MOL0     H 6188   6.539   6.976   0.527  0.6914  1.2787 -0.1251
   46MOL0     H 6189   6.610   7.045   0.659 -1.4383 -0.2919  3.0612
   46MOL0     H 6190   6.358   7.025   0.708  0.4813  1.0044  1.6968
   46MOL0     H 6191   6.448   6.913   0.812 -1.1373  1.1956  0.1587
   46MOL0     H 6192   7.435   6.652   0.808 -0.5482  0.2248 -0.5447
   46MOL0     H 6193   7.644   6.614   0.950  0.7469  0.0911 -0.4484
   46MOL0     H 6194   7.866   6.425   1.254 -1.2728 -1.6724  1.8883
   46MOL0     H 6195   8.064   6.423   1.389  0.5249  4.2441 -1.8453
   46MOL0     H 6196   9.394   7.145   0.834  0.1798  0.5582  0.7043
   46MOL0     H 6197   9.580   7.287   0.721 -2.5060 -0.2665  1.8889
   46MOL0     H 6198   9.819   7.503   0.414 -0.5294 -0.3847  1.4354
   46MOL0     H 6199  10.033   7.594   0.319  1.0103  0.3712 -0.4190
   46MOL0     H 6200  10.415   7.552   0.507 -1.1032  1.2760 -0.9810
   46MOL0     H 6201  10.412   7.392   0.434  4.1724 -0.0350 -1.1932
   46MOL0     H 6202  10.462   7.511   0.217 -2.5644  0.2262  0.4152
   46MOL0     H 6203  10.588   7.514   0.344 -0.2917  0.3515  0.5374
   46MOL0     H 6204  10.518   7.743   0.403  1.6889 -1.6626  0.1833
   46MOL0     H 6205  10.394   7.751   0.279  0.4995 -1.4188 -2.4292
   46MOL0     H 6206  10.595   7.868   0.187 -2.1715  0.2178  2.3404
   46MOL0     H 6207  10.565   7.716   0.101 -0.0282  0.0566 -0.4817
   46MOL0     H 6208  10.919   7.579   0.242 -1.9868 -2.2211  1.7880
   46MOL0     H 6209  10.256   7.281   0.469  1.6212  1.2985  1.5104
   46MOL0     H 6210  10.034   7.172   0.549 -1.3651  1.6101  3.9374
   47MOL0     O 6211   4.536   0.368   1.906 -0.3930 -1.2555  0.4928
   47MOL0     C 6212   4.628   0.448   1.864  0.1057  0.0452 -0.6613
   47MOL0     O 6213   4.622   0.578   1.842 -0.2381 -0.2414  0.5193
   47MOL0     C 6214   4.501   0.633   1.865 -0.0201  0.6099 -0.3749
   47MOL0     C 6215   4.408   0.644   1.761  0.3086 -0.0250  0.4116
   47MOL0     C 6216   4.287   0.707   1.786 -0.5211  0.1187  0.8936
   47MOL0     C 6217   4.250   0.741   1.916 -0.4064  0.8900  0.8054
   47MOL0     O 6218   4.121   0.779   1.937  0.5691  0.0274  0.3395
   47MOL0     C 6219   4.096   0.863   2.052 -0.5447 -0.3444  0.3441
   47MOL0     C 6220   3.943   0.904   2.039  0.2719  0.4718 -0.3739
   47MOL0     C 6221   3.840   0.780   2.066 -1.2024  0.3200 -0.0122
   47MOL0     C 6222   3.697   0.833   2.040  0.9305 -0.1575  0.3063
   47MOL0     C 6223   3.592   0.718   2.023  0.0476  1.1028  0.0354
   47MOL0     C 6224   3.460   0.764   1.961  0.0833  0.2242  0.3060
   47MOL0     C 6225   3.359   0.818   2.068  0.3732 -0.5168  0.1967
   47MOL0     C 6226   3.221   0.821   2.000 -0.8200  0.8443  0.0663
   47MOL0     N 6227   3.114   0.844   2.103  0.2583  0.2453 -0.4449
   47MOL0     C 6228   3.016   0.934   2.103  0.1977  0.3718  0.1091
   47MOL0     C 6229   2.949   0.918   2.212  0.2260  1.0997 -0.6784
   47MOL0     C 6230   2.833   0.985   2.246  0.6586 -0.1446  0.0759
   47MOL0     C 6231   2.705   0.894   2.266 -0.9795  0.5094 -0.2734
   47MOL0     C 6232   2.642   0.866   2.127 -0.0130 -0.2975 -0.8292
   47MOL0     C 6233   2.497   0.821   2.135 -0.4652  0.1534 -0.5590
   47MOL0     O 6234   2.457   0.736   2.029 -0.4084 -0.4126 -0.2156
   47MOL0     C 6235   2.367   0.632   2.055  0.2686  0.0185 -0.0910
   47MOL0     C 6236   2.381   0.505   1.997  0.9275 -1.6008  0.9957
   47MOL0     C 6237   2.296   0.401   2.023 -0.0120  0.6645 -0.0179
   47MOL0     C 6238   2.341   0.273   1.974  0.0592  0.1342  0.6673
   47MOL0     C 6239   2.181   0.423   2.103  0.5211 -0.1252 -0.5138
   47MOL0     C 6240   2.083   0.318   2.135 -0.2964  0.1145 -0.4803
   47MOL0     O 6241   1.983   0.352   2.215  0.9231  0.3112 -0.0768
   47MOL0     C 6242   1.850   0.298   2.212  0.4648 -0.5034 -0.3198
   47MOL0     C 6243   1.765   0.324   2.317 -1.3068 -0.4795  0.3501
   47MOL0     C 6244   1.639   0.278   2.305  0.5782 -0.7882 -0.1581
   47MOL0     C 6245   1.587   0.199   2.207 -0.2155  0.9445  0.0071
   47MOL0     O 6246   1.453   0.159   2.220 -0.0199  0.1808 -0.0177
   47MOL0     C 6247   1.406   0.060   2.131 -0.6066  0.9495 -0.6285
   47MOL0     C 6248   1.255   0.074   2.148  0.2576  0.3138  0.8156
   47MOL0     C 6249   1.203   0.197   2.070 -0.7405  0.1227 -0.3953
   47MOL0     C 6250   1.063   0.172   2.034  0.3240 -0.3274 -0.8724
   47MOL0     C 6251   1.014   0.295   1.956  0.9105  0.3340 -0.3943
   47MOL0     C 6252   0.864   0.282   1.922 -0.9763  0.4359 -0.2091
   47MOL0     C 6253   0.793   0.391   1.837 -0.9620 -0.2868 -0.0614
   47MOL0     C 6254   0.654   0.377   1.797  0.3480  1.0800  1.2062
   47MOL0    Cl 6255   0.616   0.276   1.658 -0.3250 -0.2743  0.2174
   47MOL0     C 6256   1.673   0.175   2.097  0.4892  0.1753  0.5410
   47MOL0     C 6257   1.804   0.234   2.092  0.2207 -0.4681 -0.2720
   47MOL0     O 6258   2.096   0.207   2.080 -0.2847 -0.3178 -0.1941
   47MOL0     C 6259   2.162   0.543   2.161 -0.0146 -0.3013 -0.9160
   47MOL0     C 6260   2.260   0.647   2.142  1.0586  0.0619 -0.2265
   47MOL0     N 6261   3.007   0.821   2.288  0.6296 -0.4806  0.5958
   47MOL0     N 6262   3.102   0.770   2.216 -0.7926 -0.6980 -0.6640
   47MOL0     C 6263   4.345   0.729   2.021  0.2867  0.1077  0.7079
   47MOL0     C 6264   4.474   0.678   1.992  0.5768  0.4875 -0.0528
   47MOL0     C 6265   4.754   0.384   1.828 -0.2487  0.4605  1.2386
   47MOL0     C 6266   4.863   0.454   1.783  0.7177  0.2402  0.7210
   47MOL0     C 6267   4.981   0.387   1.744 -0.2491 -0.0692  0.0723
   47MOL0     C 6268   4.987   0.243   1.752  0.4461 -0.7063 -0.8177
   47MOL0     O 6269   5.106   0.184   1.717  0.0089 -1.0376 -1.3627
   47MOL0     C 6270   5.142   0.057   1.771 -0.4461  0.3449 -0.5095
   47MOL0     C 6271   5.179   0.070   1.916 -0.2544 -0.1933 -0.7707
   47MOL0     C 6272   5.236  -0.051   1.991 -1.2079 -1.4719 -0.1569
   47MOL0     C 6273   5.175  -0.180   1.964 -0.1666  0.5609  0.7411
   47MOL0     C 6274   5.028  -0.170   1.993  0.6941  0.0750  0.1757
   47MOL0     C 6275   4.909  -0.157   2.022  0.4669  0.7686 -0.0287
   47MOL0     C 6276   4.878   0.173   1.801 -0.1181 -0.5845  0.0580
   47MOL0     C 6277   4.769   0.243   1.837  0.1392 -0.7838  0.1139
   47MOL0     H 6278   4.443   0.606   1.665 -1.0362  2.6149 -1.2354
   47MOL0     H 6279   4.218   0.727   1.705  0.0381 -0.3237  0.2994
   47MOL0     H 6280   4.116   0.813   2.147 -1.4067  0.9533  1.2426
   47MOL0     H 6281   4.162   0.950   2.052 -2.0261  0.8276  0.6137
   47MOL0     H 6282   3.912   0.978   2.113 -0.0227  0.4636 -0.4879
   47MOL0     H 6283   3.936   0.936   1.935 -0.5825 -3.8100 -1.8354
   47MOL0     H 6284   3.861   0.704   1.990 -0.0570 -0.3332  0.9133
   47MOL0     H 6285   3.859   0.744   2.168  2.1855 -0.3344 -0.7308
   47MOL0     H 6286   3.657   0.895   2.121 -1.2750  0.1234 -0.9422
   47MOL0     H 6287   3.697   0.906   1.959 -2.0326 -0.0922  0.2733
   47MOL0     H 6288   3.636   0.645   1.955 -0.7858 -0.8861  1.5342
   47MOL0     H 6289   3.568   0.678   2.122 -0.9740  0.4237 -0.4695
   47MOL0     H 6290   3.476   0.849   1.895  1.0159  0.6326  1.0412
   47MOL0     H 6291   3.409   0.683   1.907 -0.8384  3.1125 -3.5508
   47MOL0     H 6292   3.363   0.761   2.161 -0.9866 -1.0804 -0.0549
   47MOL0     H 6293   3.387   0.919   2.099 -1.7639  0.2535 -0.1362
   47MOL0     H 6294   3.200   0.721   1.959 -0.7817  0.7074  0.3755
   47MOL0     H 6295   3.217   0.881   1.909 -0.7378  0.3298 -0.2809
   47MOL0     H 6296   2.996   1.007   2.025  0.8795  1.9528  1.3529
   47MOL0     H 6297   2.848   1.050   2.332  0.0165  2.5153 -1.6949
   47MOL0     H 6298   2.797   1.049   2.166 -3.0835 -1.6169  0.4036
   47MOL0     H 6299   2.642   0.949   2.337  2.2801  2.6707  1.2234
   47MOL0     H 6300   2.743   0.800   2.307 -1.1727  1.1106  1.3825
   47MOL0     H 6301   2.691   0.781   2.078  0.7116 -0.7287  0.5828
   47MOL0     H 6302   2.654   0.955   2.066  3.0940 -1.8288 -2.6999
   47MOL0     H 6303   2.429   0.906   2.142 -0.7979 -0.1738  0.5045
   47MOL0     H 6304   2.487   0.767   2.230 -0.0764  1.2032  0.1025
   47MOL0     H 6305   2.476   0.480   1.952 -0.0185 -1.4305 -1.1954
   47MOL0     H 6306   2.266   0.233   1.905  0.3833 -0.4555  0.6485
   47MOL0     H 6307   2.434   0.275   1.917 -0.1715 -2.6891  0.0327
   47MOL0     H 6308   2.352   0.199   2.055  0.9156 -2.7187 -1.8623
   47MOL0     H 6309   1.804   0.386   2.398  0.9491 -0.5532 -0.6050
   47MOL0     H 6310   1.574   0.310   2.385 -0.0372  0.5010 -1.1476
   47MOL0     H 6311   1.439   0.076   2.027  2.1279 -1.2915 -0.2419
   47MOL0     H 6312   1.451  -0.037   2.152  0.9046  1.3010 -2.0310
   47MOL0     H 6313   1.216  -0.012   2.092 -0.3369  2.4818 -2.3518
   47MOL0     H 6314   1.232   0.079   2.255 -1.3856 -0.4047  0.5408
   47MOL0     H 6315   1.257   0.215   1.977 -3.2267  0.6308 -1.8172
   47MOL0     H 6316   1.208   0.280   2.142 -0.5318 -0.7759  0.6579
   47MOL0     H 6317   1.048   0.072   1.993 -0.7792 -0.8427  0.6835
   47MOL0     H 6318   1.003   0.158   2.124  0.2558 -1.2600 -1.0475
   47MOL0     H 6319   1.067   0.297   1.861  2.2857 -2.6028  0.1872
   47MOL0     H 6320   1.031   0.382   2.019  0.3271  0.2165 -0.0655
   47MOL0     H 6321   0.851   0.193   1.860 -0.5910  0.2161  0.0168
   47MOL0     H 6322   0.811   0.266   2.017 -2.3636  0.5751 -0.9322
   47MOL0     H 6323   0.848   0.405   1.744 -0.8582 -1.7086 -0.2354
   47MOL0     H 6324   0.789   0.482   1.897 -1.7331  1.0974 -2.1080
   47MOL0     H 6325   0.624   0.474   1.756 -1.8903 -0.0888 -0.1941
   47MOL0     H 6326   0.592   0.352   1.884  0.3382  2.5503  1.6502
   47MOL0     H 6327   1.635   0.124   2.009 -2.7079 -1.4240  2.6765
   47MOL0     H 6328   1.866   0.220   2.003 -0.0311  0.9752 -0.7028
   47MOL0     H 6329   2.085   0.563   2.234  1.2633 -4.0541  1.7711
   47MOL0     H 6330   2.235   0.739   2.194  0.2014 -0.8367  1.0155
   47MOL0     H 6331   4.320   0.756   2.123 -1.7050 -4.3751  1.6567
   47MOL0     H 6332   4.552   0.645   2.060  0.2318 -1.1278 -0.4031
   47MOL0     H 6333   4.851   0.562   1.776 -0.7405  0.0525 -0.0895
   47MOL0     H 6334   5.073   0.438   1.719  1.7830 -2.2965  2.3220
   47MOL0     H 6335   5.062  -0.017   1.756 -0.8089  1.0247 -2.1847
   47MOL0     H 6336   5.221   0.019   1.705 -0.7818 -0.0963 -0.6649
   47MOL0     H 6337   5.089   0.100   1.972  1.4412  0.4343  1.8037
   47MOL0     H 6338   5.256   0.145   1.933 -0.2394 -0.5670  1.0859
   47MOL0     H 6339   5.223  -0.033   2.098  0.1059 -1.2361 -0.0122
   47MOL0     H 6340   5.345  -0.053   1.981 -0.9155  0.6742  1.6584
   47MOL0     H 6341   5.232  -0.248   2.028  2.3952  0.5515 -1.3512
   47MOL0     H 6342   5.183  -0.212   1.859 -1.2845 -1.8183  1.2987
   47MOL0     H 6343   4.803  -0.161   2.036  0.3812 -1.3141 -0.9522
   47MOL0     H 6344   4.883   0.068   1.826 -2.3978 -0.1100  2.9931
   47MOL0     H 6345   4.687   0.185   1.879  2.2572 -3.6184  0.6374
   48MOL0     O 6346   9.579   4.639   8.506 -0.1223 -0.1988 -0.2837
   48MOL0     C 6347   9.639   4.533   8.503 -0.2891  0.2048  0.0684
   48MOL0     O 6348   9.576   4.408   8.520 -0.7053 -0.3795 -0.3469
   48MOL0     C 6349   9.440   4.411   8.553  0.1284  0.1176 -0.8845
   48MOL0     C 6350   9.354   4.360   8.453 -0.3150 -0.7463  0.9227
   48MOL0     C 6351   9.216   4.360   8.477  0.0290  0.5973 -0.7411
   48MOL0     C 6352   9.156   4.412   8.599 -0.0148  0.2975  0.0746
   48MOL0     O 6353   9.017   4.404   8.610 -0.5442  0.1787 -0.1916
   48MOL0     C 6354   8.965   4.439   8.734 -0.1923 -0.3034  0.0171
   48MOL0     C 6355   8.815   4.431   8.747  0.2673 -0.6695  0.0657
   48MOL0     C 6356   8.761   4.295   8.748  0.2207 -0.0934 -0.8710
   48MOL0     C 6357   8.616   4.288   8.803  0.5094  0.7886 -0.0780
   48MOL0     C 6358   8.547   4.150   8.789  0.1048 -0.1148  0.5159
   48MOL0     C 6359   8.406   4.155   8.846  0.6562 -0.1701  0.0349
   48MOL0     C 6360   8.344   4.022   8.840 -0.2130  0.1207 -0.2472
   48MOL0     C 6361   8.223   4.010   8.938  0.2679  0.5336 -0.1679
   48MOL0     N 6362   8.102   4.089   8.907  0.1493 -0.8183 -0.2707
   48MOL0     C 6363   8.028   4.065   8.797 -0.3607  0.4083  0.1818
   48MOL0     C 6364   7.925   4.152   8.810 -0.2120  0.7331 -0.4998
   48MOL0     C 6365   7.811   4.142   8.710  0.6424 -0.5899  0.5683
   48MOL0     C 6366   7.676   4.118   8.768 -0.6872 -0.2007  0.3517
   48MOL0     C 6367   7.568   4.132   8.657 -0.1896 -0.2174  1.0903
   48MOL0     C 6368   7.437   4.116   8.718 -0.1351 -0.1847  0.8769
   48MOL0     O 6369   7.358   4.047   8.623  0.2526 -0.9626 -0.2349
   48MOL0     C 6370   7.221   4.076   8.647 -0.6464  0.3256  0.3634
   48MOL0     C 6371   7.159   4.037   8.768 -0.1503  0.1500 -0.5859
   48MOL0     C 6372   7.028   4.067   8.793  0.1319  0.2651  0.1262
   48MOL0     C 6373   6.995   4.053   8.939  0.3835 -0.5761 -0.3901
   48MOL0     C 6374   6.950   4.136   8.697 -0.1899 -0.0313  0.4463
   48MOL0     C 6375   6.805   4.161   8.716 -0.2669  0.1442  0.1843
   48MOL0     O 6376   6.751   4.258   8.650  0.0896  0.0222 -0.2752
   48MOL0     C 6377   6.626   4.301   8.686 -0.7049  0.1465  1.3557
   48MOL0     C 6378   6.536   4.333   8.588 -0.2152 -0.1791 -0.0271
   48MOL0     C 6379   6.411   4.396   8.619  0.1643 -1.0652  0.8081
   48MOL0     C 6380   6.375   4.404   8.755  0.5454 -0.6108 -0.0765
   48MOL0     O 6381   6.249   4.450   8.769  0.5809  0.6001 -1.1505
   48MOL0     C 6382   6.174   4.456   8.897 -0.7108 -0.2493 -0.3053
   48MOL0     C 6383   6.117   4.315   8.930 -0.3072  0.5348 -0.5804
   48MOL0     C 6384   6.030   4.256   8.821  0.5206 -0.1931  0.6571
   48MOL0     C 6385   6.096   4.182   8.701  0.0637  0.0667 -0.1718
   48MOL0     C 6386   5.999   4.120   8.599 -0.2916  0.0257 -1.7129
   48MOL0     C 6387   6.061   4.105   8.464  0.2448 -0.0548 -0.8275
   48MOL0     C 6388   6.041   4.228   8.389 -0.3134 -0.9402 -0.4451
   48MOL0     C 6389   6.110   4.219   8.256 -0.2750 -0.1544 -0.0586
   48MOL0    Cl 6390   6.286   4.223   8.287 -0.0897 -0.0164 -0.0328
   48MOL0     C 6391   6.464   4.374   8.856  1.0729  0.3373  0.2517
   48MOL0     C 6392   6.588   4.328   8.821 -0.3296 -0.4429 -0.3289
   48MOL0     O 6393   6.741   4.088   8.789 -0.4211 -0.7034 -0.5670
   48MOL0     C 6394   7.009   4.180   8.581 -1.0395 -1.0648  0.6640
   48MOL0     C 6395   7.145   4.146   8.554  0.1322 -0.1020  0.4557
   48MOL0     N 6396   7.940   4.233   8.914  0.5007  0.0590 -0.3849
   48MOL0     N 6397   8.061   4.208   8.965  0.0122 -0.3934  0.4436
   48MOL0     C 6398   9.250   4.456   8.695 -0.3410  0.4314  0.2518
   48MOL0     C 6399   9.387   4.455   8.679 -0.5938  0.6871 -0.1371
   48MOL0     C 6400   9.780   4.527   8.493  0.0250  0.8397  0.1984
   48MOL0     C 6401   9.857   4.414   8.518 -0.6605  0.1988  0.1068
   48MOL0     C 6402   9.995   4.415   8.538  0.3509 -0.0196  0.5386
   48MOL0     C 6403  10.066   4.528   8.507 -0.1380  0.2780 -0.1526
   48MOL0     O 6404  10.209   4.518   8.497  0.4542 -0.4322  0.3744
   48MOL0     C 6405  10.259   4.589   8.381  0.7723 -0.3064  0.7038
   48MOL0     C 6406  10.391   4.521   8.326  0.4650  0.2434 -0.6902
   48MOL0     C 6407  10.439   4.572   8.196  0.4321 -0.5283  1.0158
   48MOL0     C 6408  10.520   4.707   8.204  0.2572 -0.3652  0.4677
   48MOL0     C 6409  10.438   4.829   8.218  0.6250 -0.8859 -0.1112
   48MOL0     C 6410  10.372   4.931   8.235  0.2610 -0.2061  0.8954
   48MOL0     C 6411   9.993   4.647   8.465  0.1058 -0.1581  0.1415
   48MOL0     C 6412   9.848   4.651   8.463 -0.3418 -0.0441  0.5242
   48MOL0     H 6413   9.398   4.336   8.357 -0.0252  0.4830  0.7259
   48MOL0     H 6414   9.151   4.341   8.392 -0.8699 -0.3521  0.1144
   48MOL0     H 6415   9.005   4.386   8.822 -0.0092 -1.5663 -0.8028
   48MOL0     H 6416   8.986   4.546   8.743 -2.0005 -0.0819  2.7170
   48MOL0     H 6417   8.795   4.465   8.849  1.2725 -0.8212  0.3257
   48MOL0     H 6418   8.765   4.496   8.676 -0.1734 -2.2569 -1.1420
   48MOL0     H 6419   8.770   4.256   8.646 -0.4830 -0.5872 -0.7548
   48MOL0     H 6420   8.814   4.230   8.818 -1.0724  0.3201  0.5376
   48MOL0     H 6421   8.609   4.321   8.907 -1.8692  1.3340 -0.3591
   48MOL0     H 6422   8.565   4.361   8.740 -1.2056  0.1586  0.5167
   48MOL0     H 6423   8.536   4.131   8.682  1.8880  2.4358 -0.2151
   48MOL0     H 6424   8.601   4.066   8.833 -0.3831 -1.2573 -0.9989
   48MOL0     H 6425   8.413   4.186   8.951  0.8039  1.0416 -0.3237
   48MOL0     H 6426   8.342   4.233   8.804 -1.7487 -0.8300  2.1803
   48MOL0     H 6427   8.309   4.000   8.739  0.0742 -0.4963 -0.2136
   48MOL0     H 6428   8.417   3.943   8.862  0.9740  1.1730 -0.2450
   48MOL0     H 6429   8.240   4.027   9.045 -0.1122 -0.0124 -0.0159
   48MOL0     H 6430   8.199   3.903   8.936  0.8353  0.4082 -0.8456
   48MOL0     H 6431   8.051   3.994   8.718 -0.6356 -0.6832  1.0590
   48MOL0     H 6432   7.819   4.229   8.644  1.1703 -1.5051 -0.6077
   48MOL0     H 6433   7.830   4.061   8.639 -0.4201 -0.5545  0.2328
   48MOL0     H 6434   7.661   4.199   8.840 -2.0349  0.7934 -0.9793
   48MOL0     H 6435   7.671   4.022   8.821  0.1163 -0.7288 -0.5031
   48MOL0     H 6436   7.586   4.054   8.583  2.3566  2.3740 -1.3091
   48MOL0     H 6437   7.580   4.230   8.609  0.8003 -0.7963  0.1136
   48MOL0     H 6438   7.398   4.217   8.736  1.4492  1.3387 -3.0931
   48MOL0     H 6439   7.438   4.067   8.816  1.7198 -0.7114  0.6320
   48MOL0     H 6440   7.222   4.006   8.851 -1.5694  0.7279  0.7568
   48MOL0     H 6441   7.061   4.108   9.006  0.4902  0.2023 -1.1121
   48MOL0     H 6442   6.901   4.106   8.957  0.1264 -0.2958 -2.3510
   48MOL0     H 6443   6.975   3.949   8.966  1.5769 -0.5723  0.5582
   48MOL0     H 6444   6.580   4.330   8.489 -0.1425 -1.8382  0.0298
   48MOL0     H 6445   6.345   4.423   8.538  2.4542  0.0302 -0.7943
   48MOL0     H 6446   6.237   4.477   8.985  0.2188  0.2623 -1.0751
   48MOL0     H 6447   6.088   4.521   8.883  0.0497  1.5895  2.6236
   48MOL0     H 6448   6.192   4.243   8.965 -1.7050 -1.6863 -1.9235
   48MOL0     H 6449   6.047   4.334   9.012 -0.2646 -1.7147  0.0296
   48MOL0     H 6450   5.977   4.338   8.772 -0.6550 -1.0326  0.4818
   48MOL0     H 6451   5.963   4.185   8.871  0.4366  1.4803  3.1290
   48MOL0     H 6452   6.159   4.253   8.646  1.4582 -0.3101  0.8655
   48MOL0     H 6453   6.156   4.102   8.746 -2.6517 -1.9797  0.0617
   48MOL0     H 6454   5.911   4.184   8.592  0.9768  1.7254 -2.8845
   48MOL0     H 6455   5.974   4.021   8.638  0.1395  0.3037 -0.6946
   48MOL0     H 6456   6.168   4.090   8.480  0.7401  2.1497 -1.8177
   48MOL0     H 6457   6.011   4.022   8.412 -1.7621  1.6339 -1.7488
   48MOL0     H 6458   6.069   4.317   8.445 -1.0432 -0.6989 -0.4548
   48MOL0     H 6459   5.935   4.241   8.364 -0.1018 -1.5477 -1.7771
   48MOL0     H 6460   6.076   4.304   8.196  0.3530 -0.2791 -0.6018
   48MOL0     H 6461   6.081   4.124   8.211  1.6094 -0.8095  0.0173
   48MOL0     H 6462   6.433   4.395   8.958  0.3974  0.5681  0.0081
   48MOL0     H 6463   6.649   4.303   8.907 -0.8992  2.4142  1.0469
   48MOL0     H 6464   6.953   4.236   8.507  1.1094 -0.2260 -0.4040
   48MOL0     H 6465   7.197   4.169   8.462  2.4863 -1.7949  1.2536
   48MOL0     H 6466   9.218   4.504   8.787 -1.7117  2.7718 -1.3221
   48MOL0     H 6467   9.448   4.488   8.763  0.5357  2.8111 -1.6931
   48MOL0     H 6468   9.804   4.324   8.548 -0.0563  0.4250  1.9870
   48MOL0     H 6469  10.048   4.322   8.558 -1.7799 -1.4462 -0.0572
   48MOL0     H 6470  10.182   4.586   8.303  1.0984  0.0934  0.3600
   48MOL0     H 6471  10.275   4.695   8.404 -1.4813  0.7418 -2.0250
   48MOL0     H 6472  10.369   4.414   8.313  3.2680 -0.7373  1.4685
   48MOL0     H 6473  10.472   4.521   8.400 -0.3056 -1.5576  0.2255
   48MOL0     H 6474  10.370   4.573   8.110  0.3701 -0.8973  1.0561
   48MOL0     H 6475  10.511   4.502   8.153 -0.7410 -0.6023 -0.9520
   48MOL0     H 6476  10.573   4.707   8.109  1.3703  0.0774  1.0663
   48MOL0     H 6477  10.600   4.705   8.279 -2.2990 -1.9582  3.4367
   48MOL0     H 6478  10.314   5.021   8.239  1.2706  0.7763 -2.7823
   48MOL0     H 6479  10.056   4.731   8.442  1.0021 -0.1880  2.2172
   48MOL0     H 6480   9.805   4.747   8.438  3.7448  1.3045 -2.2602
   49MOL0     O 6481   8.921   2.783   2.134 -0.1574 -0.2145 -0.0474
   49MOL0     C 6482   8.988   2.867   2.066  0.7495  0.8392  0.4991
   49MOL0     O 6483   8.945   2.973   2.002  0.5090 -0.1419 -0.4258
   49MOL0     C 6484   8.810   2.992   1.991 -0.6405 -0.7225  0.1235
   49MOL0     C 6485   8.760   3.045   1.865  0.9951  0.4666 -0.1308
   49MOL0     C 6486   8.623   3.065   1.843  0.3829  0.3826  0.2923
   49MOL0     C 6487   8.531   3.041   1.948 -0.6463 -0.1713  0.4638
   49MOL0     O 6488   8.409   3.094   1.917  0.3303  0.9679 -0.0315
   49MOL0     C 6489   8.302   3.096   2.013 -1.3760 -0.8424 -0.2267
   49MOL0     C 6490   8.170   3.130   1.947 -0.1354 -0.1167 -0.1838
   49MOL0     C 6491   8.059   3.111   2.051 -0.2553 -0.6252  0.2345
   49MOL0     C 6492   7.916   3.119   1.995  0.5688  0.4669 -0.7281
   49MOL0     C 6493   7.817   3.049   2.094  0.2306  0.6133  0.2283
   49MOL0     C 6494   7.677   3.060   2.040 -0.1559 -0.5596  0.7682
   49MOL0     C 6495   7.646   2.968   1.928  0.2809 -0.2710  0.1330
   49MOL0     C 6496   7.583   2.826   1.960  0.6005 -0.3136 -0.3048
   49MOL0     N 6497   7.453   2.838   2.038 -0.2441  0.2938  0.0326
   49MOL0     C 6498   7.426   2.751   2.138 -0.3589  0.1971  0.0689
   49MOL0     C 6499   7.300   2.784   2.172 -0.2979  1.0522  0.3993
   49MOL0     C 6500   7.243   2.749   2.304  0.0792 -0.2298 -0.4267
   49MOL0     C 6501   7.119   2.667   2.273 -0.1717  0.2858 -0.2139
   49MOL0     C 6502   7.021   2.658   2.392  0.5493 -0.6004  0.7904
   49MOL0     C 6503   6.972   2.790   2.454 -0.3929 -0.4244 -0.2074
   49MOL0     O 6504   6.838   2.782   2.519  0.2920 -0.5523 -0.2890
   49MOL0     C 6505   6.714   2.808   2.468 -0.6310  0.5322  0.1830
   49MOL0     C 6506   6.702   2.835   2.332 -0.7858  0.7205  0.5803
   49MOL0     C 6507   6.577   2.853   2.278  0.4147 -0.0538 -0.3390
   49MOL0     C 6508   6.569   2.882   2.125  0.2863  0.6943 -0.0442
   49MOL0     C 6509   6.460   2.839   2.364  0.4939 -0.6856  0.3036
   49MOL0     C 6510   6.317   2.839   2.323  0.6313 -0.1928  0.4177
   49MOL0     O 6511   6.214   2.847   2.405 -0.0023  0.9364 -0.2315
   49MOL0     C 6512   6.085   2.840   2.370 -0.0651  0.2413  0.0706
   49MOL0     C 6513   6.029   2.765   2.266  0.1785  0.8988 -0.5571
   49MOL0     C 6514   5.900   2.784   2.227 -0.4924  0.6537 -0.1150
   49MOL0     C 6515   5.819   2.881   2.285 -0.2377 -0.0273  0.0861
   49MOL0     O 6516   5.683   2.897   2.258 -0.2397  0.3665  0.1656
   49MOL0     C 6517   5.601   2.778   2.273 -0.2620  0.3305 -0.0946
   49MOL0     C 6518   5.593   2.713   2.415 -0.2014  0.0388  0.1575
   49MOL0     C 6519   5.512   2.790   2.514 -0.5273 -0.2526 -0.8341
   49MOL0     C 6520   5.467   2.701   2.628  0.4924  0.5378  0.3942
   49MOL0     C 6521   5.373   2.779   2.726  1.3345 -0.1757 -0.4848
   49MOL0     C 6522   5.258   2.843   2.646 -0.1205 -0.3501 -0.3603
   49MOL0     C 6523   5.159   2.905   2.757  0.2313  0.2834 -0.4466
   49MOL0     C 6524   5.034   2.979   2.690 -0.1481  0.0500  0.1343
   49MOL0    Cl 6525   4.951   2.856   2.589  0.1348  0.1186  0.1193
   49MOL0     C 6526   5.877   2.965   2.377  0.1540  0.3575  0.4650
   49MOL0     C 6527   6.006   2.939   2.423  0.3403  1.0659  0.2898
   49MOL0     O 6528   6.301   2.825   2.199  0.1134  0.8197  0.1274
   49MOL0     C 6529   6.479   2.828   2.506  0.2202  0.4881  0.7562
   49MOL0     C 6530   6.610   2.818   2.553  0.6346 -1.1753 -0.0171
   49MOL0     N 6531   7.252   2.888   2.091 -1.0492  0.2790  0.5491
   49MOL0     N 6532   7.346   2.916   2.012  0.3616  0.1391  0.3012
   49MOL0     C 6533   8.576   2.995   2.069 -0.0908 -0.1695  0.7737
   49MOL0     C 6534   8.708   2.969   2.093  0.2651 -0.0707  0.1087
   49MOL0     C 6535   9.126   2.829   2.042 -0.0812  0.4940  0.1324
   49MOL0     C 6536   9.175   2.711   2.103 -0.1729 -0.4283  0.6862
   49MOL0     C 6537   9.303   2.661   2.083 -0.9444 -0.1098  0.6198
   49MOL0     C 6538   9.388   2.732   1.989 -0.5067  1.1384  0.1310
   49MOL0     O 6539   9.518   2.699   1.969  0.9873  0.3742  0.2442
   49MOL0     C 6540   9.553   2.566   1.920  0.5725 -0.4035  0.4961
   49MOL0     C 6541   9.545   2.578   1.768  0.0043 -0.4670  0.2522
   49MOL0     C 6542   9.667   2.639   1.705 -0.1907 -0.3757  0.4962
   49MOL0     C 6543   9.653   2.623   1.556  0.1683  0.1244  0.7453
   49MOL0     C 6544   9.711   2.739   1.476  1.2223 -0.6701 -0.4144
   49MOL0     C 6545   9.754   2.834   1.405  1.2264 -0.0163 -0.3427
   49MOL0     C 6546   9.336   2.848   1.933  0.0080  0.4389 -0.1355
   49MOL0     C 6547   9.207   2.899   1.957 -0.4012 -0.0473 -1.1093
   49MOL0     H 6548   8.822   3.066   1.779  1.6104  0.3811  0.2824
   49MOL0     H 6549   8.585   3.104   1.749 -0.6471  0.8289  0.8728
   49MOL0     H 6550   8.283   2.997   2.056 -0.8015 -0.0402  1.9591
   49MOL0     H 6551   8.321   3.168   2.093 -3.8106 -1.3975  0.9341
   49MOL0     H 6552   8.170   3.233   1.910  0.5199  0.0399  0.2274
   49MOL0     H 6553   8.158   3.061   1.863 -0.0067 -1.6100  0.9886
   49MOL0     H 6554   8.068   3.008   2.088 -0.8263  0.1167  2.6554
   49MOL0     H 6555   8.077   3.174   2.139  1.9409 -1.8978  0.7727
   49MOL0     H 6556   7.896   3.223   1.964 -0.8900 -0.1117 -1.8406
   49MOL0     H 6557   7.912   3.071   1.897  0.8650  0.3192 -0.6677
   49MOL0     H 6558   7.843   2.945   2.117 -1.9493 -0.0966 -0.2622
   49MOL0     H 6559   7.815   3.104   2.189  0.7679 -1.1415  1.3111
   49MOL0     H 6560   7.596   3.036   2.110 -1.2428 -1.9160 -0.8803
   49MOL0     H 6561   7.657   3.164   2.015  0.4704 -0.7815 -0.7396
   49MOL0     H 6562   7.575   3.023   1.866 -0.4240  0.7482  1.7710
   49MOL0     H 6563   7.731   2.947   1.862  0.1204  0.2349 -0.2418
   49MOL0     H 6564   7.650   2.777   2.032  1.1051  1.1959  0.2905
   49MOL0     H 6565   7.546   2.771   1.873 -0.6711  0.8625 -0.5465
   49MOL0     H 6566   7.484   2.679   2.194 -0.9853 -1.1257 -0.9277
   49MOL0     H 6567   7.316   2.690   2.360 -0.1618 -3.6367 -3.3483
   49MOL0     H 6568   7.213   2.842   2.355 -3.6732 -2.1558  1.3361
   49MOL0     H 6569   7.149   2.567   2.239  5.6721  1.9958 -1.1055
   49MOL0     H 6570   7.062   2.724   2.199 -2.7794  0.1040  1.4894
   49MOL0     H 6571   7.060   2.590   2.469  1.8984 -1.3081 -0.4648
   49MOL0     H 6572   6.931   2.613   2.348  0.0947  0.3965  0.6901
   49MOL0     H 6573   6.967   2.867   2.376  0.8857 -0.2998 -0.1937
   49MOL0     H 6574   7.041   2.829   2.529 -2.7077  1.5291  1.0360
   49MOL0     H 6575   6.784   2.846   2.263 -2.8975 -0.8265 -2.4309
   49MOL0     H 6576   6.496   2.961   2.103  1.0292  1.3859 -0.0740
   49MOL0     H 6577   6.665   2.902   2.077  1.1992  1.4492  1.9852
   49MOL0     H 6578   6.524   2.796   2.075  0.6748  0.4066  0.1019
   49MOL0     H 6579   6.084   2.701   2.198 -1.8944  0.8747 -2.2987
   49MOL0     H 6580   5.862   2.721   2.148 -2.2449  2.1051 -0.4712
   49MOL0     H 6581   5.495   2.803   2.261 -0.5697 -1.0602 -0.4595
   49MOL0     H 6582   5.628   2.703   2.199 -0.8938 -0.4394  0.4357
   49MOL0     H 6583   5.555   2.611   2.405 -2.2014  0.8057 -0.4892
   49MOL0     H 6584   5.691   2.711   2.463 -0.3609  0.5788  0.5122
   49MOL0     H 6585   5.427   2.837   2.464 -1.5217 -0.9221  0.1851
   49MOL0     H 6586   5.571   2.871   2.557  0.9458 -2.0990  0.8188
   49MOL0     H 6587   5.408   2.613   2.598  0.9752 -0.1948  1.5497
   49MOL0     H 6588   5.553   2.660   2.680  0.5960 -2.4934 -1.9085
   49MOL0     H 6589   5.416   2.857   2.788  0.2024  2.7657 -3.1412
   49MOL0     H 6590   5.328   2.713   2.801  1.3624  0.3166 -0.0330
   49MOL0     H 6591   5.298   2.931   2.595 -0.6587  0.4226  0.5177
   49MOL0     H 6592   5.206   2.776   2.577  1.0993 -0.2858 -1.3731
   49MOL0     H 6593   5.215   2.982   2.810 -2.2896 -0.0103  2.9251
   49MOL0     H 6594   5.124   2.831   2.829  1.5746  1.9552  2.0305
   49MOL0     H 6595   5.073   3.055   2.621  3.5617 -2.2252 -0.5487
   49MOL0     H 6596   4.982   3.027   2.773 -0.0988  3.5194 -1.6382
   49MOL0     H 6597   5.821   3.049   2.416 -1.7306 -0.9617  0.7314
   49MOL0     H 6598   6.054   2.997   2.501 -0.1189 -0.4051  1.7104
   49MOL0     H 6599   6.395   2.822   2.574 -1.5756  0.2034 -1.4011
   49MOL0     H 6600   6.629   2.825   2.659 -0.6584 -0.7394  0.1988
   49MOL0     H 6601   8.501   2.975   2.145  0.5871  0.9980  1.7727
   49MOL0     H 6602   8.731   2.942   2.195  1.8971  2.0794  0.3885
   49MOL0     H 6603   9.124   2.648   2.175  2.1011 -1.5487  1.3769
   49MOL0     H 6604   9.344   2.581   2.144 -1.0491  1.4314  2.8247
   49MOL0     H 6605   9.645   2.519   1.956 -0.1097 -1.0356  1.5048
   49MOL0     H 6606   9.476   2.496   1.954  1.8170 -1.6713  0.7950
   49MOL0     H 6607   9.455   2.628   1.733  0.8395 -0.0841 -1.4180
   49MOL0     H 6608   9.536   2.476   1.729  0.3961 -0.6580  0.6468
   49MOL0     H 6609   9.770   2.611   1.729 -0.0193  1.1272  1.6750
   49MOL0     H 6610   9.651   2.744   1.731  0.0429  0.3085 -1.9214
   49MOL0     H 6611   9.548   2.611   1.529 -0.1159  3.5466 -0.2010
   49MOL0     H 6612   9.704   2.531   1.526 -0.3965  0.4878 -1.5195
   49MOL0     H 6613   9.798   2.908   1.341  0.7247 -0.2886 -1.0199
   49MOL0     H 6614   9.409   2.897   1.869 -0.4501  0.8439 -0.3579
   49MOL0     H 6615   9.178   2.995   1.917  3.4213  1.8997  0.2073
   50MOL0     O 6616   9.274   9.682   3.062  0.7910  0.4009  0.1088
   50MOL0     C 6617   9.269   9.566   3.093 -0.6743 -0.7205 -0.8892
   50MOL0     O 6618   9.210   9.512   3.203 -0.2636 -0.0987  0.2608
   50MOL0     C 6619   9.170   9.585   3.318  0.4366  0.7704 -0.1023
   50MOL0     C 6620   9.179   9.726   3.340  0.0744  0.9997 -0.2570
   50MOL0     C 6621   9.145   9.787   3.455 -0.0450  0.0157 -1.0815
   50MOL0     C 6622   9.093   9.703   3.561  0.3691 -0.7108  0.3813
   50MOL0     O 6623   9.057   9.757   3.679  0.2289  0.3307  0.3702
   50MOL0     C 6624   9.022   9.900   3.686  0.1228  0.4192  0.2128
   50MOL0     C 6625   9.038   9.941   3.838 -0.5734  0.3015 -0.3430
   50MOL0     C 6626   9.015  10.089   3.866 -0.3089  0.0207 -0.3422
   50MOL0     C 6627   8.866  10.122   3.839  0.4996  0.5877  0.6926
   50MOL0     C 6628   8.830  10.264   3.892  0.3896  0.0168  0.3670
   50MOL0     C 6629   8.904  10.379   3.819  0.3464 -0.3037  0.0338
   50MOL0     C 6630   8.811  10.495   3.796 -0.3227 -0.2574  0.7751
   50MOL0     C 6631   8.758  10.568   3.921 -0.3648  0.2544  0.0938
   50MOL0     N 6632   8.721  10.708   3.891  0.1642  0.4357 -0.7482
   50MOL0     C 6633   8.799  10.819   3.876 -0.4785  0.9175 -0.3626
   50MOL0     C 6634   8.712  10.917   3.869 -0.0080 -0.2634 -0.5128
   50MOL0     C 6635   8.737  11.061   3.852  0.0148 -0.8966 -1.0561
   50MOL0     C 6636   8.758  11.131   3.983  0.1648 -0.2506  0.5779
   50MOL0     C 6637   8.757  11.288   3.960 -0.6664  1.1780  0.1546
   50MOL0     C 6638   8.773  11.354   4.094  0.1107 -0.7036 -0.7676
   50MOL0     O 6639   8.651  11.349   4.157  0.1261  0.5891 -0.2305
   50MOL0     C 6640   8.630  11.439   4.261  0.2631  0.3903  0.0477
   50MOL0     C 6641   8.725  11.496   4.347  0.5750 -0.1195  0.1009
   50MOL0     C 6642   8.692  11.593   4.445 -0.1807  0.2312 -0.3319
   50MOL0     C 6643   8.802  11.619   4.545  0.5656  0.1230 -0.6130
   50MOL0     C 6644   8.562  11.636   4.454 -0.4416  0.7685  0.3752
   50MOL0     C 6645   8.511  11.733   4.553  0.9489 -0.8262 -0.4911
   50MOL0     O 6646   8.374  11.731   4.573 -0.2060 -0.7945 -0.3886
   50MOL0     C 6647   8.305  11.815   4.661  1.1608 -0.2477 -0.1727
   50MOL0     C 6648   8.355  11.879   4.775  0.0598  0.1886 -0.8663
   50MOL0     C 6649   8.281  11.966   4.851 -0.0249 -0.0577 -0.8603
   50MOL0     C 6650   8.147  11.996   4.810 -0.1754  1.0788 -0.1508
   50MOL0     O 6651   8.059  12.081   4.868  0.3938 -0.1467 -0.2411
   50MOL0     C 6652   8.031  12.069   5.013  0.3047 -0.2620  0.3363
   50MOL0     C 6653   7.897  12.141   5.025 -0.3983  0.6200 -0.1991
   50MOL0     C 6654   7.781  12.046   4.990 -0.0260  0.0473  0.1230
   50MOL0     C 6655   7.655  12.111   5.030  0.6024  0.1929  0.0468
   50MOL0     C 6656   7.542  12.011   5.022  0.1349  0.4769 -0.0359
   50MOL0     C 6657   7.400  12.057   5.070  0.5620 -0.6531 -0.6727
   50MOL0     C 6658   7.283  11.965   5.055  0.8999  0.5429  0.9257
   50MOL0     C 6659   7.150  12.016   5.112  0.3786 -0.2759 -0.4692
   50MOL0    Cl 6660   7.033  11.883   5.127 -0.1956  0.4128  0.3664
   50MOL0     C 6661   8.096  11.923   4.711 -0.0325 -1.0350  1.6745
   50MOL0     C 6662   8.173  11.835   4.637 -0.2752 -0.5834  0.8966
   50MOL0     O 6663   8.590  11.810   4.614  0.9632 -0.1751 -0.7517
   50MOL0     C 6664   8.465  11.588   4.362 -0.4260  0.4779  0.2323
   50MOL0     C 6665   8.493  11.482   4.271 -0.4948 -1.0964 -0.1306
   50MOL0     N 6666   8.580  10.875   3.891 -0.4849  0.5151  0.5070
   50MOL0     N 6667   8.592  10.749   3.909 -0.3144  0.1130 -0.2953
   50MOL0     C 6668   9.085   9.567   3.543  0.2807 -0.2371  0.0590
   50MOL0     C 6669   9.114   9.509   3.420  0.4220  0.8134  0.1477
   50MOL0     C 6670   9.308   9.468   2.992 -0.9726 -0.1549 -0.8272
   50MOL0     C 6671   9.293   9.328   3.015  0.0164 -0.2253 -0.2759
   50MOL0     C 6672   9.330   9.228   2.925 -0.3212 -1.3159 -0.2369
   50MOL0     C 6673   9.392   9.267   2.808 -0.3981  0.9302 -0.2033
   50MOL0     O 6674   9.432   9.164   2.725 -0.1166  0.0489  0.1179
   50MOL0     C 6675   9.514   9.192   2.611 -0.6870 -0.3969 -0.1979
   50MOL0     C 6676   9.664   9.181   2.656 -0.4969 -0.5766  0.4533
   50MOL0     C 6677   9.756   9.193   2.543 -0.1922  0.3021 -0.4013
   50MOL0     C 6678   9.767   9.069   2.459 -0.4029 -0.1861  1.2316
   50MOL0     C 6679   9.910   9.045   2.413 -0.9622 -0.5212  0.2121
   50MOL0     C 6680  10.009   8.997   2.358  0.0274  0.6189 -0.5537
   50MOL0     C 6681   9.405   9.405   2.785 -0.6638 -0.4196 -0.2167
   50MOL0     C 6682   9.363   9.508   2.870 -0.3210 -0.2440 -0.5324
   50MOL0     H 6683   9.216   9.794   3.263 -0.1961  2.0809  0.5396
   50MOL0     H 6684   9.163   9.894   3.459  1.2701 -0.0866 -3.0048
   50MOL0     H 6685   9.096   9.967   3.642 -0.3273  2.8086  2.7931
   50MOL0     H 6686   8.924   9.912   3.637 -1.1363 -2.0431  1.9317
   50MOL0     H 6687   8.985   9.878   3.909 -2.0878  3.4837  1.5936
   50MOL0     H 6688   9.143   9.922   3.861 -0.9330 -1.2442  0.0898
   50MOL0     H 6689   9.036  10.097   3.973  1.3530  1.0562 -0.7175
   50MOL0     H 6690   9.093  10.150   3.821  0.5652 -1.0372 -0.2909
   50MOL0     H 6691   8.850  10.112   3.731  1.1203 -1.7404  0.7648
   50MOL0     H 6692   8.804  10.047   3.888 -1.9827  3.3763  2.1491
   50MOL0     H 6693   8.722  10.274   3.882  0.1342 -2.7880 -0.7256
   50MOL0     H 6694   8.848  10.263   3.999  0.1658 -0.3020  0.4020
   50MOL0     H 6695   8.998  10.403   3.870  1.7857 -3.1585 -1.0074
   50MOL0     H 6696   8.948  10.353   3.721  2.0851 -0.0796  0.7130
   50MOL0     H 6697   8.871  10.574   3.748  1.3650 -0.8183  1.8858
   50MOL0     H 6698   8.725  10.464   3.736  0.1075  1.0651 -0.6036
   50MOL0     H 6699   8.828  10.556   4.004  0.5921 -3.2053 -1.0509
   50MOL0     H 6700   8.664  10.519   3.948  0.7690 -2.1772 -0.1380
   50MOL0     H 6701   8.906  10.822   3.857 -0.8983  0.9960 -3.2886
   50MOL0     H 6702   8.832  11.086   3.804 -0.9854  2.9273 -1.3586
   50MOL0     H 6703   8.665  11.106   3.784  1.1522  2.3899 -0.2855
   50MOL0     H 6704   8.856  11.102   4.023 -0.9481 -0.2502  3.6213
   50MOL0     H 6705   8.674  11.103   4.047 -0.3527 -1.1665 -0.4810
   50MOL0     H 6706   8.666  11.311   3.903 -0.4587  0.1648 -0.6230
   50MOL0     H 6707   8.841  11.317   3.896 -1.6151  1.0052 -1.2231
   50MOL0     H 6708   8.780  11.461   4.074  1.1774 -0.7355 -0.6524
   50MOL0     H 6709   8.854  11.319   4.160  0.4668  0.1560 -0.7407
   50MOL0     H 6710   8.828  11.462   4.335  1.5580  2.7152 -0.2839
   50MOL0     H 6711   8.765  11.597   4.645 -0.2126  2.5114 -0.3099
   50MOL0     H 6712   8.895  11.567   4.519  2.2984  2.7725 -0.0597
   50MOL0     H 6713   8.832  11.724   4.553 -0.2815  0.3994 -0.9228
   50MOL0     H 6714   8.450  11.845   4.815 -0.9835  1.2616  2.9650
   50MOL0     H 6715   8.314  12.012   4.943  1.0564  0.2662 -1.3977
   50MOL0     H 6716   8.033  11.967   5.052 -2.2310 -0.9207 -1.0505
   50MOL0     H 6717   8.108  12.125   5.068  1.1035  0.9379 -1.9010
   50MOL0     H 6718   7.883  12.182   5.126 -1.1548 -2.5335  1.1082
   50MOL0     H 6719   7.891  12.226   4.957  0.6259 -0.8928 -2.2780
   50MOL0     H 6720   7.805  11.954   5.044 -0.3995  1.7636  3.4885
   50MOL0     H 6721   7.783  12.018   4.884  3.3197  0.3102  0.0068
   50MOL0     H 6722   7.653  12.141   5.135 -3.3675 -0.2780  0.2716
   50MOL0     H 6723   7.635  12.207   4.982  1.1254 -0.7345 -2.1506
   50MOL0     H 6724   7.566  11.924   5.084  0.3366  0.4825 -0.1065
   50MOL0     H 6725   7.524  11.981   4.918  4.0237 -0.6636 -0.5564
   50MOL0     H 6726   7.412  12.077   5.177 -0.1301  0.6120 -0.8042
   50MOL0     H 6727   7.379  12.154   5.025  2.4330  0.8199  1.4263
   50MOL0     H 6728   7.304  11.871   5.107 -3.4368 -0.8043  0.6750
   50MOL0     H 6729   7.274  11.942   4.949 -1.2367 -1.5461  1.4788
   50MOL0     H 6730   7.121  12.103   5.052  3.7205  0.6557 -0.8965
   50MOL0     H 6731   7.166  12.050   5.215  1.4386  1.9127 -1.3101
   50MOL0     H 6732   7.996  11.937   4.672  1.1897  0.8733 -1.1069
   50MOL0     H 6733   8.138  11.778   4.552  2.3715  0.4505 -1.0172
   50MOL0     H 6734   8.363  11.621   4.371 -0.5299 -0.1480  1.5888
   50MOL0     H 6735   8.421  11.427   4.212  0.0678 -2.1634  0.1527
   50MOL0     H 6736   9.036   9.501   3.614  0.1116  1.4169  1.5246
   50MOL0     H 6737   9.103   9.403   3.398 -0.9622  1.1473 -0.9728
   50MOL0     H 6738   9.241   9.301   3.106  2.4915  3.2667  2.4487
   50MOL0     H 6739   9.317   9.122   2.945 -1.9958 -0.9345  0.9247
   50MOL0     H 6740   9.499   9.123   2.528  0.1621 -2.7277  1.4579
   50MOL0     H 6741   9.491   9.292   2.573 -2.7479 -0.7063  0.1186
   50MOL0     H 6742   9.678   9.091   2.717  1.7435 -0.7452 -0.2233
   50MOL0     H 6743   9.691   9.266   2.718 -0.3833 -0.1854 -0.1292
   50MOL0     H 6744   9.851   9.214   2.592 -0.8881  1.8539  0.3341
   50MOL0     H 6745   9.731   9.277   2.478 -1.9074 -0.5681 -0.9416
   50MOL0     H 6746   9.711   9.089   2.367  3.1544 -0.7302 -1.2567
   50MOL0     H 6747   9.739   8.976   2.510 -0.3601 -0.2788  1.0869
   50MOL0     H 6748  10.081   8.942   2.302  0.7152  1.3144 -0.3608
   50MOL0     H 6749   9.441   9.440   2.688  0.1929  0.1301  0.2882
   50MOL0     H 6750   9.371   9.612   2.837 -2.2365 -0.2294 -1.0952
   51MOL0     O 6751   3.489   4.182   7.884  0.0474 -0.4305  0.7034
   51MOL0     C 6752   3.555   4.082   7.895  0.5779  0.4022 -0.5657
   51MOL0     O 6753   3.532   3.978   7.988  0.8902  0.5174 -0.5055
   51MOL0     C 6754   3.432   3.980   8.085 -0.5259  1.1140 -0.7241
   51MOL0     C 6755   3.308   4.051   8.084  0.0247 -0.3375  1.0239
   51MOL0     C 6756   3.230   4.056   8.205 -0.5170 -0.1322  0.7248
   51MOL0     C 6757   3.266   3.970   8.311  0.4874 -0.0408  0.1138
   51MOL0     O 6758   3.192   3.956   8.431  0.6476  0.6559  0.0372
   51MOL0     C 6759   3.050   3.987   8.444  0.5107 -0.0585  0.1263
   51MOL0     C 6760   2.982   3.853   8.469  1.5882  1.0105 -0.2853
   51MOL0     C 6761   2.984   3.777   8.340 -0.7065  0.5545 -0.8099
   51MOL0     C 6762   2.886   3.832   8.233  0.1059 -0.0802 -0.4515
   51MOL0     C 6763   2.881   3.749   8.107  0.2653 -0.4487  0.0080
   51MOL0     C 6764   2.801   3.803   7.988  0.1725 -0.2233 -0.0406
   51MOL0     C 6765   2.852   3.928   7.933 -0.0921  0.4139  0.2527
   51MOL0     C 6766   2.784   3.963   7.796  0.6254  0.3555  0.3620
   51MOL0     N 6767   2.637   3.947   7.797  0.6405 -0.1725 -0.0437
   51MOL0     C 6768   2.563   3.828   7.781 -1.2617 -0.8862  0.2094
   51MOL0     C 6769   2.433   3.871   7.800 -0.6057  0.7721 -1.2624
   51MOL0     C 6770   2.308   3.783   7.807 -0.0410  0.6837 -0.0858
   51MOL0     C 6771   2.187   3.837   7.735 -0.0292  0.8685  0.2448
   51MOL0     C 6772   2.078   3.730   7.685 -0.4840 -0.5784 -0.0125
   51MOL0     C 6773   2.031   3.748   7.539  0.8020 -0.8233 -0.2089
   51MOL0     O 6774   1.922   3.843   7.522  0.4156  0.0480 -0.0466
   51MOL0     C 6775   1.802   3.836   7.596  0.4578  0.6053 -0.1028
   51MOL0     C 6776   1.716   3.945   7.591  0.8267  0.1067  1.0714
   51MOL0     C 6777   1.590   3.940   7.657  0.1668  0.7687  0.0064
   51MOL0     C 6778   1.496   4.055   7.640  0.4149  0.0342 -0.4054
   51MOL0     C 6779   1.560   3.825   7.741  0.0570 -0.4969  0.0464
   51MOL0     C 6780   1.449   3.816   7.828  0.4862  0.0715 -0.0922
   51MOL0     O 6781   1.327   3.853   7.778 -0.5223 -0.0578  0.4808
   51MOL0     C 6782   1.200   3.827   7.822 -0.8624  0.2127 -0.0339
   51MOL0     C 6783   1.167   3.729   7.919 -0.7263  0.2499 -0.0772
   51MOL0     C 6784   1.037   3.725   7.966 -0.3074  0.5136  0.4816
   51MOL0     C 6785   0.944   3.813   7.907  0.0359  0.0217 -0.1124
   51MOL0     O 6786   0.814   3.828   7.949  0.9231 -0.5571  0.4530
   51MOL0     C 6787   0.796   3.809   8.089  0.3830 -0.1029 -0.6984
   51MOL0     C 6788   0.693   3.893   8.163  0.3547 -0.3583  0.4324
   51MOL0     C 6789   0.558   3.875   8.084  0.2740  0.1884 -0.1895
   51MOL0     C 6790   0.444   3.953   8.150 -0.4160 -0.4369  0.3314
   51MOL0     C 6791   0.324   3.951   8.060 -0.0157 -0.7569 -0.4161
   51MOL0     C 6792   0.289   3.822   7.990  0.3626  0.0055 -0.5522
   51MOL0     C 6793   0.161   3.831   7.890  0.0302 -0.5254  0.1346
   51MOL0     C 6794   0.187   3.866   7.745  0.4965 -0.3301 -0.3013
   51MOL0    Cl 6795   0.319   3.982   7.723 -0.1456 -0.0565 -0.0122
   51MOL0     C 6796   0.972   3.895   7.800  0.0833  1.0444 -0.3839
   51MOL0     C 6797   1.101   3.895   7.760  0.0750 -0.2162  0.7842
   51MOL0     O 6798   1.463   3.780   7.941  0.5898 -0.5638 -0.0692
   51MOL0     C 6799   1.643   3.716   7.740 -0.2996  0.0636  0.3195
   51MOL0     C 6800   1.759   3.727   7.664 -0.0379 -0.4280  0.5914
   51MOL0     N 6801   2.427   3.997   7.836 -0.2683  0.2564  0.1765
   51MOL0     N 6802   2.552   4.038   7.836 -0.1508 -0.1209 -0.0246
   51MOL0     C 6803   3.385   3.909   8.319 -0.0928 -0.1272  0.6717
   51MOL0     C 6804   3.467   3.905   8.204  0.5410 -0.0417  0.1587
   51MOL0     C 6805   3.681   4.079   7.835 -1.5795  0.9243  0.2537
   51MOL0     C 6806   3.764   3.963   7.847 -0.5775  0.2218  0.1835
   51MOL0     C 6807   3.886   3.949   7.776 -0.3114  0.0653  0.3761
   51MOL0     C 6808   3.936   4.061   7.700  0.7261 -0.7786  0.7086
   51MOL0     O 6809   4.048   4.070   7.624  0.4644  0.1969 -0.1201
   51MOL0     C 6810   4.123   3.948   7.598 -0.3269 -0.1142 -0.7849
   51MOL0     C 6811   4.227   3.967   7.482 -0.3205  0.3260 -0.6924
   51MOL0     C 6812   4.334   3.862   7.475  0.9076  1.4086  0.0965
   51MOL0     C 6813   4.437   3.871   7.367  0.2103  0.2560  0.3797
   51MOL0     C 6814   4.508   3.998   7.366 -0.3460 -0.3919 -0.5142
   51MOL0     C 6815   4.559   4.109   7.360  0.3207 -0.3896  0.4207
   51MOL0     C 6816   3.864   4.183   7.711  0.4139 -0.2668  0.8246
   51MOL0     C 6817   3.738   4.192   7.769  0.5756  0.2868  0.4697
   51MOL0     H 6818   3.277   4.110   7.998 -3.0416 -1.0144  1.5606
   51MOL0     H 6819   3.149   4.128   8.215  0.8228  1.9096 -2.0612
   51MOL0     H 6820   3.037   4.050   8.533  0.9173 -0.7373  0.6855
   51MOL0     H 6821   3.003   4.031   8.356  1.8909 -0.8952 -1.0756
   51MOL0     H 6822   3.026   3.797   8.552  1.2356  1.5964  0.3100
   51MOL0     H 6823   2.878   3.867   8.498  0.7481 -3.5394 -0.4153
   51MOL0     H 6824   3.082   3.766   8.293 -1.0644  2.4404 -2.1629
   51MOL0     H 6825   2.947   3.675   8.356  1.1672 -0.1714 -0.9018
   51MOL0     H 6826   2.785   3.841   8.274 -0.1231  2.6967 -1.4377
   51MOL0     H 6827   2.919   3.926   8.188 -3.0924  0.4790 -1.9440
   51MOL0     H 6828   2.986   3.748   8.074  0.2267  2.7164 -0.5313
   51MOL0     H 6829   2.855   3.645   8.127  2.1128 -1.0600 -0.5825
   51MOL0     H 6830   2.817   3.719   7.920 -0.4876 -0.4867  0.1210
   51MOL0     H 6831   2.694   3.808   8.010  0.2609  1.5821  0.1429
   51MOL0     H 6832   2.830   4.012   7.999 -2.9317  0.3805 -0.5046
   51MOL0     H 6833   2.959   3.910   7.920 -0.3195 -2.5750  1.6495
   51MOL0     H 6834   2.815   3.894   7.717  1.1824  0.9852  0.0253
   51MOL0     H 6835   2.798   4.069   7.772 -2.9366  0.6801 -0.9654
   51MOL0     H 6836   2.604   3.730   7.760  0.2308  0.0691 -1.5470
   51MOL0     H 6837   2.337   3.691   7.755 -0.6579 -0.2436  1.1513
   51MOL0     H 6838   2.275   3.765   7.909  0.3923 -1.1947 -0.2322
   51MOL0     H 6839   2.213   3.899   7.649 -4.3062  1.1846 -1.0425
   51MOL0     H 6840   2.139   3.904   7.807  1.8177 -0.2543  2.6753
   51MOL0     H 6841   1.999   3.743   7.760  0.6933 -2.6583  1.6738
   51MOL0     H 6842   2.114   3.628   7.696  1.8422 -0.4904 -4.5440
   51MOL0     H 6843   1.987   3.654   7.505 -2.8208  0.1794  1.2053
   51MOL0     H 6844   2.116   3.773   7.474  2.6861 -1.1923  1.9808
   51MOL0     H 6845   1.746   4.037   7.540  2.8311  0.7853  3.2531
   51MOL0     H 6846   1.476   4.088   7.743  0.3272  1.4448 -0.8640
   51MOL0     H 6847   1.542   4.139   7.589 -1.5954  2.7553  1.9460
   51MOL0     H 6848   1.404   4.034   7.585  0.7123 -0.1823 -0.8230
   51MOL0     H 6849   1.244   3.672   7.969 -0.1974  1.1147  0.1261
   51MOL0     H 6850   1.020   3.662   8.053  0.0489  2.4669  2.0386
   51MOL0     H 6851   0.769   3.703   8.094  1.6208 -0.3923  0.3500
   51MOL0     H 6852   0.887   3.828   8.146  0.7993 -0.2342 -1.3136
   51MOL0     H 6853   0.690   3.871   8.270 -1.1770  4.3698  1.6106
   51MOL0     H 6854   0.729   3.996   8.154  0.3606 -0.5283 -3.0332
   51MOL0     H 6855   0.538   3.768   8.082 -0.1712  0.2744 -0.4324
   51MOL0     H 6856   0.571   3.915   7.983 -1.5594  2.7572  0.4912
   51MOL0     H 6857   0.416   3.902   8.243  0.1919 -1.9050 -0.2486
   51MOL0     H 6858   0.475   4.057   8.159 -0.5436 -0.3448 -0.2602
   51MOL0     H 6859   0.335   4.029   7.984  0.1456 -0.0649  0.2973
   51MOL0     H 6860   0.239   3.972   8.126  0.7533 -1.2918  0.7774
   51MOL0     H 6861   0.372   3.784   7.929  0.2404  0.0826 -0.7700
   51MOL0     H 6862   0.270   3.741   8.061  0.8377  0.2685 -0.1206
   51MOL0     H 6863   0.101   3.918   7.919  2.7470  2.0719 -1.3433
   51MOL0     H 6864   0.105   3.738   7.892  0.3049 -0.7359 -1.1335
   51MOL0     H 6865   0.098   3.905   7.695 -0.4018 -0.3133  1.2561
   51MOL0     H 6866   0.200   3.772   7.691 -1.0977 -0.3005 -0.7889
   51MOL0     H 6867   0.893   3.942   7.742 -2.2472 -1.7067  0.3071
   51MOL0     H 6868   1.122   3.949   7.668 -3.5069  0.9636  0.4757
   51MOL0     H 6869   1.595   3.632   7.790 -1.8124  1.8840  2.1166
   51MOL0     H 6870   1.821   3.639   7.657 -0.8583 -0.8987 -2.8983
   51MOL0     H 6871   3.411   3.854   8.409 -0.2248  0.3741  1.0196
   51MOL0     H 6872   3.568   3.866   8.211  0.4630  0.0949  3.0562
   51MOL0     H 6873   3.733   3.870   7.896 -2.9126  1.0930  0.4965
   51MOL0     H 6874   3.941   3.855   7.778 -0.3270 -0.0572 -1.9927
   51MOL0     H 6875   4.174   3.914   7.689  1.4216  1.4913 -1.0923
   51MOL0     H 6876   4.053   3.871   7.563  1.0343 -2.2348  0.8830
   51MOL0     H 6877   4.269   4.068   7.487 -1.8238  1.1510 -2.7702
   51MOL0     H 6878   4.178   3.969   7.383 -1.8582  1.6663  0.0427
   51MOL0     H 6879   4.276   3.772   7.451  1.4867  0.6941  1.2467
   51MOL0     H 6880   4.386   3.841   7.569  1.6445 -0.3803 -0.6529
   51MOL0     H 6881   4.385   3.858   7.271 -3.9303  4.0781  1.7454
   51MOL0     H 6882   4.508   3.789   7.382 -0.0644  0.1156  0.9739
   51MOL0     H 6883   4.613   4.201   7.346 -0.9376  0.9191  3.3690
   51MOL0     H 6884   3.916   4.266   7.665  0.5051 -0.5848  0.3501
   51MOL0     H 6885   3.685   4.287   7.776  1.8378  1.0772 -0.3013
   52MOL0     O 6886   3.950   2.247   2.105  0.6994 -0.1814  0.5214
   52MOL0     C 6887   4.013   2.171   2.038  0.8354  0.1569  0.3812
   52MOL0     O 6888   3.959   2.074   1.954 -0.1754 -0.2721 -0.4771
   52MOL0     C 6889   3.825   2.066   1.923  0.6447 -0.1716 -0.1424
   52MOL0     C 6890   3.794   2.020   1.794 -0.5817  0.2328 -0.1887
   52MOL0     C 6891   3.665   2.011   1.761  0.0972  0.5071  0.9977
   52MOL0     C 6892   3.561   2.032   1.850  0.0036  0.0467 -0.0073
   52MOL0     O 6893   3.431   2.002   1.806  0.0323  0.2063 -0.3647
   52MOL0     C 6894   3.311   2.017   1.889 -0.3697  0.4551 -0.0358
   52MOL0     C 6895   3.306   1.884   1.964  0.0601  0.3714 -0.2830
   52MOL0     C 6896   3.171   1.887   2.039  0.0433  0.2947  0.3382
   52MOL0     C 6897   3.057   1.841   1.942 -0.6221  0.2068 -0.9313
   52MOL0     C 6898   2.926   1.809   2.028 -0.8377  0.1988  0.5809
   52MOL0     C 6899   2.844   1.938   2.064  0.2620 -0.5674  0.3152
   52MOL0     C 6900   2.742   1.895   2.169  0.5389  0.8493  0.5031
   52MOL0     C 6901   2.666   2.008   2.214  0.2956 -0.4108 -0.5722
   52MOL0     N 6902   2.541   1.961   2.283 -0.1819 -0.1666 -0.2362
   52MOL0     C 6903   2.535   1.882   2.391  0.4618  0.0886 -0.2787
   52MOL0     C 6904   2.406   1.881   2.419  0.6722 -0.2174  0.7614
   52MOL0     C 6905   2.331   1.803   2.519  0.3953 -0.7792 -0.4272
   52MOL0     C 6906   2.358   1.861   2.662  0.1746 -0.0322 -0.3262
   52MOL0     C 6907   2.322   2.003   2.695  0.4006 -0.6246 -0.5243
   52MOL0     C 6908   2.176   2.039   2.655 -0.7564  0.6614  0.3374
   52MOL0     O 6909   2.108   1.946   2.742 -0.6906 -0.8332 -0.3767
   52MOL0     C 6910   1.966   1.954   2.735 -0.2026  0.0867  0.1960
   52MOL0     C 6911   1.896   1.837   2.770  0.3565 -0.4434 -0.9507
   52MOL0     C 6912   1.756   1.819   2.767  0.3089 -0.2549 -0.1340
   52MOL0     C 6913   1.690   1.690   2.809  0.1988 -0.4655  0.4893
   52MOL0     C 6914   1.687   1.926   2.709 -0.4684  0.8202  0.1977
   52MOL0     C 6915   1.541   1.926   2.676  0.9242  0.0465 -0.0139
   52MOL0     O 6916   1.500   1.996   2.563  0.1441 -0.5238 -0.2968
   52MOL0     C 6917   1.373   2.005   2.526  0.7054 -0.4801  0.4003
   52MOL0     C 6918   1.269   2.055   2.612  0.7416 -0.6014  0.1316
   52MOL0     C 6919   1.138   2.069   2.569 -0.4613 -0.3180 -0.1207
   52MOL0     C 6920   1.099   2.041   2.435 -0.2932  0.4931 -0.2578
   52MOL0     O 6921   0.969   2.056   2.391 -0.6670 -0.0898  0.0250
   52MOL0     C 6922   0.867   2.116   2.473 -0.1872 -0.5673 -0.2147
   52MOL0     C 6923   0.730   2.069   2.433  0.4844 -0.9913 -0.0496
   52MOL0     C 6924   0.608   2.136   2.508 -0.5704  0.6712  0.2342
   52MOL0     C 6925   0.473   2.109   2.431 -0.6652  1.0124  0.2693
   52MOL0     C 6926   0.355   2.174   2.503  0.0717 -0.0649 -0.3553
   52MOL0     C 6927   0.347   2.329   2.490  0.5154  0.5637  0.0392
   52MOL0     C 6928   0.223   2.378   2.576 -0.3645  0.5613  0.7646
   52MOL0     C 6929   0.207   2.521   2.547  0.5663 -0.1671  0.3646
   52MOL0    Cl 6930   0.053   2.557   2.641 -0.1579 -0.7706 -0.1778
   52MOL0     C 6931   1.202   2.001   2.347  0.6295  0.0094 -0.0646
   52MOL0     C 6932   1.339   1.988   2.391  0.4671 -0.2538  0.0622
   52MOL0     O 6933   1.465   1.863   2.750 -0.7198 -0.3075  0.2579
   52MOL0     C 6934   1.755   2.040   2.665 -0.1753 -0.8113  0.8665
   52MOL0     C 6935   1.892   2.055   2.673 -0.1512  0.5757 -0.5574
   52MOL0     N 6936   2.340   1.969   2.337  0.1334  0.6973 -0.2461
   52MOL0     N 6937   2.425   2.014   2.253  0.8522  0.0186  0.4419
   52MOL0     C 6938   3.589   2.067   1.983  1.1628 -0.3717  0.8491
   52MOL0     C 6939   3.725   2.079   2.017  0.2809 -0.3905 -0.2993
   52MOL0     C 6940   4.161   2.172   2.053  0.7044  0.0271 -0.2150
   52MOL0     C 6941   4.241   2.122   1.954 -0.7280  0.1594 -0.3415
   52MOL0     C 6942   4.375   2.116   1.970 -0.2687 -0.6944 -0.2459
   52MOL0     C 6943   4.436   2.155   2.088  0.3369  0.3919 -0.1189
   52MOL0     O 6944   4.568   2.139   2.101  0.6810  0.1739 -0.0671
   52MOL0     C 6945   4.640   2.183   2.219 -0.3133 -0.2657  0.7530
   52MOL0     C 6946   4.782   2.126   2.219 -0.3368  0.8708  0.1217
   52MOL0     C 6947   4.847   2.152   2.353 -0.8188 -0.8268  0.2263
   52MOL0     C 6948   4.981   2.083   2.348 -1.1341 -0.2246  0.4342
   52MOL0     C 6949   5.040   2.079   2.474 -0.3365 -0.6043  0.2381
   52MOL0     C 6950   5.087   2.057   2.583  0.5185 -0.0907 -0.6483
   52MOL0     C 6951   4.357   2.209   2.185 -0.7419  0.3202 -0.8564
   52MOL0     C 6952   4.219   2.222   2.168  0.2579  0.0892 -0.1347
   52MOL0     H 6953   3.877   1.988   1.731 -1.4949 -1.5915 -0.5519
   52MOL0     H 6954   3.649   1.973   1.661 -1.4494 -1.9369  2.0742
   52MOL0     H 6955   3.331   2.097   1.960  2.5755 -2.1863  2.4225
   52MOL0     H 6956   3.230   2.033   1.817  0.2246  0.8771 -0.6254
   52MOL0     H 6957   3.316   1.796   1.899  3.9257 -3.3783  4.5439
   52MOL0     H 6958   3.385   1.879   2.039  0.4533  0.7850 -0.6714
   52MOL0     H 6959   3.167   1.832   2.133  0.3925  0.8713  0.7017
   52MOL0     H 6960   3.153   1.992   2.066 -1.3437  0.0887  0.2815
   52MOL0     H 6961   3.044   1.927   1.876 -0.7953  0.6999 -0.2716
   52MOL0     H 6962   3.096   1.751   1.895  1.0286 -1.3156  2.8867
   52MOL0     H 6963   2.861   1.748   1.965  2.2232 -2.3357 -0.3520
   52MOL0     H 6964   2.953   1.740   2.108  0.5527 -1.2027 -1.0114
   52MOL0     H 6965   2.911   2.013   2.107  0.0155  0.5518 -1.1879
   52MOL0     H 6966   2.782   1.980   1.985 -1.6790 -1.3035  1.3625
   52MOL0     H 6967   2.688   1.818   2.113  0.9144  0.2366  0.9775
   52MOL0     H 6968   2.791   1.855   2.258  0.6971 -2.9535 -1.1063
   52MOL0     H 6969   2.646   2.066   2.123  1.7228  0.6010 -0.2721
   52MOL0     H 6970   2.728   2.070   2.280  0.6390 -1.1352 -0.1990
   52MOL0     H 6971   2.613   1.830   2.447 -1.9403 -2.4732  0.9510
   52MOL0     H 6972   2.224   1.815   2.500  0.6312  0.1467 -1.2985
   52MOL0     H 6973   2.365   1.700   2.515 -0.3161 -1.0206 -0.4049
   52MOL0     H 6974   2.460   1.841   2.697 -0.5396  1.4779  2.9854
   52MOL0     H 6975   2.290   1.793   2.714  1.3160 -2.0254 -1.2971
   52MOL0     H 6976   2.395   2.067   2.644  0.9850 -0.1785  0.8076
   52MOL0     H 6977   2.330   2.010   2.804  0.7239 -3.8073 -0.2648
   52MOL0     H 6978   2.152   2.020   2.550 -0.2637  0.0772  0.3284
   52MOL0     H 6979   2.150   2.144   2.672 -3.0880  0.4822 -1.4754
   52MOL0     H 6980   1.955   1.749   2.794 -0.3569 -1.8700 -3.9535
   52MOL0     H 6981   1.765   1.626   2.857 -0.7007 -2.8810 -1.1312
   52MOL0     H 6982   1.608   1.700   2.881  0.2170  1.8038  0.2765
   52MOL0     H 6983   1.659   1.636   2.720  2.8793  1.8393 -2.0768
   52MOL0     H 6984   1.303   2.083   2.712  1.8368 -2.5300  0.3493
   52MOL0     H 6985   1.060   2.106   2.635  0.8321 -0.9485  1.8598
   52MOL0     H 6986   0.873   2.095   2.580  1.6723 -0.9583 -0.3657
   52MOL0     H 6987   0.878   2.224   2.459  1.9346 -0.8212 -0.7732
   52MOL0     H 6988   0.717   2.077   2.324  1.4631 -0.5735 -0.1495
   52MOL0     H 6989   0.717   1.962   2.451  0.0723 -0.6251  2.0366
   52MOL0     H 6990   0.613   2.245   2.517 -4.4182  1.0708 -0.5450
   52MOL0     H 6991   0.606   2.100   2.611 -1.7291  0.4145  0.1439
   52MOL0     H 6992   0.470   2.148   2.329  2.1327  1.4795  0.2858
   52MOL0     H 6993   0.462   2.000   2.436 -0.5075  1.0346  1.5104
   52MOL0     H 6994   0.371   2.153   2.609 -1.6361  0.6382  0.0843
   52MOL0     H 6995   0.260   2.127   2.476  0.3309 -0.1141 -1.2217
   52MOL0     H 6996   0.441   2.369   2.530 -0.7745  3.5205  0.3862
   52MOL0     H 6997   0.329   2.363   2.387 -1.4503 -0.7144 -0.0829
   52MOL0     H 6998   0.251   2.358   2.680 -0.3503 -1.8133  0.3796
   52MOL0     H 6999   0.131   2.331   2.540  0.6528  1.0146 -2.8001
   52MOL0     H 7000   0.178   2.548   2.445 -1.0106 -1.5353  0.4112
   52MOL0     H 7001   0.297   2.579   2.571  0.6446 -0.0904 -0.0963
   52MOL0     H 7002   1.171   1.986   2.244 -2.1254  0.3149  0.6450
   52MOL0     H 7003   1.406   1.973   2.307  0.2130 -0.5575 -0.0873
   52MOL0     H 7004   1.695   2.117   2.617  0.4607  0.1411  1.5476
   52MOL0     H 7005   1.950   2.146   2.655  0.6193  0.4666  1.1668
   52MOL0     H 7006   3.519   2.067   2.065 -0.0849 -1.5474 -0.1612
   52MOL0     H 7007   3.753   2.096   2.120 -0.7249 -2.4168  0.3639
   52MOL0     H 7008   4.203   2.094   1.856 -3.1751  0.4079  0.4704
   52MOL0     H 7009   4.438   2.070   1.894  1.4754 -1.8115  1.7757
   52MOL0     H 7010   4.639   2.291   2.233  1.7120  0.1933 -1.8356
   52MOL0     H 7011   4.592   2.136   2.305  3.0181 -4.8594  0.5023
   52MOL0     H 7012   4.843   2.174   2.141  1.4832 -1.9282 -0.3227
   52MOL0     H 7013   4.781   2.019   2.200  1.3667  0.1092  3.5924
   52MOL0     H 7014   4.787   2.131   2.442 -2.2527  0.7488 -0.3151
   52MOL0     H 7015   4.870   2.259   2.360  1.6914 -1.3642  1.5464
   52MOL0     H 7016   5.045   2.138   2.279  0.3640 -2.4627 -0.0770
   52MOL0     H 7017   4.975   1.978   2.319 -2.0899  0.2674 -1.2520
   52MOL0     H 7018   5.133   2.032   2.676 -0.8766  1.0403  0.3879
   52MOL0     H 7019   4.402   2.259   2.270 -1.3895 -0.1283 -0.2356
   52MOL0     H 7020   4.153   2.264   2.243  0.1615 -0.1348 -0.0957
   53MOL0     O 7021   8.095   1.515   3.412 -0.4656  0.1496  0.5689
   53MOL0     C 7022   8.190   1.505   3.491 -0.3783  0.0408 -0.2942
   53MOL0     O 7023   8.191   1.439   3.613 -0.8221  0.1795 -0.1156
   53MOL0     C 7024   8.069   1.407   3.660  0.6338 -0.2434 -1.0512
   53MOL0     C 7025   8.042   1.275   3.704  0.7602 -0.1899  0.4081
   53MOL0     C 7026   7.914   1.238   3.756  0.2475  0.2334 -0.2489
   53MOL0     C 7027   7.816   1.336   3.778  0.2373 -0.1614  0.2901
   53MOL0     O 7028   7.696   1.305   3.848 -0.6103  0.1012  0.3833
   53MOL0     C 7029   7.639   1.172   3.847  0.2511  0.5999  0.5370
   53MOL0     C 7030   7.492   1.172   3.905  0.2635  0.4201  0.2466
   53MOL0     C 7031   7.481   1.232   4.043 -0.1380  0.0913 -0.0496
   53MOL0     C 7032   7.364   1.325   4.053  0.3397 -0.5234  0.0476
   53MOL0     C 7033   7.223   1.255   4.054 -0.7611 -0.3101 -0.0411
   53MOL0     C 7034   7.112   1.343   4.109 -0.3487  0.1255  0.6772
   53MOL0     C 7035   6.974   1.267   4.104  0.3041 -0.1179  0.5799
   53MOL0     C 7036   6.939   1.179   4.231 -1.2560 -0.8296 -0.2745
   53MOL0     N 7037   6.840   1.078   4.193  0.1383 -0.1197  0.1598
   53MOL0     C 7038   6.849   0.948   4.220  0.3058 -0.1091 -0.6076
   53MOL0     C 7039   6.725   0.901   4.192 -0.7116 -0.5458 -0.5929
   53MOL0     C 7040   6.668   0.769   4.201 -0.8813  0.4538 -0.3583
   53MOL0     C 7041   6.717   0.669   4.319 -0.3478 -0.5339  0.0649
   53MOL0     C 7042   6.669   0.687   4.462  0.5613  0.4457 -0.5517
   53MOL0     C 7043   6.701   0.819   4.530 -0.3009 -0.0920 -0.3897
   53MOL0     O 7044   6.627   0.941   4.498 -0.6520  0.8540  0.8217
   53MOL0     C 7045   6.492   0.936   4.499 -0.0410 -0.1630  0.9533
   53MOL0     C 7046   6.424   1.007   4.408  0.9929 -0.0065 -0.1524
   53MOL0     C 7047   6.281   1.029   4.419  0.2192  0.4070  0.6989
   53MOL0     C 7048   6.223   1.108   4.306  0.5749 -0.4254  0.1162
   53MOL0     C 7049   6.208   0.971   4.530 -0.4636 -0.5317 -0.2477
   53MOL0     C 7050   6.064   0.980   4.550 -0.5938 -0.3729 -0.1982
   53MOL0     O 7051   5.994   1.084   4.496 -0.4534 -0.3757  0.4249
   53MOL0     C 7052   5.860   1.081   4.491  0.9818 -0.1261 -1.0666
   53MOL0     C 7053   5.773   1.031   4.597  0.0750  0.6096  0.0939
   53MOL0     C 7054   5.642   1.051   4.597  0.2790  0.1650  0.4383
   53MOL0     C 7055   5.575   1.108   4.486 -0.2179  0.5735 -0.1307
   53MOL0     O 7056   5.440   1.134   4.480 -1.1083 -0.5232  0.1620
   53MOL0     C 7057   5.345   1.035   4.506 -0.0803 -0.3627  0.6345
   53MOL0     C 7058   5.303   0.950   4.382  0.1449 -0.2509 -0.3704
   53MOL0     C 7059   5.257   1.040   4.262  0.0806  0.2589 -0.3734
   53MOL0     C 7060   5.125   1.097   4.278  0.1321  0.1979 -0.6335
   53MOL0     C 7061   5.009   0.998   4.306 -0.8163  0.1312 -0.4984
   53MOL0     C 7062   5.001   0.904   4.181 -0.3436 -0.5547  0.2260
   53MOL0     C 7063   4.890   0.801   4.196 -0.0714 -0.7040  0.5575
   53MOL0     C 7064   4.884   0.707   4.073  0.5449 -0.6720  0.1474
   53MOL0    Cl 7065   4.742   0.606   4.075  0.1016  0.1680 -0.4118
   53MOL0     C 7066   5.652   1.148   4.374 -0.1053  0.2839 -0.2561
   53MOL0     C 7067   5.794   1.136   4.380 -0.3265  0.6056 -0.4366
   53MOL0     O 7068   6.013   0.884   4.604 -0.3663 -0.4957  0.1691
   53MOL0     C 7069   6.281   0.881   4.613 -0.4318  0.2381  0.0254
   53MOL0     C 7070   6.421   0.875   4.604 -0.0725  0.0644  0.8692
   53MOL0     N 7071   6.646   1.008   4.138 -1.1270  0.3039 -0.4005
   53MOL0     N 7072   6.715   1.120   4.142 -0.0999 -0.3337 -0.7015
   53MOL0     C 7073   7.841   1.466   3.725  0.4381 -0.3682 -0.0797
   53MOL0     C 7074   7.958   1.499   3.665 -0.0706  0.3226  0.4852
   53MOL0     C 7075   8.314   1.574   3.437 -0.1613 -0.2810  0.5860
   53MOL0     C 7076   8.314   1.630   3.310 -0.0621 -0.2929 -0.2484
   53MOL0     C 7077   8.436   1.672   3.258  0.3423 -0.3518  0.9620
   53MOL0     C 7078   8.556   1.656   3.328  0.3743 -0.6689  0.3711
   53MOL0     O 7079   8.672   1.695   3.258  0.1789  0.0232 -0.1604
   53MOL0     C 7080   8.801   1.671   3.318  0.0754 -0.5239 -0.9450
   53MOL0     C 7081   8.905   1.705   3.221  0.7254 -0.3194  0.5538
   53MOL0     C 7082   9.050   1.698   3.271  0.3389  0.6269  0.6697
   53MOL0     C 7083   9.090   1.821   3.348 -0.0727 -0.0674  0.4429
   53MOL0     C 7084   9.114   1.945   3.270 -0.8641  0.9125 -0.7127
   53MOL0     C 7085   9.145   2.033   3.189  0.1880 -0.4360  0.8583
   53MOL0     C 7086   8.557   1.595   3.456 -0.3519  0.0115 -0.1609
   53MOL0     C 7087   8.436   1.565   3.514  0.2924  0.5106 -0.0345
   53MOL0     H 7088   8.116   1.198   3.690 -0.8610 -1.7612  0.0432
   53MOL0     H 7089   7.894   1.140   3.797  1.0280  0.7875  1.5811
   53MOL0     H 7090   7.620   1.137   3.745 -3.9507  2.4495  0.4986
   53MOL0     H 7091   7.702   1.105   3.907 -0.4823  1.4590  2.2982
   53MOL0     H 7092   7.430   1.231   3.838 -0.1174 -1.8187 -1.4964
   53MOL0     H 7093   7.452   1.071   3.897 -3.5192  1.9124 -1.7251
   53MOL0     H 7094   7.471   1.147   4.111  1.3174 -0.0654 -0.0051
   53MOL0     H 7095   7.573   1.282   4.075  0.2295 -0.7933  0.3194
   53MOL0     H 7096   7.375   1.371   4.152 -0.3754 -2.5709  1.1518
   53MOL0     H 7097   7.362   1.399   3.973 -0.8291 -0.6267 -0.0345
   53MOL0     H 7098   7.201   1.234   3.948 -2.9267  1.9600 -0.1324
   53MOL0     H 7099   7.221   1.164   4.114 -1.6222 -0.4820 -0.3170
   53MOL0     H 7100   7.134   1.369   4.213  0.2008 -2.6113  1.3122
   53MOL0     H 7101   7.107   1.440   4.058  0.0770 -0.3945 -0.3791
   53MOL0     H 7102   6.887   1.325   4.075 -0.4770 -0.7505  1.6187
   53MOL0     H 7103   6.987   1.188   4.028 -0.5107  1.5264 -1.3504
   53MOL0     H 7104   6.900   1.238   4.314  0.4741 -0.8386  0.5982
   53MOL0     H 7105   7.033   1.138   4.269  0.6350  1.9313 -1.6508
   53MOL0     H 7106   6.938   0.897   4.256  0.7786 -0.8074 -2.6189
   53MOL0     H 7107   6.561   0.788   4.192 -0.7916  0.3426 -1.7957
   53MOL0     H 7108   6.704   0.722   4.109 -1.6779 -0.5495 -0.1697
   53MOL0     H 7109   6.826   0.675   4.312 -0.3770 -0.9671 -1.0038
   53MOL0     H 7110   6.685   0.569   4.288 -0.4325 -0.1363 -1.1739
   53MOL0     H 7111   6.723   0.621   4.531 -2.3970 -0.9745  0.5732
   53MOL0     H 7112   6.563   0.662   4.473  0.9755 -0.3786  2.6248
   53MOL0     H 7113   6.804   0.837   4.498  0.2911  2.4791  2.4854
   53MOL0     H 7114   6.706   0.796   4.637 -1.7745 -3.1183 -0.8589
   53MOL0     H 7115   6.481   1.064   4.336  3.5498  0.4092  2.0512
   53MOL0     H 7116   6.120   1.078   4.284 -0.2224 -0.5806  3.4869
   53MOL0     H 7117   6.232   1.215   4.324  1.7690 -0.7725  1.8688
   53MOL0     H 7118   6.281   1.084   4.216 -0.8746 -0.0581 -0.9425
   53MOL0     H 7119   5.814   0.973   4.679 -0.8014  0.7486  0.6389
   53MOL0     H 7120   5.579   1.016   4.678 -0.0745 -0.7328 -0.2078
   53MOL0     H 7121   5.385   0.972   4.586 -1.3132  0.7616  2.1864
   53MOL0     H 7122   5.255   1.091   4.533  0.3378  0.7468 -0.1573
   53MOL0     H 7123   5.390   0.895   4.343  0.0960  0.3893 -1.4233
   53MOL0     H 7124   5.236   0.870   4.413  0.7441 -0.8211 -0.5069
   53MOL0     H 7125   5.265   0.982   4.169 -0.7336  1.3413 -1.1246
   53MOL0     H 7126   5.329   1.121   4.245 -0.4763  0.5268 -1.5915
   53MOL0     H 7127   5.132   1.170   4.360  0.5011 -0.6472  0.1074
   53MOL0     H 7128   5.106   1.149   4.184 -1.8589  1.9099  0.6298
   53MOL0     H 7129   4.919   1.054   4.333 -0.3093  0.5044  0.4840
   53MOL0     H 7130   5.033   0.935   4.393  4.5642  0.8276 -1.1150
   53MOL0     H 7131   4.981   0.976   4.102  1.3187 -0.6345 -0.3063
   53MOL0     H 7132   5.098   0.857   4.161  0.2538  1.4219 -1.8822
   53MOL0     H 7133   4.799   0.861   4.207  0.0420  0.4364 -3.3187
   53MOL0     H 7134   4.906   0.739   4.285  3.0573  0.9397  1.2636
   53MOL0     H 7135   4.971   0.641   4.073  2.0157  1.1650 -1.3160
   53MOL0     H 7136   4.881   0.769   3.983 -1.6619  0.6723  1.0685
   53MOL0     H 7137   5.605   1.169   4.278  2.1136 -0.2345 -1.5238
   53MOL0     H 7138   5.860   1.181   4.307 -1.1354  0.2777 -1.3888
   53MOL0     H 7139   6.228   0.816   4.681 -1.1892 -1.2299 -1.8559
   53MOL0     H 7140   6.472   0.814   4.678 -0.8043 -0.6954  0.7614
   53MOL0     H 7141   7.770   1.548   3.733  2.5919  1.7405 -1.0737
   53MOL0     H 7142   7.971   1.598   3.622  0.0103  0.6007  1.1393
   53MOL0     H 7143   8.219   1.646   3.262  0.6172  0.3239 -1.4424
   53MOL0     H 7144   8.442   1.728   3.165 -0.5073  1.4563  1.9393
   53MOL0     H 7145   8.798   1.743   3.400 -0.8945 -3.5594  1.9185
   53MOL0     H 7146   8.809   1.570   3.360  1.1211 -0.3652 -0.7366
   53MOL0     H 7147   8.876   1.801   3.177 -0.7467  0.1116  2.3565
   53MOL0     H 7148   8.907   1.629   3.142  2.5661 -0.1446  0.3841
   53MOL0     H 7149   9.121   1.658   3.198 -1.0257 -0.8614  0.1025
   53MOL0     H 7150   9.039   1.617   3.343 -2.3204  0.7963  0.5586
   53MOL0     H 7151   9.189   1.796   3.387  0.1547 -0.1135 -0.1659
   53MOL0     H 7152   9.009   1.842   3.419 -1.7506 -1.5253 -0.9467
   53MOL0     H 7153   9.162   2.118   3.127  0.7906 -2.2459 -1.6140
   53MOL0     H 7154   8.652   1.564   3.497 -1.3831 -2.9113  0.3144
   53MOL0     H 7155   8.430   1.520   3.613  0.0868  1.1206  0.2338
   54MOL0     O 7156   7.110   3.606   5.101  0.7660 -0.1276  0.2889
   54MOL0     C 7157   7.233   3.634   5.099  0.9832 -0.8854  0.3056
   54MOL0     O 7158   7.290   3.757   5.131  0.3140 -0.0391  0.3652
   54MOL0     C 7159   7.201   3.861   5.169 -0.2450 -0.0250 -0.0879
   54MOL0     C 7160   7.083   3.900   5.104  0.8088  1.6193  0.3726
   54MOL0     C 7161   7.006   4.011   5.147  0.1729 -0.4548 -0.0332
   54MOL0     C 7162   7.053   4.097   5.248 -0.0536  0.4516  0.3589
   54MOL0     O 7163   6.970   4.204   5.280  0.0872 -0.2051  0.1892
   54MOL0     C 7164   7.011   4.289   5.394 -0.1772  0.7647 -0.5991
   54MOL0     C 7165   6.912   4.408   5.430  0.6363 -0.5924 -0.7058
   54MOL0     C 7166   6.767   4.357   5.460 -0.3456 -0.0088 -0.1816
   54MOL0     C 7167   6.662   4.463   5.464 -0.0973 -0.5370 -0.0546
   54MOL0     C 7168   6.518   4.418   5.479 -0.0782  0.1500  0.1645
   54MOL0     C 7169   6.428   4.539   5.463 -0.9106 -0.4294  0.1888
   54MOL0     C 7170   6.300   4.501   5.527  0.4169 -0.3733 -0.5671
   54MOL0     C 7171   6.192   4.585   5.460  0.1736  0.1961 -0.6101
   54MOL0     N 7172   6.059   4.566   5.519  0.5556 -0.6098  0.1542
   54MOL0     C 7173   5.955   4.493   5.468 -0.5583 -0.4659 -0.2786
   54MOL0     C 7174   5.855   4.494   5.559  0.0269 -0.4055  0.4564
   54MOL0     C 7175   5.712   4.432   5.559  0.5322  0.2562  0.8545
   54MOL0     C 7176   5.606   4.536   5.536 -0.8264  0.2865 -1.6381
   54MOL0     C 7177   5.464   4.481   5.562  0.1561  0.3166  0.3153
   54MOL0     C 7178   5.346   4.578   5.584 -0.0349 -0.0494 -0.4997
   54MOL0     O 7179   5.357   4.639   5.710 -0.8458  0.0406 -1.4571
   54MOL0     C 7180   5.240   4.698   5.760  0.2306  0.1073  0.0024
   54MOL0     C 7181   5.111   4.722   5.694 -1.0287 -0.4943 -0.6251
   54MOL0     C 7182   5.010   4.789   5.766 -0.1265 -0.8805  0.0500
   54MOL0     C 7183   4.892   4.815   5.679  0.8662 -0.5435 -0.6139
   54MOL0     C 7184   5.027   4.826   5.901  0.1968  0.0645  0.6311
   54MOL0     C 7185   4.912   4.879   5.981 -0.4630  1.3622  0.5342
   54MOL0     O 7186   4.897   4.830   6.113  0.0202 -0.7769  0.7376
   54MOL0     C 7187   4.823   4.910   6.195  0.1160  0.7584  0.0576
   54MOL0     C 7188   4.876   5.034   6.229  0.7350  1.3845  0.1792
   54MOL0     C 7189   4.805   5.115   6.313  0.3014 -0.7313 -0.1933
   54MOL0     C 7190   4.683   5.068   6.366  0.1330  0.0728  0.3842
   54MOL0     O 7191   4.598   5.155   6.436 -0.4363  0.1435  0.5607
   54MOL0     C 7192   4.663   5.249   6.525  0.5588 -0.2909 -0.4924
   54MOL0     C 7193   4.573   5.353   6.607  0.1814  0.0985  0.7299
   54MOL0     C 7194   4.451   5.282   6.662 -0.1414  0.2098 -0.3444
   54MOL0     C 7195   4.344   5.389   6.690  0.7037  0.7620 -0.7046
   54MOL0     C 7196   4.240   5.335   6.793  0.5516  0.1442 -0.2205
   54MOL0     C 7197   4.177   5.445   6.885 -0.1408  0.4027  0.5493
   54MOL0     C 7198   4.156   5.393   7.029  0.2131 -1.7049  0.8367
   54MOL0     C 7199   4.035   5.460   7.094 -1.1368  0.4584 -0.1123
   54MOL0    Cl 7200   4.044   5.397   7.267 -0.1667  0.8766 -0.5255
   54MOL0     C 7201   4.625   4.949   6.321 -0.1620 -0.1821  0.2017
   54MOL0     C 7202   4.704   4.861   6.244  0.1913 -0.4955 -0.5684
   54MOL0     O 7203   4.846   4.969   5.929 -0.3690  0.8305 -0.5447
   54MOL0     C 7204   5.152   4.804   5.962 -0.6302 -0.6325  0.3230
   54MOL0     C 7205   5.257   4.739   5.892  0.3359 -1.2202 -0.5278
   54MOL0     N 7206   5.896   4.573   5.669 -0.3777  0.1318 -0.4901
   54MOL0     N 7207   6.018   4.607   5.644  0.3446  0.1234 -0.1196
   54MOL0     C 7208   7.176   4.054   5.303 -0.2160 -0.5592 -0.1209
   54MOL0     C 7209   7.246   3.943   5.271 -0.0425  0.7783  0.1331
   54MOL0     C 7210   7.314   3.525   5.058 -0.2479  0.3082 -0.3264
   54MOL0     C 7211   7.267   3.393   5.043  0.1930 -0.0642 -0.9082
   54MOL0     C 7212   7.346   3.287   4.999  0.4326  0.6041 -1.0102
   54MOL0     C 7213   7.480   3.303   4.970 -0.2494 -0.6743  0.5339
   54MOL0     O 7214   7.554   3.197   4.939 -0.4961 -0.0813 -0.9383
   54MOL0     C 7215   7.682   3.201   4.872 -0.2234 -0.2466 -0.3455
   54MOL0     C 7216   7.714   3.071   4.808  0.0446 -0.1880  0.6947
   54MOL0     C 7217   7.698   2.959   4.906 -1.4711  0.6797 -0.4624
   54MOL0     C 7218   7.757   2.970   5.050  0.8922  0.8182 -0.0121
   54MOL0     C 7219   7.899   3.000   5.044  0.5013  0.2001 -0.1123
   54MOL0     C 7220   8.021   3.016   5.046  0.6113 -0.2276  0.3996
   54MOL0     C 7221   7.537   3.432   4.991 -0.3573 -0.3335  0.1298
   54MOL0     C 7222   7.452   3.534   5.035 -0.2490 -0.3706  0.0711
   54MOL0     H 7223   7.048   3.835   5.024  2.5603 -2.3074  2.4905
   54MOL0     H 7224   6.907   4.039   5.113  1.0470  1.1878 -1.3986
   54MOL0     H 7225   7.025   4.229   5.484  0.7539  1.7561 -0.0655
   54MOL0     H 7226   7.113   4.325   5.381  1.4240 -2.6283  1.0864
   54MOL0     H 7227   6.942   4.471   5.514  1.5756  1.4343 -2.4681
   54MOL0     H 7228   6.921   4.469   5.339 -1.9000  1.5882  0.3323
   54MOL0     H 7229   6.744   4.282   5.383  1.2276 -0.1433 -0.5586
   54MOL0     H 7230   6.759   4.304   5.555  0.8249 -0.0067 -0.0708
   54MOL0     H 7231   6.684   4.536   5.543  1.8102 -0.1966 -0.8547
   54MOL0     H 7232   6.669   4.522   5.372  0.6821 -0.4642  0.0450
   54MOL0     H 7233   6.485   4.340   5.409 -2.2980  0.1576  1.1194
   54MOL0     H 7234   6.503   4.371   5.576 -1.9909 -0.3104 -0.3194
   54MOL0     H 7235   6.464   4.627   5.517 -0.3506 -0.9499  0.6719
   54MOL0     H 7236   6.417   4.567   5.358 -1.2326 -4.2534 -0.9426
   54MOL0     H 7237   6.283   4.397   5.500  2.9825 -1.1753  0.5404
   54MOL0     H 7238   6.296   4.506   5.636 -3.1170 -0.0408 -0.6130
   54MOL0     H 7239   6.186   4.566   5.352  0.3732 -0.0972 -0.5724
   54MOL0     H 7240   6.228   4.686   5.483  1.6249 -0.5717  0.7551
   54MOL0     H 7241   5.958   4.437   5.375 -0.6451  1.0486 -1.2347
   54MOL0     H 7242   5.705   4.352   5.485 -0.0036 -2.6194  3.8091
   54MOL0     H 7243   5.713   4.376   5.652  1.6144 -1.0580  0.0916
   54MOL0     H 7244   5.608   4.574   5.433  0.3792 -0.4023 -1.8855
   54MOL0     H 7245   5.623   4.620   5.605 -0.7729 -0.1909 -1.0650
   54MOL0     H 7246   5.469   4.415   5.649  2.7174 -1.5249 -1.0919
   54MOL0     H 7247   5.444   4.415   5.477  4.0028  0.0831 -0.5682
   54MOL0     H 7248   5.251   4.529   5.562 -1.4212  2.0617  0.4481
   54MOL0     H 7249   5.360   4.657   5.509  4.2921 -1.6188 -1.6788
   54MOL0     H 7250   5.097   4.697   5.589  2.0774  0.6590 -1.4403
   54MOL0     H 7251   4.899   4.914   5.634 -2.6937  1.2819  2.2063
   54MOL0     H 7252   4.870   4.740   5.603  3.3683 -1.4869 -0.4957
   54MOL0     H 7253   4.795   4.833   5.727  1.2816  1.0896 -0.3124
   54MOL0     H 7254   4.970   5.079   6.201  0.6991  2.7186  2.0482
   54MOL0     H 7255   4.832   5.220   6.322  1.4913 -1.0639  0.1532
   54MOL0     H 7256   4.709   5.188   6.603  2.1127  1.6858  0.2425
   54MOL0     H 7257   4.746   5.303   6.478  0.7362 -0.4024 -0.3086
   54MOL0     H 7258   4.629   5.411   6.680 -1.6771 -0.1380  2.4203
   54MOL0     H 7259   4.540   5.420   6.526 -0.8778 -1.3762 -0.1109
   54MOL0     H 7260   4.469   5.217   6.748 -0.0677 -0.6545 -0.9976
   54MOL0     H 7261   4.408   5.222   6.582 -2.4657 -0.6849  1.4522
   54MOL0     H 7262   4.386   5.478   6.737  1.4357  0.3322 -0.5372
   54MOL0     H 7263   4.285   5.414   6.602  0.2642 -2.0848 -1.3150
   54MOL0     H 7264   4.287   5.265   6.863 -2.3822 -1.6065  0.1416
   54MOL0     H 7265   4.165   5.274   6.741 -1.0710  2.5797 -0.8895
   54MOL0     H 7266   4.238   5.536   6.892 -0.5386  0.5980  1.6673
   54MOL0     H 7267   4.081   5.482   6.848 -0.7290  2.2616  3.5944
   54MOL0     H 7268   4.244   5.415   7.091  0.3189  3.5851 -0.6825
   54MOL0     H 7269   4.130   5.287   7.023 -1.1952 -1.2955 -2.8777
   54MOL0     H 7270   3.947   5.437   7.034  1.0061 -2.8180 -2.3908
   54MOL0     H 7271   4.041   5.569   7.093  1.0187  0.3911 -1.7337
   54MOL0     H 7272   4.536   4.918   6.374  1.7009 -0.4641  3.4894
   54MOL0     H 7273   4.661   4.763   6.224 -2.0727  0.6287 -1.6888
   54MOL0     H 7274   5.153   4.838   6.065  1.8543 -0.1520  0.1996
   54MOL0     H 7275   5.348   4.712   5.946 -0.2002  2.5567  2.6768
   54MOL0     H 7276   7.226   4.101   5.387 -0.1125 -1.5397  0.3773
   54MOL0     H 7277   7.337   3.910   5.319 -0.2741  0.2898  0.2471
   54MOL0     H 7278   7.164   3.371   5.069  0.4859 -1.0787 -0.5656
   54MOL0     H 7279   7.295   3.191   5.007 -0.1825  1.0265  0.3517
   54MOL0     H 7280   7.689   3.269   4.787  1.0107  2.0086  1.4223
   54MOL0     H 7281   7.760   3.211   4.949  0.1292 -1.2771 -0.5524
   54MOL0     H 7282   7.820   3.076   4.780 -0.4100  0.0189 -1.0942
   54MOL0     H 7283   7.663   3.062   4.712 -0.9945  0.4814  1.1612
   54MOL0     H 7284   7.732   2.874   4.847 -0.9031  1.4166 -1.2202
   54MOL0     H 7285   7.591   2.939   4.917 -1.5125  0.2332 -1.5548
   54MOL0     H 7286   7.756   2.873   5.100  4.4344  1.8536  2.4385
   54MOL0     H 7287   7.694   3.042   5.103  1.2135  1.4635 -0.4780
   54MOL0     H 7288   8.126   3.006   5.023 -0.1735 -1.2881 -3.4139
   54MOL0     H 7289   7.637   3.462   4.963 -0.2579  0.7742  1.5894
   54MOL0     H 7290   7.498   3.632   5.045  1.8932 -1.2585 -0.5343
   55MOL0     O 7291   9.084   4.908   5.689  0.4367  0.5125  0.9866
   55MOL0     C 7292   9.117   4.811   5.616  0.3465 -0.6211  0.2664
   55MOL0     O 7293   9.044   4.751   5.522 -0.4658 -0.3906  0.0091
   55MOL0     C 7294   8.910   4.751   5.530  0.7760 -0.0335 -0.3103
   55MOL0     C 7295   8.846   4.757   5.408  0.3835  0.2360  0.2553
   55MOL0     C 7296   8.705   4.771   5.407 -0.1852 -0.3968  0.7319
   55MOL0     C 7297   8.633   4.742   5.526  0.1713  0.2662  0.0136
   55MOL0     O 7298   8.494   4.729   5.534 -0.1654  0.3500  0.6479
   55MOL0     C 7299   8.417   4.846   5.542  0.0702 -0.0632  0.4753
   55MOL0     C 7300   8.270   4.799   5.524  0.6528  0.7077  0.4491
   55MOL0     C 7301   8.192   4.912   5.455 -0.4393 -0.9257  0.1763
   55MOL0     C 7302   8.050   4.868   5.433 -0.8677  0.1324 -0.4182
   55MOL0     C 7303   7.979   4.940   5.323  0.0914  0.4104 -0.4385
   55MOL0     C 7304   7.829   4.897   5.324 -0.0748 -0.1651  0.3443
   55MOL0     C 7305   7.735   4.984   5.239 -0.2101 -0.1935  0.7569
   55MOL0     C 7306   7.767   4.998   5.087 -0.5843  0.0431  1.1393
   55MOL0     N 7307   7.743   4.872   5.019  0.1857 -0.6308  0.1955
   55MOL0     C 7308   7.635   4.842   4.934  0.6245 -0.3994 -0.1621
   55MOL0     C 7309   7.665   4.710   4.900 -1.1362 -1.0551 -0.6914
   55MOL0     C 7310   7.578   4.618   4.815  0.7184 -0.4275  0.1939
   55MOL0     C 7311   7.434   4.633   4.850  0.2799 -0.2801 -0.3396
   55MOL0     C 7312   7.342   4.545   4.770  0.5944 -0.0375  1.2763
   55MOL0     C 7313   7.190   4.572   4.764  0.1127  0.5660 -0.3953
   55MOL0     O 7314   7.150   4.614   4.895  0.5551  0.7658  0.5086
   55MOL0     C 7315   7.017   4.619   4.918  0.7822  0.8447 -0.4464
   55MOL0     C 7316   6.951   4.505   4.955  0.2195 -0.7805  0.1362
   55MOL0     C 7317   6.816   4.504   4.984  0.1034 -0.0528 -0.1191
   55MOL0     C 7318   6.756   4.366   5.010 -0.4026  0.1836  1.3112
   55MOL0     C 7319   6.735   4.619   4.979 -0.9600 -0.5100 -0.7936
   55MOL0     C 7320   6.593   4.625   5.009 -1.1366 -0.8305  0.3169
   55MOL0     O 7321   6.518   4.727   4.949  0.5030  0.0461 -0.5048
   55MOL0     C 7322   6.382   4.732   4.992 -0.0022  0.0819 -0.2723
   55MOL0     C 7323   6.293   4.629   4.993  0.2684  0.0128 -0.3610
   55MOL0     C 7324   6.162   4.642   5.043 -0.2848  0.3482 -0.5048
   55MOL0     C 7325   6.127   4.762   5.106 -1.2318  0.1906  1.1007
   55MOL0     O 7326   6.022   4.754   5.185  0.1073 -0.2330  0.1264
   55MOL0     C 7327   5.973   4.874   5.242  0.3234  0.3189 -0.4090
   55MOL0     C 7328   5.850   4.838   5.333 -0.7305 -0.2779 -0.1853
   55MOL0     C 7329   5.754   4.943   5.356 -0.1228 -0.2557  0.1313
   55MOL0     C 7330   5.674   4.976   5.224 -0.2456 -0.5828  0.6591
   55MOL0     C 7331   5.548   5.063   5.249 -0.6146 -0.0417 -0.5329
   55MOL0     C 7332   5.483   5.109   5.122  0.4463 -0.3104  0.0543
   55MOL0     C 7333   5.364   5.199   5.150  0.8378 -0.0021 -0.2672
   55MOL0     C 7334   5.280   5.236   5.030  0.3491 -0.2230  0.4232
   55MOL0    Cl 7335   5.361   5.318   4.896  0.1226 -0.0735  0.4735
   55MOL0     C 7336   6.215   4.871   5.096 -0.1690 -0.2085 -0.9964
   55MOL0     C 7337   6.343   4.854   5.038  0.9703  1.1216  0.3388
   55MOL0     O 7338   6.552   4.562   5.102 -0.3439  0.9198 -0.0112
   55MOL0     C 7339   6.798   4.735   4.934 -0.3846  0.3792 -0.3605
   55MOL0     C 7340   6.940   4.732   4.911 -0.6750 -0.7482  0.4928
   55MOL0     N 7341   7.790   4.672   4.955 -0.4615 -0.3981  0.1708
   55MOL0     N 7342   7.844   4.775   5.010  0.3582  0.6287 -0.3494
   55MOL0     C 7343   8.700   4.713   5.640  0.7001 -0.8848  0.1289
   55MOL0     C 7344   8.839   4.723   5.646  0.0691 -0.1045 -0.7740
   55MOL0     C 7345   9.251   4.763   5.649 -0.1430  0.2013  1.1843
   55MOL0     C 7346   9.336   4.837   5.733 -0.4702 -0.5258 -0.1238
   55MOL0     C 7347   9.465   4.795   5.775  0.4366  0.5233  0.2455
   55MOL0     C 7348   9.527   4.681   5.720  0.5356 -0.5341 -0.2648
   55MOL0     O 7349   9.652   4.642   5.738 -0.4646  0.0769 -0.2463
   55MOL0     C 7350   9.738   4.733   5.810 -0.3948  0.2997 -0.1751
   55MOL0     C 7351   9.888   4.672   5.812 -0.3511  0.7796  0.1730
   55MOL0     C 7352   9.921   4.585   5.691  0.3624  0.2048 -0.4192
   55MOL0     C 7353  10.038   4.489   5.715 -0.2769  0.3937 -0.3207
   55MOL0     C 7354  10.165   4.558   5.759  0.1219 -0.2793 -0.4329
   55MOL0     C 7355  10.267   4.614   5.798  1.0366 -0.4436 -0.7335
   55MOL0     C 7356   9.444   4.610   5.631 -0.7509  0.6910  0.6625
   55MOL0     C 7357   9.308   4.649   5.593  0.0716 -0.0022  0.4348
   55MOL0     H 7358   8.897   4.759   5.312 -0.8196  0.9838 -0.3945
   55MOL0     H 7359   8.662   4.803   5.313  1.7354 -0.0634 -0.0913
   55MOL0     H 7360   8.430   4.914   5.626 -4.9698  0.4010  1.1839
   55MOL0     H 7361   8.441   4.910   5.456 -1.6721  0.4544  0.3465
   55MOL0     H 7362   8.260   4.714   5.456 -0.7083  2.4567 -1.6656
   55MOL0     H 7363   8.225   4.774   5.620  0.5118 -1.8557 -0.2152
   55MOL0     H 7364   8.196   5.005   5.512 -1.0661 -1.0152  0.3726
   55MOL0     H 7365   8.249   4.946   5.368  0.7701  0.2123  1.3620
   55MOL0     H 7366   8.048   4.761   5.411 -0.0250 -0.3521  1.5470
   55MOL0     H 7367   7.989   4.894   5.520  3.3349  6.3990  1.3685
   55MOL0     H 7368   7.993   5.045   5.350  1.5297  0.6119 -1.8421
   55MOL0     H 7369   8.026   4.913   5.228  1.6620  0.1580  0.3815
   55MOL0     H 7370   7.825   4.794   5.286 -0.6457 -0.6056  1.5557
   55MOL0     H 7371   7.792   4.895   5.426  0.2420  1.5533  0.5165
   55MOL0     H 7372   7.632   4.948   5.250 -0.4347  0.2048  0.0765
   55MOL0     H 7373   7.755   5.082   5.282  3.2179  0.2751 -1.4525
   55MOL0     H 7374   7.869   5.036   5.075 -1.1851  2.5583  3.0941
   55MOL0     H 7375   7.701   5.080   5.060  0.1584  0.2392 -0.1819
   55MOL0     H 7376   7.554   4.907   4.901  1.1892 -0.1492 -1.0744
   55MOL0     H 7377   7.591   4.652   4.712  1.4625  2.3359  1.1068
   55MOL0     H 7378   7.611   4.516   4.838  3.1972  0.6588  1.9521
   55MOL0     H 7379   7.402   4.738   4.844 -1.8359 -0.8005  0.8280
   55MOL0     H 7380   7.432   4.592   4.951  0.2813 -1.2864 -0.7382
   55MOL0     H 7381   7.352   4.444   4.811  0.5448 -0.3067  0.6449
   55MOL0     H 7382   7.374   4.552   4.665 -2.0172  0.2821  0.4114
   55MOL0     H 7383   7.130   4.484   4.738 -2.5227  1.8544  0.8646
   55MOL0     H 7384   7.176   4.658   4.697 -2.3482 -0.0179 -0.7357
   55MOL0     H 7385   7.016   4.418   4.950  3.1061  1.2460 -0.3281
   55MOL0     H 7386   6.686   4.349   4.928  1.0624 -2.0137  0.4142
   55MOL0     H 7387   6.834   4.291   4.995  0.4664  1.5976 -2.6293
   55MOL0     H 7388   6.709   4.352   5.107 -0.2313 -0.8567  1.2499
   55MOL0     H 7389   6.329   4.532   4.960 -1.0277 -1.0113  1.0748
   55MOL0     H 7390   6.096   4.556   5.049  1.3964 -1.1496 -1.9967
   55MOL0     H 7391   6.050   4.926   5.300  0.6618 -0.4138 -0.2001
   55MOL0     H 7392   5.950   4.958   5.175 -0.0431  0.8615  0.3776
   55MOL0     H 7393   5.815   4.741   5.297  2.5201 -1.4234 -0.6178
   55MOL0     H 7394   5.887   4.821   5.434  0.8003  0.2952 -0.6253
   55MOL0     H 7395   5.802   5.034   5.391 -2.4424  0.2880  2.2042
   55MOL0     H 7396   5.683   4.908   5.432  0.4351 -0.4825  0.5513
   55MOL0     H 7397   5.734   5.030   5.151 -0.9226 -0.0023  0.5187
   55MOL0     H 7398   5.644   4.879   5.184 -0.6556  0.3947 -1.5309
   55MOL0     H 7399   5.573   5.153   5.306 -2.2228  0.7743 -1.0516
   55MOL0     H 7400   5.482   5.004   5.313 -0.9791 -0.5995 -1.4079
   55MOL0     H 7401   5.550   5.159   5.052 -0.6252  0.0542 -0.7442
   55MOL0     H 7402   5.444   5.019   5.074  0.4284 -0.5114  0.4431
   55MOL0     H 7403   5.395   5.294   5.196 -0.1336  1.8055 -3.1038
   55MOL0     H 7404   5.294   5.150   5.219  0.0617  1.8584  0.3272
   55MOL0     H 7405   5.202   5.301   5.069  0.1360 -1.1552  1.6047
   55MOL0     H 7406   5.227   5.152   4.985 -0.2735  1.2797 -1.8281
   55MOL0     H 7407   6.184   4.958   5.153 -1.8774 -2.7440  2.2404
   55MOL0     H 7408   6.408   4.939   5.017  0.3049  1.0049 -2.7416
   55MOL0     H 7409   6.742   4.825   4.911 -0.4838  0.3868 -0.0982
   55MOL0     H 7410   6.985   4.829   4.895 -1.1031 -0.6104  0.0974
   55MOL0     H 7411   8.641   4.684   5.727 -1.5647  0.2203 -0.9394
   55MOL0     H 7412   8.884   4.725   5.745 -1.4625  4.6280  0.1179
   55MOL0     H 7413   9.303   4.928   5.782  2.0631  0.6588 -0.4478
   55MOL0     H 7414   9.532   4.852   5.838 -1.9106 -0.1392  3.6417
   55MOL0     H 7415   9.743   4.827   5.754  0.6018  1.0320  1.0887
   55MOL0     H 7416   9.711   4.747   5.916  2.4608 -0.7018  0.7828
   55MOL0     H 7417   9.918   4.619   5.902  0.4803  0.9416  0.0050
   55MOL0     H 7418   9.962   4.753   5.817  1.5210 -0.4564 -3.5100
   55MOL0     H 7419   9.931   4.640   5.596 -1.2013  0.7076 -0.3214
   55MOL0     H 7420   9.835   4.519   5.679  1.6545 -1.2898 -1.8452
   55MOL0     H 7421  10.054   4.433   5.622 -2.1983  0.6457 -0.8436
   55MOL0     H 7422  10.012   4.421   5.796 -0.4234 -0.3490 -0.9713
   55MOL0     H 7423  10.356   4.661   5.834  0.0485 -0.6094  2.1840
   55MOL0     H 7424   9.496   4.530   5.581  0.0551  1.8776 -0.4813
   55MOL0     H 7425   9.252   4.595   5.517 -2.5927  1.7506  1.0236
   56MOL0     O 7426   1.830   3.905  10.991  0.0242  0.4497  0.0384
   56MOL0     C 7427   1.753   3.994  11.029 -0.2737  0.1936 -0.9040
   56MOL0     O 7428   1.638   4.034  10.968  0.4072 -0.3879 -0.2226
   56MOL0     C 7429   1.585   3.982  10.852  1.3001 -0.3658  0.5835
   56MOL0     C 7430   1.444   3.995  10.836 -0.2593 -0.2514 -0.3103
   56MOL0     C 7431   1.380   3.956  10.717  0.0400 -0.2659  0.1912
   56MOL0     C 7432   1.452   3.910  10.614  0.2789  0.8333  0.5492
   56MOL0     O 7433   1.380   3.858  10.509  0.3879 -0.0791  0.3295
   56MOL0     C 7434   1.439   3.860  10.379  0.1869  0.1394 -0.1316
   56MOL0     C 7435   1.332   3.820  10.274 -0.5158  0.5214  0.6569
   56MOL0     C 7436   1.194   3.891  10.301  0.1520  1.0860  0.4498
   56MOL0     C 7437   1.210   4.047  10.291  0.3797 -0.0434  0.1866
   56MOL0     C 7438   1.083   4.119  10.278  0.2911 -0.3232 -0.3604
   56MOL0     C 7439   0.988   4.101  10.399  0.1929  0.1356 -0.6419
   56MOL0     C 7440   0.863   4.184  10.392  0.0727 -0.4864 -0.4561
   56MOL0     C 7441   0.870   4.333  10.437 -0.6511  0.0343  0.3722
   56MOL0     N 7442   0.958   4.420  10.349  0.0883  0.3229 -0.0739
   56MOL0     C 7443   0.939   4.429  10.212  0.1897 -0.5620 -0.8576
   56MOL0     C 7444   1.036   4.513  10.163  0.2806 -0.6148  0.3099
   56MOL0     C 7445   1.035   4.573  10.022  0.3224  1.1094  0.2197
   56MOL0     C 7446   1.138   4.681  10.013 -0.4237  0.4142 -0.0733
   56MOL0     C 7447   1.132   4.773   9.882 -0.3685 -0.5837 -0.4551
   56MOL0     C 7448   1.017   4.871   9.879 -0.2174  0.1143 -0.2020
   56MOL0     O 7449   1.051   4.983   9.967  0.7921  1.0910  0.5777
   56MOL0     C 7450   0.997   5.096   9.908  1.0153  0.2794 -0.5377
   56MOL0     C 7451   0.865   5.128   9.934  0.0776  0.4867  0.0308
   56MOL0     C 7452   0.795   5.239   9.884  0.2730 -0.1065 -0.2607
   56MOL0     C 7453   0.647   5.250   9.893 -0.0598  0.3245 -1.0737
   56MOL0     C 7454   0.877   5.335   9.811  0.4802 -0.1798  0.6076
   56MOL0     C 7455   0.828   5.464   9.755  0.1412 -0.3701 -0.3939
   56MOL0     O 7456   0.718   5.507   9.820 -0.1000  0.3492  0.0690
   56MOL0     C 7457   0.653   5.620   9.767 -0.3186  0.0883  0.1218
   56MOL0     C 7458   0.634   5.722   9.858  0.8088 -0.4117 -0.3085
   56MOL0     C 7459   0.579   5.838   9.820  0.0400  0.0764  0.1858
   56MOL0     C 7460   0.533   5.852   9.683  0.0297 -0.0136 -0.2363
   56MOL0     O 7461   0.475   5.970   9.633 -0.2472  0.0110  0.3238
   56MOL0     C 7462   0.494   6.096   9.698  0.0095 -1.6182 -0.4345
   56MOL0     C 7463   0.378   6.139   9.784  0.0322  0.7579 -0.3985
   56MOL0     C 7464   0.418   6.260   9.869  0.6400 -0.0623  0.6077
   56MOL0     C 7465   0.297   6.334   9.917  0.2388 -0.4861 -0.3212
   56MOL0     C 7466   0.362   6.463   9.969 -0.0400  0.6436 -0.1280
   56MOL0     C 7467   0.247   6.560  10.014 -0.3732 -0.0354 -1.4796
   56MOL0     C 7468   0.273   6.709   9.971  0.2182 -0.4306  0.6602
   56MOL0     C 7469   0.153   6.807   9.999  0.8236 -0.7083 -0.5947
   56MOL0    Cl 7470   0.079   6.788  10.174  0.2113  0.1375 -0.2145
   56MOL0     C 7471   0.547   5.737   9.594  0.4330  0.7446 -0.1170
   56MOL0     C 7472   0.610   5.622   9.638  0.0729  0.3072  0.5911
   56MOL0     O 7473   0.895   5.523   9.672 -0.7224  0.3868  0.6007
   56MOL0     C 7474   0.999   5.296   9.763 -0.1241 -0.9178  0.7185
   56MOL0     C 7475   1.064   5.178   9.814 -0.9256  0.0718  0.3693
   56MOL0     N 7476   1.118   4.543  10.275  0.3205 -0.6670  0.0091
   56MOL0     N 7477   1.070   4.497  10.376 -0.0930  0.5378  0.1445
   56MOL0     C 7478   1.599   3.901  10.626  0.4152 -0.3712  0.4054
   56MOL0     C 7479   1.663   3.943  10.748  0.6387 -0.5263  0.4467
   56MOL0     C 7480   1.785   4.056  11.157  0.6809 -0.1368 -0.2555
   56MOL0     C 7481   1.894   4.005  11.234  0.1486  0.1129  0.2323
   56MOL0     C 7482   1.937   4.081  11.344 -0.3578  0.0701 -0.7498
   56MOL0     C 7483   1.871   4.188  11.390  0.0770 -0.0196 -0.7364
   56MOL0     O 7484   1.914   4.245  11.509  0.0071  0.3169  0.0909
   56MOL0     C 7485   1.957   4.379  11.510  0.5410  0.3059  0.4084
   56MOL0     C 7486   2.087   4.398  11.444 -0.3568  0.8358 -0.2235
   56MOL0     C 7487   2.199   4.318  11.503  0.1295 -0.2992  0.0452
   56MOL0     C 7488   2.323   4.348  11.426 -1.0463 -0.2083  0.4825
   56MOL0     C 7489   2.324   4.283  11.291 -0.3226 -0.0192 -0.4286
   56MOL0     C 7490   2.334   4.209  11.202 -0.0812 -0.7843  0.7550
   56MOL0     C 7491   1.754   4.230  11.327 -0.7296 -0.3625 -0.5077
   56MOL0     C 7492   1.710   4.160  11.218  0.9262 -0.5370  0.0427
   56MOL0     H 7493   1.385   4.029  10.921 -0.4369  0.6981 -0.7983
   56MOL0     H 7494   1.275   3.986  10.716  1.3431  5.7456  2.0468
   56MOL0     H 7495   1.476   3.962  10.367 -0.3558  0.2251 -1.1051
   56MOL0     H 7496   1.525   3.792  10.378  0.9825  1.0923 -2.6972
   56MOL0     H 7497   1.380   3.848  10.180  1.8675 -0.7995  1.3769
   56MOL0     H 7498   1.310   3.713  10.279  1.1387  0.1196 -0.0835
   56MOL0     H 7499   1.118   3.846  10.237 -0.0763  0.2729  1.2767
   56MOL0     H 7500   1.159   3.869  10.402  2.5234 -0.1280  1.0817
   56MOL0     H 7501   1.265   4.076  10.381  0.8947 -0.3492 -0.0235
   56MOL0     H 7502   1.280   4.074  10.211 -0.3071 -4.1742 -2.1251
   56MOL0     H 7503   1.104   4.226  10.274 -1.2229 -0.0305 -2.4785
   56MOL0     H 7504   1.034   4.096  10.182  0.3476 -0.8166 -0.2756
   56MOL0     H 7505   0.959   3.996  10.391  0.1932  0.1672 -1.0938
   56MOL0     H 7506   1.040   4.124  10.493 -0.7885 -3.0683  0.8126
   56MOL0     H 7507   0.820   4.185  10.291 -1.5911  0.0074  0.2237
   56MOL0     H 7508   0.793   4.133  10.458 -1.0865  0.9617 -0.5316
   56MOL0     H 7509   0.903   4.345  10.541  0.2126  1.0952 -0.0109
   56MOL0     H 7510   0.766   4.366  10.439 -0.4962  0.8518 -2.0127
   56MOL0     H 7511   0.857   4.375  10.166 -2.4327  1.0663  1.5708
   56MOL0     H 7512   1.068   4.487   9.962 -0.3320  0.2994  0.9955
   56MOL0     H 7513   0.932   4.603  10.003  0.7516  2.6527  0.2013
   56MOL0     H 7514   1.239   4.642  10.023 -0.3427  0.9620  1.5436
   56MOL0     H 7515   1.137   4.751  10.097 -0.9970  1.5392 -0.9830
   56MOL0     H 7516   1.118   4.697   9.805 -0.3545 -0.4588 -0.5803
   56MOL0     H 7517   1.220   4.837   9.870 -0.2328 -0.5823  0.4937
   56MOL0     H 7518   0.922   4.821   9.899  0.0948 -0.8764 -1.1357
   56MOL0     H 7519   1.021   4.896   9.773 -0.9446 -1.3315 -0.5865
   56MOL0     H 7520   0.813   5.064  10.005  0.1371  0.5494  0.1317
   56MOL0     H 7521   0.608   5.150   9.914 -1.3290  0.8488 -0.8804
   56MOL0     H 7522   0.616   5.304   9.982  0.1527 -0.7471 -0.3192
   56MOL0     H 7523   0.599   5.280   9.800 -1.6723 -0.4550 -0.5306
   56MOL0     H 7524   0.640   5.704   9.964  2.2077 -2.8153 -0.7237
   56MOL0     H 7525   0.545   5.910   9.893 -0.3317  0.2107 -0.1148
   56MOL0     H 7526   0.586   6.103   9.757  0.3409  2.8951 -1.1582
   56MOL0     H 7527   0.516   6.172   9.623  1.9501 -0.7635  0.9069
   56MOL0     H 7528   0.292   6.161   9.720 -0.5808 -1.4975 -0.4267
   56MOL0     H 7529   0.335   6.057   9.843  2.7103 -2.0237 -1.9896
   56MOL0     H 7530   0.477   6.331   9.812  0.3650 -0.9480 -0.8187
   56MOL0     H 7531   0.482   6.227   9.952 -1.4285  3.5080  3.9894
   56MOL0     H 7532   0.234   6.370   9.835 -2.1588  0.0155  1.6149
   56MOL0     H 7533   0.245   6.281   9.997  1.1844  0.6216  1.0740
   56MOL0     H 7534   0.418   6.504   9.885 -1.9752 -1.9002 -2.8994
   56MOL0     H 7535   0.429   6.438  10.051  1.0814  0.6186 -1.0171
   56MOL0     H 7536   0.150   6.534   9.971  0.0710  0.5038 -2.8575
   56MOL0     H 7537   0.246   6.556  10.124  0.0749 -0.3675 -1.4880
   56MOL0     H 7538   0.293   6.711   9.863 -0.0510 -0.5693  0.6050
   56MOL0     H 7539   0.363   6.736  10.026  0.1873 -1.2487  1.1297
   56MOL0     H 7540   0.073   6.797   9.925 -2.5780  3.1298  2.1389
   56MOL0     H 7541   0.193   6.908   9.983  2.4358 -1.3632 -0.8820
   56MOL0     H 7542   0.491   5.748   9.501 -1.3159 -0.7761  0.6864
   56MOL0     H 7543   0.620   5.535   9.573 -3.4604  1.0697 -1.2305
   56MOL0     H 7544   1.053   5.350   9.685 -0.6319 -1.6187 -0.1388
   56MOL0     H 7545   1.164   5.152   9.781 -2.0476 -2.9051 -1.0624
   56MOL0     H 7546   1.662   3.872  10.542 -4.3605 -0.9016 -3.5082
   56MOL0     H 7547   1.771   3.941  10.758  0.5928  2.1137  2.5524
   56MOL0     H 7548   1.960   3.923  11.207  2.3571  1.5845  0.8342
   56MOL0     H 7549   2.024   4.043  11.396 -0.5160  0.3077 -0.3007
   56MOL0     H 7550   1.878   4.439  11.465 -0.7224 -0.7706  1.1150
   56MOL0     H 7551   1.972   4.408  11.614 -0.2021  2.4399 -0.0402
   56MOL0     H 7552   2.117   4.503  11.436  0.0799  0.8866  1.6738
   56MOL0     H 7553   2.065   4.369  11.341 -1.7884 -0.2728  0.3702
   56MOL0     H 7554   2.172   4.212  11.503 -1.4883  0.0685 -0.7026
   56MOL0     H 7555   2.219   4.355  11.604 -1.4530 -1.5464  0.8730
   56MOL0     H 7556   2.412   4.311  11.479  0.7513  2.0316 -0.8005
   56MOL0     H 7557   2.337   4.456  11.417  0.7123 -0.4232  0.1911
   56MOL0     H 7558   2.364   4.153  11.116  0.4378 -0.3581  0.6484
   56MOL0     H 7559   1.705   4.318  11.368 -2.0316 -2.2195  2.2592
   56MOL0     H 7560   1.614   4.191  11.176  1.7046  1.9002 -0.1171
   57MOL0     O 7561   0.441   4.784   2.514  0.7712  0.5812 -0.2437
   57MOL0     C 7562   0.528   4.712   2.465 -0.8227 -0.4787  0.4033
   57MOL0     O 7563   0.517   4.651   2.340 -0.8994 -0.0732 -0.1498
   57MOL0     C 7564   0.395   4.658   2.279  1.2626 -0.3849 -0.1550
   57MOL0     C 7565   0.281   4.607   2.342  0.3339 -1.4769 -1.1804
   57MOL0     C 7566   0.156   4.614   2.279  0.2827 -0.2637  0.1419
   57MOL0     C 7567   0.136   4.670   2.150 -0.5249  0.2547 -0.4468
   57MOL0     O 7568   0.016   4.667   2.081 -0.2376 -0.1789 -0.1900
   57MOL0     C 7569  -0.039   4.538   2.078  0.0226  0.2243  0.2880
   57MOL0     C 7570  -0.101   4.531   1.940  0.5311  0.2273  0.0461
   57MOL0     C 7571  -0.164   4.395   1.906 -1.0737 -0.6123 -0.0711
   57MOL0     C 7572  -0.194   4.383   1.760 -0.3366  0.0971  0.4434
   57MOL0     C 7573  -0.261   4.246   1.741 -0.2828 -0.1388 -0.3214
   57MOL0     C 7574  -0.315   4.238   1.591 -0.2050 -0.5194  0.2068
   57MOL0     C 7575  -0.413   4.122   1.563 -0.5626 -0.2465  0.0200
   57MOL0     C 7576  -0.557   4.142   1.614 -0.0712 -0.1892 -0.6633
   57MOL0     N 7577  -0.561   4.122   1.760  0.9141  0.1004 -1.1100
   57MOL0     C 7578  -0.508   4.020   1.844 -0.0448  0.0898 -0.3314
   57MOL0     C 7579  -0.542   4.063   1.968  0.2034  0.7381 -0.4159
   57MOL0     C 7580  -0.508   3.995   2.102 -0.3939  0.0018 -0.2399
   57MOL0     C 7581  -0.363   3.941   2.112  0.3584  0.2303 -0.4127
   57MOL0     C 7582  -0.252   4.043   2.088 -0.3041 -1.5512  0.5001
   57MOL0     C 7583  -0.111   3.988   2.138 -0.1768 -0.7665  0.6969
   57MOL0     O 7584  -0.002   4.073   2.104 -0.7405  0.3840 -0.3253
   57MOL0     C 7585   0.116   4.010   2.157  0.5089 -0.3216 -0.2864
   57MOL0     C 7586   0.194   3.950   2.062 -0.3516  0.4580  0.6237
   57MOL0     C 7587   0.309   3.876   2.090  0.5136 -0.2751  0.0870
   57MOL0     C 7588   0.391   3.817   1.978  0.7105 -0.5742  0.2012
   57MOL0     C 7589   0.342   3.854   2.226  0.3045  0.6861 -0.7243
   57MOL0     C 7590   0.447   3.763   2.273 -0.0630  0.0692  0.1034
   57MOL0     O 7591   0.456   3.757   2.408  0.2194  0.4872 -0.3365
   57MOL0     C 7592   0.539   3.667   2.474 -0.4094 -0.0480 -0.3238
   57MOL0     C 7593   0.678   3.671   2.466 -0.3195 -0.9240  0.2711
   57MOL0     C 7594   0.754   3.580   2.537  0.0384 -0.3014 -0.0860
   57MOL0     C 7595   0.699   3.472   2.606  0.0820 -0.7803 -0.5395
   57MOL0     O 7596   0.767   3.363   2.668 -0.0261 -0.2996  0.4524
   57MOL0     C 7597   0.865   3.303   2.589  0.2186  0.0601  1.0219
   57MOL0     C 7598   0.951   3.218   2.681 -1.2059  0.7216 -1.1924
   57MOL0     C 7599   1.024   3.115   2.595  0.3691  0.4397 -0.3464
   57MOL0     C 7600   1.119   3.040   2.691 -0.7900  0.3667 -0.5573
   57MOL0     C 7601   1.197   2.938   2.616 -0.5797  0.2781  0.3487
   57MOL0     C 7602   1.327   2.911   2.694 -0.2225  0.1180  1.0030
   57MOL0     C 7603   1.419   2.810   2.627  0.8293  0.2799  0.3473
   57MOL0     C 7604   1.534   2.783   2.707  0.2931  0.3480 -0.3016
   57MOL0    Cl 7605   1.664   2.694   2.644  0.1970  0.0800 -0.0159
   57MOL0     C 7606   0.556   3.457   2.611 -0.2017 -0.4595  0.7970
   57MOL0     C 7607   0.488   3.558   2.550  0.7625 -0.4157 -0.3262
   57MOL0     O 7608   0.520   3.711   2.195  0.8639  0.8974  0.1747
   57MOL0     C 7609   0.276   3.930   2.326  0.8467  0.2537  0.1986
   57MOL0     C 7610   0.154   3.996   2.295 -1.0021 -0.6159 -0.0070
   57MOL0     N 7611  -0.596   4.188   1.967  1.3695  0.2493 -0.2416
   57MOL0     N 7612  -0.611   4.216   1.838  0.1601 -0.2829 -0.3787
   57MOL0     C 7613   0.252   4.716   2.094  0.5713  0.0478 -0.3065
   57MOL0     C 7614   0.375   4.714   2.154  0.1347  0.7821  0.1625
   57MOL0     C 7615   0.648   4.696   2.544 -0.2467 -1.0633  0.1239
   57MOL0     C 7616   0.772   4.710   2.483  0.1769 -0.0111 -0.2046
   57MOL0     C 7617   0.898   4.701   2.551 -0.5490  0.2558  0.1476
   57MOL0     C 7618   0.900   4.643   2.680  0.2414 -0.1636  0.4335
   57MOL0     O 7619   1.017   4.611   2.749  0.1074  0.4404 -0.1786
   57MOL0     C 7620   1.132   4.652   2.686 -0.0823  0.0535 -0.6629
   57MOL0     C 7621   1.243   4.609   2.772  0.6308  0.3583  0.6240
   57MOL0     C 7622   1.377   4.640   2.708  0.2954 -0.1890 -0.2469
   57MOL0     C 7623   1.481   4.535   2.750 -0.2043  0.8713 -0.2079
   57MOL0     C 7624   1.491   4.423   2.662 -0.4861 -0.0507 -1.0007
   57MOL0     C 7625   1.484   4.324   2.595  0.5451 -0.0936  0.3999
   57MOL0     C 7626   0.775   4.623   2.737 -0.0013  0.5268 -0.1717
   57MOL0     C 7627   0.653   4.662   2.681 -0.1013  0.1319 -0.0640
   57MOL0     H 7628   0.282   4.561   2.440 -1.8413  0.6433 -0.0443
   57MOL0     H 7629   0.072   4.575   2.334  0.3858 -0.4777  0.1488
   57MOL0     H 7630   0.044   4.466   2.084 -0.0092  0.0866 -0.7540
   57MOL0     H 7631  -0.099   4.521   2.168  1.5323 -1.3631  1.0603
   57MOL0     H 7632  -0.183   4.603   1.927 -0.1873 -0.7271 -0.8963
   57MOL0     H 7633  -0.033   4.555   1.858  0.4779 -0.0750 -0.0870
   57MOL0     H 7634  -0.098   4.310   1.924 -1.4201 -1.2207 -1.5177
   57MOL0     H 7635  -0.258   4.381   1.958 -1.0817 -5.1115 -0.8937
   57MOL0     H 7636  -0.262   4.461   1.726  0.8949  0.2475 -1.8835
   57MOL0     H 7637  -0.109   4.401   1.694 -0.6667  0.5077  0.1225
   57MOL0     H 7638  -0.183   4.168   1.744  0.3439  0.2582 -3.2764
   57MOL0     H 7639  -0.324   4.205   1.821 -1.3959  0.1811 -1.0147
   57MOL0     H 7640  -0.360   4.333   1.560  0.9208 -0.4474 -1.2821
   57MOL0     H 7641  -0.231   4.238   1.521  2.7016  1.1499  3.3973
   57MOL0     H 7642  -0.422   4.100   1.456  0.6958 -3.0568  0.4045
   57MOL0     H 7643  -0.385   4.033   1.620 -1.4972  0.6531  1.9899
   57MOL0     H 7644  -0.626   4.070   1.569  0.4335 -2.4250  1.9092
   57MOL0     H 7645  -0.579   4.247   1.594  0.8145 -0.1485 -1.4903
   57MOL0     H 7646  -0.453   3.928   1.826 -2.1834 -1.2078 -0.5788
   57MOL0     H 7647  -0.529   4.076   2.172  3.2734  1.4186 -0.5509
   57MOL0     H 7648  -0.580   3.918   2.129 -0.0996 -0.6800 -1.3463
   57MOL0     H 7649  -0.353   3.849   2.055 -2.4168 -1.9470  2.2218
   57MOL0     H 7650  -0.361   3.913   2.218  0.9381 -3.9941 -1.4015
   57MOL0     H 7651  -0.269   4.136   2.142  0.8619 -1.5204  0.8499
   57MOL0     H 7652  -0.249   4.069   1.982 -1.2249  1.4842  1.1442
   57MOL0     H 7653  -0.102   3.887   2.098  0.5187 -0.0651 -1.0323
   57MOL0     H 7654  -0.125   3.984   2.246  2.1896 -0.5325  1.0747
   57MOL0     H 7655   0.154   3.968   1.962 -1.7383 -2.0456  0.6259
   57MOL0     H 7656   0.367   3.710   1.985 -1.7526 -0.0864  0.0648
   57MOL0     H 7657   0.365   3.863   1.883 -2.8445 -0.1298  1.2688
   57MOL0     H 7658   0.496   3.838   1.999  1.0272 -2.1285  0.3242
   57MOL0     H 7659   0.741   3.734   2.403 -0.5544 -1.5014 -0.5630
   57MOL0     H 7660   0.862   3.581   2.534  0.1271 -0.6698  1.7222
   57MOL0     H 7661   0.807   3.252   2.511 -1.0173  1.3189  1.0634
   57MOL0     H 7662   0.932   3.366   2.529  0.0888 -0.2296  0.5617
   57MOL0     H 7663   1.018   3.280   2.741 -2.6296  0.1428  1.1710
   57MOL0     H 7664   0.885   3.161   2.747  0.5644  0.1367  0.1412
   57MOL0     H 7665   1.080   3.170   2.519  0.5851  0.4169 -0.2079
   57MOL0     H 7666   0.952   3.047   2.548  1.2600  0.5975 -2.0377
   57MOL0     H 7667   1.179   3.118   2.741 -1.4459  0.7473 -0.3471
   57MOL0     H 7668   1.070   2.989   2.774  0.9450 -0.5938 -0.0786
   57MOL0     H 7669   1.226   2.957   2.512  2.3089  0.0124  1.0311
   57MOL0     H 7670   1.136   2.847   2.613 -2.0307  1.2136 -2.3218
   57MOL0     H 7671   1.381   3.006   2.692  1.2297 -0.6899 -0.9680
   57MOL0     H 7672   1.293   2.892   2.796 -1.0013 -1.1147  0.5315
   57MOL0     H 7673   1.444   2.859   2.533 -1.3279 -0.0319 -0.4520
   57MOL0     H 7674   1.367   2.716   2.606  1.4049  0.0981 -0.2805
   57MOL0     H 7675   1.509   2.732   2.800  0.9197 -1.2250 -0.9724
   57MOL0     H 7676   1.580   2.875   2.745  1.7534  0.0254 -1.2192
   57MOL0     H 7677   0.513   3.367   2.654  2.3931 -1.4922  1.4038
   57MOL0     H 7678   0.381   3.542   2.547  0.3634  1.1117  2.5103
   57MOL0     H 7679   0.286   3.926   2.434 -4.1974 -0.2637  0.8852
   57MOL0     H 7680   0.095   4.029   2.380  1.8982 -0.2513  2.0400
   57MOL0     H 7681   0.245   4.751   1.991 -0.8898 -1.0224 -0.6106
   57MOL0     H 7682   0.468   4.749   2.109 -0.3400  0.6315 -0.9488
   57MOL0     H 7683   0.790   4.736   2.379 -1.0624 -1.3328 -0.7892
   57MOL0     H 7684   0.984   4.741   2.500  0.9002 -1.7296  0.8827
   57MOL0     H 7685   1.146   4.601   2.590  1.5211  1.0358 -0.9981
   57MOL0     H 7686   1.147   4.759   2.669 -0.0779 -0.1520 -2.0842
   57MOL0     H 7687   1.227   4.501   2.776 -0.6338  0.5069  0.0598
   57MOL0     H 7688   1.239   4.658   2.870  1.8526 -0.6685  1.2184
   57MOL0     H 7689   1.401   4.743   2.733 -3.5944  2.3556 -5.1313
   57MOL0     H 7690   1.369   4.651   2.599 -1.3070  5.3529  0.1162
   57MOL0     H 7691   1.471   4.496   2.852 -0.0108  0.0868 -0.4833
   57MOL0     H 7692   1.575   4.590   2.754 -1.4600  3.0576  1.4028
   57MOL0     H 7693   1.475   4.240   2.530 -1.3575  2.4078 -2.9127
   57MOL0     H 7694   0.776   4.567   2.830 -0.7887 -0.9003 -0.9899
   57MOL0     H 7695   0.568   4.662   2.749  0.2190  0.5603  0.3403
   58MOL0     O 7696   2.362   8.890   3.961 -0.6229  0.2604 -0.9321
   58MOL0     C 7697   2.316   8.926   4.068 -0.2766 -0.3680 -0.1165
   58MOL0     O 7698   2.182   8.969   4.094  0.0899  0.2471 -0.0969
   58MOL0     C 7699   2.102   8.980   3.988  0.2941  0.3755  0.0306
   58MOL0     C 7700   2.110   9.099   3.914 -1.1737  0.3177 -1.2483
   58MOL0     C 7701   2.017   9.107   3.819  0.9223 -0.4374  0.3785
   58MOL0     C 7702   1.912   9.011   3.795 -0.1264 -0.1728  0.9588
   58MOL0     O 7703   1.824   9.038   3.697 -0.5559 -0.3420 -0.3706
   58MOL0     C 7704   1.692   9.005   3.724  0.7884 -0.5290  0.0969
   58MOL0     C 7705   1.601   9.090   3.649 -0.1520  0.3994 -0.6468
   58MOL0     C 7706   1.459   9.071   3.698  0.6384 -0.1238  0.5495
   58MOL0     C 7707   1.349   9.118   3.598  0.4409 -0.5744 -0.3998
   58MOL0     C 7708   1.213   9.110   3.664 -0.4049  0.7174 -0.5871
   58MOL0     C 7709   1.107   9.149   3.563  0.0496  0.2935 -0.1736
   58MOL0     C 7710   0.971   9.165   3.630 -0.1601  0.5808  0.3891
   58MOL0     C 7711   0.911   9.028   3.667 -0.9418 -0.8083  0.5049
   58MOL0     N 7712   0.791   9.059   3.754 -1.1593  0.5648  1.0793
   58MOL0     C 7713   0.661   9.080   3.716  0.2813 -0.0405  0.6118
   58MOL0     C 7714   0.601   9.081   3.828  0.6213  0.1020 -0.0384
   58MOL0     C 7715   0.447   9.091   3.833 -0.4471  0.0851 -0.4994
   58MOL0     C 7716   0.396   9.221   3.886 -0.5538 -0.8689 -0.0073
   58MOL0     C 7717   0.245   9.228   3.880 -0.3213 -0.0683 -0.3988
   58MOL0     C 7718   0.194   9.254   3.741 -0.2436  0.0944  0.4604
   58MOL0     O 7719   0.054   9.227   3.732  0.4339  0.6327 -0.0528
   58MOL0     C 7720  -0.034   9.327   3.767  0.3976 -0.2805 -0.0039
   58MOL0     C 7721   0.000   9.452   3.821  0.1115 -0.7110  0.3113
   58MOL0     C 7722  -0.096   9.538   3.867 -0.8903  0.5904  0.6801
   58MOL0     C 7723  -0.046   9.648   3.963 -0.5443 -0.2485 -0.5787
   58MOL0     C 7724  -0.230   9.505   3.847 -0.3165 -0.5972 -0.4909
   58MOL0     C 7725  -0.344   9.582   3.903  0.5240  0.1937  0.6159
   58MOL0     O 7726  -0.459   9.512   3.908 -0.4503 -0.0148  0.1531
   58MOL0     C 7727  -0.575   9.562   3.969 -0.0006  0.6010  0.5169
   58MOL0     C 7728  -0.608   9.695   3.947 -0.8977  0.6116  0.4235
   58MOL0     C 7729  -0.723   9.754   4.012 -0.9252  0.2114  0.8890
   58MOL0     C 7730  -0.809   9.674   4.090 -0.2569  0.0715 -0.9675
   58MOL0     O 7731  -0.910   9.741   4.155  0.0591  0.8128 -0.4141
   58MOL0     C 7732  -0.983   9.678   4.272  0.6941 -0.1388  0.0507
   58MOL0     C 7733  -1.121   9.616   4.234  0.9091  0.4084  0.4834
   58MOL0     C 7734  -1.216   9.592   4.347 -0.3199  0.9145 -0.1821
   58MOL0     C 7735  -1.354   9.550   4.309  0.0183  0.0249 -0.1770
   58MOL0     C 7736  -1.362   9.421   4.232 -0.9073  0.8316 -0.0748
   58MOL0     C 7737  -1.498   9.353   4.257  0.3254 -0.4989 -0.2186
   58MOL0     C 7738  -1.535   9.216   4.188  0.0088 -0.3854  0.4474
   58MOL0     C 7739  -1.443   9.101   4.223 -1.1038 -0.0217  0.0798
   58MOL0    Cl 7740  -1.340   9.058   4.092 -0.6829  0.0073 -0.2641
   58MOL0     C 7741  -0.780   9.539   4.098 -0.4828 -0.3373 -0.3110
   58MOL0     C 7742  -0.657   9.484   4.054 -0.3415  0.1149  0.4003
   58MOL0     O 7743  -0.325   9.697   3.948  0.9242 -0.6599  0.6071
   58MOL0     C 7744  -0.262   9.384   3.779  0.8654  0.1611 -0.2775
   58MOL0     C 7745  -0.170   9.291   3.747 -0.3903 -0.3348  0.0702
   58MOL0     N 7746   0.690   9.047   3.931 -0.0194 -0.2283  0.2620
   58MOL0     N 7747   0.805   9.042   3.884  0.4601  0.7507 -0.1644
   58MOL0     C 7748   1.901   8.899   3.878 -0.0305  0.2399  0.1077
   58MOL0     C 7749   1.996   8.887   3.980 -0.9720 -0.1795 -0.2297
   58MOL0     C 7750   2.395   8.881   4.184  0.2775  0.1240  0.5390
   58MOL0     C 7751   2.532   8.864   4.185 -0.4858  0.3820  0.8541
   58MOL0     C 7752   2.603   8.852   4.300  0.4633  0.1501 -0.4322
   58MOL0     C 7753   2.538   8.843   4.422  0.5059 -0.4127  0.0617
   58MOL0     O 7754   2.620   8.839   4.525  0.2343 -0.6039 -0.5007
   58MOL0     C 7755   2.563   8.862   4.650 -0.2064 -0.2788 -0.0776
   58MOL0     C 7756   2.669   8.889   4.762  0.1760 -0.2623  0.2536
   58MOL0     C 7757   2.596   8.913   4.901 -0.2148  0.6267  0.6316
   58MOL0     C 7758   2.694   8.919   5.019 -0.2648  0.1282 -0.5227
   58MOL0     C 7759   2.788   9.032   5.020  0.0911 -0.0188  1.0303
   58MOL0     C 7760   2.862   9.121   5.028 -0.6208  0.4797 -0.4257
   58MOL0     C 7761   2.394   8.856   4.424  0.4190 -0.0489 -0.2983
   58MOL0     C 7762   2.323   8.866   4.303  0.0493  0.3169 -0.9169
   58MOL0     H 7763   2.198   9.161   3.928 -0.4865 -0.7465 -0.7188
   58MOL0     H 7764   2.016   9.201   3.765 -1.3137 -0.0548  1.0216
   58MOL0     H 7765   1.660   8.909   3.683  3.5773 -1.7560  0.5881
   58MOL0     H 7766   1.670   9.009   3.831  0.5389  0.5363  0.0223
   58MOL0     H 7767   1.634   9.193   3.665  2.7503 -0.4077 -0.8505
   58MOL0     H 7768   1.596   9.068   3.542 -4.1661  1.0709 -0.7566
   58MOL0     H 7769   1.439   8.970   3.735  0.1675  0.2080  1.2326
   58MOL0     H 7770   1.462   9.132   3.789  3.8554  0.6971  0.0163
   58MOL0     H 7771   1.369   9.220   3.564 -0.1234 -0.4275 -0.2914
   58MOL0     H 7772   1.352   9.049   3.513  0.2817 -0.7343 -0.2748
   58MOL0     H 7773   1.190   9.005   3.687  0.1683  1.0286  1.5883
   58MOL0     H 7774   1.194   9.169   3.754  0.4613 -2.2864  1.7129
   58MOL0     H 7775   1.130   9.247   3.520  0.3130 -0.3410 -1.5218
   58MOL0     H 7776   1.107   9.079   3.479 -1.3556  0.3346 -0.2331
   58MOL0     H 7777   0.983   9.226   3.721 -1.7713  0.0873  0.9701
   58MOL0     H 7778   0.900   9.212   3.563  0.4606  3.0268  1.3504
   58MOL0     H 7779   0.986   8.977   3.728 -0.1237  0.5823  0.7016
   58MOL0     H 7780   0.878   8.965   3.584  0.5248  0.3919 -1.0513
   58MOL0     H 7781   0.619   9.088   3.616 -1.6596  1.7319  1.5076
   58MOL0     H 7782   0.406   9.070   3.734 -0.9483 -0.4181 -0.1945
   58MOL0     H 7783   0.406   9.010   3.894 -2.8489 -0.7457 -3.0050
   58MOL0     H 7784   0.431   9.302   3.822 -0.4454 -0.4555  0.5767
   58MOL0     H 7785   0.438   9.240   3.985  3.3340 -0.4309 -1.5305
   58MOL0     H 7786   0.208   9.307   3.945 -0.6992 -0.7482  0.2253
   58MOL0     H 7787   0.200   9.135   3.915 -0.3175  0.0350 -0.1258
   58MOL0     H 7788   0.251   9.191   3.672 -2.5234  0.0415 -1.5327
   58MOL0     H 7789   0.220   9.356   3.710  2.0200  0.3892  3.0270
   58MOL0     H 7790   0.102   9.491   3.825 -0.1180 -0.0904  0.3167
   58MOL0     H 7791   0.053   9.635   4.006 -1.0973  1.6627  1.4595
   58MOL0     H 7792  -0.043   9.744   3.911 -1.6492 -0.6619 -1.4399
   58MOL0     H 7793  -0.106   9.648   4.055  1.7577  1.2717  1.0306
   58MOL0     H 7794  -0.542   9.750   3.881 -0.7059 -1.7196 -1.4703
   58MOL0     H 7795  -0.732   9.861   3.996 -0.8404 -0.1642 -2.3549
   58MOL0     H 7796  -0.924   9.595   4.312  1.4646  0.5278  0.3349
   58MOL0     H 7797  -1.000   9.758   4.345 -0.2724 -0.3825  0.1156
   58MOL0     H 7798  -1.166   9.682   4.159  0.4067  0.0136  0.4357
   58MOL0     H 7799  -1.109   9.516   4.190 -1.6598  0.2758 -0.0512
   58MOL0     H 7800  -1.221   9.683   4.408 -1.6326  1.3036 -0.8350
   58MOL0     H 7801  -1.175   9.512   4.410 -0.6874  1.7402  1.1591
   58MOL0     H 7802  -1.414   9.540   4.400  1.9427 -0.1903  1.1563
   58MOL0     H 7803  -1.408   9.622   4.248 -2.1796 -1.2796  0.1257
   58MOL0     H 7804  -1.282   9.350   4.253 -0.8295  1.4776  1.9704
   58MOL0     H 7805  -1.350   9.452   4.128 -1.1822  1.5169  0.0932
   58MOL0     H 7806  -1.508   9.333   4.364  3.0286 -3.2534 -0.3488
   58MOL0     H 7807  -1.576   9.428   4.241  0.2590 -0.9168 -2.1003
   58MOL0     H 7808  -1.548   9.234   4.081 -1.4415  4.4669  1.2149
   58MOL0     H 7809  -1.629   9.174   4.228  0.6420 -3.1596 -0.7355
   58MOL0     H 7810  -1.498   9.011   4.253  0.4856 -0.9523  0.3013
   58MOL0     H 7811  -1.390   9.131   4.314 -0.2985 -3.1695  0.7936
   58MOL0     H 7812  -0.842   9.477   4.163 -1.6328  1.7589  0.7105
   58MOL0     H 7813  -0.637   9.379   4.069  0.6738  0.4007  1.0829
   58MOL0     H 7814  -0.360   9.364   3.737 -0.0677 -0.7650  2.1865
   58MOL0     H 7815  -0.206   9.202   3.697 -0.9429  0.4161 -0.9183
   58MOL0     H 7816   1.824   8.824   3.862  0.1081 -0.5018  2.5872
   58MOL0     H 7817   1.995   8.804   4.050 -1.7873  1.8838  2.3572
   58MOL0     H 7818   2.586   8.868   4.091 -0.4694  0.6126  0.8745
   58MOL0     H 7819   2.710   8.843   4.292  0.5142  0.6635 -0.3599
   58MOL0     H 7820   2.503   8.952   4.646 -2.2955 -1.6514 -1.3387
   58MOL0     H 7821   2.504   8.774   4.679 -0.2827 -0.0785  0.3918
   58MOL0     H 7822   2.722   8.981   4.735 -0.4036  0.7934  2.5001
   58MOL0     H 7823   2.744   8.810   4.758  0.9709  0.4960 -0.3791
   58MOL0     H 7824   2.529   8.830   4.925  0.8229 -0.9559 -1.5635
   58MOL0     H 7825   2.552   9.013   4.898  2.9832  2.2632  2.6306
   58MOL0     H 7826   2.752   8.827   5.008  1.6024  1.3580 -1.4256
   58MOL0     H 7827   2.637   8.911   5.113  0.5018  1.8581  0.1359
   58MOL0     H 7828   2.936   9.199   5.035  2.0732 -2.0322  1.5630
   58MOL0     H 7829   2.336   8.862   4.515  2.6507 -2.2400  1.3829
   58MOL0     H 7830   2.216   8.882   4.302 -0.2515 -1.4087 -1.9516
   59MOL0     O 7831   0.954   2.806   1.215  0.5400  0.2700  0.5896
   59MOL0     C 7832   1.048   2.727   1.185  0.5042 -0.1437 -0.1109
   59MOL0     O 7833   1.024   2.603   1.142 -0.5346  0.6283  0.1230
   59MOL0     C 7834   0.896   2.554   1.130  0.0542 -0.5711  0.9359
   59MOL0     C 7835   0.826   2.496   1.237 -0.0357  0.5303 -0.0884
   59MOL0     C 7836   0.696   2.449   1.223  1.0620 -0.1174  0.0619
   59MOL0     C 7837   0.616   2.463   1.109  0.1848  0.0585  0.3746
   59MOL0     O 7838   0.484   2.420   1.109 -0.3971  0.5326  0.4986
   59MOL0     C 7839   0.388   2.492   1.026 -0.3008  0.1041  0.2004
   59MOL0     C 7840   0.239   2.454   1.069 -1.1319 -0.3633  0.2129
   59MOL0     C 7841   0.132   2.500   0.972  0.0533 -0.0232  0.2517
   59MOL0     C 7842   0.001   2.442   0.997 -0.4704  0.5184  0.2862
   59MOL0     C 7843  -0.096   2.477   0.887 -0.0560  0.1548 -0.2260
   59MOL0     C 7844  -0.224   2.391   0.882  0.4048 -0.7245 -1.5051
   59MOL0     C 7845  -0.315   2.427   0.765  0.3054 -0.1403 -0.2568
   59MOL0     C 7846  -0.256   2.404   0.626 -0.4104 -0.2855  0.4227
   59MOL0     N 7847  -0.347   2.419   0.511  0.0934 -0.1311 -0.0911
   59MOL0     C 7848  -0.409   2.316   0.444 -1.0888 -1.1129  0.5062
   59MOL0     C 7849  -0.485   2.377   0.354  0.1677 -0.1738  0.1197
   59MOL0     C 7850  -0.567   2.311   0.237 -0.4299 -0.6874 -0.4448
   59MOL0     C 7851  -0.715   2.352   0.251  0.2258 -0.8041 -0.0805
   59MOL0     C 7852  -0.796   2.292   0.132 -0.8414  0.1498 -0.6773
   59MOL0     C 7853  -0.936   2.350   0.113 -0.3216 -0.3004  0.7540
   59MOL0     O 7854  -1.012   2.277   0.013  0.3965 -0.7857 -0.4163
   59MOL0     C 7855  -1.149   2.313   0.013  0.3681 -0.2907  0.7261
   59MOL0     C 7856  -1.225   2.222  -0.057 -0.1169  0.3783  0.3540
   59MOL0     C 7857  -1.357   2.255  -0.087  0.4283  0.1736  0.3137
   59MOL0     C 7858  -1.436   2.148  -0.182  0.0074  0.0306  0.5152
   59MOL0     C 7859  -1.421   2.368  -0.036 -0.1301  0.1689 -0.2331
   59MOL0     C 7860  -1.566   2.395  -0.042  0.2280  0.0634  0.3064
   59MOL0     O 7861  -1.605   2.527  -0.050  0.4278 -0.1946 -0.7302
   59MOL0     C 7862  -1.739   2.552  -0.071  0.1754 -0.3623  0.0520
   59MOL0     C 7863  -1.796   2.661  -0.003  0.0375  0.3500  0.4076
   59MOL0     C 7864  -1.933   2.690  -0.003  0.7472 -0.5473 -0.6093
   59MOL0     C 7865  -2.017   2.610  -0.084  0.7425  0.4108 -0.8618
   59MOL0     O 7866  -2.154   2.623  -0.095  0.6958 -0.6759  0.5136
   59MOL0     C 7867  -2.223   2.734  -0.030 -0.3406  0.3324  0.2470
   59MOL0     C 7868  -2.364   2.737  -0.100 -0.7256  0.2741 -0.2907
   59MOL0     C 7869  -2.453   2.855  -0.064 -0.0781 -0.6507 -1.2090
   59MOL0     C 7870  -2.553   2.861  -0.171 -0.0924 -0.4383  0.6538
   59MOL0     C 7871  -2.643   2.977  -0.145  0.8741 -0.4859  0.7088
   59MOL0     C 7872  -2.715   2.970  -0.009  0.6442 -0.0543 -0.1383
   59MOL0     C 7873  -2.823   3.072  -0.007 -0.9254 -0.1274 -0.1973
   59MOL0     C 7874  -2.898   3.083   0.128 -0.9919  0.4449 -0.9208
   59MOL0    Cl 7875  -2.992   2.935   0.154 -0.4957 -0.0887 -0.1638
   59MOL0     C 7876  -1.958   2.503  -0.166  0.5403 -0.4448 -1.2995
   59MOL0     C 7877  -1.819   2.479  -0.155  0.1984 -0.1602  1.1150
   59MOL0     O 7878  -1.636   2.294  -0.021  0.5321  0.2210  0.2676
   59MOL0     C 7879  -1.342   2.456   0.035 -0.0863  0.0759 -0.9288
   59MOL0     C 7880  -1.210   2.427   0.064 -0.0657  0.0969  0.0195
   59MOL0     N 7881  -0.466   2.518   0.367 -0.0304  0.0998  0.4260
   59MOL0     N 7882  -0.387   2.538   0.456  0.2609  0.3293 -0.2339
   59MOL0     C 7883   0.686   2.510   1.001  0.2984 -0.2436 -0.4309
   59MOL0     C 7884   0.816   2.552   1.012 -0.1346 -0.6220 -0.0405
   59MOL0     C 7885   1.189   2.765   1.213 -0.1014 -0.0642  0.3156
   59MOL0     C 7886   1.286   2.670   1.215  0.6137 -0.2587  0.0627
   59MOL0     C 7887   1.417   2.719   1.250 -0.4075  0.1807 -0.3966
   59MOL0     C 7888   1.449   2.857   1.275  0.8336  0.4578 -0.4629
   59MOL0     O 7889   1.577   2.903   1.318 -0.9766  0.5583 -0.3858
   59MOL0     C 7890   1.688   2.809   1.314  0.5137  0.4314  0.6516
   59MOL0     C 7891   1.733   2.764   1.177 -0.1736  0.3975 -0.5269
   59MOL0     C 7892   1.744   2.883   1.085 -0.2971 -0.4803  0.5000
   59MOL0     C 7893   1.895   2.927   1.069  0.1237 -0.1404  0.1442
   59MOL0     C 7894   1.970   2.948   1.196  0.0929  0.1545  0.1902
   59MOL0     C 7895   2.033   2.960   1.303 -0.1382 -0.1453 -0.5448
   59MOL0     C 7896   1.349   2.944   1.253 -0.8837 -1.0712 -1.0657
   59MOL0     C 7897   1.221   2.905   1.233 -0.0887  0.1899  0.0103
   59MOL0     H 7898   0.873   2.490   1.334  3.8486 -1.0386 -1.8506
   59MOL0     H 7899   0.642   2.405   1.306  0.3295 -0.5129 -0.6072
   59MOL0     H 7900   0.396   2.598   1.053  0.7971  0.0834  0.0228
   59MOL0     H 7901   0.400   2.471   0.919 -2.2244 -1.3514  0.2118
   59MOL0     H 7902   0.234   2.345   1.070 -0.8637 -0.6125 -4.2980
   59MOL0     H 7903   0.212   2.484   1.171  0.1830  0.4795  0.3322
   59MOL0     H 7904   0.127   2.609   0.986 -4.6321  0.0748 -0.5675
   59MOL0     H 7905   0.162   2.498   0.867 -4.2594  2.4315 -1.2769
   59MOL0     H 7906   0.018   2.335   0.983  1.7517  0.8735 -0.0024
   59MOL0     H 7907  -0.035   2.451   1.100 -0.6487 -2.5831  0.5910
   59MOL0     H 7908  -0.111   2.585   0.889 -0.8684  0.0607 -0.4981
   59MOL0     H 7909  -0.041   2.463   0.793  2.7562 -3.2565  1.6699
   59MOL0     H 7910  -0.199   2.284   0.883 -0.1519 -0.8749  0.8090
   59MOL0     H 7911  -0.284   2.419   0.969  0.9909 -1.1352 -0.9557
   59MOL0     H 7912  -0.410   2.371   0.768 -1.5131  2.7541  0.0720
   59MOL0     H 7913  -0.342   2.531   0.783  0.7281 -0.1799  0.6297
   59MOL0     H 7914  -0.214   2.303   0.619 -0.1172 -0.1129 -0.4172
   59MOL0     H 7915  -0.167   2.465   0.608  0.9864 -1.8092  1.7813
   59MOL0     H 7916  -0.413   2.209   0.463 -0.3041 -0.8825  2.1479
   59MOL0     H 7917  -0.538   2.355   0.141 -0.1269  0.8181  0.3097
   59MOL0     H 7918  -0.552   2.202   0.236  0.1260 -0.6182 -0.0435
   59MOL0     H 7919  -0.724   2.461   0.240 -0.4023 -0.6719  1.4588
   59MOL0     H 7920  -0.766   2.321   0.343  1.6984  0.1009  1.0854
   59MOL0     H 7921  -0.801   2.184   0.150  0.6400  0.3980  1.5018
   59MOL0     H 7922  -0.746   2.306   0.036  1.9450  1.3386  0.8438
   59MOL0     H 7923  -0.922   2.452   0.075 -2.7890 -0.1212  0.1202
   59MOL0     H 7924  -0.988   2.343   0.209 -1.2101  0.7906  0.3836
   59MOL0     H 7925  -1.174   2.134  -0.096  1.1539  1.3371 -0.2278
   59MOL0     H 7926  -1.494   2.079  -0.121  0.4633 -1.4911 -0.7151
   59MOL0     H 7927  -1.494   2.210  -0.251  2.0587  0.6519 -0.7495
   59MOL0     H 7928  -1.369   2.086  -0.242 -2.0274 -2.1388  0.3661
   59MOL0     H 7929  -1.720   2.719   0.050  1.4619 -0.0571 -1.1070
   59MOL0     H 7930  -1.979   2.772   0.051 -1.5895 -1.6623 -0.8005
   59MOL0     H 7931  -2.231   2.727   0.079 -1.3149 -0.0874  0.1596
   59MOL0     H 7932  -2.177   2.830  -0.055 -1.2336  0.6365 -0.2766
   59MOL0     H 7933  -2.332   2.744  -0.205  0.4866 -0.3361  0.0269
   59MOL0     H 7934  -2.417   2.642  -0.089 -2.8471  1.4160  0.0333
   59MOL0     H 7935  -2.405   2.953  -0.076  2.3469 -1.4964  0.7784
   59MOL0     H 7936  -2.495   2.843   0.036 -0.6726  2.8297 -0.8982
   59MOL0     H 7937  -2.491   2.878  -0.260 -0.1928  0.4124  0.7419
   59MOL0     H 7938  -2.626   2.780  -0.183 -1.3208  0.7393 -0.1066
   59MOL0     H 7939  -2.717   2.976  -0.226  0.7726  0.1122  0.7900
   59MOL0     H 7940  -2.590   3.072  -0.155 -2.8452  1.8706  1.0945
   59MOL0     H 7941  -2.748   2.866  -0.001 -0.6729  0.4737  2.2304
   59MOL0     H 7942  -2.649   3.000   0.073 -2.3845  0.5805  2.2478
   59MOL0     H 7943  -2.903   3.058  -0.080  0.9719  2.9050 -3.1265
   59MOL0     H 7944  -2.781   3.171  -0.029 -1.0638 -0.8317 -4.4961
   59MOL0     H 7945  -2.961   3.171   0.142 -0.1231  1.0232 -0.5605
   59MOL0     H 7946  -2.822   3.105   0.204  0.0992 -0.5710 -1.6795
   59MOL0     H 7947  -2.024   2.440  -0.224 -1.5140  0.1981  0.2286
   59MOL0     H 7948  -1.776   2.411  -0.228 -2.3596 -0.2093 -0.4808
   59MOL0     H 7949  -1.386   2.549   0.070 -1.7295 -0.6020 -1.1273
   59MOL0     H 7950  -1.145   2.498   0.115  1.3127 -0.3325 -1.0946
   59MOL0     H 7951   0.628   2.507   0.909 -1.2957 -0.1179  0.5290
   59MOL0     H 7952   0.863   2.600   0.927  1.0291  0.4997  1.1772
   59MOL0     H 7953   1.266   2.563   1.217  0.8833 -0.3747  3.5962
   59MOL0     H 7954   1.495   2.645   1.266  1.3896  1.1818 -3.5863
   59MOL0     H 7955   1.772   2.861   1.360  0.3136  1.2781  0.0751
   59MOL0     H 7956   1.665   2.720   1.374 -0.8139  0.0738 -0.3447
   59MOL0     H 7957   1.651   2.703   1.136 -0.4041  0.4699 -0.1769
   59MOL0     H 7958   1.821   2.700   1.169 -1.9915 -2.3036 -0.3688
   59MOL0     H 7959   1.678   2.968   1.105 -0.4179 -0.8323  1.6629
   59MOL0     H 7960   1.712   2.843   0.987 -0.4004  2.1106 -0.5989
   59MOL0     H 7961   1.896   3.025   1.020 -1.9846  0.7448  1.7027
   59MOL0     H 7962   1.949   2.852   1.010  0.1849 -1.7875  2.1754
   59MOL0     H 7963   2.098   2.976   1.387 -1.2941  0.4900  0.2663
   59MOL0     H 7964   1.378   3.047   1.270 -0.1461 -1.4894  0.3162
   59MOL0     H 7965   1.139   2.974   1.221  1.5417  2.0706 -0.7552
   60MOL0     O 7966   5.356   6.540   3.201 -0.4966 -0.7110 -0.9044
   60MOL0     C 7967   5.433   6.447   3.227 -0.1075 -0.6660  0.1938
   60MOL0     O 7968   5.397   6.328   3.270 -0.2977 -0.5952  0.5679
   60MOL0     C 7969   5.269   6.290   3.276  0.9449  0.2013 -0.2491
   60MOL0     C 7970   5.162   6.324   3.188 -0.0832  0.1982  0.1344
   60MOL0     C 7971   5.033   6.262   3.215  1.0530 -0.0774 -0.9449
   60MOL0     C 7972   4.997   6.191   3.330 -0.2869 -0.5129  0.1890
   60MOL0     O 7973   4.868   6.142   3.358  0.5741 -0.5453 -0.2200
   60MOL0     C 7974   4.767   6.184   3.269 -0.1219 -0.1014  0.5948
   60MOL0     C 7975   4.630   6.136   3.309  0.3267  0.8445 -0.0850
   60MOL0     C 7976   4.571   6.163   3.454  0.4026  0.6917  1.2208
   60MOL0     C 7977   4.609   6.043   3.544  0.3897  0.4562  0.2162
   60MOL0     C 7978   4.569   6.075   3.687  0.8286  0.3333 -0.1706
   60MOL0     C 7979   4.647   6.186   3.764  0.1612  0.5779 -0.0994
   60MOL0     C 7980   4.792   6.151   3.802 -0.3301  0.1176 -0.2391
   60MOL0     C 7981   4.900   6.177   3.701 -0.8719 -1.0526 -0.3316
   60MOL0     N 7982   4.922   6.321   3.692  0.4286 -0.3373 -1.6193
   60MOL0     C 7983   4.871   6.405   3.605 -0.0792 -0.0995  0.2739
   60MOL0     C 7984   4.954   6.516   3.613 -0.1090  0.2647 -0.0783
   60MOL0     C 7985   4.951   6.630   3.517  0.3752 -0.4767 -0.6121
   60MOL0     C 7986   5.037   6.596   3.393 -0.6011  0.5255 -0.1374
   60MOL0     C 7987   5.010   6.703   3.277 -0.3762  0.8903 -0.0279
   60MOL0     C 7988   4.877   6.686   3.200  1.0323  0.2780 -1.4816
   60MOL0     O 7989   4.856   6.552   3.149 -0.4642  0.1382 -0.7956
   60MOL0     C 7990   4.735   6.510   3.121  0.3671 -0.0864  0.7303
   60MOL0     C 7991   4.643   6.499   3.216  0.5803  0.2651 -0.8348
   60MOL0     C 7992   4.509   6.459   3.195  0.6295  0.4013 -0.1753
   60MOL0     C 7993   4.413   6.469   3.312  0.3240  0.9207  0.5264
   60MOL0     C 7994   4.472   6.436   3.061  1.2187  0.0088 -0.3472
   60MOL0     C 7995   4.329   6.417   3.017  0.6577  0.8290  0.1412
   60MOL0     O 7996   4.231   6.446   3.106  0.5305  0.5158  0.2560
   60MOL0     C 7997   4.093   6.455   3.066 -0.0374  0.5079 -0.2064
   60MOL0     C 7998   3.998   6.453   3.166  0.0858 -0.2866  0.6004
   60MOL0     C 7999   3.854   6.433   3.135 -0.4948  0.5712  0.7884
   60MOL0     C 8000   3.817   6.424   3.003  0.8909 -0.1245  0.5185
   60MOL0     O 8001   3.686   6.396   2.964  0.7971  0.4127 -0.5278
   60MOL0     C 8002   3.640   6.475   2.855  0.5805 -0.0698  0.2216
   60MOL0     C 8003   3.484   6.464   2.866 -0.2429  0.0106  1.1231
   60MOL0     C 8004   3.440   6.316   2.829  0.1718  0.4084 -0.3292
   60MOL0     C 8005   3.301   6.269   2.867  0.0275 -0.0728  0.7631
   60MOL0     C 8006   3.273   6.118   2.851 -0.6015 -0.4135 -0.0971
   60MOL0     C 8007   3.213   6.071   2.716  0.1204 -0.4169  0.3839
   60MOL0     C 8008   3.303   6.071   2.591 -0.1234 -0.0375 -0.6750
   60MOL0     C 8009   3.239   6.091   2.464 -0.0694 -0.1247 -0.1247
   60MOL0    Cl 8010   3.085   6.003   2.445  0.0747 -0.0305  0.1194
   60MOL0     C 8011   3.909   6.446   2.902  0.1807 -0.9287  0.2094
   60MOL0     C 8012   4.047   6.460   2.932  0.5687 -0.0928  0.7761
   60MOL0     O 8013   4.313   6.353   2.912 -0.2345 -0.2677 -0.1123
   60MOL0     C 8014   4.566   6.442   2.955  0.2735  0.6101 -0.1671
   60MOL0     C 8015   4.694   6.475   2.985 -0.4685 -0.0345  0.0698
   60MOL0     N 8016   5.040   6.501   3.718  0.2618  0.4277  0.2571
   60MOL0     N 8017   5.015   6.384   3.766 -0.6588 -0.7477 -0.1029
   60MOL0     C 8018   5.106   6.179   3.419 -0.1316  0.0440  0.1733
   60MOL0     C 8019   5.236   6.224   3.395  0.0180 -0.6123  0.0833
   60MOL0     C 8020   5.575   6.471   3.201 -0.1232  0.3502 -0.1782
   60MOL0     C 8021   5.628   6.595   3.159  0.1799  0.3008  1.1166
   60MOL0     C 8022   5.765   6.607   3.127 -0.5683 -0.1321  0.1444
   60MOL0     C 8023   5.861   6.506   3.162  0.1740 -0.6651 -0.4318
   60MOL0     O 8024   5.998   6.504   3.141 -0.7164 -1.0624 -0.0659
   60MOL0     C 8025   6.060   6.622   3.085  0.7493  0.1141 -0.4135
   60MOL0     C 8026   6.056   6.621   2.933 -0.4355 -0.1534  0.6086
   60MOL0     C 8027   6.062   6.768   2.878 -0.4099 -0.4918 -0.1140
   60MOL0     C 8028   6.038   6.764   2.729 -0.2551 -0.0999 -0.3249
   60MOL0     C 8029   6.137   6.674   2.659  0.3502  0.1699  0.6015
   60MOL0     C 8030   6.209   6.611   2.588  0.3944 -0.1924  0.1523
   60MOL0     C 8031   5.816   6.384   3.206 -0.0284 -0.6730  0.1412
   60MOL0     C 8032   5.678   6.365   3.223  0.9810 -0.2196 -0.3403
   60MOL0     H 8033   5.174   6.380   3.096  1.5403 -1.7187 -0.8948
   60MOL0     H 8034   4.962   6.276   3.134  1.1529 -0.0952 -1.0355
   60MOL0     H 8035   4.765   6.293   3.280 -0.6738 -0.0841  0.3274
   60MOL0     H 8036   4.783   6.149   3.166 -0.2536  1.6117 -0.0538
   60MOL0     H 8037   4.561   6.183   3.238 -2.0738 -1.3263  0.6598
   60MOL0     H 8038   4.626   6.030   3.280 -1.6360  1.0461 -0.6938
   60MOL0     H 8039   4.602   6.263   3.484  4.3657  2.1767 -5.6788
   60MOL0     H 8040   4.464   6.152   3.437  0.8246 -0.0420 -1.3833
   60MOL0     H 8041   4.560   5.953   3.505 -1.9024  1.9386 -0.5606
   60MOL0     H 8042   4.718   6.031   3.536  0.3351  0.9183 -2.2082
   60MOL0     H 8043   4.460   6.088   3.689  0.1963 -3.0213 -2.6814
   60MOL0     H 8044   4.583   5.981   3.742  0.3013  0.4035  0.0898
   60MOL0     H 8045   4.641   6.274   3.699  0.1348  2.0950  1.8808
   60MOL0     H 8046   4.584   6.207   3.850  0.8703  0.6998  0.3976
   60MOL0     H 8047   4.811   6.220   3.885  1.4566  0.6236 -1.0330
   60MOL0     H 8048   4.810   6.053   3.848  0.0686  0.9097  1.3949
   60MOL0     H 8049   4.878   6.134   3.602 -2.2448  0.2077 -0.6037
   60MOL0     H 8050   4.992   6.130   3.737 -2.5410 -3.9367  0.4783
   60MOL0     H 8051   4.803   6.396   3.520 -0.3718  1.2141  0.3458
   60MOL0     H 8052   4.849   6.659   3.490 -0.1307  0.6122  2.0684
   60MOL0     H 8053   4.986   6.724   3.562 -3.2328 -0.2915  2.3751
   60MOL0     H 8054   5.011   6.496   3.358  1.3228  0.7316 -2.4422
   60MOL0     H 8055   5.142   6.589   3.422 -0.2348 -0.8578 -1.6333
   60MOL0     H 8056   5.086   6.684   3.201 -1.0488 -6.3681  0.4655
   60MOL0     H 8057   5.018   6.805   3.316  0.6321  0.1556  1.7431
   60MOL0     H 8058   4.893   6.747   3.110  1.7281 -0.8537 -2.1481
   60MOL0     H 8059   4.796   6.722   3.264  1.8361  0.3890 -0.5039
   60MOL0     H 8060   4.667   6.517   3.320  2.5740  2.6879 -1.6171
   60MOL0     H 8061   4.350   6.380   3.309  1.9298 -0.2332 -0.0661
   60MOL0     H 8062   4.466   6.460   3.407  4.3964 -1.0974 -1.6682
   60MOL0     H 8063   4.341   6.552   3.302 -0.9160 -0.1469  0.2686
   60MOL0     H 8064   4.038   6.461   3.267 -0.2395 -3.1336  1.0407
   60MOL0     H 8065   3.773   6.452   3.204 -1.9956 -4.1683  0.6496
   60MOL0     H 8066   3.656   6.583   2.853  1.2255 -0.1635 -1.1787
   60MOL0     H 8067   3.684   6.443   2.760  0.5549  2.1578 -0.5933
   60MOL0     H 8068   3.459   6.497   2.968  2.7461 -0.2362  2.0247
   60MOL0     H 8069   3.445   6.541   2.798 -0.3409  1.3539  2.6400
   60MOL0     H 8070   3.512   6.243   2.865  1.5754 -0.0268 -3.6340
   60MOL0     H 8071   3.451   6.319   2.720  0.5890 -0.2965 -0.3112
   60MOL0     H 8072   3.284   6.296   2.971  2.9063 -0.2369  1.3608
   60MOL0     H 8073   3.225   6.324   2.809 -0.4962 -1.0038  0.5506
   60MOL0     H 8074   3.207   6.093   2.935 -0.3530  3.2829  1.3851
   60MOL0     H 8075   3.363   6.063   2.881 -0.1384 -0.4752 -1.5591
   60MOL0     H 8076   3.164   5.974   2.727  1.1121 -1.4179 -2.8157
   60MOL0     H 8077   3.135   6.143   2.690  1.9999  1.6015 -0.0959
   60MOL0     H 8078   3.376   5.991   2.585  1.7476  1.4724  0.4880
   60MOL0     H 8079   3.371   6.156   2.608  0.2089 -0.1990 -1.1787
   60MOL0     H 8080   3.307   6.055   2.386  3.7684  0.1430  2.8203
   60MOL0     H 8081   3.215   6.196   2.441 -2.6155 -0.0986  2.0977
   60MOL0     H 8082   3.871   6.433   2.801  1.2115  2.5924 -0.7561
   60MOL0     H 8083   4.113   6.486   2.850 -0.6428  1.1407  0.1515
   60MOL0     H 8084   4.538   6.430   2.851 -0.7499 -0.4298  0.2146
   60MOL0     H 8085   4.766   6.469   2.905 -0.3447  3.0429 -0.1719
   60MOL0     H 8086   5.082   6.119   3.506  1.2462 -0.0253  0.5319
   60MOL0     H 8087   5.320   6.207   3.461  0.0475  0.2176  0.2697
   60MOL0     H 8088   5.564   6.682   3.148  2.2250  1.6475 -1.2808
   60MOL0     H 8089   5.808   6.700   3.092  0.7989 -0.6871  0.2910
   60MOL0     H 8090   6.015   6.718   3.112  0.2343 -0.3981  0.6273
   60MOL0     H 8091   6.165   6.625   3.117  0.0393 -1.2382  2.3316
   60MOL0     H 8092   5.960   6.587   2.893  1.0137 -0.1129 -3.3435
   60MOL0     H 8093   6.137   6.559   2.894  0.7823  0.8168  1.5244
   60MOL0     H 8094   6.157   6.815   2.904 -0.9825  0.5596  0.1108
   60MOL0     H 8095   5.981   6.822   2.929  0.2220 -0.6904  1.1423
   60MOL0     H 8096   6.032   6.870   2.703 -2.5132 -0.4700 -1.5849
   60MOL0     H 8097   5.936   6.733   2.704  0.3554 -2.2701 -0.3860
   60MOL0     H 8098   6.274   6.554   2.524  0.0103  0.2027 -0.6044
   60MOL0     H 8099   5.884   6.300   3.223 -0.4082 -1.0355 -0.1326
   60MOL0     H 8100   5.631   6.269   3.245 -1.7676  1.3061  1.0746
   61MOL0     O 8101   5.500   8.224  10.280  0.6429  0.3646 -0.4023
   61MOL0     C 8102   5.521   8.316  10.360 -0.8653  0.8054  0.4320
   61MOL0     O 8103   5.430   8.379  10.436 -0.3127 -0.1889  0.1180
   61MOL0     C 8104   5.311   8.310  10.454 -0.4943  0.3087  0.1934
   61MOL0     C 8105   5.192   8.375  10.409  1.0430  0.0023 -0.0850
   61MOL0     C 8106   5.072   8.307  10.413 -0.4052  1.1801  0.2855
   61MOL0     C 8107   5.071   8.176  10.463  0.2282  0.0059  0.1282
   61MOL0     O 8108   4.940   8.128  10.457 -0.1953  0.4965  0.3876
   61MOL0     C 8109   4.921   7.995  10.500 -0.4901  0.3894  0.3988
   61MOL0     C 8110   4.783   7.922  10.470 -0.5715  0.6232  0.3857
   61MOL0     C 8111   4.669   8.017  10.531  0.2933  0.3050  0.2569
   61MOL0     C 8112   4.525   7.952  10.534 -0.4328  0.2365  0.3717
   61MOL0     C 8113   4.407   8.037  10.588  0.1784  0.6882 -0.2112
   61MOL0     C 8114   4.282   7.948  10.579 -0.4246 -0.3038 -0.1172
   61MOL0     C 8115   4.163   8.024  10.637  0.6350 -0.5715 -0.0601
   61MOL0     C 8116   4.161   8.016  10.792  0.7307 -0.5382  0.7089
   61MOL0     N 8117   4.083   8.120  10.858 -0.4691 -0.1876 -0.9638
   61MOL0     C 8118   4.118   8.253  10.868 -0.3689  0.0821 -0.0547
   61MOL0     C 8119   4.008   8.311  10.915  0.0207  0.4936  0.2587
   61MOL0     C 8120   3.986   8.458  10.933 -0.3014 -0.6110  0.1556
   61MOL0     C 8121   3.948   8.514  10.792 -0.9212  0.5277 -0.0647
   61MOL0     C 8122   3.817   8.473  10.730  0.3174 -0.1175 -0.5033
   61MOL0     C 8123   3.807   8.516  10.579 -0.4072  0.4272 -0.0196
   61MOL0     O 8124   3.675   8.477  10.537  0.8273 -0.0101 -0.1379
   61MOL0     C 8125   3.564   8.562  10.552 -0.6475  0.2291  0.4275
   61MOL0     C 8126   3.446   8.507  10.517  0.2860 -0.4863 -0.3323
   61MOL0     C 8127   3.324   8.577  10.522  0.1933 -0.4260 -0.1157
   61MOL0     C 8128   3.207   8.498  10.468 -0.3892  0.2661 -0.2757
   61MOL0     C 8129   3.330   8.712  10.580 -0.1905 -0.0458 -0.7365
   61MOL0     C 8130   3.206   8.791  10.611 -0.3286  1.0871 -0.4538
   61MOL0     O 8131   3.219   8.902  10.691  0.2282  0.3196  1.0425
   61MOL0     C 8132   3.115   8.964  10.753 -0.1850 -0.1000 -1.0855
   61MOL0     C 8133   3.007   8.898  10.811  0.0562  0.0025  0.2301
   61MOL0     C 8134   2.913   8.967  10.891 -0.3830 -0.2387  0.1022
   61MOL0     C 8135   2.928   9.104  10.908  0.3920 -0.0204 -0.4874
   61MOL0     O 8136   2.850   9.184  10.984 -0.3093 -0.4233 -0.1760
   61MOL0     C 8137   2.813   9.131  11.113  0.4528  0.4334  0.7480
   61MOL0     C 8138   2.673   9.171  11.170 -0.2097  0.8356 -0.0837
   61MOL0     C 8139   2.653   9.113  11.310 -0.1692  0.1364  0.2852
   61MOL0     C 8140   2.700   9.215  11.415  0.1097  0.6102 -0.2669
   61MOL0     C 8141   2.660   9.157  11.554  0.0942 -0.0171  0.0913
   61MOL0     C 8142   2.712   9.256  11.668 -0.2011  0.3275 -0.3058
   61MOL0     C 8143   2.859   9.228  11.700  0.6741  0.4259 -0.0465
   61MOL0     C 8144   2.914   9.320  11.794  1.5799 -0.7377 -1.3415
   61MOL0    Cl 8145   2.925   9.481  11.731  0.2840  0.2283 -0.1403
   61MOL0     C 8146   3.025   9.170  10.837 -0.3267 -1.6034 -0.2243
   61MOL0     C 8147   3.126   9.101  10.764 -0.8054  0.5315 -0.8566
   61MOL0     O 8148   3.096   8.746  10.569  0.8533  0.4828 -0.1378
   61MOL0     C 8149   3.454   8.767  10.624 -0.3489 -0.1096 -0.1137
   61MOL0     C 8150   3.568   8.688  10.604 -0.5320 -0.0992  0.1006
   61MOL0     N 8151   3.909   8.217  10.947  0.3868  0.3199  0.1639
   61MOL0     N 8152   3.957   8.105  10.908  0.4321  0.0114 -0.0301
   61MOL0     C 8153   5.188   8.110  10.505 -0.5189  0.2105  0.5378
   61MOL0     C 8154   5.307   8.179  10.499  0.5145 -0.1314  1.1551
   61MOL0     C 8155   5.658   8.374  10.369  0.0251 -0.1217  0.8348
   61MOL0     C 8156   5.698   8.453  10.475 -0.0428 -0.1852  0.6964
   61MOL0     C 8157   5.824   8.502  10.480  0.2502 -0.1714 -0.7254
   61MOL0     C 8158   5.924   8.476  10.377 -0.1204 -0.0759  0.2599
   61MOL0     O 8159   6.046   8.540  10.362 -0.4228 -0.5770 -0.5668
   61MOL0     C 8160   6.084   8.614  10.477  0.1960 -0.1615 -0.5837
   61MOL0     C 8161   6.221   8.668  10.453 -0.2331  0.5135  0.7117
   61MOL0     C 8162   6.283   8.751  10.574  0.2809 -0.4865 -0.4167
   61MOL0     C 8163   6.404   8.832  10.539 -0.4736  0.0570 -0.9705
   61MOL0     C 8164   6.466   8.913  10.650  0.4703 -0.0323  1.3872
   61MOL0     C 8165   6.506   8.980  10.745 -0.2893 -0.0594 -0.1173
   61MOL0     C 8166   5.880   8.401  10.274 -0.5022 -0.0307 -0.1525
   61MOL0     C 8167   5.752   8.349  10.268 -0.1957 -0.0769  0.1661
   61MOL0     H 8168   5.209   8.475  10.369 -0.8982  2.1479  3.7738
   61MOL0     H 8169   4.973   8.342  10.386 -1.5197  0.5418  3.1803
   61MOL0     H 8170   5.008   7.943  10.460 -0.1383  0.7247  0.7285
   61MOL0     H 8171   4.941   7.984  10.607  1.0740  2.0708  0.3191
   61MOL0     H 8172   4.764   7.908  10.363  1.3341  1.9472 -0.1895
   61MOL0     H 8173   4.789   7.825  10.520 -0.1503  0.3087 -0.2551
   61MOL0     H 8174   4.689   8.047  10.634  1.3263  3.3242 -0.7169
   61MOL0     H 8175   4.659   8.112  10.477  2.9055 -0.4134 -1.7381
   61MOL0     H 8176   4.517   7.931  10.427  3.3136  0.7324 -0.1450
   61MOL0     H 8177   4.521   7.851  10.575 -0.9332 -0.3631 -1.0758
   61MOL0     H 8178   4.427   8.060  10.693 -1.4684  1.2273  0.0083
   61MOL0     H 8179   4.396   8.126  10.525 -0.2219  0.4966 -0.4151
   61MOL0     H 8180   4.256   7.923  10.476  0.0748  0.8199 -0.5333
   61MOL0     H 8181   4.296   7.857  10.638  1.0417  0.9227  1.5460
   61MOL0     H 8182   4.177   8.128  10.606 -4.6817  0.3187 -0.5084
   61MOL0     H 8183   4.068   7.985  10.599  0.4632 -1.1438  0.9326
   61MOL0     H 8184   4.266   8.021  10.822  0.9889  2.0260 -0.3626
   61MOL0     H 8185   4.115   7.923  10.825  2.4220 -0.8922  2.2202
   61MOL0     H 8186   4.217   8.288  10.842 -1.3918  2.0845 -1.5632
   61MOL0     H 8187   3.911   8.470  11.012 -0.5472 -2.8320  0.3205
   61MOL0     H 8188   4.078   8.514  10.951  1.0418 -2.7669  0.3758
   61MOL0     H 8189   4.023   8.469  10.725 -1.2809  1.8672 -1.4206
   61MOL0     H 8190   3.965   8.622  10.795 -1.9161  0.6769  0.4928
   61MOL0     H 8191   3.737   8.521  10.787  0.8863 -2.6194  2.7312
   61MOL0     H 8192   3.796   8.367  10.745 -1.4073  0.3293  0.5175
   61MOL0     H 8193   3.880   8.468  10.513 -1.3043 -1.4728  0.3277
   61MOL0     H 8194   3.829   8.623  10.586  2.2644 -0.1143  1.4601
   61MOL0     H 8195   3.445   8.401  10.496  2.0826 -0.7548  0.7154
   61MOL0     H 8196   3.204   8.502  10.358  1.2890 -2.2878 -0.5150
   61MOL0     H 8197   3.215   8.393  10.497 -1.0899  0.3090  0.0959
   61MOL0     H 8198   3.109   8.529  10.503 -0.0054  0.9993  0.1686
   61MOL0     H 8199   2.994   8.790  10.803  0.7715 -0.2070  1.5857
   61MOL0     H 8200   2.821   8.914  10.914  0.2127 -2.0976 -1.5270
   61MOL0     H 8201   2.826   9.026  11.140 -0.0347  1.0575  3.8497
   61MOL0     H 8202   2.882   9.186  11.178  0.0129  1.4564  0.3644
   61MOL0     H 8203   2.667   9.279  11.181  0.9659  0.8742  0.3282
   61MOL0     H 8204   2.589   9.142  11.106 -1.1659  0.3616  1.3324
   61MOL0     H 8205   2.685   9.008  11.318 -2.6467 -0.7317 -0.3064
   61MOL0     H 8206   2.546   9.096  11.320 -0.1408  0.0653  0.4673
   61MOL0     H 8207   2.808   9.230  11.403  0.7182 -1.3967  1.9382
   61MOL0     H 8208   2.651   9.311  11.398 -1.8972 -0.4685 -0.8855
   61MOL0     H 8209   2.711   9.060  11.564  2.3375  1.2108  1.6941
   61MOL0     H 8210   2.552   9.145  11.562  0.3083 -3.2243 -0.3554
   61MOL0     H 8211   2.690   9.358  11.637  0.4287 -0.1697 -2.5215
   61MOL0     H 8212   2.639   9.235  11.748 -1.0280  0.8387 -0.9054
   61MOL0     H 8213   2.919   9.224  11.608 -0.3583 -1.1243 -0.7027
   61MOL0     H 8214   2.868   9.129  11.746  0.4662  0.5763  0.3217
   61MOL0     H 8215   3.016   9.290  11.820  0.8669 -0.8637  1.6876
   61MOL0     H 8216   2.855   9.314  11.886  1.2802  3.3180 -1.0950
   61MOL0     H 8217   3.037   9.275  10.862 -0.2914 -2.0076  1.6105
   61MOL0     H 8218   3.205   9.151  10.709  1.8678 -2.6128 -0.1370
   61MOL0     H 8219   3.465   8.861  10.677 -3.2814  1.0700 -1.4174
   61MOL0     H 8220   3.665   8.707  10.649 -1.1561 -2.4009  2.6299
   61MOL0     H 8221   5.192   8.006  10.535 -3.3263  0.7195  3.2410
   61MOL0     H 8222   5.394   8.118  10.518 -1.6903 -3.7721  0.4739
   61MOL0     H 8223   5.627   8.472  10.554  0.9813  2.2866  1.0961
   61MOL0     H 8224   5.845   8.568  10.563 -3.7984  0.4491  0.0460
   61MOL0     H 8225   6.018   8.700  10.485  1.8940  1.1657 -0.2427
   61MOL0     H 8226   6.083   8.551  10.567 -2.1230  1.4482  0.6080
   61MOL0     H 8227   6.213   8.721  10.358  1.8087 -0.7134 -0.2235
   61MOL0     H 8228   6.284   8.582  10.427 -2.2640 -1.0623  0.7297
   61MOL0     H 8229   6.303   8.691  10.663 -3.5211 -0.3638  0.7012
   61MOL0     H 8230   6.205   8.818  10.613  1.7057 -0.7699  3.2679
   61MOL0     H 8231   6.362   8.896  10.461 -3.2949  0.0646  0.4228
   61MOL0     H 8232   6.478   8.758  10.507  1.1904  1.1250  0.2544
   61MOL0     H 8233   6.567   9.030  10.819 -2.6735  0.1852  1.7963
   61MOL0     H 8234   5.944   8.395  10.186 -0.5665  3.2686 -0.5749
   61MOL0     H 8235   5.729   8.288  10.181  0.8315 -1.3150  0.7404
   62MOL0     O 8236   5.655   3.668   7.180  0.0742  0.2967 -0.4163
   62MOL0     C 8237   5.683   3.631   7.296 -1.1056 -0.4940 -0.7274
   62MOL0     O 8238   5.597   3.614   7.400 -1.0783  0.0897 -0.0233
   62MOL0     C 8239   5.478   3.685   7.410 -0.2542 -0.4822  0.2888
   62MOL0     C 8240   5.382   3.632   7.504 -0.4358 -0.6061  0.9510
   62MOL0     C 8241   5.270   3.704   7.527  0.4273 -0.3318  0.6980
   62MOL0     C 8242   5.247   3.832   7.476  0.3589 -0.0212 -0.0446
   62MOL0     O 8243   5.129   3.896   7.493  0.5572 -0.3097 -0.7695
   62MOL0     C 8244   5.070   3.998   7.406 -0.2135  0.2804  0.1031
   62MOL0     C 8245   4.937   4.052   7.448  0.3775 -0.2186  0.1039
   62MOL0     C 8246   4.923   4.096   7.597  1.0358 -0.3813 -0.2769
   62MOL0     C 8247   5.021   4.201   7.638 -0.1692 -0.3798 -0.2917
   62MOL0     C 8248   4.995   4.259   7.770  0.1872  0.2538 -0.4964
   62MOL0     C 8249   5.039   4.167   7.881  0.1077 -0.4510  0.3323
   62MOL0     C 8250   4.994   4.214   8.020 -0.5192 -0.6059 -0.0318
   62MOL0     C 8251   4.841   4.211   8.041 -0.0698  0.3024  1.1077
   62MOL0     N 8252   4.808   4.215   8.183  0.6247 -0.2547  0.4119
   62MOL0     C 8253   4.798   4.324   8.262  0.2635 -0.1819 -0.1827
   62MOL0     C 8254   4.782   4.275   8.389 -0.8324  0.0318  0.2598
   62MOL0     C 8255   4.780   4.357   8.514  0.6252 -0.1217  0.4964
   62MOL0     C 8256   4.640   4.414   8.534 -0.3985 -0.3247  0.8215
   62MOL0     C 8257   4.600   4.430   8.684  0.6904 -0.2474  0.5482
   62MOL0     C 8258   4.450   4.473   8.679 -0.1216  0.2874 -0.3539
   62MOL0     O 8259   4.408   4.457   8.814  0.0454  0.5923 -0.0129
   62MOL0     C 8260   4.273   4.444   8.842 -0.0285  0.0285 -0.3532
   62MOL0     C 8261   4.174   4.485   8.757  0.4079 -1.0979 -1.0274
   62MOL0     C 8262   4.031   4.459   8.786 -0.1066  0.1822 -0.0664
   62MOL0     C 8263   3.938   4.512   8.678 -0.2221 -0.5353  0.1405
   62MOL0     C 8264   4.000   4.394   8.910 -0.4662 -0.2852 -0.0114
   62MOL0     C 8265   3.864   4.389   8.963 -0.7314 -0.5630 -0.2362
   62MOL0     O 8266   3.766   4.443   8.895 -0.2002  0.6302  0.3534
   62MOL0     C 8267   3.634   4.439   8.930 -0.3381  0.1562  0.5525
   62MOL0     C 8268   3.557   4.523   8.858  0.4645  0.3564  0.0450
   62MOL0     C 8269   3.424   4.529   8.873  0.6656 -0.5192 -0.9166
   62MOL0     C 8270   3.358   4.450   8.972 -0.0276  0.3577 -0.0311
   62MOL0     O 8271   3.223   4.459   8.979  0.1279 -0.2303  0.4847
   62MOL0     C 8272   3.139   4.339   8.984  0.1308 -0.8106 -0.2225
   62MOL0     C 8273   2.988   4.380   9.010 -0.0258  0.3781 -0.2157
   62MOL0     C 8274   2.923   4.422   8.882 -0.3741 -0.5987  0.1752
   62MOL0     C 8275   2.768   4.427   8.893  0.2164 -0.3512 -0.2031
   62MOL0     C 8276   2.704   4.449   8.766  0.0161 -1.4187  0.1823
   62MOL0     C 8277   2.558   4.492   8.785  0.7250 -0.2332 -0.4658
   62MOL0     C 8278   2.466   4.487   8.663  0.9304 -0.0839 -0.1962
   62MOL0     C 8279   2.324   4.530   8.704 -1.0859 -0.5374 -0.1923
   62MOL0    Cl 8280   2.226   4.570   8.564  0.0740  0.7429 -0.0159
   62MOL0     C 8281   3.435   4.365   9.051  0.7203  0.2525  1.0627
   62MOL0     C 8282   3.570   4.364   9.035  0.0177 -0.2299  0.0330
   62MOL0     O 8283   3.858   4.326   9.068  0.0812 -1.0761 -0.2365
   62MOL0     C 8284   4.106   4.355   8.989 -1.4193 -1.5668 -0.7459
   62MOL0     C 8285   4.239   4.376   8.962 -0.5823 -0.8857 -0.1912
   62MOL0     N 8286   4.778   4.139   8.370  0.1154 -0.3293 -0.8927
   62MOL0     N 8287   4.801   4.100   8.256 -0.2261  0.0847 -0.1189
   62MOL0     C 8288   5.341   3.889   7.396 -0.0890  0.2850 -0.2279
   62MOL0     C 8289   5.457   3.821   7.368 -1.0226 -0.0981 -0.5951
   62MOL0     C 8290   5.826   3.593   7.325  0.9118  0.0787 -0.2969
   62MOL0     C 8291   5.924   3.627   7.234 -0.0261  0.0224  0.3192
   62MOL0     C 8292   6.060   3.611   7.266  0.2447 -0.9964  0.0838
   62MOL0     C 8293   6.097   3.558   7.391 -0.3490  0.0329  0.8452
   62MOL0     O 8294   6.226   3.541   7.442 -1.1043  0.7994  0.2538
   62MOL0     C 8295   6.331   3.538   7.344  0.2459 -0.4213  0.4998
   62MOL0     C 8296   6.470   3.513   7.411  0.1108  0.0813 -0.3505
   62MOL0     C 8297   6.576   3.517   7.306 -0.1212 -0.1558 -0.3728
   62MOL0     C 8298   6.688   3.621   7.324 -0.5676 -0.1985  0.4100
   62MOL0     C 8299   6.778   3.572   7.427  0.7543 -0.0422  0.2246
   62MOL0     C 8300   6.840   3.552   7.526  0.0155 -0.0791 -0.4856
   62MOL0     C 8301   5.992   3.533   7.484 -0.3082  0.4644 -0.2751
   62MOL0     C 8302   5.859   3.535   7.453  0.3051  0.1554  0.2220
   62MOL0     H 8303   5.404   3.534   7.544 -0.5811 -1.2066 -0.3635
   62MOL0     H 8304   5.186   3.657   7.579 -1.3619  1.3719 -0.5119
   62MOL0     H 8305   5.144   4.078   7.402 -1.8493  1.8430 -0.9929
   62MOL0     H 8306   5.066   3.951   7.308 -3.0871 -0.8504  0.6590
   62MOL0     H 8307   4.913   4.135   7.382 -4.2753  0.9970  2.8710
   62MOL0     H 8308   4.859   3.981   7.421  2.3895 -2.0043 -1.3665
   62MOL0     H 8309   4.822   4.131   7.618  1.1116 -0.9750  1.2734
   62MOL0     H 8310   4.932   4.003   7.654  0.8510 -0.1171  0.1858
   62MOL0     H 8311   5.121   4.157   7.640  0.5020  0.9602 -2.2531
   62MOL0     H 8312   5.015   4.285   7.569  0.6952 -0.8974 -1.0114
   62MOL0     H 8313   5.071   4.337   7.781 -1.4505  1.5021  3.9513
   62MOL0     H 8314   4.892   4.297   7.770  0.1379  0.1941 -1.9311
   62MOL0     H 8315   5.002   4.066   7.863  1.2186 -0.7403 -0.3999
   62MOL0     H 8316   5.148   4.161   7.884  0.0783 -0.6711  1.3347
   62MOL0     H 8317   5.044   4.153   8.095  3.4719  2.7683  0.3573
   62MOL0     H 8318   5.035   4.313   8.043 -0.3838 -0.9238  1.1567
   62MOL0     H 8319   4.793   4.121   8.000 -0.1849  0.2909  1.2670
   62MOL0     H 8320   4.790   4.284   7.978 -1.1406 -1.8807 -0.7059
   62MOL0     H 8321   4.800   4.430   8.241 -1.1278 -0.2091 -0.5969
   62MOL0     H 8322   4.802   4.290   8.598 -0.2592 -2.3231 -0.9237
   62MOL0     H 8323   4.857   4.434   8.523 -1.4185  1.9042  1.5606
   62MOL0     H 8324   4.570   4.346   8.485 -1.7274  2.9856 -2.3139
   62MOL0     H 8325   4.629   4.513   8.490 -0.2022  0.4251  2.3820
   62MOL0     H 8326   4.659   4.507   8.735  2.7148 -1.1217 -0.3509
   62MOL0     H 8327   4.613   4.336   8.738  0.4358 -2.2162 -2.5832
   62MOL0     H 8328   4.391   4.404   8.618  0.0083  1.6845 -2.1713
   62MOL0     H 8329   4.414   4.572   8.646 -1.1661 -0.3928 -1.3541
   62MOL0     H 8330   4.211   4.518   8.660  4.1744 -3.0339 -0.4016
   62MOL0     H 8331   3.840   4.464   8.675 -1.5947  2.1171 -1.6727
   62MOL0     H 8332   3.904   4.613   8.702 -3.6637 -1.7084  0.7675
   62MOL0     H 8333   3.988   4.513   8.581  0.8326  0.6990  0.6599
   62MOL0     H 8334   3.592   4.599   8.790 -0.6513  2.7593  1.9771
   62MOL0     H 8335   3.376   4.591   8.798  1.1442 -0.3289 -1.0681
   62MOL0     H 8336   3.155   4.283   8.891 -0.0437 -3.2304  1.1136
   62MOL0     H 8337   3.167   4.284   9.075 -0.0562  0.9250  0.9377
   62MOL0     H 8338   2.928   4.293   9.039 -1.0522  1.2081  0.2437
   62MOL0     H 8339   2.981   4.457   9.087 -1.3172  1.0636 -0.9842
   62MOL0     H 8340   2.946   4.348   8.806 -0.5810  0.8122 -1.3049
   62MOL0     H 8341   2.962   4.519   8.848 -1.1186 -0.3874 -0.0983
   62MOL0     H 8342   2.734   4.333   8.937 -0.5582 -0.0511 -0.1461
   62MOL0     H 8343   2.751   4.506   8.967 -0.9841 -0.3479 -0.4555
   62MOL0     H 8344   2.723   4.358   8.708 -3.4004 -1.8153 -0.5327
   62MOL0     H 8345   2.762   4.529   8.718 -1.6266 -0.9960 -1.2207
   62MOL0     H 8346   2.529   4.420   8.862  1.2304  2.5095  2.4911
   62MOL0     H 8347   2.543   4.589   8.833  0.9075 -0.2484 -0.3810
   62MOL0     H 8348   2.461   4.384   8.628  2.0300 -0.3328  0.3012
   62MOL0     H 8349   2.497   4.546   8.576  0.6792 -1.3171 -1.1392
   62MOL0     H 8350   2.321   4.603   8.785 -2.5500 -1.5754  0.7273
   62MOL0     H 8351   2.281   4.436   8.740 -1.2981 -0.8667 -1.2507
   62MOL0     H 8352   3.377   4.300   9.116 -2.5255 -1.3255 -2.9662
   62MOL0     H 8353   3.628   4.294   9.094  0.8784 -2.5188 -3.2388
   62MOL0     H 8354   4.091   4.313   9.088  0.5557 -1.4082 -0.3185
   62MOL0     H 8355   4.306   4.332   9.035 -2.9151 -1.7143  1.5934
   62MOL0     H 8356   5.337   3.994   7.369  1.4895  0.1320 -1.1588
   62MOL0     H 8357   5.543   3.870   7.322 -1.4833  1.4006  0.0738
   62MOL0     H 8358   5.894   3.683   7.146  0.3488 -0.6253 -0.2301
   62MOL0     H 8359   6.136   3.641   7.194  1.4225 -2.3927  0.6954
   62MOL0     H 8360   6.316   3.466   7.263 -1.2461  1.9338 -1.4530
   62MOL0     H 8361   6.339   3.633   7.290  0.5544 -1.1064 -0.6988
   62MOL0     H 8362   6.460   3.419   7.467  1.8400 -1.6384 -2.7013
   62MOL0     H 8363   6.498   3.593   7.480 -3.0559 -0.6105  1.9134
   62MOL0     H 8364   6.523   3.520   7.210 -0.0882  0.4493 -0.3768
   62MOL0     H 8365   6.623   3.418   7.310 -1.0945 -0.6319 -0.3865
   62MOL0     H 8366   6.641   3.715   7.356  2.7296  0.6046  3.6259
   62MOL0     H 8367   6.732   3.640   7.226 -1.5642 -3.9836 -0.9213
   62MOL0     H 8368   6.910   3.540   7.606  0.6493 -0.2739 -1.0568
   62MOL0     H 8369   6.014   3.497   7.584  2.1807  1.9519 -0.1979
   62MOL0     H 8370   5.775   3.510   7.517 -1.9527 -0.7491 -2.8759
   63MOL0     O 8371  10.210   2.517   8.784  0.7076 -0.2808 -0.1472
   63MOL0     C 8372  10.294   2.523   8.867 -0.2404  0.1353 -0.1996
   63MOL0     O 8373  10.300   2.455   8.982 -0.3917  0.0934  0.3990
   63MOL0     C 8374  10.201   2.361   9.010 -0.5521 -0.3587 -0.1843
   63MOL0     C 8375  10.154   2.364   9.143  0.1258  0.1795  0.2506
   63MOL0     C 8376  10.054   2.281   9.195  1.0208 -0.4592  0.3478
   63MOL0     C 8377   9.997   2.181   9.109  0.1656  1.2307  0.9020
   63MOL0     O 8378   9.912   2.078   9.148 -0.5335  0.5075 -0.2344
   63MOL0     C 8379   9.856   2.076   9.274 -0.2140 -0.0904 -0.2483
   63MOL0     C 8380   9.729   1.991   9.284 -0.4954 -0.0488 -0.5629
   63MOL0     C 8381   9.614   2.058   9.207 -0.2504  0.7238  0.2624
   63MOL0     C 8382   9.488   1.974   9.227  0.1122 -0.3151  0.4434
   63MOL0     C 8383   9.365   2.043   9.181  0.7507 -1.2486 -0.5629
   63MOL0     C 8384   9.249   1.953   9.167  0.1904  0.3181 -0.7427
   63MOL0     C 8385   9.207   1.878   9.294  0.2410  0.2845  0.2821
   63MOL0     C 8386   9.108   1.759   9.275  0.1008 -0.0596 -0.0856
   63MOL0     N 8387   8.972   1.791   9.217 -0.1091  0.4493 -0.1320
   63MOL0     C 8388   8.904   1.915   9.231 -0.7061  0.5403 -0.7657
   63MOL0     C 8389   8.813   1.909   9.131 -0.6007  0.0108 -0.0496
   63MOL0     C 8390   8.714   2.024   9.108 -0.6803  0.0254  0.4981
   63MOL0     C 8391   8.600   1.975   9.010  0.2478  0.4841  0.2740
   63MOL0     C 8392   8.476   2.069   9.024  0.5174  0.5971  0.0584
   63MOL0     C 8393   8.401   2.073   8.889 -0.7033  0.4851 -0.1925
   63MOL0     O 8394   8.396   1.953   8.820 -0.5537 -0.4261  0.1929
   63MOL0     C 8395   8.288   1.868   8.842 -0.0223 -0.2329 -0.1387
   63MOL0     C 8396   8.188   1.883   8.944  0.9896 -0.4862  0.0903
   63MOL0     C 8397   8.079   1.790   8.951 -0.4396 -0.3194 -0.4675
   63MOL0     C 8398   7.969   1.835   9.035 -0.2630  0.7043  0.5027
   63MOL0     C 8399   8.086   1.671   8.879 -0.4999 -0.2349  0.2565
   63MOL0     C 8400   7.991   1.563   8.892  1.0866 -0.0568  0.2460
   63MOL0     O 8401   7.954   1.491   8.782  0.2706 -0.2246  1.0502
   63MOL0     C 8402   7.852   1.405   8.795 -0.3829 -0.2445 -0.9538
   63MOL0     C 8403   7.862   1.293   8.881 -0.9761  0.5945  0.3559
   63MOL0     C 8404   7.744   1.215   8.904  0.1919  0.0132 -1.0772
   63MOL0     C 8405   7.623   1.254   8.854  0.1418  0.0078  0.8582
   63MOL0     O 8406   7.522   1.177   8.894  0.2717  0.4800  0.4219
   63MOL0     C 8407   7.409   1.187   8.806 -1.3406 -0.0039 -0.0402
   63MOL0     C 8408   7.327   1.061   8.826  0.2408  0.9006  1.0403
   63MOL0     C 8409   7.254   1.062   8.963 -0.4823 -0.5117 -0.1806
   63MOL0     C 8410   7.161   0.934   8.975 -0.4138  0.3498 -0.1454
   63MOL0     C 8411   7.082   0.943   9.104  0.4884  0.4679 -0.3194
   63MOL0     C 8412   6.972   0.837   9.129 -0.5187 -0.0799  0.2490
   63MOL0     C 8413   6.891   0.810   9.003 -0.3088 -0.3946 -0.1583
   63MOL0     C 8414   6.766   0.721   9.032 -0.5327  0.4441  0.6092
   63MOL0    Cl 8415   6.823   0.553   9.020  0.0183  0.5842 -0.2690
   63MOL0     C 8416   7.619   1.370   8.770  0.3838 -0.0596  0.6551
   63MOL0     C 8417   7.735   1.447   8.739  0.9775 -0.4450  0.7124
   63MOL0     O 8418   7.946   1.550   9.008  0.2285  0.0480 -0.2433
   63MOL0     C 8419   8.182   1.647   8.785 -0.5767 -0.0173  0.1192
   63MOL0     C 8420   8.282   1.747   8.764 -0.2577  0.4305  0.4764
   63MOL0     N 8421   8.817   1.787   9.069 -0.1065 -0.3276  0.0273
   63MOL0     N 8422   8.927   1.721   9.117  0.4018  0.2998  0.1092
   63MOL0     C 8423  10.037   2.179   8.975 -0.5027 -0.2606 -0.6861
   63MOL0     C 8424  10.128   2.272   8.925  0.0682  0.0837 -0.9845
   63MOL0     C 8425  10.399   2.614   8.823  0.6014 -0.8235  0.5576
   63MOL0     C 8426  10.523   2.619   8.888  1.3555 -0.5036 -0.9009
   63MOL0     C 8427  10.620   2.718   8.871  0.4111  0.2713 -0.3030
   63MOL0     C 8428  10.595   2.819   8.772  0.2392  0.0119 -0.3711
   63MOL0     O 8429  10.684   2.923   8.753  0.2078 -0.1981 -0.6775
   63MOL0     C 8430  10.778   2.947   8.865 -0.3963  0.8470 -0.2653
   63MOL0     C 8431  10.858   3.073   8.833 -0.4670  0.0779  0.4106
   63MOL0     C 8432  10.993   3.064   8.913  0.5325  0.1373  0.6186
   63MOL0     C 8433  11.037   3.204   8.933  0.7638 -1.0156  0.3106
   63MOL0     C 8434  11.070   3.271   8.806  0.4421  0.8006 -0.1699
   63MOL0     C 8435  11.093   3.337   8.710 -1.2189  0.9540  0.6348
   63MOL0     C 8436  10.480   2.811   8.690  0.2208  0.2700  0.0938
   63MOL0     C 8437  10.385   2.707   8.710 -0.9124  0.0968 -0.1910
   63MOL0     H 8438  10.211   2.433   9.204 -1.2920  3.8170 -2.2409
   63MOL0     H 8439  10.028   2.271   9.300  0.5956  1.3667  0.4509
   63MOL0     H 8440   9.929   2.038   9.346  0.2452  0.2338 -0.5309
   63MOL0     H 8441   9.825   2.175   9.310 -0.7805 -0.3182 -0.1004
   63MOL0     H 8442   9.742   1.891   9.240  1.6907  0.7745 -1.9896
   63MOL0     H 8443   9.700   1.970   9.387  0.2977  1.1196 -0.0737
   63MOL0     H 8444   9.597   2.160   9.242 -0.2769  1.3912 -1.5720
   63MOL0     H 8445   9.632   2.061   9.099  1.3096 -1.9091  0.3470
   63MOL0     H 8446   9.504   1.877   9.180  2.0194  0.5958 -0.9184
   63MOL0     H 8447   9.470   1.962   9.334 -0.3848  0.2657  0.4309
   63MOL0     H 8448   9.327   2.119   9.249 -0.5928 -1.1721 -1.3595
   63MOL0     H 8449   9.376   2.079   9.078  1.0759 -1.7243 -0.6962
   63MOL0     H 8450   9.171   2.018   9.126  0.5356  0.6663 -0.8453
   63MOL0     H 8451   9.273   1.875   9.094  3.7774  1.3226 -0.8079
   63MOL0     H 8452   9.299   1.840   9.339  0.6989  0.2399 -0.6567
   63MOL0     H 8453   9.171   1.960   9.357  3.5624  3.2054 -1.2332
   63MOL0     H 8454   9.086   1.713   9.372 -1.0011  2.6029  1.0334
   63MOL0     H 8455   9.146   1.682   9.208 -0.4242  0.2642 -0.7723
   63MOL0     H 8456   8.933   1.981   9.312 -0.3930  0.7311 -1.0279
   63MOL0     H 8457   8.664   2.060   9.198 -4.2929  0.5379 -1.5499
   63MOL0     H 8458   8.773   2.104   9.062  2.1531 -2.3921 -0.4148
   63MOL0     H 8459   8.575   1.872   9.037  0.7552  0.7144  1.6898
   63MOL0     H 8460   8.636   1.967   8.907  2.4300  0.0186  1.0121
   63MOL0     H 8461   8.508   2.170   9.053 -0.2065  0.6038  0.8917
   63MOL0     H 8462   8.409   2.036   9.104  1.6068 -0.6256  0.4809
   63MOL0     H 8463   8.459   2.143   8.827  0.6570 -0.4326 -0.0029
   63MOL0     H 8464   8.308   2.125   8.913  1.0119  3.4364  0.5886
   63MOL0     H 8465   8.185   1.972   9.006  2.2074 -1.8886  2.2935
   63MOL0     H 8466   7.873   1.809   8.989  0.8556 -6.4754  1.1384
   63MOL0     H 8467   7.967   1.781   9.130 -2.2514 -2.4389 -1.1604
   63MOL0     H 8468   7.979   1.940   9.065  1.2994 -0.3189  4.1849
   63MOL0     H 8469   7.952   1.262   8.932 -0.3882  0.1687 -0.8979
   63MOL0     H 8470   7.765   1.124   8.959  3.1363  2.1779  1.7355
   63MOL0     H 8471   7.357   1.281   8.824 -0.3713  0.3434  0.9977
   63MOL0     H 8472   7.433   1.189   8.699 -0.1221 -1.1169  0.1825
   63MOL0     H 8473   7.252   1.044   8.748 -0.8519  1.3309  1.9700
   63MOL0     H 8474   7.390   0.972   8.819 -1.5023 -0.2701 -1.1245
   63MOL0     H 8475   7.192   1.152   8.962  2.7788  1.9232 -0.4544
   63MOL0     H 8476   7.324   1.071   9.046  1.2218  2.2020 -1.7480
   63MOL0     H 8477   7.097   0.929   8.887 -0.2943 -1.9718 -0.1578
   63MOL0     H 8478   7.210   0.837   8.984 -1.2477 -0.0871 -0.2236
   63MOL0     H 8479   7.031   1.040   9.102 -1.8361 -0.6618  1.2181
   63MOL0     H 8480   7.158   0.950   9.182  1.1808 -0.8169 -0.8552
   63MOL0     H 8481   7.013   0.741   9.159  1.0172  0.7280  0.7991
   63MOL0     H 8482   6.913   0.885   9.208 -0.5700  3.9188 -1.9223
   63MOL0     H 8483   6.956   0.755   8.934  2.8120 -0.5258  2.6364
   63MOL0     H 8484   6.864   0.900   8.946  0.4160 -1.1035 -1.6951
   63MOL0     H 8485   6.683   0.743   8.964  0.0579 -1.8474 -0.9380
   63MOL0     H 8486   6.740   0.748   9.136 -2.0218  2.5939 -0.2348
   63MOL0     H 8487   7.532   1.406   8.716 -0.1280 -0.9439  0.8667
   63MOL0     H 8488   7.731   1.534   8.674 -2.1275 -1.3589 -0.5107
   63MOL0     H 8489   8.183   1.557   8.725 -1.2198  0.0710 -0.0321
   63MOL0     H 8490   8.355   1.731   8.684 -1.5038 -1.3211 -0.3837
   63MOL0     H 8491  10.001   2.103   8.907 -1.2238 -0.4647 -0.0903
   63MOL0     H 8492  10.148   2.282   8.819 -2.1995 -1.2472 -1.6087
   63MOL0     H 8493  10.531   2.547   8.969 -0.3194  1.2896  0.9612
   63MOL0     H 8494  10.694   2.731   8.948 -1.4148 -1.1266  1.8121
   63MOL0     H 8495  10.721   2.961   8.958 -0.3549  1.6556 -0.3560
   63MOL0     H 8496  10.851   2.866   8.862 -1.4877 -0.2891  1.4919
   63MOL0     H 8497  10.807   3.164   8.867  2.8665  1.5867  1.8196
   63MOL0     H 8498  10.872   3.082   8.725 -1.4496 -1.6968  0.1098
   63MOL0     H 8499  11.057   2.999   8.854 -1.1537 -2.1796  1.2198
   63MOL0     H 8500  10.973   3.014   9.008  1.0388 -1.6465 -0.1781
   63MOL0     H 8501  11.130   3.205   8.990  1.3671 -3.6047 -0.4807
   63MOL0     H 8502  10.972   3.273   8.988  1.5329  0.4457 -0.5340
   63MOL0     H 8503  11.106   3.393   8.620 -0.2116  1.5965  1.1675
   63MOL0     H 8504  10.465   2.868   8.599  0.4895 -1.4777 -1.0962
   63MOL0     H 8505  10.299   2.703   8.644  0.6319  0.9497 -2.3713
   64MOL0     O 8506   3.216   8.776   6.615  0.1457  0.2411 -0.0892
   64MOL0     C 8507   3.171   8.768   6.733  0.4855  0.5303  0.3487
   64MOL0     O 8508   3.047   8.701   6.776 -0.8921  0.5384  0.3070
   64MOL0     C 8509   2.981   8.621   6.687 -0.0397  0.5935  0.3559
   64MOL0     C 8510   2.851   8.657   6.670 -0.3785  0.6797 -0.0017
   64MOL0     C 8511   2.762   8.580   6.588 -0.1418 -0.7624  0.2969
   64MOL0     C 8512   2.821   8.475   6.515 -0.5824  0.0854  0.1107
   64MOL0     O 8513   2.751   8.372   6.453  0.1119  0.1069 -0.7116
   64MOL0     C 8514   2.633   8.421   6.390 -0.4024  0.4328  0.1367
   64MOL0     C 8515   2.575   8.299   6.309  0.4344  0.3528  0.5841
   64MOL0     C 8516   2.422   8.328   6.288 -0.9777  0.5339 -0.8440
   64MOL0     C 8517   2.357   8.209   6.224 -1.2799  0.2791 -0.5683
   64MOL0     C 8518   2.209   8.247   6.205  0.3336  0.0962  0.0167
   64MOL0     C 8519   2.128   8.139   6.119  0.5936  0.1259 -1.2249
   64MOL0     C 8520   1.980   8.177   6.123 -0.0659 -0.1433  0.2594
   64MOL0     C 8521   1.898   8.096   6.026 -0.2565 -0.4458  0.3066
   64MOL0     N 8522   1.757   8.109   6.059  0.1515 -0.3809  0.4935
   64MOL0     C 8523   1.676   8.221   6.062 -1.1667 -0.5331 -0.2652
   64MOL0     C 8524   1.562   8.185   6.124 -0.8744  0.3864 -0.0086
   64MOL0     C 8525   1.458   8.262   6.193  0.3281  0.1874  1.0740
   64MOL0     C 8526   1.326   8.233   6.120 -1.1847  0.5562 -0.5270
   64MOL0     C 8527   1.220   8.335   6.158 -0.1202 -0.0379 -0.5347
   64MOL0     C 8528   1.089   8.275   6.107  0.1098 -0.7615  0.6336
   64MOL0     O 8529   1.087   8.290   5.970 -0.5736 -0.5707 -0.2222
   64MOL0     C 8530   0.974   8.256   5.894 -0.0182  0.1528 -0.7846
   64MOL0     C 8531   0.987   8.252   5.752  1.2621 -0.1807  0.1903
   64MOL0     C 8532   0.881   8.213   5.666 -0.3354 -0.4848  0.2804
   64MOL0     C 8533   0.902   8.244   5.520 -0.3020 -0.2157  0.6514
   64MOL0     C 8534   0.755   8.175   5.728 -1.1651  0.6875  0.5241
   64MOL0     C 8535   0.637   8.152   5.651 -0.0719  0.3367 -0.0217
   64MOL0     O 8536   0.613   8.229   5.542 -0.1411 -0.3512  0.0156
   64MOL0     C 8537   0.496   8.226   5.473 -0.3015  0.7526 -0.7562
   64MOL0     C 8538   0.470   8.113   5.392 -0.0290  0.5334 -0.4407
   64MOL0     C 8539   0.343   8.093   5.345 -0.3392  0.0231  0.6545
   64MOL0     C 8540   0.244   8.188   5.362 -0.0640  0.2785  0.9018
   64MOL0     O 8541   0.119   8.159   5.307  0.4019 -0.6077 -0.7121
   64MOL0     C 8542   0.009   8.263   5.324 -0.5410  0.9259 -0.3527
   64MOL0     C 8543  -0.111   8.190   5.272  1.0123  0.5087  0.1919
   64MOL0     C 8544  -0.235   8.272   5.312  0.5777  0.3353 -0.0171
   64MOL0     C 8545  -0.367   8.197   5.291  0.3469 -0.5245 -0.2819
   64MOL0     C 8546  -0.487   8.304   5.286 -0.2809  0.6197 -0.0575
   64MOL0     C 8547  -0.504   8.384   5.417 -0.0748 -0.2615  0.5583
   64MOL0     C 8548  -0.620   8.483   5.408 -0.0175  0.3894  0.1802
   64MOL0     C 8549  -0.617   8.599   5.504  0.1111  0.3892  0.0290
   64MOL0    Cl 8550  -0.609   8.543   5.667 -0.2919 -0.1302 -0.2403
   64MOL0     C 8551   0.270   8.304   5.434 -0.2434  0.5006 -0.2140
   64MOL0     C 8552   0.388   8.314   5.504 -0.1609  0.2192 -0.5782
   64MOL0     O 8553   0.564   8.060   5.690  0.5410 -0.2185 -0.0302
   64MOL0     C 8554   0.751   8.160   5.869 -1.2142 -0.0872 -0.0231
   64MOL0     C 8555   0.857   8.204   5.950  0.3082 -0.2820  0.1889
   64MOL0     N 8556   1.573   8.050   6.136 -0.3291 -0.2591  0.7037
   64MOL0     N 8557   1.695   8.003   6.115 -0.0367 -0.0008 -0.3668
   64MOL0     C 8558   2.952   8.439   6.528 -0.3391  0.4654 -0.4361
   64MOL0     C 8559   3.034   8.507   6.615 -1.1504  0.0570 -0.9174
   64MOL0     C 8560   3.250   8.843   6.833  1.0969  0.0461 -0.3300
   64MOL0     C 8561   3.187   8.861   6.962 -0.5946  0.1317  0.5458
   64MOL0     C 8562   3.247   8.947   7.059  0.4907  0.2206 -0.5360
   64MOL0     C 8563   3.368   9.005   7.045  0.1215  0.3299 -0.2958
   64MOL0     O 8564   3.419   9.088   7.136 -0.0562 -0.3565  0.3484
   64MOL0     C 8565   3.423   9.042   7.272 -0.5937  0.8228 -0.2064
   64MOL0     C 8566   3.520   8.926   7.307  0.4073 -0.3159 -0.0888
   64MOL0     C 8567   3.457   8.784   7.277 -0.1599  0.5384 -0.3487
   64MOL0     C 8568   3.539   8.657   7.305 -0.2016 -0.3555 -0.6812
   64MOL0     C 8569   3.561   8.660   7.451  0.0850 -0.0773 -0.2490
   64MOL0     C 8570   3.608   8.675   7.559  0.1140  0.4260  0.2950
   64MOL0     C 8571   3.425   8.991   6.916 -0.2675 -1.3793  0.1958
   64MOL0     C 8572   3.374   8.914   6.808  0.9355 -0.8920 -0.0975
   64MOL0     H 8573   2.814   8.736   6.734  2.9725  1.5817  1.0276
   64MOL0     H 8574   2.654   8.590   6.584 -0.0012  2.3189  1.4682
   64MOL0     H 8575   2.564   8.441   6.473 -0.2433  0.2869  0.3073
   64MOL0     H 8576   2.656   8.502   6.321 -1.2406  1.0805  0.5990
   64MOL0     H 8577   2.631   8.290   6.216 -1.2188  0.6925 -0.4910
   64MOL0     H 8578   2.586   8.198   6.351 -2.5137 -1.4338 -2.3805
   64MOL0     H 8579   2.378   8.362   6.383  1.4948  1.4408  0.0600
   64MOL0     H 8580   2.426   8.410   6.215  1.4248 -0.5990 -2.0834
   64MOL0     H 8581   2.404   8.178   6.131 -0.7074 -0.0915 -0.1577
   64MOL0     H 8582   2.360   8.122   6.291 -4.1206 -0.2836 -1.0364
   64MOL0     H 8583   2.158   8.268   6.299 -0.2311  6.4723 -1.2668
   64MOL0     H 8584   2.209   8.343   6.153  1.7028  0.8346  1.3292
   64MOL0     H 8585   2.164   8.147   6.016  0.7736  0.5011 -1.1345
   64MOL0     H 8586   2.135   8.036   6.156  1.9831  0.6147 -0.0320
   64MOL0     H 8587   1.932   8.152   6.217 -3.6198  0.7178 -1.1728
   64MOL0     H 8588   1.963   8.283   6.100  2.6823  0.3114 -0.0822
   64MOL0     H 8589   1.930   7.992   6.019  1.4543  0.0169  0.7357
   64MOL0     H 8590   1.918   8.145   5.930  0.2172 -4.1201 -1.6342
   64MOL0     H 8591   1.704   8.325   6.051 -0.3042 -0.8392 -1.0544
   64MOL0     H 8592   1.454   8.230   6.298 -1.0919  1.5577  1.4844
   64MOL0     H 8593   1.477   8.370   6.193 -1.4599  0.5666 -1.0946
   64MOL0     H 8594   1.299   8.131   6.151  0.2281  0.0043 -1.0159
   64MOL0     H 8595   1.334   8.231   6.011 -0.0466  1.4672 -0.4838
   64MOL0     H 8596   1.236   8.429   6.104 -0.3302 -0.0296 -0.5812
   64MOL0     H 8597   1.213   8.353   6.266 -2.4061  1.5323 -0.8918
   64MOL0     H 8598   1.002   8.326   6.151  0.3498 -1.5711  2.1184
   64MOL0     H 8599   1.079   8.175   6.150  1.6703 -1.0231  0.4334
   64MOL0     H 8600   1.081   8.293   5.716  0.9716 -1.2648 -1.9742
   64MOL0     H 8601   1.009   8.257   5.502  0.2484 -2.5259  1.9092
   64MOL0     H 8602   0.882   8.153   5.462  1.2957 -1.5897  2.1580
   64MOL0     H 8603   0.847   8.329   5.480 -2.1308 -1.3920  0.5401
   64MOL0     H 8604   0.546   8.039   5.371 -1.5684 -0.6492 -2.2297
   64MOL0     H 8605   0.310   8.002   5.295  4.4221  0.0520 -3.3231
   64MOL0     H 8606  -0.015   8.285   5.428 -1.2162 -1.3594  0.0289
   64MOL0     H 8607   0.026   8.351   5.262  0.1324  1.3017  0.3461
   64MOL0     H 8608  -0.108   8.167   5.165 -0.4892  1.4536 -0.0938
   64MOL0     H 8609  -0.119   8.101   5.334  1.5660  2.2801  2.9840
   64MOL0     H 8610  -0.244   8.349   5.235 -1.9910 -0.5172 -0.7043
   64MOL0     H 8611  -0.234   8.319   5.410 -0.3093  0.3030  0.0181
   64MOL0     H 8612  -0.375   8.139   5.199 -0.5607  0.5153 -0.8761
   64MOL0     H 8613  -0.381   8.136   5.381  2.1194  1.7314  1.6550
   64MOL0     H 8614  -0.580   8.253   5.261  0.2173 -0.0659 -0.5439
   64MOL0     H 8615  -0.463   8.374   5.205 -2.0593  0.5793 -0.6582
   64MOL0     H 8616  -0.538   8.318   5.497  1.8814  0.5848  2.1660
   64MOL0     H 8617  -0.406   8.423   5.443 -0.1833 -0.0119  0.5972
   64MOL0     H 8618  -0.702   8.410   5.411 -0.1450  0.5652  1.2343
   64MOL0     H 8619  -0.626   8.533   5.311  2.4188 -2.0142 -1.3791
   64MOL0     H 8620  -0.708   8.659   5.492 -0.5254 -0.9877 -2.8915
   64MOL0     H 8621  -0.531   8.659   5.473 -0.8336  2.2358  0.8369
   64MOL0     H 8622   0.187   8.371   5.454 -1.1173 -0.5193 -0.2865
   64MOL0     H 8623   0.395   8.386   5.585 -0.8530 -1.9732  1.5549
   64MOL0     H 8624   0.655   8.126   5.907 -2.4001  2.7214 -0.2380
   64MOL0     H 8625   0.839   8.198   6.057 -1.6373 -0.1781 -0.0990
   64MOL0     H 8626   2.985   8.347   6.480  0.8351  0.7611 -0.2406
   64MOL0     H 8627   3.141   8.491   6.611 -0.9793 -0.6237  2.8078
   64MOL0     H 8628   3.086   8.826   6.977 -0.5415  1.0914  4.1997
   64MOL0     H 8629   3.192   8.962   7.152  1.4465 -0.3537  0.1434
   64MOL0     H 8630   3.449   9.129   7.334  1.0336  2.9167 -3.5551
   64MOL0     H 8631   3.322   9.017   7.308  0.0616 -2.4266 -0.3306
   64MOL0     H 8632   3.559   8.941   7.408  0.6752  0.9900 -0.3721
   64MOL0     H 8633   3.604   8.933   7.237 -0.6391  0.3862 -1.3133
   64MOL0     H 8634   3.436   8.778   7.169 -1.6293 -2.7749  0.0012
   64MOL0     H 8635   3.361   8.779   7.330 -0.5555  1.5975 -0.9223
   64MOL0     H 8636   3.635   8.656   7.253  2.3661 -1.6765  3.5638
   64MOL0     H 8637   3.486   8.569   7.268  0.1422  0.4584 -3.3037
   64MOL0     H 8638   3.635   8.695   7.661  1.7401  1.1084 -0.2440
   64MOL0     H 8639   3.515   9.045   6.889 -0.0414 -1.2590  1.1507
   64MOL0     H 8640   3.415   8.939   6.711  0.1160  0.2769 -0.1631
   65MOL0     O 8641   7.958   6.430   4.824 -0.3882  0.2347 -0.4505
   65MOL0     C 8642   7.980   6.554   4.823 -0.7630  1.5881 -0.3861
   65MOL0     O 8643   8.096   6.613   4.860  0.1034  0.3020  0.5628
   65MOL0     C 8644   8.207   6.533   4.859 -0.4603 -0.0275 -0.1341
   65MOL0     C 8645   8.270   6.475   4.745 -0.1995  0.9369 -0.2210
   65MOL0     C 8646   8.382   6.392   4.749  0.2137  0.7712  0.0548
   65MOL0     C 8647   8.438   6.368   4.875  0.6491 -0.7094 -0.2036
   65MOL0     O 8648   8.534   6.275   4.895 -0.0277 -0.3715  1.0242
   65MOL0     C 8649   8.613   6.250   4.780 -0.3593  0.5628 -0.2885
   65MOL0     C 8650   8.717   6.151   4.845 -0.3155 -0.0523 -0.1379
   65MOL0     C 8651   8.814   6.225   4.945 -0.5664  0.2011 -0.1695
   65MOL0     C 8652   8.956   6.222   4.892 -0.2871  0.0307 -0.5124
   65MOL0     C 8653   9.040   6.285   4.997 -0.9329  0.2020 -0.4112
   65MOL0     C 8654   9.193   6.298   4.959 -0.4052  0.2328 -0.0974
   65MOL0     C 8655   9.211   6.393   4.841 -0.2767 -0.1467  0.6384
   65MOL0     C 8656   9.368   6.400   4.806  0.0376  0.3069  0.4762
   65MOL0     N 8657   9.378   6.435   4.661  0.8714 -1.0123 -0.0794
   65MOL0     C 8658   9.504   6.460   4.613  0.7910 -0.4486  0.4098
   65MOL0     C 8659   9.489   6.544   4.502  0.0652  1.1805 -0.2745
   65MOL0     C 8660   9.594   6.623   4.427 -1.1871  0.6567  0.7111
   65MOL0     C 8661   9.567   6.640   4.274  0.8013 -0.3423  1.1031
   65MOL0     C 8662   9.667   6.724   4.198 -0.7592 -0.3329 -0.1846
   65MOL0     C 8663   9.607   6.763   4.070 -0.9218 -0.7628  0.8403
   65MOL0     O 8664   9.532   6.892   4.082 -0.2205 -0.2192  0.2416
   65MOL0     C 8665   9.406   6.877   4.020  0.5486  0.4698 -0.0388
   65MOL0     C 8666   9.395   6.893   3.882 -0.0405  0.1698 -0.0008
   65MOL0     C 8667   9.275   6.886   3.808  0.3463 -0.4271  0.3998
   65MOL0     C 8668   9.284   6.899   3.657 -0.4491 -0.4636 -0.0624
   65MOL0     C 8669   9.152   6.866   3.880  0.3944  0.7020  0.0725
   65MOL0     C 8670   9.013   6.866   3.821  0.2559 -0.7673  0.4172
   65MOL0     O 8671   8.909   6.875   3.901  0.2538  0.1074 -0.3368
   65MOL0     C 8672   8.784   6.861   3.848 -0.2067 -0.7896 -0.6846
   65MOL0     C 8673   8.711   6.969   3.809 -0.0888 -0.4760  0.2934
   65MOL0     C 8674   8.592   6.957   3.742  0.3990  0.4181 -0.3337
   65MOL0     C 8675   8.536   6.825   3.720 -0.2398 -0.4663 -0.2483
   65MOL0     O 8676   8.410   6.802   3.661 -0.4283  0.1619 -0.4682
   65MOL0     C 8677   8.313   6.905   3.664  0.5705 -0.2011  0.2787
   65MOL0     C 8678   8.183   6.854   3.604 -0.0708  0.5958 -0.9758
   65MOL0     C 8679   8.090   6.965   3.534  0.2372  0.8803  0.3506
   65MOL0     C 8680   7.966   6.899   3.480  0.7595 -0.1263  0.3266
   65MOL0     C 8681   7.893   7.015   3.405  0.0226  0.3956  0.0936
   65MOL0     C 8682   7.762   6.947   3.351  0.4531  0.2470  0.6098
   65MOL0     C 8683   7.684   7.038   3.249  0.0296 -0.3742 -0.5333
   65MOL0     C 8684   7.601   6.961   3.151  0.0255 -0.6371 -0.4970
   65MOL0    Cl 8685   7.476   6.850   3.236  0.0735  0.2508  0.0199
   65MOL0     C 8686   8.616   6.716   3.754  0.2591  0.6541  0.3943
   65MOL0     C 8687   8.737   6.739   3.820 -0.6154  0.2336  0.3159
   65MOL0     O 8688   9.002   6.870   3.700  0.7157  0.0806  0.0815
   65MOL0     C 8689   9.168   6.845   4.018 -0.2154  0.4116  0.4293
   65MOL0     C 8690   9.289   6.853   4.088  0.1747 -0.2325 -1.1725
   65MOL0     N 8691   9.349   6.551   4.490 -0.5164  0.3429 -0.4246
   65MOL0     N 8692   9.280   6.497   4.588 -0.0671  0.3374  1.1557
   65MOL0     C 8693   8.376   6.426   4.988 -0.1359  1.0486  0.3765
   65MOL0     C 8694   8.256   6.502   4.987 -0.9292 -0.0995 -0.3857
   65MOL0     C 8695   7.891   6.649   4.768  0.3944  0.9824  0.3735
   65MOL0     C 8696   7.750   6.621   4.754 -0.0594 -0.3621  1.0535
   65MOL0     C 8697   7.664   6.713   4.696  0.0454 -0.8054  0.2639
   65MOL0     C 8698   7.705   6.838   4.651 -0.4423 -0.3289 -1.1554
   65MOL0     O 8699   7.627   6.937   4.597  0.3004 -0.5339  0.2911
   65MOL0     C 8700   7.485   6.922   4.585  1.3631 -0.7510  0.6370
   65MOL0     C 8701   7.444   7.041   4.523 -0.1303 -0.4494  0.0014
   65MOL0     C 8702   7.296   7.060   4.537 -0.5021  0.1740  1.0976
   65MOL0     C 8703   7.241   7.195   4.491 -0.0280 -0.2145  0.0591
   65MOL0     C 8704   7.095   7.206   4.510  0.3671  0.1438  0.1551
   65MOL0     C 8705   6.973   7.200   4.533  0.5917  0.2218 -0.0137
   65MOL0     C 8706   7.840   6.858   4.665  0.3372 -0.0159 -0.9408
   65MOL0     C 8707   7.931   6.774   4.721  0.2033 -0.6313 -0.3902
   65MOL0     H 8708   8.223   6.504   4.652 -2.6390  0.4168  0.7875
   65MOL0     H 8709   8.398   6.335   4.658 -0.0368  2.0255 -0.7986
   65MOL0     H 8710   8.556   6.188   4.710 -2.6657 -1.3789  3.0322
   65MOL0     H 8711   8.657   6.337   4.730  0.5258 -0.1122 -0.7058
   65MOL0     H 8712   8.661   6.082   4.909 -1.2076  1.1153  0.3817
   65MOL0     H 8713   8.769   6.106   4.759 -0.2193  2.1205 -1.2964
   65MOL0     H 8714   8.786   6.330   4.955  1.4435  0.8032 -0.4402
   65MOL0     H 8715   8.817   6.172   5.040  2.8234  2.3664  1.1002
   65MOL0     H 8716   8.987   6.117   4.883 -1.5349 -0.2757 -1.5038
   65MOL0     H 8717   8.972   6.281   4.801  2.5107 -0.1034 -0.1926
   65MOL0     H 8718   9.003   6.384   5.023 -0.2539  0.7113 -1.3036
   65MOL0     H 8719   9.037   6.219   5.084  0.1172  0.6685 -0.0059
   65MOL0     H 8720   9.254   6.347   5.036  3.5182 -0.3061 -2.5959
   65MOL0     H 8721   9.231   6.198   4.938 -0.9123  0.1365 -0.5705
   65MOL0     H 8722   9.163   6.343   4.756 -1.1221 -1.9349  2.0902
   65MOL0     H 8723   9.170   6.493   4.857  1.9001  0.6539  1.5138
   65MOL0     H 8724   9.420   6.304   4.818  0.4684  0.7645  2.8746
   65MOL0     H 8725   9.424   6.458   4.880 -1.0555 -2.3549  3.6591
   65MOL0     H 8726   9.603   6.432   4.648  1.4738 -0.9900 -1.7605
   65MOL0     H 8727   9.593   6.716   4.484 -1.4070  0.3067  1.2895
   65MOL0     H 8728   9.690   6.570   4.430 -1.9101 -1.0916 -2.1959
   65MOL0     H 8729   9.466   6.683   4.270 -0.9298 -4.1858 -1.1315
   65MOL0     H 8730   9.565   6.545   4.221 -0.9641  1.4238 -2.2848
   65MOL0     H 8731   9.761   6.669   4.186  0.0549  0.4186  2.1324
   65MOL0     H 8732   9.699   6.804   4.265  1.6765  0.1361 -1.7776
   65MOL0     H 8733   9.546   6.682   4.029  1.7933 -2.1379 -0.7084
   65MOL0     H 8734   9.682   6.777   3.992  2.5323 -1.0374  3.8761
   65MOL0     H 8735   9.482   6.914   3.821 -0.4036  2.3905  0.1548
   65MOL0     H 8736   9.254   6.808   3.604 -1.3882 -0.0229 -0.3169
   65MOL0     H 8737   9.211   6.976   3.628  0.2248 -0.2160 -1.1754
   65MOL0     H 8738   9.379   6.936   3.617  0.0690 -3.6453 -2.0910
   65MOL0     H 8739   8.727   7.070   3.844  0.0765  0.2189 -1.6323
   65MOL0     H 8740   8.524   7.039   3.719 -1.6032 -1.0456  0.1083
   65MOL0     H 8741   8.296   6.928   3.769  2.0502 -0.4244  0.5897
   65MOL0     H 8742   8.339   6.996   3.609 -0.7272  0.6838  1.0762
   65MOL0     H 8743   8.204   6.783   3.524  2.5718 -1.2635  1.1818
   65MOL0     H 8744   8.127   6.793   3.676  2.1315  0.2905  0.5641
   65MOL0     H 8745   8.149   7.007   3.452 -0.6331 -0.9648 -1.3137
   65MOL0     H 8746   8.078   7.043   3.609  0.7531  2.7134 -1.3729
   65MOL0     H 8747   7.984   6.812   3.416 -0.2709 -0.3725  0.3544
   65MOL0     H 8748   7.903   6.864   3.563  1.5005  1.1343  1.4703
   65MOL0     H 8749   7.957   7.063   3.331 -0.6698  0.0701 -0.7494
   65MOL0     H 8750   7.858   7.093   3.473  0.1542 -0.0419  0.6699
   65MOL0     H 8751   7.788   6.860   3.291 -1.2533 -0.1646  0.4034
   65MOL0     H 8752   7.700   6.927   3.439  2.5487  0.6503  2.2485
   65MOL0     H 8753   7.761   7.083   3.186 -0.6543 -1.2148 -2.0301
   65MOL0     H 8754   7.623   7.112   3.301  0.5176  2.2869 -3.4785
   65MOL0     H 8755   7.665   6.906   3.082  2.8178 -0.2152  1.5958
   65MOL0     H 8756   7.544   7.028   3.086 -1.4193 -0.1599  1.1663
   65MOL0     H 8757   8.587   6.614   3.732  0.5581  0.4615  0.8991
   65MOL0     H 8758   8.792   6.647   3.836 -0.5929  0.0727 -0.5892
   65MOL0     H 8759   9.075   6.836   4.075 -2.0551  2.0964 -2.0853
   65MOL0     H 8760   9.296   6.839   4.195 -0.2871 -0.0332 -1.1133
   65MOL0     H 8761   8.401   6.386   5.086 -1.1905 -1.4681 -0.3056
   65MOL0     H 8762   8.197   6.541   5.068 -1.4752  0.1657 -0.9004
   65MOL0     H 8763   7.708   6.525   4.782  3.1185 -2.0819  0.4381
   65MOL0     H 8764   7.562   6.677   4.688 -0.5159  0.4016  1.4671
   65MOL0     H 8765   7.469   6.836   4.520  1.4830  1.3919 -2.4230
   65MOL0     H 8766   7.442   6.906   4.685  2.3944  0.4068  1.3072
   65MOL0     H 8767   7.469   7.033   4.416 -0.4747  0.7686 -0.1924
   65MOL0     H 8768   7.500   7.124   4.567  1.9451 -1.6217 -0.3060
   65MOL0     H 8769   7.268   7.050   4.642 -1.8016  2.1084  0.9989
   65MOL0     H 8770   7.246   6.981   4.481  0.3849 -0.1861  0.7933
   65MOL0     H 8771   7.260   7.191   4.383  0.9383 -2.4316  0.2405
   65MOL0     H 8772   7.301   7.273   4.539  0.6071 -0.2494 -0.6508
   65MOL0     H 8773   6.868   7.197   4.551 -0.0363  2.0455 -2.8114
   65MOL0     H 8774   7.882   6.950   4.626 -1.5290 -0.7578 -5.3948
   65MOL0     H 8775   8.033   6.812   4.725 -0.3032  0.7313  0.5007
   66MOL0     O 8776   9.487   4.960   4.214 -0.5232 -0.0220 -1.2995
   66MOL0     C 8777   9.557   4.994   4.120  0.6405 -0.0337 -0.1122
   66MOL0     O 8778   9.514   5.059   4.015 -0.5273 -0.7687  0.2834
   66MOL0     C 8779   9.372   5.068   3.993 -0.4926  0.5083  0.3974
   66MOL0     C 8780   9.267   4.980   4.024  0.4641  0.2666 -0.5108
   66MOL0     C 8781   9.135   5.013   3.998  0.2951  0.0924 -0.0168
   66MOL0     C 8782   9.107   5.143   3.952  0.0795  0.3016  0.0966
   66MOL0     O 8783   8.985   5.199   3.931 -0.4064  0.0645  0.2597
   66MOL0     C 8784   8.866   5.119   3.930  0.6900 -0.7646 -0.5833
   66MOL0     C 8785   8.745   5.211   3.941 -0.1443  0.2238 -0.4453
   66MOL0     C 8786   8.613   5.142   3.957  0.9813 -0.2817 -0.0640
   66MOL0     C 8787   8.491   5.238   3.970  0.0626  0.0375 -0.2853
   66MOL0     C 8788   8.363   5.170   3.990 -0.1476  0.0969 -0.1819
   66MOL0     C 8789   8.315   5.074   3.875  0.0095 -1.0909  0.7510
   66MOL0     C 8790   8.312   5.133   3.733  0.3651 -0.3615  0.4323
   66MOL0     C 8791   8.193   5.231   3.711 -1.0868 -0.3016  0.8518
   66MOL0     N 8792   8.059   5.176   3.749 -0.3800  0.2119 -0.1181
   66MOL0     C 8793   8.012   5.059   3.699  0.9308  0.4875 -0.5672
   66MOL0     C 8794   7.887   5.063   3.749 -0.2150  0.3946 -0.2199
   66MOL0     C 8795   7.787   4.950   3.752 -0.2558 -0.2994  0.2373
   66MOL0     C 8796   7.649   4.984   3.689  1.0193  0.0434  0.1909
   66MOL0     C 8797   7.553   4.871   3.692  0.1585 -0.2335  0.9175
   66MOL0     C 8798   7.425   4.883   3.604 -0.8788 -0.8036  0.3217
   66MOL0     O 8799   7.324   4.799   3.665 -0.2146  0.1109  0.1880
   66MOL0     C 8800   7.197   4.806   3.606  0.7447 -0.8351 -0.4639
   66MOL0     C 8801   7.084   4.761   3.675 -0.1698  0.0038  0.3432
   66MOL0     C 8802   6.955   4.774   3.631  0.7319 -0.1286 -0.6427
   66MOL0     C 8803   6.844   4.703   3.707  0.4103  0.0388 -0.7205
   66MOL0     C 8804   6.927   4.840   3.513  0.1661  0.0969  0.8371
   66MOL0     C 8805   6.785   4.859   3.457 -0.1020 -0.1250  0.2940
   66MOL0     O 8806   6.776   4.894   3.321  0.5167 -0.7411 -0.0729
   66MOL0     C 8807   6.669   4.972   3.272 -0.6685  0.0097 -0.0566
   66MOL0     C 8808   6.688   5.089   3.192  0.0314  0.0195 -0.4577
   66MOL0     C 8809   6.588   5.174   3.153  1.0547  0.1160  0.8979
   66MOL0     C 8810   6.452   5.135   3.180  0.8562 -0.4968 -0.0223
   66MOL0     O 8811   6.349   5.209   3.124 -0.6691  0.4365 -0.3843
   66MOL0     C 8812   6.216   5.150   3.106  0.0518  0.5235 -0.1301
   66MOL0     C 8813   6.116   5.270   3.114 -0.2593  1.1304  0.1355
   66MOL0     C 8814   5.986   5.229   3.044  0.3609 -0.1789  0.1272
   66MOL0     C 8815   5.898   5.346   3.028  1.2137  0.1293 -0.4538
   66MOL0     C 8816   5.752   5.292   3.003 -0.0284  0.2905  0.2552
   66MOL0     C 8817   5.650   5.403   2.971  0.7251  0.0004  0.0340
   66MOL0     C 8818   5.502   5.364   3.001 -0.4082 -1.3704 -0.4130
   66MOL0     C 8819   5.408   5.486   2.966  0.1962 -0.2582  0.1249
   66MOL0    Cl 8820   5.238   5.450   2.972 -0.0969  0.2833 -0.1911
   66MOL0     C 8821   6.431   5.012   3.247  0.2234 -0.5049 -0.3527
   66MOL0     C 8822   6.537   4.934   3.285 -0.1651  0.5676  0.4014
   66MOL0     O 8823   6.685   4.863   3.534  0.0382 -0.8306  0.9142
   66MOL0     C 8824   7.039   4.884   3.435  0.1069  0.9894 -1.2780
   66MOL0     C 8825   7.165   4.861   3.481 -0.4476  0.3374  0.0116
   66MOL0     N 8826   7.857   5.190   3.798  0.7166 -0.3802  0.2207
   66MOL0     N 8827   7.962   5.259   3.800 -0.4844 -0.1617  0.1613
   66MOL0     C 8828   9.210   5.226   3.914  0.5253 -0.3505 -0.0612
   66MOL0     C 8829   9.346   5.184   3.924 -0.0804  0.3954 -0.0289
   66MOL0     C 8830   9.698   4.947   4.118  0.1638  0.8011  0.7734
   66MOL0     C 8831   9.747   4.870   4.224 -0.7339  0.0239  0.1017
   66MOL0     C 8832   9.871   4.800   4.207 -0.0086  0.1872 -0.0498
   66MOL0     C 8833   9.941   4.798   4.090  0.4296 -0.4998 -0.3371
   66MOL0     O 8834  10.054   4.719   4.098  0.3020  0.0280  0.5884
   66MOL0     C 8835  10.115   4.686   3.976  0.2375  0.4099 -0.0201
   66MOL0     C 8836  10.243   4.762   3.981 -0.8054  0.2458 -0.0136
   66MOL0     C 8837  10.311   4.776   3.845 -0.0288  0.0440  0.0207
   66MOL0     C 8838  10.362   4.648   3.775 -0.4005  0.0693 -0.5316
   66MOL0     C 8839  10.447   4.557   3.849 -0.2478  0.3293 -0.0786
   66MOL0     C 8840  10.533   4.488   3.906 -0.7761  0.2806 -0.2069
   66MOL0     C 8841   9.900   4.884   3.988 -0.9353  0.7228  0.9060
   66MOL0     C 8842   9.780   4.961   4.000  0.8026  0.1523  0.1464
   66MOL0     H 8843   9.291   4.884   4.069  1.7954  0.3691 -0.9497
   66MOL0     H 8844   9.050   4.951   4.024 -1.3142  1.4026 -1.9022
   66MOL0     H 8845   8.865   5.066   3.835 -0.9255  0.1740 -1.1325
   66MOL0     H 8846   8.868   5.053   4.018 -3.0167  0.3276  0.5235
   66MOL0     H 8847   8.767   5.277   4.025  0.5704  3.5602 -3.0386
   66MOL0     H 8848   8.741   5.265   3.846 -3.2356 -0.8105 -0.9979
   66MOL0     H 8849   8.595   5.066   3.880 -0.9910 -1.8799  1.8504
   66MOL0     H 8850   8.616   5.088   4.052  0.4823 -2.0465 -0.9892
   66MOL0     H 8851   8.521   5.284   4.065  0.7865  0.2986 -0.6320
   66MOL0     H 8852   8.493   5.307   3.885  2.1176 -0.5627 -0.7734
   66MOL0     H 8853   8.369   5.121   4.088  0.5604 -1.1296 -0.8142
   66MOL0     H 8854   8.285   5.243   4.014 -0.0590  0.2272 -0.2920
   66MOL0     H 8855   8.390   4.994   3.871  1.5707  0.3265  0.2330
   66MOL0     H 8856   8.221   5.026   3.901 -1.3360  0.2112 -1.3844
   66MOL0     H 8857   8.408   5.178   3.706  1.2792 -1.1889  2.1839
   66MOL0     H 8858   8.287   5.051   3.665 -1.7693  0.8356 -0.3094
   66MOL0     H 8859   8.195   5.255   3.604  0.0073 -1.2105  0.6467
   66MOL0     H 8860   8.211   5.329   3.756 -2.0073  0.0284  0.5332
   66MOL0     H 8861   8.057   4.976   3.645 -0.4040 -2.3489  2.2845
   66MOL0     H 8862   7.835   4.863   3.705  2.7730  0.2514  2.0658
   66MOL0     H 8863   7.795   4.932   3.859 -0.1621 -0.2242  0.2435
   66MOL0     H 8864   7.679   5.003   3.586 -1.3875 -0.4915 -0.6596
   66MOL0     H 8865   7.611   5.071   3.743  1.4043 -0.8059  1.9111
   66MOL0     H 8866   7.522   4.866   3.797  1.6134 -0.4628  1.3541
   66MOL0     H 8867   7.612   4.785   3.660 -2.9821 -1.3858 -2.4687
   66MOL0     H 8868   7.461   4.847   3.506 -1.1107 -1.0184  0.3146
   66MOL0     H 8869   7.401   4.989   3.599 -2.8742 -1.2709 -1.3667
   66MOL0     H 8870   7.104   4.712   3.770  1.3244  0.3854  0.2501
   66MOL0     H 8871   6.782   4.774   3.762  1.6501  0.0995  0.6608
   66MOL0     H 8872   6.779   4.646   3.640 -0.7459 -1.4216  1.5305
   66MOL0     H 8873   6.883   4.627   3.776 -0.3777 -1.0048 -1.3897
   66MOL0     H 8874   6.785   5.119   3.154  0.1283 -2.1274 -2.1153
   66MOL0     H 8875   6.608   5.271   3.108  3.7796 -0.8175 -0.1652
   66MOL0     H 8876   6.225   5.090   3.015  1.1781 -1.9737  1.5171
   66MOL0     H 8877   6.193   5.086   3.191 -0.4719 -0.4888 -1.0133
   66MOL0     H 8878   6.091   5.299   3.216 -0.5149 -1.5731  0.9072
   66MOL0     H 8879   6.167   5.354   3.066  0.2024  2.1661  2.3444
   66MOL0     H 8880   5.928   5.160   3.104 -1.4123  0.8252 -0.3718
   66MOL0     H 8881   6.016   5.200   2.942  0.2458 -1.2450  0.3884
   66MOL0     H 8882   5.891   5.390   3.128 -0.4389 -0.9266 -0.0650
   66MOL0     H 8883   5.941   5.422   2.962  1.7282  0.4769  0.2616
   66MOL0     H 8884   5.728   5.239   3.096  2.8121 -0.7580  0.4861
   66MOL0     H 8885   5.746   5.217   2.924 -1.3956 -1.2320  1.7164
   66MOL0     H 8886   5.684   5.487   3.032  4.9071 -0.2333 -1.6416
   66MOL0     H 8887   5.644   5.430   2.865  0.5770  0.5863  0.1892
   66MOL0     H 8888   5.474   5.328   3.101 -0.0534 -1.6930 -0.4256
   66MOL0     H 8889   5.476   5.287   2.928 -2.0225  0.9555 -2.4383
   66MOL0     H 8890   5.423   5.517   2.863 -3.6266  0.6503 -0.3135
   66MOL0     H 8891   5.434   5.569   3.033 -3.4943 -0.3592  1.9211
   66MOL0     H 8892   6.335   4.966   3.270  1.2033 -3.0198 -1.0186
   66MOL0     H 8893   6.527   4.840   3.337 -1.1102 -0.1886 -1.0624
   66MOL0     H 8894   7.022   4.949   3.349  0.8080  0.9544 -1.4507
   66MOL0     H 8895   7.241   4.911   3.423 -0.8087  0.1463 -0.6424
   66MOL0     H 8896   9.185   5.323   3.872 -0.2716 -0.6007 -0.1930
   66MOL0     H 8897   9.424   5.246   3.882  0.2332  1.3637  1.8694
   66MOL0     H 8898   9.682   4.870   4.310 -3.1988 -2.1160 -1.5780
   66MOL0     H 8899   9.911   4.745   4.292 -1.0879 -0.7052 -0.1021
   66MOL0     H 8900  10.138   4.580   3.963 -0.7971 -0.0977  1.9212
   66MOL0     H 8901  10.059   4.719   3.888 -1.5187  0.4797  1.0662
   66MOL0     H 8902  10.308   4.716   4.057  0.0769  0.7072 -0.4738
   66MOL0     H 8903  10.221   4.863   4.018  0.2707  0.0333  1.2984
   66MOL0     H 8904  10.396   4.844   3.863 -0.4216  0.3461  0.7747
   66MOL0     H 8905  10.245   4.821   3.770 -0.3501  0.0329  0.2949
   66MOL0     H 8906  10.414   4.676   3.684  0.9621 -0.7157 -0.0243
   66MOL0     H 8907  10.281   4.585   3.735 -1.3502  1.1992 -0.4283
   66MOL0     H 8908  10.600   4.420   3.955  0.4682  0.8692 -1.0478
   66MOL0     H 8909   9.964   4.909   3.904 -0.1890  1.9211  1.8010
   66MOL0     H 8910   9.748   5.031   3.923  0.7287  1.6454  1.4817
   67MOL0     O 8911   6.822   3.723   3.322 -0.8584 -0.1391 -0.2422
   67MOL0     C 8912   6.827   3.842   3.339 -0.3632  0.4323  0.5814
   67MOL0     O 8913   6.732   3.935   3.355  1.2295 -0.4637  0.7443
   67MOL0     C 8914   6.595   3.908   3.373 -0.4000 -0.0711  0.1785
   67MOL0     C 8915   6.525   3.794   3.328  0.7393  0.5133  0.2402
   67MOL0     C 8916   6.386   3.800   3.340 -0.8895  0.7651 -0.1981
   67MOL0     C 8917   6.313   3.911   3.377  1.1537  0.2365  0.2690
   67MOL0     O 8918   6.176   3.925   3.386  0.2277 -0.1739 -0.1781
   67MOL0     C 8919   6.099   3.801   3.349  0.3488 -0.0912 -0.3578
   67MOL0     C 8920   5.956   3.818   3.408 -0.3157 -0.3579 -0.7549
   67MOL0     C 8921   5.863   3.719   3.341  0.1154  0.0487  0.9801
   67MOL0     C 8922   5.728   3.707   3.419  0.3458 -0.0551  0.0722
   67MOL0     C 8923   5.637   3.834   3.396 -0.4720  0.1580  0.5266
   67MOL0     C 8924   5.492   3.823   3.437 -0.3403  0.2852  0.0842
   67MOL0     C 8925   5.427   3.952   3.459 -0.4370 -0.9385  0.3489
   67MOL0     C 8926   5.417   4.047   3.338  0.1942  0.0383 -0.7641
   67MOL0     N 8927   5.321   4.164   3.369  0.6895  0.0783  0.2418
   67MOL0     C 8928   5.318   4.266   3.283  0.0544  0.2001  0.4718
   67MOL0     C 8929   5.194   4.320   3.290 -0.2078  0.2391 -0.1551
   67MOL0     C 8930   5.142   4.449   3.224  0.1521  0.4201 -0.7959
   67MOL0     C 8931   5.133   4.447   3.074 -0.2832  0.3846  0.4111
   67MOL0     C 8932   5.038   4.557   3.024  0.6403 -0.8208 -0.4781
   67MOL0     C 8933   5.006   4.549   2.879  0.4267  0.9693  0.1256
   67MOL0     O 8934   4.933   4.430   2.840 -0.4766 -0.2549  0.2163
   67MOL0     C 8935   4.797   4.436   2.850 -0.3700  0.1959  0.2455
   67MOL0     C 8936   4.721   4.435   2.972 -0.8819 -0.4941 -0.0536
   67MOL0     C 8937   4.584   4.451   2.966  0.3351  0.0091  0.3166
   67MOL0     C 8938   4.516   4.458   3.097 -0.0222 -0.6065  0.2239
   67MOL0     C 8939   4.522   4.476   2.836  0.0999  0.2074  0.4749
   67MOL0     C 8940   4.378   4.501   2.810  0.0041 -0.9690 -0.1649
   67MOL0     O 8941   4.331   4.484   2.686  0.1864  0.0699  0.2590
   67MOL0     C 8942   4.198   4.498   2.652 -0.0565  0.6786  0.8998
   67MOL0     C 8943   4.116   4.599   2.704  0.7741 -0.4070  1.1875
   67MOL0     C 8944   3.984   4.613   2.655  0.6426  0.7669 -0.4093
   67MOL0     C 8945   3.933   4.535   2.554  1.4713 -0.0084  0.3113
   67MOL0     O 8946   3.813   4.577   2.493 -0.4959  0.2925 -0.6243
   67MOL0     C 8947   3.697   4.477   2.496 -0.4678 -0.2409 -0.3982
   67MOL0     C 8948   3.583   4.524   2.406 -0.2125 -0.6718  0.2022
   67MOL0     C 8949   3.625   4.518   2.255 -0.0409 -1.3066  0.4790
   67MOL0     C 8950   3.518   4.590   2.160 -0.0559  0.8202  0.2058
   67MOL0     C 8951   3.388   4.511   2.127  0.2146 -0.0242  0.2629
   67MOL0     C 8952   3.288   4.600   2.043 -0.3894  0.6417 -0.1478
   67MOL0     C 8953   3.161   4.522   2.012 -0.3376  1.0415 -0.0541
   67MOL0     C 8954   3.065   4.614   1.932 -0.8752  0.0814  0.2024
   67MOL0    Cl 8955   2.933   4.523   1.854 -0.1809  0.0445  0.5760
   67MOL0     C 8956   4.024   4.435   2.497 -0.3734  0.4051  0.6715
   67MOL0     C 8957   4.152   4.414   2.557  0.8091  0.2580  0.7143
   67MOL0     O 8958   4.318   4.558   2.904  0.0113 -0.6313 -0.3338
   67MOL0     C 8959   4.597   4.469   2.720  0.2780  0.8255 -0.4460
   67MOL0     C 8960   4.728   4.441   2.729 -0.6130  0.2020 -0.7736
   67MOL0     N 8961   5.120   4.232   3.361 -0.5920  0.3391 -0.6055
   67MOL0     N 8962   5.205   4.160   3.430 -0.4065  1.3684 -0.5132
   67MOL0     C 8963   6.382   4.023   3.406 -0.6769 -0.4686 -0.1523
   67MOL0     C 8964   6.523   4.023   3.413  1.2245 -0.1230 -0.3511
   67MOL0     C 8965   6.969   3.901   3.345  0.4534  0.2232 -0.7918
   67MOL0     C 8966   6.993   4.039   3.370 -0.4520 -0.2976  0.5008
   67MOL0     C 8967   7.115   4.099   3.371  0.2742 -0.1858 -0.0520
   67MOL0     C 8968   7.227   4.027   3.325  0.2739  0.4264 -0.6777
   67MOL0     O 8969   7.356   4.078   3.297  0.1342 -0.2206  0.0510
   67MOL0     C 8970   7.374   4.218   3.279 -0.7797 -0.2627 -0.1309
   67MOL0     C 8971   7.527   4.230   3.236 -0.1051  0.1194  0.0281
   67MOL0     C 8972   7.539   4.210   3.081  0.0388  0.3853  0.3465
   67MOL0     C 8973   7.679   4.239   3.036 -0.2377 -0.2513  0.1971
   67MOL0     C 8974   7.720   4.383   3.063  0.0404  0.6180  0.6639
   67MOL0     C 8975   7.760   4.498   3.087 -0.0181 -0.1417  0.3443
   67MOL0     C 8976   7.207   3.889   3.302 -0.2943  0.0024 -0.3467
   67MOL0     C 8977   7.086   3.822   3.312  0.5383  0.1475  0.6782
   67MOL0     H 8978   6.591   3.717   3.289  1.8290  2.4418 -2.0202
   67MOL0     H 8979   6.343   3.705   3.310 -1.5413  0.0756  2.6215
   67MOL0     H 8980   6.084   3.792   3.241 -3.2905 -0.9971  0.1031
   67MOL0     H 8981   6.145   3.706   3.377 -2.7264 -1.9893 -1.2638
   67MOL0     H 8982   5.970   3.809   3.517  0.2999 -1.3116 -0.8985
   67MOL0     H 8983   5.921   3.918   3.384 -0.3520 -0.0652  0.4370
   67MOL0     H 8984   5.840   3.742   3.237  2.3358  2.2563  0.8737
   67MOL0     H 8985   5.908   3.620   3.330  1.5176  0.7946 -0.5182
   67MOL0     H 8986   5.673   3.621   3.379  0.1370 -0.0991  0.4471
   67MOL0     H 8987   5.745   3.682   3.524 -1.6414 -5.1689 -0.4733
   67MOL0     H 8988   5.690   3.921   3.435  2.3575 -0.9623 -0.4916
   67MOL0     H 8989   5.627   3.860   3.290  1.9449  3.9692  1.0411
   67MOL0     H 8990   5.427   3.772   3.366  0.1712  0.3563 -0.4512
   67MOL0     H 8991   5.487   3.760   3.526 -0.3319 -1.8382 -1.3558
   67MOL0     H 8992   5.327   3.915   3.479 -0.0848 -0.2048  4.2749
   67MOL0     H 8993   5.472   3.995   3.549  1.7261  1.1486 -1.5643
   67MOL0     H 8994   5.384   3.996   3.247 -0.0643 -0.1489 -0.5698
   67MOL0     H 8995   5.520   4.083   3.325  1.0555 -2.2740 -0.8146
   67MOL0     H 8996   5.401   4.311   3.229 -1.6376  2.2327 -0.6343
   67MOL0     H 8997   5.054   4.486   3.277  0.3435  0.6665 -0.6454
   67MOL0     H 8998   5.209   4.531   3.253 -0.2337  0.3456  0.3368
   67MOL0     H 8999   5.103   4.347   3.040  0.6582 -0.8148  2.8881
   67MOL0     H 9000   5.234   4.459   3.034 -0.4647  0.5569 -0.0033
   67MOL0     H 9001   5.092   4.651   3.038  0.0358  0.1821 -3.8837
   67MOL0     H 9002   4.947   4.565   3.084  0.0740  1.1951 -1.4979
   67MOL0     H 9003   5.097   4.557   2.818  0.1349  1.4103 -0.2670
   67MOL0     H 9004   4.942   4.634   2.852 -1.5601 -1.2475 -2.7484
   67MOL0     H 9005   4.785   4.418   3.058 -2.1179  0.9459  1.2172
   67MOL0     H 9006   4.500   4.561   3.131 -0.7066 -0.9469  0.9925
   67MOL0     H 9007   4.419   4.408   3.095 -0.3075 -0.0457  0.0287
   67MOL0     H 9008   4.586   4.414   3.169  2.8363  1.4482 -1.1354
   67MOL0     H 9009   4.156   4.667   2.779  0.5718  2.1763 -0.8679
   67MOL0     H 9010   3.926   4.699   2.686  0.6873  0.9951 -0.9628
   67MOL0     H 9011   3.740   4.378   2.476 -0.5752 -0.7701  1.7420
   67MOL0     H 9012   3.669   4.468   2.601  1.1129 -2.6796 -0.1105
   67MOL0     H 9013   3.495   4.459   2.413 -2.0487  1.6874  0.3381
   67MOL0     H 9014   3.562   4.628   2.434  3.7574  1.1303 -2.5971
   67MOL0     H 9015   3.653   4.415   2.231  2.7373 -1.0428  2.1653
   67MOL0     H 9016   3.717   4.578   2.251 -1.0312  0.2742  0.7565
   67MOL0     H 9017   3.494   4.685   2.208  1.2252  1.1335  0.2793
   67MOL0     H 9018   3.560   4.611   2.061  2.3948 -2.8126  0.2558
   67MOL0     H 9019   3.342   4.488   2.224  0.4582 -0.6569  0.2321
   67MOL0     H 9020   3.423   4.417   2.083 -0.7320  0.6423 -2.0985
   67MOL0     H 9021   3.267   4.687   2.106 -1.2252 -1.0596  2.0461
   67MOL0     H 9022   3.331   4.631   1.947 -1.3501  2.3232 -0.0712
   67MOL0     H 9023   3.108   4.477   2.097  1.4295  1.8413  1.5327
   67MOL0     H 9024   3.187   4.437   1.949 -1.1963  0.3527  0.4847
   67MOL0     H 9025   3.119   4.670   1.854  1.4802 -1.5721  0.5228
   67MOL0     H 9026   3.018   4.694   1.990 -1.5256  0.0557 -0.2834
   67MOL0     H 9027   4.007   4.397   2.397 -2.1233  2.8449 -0.0397
   67MOL0     H 9028   4.210   4.333   2.514 -1.4018 -1.6443  1.0916
   67MOL0     H 9029   4.560   4.502   2.623  0.5487 -0.4225 -0.9923
   67MOL0     H 9030   4.782   4.425   2.636  0.4314 -0.2194 -0.1193
   67MOL0     H 9031   6.324   4.113   3.426 -1.6221 -0.6587 -1.8773
   67MOL0     H 9032   6.575   4.116   3.433  1.6223 -0.0928 -1.4442
   67MOL0     H 9033   6.907   4.103   3.386  0.3234  1.6053 -2.2170
   67MOL0     H 9034   7.119   4.207   3.382 -0.1938 -0.1178 -0.5185
   67MOL0     H 9035   7.303   4.262   3.209 -1.0176 -3.1393 -1.8751
   67MOL0     H 9036   7.355   4.256   3.379 -0.2229  0.5076 -0.3067
   67MOL0     H 9037   7.590   4.156   3.286 -2.3978  0.2187  3.3258
   67MOL0     H 9038   7.558   4.329   3.271 -4.1063  1.2722  0.7736
   67MOL0     H 9039   7.478   4.289   3.035 -0.5932  0.6524  1.5995
   67MOL0     H 9040   7.498   4.114   3.050 -1.9693  0.1260  3.3785
   67MOL0     H 9041   7.688   4.223   2.928  0.6142  1.9629 -0.1117
   67MOL0     H 9042   7.751   4.171   3.082  1.8050  1.2079 -0.6850
   67MOL0     H 9043   7.798   4.597   3.096  0.9050 -0.5957  1.8477
   67MOL0     H 9044   7.294   3.836   3.264 -1.2160 -1.8487  0.0031
   67MOL0     H 9045   7.071   3.718   3.284 -1.9366  0.4005  0.8715
   68MOL0     O 9046   5.871   8.890   2.244 -0.2522  0.5368  0.5089
   68MOL0     C 9047   5.916   8.797   2.174  0.1466 -0.8980 -0.5089
   68MOL0     O 9048   5.844   8.740   2.072  0.0199 -0.6995  0.0099
   68MOL0     C 9049   5.708   8.736   2.065 -0.0988 -0.2844 -0.7048
   68MOL0     C 9050   5.628   8.736   2.182 -0.5199 -0.4268  1.1437
   68MOL0     C 9051   5.487   8.732   2.168  0.3329 -0.0677  0.4599
   68MOL0     C 9052   5.422   8.728   2.043 -0.8441  0.7583  0.4044
   68MOL0     O 9053   5.290   8.700   2.040  0.3128  0.3705  0.2480
   68MOL0     C 9054   5.228   8.672   1.915  0.3950 -0.8206  0.9892
   68MOL0     C 9055   5.086   8.647   1.954 -0.7353  0.3060  0.5998
   68MOL0     C 9056   5.013   8.606   1.827  0.7368 -0.5735  0.2141
   68MOL0     C 9057   4.866   8.615   1.858  0.4136 -0.6092  0.1982
   68MOL0     C 9058   4.784   8.560   1.738 -1.0365 -0.0171 -0.2496
   68MOL0     C 9059   4.782   8.641   1.604 -0.4796  0.3827 -0.2792
   68MOL0     C 9060   4.684   8.598   1.505  0.1888 -0.1525  0.0349
   68MOL0     C 9061   4.754   8.483   1.437 -0.3855 -0.2630 -0.2814
   68MOL0     N 9062   4.667   8.363   1.416 -0.2026 -0.9601  0.5379
   68MOL0     C 9063   4.647   8.328   1.285 -0.4193  0.7722 -1.1036
   68MOL0     C 9064   4.553   8.230   1.291 -0.3145 -0.0491  0.0633
   68MOL0     C 9065   4.507   8.142   1.178 -0.3066  0.5125 -0.3399
   68MOL0     C 9066   4.585   8.006   1.188 -0.0043  0.2516 -0.7833
   68MOL0     C 9067   4.571   7.922   1.068 -0.7002 -0.5386  0.2045
   68MOL0     C 9068   4.427   7.863   1.062 -0.1128 -0.0023  0.4870
   68MOL0     O 9069   4.427   7.756   0.971 -0.5139 -0.0675  0.4878
   68MOL0     C 9070   4.328   7.660   0.965  0.6559  0.2029 -0.3298
   68MOL0     C 9071   4.348   7.548   0.896 -0.1799  0.1497  0.8700
   68MOL0     C 9072   4.252   7.446   0.897  0.3216  0.7633 -0.2922
   68MOL0     C 9073   4.296   7.323   0.820  0.5457 -0.0197 -0.0237
   68MOL0     C 9074   4.126   7.456   0.962  0.6468  0.0669 -0.2810
   68MOL0     C 9075   4.012   7.361   0.941 -0.4318 -0.3246  0.4539
   68MOL0     O 9076   3.896   7.428   0.921  0.2336  0.2385 -0.3659
   68MOL0     C 9077   3.779   7.357   0.922  0.4797 -0.0054  0.4406
   68MOL0     C 9078   3.756   7.243   0.850  0.1768  0.1969 -0.0735
   68MOL0     C 9079   3.625   7.204   0.825 -0.4586  0.8427  0.1935
   68MOL0     C 9080   3.518   7.256   0.896 -1.1107  0.5056 -0.0419
   68MOL0     O 9081   3.396   7.208   0.863 -0.5768  0.2705  0.4141
   68MOL0     C 9082   3.288   7.266   0.937 -0.4360  0.5340 -0.9483
   68MOL0     C 9083   3.161   7.214   0.881  0.1452  0.7845  0.2772
   68MOL0     C 9084   3.040   7.281   0.964  0.3474 -0.2323  0.4472
   68MOL0     C 9085   3.050   7.425   0.983  0.3425 -0.0391 -0.2002
   68MOL0     C 9086   2.915   7.475   1.027  0.8298  0.4119  0.3381
   68MOL0     C 9087   2.916   7.625   1.025 -0.4076 -0.1330  0.7380
   68MOL0     C 9088   2.926   7.685   0.882  0.6425  0.2506 -0.0309
   68MOL0     C 9089   2.907   7.836   0.895 -0.2399 -0.1944  0.2888
   68MOL0    Cl 9090   2.935   7.928   0.740 -0.1404 -0.1091 -0.1337
   68MOL0     C 9091   3.546   7.366   0.977  1.0465  0.4993  0.1965
   68MOL0     C 9092   3.675   7.420   0.983  0.2466 -0.1933  0.6277
   68MOL0     O 9093   4.019   7.239   0.971  0.2985 -0.0952  0.1568
   68MOL0     C 9094   4.112   7.574   1.037  0.7010  0.9179 -0.7154
   68MOL0     C 9095   4.205   7.671   1.040  0.5495 -0.7560 -0.7200
   68MOL0     N 9096   4.516   8.211   1.428 -0.1579  0.3092  0.3645
   68MOL0     N 9097   4.586   8.293   1.502 -0.5098  0.3746  0.3922
   68MOL0     C 9098   5.510   8.733   1.929 -0.2909 -0.6230  0.6065
   68MOL0     C 9099   5.648   8.739   1.942 -0.1535  0.1272  0.4683
   68MOL0     C 9100   6.046   8.749   2.198  0.8895 -0.4636 -0.0686
   68MOL0     C 9101   6.107   8.638   2.134  0.2834 -0.1510  1.2667
   68MOL0     C 9102   6.239   8.598   2.162 -0.3665 -0.9355 -0.3372
   68MOL0     C 9103   6.312   8.663   2.268  0.3851 -0.0289  1.1580
   68MOL0     O 9104   6.439   8.617   2.284 -0.1725  0.1824  0.0558
   68MOL0     C 9105   6.537   8.706   2.230 -0.1222  0.0211  0.3076
   68MOL0     C 9106   6.661   8.619   2.200  0.4782  0.0089  0.0254
   68MOL0     C 9107   6.703   8.552   2.332 -0.6622  0.5866 -0.3506
   68MOL0     C 9108   6.825   8.467   2.294  0.1967  0.0923 -0.4041
   68MOL0     C 9109   6.877   8.410   2.419  0.3776 -0.0420  0.5437
   68MOL0     C 9110   6.913   8.348   2.515  0.7562 -1.2086 -0.3074
   68MOL0     C 9111   6.248   8.764   2.343 -0.1470  0.2700  0.6488
   68MOL0     C 9112   6.120   8.813   2.308 -0.5496  0.0335  0.8333
   68MOL0     H 9113   5.673   8.754   2.279 -0.4001  1.0103  0.8431
   68MOL0     H 9114   5.432   8.722   2.261  0.2948 -0.0370  0.4409
   68MOL0     H 9115   5.234   8.758   1.848 -2.4219 -1.6523 -0.5306
   68MOL0     H 9116   5.266   8.582   1.866 -2.4821 -1.1116 -0.9877
   68MOL0     H 9117   5.075   8.565   2.025  0.1514 -0.6505 -0.3329
   68MOL0     H 9118   5.044   8.739   1.997 -3.5197  0.3381 -1.8359
   68MOL0     H 9119   5.037   8.657   1.734  2.4202 -4.2410 -1.5729
   68MOL0     H 9120   5.035   8.502   1.799 -0.9431 -0.9745  0.2702
   68MOL0     H 9121   4.849   8.559   1.950  1.5145  0.6571  1.2161
   68MOL0     H 9122   4.843   8.722   1.868 -1.1411 -0.9050  0.0877
   68MOL0     H 9123   4.819   8.458   1.720 -1.0763  0.3432 -2.7600
   68MOL0     H 9124   4.680   8.553   1.772 -0.5639  2.6565  2.0885
   68MOL0     H 9125   4.762   8.744   1.634 -1.7050 -0.0814  0.6284
   68MOL0     H 9126   4.884   8.648   1.566 -0.2317  1.2919  0.5330
   68MOL0     H 9127   4.588   8.577   1.553  0.1922  0.4593  0.3115
   68MOL0     H 9128   4.656   8.662   1.421  1.7712 -0.5231 -0.7969
   68MOL0     H 9129   4.835   8.441   1.496 -0.9826 -1.8713 -0.5717
   68MOL0     H 9130   4.809   8.514   1.347  1.6275 -0.6321  0.7624
   68MOL0     H 9131   4.704   8.362   1.199 -2.2216  1.0029 -2.2588
   68MOL0     H 9132   4.398   8.129   1.185 -0.0181 -1.1652  2.0830
   68MOL0     H 9133   4.530   8.189   1.082  0.5111 -1.2228 -1.0272
   68MOL0     H 9134   4.551   7.951   1.276 -1.7319  2.7172  0.1955
   68MOL0     H 9135   4.693   8.021   1.199 -0.1324  1.5991 -1.1871
   68MOL0     H 9136   4.644   7.842   1.086 -0.2463 -0.3997 -0.8998
   68MOL0     H 9137   4.597   7.976   0.977  2.9667  1.1332  2.0233
   68MOL0     H 9138   4.356   7.943   1.039  1.8638  2.3771  2.1332
   68MOL0     H 9139   4.397   7.824   1.160 -3.9598  1.3903  0.0415
   68MOL0     H 9140   4.428   7.540   0.823  0.7008  2.3095  1.5076
   68MOL0     H 9141   4.401   7.306   0.845  1.2638  3.5566 -0.0982
   68MOL0     H 9142   4.247   7.230   0.852  1.8872 -0.7032  0.1029
   68MOL0     H 9143   4.288   7.341   0.713  0.4364 -1.5899 -0.2964
   68MOL0     H 9144   3.834   7.184   0.802 -0.4918  0.8596 -2.0690
   68MOL0     H 9145   3.612   7.114   0.766  2.8398  0.8890 -0.8264
   68MOL0     H 9146   3.298   7.251   1.045  0.0584  0.4623 -1.0016
   68MOL0     H 9147   3.284   7.372   0.912  0.4257  1.3771  2.0906
   68MOL0     H 9148   3.148   7.238   0.775 -0.7690 -0.9708 -0.0553
   68MOL0     H 9149   3.164   7.105   0.883 -2.7443  0.5928 -0.5222
   68MOL0     H 9150   3.047   7.250   1.069  3.0544  0.3282  0.5233
   68MOL0     H 9151   2.949   7.247   0.915  2.0232 -0.2990 -2.8619
   68MOL0     H 9152   3.120   7.461   1.059  1.5984  1.9961 -2.1544
   68MOL0     H 9153   3.076   7.469   0.886 -1.5096 -0.5005 -0.9549
   68MOL0     H 9154   2.908   7.437   1.129 -0.6185 -0.4234 -0.0572
   68MOL0     H 9155   2.844   7.442   0.950  1.4978  1.4886 -0.7918
   68MOL0     H 9156   2.833   7.663   1.085  2.1076 -0.1728  4.5433
   68MOL0     H 9157   3.004   7.657   1.081  0.8653 -0.2103 -1.1001
   68MOL0     H 9158   2.854   7.649   0.808  0.2171  2.7941 -0.9462
   68MOL0     H 9159   3.026   7.664   0.844  1.4338 -2.3843  3.0575
   68MOL0     H 9160   2.988   7.864   0.962  1.7061 -1.3245 -1.4670
   68MOL0     H 9161   2.805   7.862   0.927 -1.3956 -1.2953 -2.1484
   68MOL0     H 9162   3.473   7.428   1.028 -1.0429 -2.3691  0.9268
   68MOL0     H 9163   3.688   7.510   1.042  1.0105 -0.2838  0.6004
   68MOL0     H 9164   4.018   7.590   1.090  0.7721 -1.7056  0.3528
   68MOL0     H 9165   4.187   7.758   1.103  1.2310 -0.7336 -0.5508
   68MOL0     H 9166   5.472   8.720   1.828  0.6486  1.6049 -0.0817
   68MOL0     H 9167   5.705   8.731   1.850 -0.5031 -1.7381  0.3784
   68MOL0     H 9168   6.055   8.593   2.051  0.6859  0.6428  0.5568
   68MOL0     H 9169   6.270   8.516   2.098 -0.6992 -1.4269  0.1176
   68MOL0     H 9170   6.509   8.736   2.129 -1.5439 -3.9062 -0.6082
   68MOL0     H 9171   6.562   8.786   2.300  2.0748 -2.3237  2.4136
   68MOL0     H 9172   6.746   8.671   2.155  1.4347  0.8978  2.6657
   68MOL0     H 9173   6.637   8.547   2.122 -0.9560  1.0488 -0.5399
   68MOL0     H 9174   6.631   8.481   2.374  0.0134  0.5223  0.7326
   68MOL0     H 9175   6.724   8.624   2.411 -0.3489  3.5157 -2.9358
   68MOL0     H 9176   6.897   8.531   2.242 -1.2116  1.7649 -0.3977
   68MOL0     H 9177   6.780   8.389   2.232 -2.4735 -1.0391  2.6552
   68MOL0     H 9178   6.941   8.299   2.606 -1.1885 -0.6559  0.6397
   68MOL0     H 9179   6.311   8.809   2.420 -0.8514 -1.0682  2.0618
   68MOL0     H 9180   6.066   8.888   2.365 -2.4680  1.5028 -2.5998
   69MOL0     O 9181   7.364   1.324   5.667  0.3378 -0.0849  0.4639
   69MOL0     C 9182   7.413   1.395   5.575  1.1897  0.0723 -0.2232
   69MOL0     O 9183   7.339   1.485   5.504  0.2517  0.0719  0.4611
   69MOL0     C 9184   7.202   1.512   5.527  0.1828  0.6276  0.1279
   69MOL0     C 9185   7.103   1.407   5.526 -0.6633  0.1896  0.1948
   69MOL0     C 9186   6.968   1.440   5.551 -0.3968  0.9437  0.5295
   69MOL0     C 9187   6.926   1.567   5.563 -0.3969 -1.0430 -0.1994
   69MOL0     O 9188   6.792   1.599   5.598  0.6748 -0.8392 -0.5434
   69MOL0     C 9189   6.712   1.496   5.651  0.3221  0.0052 -0.1804
   69MOL0     C 9190   6.568   1.546   5.666 -0.8666  0.1183 -0.5008
   69MOL0     C 9191   6.563   1.656   5.774 -0.0092  0.3509  0.1585
   69MOL0     C 9192   6.419   1.713   5.775 -0.0403  0.5283  0.6294
   69MOL0     C 9193   6.408   1.838   5.869  0.0699 -0.0447  0.4078
   69MOL0     C 9194   6.265   1.894   5.855  0.3529 -0.8133  0.6000
   69MOL0     C 9195   6.143   1.805   5.882 -0.1293  0.4974 -0.3877
   69MOL0     C 9196   6.010   1.890   5.880 -0.9192 -0.1168 -0.4633
   69MOL0     N 9197   5.897   1.794   5.859  0.5825  0.1007  0.3455
   69MOL0     C 9198   5.781   1.800   5.926 -0.4072  0.6032 -0.4143
   69MOL0     C 9199   5.698   1.726   5.857  1.1063  0.1277 -0.2009
   69MOL0     C 9200   5.555   1.693   5.893 -0.2869 -1.1102 -0.0341
   69MOL0     C 9201   5.453   1.781   5.817 -0.7631  0.3476 -0.3468
   69MOL0     C 9202   5.499   1.926   5.814  0.0722 -0.2786  0.0006
   69MOL0     C 9203   5.400   2.004   5.728  0.0868 -0.4238 -0.1653
   69MOL0     O 9204   5.271   2.011   5.791 -0.5256  0.2728 -0.3321
   69MOL0     C 9205   5.165   2.083   5.734 -0.2167 -0.4005 -0.4685
   69MOL0     C 9206   5.180   2.189   5.644  0.3809 -0.1551 -1.2599
   69MOL0     C 9207   5.066   2.260   5.606 -0.3029  0.7278 -0.1122
   69MOL0     C 9208   5.102   2.360   5.503  0.0883  0.9098 -0.6001
   69MOL0     C 9209   4.934   2.215   5.645 -0.4311 -0.5421  0.3430
   69MOL0     C 9210   4.809   2.272   5.592  0.1570 -0.1377  0.2686
   69MOL0     O 9211   4.694   2.241   5.663 -0.0918  0.5002  0.4816
   69MOL0     C 9212   4.575   2.284   5.601 -0.7729  0.5887 -0.3692
   69MOL0     C 9213   4.503   2.398   5.650  0.4108  0.0948  0.2231
   69MOL0     C 9214   4.384   2.438   5.587 -0.2810 -1.4907  0.4312
   69MOL0     C 9215   4.336   2.372   5.479 -0.4787  0.4123  0.5630
   69MOL0     O 9216   4.229   2.428   5.407 -0.4283  0.1674  0.0089
   69MOL0     C 9217   4.171   2.357   5.292 -0.6012  0.0102  0.4007
   69MOL0     C 9218   4.056   2.449   5.252 -0.2707 -0.9569 -0.5109
   69MOL0     C 9219   3.983   2.391   5.131 -0.3956  0.6587  0.2876
   69MOL0     C 9220   3.842   2.444   5.117  0.1110 -0.0695  0.1825
   69MOL0     C 9221   3.767   2.366   5.010 -0.9579 -0.3918 -0.1108
   69MOL0     C 9222   3.625   2.426   4.992  0.2776  0.5322 -0.1618
   69MOL0     C 9223   3.542   2.356   4.887 -0.6124 -0.0779  0.3112
   69MOL0     C 9224   3.603   2.353   4.746 -1.0402  0.4113 -0.0558
   69MOL0    Cl 9225   3.674   2.510   4.697  0.1689  0.3025  0.3149
   69MOL0     C 9226   4.403   2.254   5.438  0.3600  0.5938 -0.0500
   69MOL0     C 9227   4.521   2.216   5.494  0.1108 -0.0200 -0.0044
   69MOL0     O 9228   4.806   2.324   5.479 -0.4304  0.2633 -1.2976
   69MOL0     C 9229   4.923   2.111   5.733 -0.4996  0.4199 -0.0239
   69MOL0     C 9230   5.040   2.050   5.779 -0.3075 -0.6021  0.4711
   69MOL0     N 9231   5.758   1.680   5.741  0.0910  0.0789  0.3214
   69MOL0     N 9232   5.875   1.731   5.740 -0.0204 -0.4258  0.2441
   69MOL0     C 9233   7.017   1.670   5.549  0.3579  0.2908  0.2314
   69MOL0     C 9234   7.157   1.642   5.542  0.4568 -0.1274  0.0041
   69MOL0     C 9235   7.551   1.388   5.541  0.2902 -0.5171 -0.1003
   69MOL0     C 9236   7.607   1.462   5.434 -0.8153 -0.2131 -0.2546
   69MOL0     C 9237   7.743   1.460   5.409 -0.2567  0.3410 -0.6213
   69MOL0     C 9238   7.834   1.388   5.487  0.9185 -0.3892  0.3146
   69MOL0     O 9239   7.967   1.393   5.479  0.0663  0.6969 -0.1892
   69MOL0     C 9240   8.028   1.491   5.399 -0.9124 -0.1175 -0.1075
   69MOL0     C 9241   8.180   1.462   5.374  0.6165 -0.0774 -0.5064
   69MOL0     C 9242   8.182   1.306   5.337 -0.0917  0.0606  0.4529
   69MOL0     C 9243   8.321   1.240   5.332  0.3705  0.2314  0.0445
   69MOL0     C 9244   8.313   1.106   5.278 -0.0709 -0.1997 -0.3402
   69MOL0     C 9245   8.321   0.994   5.230  0.2944 -0.0212  1.9467
   69MOL0     C 9246   7.776   1.320   5.594 -0.3341  0.2276  0.2757
   69MOL0     C 9247   7.640   1.318   5.624 -0.4225  0.4814  0.3095
   69MOL0     H 9248   7.122   1.303   5.501 -1.4999 -0.0780  0.6660
   69MOL0     H 9249   6.899   1.359   5.570 -0.3087 -0.4303 -3.8532
   69MOL0     H 9250   6.707   1.409   5.585  1.1723  0.4555 -0.8609
   69MOL0     H 9251   6.745   1.473   5.753  1.2123  1.4367 -0.1060
   69MOL0     H 9252   6.531   1.595   5.576 -3.2891 -0.5183  0.0683
   69MOL0     H 9253   6.501   1.463   5.692 -0.9633  0.8839  1.9254
   69MOL0     H 9254   6.586   1.619   5.874  1.2911 -3.0366 -1.2401
   69MOL0     H 9255   6.631   1.733   5.737  0.8102 -1.2882 -1.9789
   69MOL0     H 9256   6.386   1.744   5.676  0.0066 -0.4822  0.2797
   69MOL0     H 9257   6.346   1.640   5.809 -3.4396  2.4711 -1.9088
   69MOL0     H 9258   6.422   1.811   5.973 -0.3952 -0.4486  0.3662
   69MOL0     H 9259   6.474   1.912   5.822 -0.4090 -1.6492 -3.1615
   69MOL0     H 9260   6.256   1.977   5.925  2.6125  0.8908 -0.9932
   69MOL0     H 9261   6.249   1.947   5.761 -0.8435 -0.5554  0.9357
   69MOL0     H 9262   6.138   1.733   5.800  1.6918  0.7820 -0.7906
   69MOL0     H 9263   6.161   1.754   5.978 -0.7149  0.0266 -0.5238
   69MOL0     H 9264   6.020   1.960   5.797 -1.1927  0.1431 -0.2822
   69MOL0     H 9265   5.997   1.951   5.971  2.1448 -2.5184  1.7939
   69MOL0     H 9266   5.769   1.856   6.018 -1.5698  0.3577 -0.3919
   69MOL0     H 9267   5.530   1.589   5.869 -0.5203 -1.0866  0.1019
   69MOL0     H 9268   5.534   1.712   5.999  0.1114 -2.2717  0.2705
   69MOL0     H 9269   5.352   1.780   5.860 -0.9350  1.4659 -0.6921
   69MOL0     H 9270   5.443   1.744   5.715 -0.9632  1.0174 -0.5716
   69MOL0     H 9271   5.601   1.947   5.782  0.8370  0.4110  2.6789
   69MOL0     H 9272   5.498   1.961   5.917  0.1728 -1.9591  0.6042
   69MOL0     H 9273   5.392   1.960   5.629  0.4790  1.7459 -1.2233
   69MOL0     H 9274   5.436   2.106   5.709  1.9954 -1.0790 -0.3631
   69MOL0     H 9275   5.281   2.214   5.614  1.0880  0.1645  1.1621
   69MOL0     H 9276   5.127   2.302   5.413 -1.8611 -1.7771  0.4513
   69MOL0     H 9277   5.021   2.427   5.472  0.6855  2.9034  1.8421
   69MOL0     H 9278   5.185   2.421   5.540  2.1859 -2.0798 -0.0313
   69MOL0     H 9279   4.544   2.445   5.739  1.8044 -1.7090  0.5791
   69MOL0     H 9280   4.336   2.524   5.632  2.1285 -0.2136  0.7194
   69MOL0     H 9281   4.246   2.347   5.213  3.2776 -1.4023  3.9607
   69MOL0     H 9282   4.121   2.264   5.319 -3.8451  0.9782 -1.5437
   69MOL0     H 9283   3.981   2.465   5.330 -1.3339 -0.6446 -1.5596
   69MOL0     H 9284   4.095   2.549   5.235  0.1379 -1.2527 -1.3652
   69MOL0     H 9285   3.982   2.281   5.135  2.5530  0.5001 -0.7474
   69MOL0     H 9286   4.043   2.418   5.044  0.5032 -2.9205 -0.3551
   69MOL0     H 9287   3.791   2.433   5.213  1.5686  0.9733  1.1008
   69MOL0     H 9288   3.846   2.550   5.092  0.5127 -0.6520 -2.4836
   69MOL0     H 9289   3.766   2.262   5.043 -1.8569 -1.1493 -2.3209
   69MOL0     H 9290   3.825   2.364   4.918  1.9012  0.0680  1.5652
   69MOL0     H 9291   3.567   2.427   5.085  0.0734  0.9045 -0.2931
   69MOL0     H 9292   3.635   2.530   4.961  1.2311  0.5530  0.1974
   69MOL0     H 9293   3.448   2.411   4.889 -0.7908 -0.0956 -2.6109
   69MOL0     H 9294   3.529   2.255   4.928 -0.4757  0.5024  1.8308
   69MOL0     H 9295   3.532   2.320   4.670 -2.4456  0.5869  1.1267
   69MOL0     H 9296   3.688   2.284   4.737 -1.4595  0.0991 -2.1163
   69MOL0     H 9297   4.370   2.196   5.351 -1.0740 -0.3158  1.0436
   69MOL0     H 9298   4.569   2.125   5.461  0.8478  0.1779  0.4818
   69MOL0     H 9299   4.830   2.071   5.773 -1.8389  2.8522 -0.4908
   69MOL0     H 9300   5.030   1.960   5.839 -1.1119 -0.5877  0.3794
   69MOL0     H 9301   6.992   1.776   5.550 -0.3081  0.1367  0.6217
   69MOL0     H 9302   7.231   1.721   5.544 -2.1019  2.4316  0.1284
   69MOL0     H 9303   7.544   1.520   5.367  2.4488  0.3170 -3.1799
   69MOL0     H 9304   7.772   1.514   5.319 -2.7288 -2.2959 -3.1763
   69MOL0     H 9305   7.986   1.480   5.299 -0.8195 -2.4470  0.0458
   69MOL0     H 9306   8.019   1.592   5.441 -0.6642  0.0761 -0.5127
   69MOL0     H 9307   8.233   1.473   5.468 -1.5759  1.9107  0.5987
   69MOL0     H 9308   8.211   1.534   5.298 -2.6504  2.2538  0.1231
   69MOL0     H 9309   8.127   1.304   5.242  0.0687  1.0536  0.3323
   69MOL0     H 9310   8.131   1.238   5.407  0.7022  0.5254  1.5001
   69MOL0     H 9311   8.361   1.231   5.433  1.5146 -2.1638 -0.5379
   69MOL0     H 9312   8.391   1.296   5.270  1.1327 -1.7426 -0.9712
   69MOL0     H 9313   8.320   0.892   5.199 -2.8805  0.5172 -0.1527
   69MOL0     H 9314   7.850   1.266   5.652 -1.0867 -0.5492  0.5374
   69MOL0     H 9315   7.606   1.244   5.696  1.1521 -0.5354  0.0659
   70MOL0     O 9316   7.729   4.888   2.445  0.2455 -0.5370  0.5090
   70MOL0     C 9317   7.838   4.858   2.492 -0.4574 -0.5104 -0.3990
   70MOL0     O 9318   7.857   4.812   2.618  0.5907 -0.0224  0.1948
   70MOL0     C 9319   7.744   4.809   2.698 -0.0175  0.7708 -0.3273
   70MOL0     C 9320   7.661   4.912   2.720  0.1702  0.2457 -0.8315
   70MOL0     C 9321   7.540   4.892   2.785  0.2894 -0.3005  0.4253
   70MOL0     C 9322   7.503   4.765   2.836  0.4138 -0.0127  0.4420
   70MOL0     O 9323   7.392   4.742   2.911  0.2172 -0.0334 -0.1759
   70MOL0     C 9324   7.280   4.835   2.911 -0.2100 -0.1097 -0.6763
   70MOL0     C 9325   7.164   4.776   2.985 -0.0477 -1.0062 -0.7981
   70MOL0     C 9326   7.023   4.823   2.938 -0.5078 -0.2769  0.0742
   70MOL0     C 9327   6.922   4.731   2.992 -0.3313 -0.0097 -0.0724
   70MOL0     C 9328   6.777   4.777   2.978 -0.0125 -0.0203  0.3026
   70MOL0     C 9329   6.724   4.785   2.832 -0.8151 -0.2414  0.3398
   70MOL0     C 9330   6.593   4.859   2.817 -0.3871  0.2633 -0.2218
   70MOL0     C 9331   6.601   5.007   2.858 -0.0455 -0.0590  0.5816
   70MOL0     N 9332   6.634   5.080   2.737 -0.2590 -0.5727  0.4024
   70MOL0     C 9333   6.758   5.109   2.688 -0.7075  0.1768  0.7393
   70MOL0     C 9334   6.748   5.203   2.586 -0.8874  0.2025 -0.2449
   70MOL0     C 9335   6.858   5.266   2.511 -0.0676  0.1083 -0.8563
   70MOL0     C 9336   6.862   5.419   2.520  0.3326 -0.6571  0.2508
   70MOL0     C 9337   7.010   5.470   2.540  0.1417 -0.0670 -0.0975
   70MOL0     C 9338   7.078   5.515   2.410 -0.3436 -0.4702 -1.0819
   70MOL0     O 9339   7.127   5.408   2.320 -0.0294 -0.2999 -0.1180
   70MOL0     C 9340   7.259   5.404   2.275  0.2569 -0.2507 -0.2974
   70MOL0     C 9341   7.286   5.288   2.208  0.5343  0.7919  0.2664
   70MOL0     C 9342   7.408   5.272   2.141 -0.0306  0.4549  0.3491
   70MOL0     C 9343   7.441   5.136   2.076  0.2816  0.7919  0.1150
   70MOL0     C 9344   7.512   5.371   2.156 -0.5395  0.1603  0.2939
   70MOL0     C 9345   7.653   5.361   2.112 -0.1855  0.3903 -0.2269
   70MOL0     O 9346   7.731   5.432   2.188 -0.3751  1.2605 -0.4165
   70MOL0     C 9347   7.865   5.440   2.167  0.3034  0.1906  0.0490
   70MOL0     C 9348   7.913   5.572   2.187  0.0987  0.0670 -0.4235
   70MOL0     C 9349   8.047   5.612   2.185 -0.9802  0.1021 -0.4064
   70MOL0     C 9350   8.149   5.519   2.161  0.1112  0.4001 -0.2060
   70MOL0     O 9351   8.285   5.549   2.145  0.3341 -0.5184 -0.1464
   70MOL0     C 9352   8.347   5.657   2.224  0.1470 -0.7345  0.0394
   70MOL0     C 9353   8.390   5.601   2.357  0.2960 -0.1644  0.1856
   70MOL0     C 9354   8.518   5.667   2.411 -0.5065 -0.8987 -0.1642
   70MOL0     C 9355   8.503   5.823   2.400 -0.6052  0.9529  0.1934
   70MOL0     C 9356   8.615   5.902   2.464  0.3816 -0.5391  0.9047
   70MOL0     C 9357   8.593   6.052   2.463  0.0711 -0.9648 -0.1568
   70MOL0     C 9358   8.731   6.120   2.500  0.0994  0.0898  0.6719
   70MOL0     C 9359   8.711   6.208   2.623  0.4347 -0.4386 -0.8387
   70MOL0    Cl 9360   8.823   6.345   2.578  0.2693  0.0111 -0.0264
   70MOL0     C 9361   8.102   5.389   2.137 -0.1367 -1.3478 -0.9007
   70MOL0     C 9362   7.966   5.343   2.145 -0.3860  0.4187 -1.0394
   70MOL0     O 9363   7.683   5.311   2.003 -0.1441 -0.1008 -0.1855
   70MOL0     C 9364   7.477   5.493   2.224 -0.1284  0.3108 -0.0072
   70MOL0     C 9365   7.353   5.505   2.291  0.9417  0.4658  0.4918
   70MOL0     N 9366   6.623   5.239   2.580 -0.0826 -0.2972 -0.9068
   70MOL0     N 9367   6.555   5.167   2.666  0.2678 -0.3032  0.7330
   70MOL0     C 9368   7.595   4.661   2.819 -0.4660 -0.1441  0.0545
   70MOL0     C 9369   7.717   4.684   2.757 -0.0792  0.5989  0.4251
   70MOL0     C 9370   7.964   4.865   2.416 -0.1497 -0.7081  1.5268
   70MOL0     C 9371   7.972   4.915   2.279  0.2594  0.6864 -0.1575
   70MOL0     C 9372   8.092   4.919   2.205 -0.2414  0.0752  0.3586
   70MOL0     C 9373   8.220   4.884   2.267 -0.6430  0.4269 -0.3029
   70MOL0     O 9374   8.353   4.894   2.215  1.0861  0.2052 -0.2190
   70MOL0     C 9375   8.353   4.931   2.079 -0.7971  0.2825 -0.6325
   70MOL0     C 9376   8.487   4.896   2.010 -1.2715  0.3429 -0.8200
   70MOL0     C 9377   8.492   4.739   1.989 -0.5982 -0.2917  0.6044
   70MOL0     C 9378   8.627   4.678   1.983 -0.7065 -0.6949  0.0949
   70MOL0     C 9379   8.686   4.695   1.843  0.4669 -0.0945  1.1840
   70MOL0     C 9380   8.721   4.682   1.724 -0.1100 -0.4367 -0.2948
   70MOL0     C 9381   8.208   4.835   2.397 -0.2290  0.0264  0.5767
   70MOL0     C 9382   8.089   4.827   2.468  0.7452  0.4871  0.9748
   70MOL0     H 9383   7.676   5.009   2.674 -3.1934  0.0174 -2.7646
   70MOL0     H 9384   7.478   4.979   2.802 -1.4100 -1.7451  2.0392
   70MOL0     H 9385   7.305   4.931   2.956  2.9024 -0.4851 -1.3564
   70MOL0     H 9386   7.248   4.844   2.807  0.2742 -1.1497 -0.9346
   70MOL0     H 9387   7.152   4.669   2.966  0.5814 -1.1019 -0.6831
   70MOL0     H 9388   7.183   4.793   3.091  0.1437  0.5669 -1.0527
   70MOL0     H 9389   7.003   4.922   2.981 -2.6606  0.1232 -1.6198
   70MOL0     H 9390   7.019   4.833   2.829 -0.0406 -0.1009  0.0707
   70MOL0     H 9391   6.936   4.628   2.959  0.6980  0.1619 -0.2029
   70MOL0     H 9392   6.942   4.716   3.098 -0.0030  0.0345 -0.1292
   70MOL0     H 9393   6.716   4.702   3.028  0.0422  0.1190  0.5822
   70MOL0     H 9394   6.754   4.870   3.032 -0.7777  0.5272 -0.9205
   70MOL0     H 9395   6.798   4.847   2.779  0.4137 -0.0046  2.2543
   70MOL0     H 9396   6.712   4.683   2.794  1.4057 -0.6354  0.5327
   70MOL0     H 9397   6.554   4.844   2.716 -0.1062 -1.5529 -0.0959
   70MOL0     H 9398   6.517   4.804   2.874 -1.3154 -0.7479 -2.3307
   70MOL0     H 9399   6.681   5.030   2.929  0.0977  1.6439 -0.0673
   70MOL0     H 9400   6.509   5.051   2.898  1.4676  2.9170  1.0472
   70MOL0     H 9401   6.852   5.068   2.724 -0.8787  1.6442  3.0399
   70MOL0     H 9402   6.953   5.219   2.539 -0.1563  1.2917  1.8502
   70MOL0     H 9403   6.834   5.236   2.409 -0.9396 -2.2796 -0.0014
   70MOL0     H 9404   6.804   5.454   2.605 -0.4064  0.7403 -0.7747
   70MOL0     H 9405   6.820   5.467   2.430 -1.2114 -2.3744 -0.0111
   70MOL0     H 9406   7.069   5.397   2.595  0.7345  0.7082  0.3263
   70MOL0     H 9407   7.018   5.559   2.604  3.2907 -0.9206  0.8430
   70MOL0     H 9408   7.162   5.573   2.449  0.2614 -2.3132  0.5057
   70MOL0     H 9409   7.010   5.576   2.350 -0.3688  0.3276 -0.2485
   70MOL0     H 9410   7.219   5.202   2.212 -0.3440  1.5005  1.5104
   70MOL0     H 9411   7.377   5.048   2.093  3.7121 -2.1892 -1.0855
   70MOL0     H 9412   7.433   5.142   1.967  3.8814  0.0670 -0.3071
   70MOL0     H 9413   7.542   5.098   2.092 -0.6137 -2.0409 -0.2543
   70MOL0     H 9414   7.839   5.650   2.204 -0.4535 -0.6836  0.6975
   70MOL0     H 9415   8.076   5.714   2.206 -0.7818 -0.2860  1.3012
   70MOL0     H 9416   8.438   5.679   2.168  0.4674 -0.0766  0.7932
   70MOL0     H 9417   8.288   5.748   2.236 -1.4057 -1.9613  2.6541
   70MOL0     H 9418   8.309   5.606   2.431  0.8928 -0.2846  0.8653
   70MOL0     H 9419   8.419   5.497   2.342 -0.4482 -0.2496 -0.7049
   70MOL0     H 9420   8.604   5.637   2.350 -0.1061  0.8797 -0.5420
   70MOL0     H 9421   8.528   5.633   2.514 -0.5161  2.0302  0.8942
   70MOL0     H 9422   8.504   5.852   2.294  1.2340 -0.8309 -0.3401
   70MOL0     H 9423   8.403   5.852   2.432 -0.6945  1.6896 -0.6830
   70MOL0     H 9424   8.695   5.894   2.390 -1.7954  1.3838 -1.8587
   70MOL0     H 9425   8.643   5.866   2.564 -0.9127 -0.7170  1.2166
   70MOL0     H 9426   8.564   6.100   2.369  2.0612  0.3746 -0.1645
   70MOL0     H 9427   8.514   6.082   2.533  0.2941  0.3987 -0.4577
   70MOL0     H 9428   8.775   6.176   2.418 -3.0729 -0.5972 -1.7181
   70MOL0     H 9429   8.805   6.042   2.520 -0.1158 -0.7892 -1.6814
   70MOL0     H 9430   8.747   6.168   2.717  0.1334  0.1135 -0.4807
   70MOL0     H 9431   8.608   6.243   2.639 -0.0372 -2.5780  1.2791
   70MOL0     H 9432   8.178   5.318   2.106 -0.6231 -2.0672 -0.4667
   70MOL0     H 9433   7.946   5.236   2.140 -1.7549  0.6714 -1.6990
   70MOL0     H 9434   7.549   5.569   2.251 -0.1736 -0.2402  1.7505
   70MOL0     H 9435   7.322   5.595   2.342  2.1949  1.0758  0.1984
   70MOL0     H 9436   7.561   4.568   2.862 -0.9929  0.3148  0.6559
   70MOL0     H 9437   7.783   4.597   2.753  0.4987  0.9508  1.8409
   70MOL0     H 9438   7.884   4.955   2.230 -1.2405 -3.1713 -1.0536
   70MOL0     H 9439   8.085   4.958   2.104  1.5361 -0.2301  0.0846
   70MOL0     H 9440   8.279   4.885   2.012 -0.0700 -4.7400  1.5529
   70MOL0     H 9441   8.335   5.039   2.072  2.7036  1.0030 -0.3567
   70MOL0     H 9442   8.570   4.936   2.070 -1.0132  5.3069 -3.8836
   70MOL0     H 9443   8.495   4.942   1.911 -4.0427  1.2718 -0.6897
   70MOL0     H 9444   8.434   4.714   1.900  0.7477 -2.1820  0.1844
   70MOL0     H 9445   8.436   4.702   2.076 -0.1655  0.5279  1.2513
   70MOL0     H 9446   8.613   4.573   2.008 -0.0603 -1.7561 -3.4969
   70MOL0     H 9447   8.692   4.719   2.061 -0.8199 -1.0351  0.3707
   70MOL0     H 9448   8.755   4.671   1.623 -1.1880 -2.4542 -0.4843
   70MOL0     H 9449   8.305   4.818   2.443 -0.6752 -0.6917  1.2754
   70MOL0     H 9450   8.089   4.794   2.571  1.3176  0.4632  0.9708
   71MOL0     O 9451   2.302   2.737   8.805  0.2233 -0.4407  0.6786
   71MOL0     C 9452   2.313   2.831   8.720  0.0301 -0.4095 -0.7076
   71MOL0     O 9453   2.398   2.835   8.617  0.0107  0.4451 -0.1134
   71MOL0     C 9454   2.480   2.729   8.590 -0.0214 -0.2372  0.6914
   71MOL0     C 9455   2.620   2.743   8.590 -0.1990  0.2714  0.4274
   71MOL0     C 9456   2.696   2.630   8.559  0.9368  0.6909 -0.0797
   71MOL0     C 9457   2.635   2.501   8.528  0.4619  0.2480  0.4755
   71MOL0     O 9458   2.698   2.384   8.497  0.1114  0.5787  0.8472
   71MOL0     C 9459   2.757   2.311   8.602  0.6658  0.2422  0.9136
   71MOL0     C 9460   2.646   2.246   8.689 -0.0494 -0.1769 -0.4907
   71MOL0     C 9461   2.660   2.094   8.704 -0.2407 -1.2744 -0.4134
   71MOL0     C 9462   2.604   2.020   8.585  0.3211  0.0573  0.1498
   71MOL0     C 9463   2.644   1.867   8.590  0.0340  0.0895 -0.3291
   71MOL0     C 9464   2.527   1.769   8.539 -1.1810  0.4344  0.8508
   71MOL0     C 9465   2.526   1.767   8.387  0.1666  0.4911  0.0300
   71MOL0     C 9466   2.412   1.675   8.340 -0.3947  0.5475  0.6884
   71MOL0     N 9467   2.424   1.533   8.380  0.0687 -0.2779 -0.5773
   71MOL0     C 9468   2.360   1.470   8.484  0.3886  0.2128  0.1010
   71MOL0     C 9469   2.403   1.345   8.490 -0.6372 -1.0306 -1.0568
   71MOL0     C 9470   2.349   1.239   8.585  0.4865  0.0826  0.3205
   71MOL0     C 9471   2.205   1.212   8.565 -0.5060 -0.0392 -0.6022
   71MOL0     C 9472   2.159   1.084   8.639 -0.0257  0.2679  0.2055
   71MOL0     C 9473   2.011   1.033   8.629 -0.2562  0.0244  0.3653
   71MOL0     O 9474   1.919   1.138   8.597  0.7375 -0.0547  0.4264
   71MOL0     C 9475   1.782   1.139   8.620  0.5898  0.9731  0.3060
   71MOL0     C 9476   1.710   1.237   8.558 -0.2239 -0.4988 -0.1671
   71MOL0     C 9477   1.573   1.242   8.572 -0.2025  0.4887 -0.2424
   71MOL0     C 9478   1.510   1.369   8.492  0.1485 -0.1177  0.1147
   71MOL0     C 9479   1.501   1.138   8.640  0.6302  0.2610 -0.5081
   71MOL0     C 9480   1.358   1.128   8.656 -0.2198 -0.1358 -0.0108
   71MOL0     O 9481   1.295   1.023   8.714 -0.3437 -0.8134 -0.5447
   71MOL0     C 9482   1.163   1.009   8.692 -0.5552 -0.3846  0.5052
   71MOL0     C 9483   1.070   1.033   8.800 -0.0618  0.1227  0.3545
   71MOL0     C 9484   0.942   1.018   8.770  0.4087 -0.2520 -0.3268
   71MOL0     C 9485   0.889   0.980   8.646 -0.8196  0.7334  0.3082
   71MOL0     O 9486   0.759   0.951   8.622  0.2083  0.5070 -0.2263
   71MOL0     C 9487   0.651   0.994   8.715 -0.4590  0.0844 -0.1124
   71MOL0     C 9488   0.516   1.006   8.641  0.5417  1.4104 -0.0416
   71MOL0     C 9489   0.455   0.869   8.611  0.4420 -0.2457 -0.9271
   71MOL0     C 9490   0.308   0.863   8.577 -0.7970 -0.6194 -0.5628
   71MOL0     C 9491   0.255   0.719   8.582  0.2925 -0.3462 -0.3009
   71MOL0     C 9492   0.109   0.729   8.526  0.3670 -0.1237  0.0420
   71MOL0     C 9493   0.062   0.584   8.527  0.8016  0.0164  0.1365
   71MOL0     C 9494  -0.086   0.568   8.495  0.5450 -0.0257  0.5198
   71MOL0    Cl 9495  -0.177   0.580   8.647 -0.4386  0.0580  0.1710
   71MOL0     C 9496   0.984   0.943   8.542 -0.0115  0.2852  0.4899
   71MOL0     C 9497   1.123   0.968   8.562  0.1785  0.1251 -0.5337
   71MOL0     O 9498   1.300   1.218   8.600  0.6619  0.0902 -0.2087
   71MOL0     C 9499   1.575   1.039   8.703  0.4020 -0.6612 -0.0988
   71MOL0     C 9500   1.715   1.039   8.698  0.0638 -0.3677 -1.1503
   71MOL0     N 9501   2.496   1.334   8.398  0.1959 -0.0054 -0.2510
   71MOL0     N 9502   2.507   1.443   8.330  0.0335  0.0802 -0.4149
   71MOL0     C 9503   2.497   2.491   8.527  0.2605 -0.6212 -0.3231
   71MOL0     C 9504   2.424   2.606   8.549 -0.7594  0.0682  0.3336
   71MOL0     C 9505   2.208   2.932   8.721 -0.4727  0.2334  0.1820
   71MOL0     C 9506   2.216   3.044   8.631  0.1989 -0.6989 -0.3357
   71MOL0     C 9507   2.124   3.146   8.634 -0.1300  0.2972  0.2192
   71MOL0     C 9508   2.020   3.136   8.735  0.3043  0.7966 -0.3017
   71MOL0     O 9509   1.929   3.240   8.735  0.1872 -0.6006  0.5792
   71MOL0     C 9510   1.796   3.200   8.769 -0.5206 -0.4487 -1.5838
   71MOL0     C 9511   1.715   3.322   8.814  0.4713 -0.1840  0.5715
   71MOL0     C 9512   1.720   3.351   8.959  1.2586 -0.5345 -0.4902
   71MOL0     C 9513   1.865   3.373   9.002  0.6885  0.0167 -0.5154
   71MOL0     C 9514   1.858   3.448   9.131 -0.2818  0.3339  0.6098
   71MOL0     C 9515   1.855   3.514   9.235 -0.5134 -0.6157  0.8274
   71MOL0     C 9516   2.013   3.027   8.818 -0.1240  0.9466 -0.9660
   71MOL0     C 9517   2.109   2.930   8.818  0.0936 -0.1788  0.7281
   71MOL0     H 9518   2.668   2.839   8.606  0.1679 -0.0442  1.2620
   71MOL0     H 9519   2.804   2.642   8.562  1.0927 -0.6100  0.1446
   71MOL0     H 9520   2.816   2.228   8.562 -0.0850  0.2085 -0.1586
   71MOL0     H 9521   2.826   2.367   8.666  0.9408  2.9462 -1.5815
   71MOL0     H 9522   2.666   2.286   8.788 -0.8117 -4.1262  1.4473
   71MOL0     H 9523   2.546   2.273   8.655 -0.9540 -2.1271  0.4817
   71MOL0     H 9524   2.766   2.078   8.724 -0.0626 -0.3211 -0.5233
   71MOL0     H 9525   2.608   2.067   8.796  0.9515 -0.2035  0.6123
   71MOL0     H 9526   2.495   2.026   8.579  0.2630  0.4258  1.3214
   71MOL0     H 9527   2.647   2.064   8.495  0.0352 -0.9440 -0.4935
   71MOL0     H 9528   2.743   1.861   8.543  0.1704  0.0062 -0.0337
   71MOL0     H 9529   2.669   1.842   8.694  0.4851  3.1130  0.3707
   71MOL0     H 9530   2.547   1.670   8.583 -1.9622  0.0728  0.4179
   71MOL0     H 9531   2.428   1.807   8.564 -0.5384  1.7729  1.4820
   71MOL0     H 9532   2.503   1.864   8.341  1.7555 -0.6129 -3.4801
   71MOL0     H 9533   2.612   1.730   8.330 -2.0073 -2.4263 -1.6082
   71MOL0     H 9534   2.415   1.674   8.231 -0.2865 -1.9047  0.6661
   71MOL0     H 9535   2.313   1.715   8.366  0.1649  2.2627  0.3178
   71MOL0     H 9536   2.283   1.513   8.548 -1.2126 -0.9832 -0.9508
   71MOL0     H 9537   2.409   1.148   8.574 -0.2996 -0.3601 -0.4271
   71MOL0     H 9538   2.367   1.274   8.687 -1.8108  2.5869 -0.0267
   71MOL0     H 9539   2.185   1.186   8.461  0.7137  1.3595 -1.2071
   71MOL0     H 9540   2.151   1.297   8.609  1.1015  1.2189 -0.9891
   71MOL0     H 9541   2.190   1.098   8.743  0.0771  2.5793 -0.0806
   71MOL0     H 9542   2.222   1.002   8.604  0.0350  0.7272 -0.7851
   71MOL0     H 9543   1.988   0.968   8.714 -2.1273 -3.4955 -2.5250
   71MOL0     H 9544   2.003   0.952   8.555 -1.4275  0.8049 -0.4093
   71MOL0     H 9545   1.756   1.308   8.489  0.5210 -2.4020 -1.7206
   71MOL0     H 9546   1.436   1.334   8.419 -1.6366 -0.0110  1.7829
   71MOL0     H 9547   1.442   1.429   8.553 -0.3305  0.7736 -1.2401
   71MOL0     H 9548   1.584   1.434   8.444 -0.6383 -0.3651 -1.5236
   71MOL0     H 9549   1.105   1.065   8.897  1.7905 -0.4522 -0.0746
   71MOL0     H 9550   0.874   1.033   8.854 -0.4101 -0.1908 -0.9900
   71MOL0     H 9551   0.648   0.921   8.796 -0.2218 -1.7985 -1.7252
   71MOL0     H 9552   0.678   1.090   8.760  0.9790 -0.8570  1.1079
   71MOL0     H 9553   0.451   1.067   8.705  0.3347 -0.8994  2.1225
   71MOL0     H 9554   0.533   1.059   8.547 -0.0132 -0.9245 -1.5393
   71MOL0     H 9555   0.455   0.810   8.703  2.0818  1.2210  0.0732
   71MOL0     H 9556   0.516   0.818   8.537  0.0745  0.6512 -1.8820
   71MOL0     H 9557   0.253   0.939   8.633 -0.1751  1.5703 -2.7525
   71MOL0     H 9558   0.292   0.900   8.476 -0.2699  1.4784  0.0843
   71MOL0     H 9559   0.251   0.684   8.686  0.1961  0.7099  0.0623
   71MOL0     H 9560   0.315   0.646   8.528 -0.5035 -1.4501  0.2707
   71MOL0     H 9561   0.050   0.795   8.591  0.2431 -0.3509  0.1628
   71MOL0     H 9562   0.115   0.768   8.424 -2.8199 -2.2333 -1.1055
   71MOL0     H 9563   0.087   0.547   8.627  1.1746  0.2945  0.1478
   71MOL0     H 9564   0.120   0.531   8.451  0.9424  1.2438 -0.6424
   71MOL0     H 9565  -0.113   0.479   8.439  1.8469  0.5815 -1.1635
   71MOL0     H 9566  -0.113   0.652   8.430  3.0070  0.2162 -0.3100
   71MOL0     H 9567   0.954   0.910   8.444  0.6496  2.9971 -0.7238
   71MOL0     H 9568   1.192   0.952   8.480 -0.2800 -2.5055 -0.4820
   71MOL0     H 9569   1.534   0.963   8.769  3.2108 -0.8536  1.6299
   71MOL0     H 9570   1.771   0.970   8.762  0.7973  1.7404  0.6174
   71MOL0     H 9571   2.449   2.398   8.500 -1.4204 -0.2887  1.3085
   71MOL0     H 9572   2.318   2.586   8.555 -1.2664  2.2738 -0.5732
   71MOL0     H 9573   2.294   3.052   8.556  1.4470 -0.2323  0.9546
   71MOL0     H 9574   2.119   3.230   8.566  1.7977 -0.1467 -0.5408
   71MOL0     H 9575   1.743   3.152   8.686 -1.1163 -0.8517 -0.9768
   71MOL0     H 9576   1.797   3.130   8.853  0.0591  1.3396 -0.0409
   71MOL0     H 9577   1.610   3.310   8.786 -0.6470  2.6068  3.0340
   71MOL0     H 9578   1.752   3.407   8.756  0.1690  0.9013  1.8999
   71MOL0     H 9579   1.675   3.271   9.018  0.0206 -0.4739 -1.3206
   71MOL0     H 9580   1.662   3.441   8.981 -0.7523 -1.8034 -0.3415
   71MOL0     H 9581   1.911   3.444   8.933  1.7341  0.3641  0.5098
   71MOL0     H 9582   1.921   3.279   9.002 -2.4676 -2.4015  5.0195
   71MOL0     H 9583   1.848   3.572   9.325 -0.2727  0.3428  0.2411
   71MOL0     H 9584   1.940   3.005   8.895  1.0138 -2.6132 -0.7527
   71MOL0     H 9585   2.092   2.852   8.892 -1.7884 -0.6080 -0.1165
   72MOL0     O 9586   2.490   8.372   3.912  0.6619 -0.3689  1.1431
   72MOL0     C 9587   2.429   8.461   3.972  0.0242  0.3514  0.8207
   72MOL0     O 9588   2.345   8.554   3.916 -0.0719 -0.3139  0.5332
   72MOL0     C 9589   2.282   8.537   3.795  0.2462  0.7594  0.4966
   72MOL0     C 9590   2.230   8.652   3.739 -0.1236 -0.5079  0.4752
   72MOL0     C 9591   2.195   8.658   3.603 -0.1486  0.0069 -0.3156
   72MOL0     C 9592   2.186   8.536   3.538  0.2517 -0.0503  1.1994
   72MOL0     O 9593   2.154   8.543   3.402  0.8253 -0.1489  0.0778
   72MOL0     C 9594   2.224   8.454   3.309  0.8244  0.0752 -0.1392
   72MOL0     C 9595   2.193   8.529   3.171 -0.0535 -0.6836  0.0660
   72MOL0     C 9596   2.046   8.539   3.126 -0.7214 -0.1252  0.1534
   72MOL0     C 9597   1.983   8.673   3.154  0.4397  0.0430  0.1897
   72MOL0     C 9598   1.857   8.697   3.064  0.1584  0.1799 -0.9235
   72MOL0     C 9599   1.809   8.841   3.074  0.1185 -0.3444 -0.7832
   72MOL0     C 9600   1.754   8.900   2.940 -0.0940  0.1268 -0.8055
   72MOL0     C 9601   1.614   8.824   2.916  0.7170  0.8187  0.0124
   72MOL0     N 9602   1.554   8.880   2.797 -0.5851  0.4738  0.4180
   72MOL0     C 9603   1.584   8.836   2.669 -0.1453  0.2572  0.9111
   72MOL0     C 9604   1.476   8.889   2.598 -1.2006  0.7001  0.2358
   72MOL0     C 9605   1.454   8.888   2.455 -0.5838  0.0813  0.3295
   72MOL0     C 9606   1.395   8.755   2.428 -0.9776 -0.4833  0.1384
   72MOL0     C 9607   1.350   8.732   2.278 -0.4644  0.4418 -0.0071
   72MOL0     C 9608   1.209   8.807   2.254 -0.3191  0.8955  0.3343
   72MOL0     O 9609   1.116   8.748   2.348  0.4755 -0.7455  0.1807
   72MOL0     C 9610   1.003   8.819   2.369  0.3124  0.3762 -0.5267
   72MOL0     C 9611   0.946   8.925   2.296  0.1135  0.1846  0.3853
   72MOL0     C 9612   0.832   8.998   2.325  0.0527  0.2532  0.1171
   72MOL0     C 9613   0.794   9.108   2.230  0.1671  0.2673 -0.1313
   72MOL0     C 9614   0.766   8.973   2.447  0.4924  0.3631  0.4773
   72MOL0     C 9615   0.637   9.033   2.501 -0.8569 -0.5991 -0.3159
   72MOL0     O 9616   0.584   8.991   2.624 -0.2894 -0.4280  0.1065
   72MOL0     C 9617   0.488   9.062   2.686  0.8254  1.0277 -0.2003
   72MOL0     C 9618   0.484   9.203   2.684  0.0417  0.0853 -0.0842
   72MOL0     C 9619   0.377   9.264   2.746  0.2209 -0.1093  0.2852
   72MOL0     C 9620   0.271   9.200   2.817 -0.3175 -0.3501 -0.1321
   72MOL0     O 9621   0.170   9.247   2.881  0.0115 -0.4634 -0.3485
   72MOL0     C 9622   0.119   9.374   2.843  0.4356  0.3912  0.1135
   72MOL0     C 9623  -0.014   9.407   2.908  0.3242  0.8822  0.2462
   72MOL0     C 9624  -0.003   9.515   3.016  0.3525  0.2989  0.6215
   72MOL0     C 9625  -0.130   9.612   3.016 -0.7083  0.4765  0.5993
   72MOL0     C 9626  -0.263   9.542   3.043  0.5126  0.6128 -1.4736
   72MOL0     C 9627  -0.393   9.611   3.014 -0.3688  0.0503  0.5580
   72MOL0     C 9628  -0.436   9.725   3.112 -1.2890 -0.4661 -0.6081
   72MOL0     C 9629  -0.585   9.777   3.096 -0.9695  0.5448  0.0964
   72MOL0    Cl 9630  -0.698   9.652   3.141  0.0477 -0.2520 -0.0018
   72MOL0     C 9631   0.292   9.060   2.824 -0.1213 -0.1701 -0.1475
   72MOL0     C 9632   0.394   8.994   2.762 -0.6186 -0.1719 -1.2938
   72MOL0     O 9633   0.596   9.131   2.435 -0.3086  0.7011 -0.5421
   72MOL0     C 9634   0.821   8.864   2.521  0.5580  0.5678 -0.0407
   72MOL0     C 9635   0.932   8.797   2.489 -0.8719  0.7445 -0.4394
   72MOL0     N 9636   1.383   8.953   2.680 -0.1176 -0.2045 -0.7908
   72MOL0     N 9637   1.427   8.938   2.796  0.5742  0.0368 -0.3455
   72MOL0     C 9638   2.207   8.417   3.600  0.3738  0.0274  0.3369
   72MOL0     C 9639   2.267   8.416   3.724 -0.3831  0.3566  0.8637
   72MOL0     C 9640   2.447   8.459   4.117 -0.1255  0.2080  0.2801
   72MOL0     C 9641   2.364   8.532   4.204  0.4328  0.5216  0.2361
   72MOL0     C 9642   2.383   8.516   4.335  0.5632 -0.3425 -0.5535
   72MOL0     C 9643   2.495   8.450   4.388 -0.1730  0.2079  0.2086
   72MOL0     O 9644   2.509   8.451   4.524 -0.3492  0.5576 -0.9824
   72MOL0     C 9645   2.439   8.340   4.588 -0.0170 -0.2517  0.2623
   72MOL0     C 9646   2.534   8.237   4.636 -0.1041 -0.0999  0.1272
   72MOL0     C 9647   2.622   8.274   4.750  0.7221 -0.0403  0.8764
   72MOL0     C 9648   2.633   8.167   4.859 -0.1509 -0.6482 -1.1546
   72MOL0     C 9649   2.751   8.202   4.939 -0.9434  1.0393  0.5611
   72MOL0     C 9650   2.854   8.228   5.003 -0.4235  0.6477  0.0624
   72MOL0     C 9651   2.586   8.377   4.304 -0.4386 -0.0309  0.9638
   72MOL0     C 9652   2.568   8.392   4.169  0.4226 -0.0224  0.2231
   72MOL0     H 9653   2.228   8.745   3.795 -1.5559 -1.4629  2.1329
   72MOL0     H 9654   2.171   8.747   3.546 -0.1615 -1.5576 -2.8822
   72MOL0     H 9655   2.329   8.438   3.331  0.2967 -1.6539  1.2731
   72MOL0     H 9656   2.175   8.357   3.299 -2.3498  1.7627 -3.2658
   72MOL0     H 9657   2.243   8.626   3.177  0.1701 -0.6272 -2.1219
   72MOL0     H 9658   2.257   8.480   3.097  2.0357  1.3247  0.4216
   72MOL0     H 9659   2.042   8.533   3.016 -0.7941 -0.6402  0.1796
   72MOL0     H 9660   1.991   8.454   3.169 -0.1265 -0.2421  0.6871
   72MOL0     H 9661   1.941   8.670   3.255 -3.0935 -3.6315 -1.0911
   72MOL0     H 9662   2.057   8.752   3.143  1.3985 -0.3310  3.0691
   72MOL0     H 9663   1.891   8.685   2.961  1.8029 -1.8957 -0.2343
   72MOL0     H 9664   1.776   8.630   3.094  0.0194  2.0458  3.8250
   72MOL0     H 9665   1.736   8.850   3.154  2.0631 -0.8655  1.1412
   72MOL0     H 9666   1.891   8.899   3.117  0.8752 -2.8067  1.3341
   72MOL0     H 9667   1.735   9.005   2.964  0.0263 -0.5867  3.1393
   72MOL0     H 9668   1.829   8.897   2.860  0.2677  0.8391 -0.5025
   72MOL0     H 9669   1.548   8.838   3.003  2.0209  2.4747  0.7949
   72MOL0     H 9670   1.631   8.718   2.893  0.1262  1.2025 -2.5130
   72MOL0     H 9671   1.671   8.791   2.620 -1.4574 -1.0517 -0.3250
   72MOL0     H 9672   1.376   8.957   2.422  0.7559  0.0487 -3.4273
   72MOL0     H 9673   1.542   8.922   2.400 -0.8332  0.4989  0.1819
   72MOL0     H 9674   1.312   8.730   2.494 -0.8805  1.7305  1.1863
   72MOL0     H 9675   1.480   8.691   2.453 -0.0107  0.7285  0.0578
   72MOL0     H 9676   1.335   8.624   2.265  2.1798 -0.0513  0.5517
   72MOL0     H 9677   1.418   8.776   2.205  0.7801 -0.5377  0.5263
   72MOL0     H 9678   1.180   8.781   2.152 -0.3830 -0.3104  0.6435
   72MOL0     H 9679   1.203   8.916   2.261 -1.7523  0.8659 -0.1790
   72MOL0     H 9680   1.000   8.954   2.206 -0.3343 -0.6130 -0.1522
   72MOL0     H 9681   0.791   9.205   2.281 -0.1328  0.4410 -0.4742
   72MOL0     H 9682   0.865   9.126   2.148 -3.5825  1.1221 -3.5159
   72MOL0     H 9683   0.694   9.084   2.192  0.8626 -1.0470 -1.2034
   72MOL0     H 9684   0.548   9.266   2.624 -0.9903  0.2366 -1.0646
   72MOL0     H 9685   0.369   9.372   2.739  3.2980  0.1487 -0.7746
   72MOL0     H 9686   0.197   9.449   2.862  0.8734 -0.3466  1.3214
   72MOL0     H 9687   0.096   9.373   2.736 -0.5197  0.5423  0.3077
   72MOL0     H 9688  -0.093   9.446   2.842  0.7937  2.3061  0.4910
   72MOL0     H 9689  -0.050   9.309   2.940  0.9181 -0.3333 -2.4942
   72MOL0     H 9690   0.078   9.578   2.977  0.5925 -0.0720  0.5146
   72MOL0     H 9691   0.021   9.467   3.111  1.4491  2.8478  1.7310
   72MOL0     H 9692  -0.110   9.693   3.086 -2.1200  1.3019  0.0846
   72MOL0     H 9693  -0.141   9.646   2.912  0.1851 -0.5996  0.1302
   72MOL0     H 9694  -0.267   9.528   3.151 -0.1398 -0.5660 -1.6311
   72MOL0     H 9695  -0.264   9.446   2.991 -1.4900 -2.1129  3.0600
   72MOL0     H 9696  -0.412   9.638   2.910 -1.4606 -1.6097  0.2763
   72MOL0     H 9697  -0.473   9.539   3.036  0.3872 -1.1907 -0.5682
   72MOL0     H 9698  -0.370   9.812   3.104 -0.8532 -0.6642  0.6187
   72MOL0     H 9699  -0.422   9.680   3.210  0.8311  2.6237  0.6646
   72MOL0     H 9700  -0.605   9.808   2.993  0.5797  2.0806  0.2155
   72MOL0     H 9701  -0.613   9.852   3.171  1.7917  1.7507  0.0309
   72MOL0     H 9702   0.216   8.998   2.871  1.9731 -1.5850  1.6226
   72MOL0     H 9703   0.403   8.886   2.765 -0.9737 -0.1922 -0.8780
   72MOL0     H 9704   0.762   8.830   2.605  0.3540  0.6579 -0.1484
   72MOL0     H 9705   0.959   8.707   2.542  1.1085  0.5687 -1.6521
   72MOL0     H 9706   2.193   8.321   3.551 -1.5914  0.0772  0.6909
   72MOL0     H 9707   2.309   8.328   3.770  0.7411  1.4185  1.9595
   72MOL0     H 9708   2.292   8.601   4.162 -2.2917 -0.8030  2.3843
   72MOL0     H 9709   2.313   8.566   4.402  1.9209 -0.0351  0.6875
   72MOL0     H 9710   2.373   8.380   4.666  2.5749  0.6332  2.1494
   72MOL0     H 9711   2.376   8.293   4.512  0.6434  0.5385 -0.8136
   72MOL0     H 9712   2.587   8.208   4.546 -1.9427  1.9975 -1.7539
   72MOL0     H 9713   2.481   8.155   4.686 -1.9414  0.2344 -1.1808
   72MOL0     H 9714   2.589   8.370   4.792 -1.5210  1.0047 -2.7597
   72MOL0     H 9715   2.717   8.299   4.703 -0.1862  1.5076 -0.2458
   72MOL0     H 9716   2.629   8.066   4.820  3.1812 -1.4283  0.1789
   72MOL0     H 9717   2.545   8.174   4.923  0.0373  0.6031 -0.9945
   72MOL0     H 9718   2.939   8.265   5.056 -0.6947  4.2958 -1.7815
   72MOL0     H 9719   2.663   8.314   4.347 -1.6667 -2.2073  0.1597
   72MOL0     H 9720   2.640   8.341   4.106 -1.8025 -1.0955 -1.6319
   73MOL0     O 9721   0.527   8.269   0.851 -0.0119 -0.0170 -0.2681
   73MOL0     C 9722   0.629   8.293   0.927 -0.0553  0.4407 -0.0991
   73MOL0     O 9723   0.624   8.360   1.040 -0.2786 -0.6409 -0.5323
   73MOL0     C 9724   0.499   8.385   1.089 -0.4819 -0.2876 -0.1219
   73MOL0     C 9725   0.414   8.476   1.037 -1.0974 -0.9068  0.1559
   73MOL0     C 9726   0.298   8.523   1.098  0.4588 -0.3154  0.2284
   73MOL0     C 9727   0.270   8.469   1.223 -0.3636  0.2609  0.2572
   73MOL0     O 9728   0.157   8.508   1.281  0.2746  0.2139  0.3267
   73MOL0     C 9729   0.081   8.415   1.356  0.0321  0.4878 -0.0552
   73MOL0     C 9730  -0.021   8.494   1.435 -0.4101 -0.6887  0.7409
   73MOL0     C 9731  -0.118   8.404   1.518 -0.5322 -0.1516  0.0712
   73MOL0     C 9732  -0.220   8.497   1.593 -0.1116 -0.7613  0.4130
   73MOL0     C 9733  -0.320   8.418   1.677 -0.1091 -0.4228 -0.2426
   73MOL0     C 9734  -0.419   8.510   1.741 -0.1939  0.3449 -0.2476
   73MOL0     C 9735  -0.523   8.430   1.819 -0.4962  0.3921 -0.2699
   73MOL0     C 9736  -0.472   8.364   1.953  1.0115 -0.2304  0.0063
   73MOL0     N 9737  -0.572   8.290   2.030  0.4171  0.3014 -0.6020
   73MOL0     C 9738  -0.693   8.329   2.072  0.7207 -0.0544 -0.0357
   73MOL0     C 9739  -0.742   8.232   2.153 -0.5092  0.4540 -0.3398
   73MOL0     C 9740  -0.879   8.233   2.206  0.0178  0.5135  0.0350
   73MOL0     C 9741  -0.896   8.318   2.335  0.6236  0.7398 -0.4956
   73MOL0     C 9742  -1.038   8.275   2.390  0.5113 -0.3846  0.2058
   73MOL0     C 9743  -1.078   8.352   2.514  1.0729 -0.1476  0.1096
   73MOL0     O 9744  -1.016   8.321   2.636  0.4394 -0.4242  0.5277
   73MOL0     C 9745  -1.056   8.400   2.742 -0.4388 -0.6007  0.3777
   73MOL0     C 9746  -0.982   8.381   2.860 -0.6648  0.5983  0.0020
   73MOL0     C 9747  -1.022   8.426   2.980 -0.6300  0.0903 -0.1307
   73MOL0     C 9748  -0.959   8.365   3.105  0.1875 -0.9444  0.3985
   73MOL0     C 9749  -1.118   8.531   2.982  0.9117  0.6691 -0.1748
   73MOL0     C 9750  -1.148   8.608   3.107 -0.4836  0.4229 -0.2834
   73MOL0     O 9751  -1.264   8.676   3.113  0.1131 -0.0050 -0.1842
   73MOL0     C 9752  -1.316   8.745   3.215  0.3299  0.0358 -0.0558
   73MOL0     C 9753  -1.340   8.876   3.187 -0.0067 -0.0762  0.2191
   73MOL0     C 9754  -1.413   8.951   3.286 -0.3560  0.0468  1.1766
   73MOL0     C 9755  -1.451   8.896   3.406 -0.2878  1.3522 -0.7718
   73MOL0     O 9756  -1.505   8.963   3.515  0.1745 -0.7125  0.0877
   73MOL0     C 9757  -1.488   9.103   3.504 -0.7041  0.4390 -0.0178
   73MOL0     C 9758  -1.534   9.154   3.633  0.0098 -0.3676 -0.5520
   73MOL0     C 9759  -1.492   9.301   3.645 -0.3616 -0.2320 -0.6278
   73MOL0     C 9760  -1.570   9.369   3.765  0.0657  0.5597  0.6338
   73MOL0     C 9761  -1.525   9.508   3.811  0.1941 -0.3481 -1.0138
   73MOL0     C 9762  -1.600   9.546   3.937 -0.0935 -0.1260  0.2080
   73MOL0     C 9763  -1.545   9.678   3.992 -0.6557 -0.4078  0.0294
   73MOL0     C 9764  -1.627   9.741   4.114 -0.2098 -0.3091  0.4626
   73MOL0    Cl 9765  -1.779   9.797   4.039 -0.1138  0.3887 -0.4095
   73MOL0     C 9766  -1.421   8.760   3.430 -0.1947 -0.1388  0.2191
   73MOL0     C 9767  -1.357   8.688   3.332 -1.1261  0.1836  0.6790
   73MOL0     O 9768  -1.056   8.618   3.188  0.0471 -0.0551  0.0554
   73MOL0     C 9769  -1.195   8.545   2.868 -0.5505 -0.0881  0.8985
   73MOL0     C 9770  -1.169   8.478   2.747 -0.2534  0.3757 -1.1110
   73MOL0     N 9771  -0.638   8.138   2.172 -0.1450  0.6118  0.0001
   73MOL0     N 9772  -0.550   8.166   2.090 -0.9299 -0.1088 -0.1213
   73MOL0     C 9773   0.359   8.379   1.285 -0.3588  0.0110 -0.5430
   73MOL0     C 9774   0.471   8.331   1.211  0.1725 -0.7076 -0.5682
   73MOL0     C 9775   0.752   8.258   0.879 -0.0949  0.0126  0.0455
   73MOL0     C 9776   0.872   8.276   0.956  1.0841  0.0541  0.0693
   73MOL0     C 9777   0.997   8.226   0.907 -1.0310  0.1310 -0.0815
   73MOL0     C 9778   1.013   8.152   0.794  0.1851 -0.0137  0.2883
   73MOL0     O 9779   1.130   8.087   0.753  0.0034  0.1023  0.0372
   73MOL0     C 9780   1.248   8.127   0.814 -0.9960  0.0970 -0.1197
   73MOL0     C 9781   1.364   8.050   0.758 -0.7232  0.4650 -0.2938
   73MOL0     C 9782   1.500   8.094   0.818  0.3196  0.1673 -1.1459
   73MOL0     C 9783   1.616   8.053   0.723  0.0813 -0.0769  0.0316
   73MOL0     C 9784   1.730   8.085   0.805  0.8739 -0.0972 -1.0902
   73MOL0     C 9785   1.829   8.119   0.866  0.3618 -0.3796 -0.0420
   73MOL0     C 9786   0.898   8.135   0.710 -0.1259  0.2092  0.0798
   73MOL0     C 9787   0.774   8.194   0.756  0.1417  0.2394 -0.4991
   73MOL0     H 9788   0.453   8.532   0.953  0.7781 -0.6141  1.1616
   73MOL0     H 9789   0.232   8.596   1.052 -0.1654  1.2591  3.3225
   73MOL0     H 9790   0.034   8.344   1.287 -0.2922 -0.0146  0.6721
   73MOL0     H 9791   0.140   8.366   1.433  1.1162 -0.9219 -1.7175
   73MOL0     H 9792   0.034   8.559   1.503 -0.9731 -0.2669  0.7947
   73MOL0     H 9793  -0.074   8.562   1.367 -0.4571 -1.4464 -0.0002
   73MOL0     H 9794  -0.167   8.338   1.445 -1.6887  1.9060 -1.1109
   73MOL0     H 9795  -0.070   8.345   1.597 -2.1799  0.2361  1.4099
   73MOL0     H 9796  -0.173   8.569   1.660 -1.3222  0.6953 -0.2581
   73MOL0     H 9797  -0.273   8.552   1.514  0.8403 -0.4236 -0.0040
   73MOL0     H 9798  -0.375   8.357   1.603 -0.0686  2.3790 -2.7682
   73MOL0     H 9799  -0.273   8.354   1.752 -1.2312  0.9774  1.7293
   73MOL0     H 9800  -0.378   8.586   1.808 -2.8459  2.1113 -0.4669
   73MOL0     H 9801  -0.470   8.563   1.660 -2.4246 -0.1997  0.7316
   73MOL0     H 9802  -0.598   8.500   1.856  1.1411  1.5487  1.0257
   73MOL0     H 9803  -0.554   8.349   1.753  0.8544 -0.6867  0.3662
   73MOL0     H 9804  -0.431   8.449   2.008  0.2478  1.5637 -2.0568
   73MOL0     H 9805  -0.384   8.304   1.929  0.4737 -0.2414 -2.0940
   73MOL0     H 9806  -0.750   8.417   2.044  0.4324 -0.7257 -1.6982
   73MOL0     H 9807  -0.947   8.272   2.129 -0.8979  1.7647  1.4328
   73MOL0     H 9808  -0.910   8.129   2.218 -0.6014  0.7472  0.5571
   73MOL0     H 9809  -0.895   8.425   2.311  5.3220  0.9036 -0.3891
   73MOL0     H 9810  -0.809   8.296   2.397  1.8177  1.8467 -1.7061
   73MOL0     H 9811  -1.028   8.172   2.426  0.8010 -0.3523  0.2201
   73MOL0     H 9812  -1.117   8.290   2.316 -0.6731  0.4504  1.5939
   73MOL0     H 9813  -1.183   8.334   2.541  0.9624  0.9177  0.3979
   73MOL0     H 9814  -1.061   8.460   2.509 -1.6039  0.3208 -0.3398
   73MOL0     H 9815  -0.905   8.305   2.868 -2.1679 -0.8315  1.7968
   73MOL0     H 9816  -0.899   8.440   3.158 -3.8488  3.0089 -0.0281
   73MOL0     H 9817  -1.041   8.332   3.170 -1.3465  0.0320 -0.9802
   73MOL0     H 9818  -0.901   8.273   3.090  2.3498 -0.1730  3.1068
   73MOL0     H 9819  -1.330   8.900   3.082 -0.2617 -4.8724 -1.1621
   73MOL0     H 9820  -1.430   9.056   3.267  2.0235  0.2491 -0.3705
   73MOL0     H 9821  -1.384   9.128   3.479 -0.8852  0.9504 -0.2732
   73MOL0     H 9822  -1.546   9.153   3.426  0.4712  1.0845 -0.5024
   73MOL0     H 9823  -1.643   9.142   3.635 -0.1069  0.5202  2.3042
   73MOL0     H 9824  -1.479   9.106   3.714  1.9179 -0.5068 -1.8626
   73MOL0     H 9825  -1.511   9.355   3.552  0.3147 -0.3844 -0.8562
   73MOL0     H 9826  -1.384   9.303   3.660 -0.5351  1.4774  0.6984
   73MOL0     H 9827  -1.677   9.374   3.743 -0.0177  1.2641  1.1713
   73MOL0     H 9828  -1.564   9.297   3.846  1.6663 -0.9285 -0.7068
   73MOL0     H 9829  -1.533   9.573   3.724  2.2343  2.1560  0.5455
   73MOL0     H 9830  -1.419   9.502   3.837 -0.2238 -2.3892  0.4710
   73MOL0     H 9831  -1.704   9.552   3.902 -0.1441  2.1790  0.6032
   73MOL0     H 9832  -1.594   9.475   4.019  0.3758  0.5078  0.7322
   73MOL0     H 9833  -1.527   9.751   3.913  1.9806 -0.5407  0.3891
   73MOL0     H 9834  -1.446   9.653   4.032 -1.5294 -1.3812  1.7199
   73MOL0     H 9835  -1.568   9.825   4.150 -0.0163  1.5804 -3.7518
   73MOL0     H 9836  -1.643   9.662   4.189 -2.2449 -0.6510 -0.2533
   73MOL0     H 9837  -1.451   8.709   3.521  2.5642  0.4719  1.5733
   73MOL0     H 9838  -1.339   8.584   3.356  0.6385 -0.1682 -1.7354
   73MOL0     H 9839  -1.268   8.624   2.854  2.5380  2.8377  0.0774
   73MOL0     H 9840  -1.231   8.493   2.660 -0.0574  2.5156 -0.9247
   73MOL0     H 9841   0.331   8.335   1.380  0.6236 -0.5442 -0.4986
   73MOL0     H 9842   0.529   8.256   1.265 -0.3404 -0.8685 -0.2269
   73MOL0     H 9843   0.882   8.327   1.051  4.1200  1.0486 -0.6635
   73MOL0     H 9844   1.084   8.230   0.971  0.7804  0.6150 -2.4003
   73MOL0     H 9845   1.262   8.233   0.789  1.9887 -0.4264 -1.1185
   73MOL0     H 9846   1.240   8.119   0.923  2.1592 -2.1436  0.0914
   73MOL0     H 9847   1.362   8.062   0.650 -1.7747 -0.3546 -0.3850
   73MOL0     H 9848   1.351   7.942   0.773  0.1817  0.4825  0.7811
   73MOL0     H 9849   1.511   8.045   0.916  2.1900 -2.1191 -2.4018
   73MOL0     H 9850   1.503   8.202   0.831 -1.5962  0.1057  0.3359
   73MOL0     H 9851   1.626   8.109   0.630 -2.2392  2.4582  1.1668
   73MOL0     H 9852   1.625   7.946   0.703  2.4322  0.6004 -3.5357
   73MOL0     H 9853   1.906   8.165   0.924 -1.2359  3.2385 -0.5513
   73MOL0     H 9854   0.917   8.084   0.616  0.3937 -1.8902  1.2569
   73MOL0     H 9855   0.685   8.188   0.694 -1.3717 -0.1106  1.5900
   74MOL0     O 9856   8.319   0.758   0.037  0.2251 -0.3732  0.0522
   74MOL0     C 9857   8.332   0.638   0.022  0.4360 -0.1951  0.8633
   74MOL0     O 9858   8.232   0.551   0.046 -0.0844  0.2097  0.7121
   74MOL0     C 9859   8.103   0.593   0.049  0.2725 -0.1146 -0.1567
   74MOL0     C 9860   8.061   0.696  -0.038  0.6047 -0.3599  0.5470
   74MOL0     C 9861   7.928   0.741  -0.026  0.0905 -0.7204  0.0418
   74MOL0     C 9862   7.835   0.679   0.063  0.4998  0.0413  0.3230
   74MOL0     O 9863   7.704   0.729   0.074  0.2547 -0.5665 -0.1023
   74MOL0     C 9864   7.654   0.820  -0.036 -0.6607 -0.3973 -0.6518
   74MOL0     C 9865   7.503   0.844  -0.028  0.8251  0.4600  0.8750
   74MOL0     C 9866   7.463   0.938   0.092 -0.2184 -0.0810 -0.5472
   74MOL0     C 9867   7.492   1.082   0.057  0.1308 -0.0291  1.1593
   74MOL0     C 9868   7.467   1.167   0.175  0.3313 -0.1641 -0.4119
   74MOL0     C 9869   7.485   1.320   0.161  1.2981 -0.1201 -0.7134
   74MOL0     C 9870   7.442   1.416   0.279 -0.5329 -0.3817  0.2270
   74MOL0     C 9871   7.430   1.562   0.242  1.0333 -0.1557  0.4011
   74MOL0     N 9872   7.340   1.631   0.339  0.3086  0.3167 -0.3958
   74MOL0     C 9873   7.369   1.717   0.441  0.2301  0.0715  0.4690
   74MOL0     C 9874   7.254   1.771   0.484 -0.3085 -0.2042 -0.0729
   74MOL0     C 9875   7.219   1.882   0.589 -1.0972 -0.5254  0.1921
   74MOL0     C 9876   7.076   1.945   0.562 -0.7026 -0.0743 -0.6764
   74MOL0     C 9877   6.953   1.867   0.629  0.3131  0.4727 -0.6678
   74MOL0     C 9878   6.823   1.919   0.574 -0.4081 -0.4535  0.5854
   74MOL0     O 9879   6.711   1.865   0.652 -0.3252  0.0119  0.1697
   74MOL0     C 9880   6.578   1.882   0.638 -0.6717  0.6267 -0.0566
   74MOL0     C 9881   6.520   1.972   0.547  0.1277 -0.4259  0.1196
   74MOL0     C 9882   6.383   1.965   0.510 -0.0828  0.1249 -0.0925
   74MOL0     C 9883   6.342   2.082   0.424  0.1474  0.4509 -0.1645
   74MOL0     C 9884   6.296   1.881   0.583 -0.3612 -0.2506  0.0707
   74MOL0     C 9885   6.149   1.861   0.563  0.2438 -1.2544 -0.6119
   74MOL0     O 9886   6.069   1.820   0.663 -0.1026 -0.4114 -0.4462
   74MOL0     C 9887   5.931   1.780   0.643 -0.0988 -0.7342 -1.2653
   74MOL0     C 9888   5.891   1.643   0.650  0.1532 -0.0224  0.8723
   74MOL0     C 9889   5.756   1.613   0.631  0.5936 -1.5976 -0.3866
   74MOL0     C 9890   5.661   1.713   0.598 -0.6934  0.0985 -0.0720
   74MOL0     O 9891   5.524   1.689   0.571 -0.5149 -0.3087 -0.1439
   74MOL0     C 9892   5.452   1.586   0.642 -0.6020  0.1916 -0.8425
   74MOL0     C 9893   5.308   1.590   0.601 -0.5449 -0.9623  0.9325
   74MOL0     C 9894   5.249   1.729   0.631  0.6402  1.2933  1.4240
   74MOL0     C 9895   5.120   1.741   0.536  0.5030 -0.8510 -0.3168
   74MOL0     C 9896   5.157   1.772   0.384 -0.1130  0.4331  0.2171
   74MOL0     C 9897   5.066   1.877   0.324  0.6268  0.0770  1.3145
   74MOL0     C 9898   4.923   1.841   0.302 -0.5000  0.2791 -1.1185
   74MOL0     C 9899   4.911   1.729   0.201  0.6682  0.0459 -0.1292
   74MOL0    Cl 9900   4.737   1.686   0.170 -0.5110 -0.0869 -0.1212
   74MOL0     C 9901   5.706   1.846   0.585 -0.2840 -0.5249  0.0834
   74MOL0     C 9902   5.838   1.875   0.604  1.0360  0.2316  0.0142
   74MOL0     O 9903   6.119   1.864   0.449  0.2103 -0.4205  0.3335
   74MOL0     C 9904   6.357   1.792   0.677 -0.1847  1.0373 -0.1458
   74MOL0     C 9905   6.493   1.787   0.692 -0.1247 -0.4906 -0.1938
   74MOL0     N 9906   7.156   1.718   0.404  0.1367  0.6205 -0.0309
   74MOL0     N 9907   7.206   1.637   0.322 -0.5475  0.8178 -0.7336
   74MOL0     C 9908   7.871   0.567   0.131 -1.0761 -0.5258  0.1603
   74MOL0     C 9909   8.008   0.516   0.125 -0.3325 -0.6516 -0.4335
   74MOL0     C 9910   8.472   0.591  -0.012  0.7116 -0.2866 -0.2793
   74MOL0     C 9911   8.567   0.688  -0.034  0.2820 -0.2962 -0.0645
   74MOL0     C 9912   8.701   0.650  -0.073  0.2757  0.1428 -1.0487
   74MOL0     C 9913   8.741   0.512  -0.075  0.5093 -0.0487  0.3126
   74MOL0     O 9914   8.869   0.483  -0.115 -0.4253 -0.0325  0.1072
   74MOL0     C 9915   8.948   0.386  -0.034  0.5233 -0.2535  0.3320
   74MOL0     C 9916   9.097   0.409  -0.047 -0.0288  1.3064 -0.2729
   74MOL0     C 9917   9.132   0.421  -0.195  0.5799  0.5133 -0.2842
   74MOL0     C 9918   9.267   0.354  -0.208  0.2480 -0.4887  0.8264
   74MOL0     C 9919   9.320   0.325  -0.348  1.3821 -0.5131 -0.3322
   74MOL0     C 9920   9.350   0.290  -0.462 -0.1287  0.0589 -0.3643
   74MOL0     C 9921   8.637   0.414  -0.051  0.5484 -1.1835 -0.4986
   74MOL0     C 9922   8.505   0.457  -0.018  0.0301 -0.0299  0.0553
   74MOL0     H 9923   8.118   0.754  -0.109 -0.5460  0.4476  0.2691
   74MOL0     H 9924   7.896   0.812  -0.102 -2.7477 -0.2073  1.5854
   74MOL0     H 9925   7.712   0.912  -0.042  1.1449 -1.4460 -0.0620
   74MOL0     H 9926   7.662   0.769  -0.133 -0.0242  0.1947 -0.9175
   74MOL0     H 9927   7.464   0.876  -0.125  0.7991 -1.7269  0.1077
   74MOL0     H 9928   7.451   0.748  -0.030  0.9906  0.3826  0.2983
   74MOL0     H 9929   7.355   0.924   0.101  0.0883 -1.0552  3.8548
   74MOL0     H 9930   7.505   0.906   0.188 -0.6778 -1.1750 -0.6934
   74MOL0     H 9931   7.588   1.101   0.008 -0.0250 -4.1374 -1.2407
   74MOL0     H 9932   7.428   1.111  -0.026 -0.1697 -3.4334  0.0268
   74MOL0     H 9933   7.364   1.155   0.208  1.0893 -0.6305  2.0218
   74MOL0     H 9934   7.532   1.134   0.257  1.7323  0.8716 -1.0437
   74MOL0     H 9935   7.590   1.329   0.134  1.6009 -1.1188  0.0944
   74MOL0     H 9936   7.428   1.361   0.077  2.2537 -1.4127 -2.0250
   74MOL0     H 9937   7.344   1.391   0.321 -0.5688  0.8788  0.9506
   74MOL0     H 9938   7.515   1.411   0.360 -0.8930  1.5396  0.7392
   74MOL0     H 9939   7.397   1.569   0.138 -1.6447  1.7355  1.2735
   74MOL0     H 9940   7.529   1.609   0.251  0.0635  1.8599  1.3010
   74MOL0     H 9941   7.461   1.744   0.491 -1.5754  0.8931  3.6545
   74MOL0     H 9942   7.237   1.837   0.687  2.1825  2.0989  0.9799
   74MOL0     H 9943   7.295   1.959   0.568 -1.3722 -0.5495 -1.0027
   74MOL0     H 9944   7.067   1.956   0.454 -1.1182  0.9635 -0.5447
   74MOL0     H 9945   7.074   2.046   0.602  1.4705  0.1774 -1.0727
   74MOL0     H 9946   6.954   1.894   0.735 -0.2069 -1.6358 -0.0834
   74MOL0     H 9947   6.960   1.758   0.622 -3.1899 -0.1608  2.2574
   74MOL0     H 9948   6.829   1.878   0.473  2.0622 -0.3427  0.6236
   74MOL0     H 9949   6.828   2.028   0.571 -1.7068 -0.3185  2.1659
   74MOL0     H 9950   6.574   2.048   0.492 -1.6517 -0.1674 -1.3620
   74MOL0     H 9951   6.412   2.089   0.340 -0.6051 -0.7066 -0.9159
   74MOL0     H 9952   6.241   2.058   0.389  1.0628 -1.5790 -1.5774
   74MOL0     H 9953   6.354   2.173   0.485 -1.7039  0.5070  0.1859
   74MOL0     H 9954   5.965   1.567   0.673  0.1190 -0.7946 -1.3527
   74MOL0     H 9955   5.708   1.518   0.654 -1.8424 -0.7069 -1.4819
   74MOL0     H 9956   5.486   1.487   0.612 -1.1391 -0.6096  1.0475
   74MOL0     H 9957   5.465   1.602   0.749  3.5887  4.2833 -1.5917
   74MOL0     H 9958   5.311   1.563   0.495  0.9026 -0.4795  0.8365
   74MOL0     H 9959   5.241   1.512   0.638 -1.6584 -1.6813 -2.2590
   74MOL0     H 9960   5.310   1.811   0.592  0.5788  0.8864  0.4453
   74MOL0     H 9961   5.216   1.743   0.734 -0.8460  1.6454  0.9147
   74MOL0     H 9962   5.060   1.650   0.535  0.2454 -0.7141 -2.8875
   74MOL0     H 9963   5.054   1.819   0.576 -0.3812 -2.7133  2.1198
   74MOL0     H 9964   5.160   1.685   0.317 -1.4388  0.8747 -0.4556
   74MOL0     H 9965   5.258   1.812   0.387 -0.1133  0.3921  0.9104
   74MOL0     H 9966   5.057   1.968   0.386 -4.5395 -0.5435  1.8652
   74MOL0     H 9967   5.117   1.904   0.231  2.1017  0.3092  2.1417
   74MOL0     H 9968   4.869   1.933   0.275 -1.3483  0.4263  0.9130
   74MOL0     H 9969   4.883   1.812   0.399 -0.3724  2.5553 -0.3211
   74MOL0     H 9970   4.969   1.641   0.232 -1.4322 -1.8042 -1.1394
   74MOL0     H 9971   4.951   1.767   0.106 -3.5587  0.3696 -2.0076
   74MOL0     H 9972   5.643   1.933   0.572 -1.2735 -1.4454 -1.5231
   74MOL0     H 9973   5.872   1.975   0.577  4.8648 -1.2413 -1.3146
   74MOL0     H 9974   6.305   1.718   0.737  0.7313  0.8626  0.4340
   74MOL0     H 9975   6.531   1.711   0.760 -0.9608 -0.8639 -0.1277
   74MOL0     H 9976   7.796   0.516   0.190 -1.6470  0.1732  0.0548
   74MOL0     H 9977   8.033   0.417   0.160 -1.7818 -1.9613 -2.8577
   74MOL0     H 9978   8.538   0.792  -0.042  0.6197 -0.3380 -4.2471
   74MOL0     H 9979   8.767   0.730  -0.103 -2.3648  2.9528  0.1046
   74MOL0     H 9980   8.905   0.396   0.066 -3.5850  3.2672 -1.4469
   74MOL0     H 9981   8.919   0.285  -0.064 -2.4128  0.8418 -0.8752
   74MOL0     H 9982   9.142   0.330   0.013 -2.0075  0.2936 -0.0242
   74MOL0     H 9983   9.127   0.508  -0.011 -0.5067  1.6457 -0.7862
   74MOL0     H 9984   9.145   0.527  -0.222  2.6814  0.3000 -0.2777
   74MOL0     H 9985   9.063   0.374  -0.266  0.9335 -0.1701 -0.1825
   74MOL0     H 9986   9.267   0.256  -0.159  0.0186 -1.0158 -0.1765
   74MOL0     H 9987   9.348   0.411  -0.162  0.5541 -0.9074  0.8136
   74MOL0     H 9988   9.387   0.252  -0.555 -1.4256 -1.7189 -0.2232
   74MOL0     H 9989   8.655   0.309  -0.073  5.6020 -0.9922  1.4287
   74MOL0     H 9990   8.430   0.378  -0.009 -2.7337  2.6156  3.0133
   75MOL0     O 9991   7.393   4.207   2.173  0.2828  0.0461 -0.0421
   75MOL0     C 9992   7.436   4.312   2.119  0.5738  0.0847  0.4706
   75MOL0     O 9993   7.361   4.420   2.106 -0.5265 -0.6116  0.5466
   75MOL0     C 9994   7.227   4.408   2.124  0.9196  1.1960 -0.5530
   75MOL0     C 9995   7.145   4.408   2.009 -0.1292 -0.0879 -0.4535
   75MOL0     C 9996   7.002   4.415   2.028  0.2256 -0.0409  0.1576
   75MOL0     C 9997   6.940   4.418   2.157  0.5440  0.5919 -0.1690
   75MOL0     O 9998   6.806   4.407   2.182  0.0983 -0.2384 -0.6014
   75MOL0     C 9999   6.712   4.414   2.079  0.4419 -0.1739  0.5184
   75MOL0     C10000   6.563   4.418   2.139  0.0538  0.6382 -0.2749
   75MOL0     C10001   6.528   4.561   2.180 -0.0035  0.3657 -0.1296
   75MOL0     C10002   6.377   4.560   2.224  0.0163  0.5795  0.2108
   75MOL0     C10003   6.277   4.586   2.104 -0.8814 -0.9539  0.3635
   75MOL0     C10004   6.128   4.574   2.135 -0.1416 -0.1837 -0.2806
   75MOL0     C10005   6.044   4.558   1.999  0.2180 -0.0930  0.0693
   75MOL0     C10006   6.062   4.424   1.930  0.0101 -0.2986 -1.1580
   75MOL0     N10007   5.945   4.373   1.853 -0.4823 -1.4909  0.1899
   75MOL0     C10008   5.853   4.438   1.776  0.4485  0.1281  1.1565
   75MOL0     C10009   5.744   4.355   1.773  0.4188 -0.4904  0.1012
   75MOL0     C10010   5.622   4.382   1.693  0.2786 -0.6531 -0.5089
   75MOL0     C10011   5.504   4.418   1.780  0.6900  0.7972 -0.0046
   75MOL0     C10012   5.416   4.532   1.725 -0.9486  0.0964  0.5957
   75MOL0     C10013   5.353   4.487   1.593  0.2992  0.4687 -1.3275
   75MOL0     O10014   5.247   4.576   1.544  0.6460  0.4149 -0.2974
   75MOL0     C10015   5.153   4.539   1.452 -0.2175  0.5339  0.7133
   75MOL0     C10016   5.157   4.426   1.370  0.0263  0.0080 -0.4800
   75MOL0     C10017   5.053   4.393   1.284 -0.4806  0.1012 -0.4005
   75MOL0     C10018   5.058   4.258   1.205 -0.1706 -0.4783 -0.9679
   75MOL0     C10019   4.934   4.462   1.288 -0.6467 -0.4567 -0.1802
   75MOL0     C10020   4.818   4.426   1.211 -0.6447  0.1812 -0.4656
   75MOL0     O10021   4.734   4.352   1.293  0.2166 -0.7808  1.1533
   75MOL0     C10022   4.621   4.303   1.244 -0.0167  0.2966 -0.1119
   75MOL0     C10023   4.598   4.232   1.121 -0.6179 -0.0747 -0.3886
   75MOL0     C10024   4.484   4.159   1.097  0.4939 -0.1050 -0.6724
   75MOL0     C10025   4.374   4.180   1.187  0.4080 -0.3662  0.0484
   75MOL0     O10026   4.248   4.116   1.169  0.1985 -0.1364  0.0628
   75MOL0     C10027   4.231   4.050   1.043  0.0510 -0.5136  0.1509
   75MOL0     C10028   4.082   4.056   1.011 -0.6178 -0.1375  0.5009
   75MOL0     C10029   4.020   3.942   1.089  0.8537  0.0637 -0.7073
   75MOL0     C10030   3.869   3.967   1.127 -0.2336  0.4159 -0.2238
   75MOL0     C10031   3.852   4.078   1.227 -0.5904 -0.1677 -0.1709
   75MOL0     C10032   3.719   4.064   1.299  0.4327  0.2655 -0.0748
   75MOL0     C10033   3.722   4.143   1.419  0.2999 -0.7999 -0.1270
   75MOL0     C10034   3.597   4.140   1.506 -0.2335 -0.0573 -0.5704
   75MOL0    Cl10035   3.467   4.211   1.430  0.1955  0.3190 -0.0087
   75MOL0     C10036   4.387   4.259   1.295 -0.3837  0.3084 -1.3979
   75MOL0     C10037   4.510   4.321   1.329 -0.3725  0.6706 -0.2396
   75MOL0     O10038   4.805   4.455   1.094  0.1332 -0.8409 -0.0440
   75MOL0     C10039   4.935   4.579   1.368 -0.4280 -0.4718  0.1600
   75MOL0     C10040   5.039   4.621   1.438 -1.0360  0.4989 -0.0520
   75MOL0     N10041   5.772   4.236   1.837  1.0567  0.2724 -0.5476
   75MOL0     N10042   5.887   4.256   1.889 -1.0817  0.7120 -0.1996
   75MOL0     C10043   7.017   4.412   2.266 -0.5600  0.3326 -0.5129
   75MOL0     C10044   7.160   4.416   2.253 -0.0807 -0.5480  0.0543
   75MOL0     C10045   7.581   4.321   2.079 -0.0883  0.3589 -0.3548
   75MOL0     C10046   7.661   4.439   2.076 -0.8368 -0.4988 -0.0347
   75MOL0     C10047   7.792   4.440   2.026 -0.5179  1.4303  0.5309
   75MOL0     C10048   7.851   4.323   1.990  0.3981  0.2312 -0.3167
   75MOL0     O10049   7.977   4.337   1.940 -0.3246  0.5670  0.4668
   75MOL0     C10050   8.080   4.254   1.988 -0.1893 -0.2848  0.1619
   75MOL0     C10051   8.144   4.301   2.119  1.3835 -0.4735 -0.1440
   75MOL0     C10052   8.264   4.235   2.159 -0.2908 -0.1504  0.5536
   75MOL0     C10053   8.388   4.325   2.144 -0.1024 -0.9711 -0.6743
   75MOL0     C10054   8.512   4.248   2.177 -0.2177 -1.0464  0.0430
   75MOL0     C10055   8.605   4.186   2.228  0.6384  0.1319 -0.0708
   75MOL0     C10056   7.779   4.199   1.996 -0.5990 -1.4030  0.1704
   75MOL0     C10057   7.648   4.201   2.051 -0.6180  0.0305 -0.0454
   75MOL0     H10058   7.186   4.406   1.908  0.1021 -0.5387 -0.3531
   75MOL0     H10059   6.951   4.412   1.932 -1.3974 -3.4104  0.9595
   75MOL0     H10060   6.726   4.509   2.028 -0.2235 -0.0190  0.6087
   75MOL0     H10061   6.726   4.321   2.023  0.6439 -1.0746  2.0076
   75MOL0     H10062   6.496   4.387   2.058 -0.1974  0.2009  0.0961
   75MOL0     H10063   6.545   4.350   2.222  0.6882  0.0776 -0.5902
   75MOL0     H10064   6.597   4.580   2.262  1.0304 -0.1148 -0.8678
   75MOL0     H10065   6.540   4.632   2.097 -0.9380 -1.1821 -1.6822
   75MOL0     H10066   6.348   4.469   2.276 -1.4492  1.8444  1.7618
   75MOL0     H10067   6.346   4.647   2.283 -2.6104  0.3423 -0.6708
   75MOL0     H10068   6.298   4.680   2.052  0.2806 -1.0409  0.6368
   75MOL0     H10069   6.306   4.512   2.029  0.3493  0.8556 -1.0467
   75MOL0     H10070   6.123   4.479   2.190  0.8561 -0.3794 -0.4976
   75MOL0     H10071   6.094   4.662   2.188  0.6354  0.8535 -1.4479
   75MOL0     H10072   5.943   4.554   2.041  0.2954  0.0772  0.2771
   75MOL0     H10073   6.055   4.641   1.929  2.4190 -0.8417 -0.5571
   75MOL0     H10074   6.082   4.346   2.004 -2.0026  0.0020 -0.2282
   75MOL0     H10075   6.153   4.435   1.871  1.6985  1.6526  1.5679
   75MOL0     H10076   5.857   4.537   1.731  0.4305  0.1251  1.1484
   75MOL0     H10077   5.638   4.466   1.625 -3.0385  1.0948  0.6538
   75MOL0     H10078   5.591   4.294   1.635 -5.7912  0.2630  0.6612
   75MOL0     H10079   5.548   4.454   1.874  0.5494 -1.6512  1.0664
   75MOL0     H10080   5.432   4.336   1.793 -0.2734  1.6702  0.3280
   75MOL0     H10081   5.473   4.623   1.704 -1.1841 -0.1619 -1.3547
   75MOL0     H10082   5.338   4.557   1.797 -0.1325 -2.9299  2.7577
   75MOL0     H10083   5.303   4.391   1.613  2.7199 -0.9184 -1.5553
   75MOL0     H10084   5.426   4.481   1.512 -0.8489  1.1752 -2.4531
   75MOL0     H10085   5.245   4.363   1.364  0.0159 -0.0922  0.2816
   75MOL0     H10086   5.161   4.224   1.198  0.4428  1.5097 -2.4184
   75MOL0     H10087   5.020   4.171   1.260 -1.8173  0.3966 -0.6469
   75MOL0     H10088   5.019   4.259   1.103 -1.1281 -1.5967 -0.6500
   75MOL0     H10089   4.679   4.248   1.050  1.3890  0.6440  1.9199
   75MOL0     H10090   4.481   4.105   1.003  0.4332 -1.7200  0.2260
   75MOL0     H10091   4.285   4.088   0.956 -0.2321 -1.0530 -0.2668
   75MOL0     H10092   4.262   3.946   1.054  0.4038 -0.4792 -0.4796
   75MOL0     H10093   4.043   4.156   1.035 -1.2691 -0.3623  0.4041
   75MOL0     H10094   4.073   4.033   0.904  1.1530 -1.2256  0.5485
   75MOL0     H10095   4.069   3.938   1.186 -1.3202  4.4997  0.8236
   75MOL0     H10096   4.031   3.846   1.038  0.9864 -1.0466  1.2980
   75MOL0     H10097   3.801   3.992   1.044 -2.6497  2.5152  2.1579
   75MOL0     H10098   3.833   3.872   1.167  1.3617  0.3647  1.1748
   75MOL0     H10099   3.870   4.182   1.199  0.3957  0.0876  1.2761
   75MOL0     H10100   3.928   4.050   1.300 -0.6414 -0.1050 -0.0943
   75MOL0     H10101   3.638   4.106   1.239  1.5358  1.0089 -1.0776
   75MOL0     H10102   3.707   3.957   1.321 -0.9791 -0.3992 -3.4365
   75MOL0     H10103   3.743   4.246   1.389 -2.3397  0.3717  1.6844
   75MOL0     H10104   3.812   4.101   1.464  0.5577 -0.6929 -0.5442
   75MOL0     H10105   3.608   4.201   1.596  2.7438  0.3950 -1.1516
   75MOL0     H10106   3.556   4.042   1.534 -1.8078  1.0079  1.1080
   75MOL0     H10107   4.296   4.274   1.354 -1.4081 -1.2838 -2.4893
   75MOL0     H10108   4.529   4.366   1.426  1.9767 -0.2108 -0.2471
   75MOL0     H10109   4.842   4.635   1.366  1.6318  3.3305 -1.4786
   75MOL0     H10110   5.023   4.708   1.502 -0.6432  1.0943 -0.7402
   75MOL0     H10111   6.963   4.411   2.361  3.3664  1.3167  1.9746
   75MOL0     H10112   7.215   4.450   2.340 -0.7938  1.4277 -0.2215
   75MOL0     H10113   7.621   4.533   2.114  1.9186 -0.1927  2.5041
   75MOL0     H10114   7.851   4.528   2.006 -0.0699  0.5857 -2.2888
   75MOL0     H10115   8.036   4.155   2.001 -0.6703 -0.3122 -1.4902
   75MOL0     H10116   8.165   4.254   1.920  0.2703  1.1844  0.6924
   75MOL0     H10117   8.067   4.285   2.196  0.2129 -1.2335 -1.4228
   75MOL0     H10118   8.159   4.410   2.116  0.7074 -0.2319  2.6671
   75MOL0     H10119   8.278   4.147   2.097  0.1373  0.5040 -0.2966
   75MOL0     H10120   8.270   4.199   2.262  1.7992 -0.8797  0.2287
   75MOL0     H10121   8.390   4.413   2.209 -1.9371 -1.4416  0.0859
   75MOL0     H10122   8.390   4.362   2.042  1.3692  0.9930 -0.0009
   75MOL0     H10123   8.684   4.142   2.285  1.6447  2.3011  0.3121
   75MOL0     H10124   7.840   4.114   1.967  3.1085  0.8764  0.6328
   75MOL0     H10125   7.589   4.110   2.063 -2.0464  0.6594 -1.9802
   76MOL0     O10126   2.010   9.667   4.290 -0.5793  0.1877 -0.0868
   76MOL0     C10127   2.031   9.662   4.414  0.4612 -0.4217  0.6952
   76MOL0     O10128   1.939   9.683   4.517 -0.3565  0.2100  0.0969
   76MOL0     C10129   1.806   9.678   4.482 -0.1863 -0.3760 -0.1678
   76MOL0     C10130   1.755   9.550   4.449 -0.0472 -0.0909  0.4708
   76MOL0     C10131   1.618   9.534   4.413  0.0220  0.1629 -0.4933
   76MOL0     C10132   1.532   9.647   4.402 -0.9636  0.2008  0.3310
   76MOL0     O10133   1.407   9.628   4.357 -0.0716  0.1006 -0.6337
   76MOL0     C10134   1.307   9.655   4.458  0.1915 -0.2612  0.7995
   76MOL0     C10135   1.274   9.527   4.529 -0.2476  0.5778 -0.2354
   76MOL0     C10136   1.257   9.397   4.437 -0.3983 -1.5387 -0.2364
   76MOL0     C10137   1.163   9.295   4.496 -0.9519 -0.1937 -0.0299
   76MOL0     C10138   1.130   9.178   4.398  0.5237  0.3608 -0.1009
   76MOL0     C10139   1.070   9.045   4.460 -0.5932 -0.3474 -0.0570
   76MOL0     C10140   1.011   8.955   4.349 -0.0727 -0.3386 -0.4468
   76MOL0     C10141   0.943   8.829   4.410 -0.3529  0.1222  0.0106
   76MOL0     N10142   0.889   8.731   4.313  0.0355 -0.3380  0.0253
   76MOL0     C10143   0.782   8.744   4.230 -0.1956  0.3897 -0.9786
   76MOL0     C10144   0.764   8.623   4.162 -0.4392 -0.2981  0.1477
   76MOL0     C10145   0.653   8.583   4.075  0.2508  0.4145  0.2221
   76MOL0     C10146   0.609   8.693   3.981  0.1894 -1.1363  0.2511
   76MOL0     C10147   0.540   8.640   3.858  0.6586  0.0931  0.7445
   76MOL0     C10148   0.409   8.583   3.893  0.2703  0.4083  0.8193
   76MOL0     O10149   0.311   8.683   3.916  0.5438 -0.0339  0.1874
   76MOL0     C10150   0.175   8.652   3.949  0.1628  0.0228  0.6586
   76MOL0     C10151   0.115   8.760   4.003 -0.4092  0.0749  0.4389
   76MOL0     C10152  -0.014   8.757   4.043 -0.1457 -0.8035  0.2335
   76MOL0     C10153  -0.061   8.894   4.096 -0.5771  0.3623  0.0731
   76MOL0     C10154  -0.087   8.636   4.036 -0.3156  0.0025  0.5765
   76MOL0     C10155  -0.225   8.624   4.076 -0.6453 -0.2575 -0.4910
   76MOL0     O10156  -0.303   8.734   4.059  0.0539  0.1180 -0.7194
   76MOL0     C10157  -0.438   8.715   4.090 -0.8734 -0.0684 -0.2652
   76MOL0     C10158  -0.478   8.688   4.218 -0.7458 -0.7201 -0.1317
   76MOL0     C10159  -0.614   8.680   4.246  0.5919 -0.2544  0.3029
   76MOL0     C10160  -0.713   8.692   4.151 -1.4698  0.5585  0.6577
   76MOL0     O10161  -0.846   8.677   4.174 -0.0662 -0.1216  0.1130
   76MOL0     C10162  -0.911   8.569   4.103  0.3106  0.9748 -0.6517
   76MOL0     C10163  -1.050   8.526   4.165 -0.2640  0.1136 -0.0975
   76MOL0     C10164  -1.151   8.641   4.172 -0.4287  0.1426  0.1996
   76MOL0     C10165  -1.291   8.581   4.209  0.4315 -0.0712 -0.0658
   76MOL0     C10166  -1.395   8.694   4.202 -0.6087  0.3770 -0.2815
   76MOL0     C10167  -1.533   8.640   4.251 -1.1775 -0.0136 -0.4341
   76MOL0     C10168  -1.621   8.750   4.288 -0.6002 -0.4130 -0.5368
   76MOL0     C10169  -1.735   8.704   4.375 -0.2178 -0.3655 -0.4186
   76MOL0    Cl10170  -1.873   8.823   4.381 -0.0563 -0.0350 -0.1304
   76MOL0     C10171  -0.670   8.728   4.017  0.7128  0.3229 -0.3719
   76MOL0     C10172  -0.535   8.735   3.990 -0.0829 -0.0310 -0.0282
   76MOL0     O10173  -0.265   8.514   4.108  0.4282  0.1335 -0.2879
   76MOL0     C10174  -0.019   8.516   3.972  0.7732 -0.3690  0.0553
   76MOL0     C10175   0.114   8.524   3.932 -1.2255 -0.1079  0.0898
   76MOL0     N10176   0.870   8.540   4.214 -0.1481 -0.0964 -0.2490
   76MOL0     N10177   0.948   8.611   4.293  0.2557 -0.4714  0.3233
   76MOL0     C10178   1.588   9.771   4.435  0.3979  0.1287 -0.2202
   76MOL0     C10179   1.725   9.791   4.469  0.2364  0.1192 -0.0520
   76MOL0     C10180   2.176   9.674   4.452  0.9290 -0.0743  0.0242
   76MOL0     C10181   2.220   9.768   4.540 -0.7619 -0.6719  0.0858
   76MOL0     C10182   2.354   9.780   4.568  0.3716 -0.9731  0.2723
   76MOL0     C10183   2.456   9.714   4.492  0.4807 -0.6027 -0.4411
   76MOL0     O10184   2.589   9.738   4.522 -0.0668  0.2802 -0.6632
   76MOL0     C10185   2.679   9.638   4.485 -0.1972 -0.5315  0.7334
   76MOL0     C10186   2.820   9.698   4.508 -0.1860 -0.5310  0.3067
   76MOL0     C10187   2.858   9.710   4.655  0.6013 -0.1227 -1.1719
   76MOL0     C10188   2.771   9.809   4.746 -0.0247  0.6438  0.5418
   76MOL0     C10189   2.785   9.785   4.892  0.0083  0.3181  0.2512
   76MOL0     C10190   2.779   9.766   5.013 -0.4353  0.2631  0.3344
   76MOL0     C10191   2.404   9.613   4.403 -0.2004 -0.9501  0.3395
   76MOL0     C10192   2.270   9.590   4.388  0.1455 -0.4955  0.8326
   76MOL0     H10193   1.817   9.461   4.458 -1.1158 -1.0837 -1.3385
   76MOL0     H10194   1.587   9.435   4.382  0.8707 -0.5670  0.8672
   76MOL0     H10195   1.328   9.738   4.526 -0.7673 -0.7635  1.7311
   76MOL0     H10196   1.220   9.698   4.407  3.0393  1.2529 -3.3298
   76MOL0     H10197   1.353   9.499   4.600 -1.4329 -2.2367  0.1248
   76MOL0     H10198   1.181   9.539   4.584  1.1252 -0.4743  2.4943
   76MOL0     H10199   1.219   9.428   4.339  0.9917  1.3998  0.0538
   76MOL0     H10200   1.354   9.353   4.411 -0.0704 -1.4887  0.8393
   76MOL0     H10201   1.205   9.263   4.592  0.0833  0.9201 -0.0797
   76MOL0     H10202   1.076   9.349   4.535  0.3686  0.1299  2.7382
   76MOL0     H10203   1.061   9.216   4.323 -2.8167 -1.1139  1.9851
   76MOL0     H10204   1.224   9.164   4.343 -0.3771 -0.6976 -1.4252
   76MOL0     H10205   1.154   9.001   4.514  0.8868  2.1971 -0.1033
   76MOL0     H10206   0.995   9.072   4.535  0.2351  2.7319 -0.1646
   76MOL0     H10207   0.947   9.007   4.276 -0.2228 -1.5268 -1.1911
   76MOL0     H10208   1.088   8.916   4.282  0.7873  2.2927 -1.1048
   76MOL0     H10209   0.851   8.852   4.466  0.6681  0.3028  1.6707
   76MOL0     H10210   1.006   8.774   4.480  1.7971  2.7800  0.3528
   76MOL0     H10211   0.722   8.831   4.208  2.0202  1.9429 -1.2125
   76MOL0     H10212   0.682   8.491   4.022 -0.3995  0.4102 -0.1390
   76MOL0     H10213   0.573   8.555   4.144 -0.3122 -2.7909 -1.4879
   76MOL0     H10214   0.690   8.756   3.942 -3.3705  4.0571  0.1995
   76MOL0     H10215   0.540   8.762   4.029 -0.5214 -0.4647 -1.6371
   76MOL0     H10216   0.593   8.556   3.813  0.8165  0.9695 -0.7618
   76MOL0     H10217   0.535   8.710   3.775  0.4029  0.5131  1.1110
   76MOL0     H10218   0.425   8.523   3.983  1.7629  1.3021  1.1887
   76MOL0     H10219   0.381   8.511   3.815  1.7723  2.3403 -1.6640
   76MOL0     H10220   0.181   8.841   4.031 -1.0112  0.6760  0.1262
   76MOL0     H10221   0.026   8.937   4.144  1.6192 -3.4780 -0.0735
   76MOL0     H10222  -0.099   8.950   4.009  0.1506  0.3179 -0.2769
   76MOL0     H10223  -0.136   8.873   4.173  0.6387 -1.4948  0.8130
   76MOL0     H10224  -0.397   8.681   4.289  2.2007 -0.7513 -3.2285
   76MOL0     H10225  -0.653   8.668   4.346 -1.7451 -1.8131 -0.7189
   76MOL0     H10226  -0.934   8.598   4.001 -2.3841 -0.6521 -0.5882
   76MOL0     H10227  -0.847   8.480   4.095 -2.3061 -1.2378  1.0401
   76MOL0     H10228  -1.086   8.439   4.110 -1.9452  1.4336 -1.2243
   76MOL0     H10229  -1.016   8.494   4.263 -0.6438  0.4575  0.1508
   76MOL0     H10230  -1.164   8.689   4.075 -0.1764 -1.9999 -0.9467
   76MOL0     H10231  -1.120   8.712   4.249  1.2767 -1.0497  0.6707
   76MOL0     H10232  -1.313   8.498   4.142  0.6627  0.8238 -1.2834
   76MOL0     H10233  -1.279   8.546   4.312  0.9516  0.6970  0.1462
   76MOL0     H10234  -1.387   8.736   4.101  0.3834  1.4659  0.2163
   76MOL0     H10235  -1.361   8.777   4.266  0.7793  0.1050 -0.6282
   76MOL0     H10236  -1.582   8.569   4.184 -1.5393  0.0140 -0.2035
   76MOL0     H10237  -1.514   8.569   4.332 -2.8169 -2.3925 -2.0075
   76MOL0     H10238  -1.679   8.783   4.201 -1.8512  2.1266  1.1548
   76MOL0     H10239  -1.575   8.829   4.348 -1.0208 -2.1652  2.2529
   76MOL0     H10240  -1.695   8.671   4.471  0.8511 -0.2720 -0.8095
   76MOL0     H10241  -1.776   8.613   4.331  1.1167 -0.4250 -1.6318
   76MOL0     H10242  -0.745   8.735   3.939 -0.0975 -3.7993 -0.1733
   76MOL0     H10243  -0.513   8.750   3.885  0.4753 -2.3232 -0.2904
   76MOL0     H10244  -0.067   8.420   3.963  1.9244 -1.2553  2.5312
   76MOL0     H10245   0.170   8.436   3.903 -2.2033 -0.5381 -0.5280
   76MOL0     H10246   1.528   9.862   4.434  3.5656  2.3786 -0.0131
   76MOL0     H10247   1.756   9.892   4.490  0.0320 -0.2593  2.2732
   76MOL0     H10248   2.153   9.824   4.604 -1.9508 -1.9633  0.0188
   76MOL0     H10249   2.380   9.840   4.655  0.0516 -0.8228  0.2671
   76MOL0     H10250   2.657   9.542   4.533  0.9312  0.0316  2.5001
   76MOL0     H10251   2.680   9.620   4.377  0.2796 -3.8068  1.1657
   76MOL0     H10252   2.835   9.792   4.454 -2.1050  0.2972  1.1076
   76MOL0     H10253   2.887   9.624   4.464  1.5536  0.1667  1.6425
   76MOL0     H10254   2.962   9.741   4.671  0.0943  1.4352 -0.6823
   76MOL0     H10255   2.846   9.611   4.700  0.0110  0.3255 -0.3129
   76MOL0     H10256   2.664   9.808   4.725 -0.0152  0.1172  0.4979
   76MOL0     H10257   2.806   9.910   4.725 -1.4589  1.0339 -0.1151
   76MOL0     H10258   2.767   9.740   5.116  1.5168 -1.3549  0.2261
   76MOL0     H10259   2.476   9.550   4.353 -0.3941  0.2453 -1.5647
   76MOL0     H10260   2.238   9.501   4.336  0.4554  0.8110 -1.7460
   77MOL0     O10261   1.569   9.285   5.191  0.8901 -0.3875  0.0135
   77MOL0     C10262   1.578   9.347   5.084  1.0006  0.2286  0.1528
   77MOL0     O10263   1.478   9.395   5.008  0.5125  0.4317  0.3175
   77MOL0     C10264   1.349   9.372   5.046  0.4320 -0.1746 -0.1925
   77MOL0     C10265   1.301   9.424   5.166  0.2098 -0.1964 -0.6222
   77MOL0     C10266   1.170   9.400   5.206  0.2614 -0.5211  0.9984
   77MOL0     C10267   1.079   9.344   5.125  0.9501  0.4135 -1.0288
   77MOL0     O10268   0.948   9.316   5.162 -0.0015 -0.3820  0.4415
   77MOL0     C10269   0.900   9.410   5.256  0.7951 -0.6346  0.6749
   77MOL0     C10270   0.739   9.433   5.239  0.2711  0.0445  0.4264
   77MOL0     C10271   0.693   9.490   5.100 -0.6260 -0.4521 -0.3499
   77MOL0     C10272   0.550   9.542   5.102  0.2666  0.0672  0.5664
   77MOL0     C10273   0.440   9.434   5.060  0.1310 -0.3403  0.6304
   77MOL0     C10274   0.300   9.501   5.040 -1.0684  0.3190 -0.4048
   77MOL0     C10275   0.244   9.596   5.151  0.7377  0.0464  0.2848
   77MOL0     C10276   0.214   9.514   5.282  0.5365 -0.1245  0.3463
   77MOL0     N10277   0.172   9.590   5.397  0.3856  0.2716  0.3857
   77MOL0     C10278   0.111   9.717   5.384  0.3667  0.2055 -0.4444
   77MOL0     C10279   0.127   9.776   5.504  0.5429  0.0675 -0.4602
   77MOL0     C10280   0.062   9.906   5.546 -0.3244 -0.4277  0.1845
   77MOL0     C10281  -0.091   9.895   5.539 -0.1853 -0.5583  0.2028
   77MOL0     C10282  -0.150   9.778   5.618 -0.1095  0.3032  1.1908
   77MOL0     C10283  -0.302   9.787   5.649  0.9160  0.2099  0.8586
   77MOL0     O10284  -0.327   9.771   5.790 -0.1563  0.0067 -0.3980
   77MOL0     C10285  -0.456   9.746   5.825 -0.0053 -0.5573 -0.3958
   77MOL0     C10286  -0.487   9.731   5.963  0.6110 -1.0605 -0.1743
   77MOL0     C10287  -0.623   9.708   6.007 -0.6594  0.3431 -0.7807
   77MOL0     C10288  -0.631   9.671   6.152  0.2521 -0.5278 -0.1501
   77MOL0     C10289  -0.730   9.704   5.914  0.1116 -0.3339 -0.5883
   77MOL0     C10290  -0.868   9.667   5.952  0.2609 -0.0946  0.9413
   77MOL0     O10291  -0.937   9.623   5.839  0.1167 -0.1795 -0.0693
   77MOL0     C10292  -1.073   9.588   5.843 -0.7977 -0.4053  0.0682
   77MOL0     C10293  -1.169   9.672   5.885  0.0210 -1.0807  0.3071
   77MOL0     C10294  -1.310   9.627   5.884 -0.3279  1.0034 -0.3429
   77MOL0     C10295  -1.339   9.501   5.833  0.8951  0.6992 -0.5114
   77MOL0     O10296  -1.469   9.449   5.828  0.5432 -0.5472  0.1080
   77MOL0     C10297  -1.588   9.516   5.882 -0.9757 -0.0020 -0.0751
   77MOL0     C10298  -1.600   9.512   6.037 -0.3416 -0.0296 -0.2686
   77MOL0     C10299  -1.731   9.583   6.101  0.3860  0.8989 -0.1164
   77MOL0     C10300  -1.860   9.536   6.021  1.0703 -0.1264  0.0753
   77MOL0     C10301  -1.993   9.566   6.095 -0.8583 -0.4891 -0.3249
   77MOL0     C10302  -2.116   9.526   6.022 -0.3697  0.5846  0.1440
   77MOL0     C10303  -2.139   9.610   5.894  0.2888  0.6306 -1.4074
   77MOL0     C10304  -2.280   9.634   5.857 -0.3464 -0.8245  0.3188
   77MOL0    Cl10305  -2.355   9.501   5.781  0.2744  0.2856  0.2817
   77MOL0     C10306  -1.231   9.421   5.789  1.1700 -0.1382 -0.8750
   77MOL0     C10307  -1.100   9.466   5.788 -0.0257  0.5859  1.0346
   77MOL0     O10308  -0.912   9.674   6.063 -0.2886  0.1706 -0.4060
   77MOL0     C10309  -0.702   9.741   5.782  0.4233 -0.4778 -0.2768
   77MOL0     C10310  -0.569   9.761   5.737  0.2170  0.7078 -0.2842
   77MOL0     N10311   0.185   9.684   5.596  0.0939 -0.3731  0.8185
   77MOL0     N10312   0.206   9.568   5.532  0.2618 -0.7983  0.3257
   77MOL0     C10313   1.123   9.298   5.001  0.4597  0.2741  0.2594
   77MOL0     C10314   1.261   9.317   4.957  0.2977 -0.3425  0.1452
   77MOL0     C10315   1.715   9.379   5.036  0.0245 -0.9623  0.1168
   77MOL0     C10316   1.733   9.432   4.899  0.0724  0.1084 -0.3656
   77MOL0     C10317   1.860   9.467   4.856 -0.2457 -0.0055 -0.0682
   77MOL0     C10318   1.971   9.459   4.944 -0.4898  0.4441 -0.0060
   77MOL0     O10319   2.102   9.488   4.916  0.2681 -0.1695  0.3515
   77MOL0     C10320   2.125   9.505   4.775  0.7218  0.2542 -0.7707
   77MOL0     C10321   2.264   9.453   4.747 -0.0155  0.6166 -0.8094
   77MOL0     C10322   2.275   9.308   4.804  0.2903 -0.4936  0.1092
   77MOL0     C10323   2.395   9.224   4.746  0.1277  0.3658  0.5943
   77MOL0     C10324   2.528   9.285   4.794  0.6021  0.3175 -0.3171
   77MOL0     C10325   2.624   9.318   4.864  0.3429 -0.6688  1.1898
   77MOL0     C10326   1.955   9.413   5.076  0.4944  0.4466  0.5553
   77MOL0     C10327   1.829   9.372   5.119 -0.0239 -0.1763 -0.3960
   77MOL0     H10328   1.356   9.478   5.243 -2.2354  4.1553 -1.5670
   77MOL0     H10329   1.153   9.434   5.308  1.6289  1.3374  0.6711
   77MOL0     H10330   0.922   9.362   5.352  2.1858 -0.7195  0.3332
   77MOL0     H10331   0.951   9.507   5.259  1.2105 -0.7952 -0.7479
   77MOL0     H10332   0.694   9.333   5.237 -0.3232  0.2093  2.6405
   77MOL0     H10333   0.691   9.484   5.323  0.1665 -3.6071  2.8403
   77MOL0     H10334   0.756   9.577   5.078 -0.3388 -1.3382 -3.5471
   77MOL0     H10335   0.707   9.420   5.018  1.1361  0.9024 -1.2802
   77MOL0     H10336   0.522   9.580   5.200  0.5685  0.7842  0.3786
   77MOL0     H10337   0.539   9.630   5.037 -0.8463  1.6823  2.8282
   77MOL0     H10338   0.478   9.374   4.978 -0.1805 -1.0852  1.0244
   77MOL0     H10339   0.450   9.361   5.141  1.7354 -0.1063  0.6851
   77MOL0     H10340   0.302   9.541   4.938 -0.7432 -1.3437 -1.0803
   77MOL0     H10341   0.230   9.417   5.037  1.3298 -1.7811 -1.5904
   77MOL0     H10342   0.313   9.678   5.172  0.8155 -0.6787  3.4947
   77MOL0     H10343   0.146   9.631   5.118 -0.8477 -1.7777  2.6389
   77MOL0     H10344   0.304   9.468   5.323 -0.2681 -0.6413  1.5895
   77MOL0     H10345   0.139   9.435   5.267  0.9518 -0.5490  0.4806
   77MOL0     H10346   0.056   9.749   5.296 -0.2290 -1.3894 -0.6791
   77MOL0     H10347   0.090   9.941   5.646  0.7164  4.9117 -1.6284
   77MOL0     H10348   0.094   9.977   5.469 -1.7308  0.3312  0.2593
   77MOL0     H10349  -0.116   9.879   5.434 -0.6343 -1.1947  0.3983
   77MOL0     H10350  -0.125   9.991   5.579  3.0185  1.3771 -1.3091
   77MOL0     H10351  -0.097   9.773   5.714  2.0415  2.5078  0.2293
   77MOL0     H10352  -0.126   9.685   5.566 -2.3014 -0.6085  1.6858
   77MOL0     H10353  -0.356   9.715   5.587  2.1749 -0.2299  0.2411
   77MOL0     H10354  -0.337   9.885   5.616 -0.9091 -0.9910 -1.0513
   77MOL0     H10355  -0.402   9.731   6.030  0.8523  0.2570 -0.4596
   77MOL0     H10356  -0.663   9.568   6.170  2.0732 -0.8909  1.4236
   77MOL0     H10357  -0.531   9.677   6.195  0.0885  0.7989  0.0756
   77MOL0     H10358  -0.688   9.739   6.215 -0.7633 -1.8067  0.3744
   77MOL0     H10359  -1.138   9.771   5.917 -1.4567 -0.3789 -0.3083
   77MOL0     H10360  -1.393   9.683   5.926 -0.2780 -0.2142  1.5109
   77MOL0     H10361  -1.585   9.622   5.852  0.7651 -0.2717 -1.0013
   77MOL0     H10362  -1.682   9.481   5.839 -0.9432  2.1342 -2.1140
   77MOL0     H10363  -1.601   9.409   6.071  1.6635  0.5869  1.9134
   77MOL0     H10364  -1.509   9.556   6.079  0.6937 -1.1401 -1.2934
   77MOL0     H10365  -1.722   9.691   6.084  1.1137  0.7488 -0.7260
   77MOL0     H10366  -1.736   9.551   6.206 -1.7467 -3.3834 -1.3281
   77MOL0     H10367  -1.845   9.579   5.922  2.5891  1.1190  0.8096
   77MOL0     H10368  -1.861   9.427   6.010 -1.0723 -0.2155  0.6847
   77MOL0     H10369  -1.994   9.671   6.124  0.6170 -1.0585  2.0842
   77MOL0     H10370  -1.995   9.509   6.189 -1.1871  0.4280  0.2284
   77MOL0     H10371  -2.113   9.419   6.000  1.1237  0.7349 -0.4873
   77MOL0     H10372  -2.196   9.543   6.095 -0.3123 -2.3034  1.0059
   77MOL0     H10373  -2.081   9.566   5.812  1.7124 -2.2653  0.9629
   77MOL0     H10374  -2.094   9.706   5.920  1.4467 -0.6960  2.1041
   77MOL0     H10375  -2.275   9.728   5.802  1.1940  0.0641  1.8844
   77MOL0     H10376  -2.337   9.656   5.948  2.1818  1.5083  1.4760
   77MOL0     H10377  -1.240   9.322   5.746 -2.1951  0.0012 -0.7108
   77MOL0     H10378  -1.022   9.404   5.746 -0.1552  0.7181  0.5930
   77MOL0     H10379  -0.790   9.755   5.720  1.4115  0.4875 -1.5296
   77MOL0     H10380  -0.555   9.799   5.637  1.5384  3.8629  0.9627
   77MOL0     H10381   1.055   9.265   4.923  0.7262  2.8457 -1.1726
   77MOL0     H10382   1.299   9.276   4.864  0.7337 -0.8904  0.5580
   77MOL0     H10383   1.646   9.432   4.833 -0.2227 -2.5715 -0.0569
   77MOL0     H10384   1.878   9.498   4.753  3.4830 -0.1792  0.4010
   77MOL0     H10385   2.072   9.438   4.706  0.9090  0.0457 -0.7146
   77MOL0     H10386   2.096   9.607   4.749 -1.3021 -0.2102 -0.5231
   77MOL0     H10387   2.336   9.520   4.795  1.6243 -0.1881 -2.0455
   77MOL0     H10388   2.284   9.439   4.640 -0.5495 -1.9949 -0.6346
   77MOL0     H10389   2.184   9.252   4.783  2.4744 -4.1181 -0.7099
   77MOL0     H10390   2.285   9.318   4.913 -0.3679 -0.1820  0.1447
   77MOL0     H10391   2.391   9.211   4.637  2.2664 -3.3962  0.8067
   77MOL0     H10392   2.393   9.122   4.783 -0.1832  1.0553  2.5932
   77MOL0     H10393   2.702   9.353   4.929 -1.8889  2.3509  2.4951
   77MOL0     H10394   2.043   9.396   5.137  0.8929  2.8679  0.7579
   77MOL0     H10395   1.817   9.334   5.220 -0.0588  1.8775  0.4051
   78MOL0     O10396   8.457   8.538   1.103 -1.1382  0.2583 -0.0868
   78MOL0     C10397   8.534   8.588   1.184 -0.3836  0.4954 -0.3371
   78MOL0     O10398   8.507   8.601   1.318 -0.8479  0.1102  0.2522
   78MOL0     C10399   8.385   8.580   1.375 -0.1583  0.5560  0.2795
   78MOL0     C10400   8.379   8.499   1.497  0.4353  0.1305  0.8080
   78MOL0     C10401   8.255   8.484   1.558  0.9442  0.1934 -0.3807
   78MOL0     C10402   8.142   8.553   1.517  0.2798  0.4394  0.6275
   78MOL0     O10403   8.027   8.540   1.599 -0.3023  0.5285  0.0504
   78MOL0     C10404   7.908   8.611   1.576  1.1933 -0.8812  0.2886
   78MOL0     C10405   7.798   8.575   1.676  0.2848  0.0442  0.1158
   78MOL0     C10406   7.673   8.655   1.655  0.2036  0.4492 -0.3372
   78MOL0     C10407   7.541   8.611   1.713 -0.2827  0.5601 -0.3462
   78MOL0     C10408   7.425   8.705   1.669 -0.4292 -0.8631 -0.2636
   78MOL0     C10409   7.439   8.843   1.742  0.5448  0.4102  1.3149
   78MOL0     C10410   7.335   8.941   1.691  0.1602 -0.0279 -0.6038
   78MOL0     C10411   7.192   8.910   1.734 -1.0100  0.5962  0.1121
   78MOL0     N10412   7.107   9.003   1.677 -0.1734  0.5646 -0.6149
   78MOL0     C10413   7.046   9.118   1.726  0.1852 -0.2983  0.1496
   78MOL0     C10414   6.978   9.175   1.621  0.9442  0.6225  0.0842
   78MOL0     C10415   6.914   9.313   1.628 -0.2504  0.2893  0.6113
   78MOL0     C10416   6.857   9.366   1.500  0.4723 -0.2854  0.7726
   78MOL0     C10417   6.731   9.296   1.445  0.2385  0.8058 -0.0209
   78MOL0     C10418   6.693   9.374   1.322  0.2551  1.2884 -0.0859
   78MOL0     O10419   6.584   9.308   1.240 -0.7512  0.2916 -1.0264
   78MOL0     C10420   6.455   9.341   1.268  0.0272  0.7441 -0.3571
   78MOL0     C10421   6.384   9.271   1.359 -0.2698  0.7253  0.3734
   78MOL0     C10422   6.247   9.289   1.368  0.2965  0.4416 -0.3505
   78MOL0     C10423   6.175   9.211   1.478 -0.2666 -0.8941 -0.2978
   78MOL0     C10424   6.175   9.365   1.271  0.0012 -0.5364  0.0964
   78MOL0     C10425   6.029   9.361   1.256  0.4546 -0.5783  0.1490
   78MOL0     O10426   5.966   9.252   1.301  0.4407 -0.2351  0.0697
   78MOL0     C10427   5.827   9.244   1.297 -0.5185  1.5568  0.6601
   78MOL0     C10428   5.755   9.183   1.189  0.5370 -0.5501  0.3782
   78MOL0     C10429   5.619   9.172   1.197 -1.0778  0.3618  0.0746
   78MOL0     C10430   5.549   9.213   1.315  0.2834  0.6971 -0.0822
   78MOL0     O10431   5.418   9.180   1.311 -0.0490 -0.5326 -0.7129
   78MOL0     C10432   5.329   9.195   1.426 -0.6491 -0.5625 -0.7346
   78MOL0     C10433   5.185   9.203   1.387  0.2556 -0.0209  0.2997
   78MOL0     C10434   5.145   9.304   1.275  0.0656 -0.6735 -0.2337
   78MOL0     C10435   5.196   9.447   1.307 -0.2280  0.2625 -0.0758
   78MOL0     C10436   5.161   9.539   1.190  0.1122  0.4155  0.5418
   78MOL0     C10437   5.142   9.682   1.246  0.8515 -1.1874 -0.5748
   78MOL0     C10438   5.086   9.780   1.144  0.4117  0.1372 -0.2149
   78MOL0     C10439   5.168   9.813   1.024  0.7404 -0.3400  0.6517
   78MOL0    Cl10440   5.315   9.908   1.068 -0.3005  0.5312 -0.1686
   78MOL0     C10441   5.625   9.273   1.421  0.0187 -0.0085 -0.0035
   78MOL0     C10442   5.762   9.288   1.410 -0.4809 -0.0408  0.5581
   78MOL0     O10443   5.982   9.464   1.223 -0.3633 -0.3553 -0.2950
   78MOL0     C10444   6.253   9.443   1.182 -0.0821  0.4705  0.3430
   78MOL0     C10445   6.395   9.433   1.184 -0.0835 -0.4790  0.0125
   78MOL0     N10446   7.007   9.098   1.511  0.2795  1.1357 -0.2209
   78MOL0     N10447   7.080   8.997   1.542 -0.9312  0.2676  0.0224
   78MOL0     C10448   8.151   8.631   1.402  0.1932 -0.2900 -0.8070
   78MOL0     C10449   8.266   8.635   1.322 -0.0092  0.9451  0.5697
   78MOL0     C10450   8.669   8.627   1.130  0.4996 -0.0097 -0.2891
   78MOL0     C10451   8.715   8.582   1.003  1.1858  0.1437  0.0172
   78MOL0     C10452   8.845   8.590   0.959 -0.5238  0.1617 -0.0711
   78MOL0     C10453   8.929   8.668   1.038 -0.8430  0.6840 -0.2964
   78MOL0     O10454   9.058   8.674   0.996  0.6754  0.4113  0.0765
   78MOL0     C10455   9.159   8.625   1.080 -0.4268  0.5599 -0.5193
   78MOL0     C10456   9.285   8.710   1.084  0.0316 -0.3611 -0.2369
   78MOL0     C10457   9.269   8.852   1.151 -0.4930  0.7788  0.7503
   78MOL0     C10458   9.269   8.847   1.306 -0.0916  0.4946  0.3254
   78MOL0     C10459   9.221   8.985   1.350 -0.7737  0.0445  0.2415
   78MOL0     C10460   9.197   9.093   1.386 -0.9084  0.4764  1.0000
   78MOL0     C10461   8.889   8.713   1.163 -0.3693 -0.0681  0.7778
   78MOL0     C10462   8.761   8.685   1.216 -0.0989 -0.5274  0.0942
   78MOL0     H10463   8.468   8.460   1.544  1.3762  2.9270  1.5440
   78MOL0     H10464   8.263   8.436   1.655  0.8916  1.9112  0.5020
   78MOL0     H10465   7.924   8.719   1.572  0.7786 -0.8480 -0.5570
   78MOL0     H10466   7.874   8.585   1.476  0.9185  0.7559 -0.0794
   78MOL0     H10467   7.769   8.470   1.663 -0.0239  0.0161  0.9645
   78MOL0     H10468   7.840   8.588   1.776 -1.2071 -1.5212  1.0064
   78MOL0     H10469   7.693   8.758   1.683 -1.0910  1.7925 -3.7882
   78MOL0     H10470   7.661   8.658   1.546  2.6428 -0.8663 -0.7298
   78MOL0     H10471   7.514   8.514   1.670  1.4328  0.4240 -1.2159
   78MOL0     H10472   7.545   8.594   1.821 -1.2924  0.6809 -0.2791
   78MOL0     H10473   7.435   8.731   1.563  2.7619 -1.3197 -0.1729
   78MOL0     H10474   7.327   8.660   1.687 -0.9919  1.2468  2.7543
   78MOL0     H10475   7.435   8.837   1.851 -0.5492  0.0418  1.2597
   78MOL0     H10476   7.537   8.889   1.725  0.0834  1.1423  0.5504
   78MOL0     H10477   7.367   9.039   1.728  1.5425 -0.5439 -0.3453
   78MOL0     H10478   7.347   8.943   1.582  3.8182 -0.0525 -0.3430
   78MOL0     H10479   7.183   8.918   1.843 -0.3666 -0.4210  0.2531
   78MOL0     H10480   7.178   8.806   1.704 -1.6373  0.4367  0.9196
   78MOL0     H10481   7.051   9.150   1.829  2.3960 -1.8351  0.5905
   78MOL0     H10482   6.832   9.315   1.700  0.7266 -3.0194  1.9917
   78MOL0     H10483   6.997   9.375   1.664  0.4099 -1.5928  2.5216
   78MOL0     H10484   6.936   9.371   1.425 -3.8288 -0.1577 -4.2482
   78MOL0     H10485   6.828   9.470   1.516 -2.6486 -0.9896  0.3255
   78MOL0     H10486   6.644   9.294   1.511 -2.0854 -2.3809 -2.8368
   78MOL0     H10487   6.763   9.194   1.419  0.8780  0.7242  1.0287
   78MOL0     H10488   6.777   9.383   1.253 -0.1552 -0.7807 -0.9095
   78MOL0     H10489   6.665   9.477   1.349  3.4378  1.8090  1.7456
   78MOL0     H10490   6.420   9.194   1.427 -0.8440 -2.8849 -3.0728
   78MOL0     H10491   6.245   9.199   1.561 -1.3204  0.5909  0.8742
   78MOL0     H10492   6.099   9.275   1.525  0.0618 -0.6692 -0.0693
   78MOL0     H10493   6.139   9.112   1.448 -0.8692 -0.9080  0.4159
   78MOL0     H10494   5.808   9.144   1.102  2.0378  0.3487  0.8445
   78MOL0     H10495   5.563   9.126   1.116 -1.3377  0.7653  0.0228
   78MOL0     H10496   5.342   9.107   1.490  0.5861 -1.3423 -1.9905
   78MOL0     H10497   5.357   9.285   1.481 -2.1314 -0.0811 -0.7294
   78MOL0     H10498   5.144   9.106   1.359  2.5487 -1.1289  0.6189
   78MOL0     H10499   5.131   9.223   1.480 -0.2052 -0.0689  0.0459
   78MOL0     H10500   5.037   9.299   1.262  0.1685  0.2536 -1.7408
   78MOL0     H10501   5.186   9.271   1.179  0.4761 -1.0307  0.0600
   78MOL0     H10502   5.153   9.490   1.398 -2.0275 -1.2306 -0.1596
   78MOL0     H10503   5.305   9.435   1.298 -0.3814 -1.1439 -0.2385
   78MOL0     H10504   5.069   9.502   1.146 -0.0812 -0.6911  1.8013
   78MOL0     H10505   5.236   9.542   1.111 -0.9394  0.9384 -0.4590
   78MOL0     H10506   5.075   9.671   1.331 -0.0386 -1.4427 -1.2972
   78MOL0     H10507   5.237   9.730   1.270 -1.0042  2.3910  0.1709
   78MOL0     H10508   5.080   9.876   1.195  2.2650  1.4939 -2.3403
   78MOL0     H10509   4.989   9.744   1.110  0.5069  0.7065 -1.1343
   78MOL0     H10510   5.102   9.868   0.956  0.9228  2.3992  2.4975
   78MOL0     H10511   5.202   9.721   0.977  1.1895 -1.2353  2.6227
   78MOL0     H10512   5.573   9.316   1.506 -0.2308 -2.9904  1.4621
   78MOL0     H10513   5.824   9.336   1.485 -2.7522  0.5213  2.1676
   78MOL0     H10514   6.198   9.491   1.102 -0.6447 -2.9558 -1.5406
   78MOL0     H10515   6.454   9.475   1.103  0.7311  0.9134  1.2798
   78MOL0     H10516   8.060   8.684   1.375  0.3992  0.3982 -0.1914
   78MOL0     H10517   8.266   8.688   1.227  0.7305 -0.1804 -0.0641
   78MOL0     H10518   8.645   8.513   0.957  2.6887 -0.6565 -1.1723
   78MOL0     H10519   8.879   8.535   0.872  0.9618 -1.2033  1.3108
   78MOL0     H10520   9.124   8.589   1.177  0.9455  0.3141 -0.0911
   78MOL0     H10521   9.190   8.533   1.031  0.4884 -1.0644  2.8227
   78MOL0     H10522   9.313   8.716   0.978 -0.1460 -1.5097 -0.3560
   78MOL0     H10523   9.357   8.651   1.140  0.2418 -0.0324 -0.1565
   78MOL0     H10524   9.175   8.891   1.113 -1.4038  0.5381  2.6395
   78MOL0     H10525   9.343   8.923   1.113 -0.0363 -0.3997 -0.6652
   78MOL0     H10526   9.368   8.831   1.349 -0.3943  0.9384  1.2297
   78MOL0     H10527   9.199   8.768   1.337  0.8694 -1.1688 -1.4947
   78MOL0     H10528   9.169   9.194   1.409 -0.1669  0.3329  2.6415
   78MOL0     H10529   8.959   8.770   1.223  0.9292 -1.3566  0.5183
   78MOL0     H10530   8.742   8.696   1.322  0.3861 -0.5974  0.1912
   79MOL0     O10531  10.700   2.441  11.011  0.0737 -0.0541 -0.0356
   79MOL0     C10532  10.700   2.344  11.087  0.2826  0.5228  0.0810
   79MOL0     O10533  10.585   2.262  11.097 -0.7216  0.0126 -0.1715
   79MOL0     C10534  10.471   2.307  11.038  0.7737  0.4534  0.0196
   79MOL0     C10535  10.393   2.214  10.968 -0.7554 -0.2865 -0.2220
   79MOL0     C10536  10.268   2.249  10.915 -0.0569 -0.3526 -0.0227
   79MOL0     C10537  10.225   2.381  10.917  0.3049  0.2933 -0.0972
   79MOL0     O10538  10.113   2.416  10.838 -0.4947 -0.4654  1.4493
   79MOL0     C10539  10.003   2.453  10.922 -0.6390  0.3107  0.5231
   79MOL0     C10540   9.893   2.491  10.829 -0.4690  0.0699  0.3038
   79MOL0     C10541   9.755   2.472  10.899  0.1193 -0.1723  0.5954
   79MOL0     C10542   9.641   2.462  10.793 -0.5134  0.2522 -0.5096
   79MOL0     C10543   9.601   2.602  10.747 -0.3464 -0.3760  0.0627
   79MOL0     C10544   9.498   2.582  10.632 -0.1606 -0.6093 -0.8947
   79MOL0     C10545   9.437   2.718  10.579 -0.2945  0.1230  1.7170
   79MOL0     C10546   9.354   2.787  10.684 -0.2150 -0.2925 -0.7418
   79MOL0     N10547   9.243   2.714  10.746  0.0460 -0.4281 -0.2959
   79MOL0     C10548   9.119   2.704  10.684 -0.1009 -0.3186 -0.0329
   79MOL0     C10549   9.045   2.631  10.767  0.8616  0.5382 -0.4140
   79MOL0     C10550   8.898   2.601  10.758 -0.6288 -0.0882  0.3546
   79MOL0     C10551   8.813   2.713  10.810  0.0807  0.1443  0.2267
   79MOL0     C10552   8.666   2.678  10.798  0.5592  0.6379 -0.4396
   79MOL0     C10553   8.559   2.791  10.804 -0.1901  0.0148  1.0139
   79MOL0     O10554   8.469   2.802  10.921  1.0214 -0.3105 -0.3915
   79MOL0     C10555   8.372   2.898  10.936 -0.0513 -0.0770 -0.0592
   79MOL0     C10556   8.350   2.992  10.838  0.6019 -0.2670 -0.1403
   79MOL0     C10557   8.250   3.088  10.870 -0.1543 -0.5852  1.2015
   79MOL0     C10558   8.228   3.187  10.758  0.0964 -0.0690 -0.1998
   79MOL0     C10559   8.180   3.099  10.989  0.1557  0.3847  0.2204
   79MOL0     C10560   8.075   3.195  11.017 -0.3000 -0.3613 -0.1637
   79MOL0     O10561   8.039   3.196  11.151 -0.0471  0.8366 -0.3565
   79MOL0     C10562   7.910   3.235  11.186 -0.1301 -0.4521  0.5601
   79MOL0     C10563   7.898   3.330  11.289 -0.3196  0.0303  0.1132
   79MOL0     C10564   7.782   3.368  11.346  0.1118  0.5284  0.3003
   79MOL0     C10565   7.660   3.330  11.286  0.4464 -0.4046 -0.0519
   79MOL0     O10566   7.543   3.380  11.338 -0.3005  0.6805  0.1031
   79MOL0     C10567   7.423   3.316  11.307 -0.2109 -0.0730  0.3767
   79MOL0     C10568   7.309   3.386  11.394 -0.3963 -0.1815 -0.2240
   79MOL0     C10569   7.165   3.359  11.353 -0.0918 -0.3695  0.3922
   79MOL0     C10570   7.139   3.437  11.219 -0.3076 -0.2560  0.5223
   79MOL0     C10571   6.998   3.426  11.155 -0.0175  1.3605 -0.3154
   79MOL0     C10572   6.883   3.508  11.227  0.5669  0.2012 -0.0415
   79MOL0     C10573   6.756   3.490  11.138 -0.7661 -0.8594 -0.2746
   79MOL0     C10574   6.648   3.591  11.161  0.4605  0.8764 -0.2827
   79MOL0    Cl10575   6.581   3.566  11.322  0.5507 -0.4893 -0.0550
   79MOL0     C10576   7.667   3.243  11.172  0.0784  0.0227  0.7119
   79MOL0     C10577   7.790   3.188  11.122 -1.0737 -0.1672  0.8277
   79MOL0     O10578   8.017   3.259  10.931 -0.0499  0.1505  0.8024
   79MOL0     C10579   8.210   2.991  11.087 -0.2826  0.2428  1.2232
   79MOL0     C10580   8.303   2.898  11.051 -0.4972  0.3496 -0.5608
   79MOL0     N10581   9.122   2.589  10.872  0.4652  0.5247 -0.6669
   79MOL0     N10582   9.237   2.645  10.861 -0.3842  0.1566 -0.4024
   79MOL0     C10583  10.299   2.473  10.993 -0.0760 -0.0923  0.0606
   79MOL0     C10584  10.414   2.432  11.057  0.2378 -0.7183  0.2900
   79MOL0     C10585  10.824   2.303  11.150 -0.4641 -0.0710  0.1639
   79MOL0     C10586  10.822   2.195  11.240 -0.2542 -0.4760 -0.0029
   79MOL0     C10587  10.943   2.154  11.310  0.2076  0.0914 -0.4314
   79MOL0     C10588  11.068   2.213  11.283  0.0919 -0.0105  0.1507
   79MOL0     O10589  11.184   2.169  11.340 -0.2341 -0.0660 -0.3094
   79MOL0     C10590  11.211   2.198  11.477 -0.0386 -0.9772 -0.0439
   79MOL0     C10591  11.262   2.339  11.492  0.2113 -1.4717  0.5256
   79MOL0     C10592  11.417   2.322  11.468 -0.5892 -0.0343  0.2388
   79MOL0     C10593  11.478   2.448  11.423 -0.3095 -0.1913 -0.0257
   79MOL0     C10594  11.465   2.553  11.522 -0.8948 -0.0551 -0.6823
   79MOL0     C10595  11.450   2.622  11.625  0.7078 -0.0879  0.1980
   79MOL0     C10596  11.065   2.320  11.191 -0.4434  0.1680 -0.1425
   79MOL0     C10597  10.947   2.359  11.123  0.1197 -0.6786  0.2126
   79MOL0     H10598  10.430   2.113  10.956 -1.5712 -0.6820  0.4420
   79MOL0     H10599  10.207   2.176  10.862  0.9824  0.1886 -2.0452
   79MOL0     H10600   9.978   2.365  10.982  0.6659 -1.5560 -1.4935
   79MOL0     H10601  10.024   2.531  10.995  2.0474 -1.1219  1.4153
   79MOL0     H10602   9.913   2.593  10.794  1.5967  0.6645  2.8818
   79MOL0     H10603   9.903   2.421  10.745 -0.0467 -1.1945  1.3702
   79MOL0     H10604   9.753   2.385  10.965  0.6884 -0.9186 -0.3523
   79MOL0     H10605   9.722   2.553  10.965 -1.1445 -0.6669  0.5877
   79MOL0     H10606   9.666   2.398  10.708 -0.7093  1.2954 -1.3695
   79MOL0     H10607   9.547   2.428  10.837 -0.8402  2.7216  0.8473
   79MOL0     H10608   9.559   2.660  10.830  2.5622  0.5260  1.0479
   79MOL0     H10609   9.691   2.655  10.714 -1.5224  1.1051 -0.8775
   79MOL0     H10610   9.547   2.523  10.554  1.6822 -1.7923  1.0375
   79MOL0     H10611   9.420   2.516  10.671 -1.0600  1.7257  1.5296
   79MOL0     H10612   9.495   2.799  10.533 -0.8000 -1.4094 -1.8696
   79MOL0     H10613   9.378   2.682  10.495  3.5242 -0.8996 -0.8037
   79MOL0     H10614   9.311   2.876  10.638  1.6495  0.9747 -0.1466
   79MOL0     H10615   9.422   2.822  10.763  1.1024 -2.5132 -0.7951
   79MOL0     H10616   9.091   2.758  10.593 -1.9118 -0.0834  0.6201
   79MOL0     H10617   8.880   2.568  10.655 -3.0903  0.5055  0.5411
   79MOL0     H10618   8.873   2.519  10.826 -0.8916 -1.8030 -1.7155
   79MOL0     H10619   8.826   2.805  10.752 -1.7485 -0.2917 -0.9819
   79MOL0     H10620   8.838   2.721  10.916  0.0284 -2.4624  0.4926
   79MOL0     H10621   8.637   2.604  10.873 -2.0179  1.1552 -0.8325
   79MOL0     H10622   8.656   2.625  10.703  2.0870 -1.3355  0.4132
   79MOL0     H10623   8.508   2.780  10.708  1.1014 -1.3668  0.4356
   79MOL0     H10624   8.624   2.879  10.796 -0.6052  0.1401 -2.2197
   79MOL0     H10625   8.405   3.003  10.745  1.9264 -1.3070  0.5002
   79MOL0     H10626   8.273   3.285  10.777  2.7227 -1.0759 -0.8398
   79MOL0     H10627   8.249   3.145  10.659 -2.2149  2.2896 -1.8256
   79MOL0     H10628   8.126   3.206  10.722 -0.2888  1.1153  1.3845
   79MOL0     H10629   7.997   3.361  11.323  0.4374 -3.1682  1.1415
   79MOL0     H10630   7.785   3.437  11.430  0.5114 -0.7103  1.3393
   79MOL0     H10631   7.404   3.336  11.201  1.0373  1.2689  0.3721
   79MOL0     H10632   7.419   3.207  11.317 -0.5617 -0.1098 -0.0978
   79MOL0     H10633   7.310   3.357  11.499 -3.6413  2.1450  0.5907
   79MOL0     H10634   7.328   3.494  11.392 -2.7648  0.3043  0.8105
   79MOL0     H10635   7.098   3.401  11.429 -1.7370  0.3982 -1.4162
   79MOL0     H10636   7.140   3.253  11.340  0.0123 -0.2770 -0.5815
   79MOL0     H10637   7.173   3.540  11.235  1.5676 -0.4646 -1.5864
   79MOL0     H10638   7.207   3.393  11.145 -1.4270 -0.9753 -0.1089
   79MOL0     H10639   6.981   3.319  11.141 -2.9203  1.9283 -2.2074
   79MOL0     H10640   7.003   3.470  11.055 -1.1828  0.3145 -0.8724
   79MOL0     H10641   6.863   3.459  11.322  1.7582 -0.0631  0.0940
   79MOL0     H10642   6.926   3.608  11.240 -1.7292  1.1175  0.8797
   79MOL0     H10643   6.720   3.389  11.159 -0.0382 -1.1501 -0.3943
   79MOL0     H10644   6.789   3.500  11.034 -0.4245  2.4934  0.0306
   79MOL0     H10645   6.572   3.569  11.086  0.2882 -0.1511  0.1791
   79MOL0     H10646   6.689   3.692  11.149  0.8261  0.5250 -2.2106
   79MOL0     H10647   7.589   3.205  11.108  0.7349  0.0796 -0.1400
   79MOL0     H10648   7.784   3.115  11.043  0.4722  0.1216  0.4059
   79MOL0     H10649   8.174   3.004  11.189  0.3503  3.2485  1.1651
   79MOL0     H10650   8.328   2.816  11.118 -0.0312  0.1466 -0.9699
   79MOL0     H10651  10.257   2.573  10.998  0.7603  0.2857 -0.1825
   79MOL0     H10652  10.478   2.501  11.111  0.9923 -1.7967  0.8380
   79MOL0     H10653  10.729   2.148  11.271  0.1924 -1.1292  0.3610
   79MOL0     H10654  10.940   2.080  11.389  0.8393 -0.0171 -0.5033
   79MOL0     H10655  11.122   2.185  11.538 -0.7174  1.5104 -0.4055
   79MOL0     H10656  11.279   2.123  11.518 -0.0121 -0.5657  0.6622
   79MOL0     H10657  11.230   2.368  11.592 -0.1590 -3.2262  0.9473
   79MOL0     H10658  11.229   2.415  11.421 -0.3342  0.3894  2.6568
   79MOL0     H10659  11.440   2.256  11.384  2.2777  2.2643 -0.9754
   79MOL0     H10660  11.462   2.284  11.560  0.0041  0.9637  0.3755
   79MOL0     H10661  11.418   2.485  11.340 -3.1356 -2.2439  0.9413
   79MOL0     H10662  11.583   2.431  11.396 -0.4777 -0.9070 -0.2590
   79MOL0     H10663  11.425   2.695  11.699  0.2627  0.3523 -0.3760
   79MOL0     H10664  11.157   2.369  11.160 -0.4679 -0.0094 -0.5001
   79MOL0     H10665  10.956   2.435  11.047  2.7267 -1.4462 -0.3373
   80MOL0     O10666   7.539   2.318   6.569  0.5013 -0.3668 -0.5161
   80MOL0     C10667   7.534   2.197   6.579 -0.6520  0.2480 -0.2157
   80MOL0     O10668   7.421   2.118   6.582 -0.1600 -0.3123 -0.5226
   80MOL0     C10669   7.308   2.173   6.527  1.2199 -0.3479  0.3438
   80MOL0     C10670   7.178   2.124   6.569 -0.5066  0.5606  0.3009
   80MOL0     C10671   7.061   2.173   6.512 -0.0761  0.6205  0.1441
   80MOL0     C10672   7.052   2.269   6.418 -0.9475 -0.8312  0.1551
   80MOL0     O10673   6.934   2.314   6.359  0.1824 -0.0246 -0.2775
   80MOL0     C10674   6.810   2.299   6.435 -0.1283  0.4815  0.0492
   80MOL0     C10675   6.695   2.380   6.376  0.0093 -0.5417 -1.2671
   80MOL0     C10676   6.551   2.357   6.439 -1.5271  0.0617 -0.4899
   80MOL0     C10677   6.452   2.453   6.370 -0.8232 -0.9588  0.5584
   80MOL0     C10678   6.310   2.422   6.418 -0.0942 -0.0584  0.0174
   80MOL0     C10679   6.190   2.480   6.339  0.1746 -0.2954 -1.0639
   80MOL0     C10680   6.056   2.504   6.412 -0.7013  0.3269 -0.2742
   80MOL0     C10681   5.978   2.376   6.431  0.2531  0.6160 -0.1986
   80MOL0     N10682   5.839   2.397   6.425 -0.4603 -0.0863 -0.9575
   80MOL0     C10683   5.757   2.379   6.538 -0.2553 -0.1162 -0.2438
   80MOL0     C10684   5.640   2.435   6.491 -0.5017 -0.1674 -0.4270
   80MOL0     C10685   5.527   2.452   6.591 -0.2756 -0.7190  0.4801
   80MOL0     C10686   5.389   2.473   6.541  0.4707  0.2354 -0.2542
   80MOL0     C10687   5.308   2.344   6.522 -0.1337  1.0637  0.2097
   80MOL0     C10688   5.160   2.362   6.511 -0.0970  0.7338  0.2937
   80MOL0     O10689   5.115   2.457   6.418 -0.8851 -0.1549  0.6769
   80MOL0     C10690   4.970   2.476   6.405 -0.5175 -1.0664  0.4333
   80MOL0     C10691   4.865   2.427   6.487 -0.2431 -0.5424 -1.1967
   80MOL0     C10692   4.729   2.447   6.464  0.6735  0.6785 -1.4471
   80MOL0     C10693   4.635   2.382   6.564 -0.0536 -0.2120  0.8913
   80MOL0     C10694   4.688   2.535   6.364  0.6157 -0.6037  0.1536
   80MOL0     C10695   4.544   2.567   6.337 -0.2498 -0.7959 -0.4642
   80MOL0     O10696   4.532   2.686   6.285  0.3183 -0.1550 -0.1654
   80MOL0     C10697   4.400   2.727   6.263  0.1858  0.7043 -0.2097
   80MOL0     C10698   4.310   2.677   6.158  0.2495 -0.5876 -0.2531
   80MOL0     C10699   4.184   2.723   6.142 -0.5332 -0.8011  0.2037
   80MOL0     C10700   4.137   2.825   6.224 -0.1074  0.0912 -0.1025
   80MOL0     O10701   4.006   2.838   6.211  0.3053  0.0296  0.1647
   80MOL0     C10702   3.942   2.959   6.235  0.4701  0.2214 -0.4848
   80MOL0     C10703   3.810   2.961   6.159 -0.7558  0.1123  0.0023
   80MOL0     C10704   3.688   2.915   6.244  0.0268  0.3221 -0.1739
   80MOL0     C10705   3.550   2.895   6.169 -0.2264 -0.5972 -1.1147
   80MOL0     C10706   3.439   2.838   6.258  0.6450 -0.4851  0.3792
   80MOL0     C10707   3.304   2.866   6.190  0.1386 -0.2733 -0.2791
   80MOL0     C10708   3.186   2.856   6.286 -0.1873  0.4153  0.4984
   80MOL0     C10709   3.055   2.868   6.208  0.2696  0.5404  0.1276
   80MOL0    Cl10710   2.917   2.856   6.329  0.1457  0.0120  0.4110
   80MOL0     C10711   4.224   2.880   6.322  0.1600  0.3728  0.0989
   80MOL0     C10712   4.348   2.834   6.339  0.2982  0.0325  0.7943
   80MOL0     O10713   4.454   2.498   6.369  0.7272  0.1376 -0.0447
   80MOL0     C10714   4.794   2.590   6.285 -0.0439 -0.5775 -0.4144
   80MOL0     C10715   4.930   2.562   6.310 -0.1769  0.0629  0.1840
   80MOL0     N10716   5.654   2.474   6.359 -0.3788 -0.7782  0.1296
   80MOL0     N10717   5.771   2.430   6.317 -0.0454  0.3874  0.4885
   80MOL0     C10718   7.179   2.312   6.366 -0.3483  0.4535 -0.1965
   80MOL0     C10719   7.299   2.269   6.427  0.2228  0.1518  1.2244
   80MOL0     C10720   7.661   2.136   6.602  0.1523  0.5600  0.1269
   80MOL0     C10721   7.668   2.001   6.648 -0.0013 -0.1146  0.6024
   80MOL0     C10722   7.787   1.939   6.683 -0.3042  0.4802  0.1611
   80MOL0     C10723   7.913   2.005   6.658  0.4977  0.3137 -0.3747
   80MOL0     O10724   8.026   1.931   6.688 -0.0908 -0.0108  0.2700
   80MOL0     C10725   8.154   1.957   6.625 -0.2406 -0.3560 -0.3408
   80MOL0     C10726   8.250   2.019   6.730 -0.1905 -0.3459  0.2984
   80MOL0     C10727   8.375   2.077   6.647 -0.3698 -0.9857  1.5380
   80MOL0     C10728   8.472   1.971   6.602 -0.0137  0.1245 -0.2718
   80MOL0     C10729   8.603   2.020   6.559 -0.0981  0.6509  0.0032
   80MOL0     C10730   8.711   2.057   6.521  0.0733  0.0827  0.0832
   80MOL0     C10731   7.910   2.133   6.603  0.1873 -0.1904 -0.3325
   80MOL0     C10732   7.785   2.197   6.576  0.1003 -0.2105 -0.1914
   80MOL0     H10733   7.175   2.047   6.646 -3.2126 -0.9732 -1.2226
   80MOL0     H10734   6.966   2.135   6.548 -0.0821 -0.1757 -0.6782
   80MOL0     H10735   6.793   2.191   6.423  1.5383  0.1085  0.7311
   80MOL0     H10736   6.833   2.324   6.539  2.1309 -0.0731 -0.2682
   80MOL0     H10737   6.720   2.485   6.395 -1.4325 -0.5401  0.9463
   80MOL0     H10738   6.690   2.361   6.268 -0.5850 -2.7360 -0.8964
   80MOL0     H10739   6.523   2.254   6.416  0.0844 -0.5106 -0.0710
   80MOL0     H10740   6.566   2.366   6.547 -2.1943  0.5475 -0.4323
   80MOL0     H10741   6.479   2.557   6.392 -1.8480 -1.1144  2.9399
   80MOL0     H10742   6.469   2.438   6.263  0.6883 -1.2601  0.8267
   80MOL0     H10743   6.303   2.314   6.401 -0.4379  0.3025 -2.4702
   80MOL0     H10744   6.290   2.438   6.525 -0.0821 -1.1630  0.2010
   80MOL0     H10745   6.219   2.582   6.314  0.7580 -0.4289 -0.9487
   80MOL0     H10746   6.178   2.436   6.240 -3.4166  0.5496 -1.1095
   80MOL0     H10747   6.083   2.564   6.499  4.6865  1.5613 -2.3837
   80MOL0     H10748   6.008   2.564   6.335 -0.6725 -1.3452 -1.6684
   80MOL0     H10749   6.016   2.321   6.517  1.5730 -1.2588 -1.8797
   80MOL0     H10750   5.996   2.307   6.348  1.3529 -2.3493  2.3286
   80MOL0     H10751   5.767   2.343   6.640 -1.9313 -0.7450 -0.2643
   80MOL0     H10752   5.530   2.366   6.658  2.2988 -1.0169  0.0693
   80MOL0     H10753   5.562   2.538   6.650 -1.3179  0.3722 -0.4494
   80MOL0     H10754   5.379   2.536   6.452 -3.5141  0.8722  0.4433
   80MOL0     H10755   5.354   2.530   6.627  1.7483 -0.9582  1.1064
   80MOL0     H10756   5.325   2.271   6.600 -1.3099 -0.3354 -0.7849
   80MOL0     H10757   5.340   2.300   6.427 -2.3384  0.5580 -0.3598
   80MOL0     H10758   5.121   2.394   6.608  0.3261  1.9937  0.0695
   80MOL0     H10759   5.115   2.269   6.474  2.0762 -0.3174  0.1288
   80MOL0     H10760   4.912   2.368   6.565  0.7947  0.3585 -1.1210
   80MOL0     H10761   4.689   2.299   6.612  2.2213 -0.8195 -2.3255
   80MOL0     H10762   4.603   2.460   6.633 -0.0034  0.8828 -0.2967
   80MOL0     H10763   4.551   2.329   6.518  0.6891 -1.2889  0.7399
   80MOL0     H10764   4.350   2.603   6.090 -0.7401 -0.7525 -0.6769
   80MOL0     H10765   4.120   2.682   6.064  0.4182 -2.1152  0.0760
   80MOL0     H10766   3.928   2.972   6.343  0.3225 -0.0035 -0.4752
   80MOL0     H10767   4.008   3.039   6.201  0.3596  0.1400 -0.8996
   80MOL0     H10768   3.785   3.064   6.134  2.9756  0.9576 -0.8560
   80MOL0     H10769   3.813   2.891   6.074 -0.1085 -1.1888  1.0516
   80MOL0     H10770   3.675   2.963   6.341 -3.1857 -0.5096 -0.0479
   80MOL0     H10771   3.708   2.814   6.281  2.7462  1.5628  2.1356
   80MOL0     H10772   3.527   2.994   6.128 -1.7337  0.4019  1.8655
   80MOL0     H10773   3.581   2.824   6.092  1.3773 -1.1504  0.0018
   80MOL0     H10774   3.438   2.888   6.355  1.0099  0.4252 -0.0753
   80MOL0     H10775   3.454   2.733   6.283  1.0703  0.0325  2.4921
   80MOL0     H10776   3.306   2.962   6.138  1.7677 -0.9911 -1.6520
   80MOL0     H10777   3.287   2.793   6.110  0.4963  2.2201 -2.7838
   80MOL0     H10778   3.187   2.938   6.359 -0.3977 -0.0256  0.9997
   80MOL0     H10779   3.189   2.766   6.348 -0.9412  1.4069  2.0495
   80MOL0     H10780   3.048   2.787   6.135  1.2884  2.3567 -2.1176
   80MOL0     H10781   3.047   2.959   6.147 -1.5809  0.0256 -0.4738
   80MOL0     H10782   4.172   2.947   6.390 -0.5242  1.3893 -1.3672
   80MOL0     H10783   4.386   2.877   6.431 -0.4723  1.7995  0.3408
   80MOL0     H10784   4.777   2.660   6.204  3.0818  0.8636  0.0328
   80MOL0     H10785   5.003   2.613   6.247 -1.2934  0.7344 -0.6157
   80MOL0     H10786   7.184   2.376   6.278  0.6316  0.2293 -0.3124
   80MOL0     H10787   7.391   2.298   6.377  0.7021 -3.0261  0.0291
   80MOL0     H10788   7.575   1.945   6.654 -2.0469  2.7957 -1.0053
   80MOL0     H10789   7.798   1.837   6.720 -2.8079 -2.4211 -5.6949
   80MOL0     H10790   8.194   1.864   6.583 -0.7510 -0.5259 -0.4505
   80MOL0     H10791   8.146   2.031   6.545  1.2120 -0.3643 -0.5267
   80MOL0     H10792   8.280   1.940   6.800 -1.2665  0.0823  1.2737
   80MOL0     H10793   8.202   2.098   6.787  0.5981  0.7301 -0.4843
   80MOL0     H10794   8.425   2.153   6.708 -0.3396  1.8829 -1.7127
   80MOL0     H10795   8.337   2.137   6.564 -1.2068  0.6512  3.0298
   80MOL0     H10796   8.428   1.918   6.516  0.2351 -1.1409  0.3688
   80MOL0     H10797   8.470   1.894   6.678  0.9920  0.1871 -0.1752
   80MOL0     H10798   8.810   2.095   6.507  0.9333 -2.0598  0.0707
   80MOL0     H10799   8.003   2.184   6.579 -0.1794 -0.5090 -2.6340
   80MOL0     H10800   7.781   2.299   6.538 -1.7822 -0.0727  0.2891
   81MOL0     O10801   7.357   7.611   4.671 -0.6506  0.5631 -0.1698
   81MOL0     C10802   7.364   7.647   4.787 -0.2879 -0.2371  0.4111
   81MOL0     O10803   7.259   7.692   4.867 -0.6707  0.2591  0.4482
   81MOL0     C10804   7.131   7.661   4.833  0.1412  0.1739 -0.3484
   81MOL0     C10805   7.048   7.695   4.940 -0.1543 -0.9556  0.0222
   81MOL0     C10806   6.913   7.658   4.941 -0.1664  0.6259  0.7305
   81MOL0     C10807   6.857   7.597   4.832  1.5805 -0.3753 -0.0125
   81MOL0     O10808   6.721   7.560   4.828  0.3613 -0.3515 -0.0081
   81MOL0     C10809   6.654   7.572   4.708 -0.5873 -0.0343  0.6993
   81MOL0     C10810   6.520   7.629   4.733 -0.0315  0.4557 -0.3797
   81MOL0     C10811   6.438   7.622   4.612  0.6447  0.4465 -0.8243
   81MOL0     C10812   6.295   7.680   4.638  0.5704  0.2137  0.0341
   81MOL0     C10813   6.204   7.675   4.507 -1.2643  0.4599 -0.7556
   81MOL0     C10814   6.065   7.741   4.530  0.3385 -0.9861 -0.0277
   81MOL0     C10815   5.971   7.665   4.631  0.8249  0.2882 -1.0126
   81MOL0     C10816   5.836   7.734   4.659  0.8518  0.3451  0.1987
   81MOL0     N10817   5.877   7.869   4.701  0.4475 -0.1930 -0.7460
   81MOL0     C10818   5.966   7.904   4.796 -0.6445 -0.6584  0.2510
   81MOL0     C10819   5.993   8.038   4.776 -0.2451  0.4609 -0.2607
   81MOL0     C10820   6.090   8.124   4.848  0.6131  0.3838  1.1685
   81MOL0     C10821   6.029   8.183   4.979  0.2164 -0.1700  0.6709
   81MOL0     C10822   5.883   8.213   4.959  0.3455  0.3062 -0.6090
   81MOL0     C10823   5.823   8.277   5.077 -0.6301 -0.6379 -0.1296
   81MOL0     O10824   5.810   8.172   5.173  0.2715  0.0837 -0.6746
   81MOL0     C10825   5.681   8.165   5.231  0.4314 -0.2136  0.0711
   81MOL0     C10826   5.613   8.272   5.287 -0.0400  0.0202  0.3920
   81MOL0     C10827   5.483   8.271   5.335  0.5405 -0.0794 -0.3508
   81MOL0     C10828   5.436   8.392   5.411  0.2247  0.5911 -0.2831
   81MOL0     C10829   5.413   8.147   5.323  0.2929 -0.2985  0.3262
   81MOL0     C10830   5.268   8.124   5.350  0.0178 -0.3147  0.4397
   81MOL0     O10831   5.215   7.996   5.333 -0.2762  0.0819  0.3868
   81MOL0     C10832   5.079   7.984   5.352 -0.0552 -0.1313 -0.0407
   81MOL0     C10833   4.991   8.059   5.277  0.0726 -0.0191 -0.2243
   81MOL0     C10834   4.851   8.024   5.286 -0.4111 -0.6411 -0.3266
   81MOL0     C10835   4.808   7.924   5.374  0.3753 -0.2762 -0.8582
   81MOL0     O10836   4.665   7.921   5.379 -0.5197 -0.1723  0.0614
   81MOL0     C10837   4.612   7.824   5.466 -0.2388 -0.5882 -0.3082
   81MOL0     C10838   4.460   7.821   5.462 -0.4215  0.3560  0.5333
   81MOL0     C10839   4.406   7.693   5.536  0.1235 -0.0857 -0.0491
   81MOL0     C10840   4.256   7.696   5.565  0.7824 -0.3777 -0.5045
   81MOL0     C10841   4.211   7.592   5.670 -0.8508 -0.6146  0.3095
   81MOL0     C10842   4.288   7.593   5.808 -0.0497  0.1230  0.1893
   81MOL0     C10843   4.286   7.729   5.888  0.2195  0.6206  0.5479
   81MOL0     C10844   4.195   7.705   6.016  0.1126  0.1065 -0.3418
   81MOL0    Cl10845   4.285   7.581   6.114  0.1627  0.1359  0.5491
   81MOL0     C10846   4.896   7.857   5.457  0.1890 -0.1309  0.0154
   81MOL0     C10847   5.034   7.884   5.436 -0.4205 -0.2645  0.6342
   81MOL0     O10848   5.204   8.222   5.391  0.4298  0.3429  0.4503
   81MOL0     C10849   5.485   8.035   5.279 -0.3806 -0.2027  0.0057
   81MOL0     C10850   5.621   8.044   5.247 -0.4317 -0.3115  0.2729
   81MOL0     N10851   5.922   8.072   4.659  0.1963 -0.0127  0.5616
   81MOL0     N10852   5.850   7.977   4.621 -0.6854 -0.8232 -0.2122
   81MOL0     C10853   6.938   7.567   4.720  0.1087 -0.1124 -1.3004
   81MOL0     C10854   7.073   7.588   4.723 -0.4894  0.1632 -0.7623
   81MOL0     C10855   7.498   7.634   4.851  0.8683 -0.0700  0.9044
   81MOL0     C10856   7.517   7.679   4.979  0.3592 -0.9989  0.3839
   81MOL0     C10857   7.639   7.675   5.036 -0.7806  0.3265 -0.2440
   81MOL0     C10858   7.750   7.611   4.987 -0.8533  0.0273  0.3667
   81MOL0     O10859   7.865   7.603   5.062  0.3158 -0.0186  0.1232
   81MOL0     C10860   7.990   7.617   4.991 -0.0375 -0.0978  0.3449
   81MOL0     C10861   8.059   7.489   4.950 -0.0505  0.5584 -0.1568
   81MOL0     C10862   8.087   7.399   5.077  0.7353 -0.9219  0.6140
   81MOL0     C10863   8.172   7.285   5.041 -0.2213 -0.4217 -0.3967
   81MOL0     C10864   8.318   7.326   5.022 -0.0699 -0.9699  0.4035
   81MOL0     C10865   8.433   7.322   5.013 -0.5666 -0.8320 -0.1015
   81MOL0     C10866   7.730   7.568   4.852 -0.6719 -0.1872  0.2956
   81MOL0     C10867   7.612   7.582   4.778  0.3498  0.4221 -0.9965
   81MOL0     H10868   7.094   7.757   5.017  0.4061  0.1935 -1.1771
   81MOL0     H10869   6.852   7.677   5.029  1.2651 -0.1075  1.9173
   81MOL0     H10870   6.711   7.644   4.648 -1.7986  0.7337  0.4564
   81MOL0     H10871   6.662   7.473   4.663  0.0795 -0.9019  2.6299
   81MOL0     H10872   6.466   7.581   4.816  1.6660  3.2002  2.5380
   81MOL0     H10873   6.533   7.732   4.766  3.6867  0.0528 -0.2166
   81MOL0     H10874   6.482   7.678   4.530  1.5560  0.9399 -0.0220
   81MOL0     H10875   6.419   7.516   4.590  0.9353  0.3243 -0.4965
   81MOL0     H10876   6.235   7.642   4.721 -2.0132  1.3695 -1.2215
   81MOL0     H10877   6.318   7.783   4.665 -1.1815  0.2463  1.5646
   81MOL0     H10878   6.252   7.737   4.431  2.4589  1.4595  2.1120
   81MOL0     H10879   6.188   7.571   4.474  1.4163 -0.2436 -0.0949
   81MOL0     H10880   6.085   7.844   4.560 -1.1297 -0.3251 -1.1859
   81MOL0     H10881   6.013   7.753   4.435  3.4534 -1.5264 -1.9217
   81MOL0     H10882   5.959   7.558   4.608 -3.2253  0.6143 -1.1971
   81MOL0     H10883   6.021   7.647   4.727  2.2580  0.3746 -1.7206
   81MOL0     H10884   5.784   7.674   4.734  0.2772 -2.7823 -2.4608
   81MOL0     H10885   5.770   7.727   4.572  0.9268 -1.9021  0.2587
   81MOL0     H10886   6.009   7.845   4.876 -1.1100 -0.9031  0.3205
   81MOL0     H10887   6.183   8.074   4.876 -0.5912 -1.5593  1.9646
   81MOL0     H10888   6.121   8.206   4.783 -1.7416  0.6932  0.3571
   81MOL0     H10889   6.089   8.273   4.998 -1.0353  1.1458 -1.2495
   81MOL0     H10890   6.028   8.111   5.062  2.7125 -3.2437 -1.7220
   81MOL0     H10891   5.832   8.119   4.936 -1.4467  1.1731 -0.3380
   81MOL0     H10892   5.865   8.281   4.874  1.2821 -0.2352 -1.2536
   81MOL0     H10893   5.728   8.324   5.051 -1.6059 -1.1099  2.2831
   81MOL0     H10894   5.897   8.352   5.108  0.2156 -1.3265 -0.4531
   81MOL0     H10895   5.664   8.367   5.285  2.0184 -1.0364 -1.6127
   81MOL0     H10896   5.516   8.455   5.453  2.8313  0.6526 -4.6717
   81MOL0     H10897   5.377   8.451   5.340 -0.0160 -2.1968 -2.5514
   81MOL0     H10898   5.366   8.360   5.489 -1.2815  1.3909 -1.2492
   81MOL0     H10899   5.018   8.143   5.213 -0.5961  0.7797  0.5023
   81MOL0     H10900   4.775   8.083   5.235 -0.1688  0.8803  0.9979
   81MOL0     H10901   4.638   7.724   5.431  0.5301 -0.0923 -1.1881
   81MOL0     H10902   4.637   7.851   5.569  1.4938 -0.7558 -0.6616
   81MOL0     H10903   4.428   7.903   5.526 -2.3145 -0.8823  1.2728
   81MOL0     H10904   4.425   7.829   5.359 -0.2706  0.8863  0.5227
   81MOL0     H10905   4.461   7.683   5.630 -0.6191  1.6171  0.6046
   81MOL0     H10906   4.434   7.609   5.472  3.7091  1.2464 -0.5154
   81MOL0     H10907   4.226   7.800   5.584  2.4311  1.3529 -5.5292
   81MOL0     H10908   4.208   7.671   5.470  0.3430 -1.0964 -0.0993
   81MOL0     H10909   4.196   7.489   5.637 -1.9606 -0.2993 -0.2167
   81MOL0     H10910   4.107   7.619   5.692 -1.4864 -0.9549 -2.0253
   81MOL0     H10911   4.233   7.519   5.868 -2.2689 -0.6026 -2.5125
   81MOL0     H10912   4.389   7.553   5.796 -0.7949 -1.2565 -2.1224
   81MOL0     H10913   4.244   7.807   5.824 -1.7832  0.0265  1.0557
   81MOL0     H10914   4.388   7.762   5.910  0.9893 -0.7475 -0.7471
   81MOL0     H10915   4.088   7.691   6.001 -0.2628  1.6842  0.5970
   81MOL0     H10916   4.199   7.804   6.061  1.8683 -0.5300  1.0356
   81MOL0     H10917   4.878   7.779   5.530  0.5394 -0.7694 -0.5707
   81MOL0     H10918   5.104   7.822   5.491  0.3191  1.1819  1.3925
   81MOL0     H10919   5.433   7.939   5.278 -0.1856 -0.3099 -0.8285
   81MOL0     H10920   5.670   7.949   5.229 -0.1299  0.3202 -2.9517
   81MOL0     H10921   6.893   7.513   4.637 -2.4555  1.1728 -0.8514
   81MOL0     H10922   7.128   7.547   4.638  1.6834 -0.1836  0.7194
   81MOL0     H10923   7.436   7.731   5.029  1.1029 -1.5816  2.2719
   81MOL0     H10924   7.650   7.716   5.136 -0.8269 -0.1785 -0.0295
   81MOL0     H10925   7.978   7.685   4.906 -0.1125 -0.8006 -0.2260
   81MOL0     H10926   8.062   7.674   5.051 -0.0360 -0.3497  0.5853
   81MOL0     H10927   8.154   7.501   4.895 -0.1698 -0.7691 -0.6978
   81MOL0     H10928   7.991   7.430   4.888  0.6476 -2.3491  1.6535
   81MOL0     H10929   7.994   7.367   5.125  0.8906 -2.2837  0.0395
   81MOL0     H10930   8.123   7.465   5.157 -4.6140  2.6090  0.6610
   81MOL0     H10931   8.134   7.236   4.951 -0.6666 -1.7239  0.4756
   81MOL0     H10932   8.161   7.210   5.119 -1.1878  1.2559  1.1744
   81MOL0     H10933   8.537   7.312   4.987 -0.9343 -0.5068 -1.8819
   81MOL0     H10934   7.815   7.538   4.791 -0.3857  3.7127 -1.5109
   81MOL0     H10935   7.599   7.545   4.677  1.2240  1.0822 -1.3647
   82MOL0     O10936   6.375   1.898   9.217 -0.3300 -0.9770 -0.0914
   82MOL0     C10937   6.473   1.917   9.283 -0.1873  0.5034 -0.2780
   82MOL0     O10938   6.503   2.033   9.335  0.6295  0.0220 -1.0301
   82MOL0     C10939   6.406   2.131   9.344  0.4286 -0.2241 -0.6708
   82MOL0     C10940   6.393   2.235   9.258  0.4300  0.4430  0.3163
   82MOL0     C10941   6.290   2.333   9.276 -0.0829 -0.6963 -0.9437
   82MOL0     C10942   6.213   2.338   9.398  0.1649 -1.2488  0.4688
   82MOL0     O10943   6.102   2.425   9.423  0.1785  0.2736  0.2371
   82MOL0     C10944   6.086   2.548   9.340  0.2491 -0.3520  0.2354
   82MOL0     C10945   5.936   2.590   9.316 -0.4669  0.7401  0.0551
   82MOL0     C10946   5.924   2.714   9.222  0.0172  0.3902 -0.4717
   82MOL0     C10947   5.779   2.773   9.230 -0.1551  0.6107  0.3760
   82MOL0     C10948   5.765   2.858   9.107  0.5580 -0.1764  0.8211
   82MOL0     C10949   5.639   2.949   9.130 -0.2018  0.0731 -0.1781
   82MOL0     C10950   5.648   3.063   9.024 -0.7868 -0.0797  0.1335
   82MOL0     C10951   5.530   3.161   9.034 -1.0282 -0.0027 -0.0725
   82MOL0     N10952   5.417   3.132   8.950  0.1862 -0.8445  1.0061
   82MOL0     C10953   5.287   3.180   8.966 -0.4129  0.2529 -0.3914
   82MOL0     C10954   5.244   3.208   8.843 -0.4193 -0.2701  0.5757
   82MOL0     C10955   5.112   3.273   8.812  0.6407  0.4680 -0.3954
   82MOL0     C10956   5.029   3.198   8.713 -0.4533 -1.1351 -0.5699
   82MOL0     C10957   4.906   3.292   8.660  0.3925  0.1137 -0.4552
   82MOL0     C10958   4.823   3.225   8.562 -0.6860 -0.7890  0.7035
   82MOL0     O10959   4.707   3.306   8.527 -0.1098  0.1614 -0.0856
   82MOL0     C10960   4.612   3.255   8.438  0.0676 -0.2322  0.4706
   82MOL0     C10961   4.633   3.177   8.330 -0.1848  1.1758  0.3386
   82MOL0     C10962   4.527   3.128   8.250  0.9357  0.7834 -0.0738
   82MOL0     C10963   4.556   3.034   8.138 -0.4426 -0.7514 -0.8354
   82MOL0     C10964   4.393   3.179   8.274 -0.1975  0.0402 -0.1604
   82MOL0     C10965   4.274   3.162   8.192 -0.0460 -0.3490 -0.4966
   82MOL0     O10966   4.174   3.256   8.216 -0.0234  0.0417 -0.3627
   82MOL0     C10967   4.060   3.240   8.145  0.1332  0.1365 -0.1013
   82MOL0     C10968   3.945   3.204   8.217  0.6098 -0.2305 -0.4671
   82MOL0     C10969   3.825   3.184   8.152 -0.3501  0.0685 -0.0801
   82MOL0     C10970   3.819   3.200   8.014 -0.9241 -0.4322 -0.6281
   82MOL0     O10971   3.704   3.165   7.948 -0.4025 -0.0842  0.4989
   82MOL0     C10972   3.715   3.133   7.808 -0.0386  0.2739  0.3819
   82MOL0     C10973   3.568   3.116   7.755  0.3188 -0.4137 -0.1864
   82MOL0     C10974   3.524   2.975   7.737  0.1997  0.6657 -0.0887
   82MOL0     C10975   3.379   2.974   7.684  0.0612 -0.4062 -0.0885
   82MOL0     C10976   3.314   2.832   7.673 -0.2391 -0.4121  0.0451
   82MOL0     C10977   3.179   2.822   7.609 -0.8747  0.2531 -0.5607
   82MOL0     C10978   3.184   2.852   7.465  0.5708 -0.1642 -0.1363
   82MOL0     C10979   3.053   2.844   7.404 -0.4018  0.0653  0.8027
   82MOL0    Cl10980   3.064   2.908   7.233 -0.3484  0.0818  0.2958
   82MOL0     C10981   3.933   3.246   7.948  0.0511  0.5361  0.3854
   82MOL0     C10982   4.054   3.266   8.006  0.4969  0.7490 -0.0276
   82MOL0     O10983   4.276   3.086   8.102 -0.3195 -0.3720 -0.2567
   82MOL0     C10984   4.383   3.269   8.383 -0.4359 -0.2578  0.0454
   82MOL0     C10985   4.487   3.306   8.465 -2.1847  0.0489  0.4464
   82MOL0     N10986   5.344   3.163   8.747  0.9952 -0.5280 -0.2934
   82MOL0     N10987   5.442   3.127   8.821 -0.0361  0.1359  1.1407
   82MOL0     C10988   6.225   2.230   9.486  0.2351 -0.3746 -0.2147
   82MOL0     C10989   6.321   2.124   9.457  0.3229  0.0418  0.5221
   82MOL0     C10990   6.578   1.815   9.286  0.3950  0.5024  0.0997
   82MOL0     C10991   6.705   1.829   9.346 -0.3215  0.1099  0.2080
   82MOL0     C10992   6.792   1.716   9.366  0.6874  0.7025  0.3060
   82MOL0     C10993   6.780   1.601   9.293  0.0853  0.2233 -0.5960
   82MOL0     O10994   6.880   1.515   9.300  0.6064 -0.2062  0.4328
   82MOL0     C10995   6.892   1.425   9.186 -0.0924 -0.8731 -0.0533
   82MOL0     C10996   7.034   1.377   9.161 -0.1562  0.2511 -1.2842
   82MOL0     C10997   7.128   1.474   9.097  0.4325  0.6000 -0.1613
   82MOL0     C10998   7.274   1.430   9.108  1.0117  0.1893 -0.4355
   82MOL0     C10999   7.348   1.527   9.022  0.4750 -0.6987  0.5026
   82MOL0     C11000   7.418   1.598   8.944  0.6330  0.2126 -0.0443
   82MOL0     C11001   6.652   1.583   9.238 -0.8901  0.5280  0.3231
   82MOL0     C11002   6.554   1.684   9.239  0.2190  0.1602 -0.5300
   82MOL0     H11003   6.454   2.232   9.169 -1.9137  0.4761 -1.3810
   82MOL0     H11004   6.287   2.417   9.207  0.6167 -0.1336 -0.3093
   82MOL0     H11005   6.140   2.634   9.380 -1.8374  0.8249  0.6711
   82MOL0     H11006   6.132   2.542   9.241 -1.3599 -0.6613 -0.5430
   82MOL0     H11007   5.884   2.509   9.265 -2.0780  2.6140 -1.4427
   82MOL0     H11008   5.899   2.605   9.418 -0.5352 -0.3153  0.1952
   82MOL0     H11009   5.988   2.796   9.255  2.1477 -1.7888  1.2274
   82MOL0     H11010   5.951   2.689   9.119 -1.3248  0.7052 -0.9153
   82MOL0     H11011   5.705   2.693   9.225  0.7316 -0.1949 -0.0336
   82MOL0     H11012   5.763   2.835   9.319  1.2136 -2.9825  3.3982
   82MOL0     H11013   5.855   2.920   9.103  0.3702  0.2381 -5.2611
   82MOL0     H11014   5.765   2.792   9.020 -1.9623 -0.1576  0.7379
   82MOL0     H11015   5.544   2.896   9.134 -0.6533  0.9567  1.2155
   82MOL0     H11016   5.649   3.009   9.221 -1.8952  0.5295 -0.2752
   82MOL0     H11017   5.734   3.122   9.058 -1.5600  2.3330 -1.7763
   82MOL0     H11018   5.670   3.033   8.921 -1.8897  0.0361 -0.1453
   82MOL0     H11019   5.565   3.262   9.008 -1.2576 -0.3296 -1.7213
   82MOL0     H11020   5.489   3.167   9.136 -0.5542 -1.2553  0.2118
   82MOL0     H11021   5.234   3.206   9.057  1.2084  1.0123  0.3753
   82MOL0     H11022   5.061   3.287   8.908  1.2631  2.3231 -0.3009
   82MOL0     H11023   5.135   3.375   8.780  1.4973  0.5284  0.3823
   82MOL0     H11024   4.979   3.113   8.761  0.7495 -1.1150  0.7849
   82MOL0     H11025   5.085   3.158   8.628  0.1043  1.1573 -1.3659
   82MOL0     H11026   4.947   3.383   8.616  3.7883 -1.1590 -0.2269
   82MOL0     H11027   4.844   3.311   8.748  0.9666  0.0006 -0.0206
   82MOL0     H11028   4.785   3.128   8.596 -1.7037 -0.7022 -0.1376
   82MOL0     H11029   4.886   3.216   8.472 -0.7238 -2.4910  0.8003
   82MOL0     H11030   4.733   3.145   8.302 -1.2432 -0.8908 -1.4183
   82MOL0     H11031   4.568   3.093   8.047 -0.9943  0.7642  0.0420
   82MOL0     H11032   4.653   2.984   8.152 -0.6109 -1.1323 -1.0104
   82MOL0     H11033   4.487   2.950   8.126 -0.4690 -0.6222 -1.6418
   82MOL0     H11034   3.952   3.196   8.325  1.2511  0.2818 -0.4617
   82MOL0     H11035   3.733   3.157   8.203 -0.1511 -1.5372 -0.5446
   82MOL0     H11036   3.749   3.225   7.759 -2.5701  0.7893 -0.5519
   82MOL0     H11037   3.786   3.062   7.766 -0.4553  1.5096 -2.7057
   82MOL0     H11038   3.508   3.169   7.830 -1.0996 -0.9336 -0.9218
   82MOL0     H11039   3.556   3.159   7.656  0.6623  1.2607  0.4579
   82MOL0     H11040   3.518   2.932   7.837 -3.5088 -2.1664 -1.2874
   82MOL0     H11041   3.588   2.926   7.663  4.4351  2.6122  1.9478
   82MOL0     H11042   3.317   3.032   7.752 -1.8970 -1.9245 -0.4685
   82MOL0     H11043   3.384   3.021   7.585  0.0516 -2.9028 -1.3718
   82MOL0     H11044   3.313   2.799   7.777 -0.1256 -0.7699 -0.0665
   82MOL0     H11045   3.384   2.770   7.617  0.3261 -1.0053  1.3678
   82MOL0     H11046   3.149   2.718   7.626  1.8810 -0.5567 -0.2340
   82MOL0     H11047   3.108   2.887   7.663 -2.3402 -1.4743 -0.2969
   82MOL0     H11048   3.259   2.790   7.416  1.2833 -1.0085  1.9023
   82MOL0     H11049   3.217   2.956   7.463 -0.5277  0.2088  0.1462
   82MOL0     H11050   2.980   2.906   7.458 -0.6540 -0.0066  0.5498
   82MOL0     H11051   3.010   2.744   7.410 -0.1138  0.0374  3.2981
   82MOL0     H11052   3.932   3.271   7.843 -0.6339 -0.8671  0.0447
   82MOL0     H11053   4.144   3.298   7.955  0.9076 -2.4216 -1.5591
   82MOL0     H11054   4.288   3.320   8.397  0.8236  1.6460  2.4584
   82MOL0     H11055   4.456   3.379   8.539 -2.0960 -0.2983  0.8357
   82MOL0     H11056   6.174   2.215   9.581 -1.1144  0.2588 -0.8028
   82MOL0     H11057   6.321   2.039   9.523 -2.8833  0.5625  1.3644
   82MOL0     H11058   6.730   1.927   9.386  0.4283  0.2681 -0.6151
   82MOL0     H11059   6.881   1.735   9.425  1.8529  3.8695 -2.1937
   82MOL0     H11060   6.834   1.335   9.209 -2.1351  1.0046  2.7752
   82MOL0     H11061   6.860   1.465   9.088 -0.5466 -2.1996 -0.4690
   82MOL0     H11062   7.015   1.301   9.085  0.5372 -0.2290 -0.9833
   82MOL0     H11063   7.074   1.325   9.248 -3.1432  1.5022  1.0301
   82MOL0     H11064   7.128   1.570   9.149  0.6562  0.2944  0.4154
   82MOL0     H11065   7.091   1.475   8.994  2.1743 -0.8083 -0.8346
   82MOL0     H11066   7.289   1.332   9.062 -1.0711 -0.4949  0.2244
   82MOL0     H11067   7.297   1.432   9.215  1.7108  2.2180 -0.5847
   82MOL0     H11068   7.467   1.668   8.880 -0.7785  0.5466 -0.7946
   82MOL0     H11069   6.629   1.488   9.191  2.1759 -1.5673  2.6482
   82MOL0     H11070   6.460   1.662   9.190 -0.0391  0.5726 -0.2288
   83MOL0     O11071   6.798   2.952  10.699  0.3449  0.0970 -0.3350
   83MOL0     C11072   6.811   2.831  10.694 -0.5157 -0.0613  1.3045
   83MOL0     O11073   6.709   2.739  10.678 -0.8695 -0.4912  0.8339
   83MOL0     C11074   6.584   2.797  10.705  0.6491 -0.1033 -0.1276
   83MOL0     C11075   6.500   2.751  10.806  0.1416  0.5272 -1.1952
   83MOL0     C11076   6.380   2.820  10.846 -0.4648 -0.3729 -0.2595
   83MOL0     C11077   6.337   2.927  10.768  0.4433 -0.4158  0.2088
   83MOL0     O11078   6.210   2.995  10.782 -1.1181 -0.3361  1.0098
   83MOL0     C11079   6.106   2.933  10.853 -0.5627  1.0888 -0.5398
   83MOL0     C11080   5.978   2.961  10.770  0.2373 -0.2618 -0.3394
   83MOL0     C11081   5.927   3.105  10.770  0.0450 -0.4671  0.8035
   83MOL0     C11082   5.797   3.123  10.684  0.5982  0.2375  0.1291
   83MOL0     C11083   5.725   3.252  10.723  0.2110 -0.3768 -0.3053
   83MOL0     C11084   5.589   3.284  10.648 -0.7183  0.7036 -0.0328
   83MOL0     C11085   5.467   3.197  10.683 -0.4617  0.0465 -0.3092
   83MOL0     C11086   5.341   3.231  10.602 -0.2839 -0.3810 -0.3832
   83MOL0     N11087   5.247   3.124  10.590  0.3230 -0.1832 -0.0553
   83MOL0     C11088   5.262   3.018  10.505  0.5469  0.1352  0.8573
   83MOL0     C11089   5.137   2.953  10.496  0.1342  0.6822 -0.8119
   83MOL0     C11090   5.098   2.820  10.430  0.6813 -0.7851 -0.1455
   83MOL0     C11091   4.949   2.810  10.397  0.0908 -0.3910  0.5361
   83MOL0     C11092   4.916   2.921  10.309 -0.1201 -0.5484  0.7439
   83MOL0     C11093   4.762   2.920  10.275 -0.3965  0.0878 -0.2621
   83MOL0     O11094   4.706   2.791  10.251  0.1127  0.7775 -0.0275
   83MOL0     C11095   4.578   2.773  10.215  0.0207 -0.6022  0.4939
   83MOL0     C11096   4.524   2.648  10.248 -0.5423  0.5702 -0.0115
   83MOL0     C11097   4.393   2.614  10.227 -0.8524  0.2514  0.1830
   83MOL0     C11098   4.337   2.486  10.289 -0.3066  0.5107  0.0617
   83MOL0     C11099   4.317   2.708  10.140 -0.3717 -0.5986 -0.2302
   83MOL0     C11100   4.169   2.678  10.103  0.0491 -0.5657 -0.1027
   83MOL0     O11101   4.104   2.781  10.047  0.0698 -0.1881  0.2159
   83MOL0     C11102   3.966   2.777  10.015 -1.0551 -0.2823 -0.8912
   83MOL0     C11103   3.900   2.672   9.956  0.3817  0.2628  0.3937
   83MOL0     C11104   3.757   2.680   9.936 -1.1963  0.1688  0.2760
   83MOL0     C11105   3.688   2.794   9.974 -0.4229 -0.9989  0.4928
   83MOL0     O11106   3.554   2.815   9.975  0.0699  0.1541 -0.0822
   83MOL0     C11107   3.485   2.744  10.078 -0.3498  0.7181  0.3737
   83MOL0     C11108   3.434   2.604  10.045  0.4647  0.3590  0.1891
   83MOL0     C11109   3.355   2.585   9.913 -0.3203 -0.9859 -0.2204
   83MOL0     C11110   3.211   2.619   9.945  0.0326 -0.9686  0.7033
   83MOL0     C11111   3.134   2.608   9.816  0.2899  0.1803  0.3956
   83MOL0     C11112   2.978   2.646   9.834 -0.2352  0.3988  0.5237
   83MOL0     C11113   2.898   2.629   9.708  0.5112 -0.1133 -0.2587
   83MOL0     C11114   2.880   2.479   9.666  0.1424 -0.2281  1.3741
   83MOL0    Cl11115   2.762   2.403   9.782 -0.2202 -0.4385  0.2181
   83MOL0     C11116   3.754   2.902  10.045  0.2395  0.2169  0.0942
   83MOL0     C11117   3.897   2.887  10.066  0.0366  0.0410 -0.0334
   83MOL0     O11118   4.116   2.570  10.121 -0.2610 -0.1329  0.6145
   83MOL0     C11119   4.374   2.834  10.103 -0.3754 -1.0456 -0.0847
   83MOL0     C11120   4.499   2.864  10.146  0.7349  0.3277 -0.4987
   83MOL0     N11121   5.063   3.024  10.585 -0.1196 -0.0124 -0.1475
   83MOL0     N11122   5.121   3.124  10.635 -0.5738 -0.1914  1.0868
   83MOL0     C11123   6.403   2.965  10.648 -0.6315 -0.1339 -0.1560
   83MOL0     C11124   6.523   2.896  10.614 -0.0903  0.1259 -0.7042
   83MOL0     C11125   6.952   2.774  10.666  0.2000 -0.3006 -0.0925
   83MOL0     C11126   6.977   2.642  10.641  0.4447 -0.1641 -0.0968
   83MOL0     C11127   7.110   2.597  10.635 -0.1522  0.4606  0.7956
   83MOL0     C11128   7.217   2.680  10.658  0.4130 -0.4660 -0.5870
   83MOL0     O11129   7.341   2.637  10.650  0.1119 -0.3526  0.3047
   83MOL0     C11130   7.376   2.534  10.745  0.0425 -0.0618 -1.2212
   83MOL0     C11131   7.502   2.574  10.817  0.0015  0.6859  0.0719
   83MOL0     C11132   7.551   2.479  10.917  0.5930  0.5924 -0.2639
   83MOL0     C11133   7.599   2.344  10.856 -0.3241  0.6195  0.3175
   83MOL0     C11134   7.716   2.345  10.775  0.0611  0.6063  0.4343
   83MOL0     C11135   7.822   2.353  10.717 -0.8421  0.0278  0.2627
   83MOL0     C11136   7.197   2.808  10.693  0.2049  0.9180 -0.0023
   83MOL0     C11137   7.063   2.853  10.699 -0.6230 -0.1263  0.2217
   83MOL0     H11138   6.553   2.666  10.849  3.8377  3.3518  0.3786
   83MOL0     H11139   6.327   2.777  10.930  1.9916  0.6090  1.9005
   83MOL0     H11140   6.131   2.827  10.853 -0.9856  0.9869 -0.2888
   83MOL0     H11141   6.078   2.978  10.948 -2.7410  2.9878 -1.9505
   83MOL0     H11142   5.985   2.920  10.669 -0.5125  0.2862 -0.6214
   83MOL0     H11143   5.908   2.910  10.837  0.7328  1.0885  1.2712
   83MOL0     H11144   5.897   3.131  10.872 -4.2370 -1.0727 -0.1214
   83MOL0     H11145   6.008   3.169  10.734  0.5294 -0.1092  2.4353
   83MOL0     H11146   5.804   3.122  10.575 -3.1430 -0.5557 -0.2505
   83MOL0     H11147   5.725   3.042  10.698  0.6487  0.0028 -0.8658
   83MOL0     H11148   5.705   3.244  10.830 -1.9937 -0.2036 -0.6620
   83MOL0     H11149   5.794   3.335  10.703  2.3870 -1.5397  1.8621
   83MOL0     H11150   5.563   3.386  10.679 -0.0586  1.0989 -0.7433
   83MOL0     H11151   5.595   3.286  10.539 -1.5858 -3.2194 -0.3042
   83MOL0     H11152   5.489   3.092  10.660  1.3154 -0.0373  1.4565
   83MOL0     H11153   5.449   3.214  10.790  0.7517  3.3827 -0.5334
   83MOL0     H11154   5.371   3.262  10.502  0.1863  1.4583  0.2882
   83MOL0     H11155   5.297   3.321  10.646  0.7500  0.1798 -0.4716
   83MOL0     H11156   5.350   2.981  10.454 -0.2939 -1.0430  0.2090
   83MOL0     H11157   5.148   2.806  10.334 -2.1186  0.4765 -1.8820
   83MOL0     H11158   5.117   2.737  10.499  0.6994  0.6830  1.6852
   83MOL0     H11159   4.886   2.812  10.487 -0.1197  0.5713  0.3751
   83MOL0     H11160   4.929   2.714  10.348 -0.3072  0.6390 -1.4241
   83MOL0     H11161   4.971   2.921  10.214 -2.3836 -2.2342 -0.6606
   83MOL0     H11162   4.927   3.017  10.360  0.4278 -0.5549  0.6439
   83MOL0     H11163   4.744   2.986  10.189 -0.4187 -0.3302 -0.5863
   83MOL0     H11164   4.706   2.957  10.361  1.4703 -3.1538  2.5699
   83MOL0     H11165   4.593   2.578  10.294 -1.4675 -0.2773  0.1106
   83MOL0     H11166   4.383   2.465  10.386 -1.0017 -0.1056  0.2643
   83MOL0     H11167   4.235   2.492  10.328 -0.0192  1.5248  0.6859
   83MOL0     H11168   4.326   2.405  10.216 -0.7294 -0.4696  1.1820
   83MOL0     H11169   3.940   2.584   9.908 -0.7052 -0.3418  0.5761
   83MOL0     H11170   3.716   2.596   9.881  0.8641  0.4756 -1.8612
   83MOL0     H11171   3.535   2.740  10.175  1.3748 -0.2701 -0.4985
   83MOL0     H11172   3.393   2.800  10.095 -0.7334  0.5977 -1.1138
   83MOL0     H11173   3.525   2.544  10.036  0.4159  0.2524  0.3881
   83MOL0     H11174   3.372   2.569  10.128 -0.2987  3.9659  1.3303
   83MOL0     H11175   3.361   2.487   9.864 -2.6812 -0.7451 -1.1074
   83MOL0     H11176   3.380   2.662   9.840  1.2494 -1.3286 -0.0926
   83MOL0     H11177   3.170   2.546  10.017 -0.7168  0.1836  1.4784
   83MOL0     H11178   3.208   2.722   9.982  4.0068 -0.2497 -0.5051
   83MOL0     H11179   3.140   2.501   9.792 -0.7401 -0.0841  1.2358
   83MOL0     H11180   3.184   2.661   9.735 -0.7563  3.0109  1.5073
   83MOL0     H11181   2.934   2.582   9.911 -1.1678 -1.6393 -1.5800
   83MOL0     H11182   2.970   2.745   9.880 -1.3350  1.1463 -1.1692
   83MOL0     H11183   2.944   2.678   9.621 -2.0515 -1.4247 -2.4967
   83MOL0     H11184   2.797   2.671   9.712  1.0490  1.4516 -1.7520
   83MOL0     H11185   2.980   2.434   9.657  0.5634  1.1281 -2.5862
   83MOL0     H11186   2.828   2.477   9.570 -0.9107 -1.6906  1.9437
   83MOL0     H11187   3.702   2.985  10.092  1.3823  0.0457  1.7638
   83MOL0     H11188   3.931   2.966  10.132 -4.5989  1.3523  1.1442
   83MOL0     H11189   4.322   2.915  10.052  1.2010  0.5486  0.7093
   83MOL0     H11190   4.545   2.956  10.110  1.1169 -0.0648 -1.0420
   83MOL0     H11191   6.373   3.040  10.575 -1.6667 -2.4668 -2.2922
   83MOL0     H11192   6.582   2.925  10.528  1.8691 -0.0149  0.5326
   83MOL0     H11193   6.892   2.577  10.624 -0.7971  0.9902  1.4615
   83MOL0     H11194   7.139   2.493  10.622  0.8406  0.7647  0.5185
   83MOL0     H11195   7.306   2.504  10.824  1.4149  0.1469  0.1132
   83MOL0     H11196   7.405   2.440  10.696 -2.0497 -1.4745  0.0951
   83MOL0     H11197   7.486   2.668  10.871 -1.8172  0.1718  0.4873
   83MOL0     H11198   7.585   2.589  10.747  0.5493  2.0191  0.9627
   83MOL0     H11199   7.477   2.463  10.996  1.3171 -5.0026 -0.3151
   83MOL0     H11200   7.641   2.526  10.958  0.5766 -0.5568  1.1565
   83MOL0     H11201   7.523   2.291  10.798 -1.2845  1.1901  1.0488
   83MOL0     H11202   7.608   2.275  10.941  2.5718 -0.6827 -0.8958
   83MOL0     H11203   7.923   2.359  10.683 -1.1494  2.6944 -0.4124
   83MOL0     H11204   7.285   2.857  10.734  0.8309  0.4084 -0.7040
   83MOL0     H11205   7.046   2.950  10.746  1.2493  2.0260 -3.1176
   84MOL0     O11206   2.801   2.762   0.154 -0.3419  0.1450  0.3472
   84MOL0     C11207   2.827   2.646   0.192 -0.1744 -0.3390  0.9568
   84MOL0     O11208   2.741   2.563   0.251  0.1961 -0.0434  0.1403
   84MOL0     C11209   2.606   2.582   0.233 -0.7157 -0.4891  0.5896
   84MOL0     C11210   2.545   2.539   0.117 -0.2312  0.3693  0.9356
   84MOL0     C11211   2.410   2.558   0.100 -0.0029  0.4823 -0.2505
   84MOL0     C11212   2.330   2.624   0.193 -1.1921 -0.2917 -0.5033
   84MOL0     O11213   2.200   2.633   0.192  0.2172  0.0566  0.2540
   84MOL0     C11214   2.123   2.581   0.081 -0.0914 -0.2551 -0.0338
   84MOL0     C11215   1.975   2.631   0.087  0.2248  0.8059 -0.0199
   84MOL0     C11216   1.892   2.600  -0.035 -0.3584  0.2344 -0.4997
   84MOL0     C11217   1.927   2.698  -0.159 -0.0722 -1.0400  0.0990
   84MOL0     C11218   1.917   2.849  -0.136 -0.5004  0.2354 -0.2269
   84MOL0     C11219   1.778   2.896  -0.102 -0.4354 -0.1195  0.3870
   84MOL0     C11220   1.667   2.850  -0.205  0.4833 -0.4231 -0.5360
   84MOL0     C11221   1.529   2.912  -0.172 -0.1942 -0.2735  0.5486
   84MOL0     N11222   1.421   2.833  -0.237 -0.2041 -0.0793 -0.4308
   84MOL0     C11223   1.409   2.696  -0.249 -0.0578 -0.4392  0.4230
   84MOL0     C11224   1.291   2.671  -0.300 -0.3253  0.5251  0.4301
   84MOL0     C11225   1.228   2.542  -0.322  0.7010 -0.1838 -0.0601
   84MOL0     C11226   1.077   2.532  -0.298 -0.1761 -0.1696  0.2741
   84MOL0     C11227   0.991   2.578  -0.417 -0.0474  0.1184  0.2912
   84MOL0     C11228   0.849   2.606  -0.377 -0.0986 -1.0031  0.3639
   84MOL0     O11229   0.786   2.487  -0.316  0.5822  0.2038 -0.0037
   84MOL0     C11230   0.725   2.408  -0.406 -0.1638  0.1517  1.4236
   84MOL0     C11231   0.705   2.277  -0.358  0.6217 -0.0896 -0.5263
   84MOL0     C11232   0.632   2.175  -0.421  0.3203 -0.0070  0.1838
   84MOL0     C11233   0.613   2.034  -0.362 -0.3788 -0.6322 -0.5780
   84MOL0     C11234   0.589   2.206  -0.555 -0.7554 -0.7450  0.2393
   84MOL0     C11235   0.533   2.094  -0.648  0.4372 -0.3416  0.7070
   84MOL0     O11236   0.436   2.015  -0.593 -0.1846 -0.2377 -0.0638
   84MOL0     C11237   0.397   1.906  -0.665  0.3147  0.3318  0.0948
   84MOL0     C11238   0.432   1.771  -0.617  1.0640 -0.3805 -0.0138
   84MOL0     C11239   0.374   1.656  -0.682  0.9209 -0.7935  0.2247
   84MOL0     C11240   0.288   1.677  -0.788 -1.4685  0.7166  0.2870
   84MOL0     O11241   0.233   1.565  -0.844 -0.7775 -0.0576 -0.0744
   84MOL0     C11242   0.207   1.557  -0.988 -0.2647 -0.0104 -0.3020
   84MOL0     C11243   0.218   1.411  -1.022 -0.9358  0.2460  0.2710
   84MOL0     C11244   0.208   1.397  -1.168  0.1482 -0.2705  0.6610
   84MOL0     C11245   0.228   1.248  -1.215 -0.1060 -0.0318 -0.0936
   84MOL0     C11246   0.195   1.236  -1.364  0.5388 -0.1883  0.1034
   84MOL0     C11247   0.231   1.099  -1.415  0.3671  0.2310  0.5086
   84MOL0     C11248   0.231   0.979  -1.324  0.1077  0.2664 -0.8364
   84MOL0     C11249   0.268   0.864  -1.413  0.3301  0.3209 -1.2330
   84MOL0    Cl11250   0.267   0.706  -1.313 -0.2497  0.2761  0.2000
   84MOL0     C11251   0.259   1.806  -0.837  0.4828 -0.0036 -1.2933
   84MOL0     C11252   0.310   1.923  -0.767 -0.3973 -0.3143 -0.2742
   84MOL0     O11253   0.591   2.080  -0.753  0.2016  0.1470 -0.3390
   84MOL0     C11254   0.605   2.336  -0.607  1.0680  0.3561  0.0790
   84MOL0     C11255   0.675   2.439  -0.542 -0.1067  0.3098 -0.4832
   84MOL0     N11256   1.235   2.796  -0.327  0.3615  0.1721  0.4008
   84MOL0     N11257   1.305   2.889  -0.276  0.0146 -0.6797  0.6677
   84MOL0     C11258   2.402   2.681   0.305 -0.2943  0.4669 -0.8282
   84MOL0     C11259   2.536   2.663   0.313  0.0543 -0.0225  0.3574
   84MOL0     C11260   2.969   2.607   0.188  0.0411  1.0185  0.2606
   84MOL0     C11261   3.014   2.489   0.244 -1.8551 -0.1819 -0.4887
   84MOL0     C11262   3.151   2.454   0.261  0.1169 -0.9544 -0.8072
   84MOL0     C11263   3.248   2.540   0.195  0.1538 -0.3197  0.1430
   84MOL0     O11264   3.383   2.513   0.184 -0.8396 -0.4029  0.0236
   84MOL0     C11265   3.441   2.474   0.312 -0.3093  0.3956 -0.0642
   84MOL0     C11266   3.520   2.348   0.283 -0.0697 -0.0976 -0.1796
   84MOL0     C11267   3.645   2.368   0.186 -0.1724  0.3063  0.0849
   84MOL0     C11268   3.742   2.263   0.219 -1.0159 -0.1143  0.3925
   84MOL0     C11269   3.876   2.272   0.142 -0.4108  0.6160  0.0807
   84MOL0     C11270   3.986   2.290   0.090 -0.6839  0.2362  0.1391
   84MOL0     C11271   3.199   2.651   0.134  0.7723 -0.4681  0.8617
   84MOL0     C11272   3.066   2.691   0.140  0.0729 -0.1706  0.3970
   84MOL0     H11273   2.601   2.484   0.042 -1.6014  3.9081 -3.0715
   84MOL0     H11274   2.374   2.509   0.010  0.5495  1.6956 -1.1601
   84MOL0     H11275   2.159   2.612  -0.018 -3.0837  1.2380 -0.7868
   84MOL0     H11276   2.128   2.472   0.080 -0.9660 -0.3455  1.6999
   84MOL0     H11277   1.928   2.576   0.170  1.0328  0.5585  0.2770
   84MOL0     H11278   1.961   2.735   0.116  1.4785  0.7138  1.0116
   84MOL0     H11279   1.912   2.496  -0.062  2.3645  0.3332  0.7951
   84MOL0     H11280   1.788   2.606  -0.003 -0.5363 -0.0505 -1.0076
   84MOL0     H11281   2.028   2.675  -0.192 -1.1505 -5.4735 -0.8084
   84MOL0     H11282   1.864   2.671  -0.245  2.2500 -1.5719 -1.5130
   84MOL0     H11283   1.984   2.877  -0.055 -0.0814  2.0349 -1.1345
   84MOL0     H11284   1.958   2.892  -0.228 -0.1115  0.7087  0.1559
   84MOL0     H11285   1.748   2.858  -0.005  1.0541  2.8303  2.1583
   84MOL0     H11286   1.778   3.006  -0.104 -0.9147 -0.0830 -2.5029
   84MOL0     H11287   1.691   2.874  -0.309 -4.1549  0.6226 -1.5952
   84MOL0     H11288   1.664   2.742  -0.192  1.8340 -0.3204  1.0649
   84MOL0     H11289   1.531   3.019  -0.195  0.3084 -0.0362  1.6291
   84MOL0     H11290   1.517   2.899  -0.064  0.3160 -2.7747  0.3583
   84MOL0     H11291   1.477   2.618  -0.215 -0.8167 -0.5192  1.8184
   84MOL0     H11292   1.245   2.494  -0.419  2.1502  1.4953 -0.6921
   84MOL0     H11293   1.272   2.467  -0.255  1.1590  0.3253  0.2124
   84MOL0     H11294   1.064   2.602  -0.215  0.9785 -0.3575  0.6232
   84MOL0     H11295   1.058   2.431  -0.262 -1.1605  0.3549  1.2941
   84MOL0     H11296   1.000   2.501  -0.494 -1.1878 -0.3108  0.5709
   84MOL0     H11297   1.039   2.670  -0.451  1.8111 -0.1909  1.8368
   84MOL0     H11298   0.794   2.654  -0.459  2.2167  4.2389  1.4875
   84MOL0     H11299   0.850   2.680  -0.296  2.5551  1.0910 -1.4186
   84MOL0     H11300   0.744   2.263  -0.258 -0.6267  2.0707  0.3272
   84MOL0     H11301   0.671   1.975  -0.434  1.3640  3.1909 -2.6826
   84MOL0     H11302   0.665   2.034  -0.266 -0.5057 -1.7782 -0.4967
   84MOL0     H11303   0.507   2.011  -0.363 -0.6489  0.5013 -1.9045
   84MOL0     H11304   0.504   1.762  -0.536 -1.5072 -0.8513  2.4028
   84MOL0     H11305   0.402   1.561  -0.639 -0.1737 -1.0261  0.4553
   84MOL0     H11306   0.115   1.608  -1.016  0.4043  1.7322  0.5397
   84MOL0     H11307   0.286   1.610  -1.042  1.5015 -2.0976  0.0597
   84MOL0     H11308   0.320   1.383  -0.994 -2.0666 -2.1135  2.4109
   84MOL0     H11309   0.146   1.350  -0.967  0.2756  0.3834  2.0956
   84MOL0     H11310   0.282   1.452  -1.226  0.7854 -2.3281 -0.5733
   84MOL0     H11311   0.106   1.429  -1.188  0.4233 -1.0704 -2.4913
   84MOL0     H11312   0.331   1.211  -1.209  0.3106  0.8704 -1.2480
   84MOL0     H11313   0.157   1.183  -1.163 -1.8331  1.4297 -0.5148
   84MOL0     H11314   0.257   1.305  -1.422  1.0284  0.3668  1.2536
   84MOL0     H11315   0.093   1.262  -1.394  1.0348 -0.1475 -1.6958
   84MOL0     H11316   0.179   1.075  -1.508 -0.0385  1.1285  0.4886
   84MOL0     H11317   0.334   1.115  -1.447  1.2384 -0.7869  2.5686
   84MOL0     H11318   0.136   0.950  -1.280  0.4814  0.1327 -0.0954
   84MOL0     H11319   0.313   0.988  -1.252 -0.2074  2.8587 -0.7041
   84MOL0     H11320   0.369   0.878  -1.453  1.9921 -2.1851  1.6697
   84MOL0     H11321   0.190   0.859  -1.489 -3.4503  0.0708  2.2769
   84MOL0     H11322   0.191   1.822  -0.920 -1.4143  2.8019  0.5705
   84MOL0     H11323   0.298   2.028  -0.791  0.8371 -0.4005 -1.3976
   84MOL0     H11324   0.557   2.361  -0.701 -1.8816  0.0617  1.3943
   84MOL0     H11325   0.669   2.540  -0.581 -0.2099  0.4080 -0.2205
   84MOL0     H11326   2.337   2.744   0.365 -0.8648 -0.0510 -0.8916
   84MOL0     H11327   2.585   2.728   0.385 -1.2854  1.7644 -0.2653
   84MOL0     H11328   2.935   2.431   0.291 -0.9092  2.3543  4.9942
   84MOL0     H11329   3.160   2.361   0.315  0.7197 -1.1437 -1.2176
   84MOL0     H11330   3.506   2.554   0.348  0.2045  1.2563 -2.6530
   84MOL0     H11331   3.371   2.446   0.391  1.3592 -2.4629  0.5058
   84MOL0     H11332   3.445   2.275   0.248 -0.9015 -0.0573  1.3973
   84MOL0     H11333   3.554   2.320   0.383 -1.8898  0.1252  0.5454
   84MOL0     H11334   3.688   2.463   0.216 -1.7803 -0.0923  4.3857
   84MOL0     H11335   3.613   2.352   0.082 -1.5463 -1.5862  0.7398
   84MOL0     H11336   3.694   2.170   0.185 -2.2318  0.0931  1.4783
   84MOL0     H11337   3.761   2.252   0.326 -2.2762 -4.5684  0.3427
   84MOL0     H11338   4.074   2.299   0.030 -0.0786 -1.0813  0.7719
   84MOL0     H11339   3.269   2.718   0.087 -3.2181  1.5888 -2.8815
   84MOL0     H11340   3.038   2.789   0.103 -0.0267 -0.6191 -0.7510
   85MOL0     O11341   2.738   2.032   1.259 -0.0127 -0.0152  0.5071
   85MOL0     C11342   2.824   2.124   1.261  0.1618 -0.8143  0.3533
   85MOL0     O11343   2.807   2.256   1.307  0.3463 -0.6204 -0.1382
   85MOL0     C11344   2.691   2.290   1.377 -0.0704  0.4663 -0.1111
   85MOL0     C11345   2.674   2.432   1.392 -0.3103 -0.2336  0.8845
   85MOL0     C11346   2.560   2.480   1.457  0.4811 -0.2241 -0.1867
   85MOL0     C11347   2.472   2.389   1.515 -0.8175  0.4366 -0.3974
   85MOL0     O11348   2.362   2.440   1.588  0.5226  0.1871 -0.6033
   85MOL0     C11349   2.320   2.574   1.543 -0.2405  0.2515 -0.0118
   85MOL0     C11350   2.185   2.621   1.601 -0.7312 -0.4006  0.4771
   85MOL0     C11351   2.075   2.548   1.541 -0.5613 -0.7600  0.0459
   85MOL0     C11352   1.942   2.543   1.618 -0.0068 -0.1247  0.7667
   85MOL0     C11353   1.840   2.467   1.528 -0.5111 -0.6743  0.1961
   85MOL0     C11354   1.708   2.456   1.597 -0.3187  0.1690 -0.0619
   85MOL0     C11355   1.598   2.396   1.502 -0.6346 -0.5650  0.2757
   85MOL0     C11356   1.461   2.394   1.561 -0.2114  0.0609  0.0582
   85MOL0     N11357   1.378   2.303   1.475 -0.2593 -0.3973 -0.2838
   85MOL0     C11358   1.301   2.199   1.518  0.4912  0.1310  0.7210
   85MOL0     C11359   1.248   2.145   1.406  0.2587 -0.0538  0.6983
   85MOL0     C11360   1.151   2.037   1.407  0.9678  0.1633  0.4437
   85MOL0     C11361   1.008   2.085   1.364 -0.0220  1.0430 -0.7627
   85MOL0     C11362   0.912   1.970   1.349  0.1433  0.1308 -0.2958
   85MOL0     C11363   0.763   2.004   1.357  0.4044  0.1188  0.1483
   85MOL0     O11364   0.730   2.064   1.486 -0.0093 -0.7534 -0.3446
   85MOL0     C11365   0.593   2.081   1.510 -0.7092 -0.1745 -0.3935
   85MOL0     C11366   0.499   2.107   1.410  0.3967 -0.6857 -0.4187
   85MOL0     C11367   0.364   2.123   1.443 -0.5785 -0.2993  0.2450
   85MOL0     C11368   0.274   2.174   1.333 -0.7679 -0.3834  0.0253
   85MOL0     C11369   0.317   2.091   1.578  0.1814 -1.4210  0.0115
   85MOL0     C11370   0.169   2.100   1.612 -0.0801 -0.4102  0.8893
   85MOL0     O11371   0.136   2.098   1.748 -0.5025 -0.3916  0.9106
   85MOL0     C11372   0.006   2.131   1.786  0.0210  0.1376  0.0663
   85MOL0     C11373  -0.043   2.078   1.905  0.0872 -0.7133  0.3268
   85MOL0     C11374  -0.169   2.120   1.964 -0.1893 -0.8125  0.6213
   85MOL0     C11375  -0.239   2.223   1.897 -0.1879  1.8430  0.5818
   85MOL0     O11376  -0.356   2.273   1.951 -0.2644  0.0548 -0.3526
   85MOL0     C11377  -0.369   2.418   1.960  0.0202  0.8308  0.3268
   85MOL0     C11378  -0.444   2.483   2.077  0.0303  0.7392  0.0868
   85MOL0     C11379  -0.596   2.429   2.076 -0.1229  0.0970 -0.1259
   85MOL0     C11380  -0.686   2.495   2.185 -0.4455 -0.3592 -0.3625
   85MOL0     C11381  -0.824   2.430   2.194 -0.0413  0.2315 -0.7870
   85MOL0     C11382  -0.936   2.528   2.232  0.4969  0.2365  0.2632
   85MOL0     C11383  -0.939   2.564   2.380 -0.6253  0.8033  0.3520
   85MOL0     C11384  -1.026   2.682   2.414  0.1030 -0.8437 -0.2983
   85MOL0    Cl11385  -0.971   2.834   2.345  0.4354  0.4391  0.6413
   85MOL0     C11386  -0.196   2.277   1.776 -0.3391  0.3451  0.1559
   85MOL0     C11387  -0.063   2.236   1.725  0.7361  0.9996 -0.2391
   85MOL0     O11388   0.083   2.103   1.518 -0.2852  0.1376  0.2492
   85MOL0     C11389   0.415   2.071   1.681  0.0880 -0.3172  0.2199
   85MOL0     C11390   0.555   2.057   1.646  0.5296  0.1114  0.8001
   85MOL0     N11391   1.294   2.217   1.298 -0.4925  0.1497  0.3748
   85MOL0     N11392   1.370   2.316   1.345  0.2402  0.1457 -0.4922
   85MOL0     C11393   2.491   2.251   1.504 -0.2511  0.8128  0.5156
   85MOL0     C11394   2.600   2.203   1.440 -0.9520  0.2577  0.1845
   85MOL0     C11395   2.962   2.089   1.221 -0.5428  0.1330 -0.3389
   85MOL0     C11396   2.995   1.954   1.218 -0.3369  0.2290  0.0507
   85MOL0     C11397   3.121   1.912   1.178 -1.2693 -0.1694 -0.7187
   85MOL0     C11398   3.220   2.011   1.153 -0.7327  0.8369  0.0900
   85MOL0     O11399   3.338   1.979   1.091  0.2544  0.5503  0.5820
   85MOL0     C11400   3.380   1.842   1.078  0.1375  0.1302  0.9049
   85MOL0     C11401   3.531   1.828   1.035  0.6072  0.2903  0.3646
   85MOL0     C11402   3.605   1.702   1.106 -0.1770  0.0388 -0.2592
   85MOL0     C11403   3.556   1.561   1.061  0.2217 -0.5963  0.5970
   85MOL0     C11404   3.644   1.458   1.105  0.0333  0.5021  0.5338
   85MOL0     C11405   3.721   1.381   1.139 -0.1181 -0.4308 -0.6653
   85MOL0     C11406   3.184   2.144   1.158 -0.7297 -0.3783  0.2569
   85MOL0     C11407   3.063   2.190   1.198 -0.1944  0.5821 -0.4969
   85MOL0     H11408   2.748   2.496   1.345  0.1354 -0.4872  1.2378
   85MOL0     H11409   2.543   2.586   1.477 -1.9125 -1.1674  3.9880
   85MOL0     H11410   2.390   2.643   1.592 -0.2791  1.0487 -1.0372
   85MOL0     H11411   2.326   2.589   1.435 -1.3643  1.4900  0.0630
   85MOL0     H11412   2.191   2.610   1.710  3.0280  0.1514  0.4813
   85MOL0     H11413   2.167   2.725   1.575 -1.1775 -0.6146 -0.0972
   85MOL0     H11414   2.052   2.604   1.450 -1.2160  1.9241  1.7323
   85MOL0     H11415   2.105   2.444   1.526 -0.8373 -0.5864 -1.9247
   85MOL0     H11416   1.948   2.491   1.714 -2.2974 -0.8962  0.5606
   85MOL0     H11417   1.914   2.647   1.634 -0.3645 -0.3457  1.6454
   85MOL0     H11418   1.828   2.518   1.432 -1.4165 -0.2949  0.4962
   85MOL0     H11419   1.879   2.365   1.525 -2.0866 -1.3162  0.1255
   85MOL0     H11420   1.727   2.388   1.680  0.6310 -0.2449 -0.5952
   85MOL0     H11421   1.676   2.554   1.633  3.0456  1.4050 -0.0380
   85MOL0     H11422   1.600   2.439   1.402  2.1826  1.6470  1.1351
   85MOL0     H11423   1.626   2.293   1.479  0.2436  0.1328 -2.0280
   85MOL0     H11424   1.430   2.499   1.564  0.2869  0.3107 -2.1844
   85MOL0     H11425   1.458   2.354   1.663 -1.2099 -0.5093 -0.1798
   85MOL0     H11426   1.272   2.177   1.621  1.7777 -0.4722  0.9628
   85MOL0     H11427   1.183   1.956   1.340 -1.9992 -2.7338  2.2286
   85MOL0     H11428   1.146   1.981   1.501 -0.1746 -0.8764 -0.1954
   85MOL0     H11429   1.002   2.137   1.268  0.0971  2.1897 -0.1591
   85MOL0     H11430   0.975   2.158   1.438  2.6352  0.7797  0.7962
   85MOL0     H11431   0.931   1.903   1.434 -2.8373  0.3504  0.6553
   85MOL0     H11432   0.932   1.909   1.260  2.5960 -0.4092  0.5436
   85MOL0     H11433   0.697   1.923   1.326  3.0261 -2.3849  0.7620
   85MOL0     H11434   0.744   2.081   1.281  0.0663 -1.1706 -1.1089
   85MOL0     H11435   0.529   2.119   1.306 -0.8670 -2.3927 -1.0127
   85MOL0     H11436   0.198   2.245   1.366 -2.4618 -2.5924  1.1762
   85MOL0     H11437   0.344   2.212   1.257  2.5683 -1.5100  2.3094
   85MOL0     H11438   0.219   2.093   1.285 -3.5079  1.7096 -0.6220
   85MOL0     H11439   0.015   2.004   1.960  1.3006 -0.2796 -0.3248
   85MOL0     H11440  -0.214   2.079   2.054 -1.8080  0.2334  0.3419
   85MOL0     H11441  -0.278   2.478   1.947 -0.4302  1.1911 -1.5519
   85MOL0     H11442  -0.429   2.434   1.870  1.6667 -2.0067 -1.4527
   85MOL0     H11443  -0.405   2.469   2.178 -0.8319  0.9088  0.4526
   85MOL0     H11444  -0.446   2.589   2.048 -1.2674  0.3512 -1.3711
   85MOL0     H11445  -0.606   2.320   2.083  2.6393 -0.3341 -1.3938
   85MOL0     H11446  -0.640   2.459   1.981 -3.0542 -0.8634  0.8295
   85MOL0     H11447  -0.627   2.493   2.277 -2.8593 -2.3117  1.2693
   85MOL0     H11448  -0.706   2.597   2.151  1.6327  0.0820 -0.4088
   85MOL0     H11449  -0.825   2.342   2.259  0.7930  0.0384 -1.0261
   85MOL0     H11450  -0.844   2.386   2.096  5.3405 -2.5036 -1.0490
   85MOL0     H11451  -0.925   2.613   2.164 -0.0452 -0.6272 -0.9252
   85MOL0     H11452  -1.033   2.486   2.206  1.5485 -1.0878 -1.6802
   85MOL0     H11453  -0.835   2.585   2.403  0.1889 -1.2271 -1.1568
   85MOL0     H11454  -0.971   2.479   2.440 -1.0844 -0.2323 -1.3015
   85MOL0     H11455  -1.038   2.686   2.523 -1.9929 -3.3278 -0.3477
   85MOL0     H11456  -1.126   2.661   2.374  1.2105 -0.5564 -3.4961
   85MOL0     H11457  -0.243   2.365   1.733  1.8139  1.6923  0.4160
   85MOL0     H11458  -0.024   2.288   1.639  0.2090  1.6790 -0.0748
   85MOL0     H11459   0.393   2.050   1.785 -0.3521 -1.1946 -0.0337
   85MOL0     H11460   0.636   2.040   1.716  0.5916  1.1431  1.0002
   85MOL0     H11461   2.425   2.176   1.548  0.3982 -0.5154 -0.6806
   85MOL0     H11462   2.618   2.096   1.434  2.2838  0.7845 -1.9484
   85MOL0     H11463   2.936   1.871   1.256 -0.7120 -0.4426 -1.8913
   85MOL0     H11464   3.146   1.807   1.172 -0.6989 -0.0460 -0.4785
   85MOL0     H11465   3.374   1.790   1.174  0.4866  0.4403  1.0943
   85MOL0     H11466   3.306   1.798   1.010  0.2524  1.7624 -0.3272
   85MOL0     H11467   3.587   1.914   1.074 -0.1434 -0.1920  2.6173
   85MOL0     H11468   3.544   1.819   0.927  3.8669 -0.8700  0.7507
   85MOL0     H11469   3.612   1.710   1.215 -1.9961 -1.4736  0.0168
   85MOL0     H11470   3.709   1.700   1.072 -0.9054 -1.7451 -2.6378
   85MOL0     H11471   3.560   1.568   0.951  0.6500 -2.2047  0.4919
   85MOL0     H11472   3.454   1.539   1.094  0.5613 -0.2593  1.9402
   85MOL0     H11473   3.780   1.297   1.168 -0.0198 -0.3669 -0.6765
   85MOL0     H11474   3.265   2.212   1.131  0.5683 -1.9173  0.1580
   85MOL0     H11475   3.032   2.293   1.212  0.8559  0.6262  2.0499
   86MOL0     O11476  11.126  10.107   7.459 -0.3170  0.5602  0.3488
   86MOL0     C11477  11.098  10.118   7.339  0.8614 -0.4361 -0.2587
   86MOL0     O11478  10.974  10.124   7.286 -0.1872  1.1727 -0.4641
   86MOL0     C11479  10.859  10.140   7.357  0.1177  0.0250  0.3063
   86MOL0     C11480  10.750  10.084   7.298  0.7126  0.1685 -0.4200
   86MOL0     C11481  10.624  10.097   7.353 -0.0503  0.1880 -0.5022
   86MOL0     C11482  10.604  10.158   7.485  0.4870 -0.2068  0.7767
   86MOL0     O11483  10.475  10.174   7.529 -0.2435  0.0079  0.2226
   86MOL0     C11484  10.453  10.241   7.655 -0.0065 -0.3829  0.2121
   86MOL0     C11485  10.316  10.207   7.713 -0.2412  0.0441 -0.3009
   86MOL0     C11486  10.210  10.297   7.660 -0.7664 -0.1742 -0.6904
   86MOL0     C11487  10.069  10.240   7.682  0.3941 -1.0327 -1.2818
   86MOL0     C11488   9.963  10.341   7.650 -0.2986  0.1884 -0.0777
   86MOL0     C11489   9.827  10.280   7.646 -0.3346 -0.8706 -0.4688
   86MOL0     C11490   9.727  10.393   7.607 -0.0471 -0.0388 -0.4181
   86MOL0     C11491   9.601  10.411   7.702  0.3483  0.6820 -0.5231
   86MOL0     N11492   9.531  10.291   7.759  0.0123 -0.3250 -0.1079
   86MOL0     C11493   9.539  10.240   7.881  0.0568 -0.1221 -0.5274
   86MOL0     C11494   9.463  10.137   7.883  0.1424  0.7419  0.0875
   86MOL0     C11495   9.452  10.038   7.999  0.2069 -0.2748  0.0041
   86MOL0     C11496   9.323  10.067   8.075  0.0529 -0.2796 -0.1414
   86MOL0     C11497   9.198  10.027   7.995  0.2521 -1.0051 -0.4108
   86MOL0     C11498   9.098   9.955   8.094 -0.3647  0.0522 -0.2355
   86MOL0     O11499   8.961   9.951   8.042 -0.4443  0.1186 -0.1443
   86MOL0     C11500   8.864   9.876   8.100 -0.4093 -0.2907  0.9743
   86MOL0     C11501   8.757   9.819   8.034  0.2048  0.2536  0.0884
   86MOL0     C11502   8.644   9.758   8.090 -1.4090 -1.0135 -0.1773
   86MOL0     C11503   8.531   9.721   8.001  0.1518 -0.0805 -0.1551
   86MOL0     C11504   8.641   9.752   8.233  0.1418  0.3641  0.0641
   86MOL0     C11505   8.525   9.696   8.310 -0.8437  0.4216  0.1146
   86MOL0     O11506   8.418   9.641   8.237 -0.0843  0.9077 -0.1545
   86MOL0     C11507   8.312   9.566   8.288  0.1762 -0.3337  0.1731
   86MOL0     C11508   8.203   9.547   8.206 -0.3436  0.7013 -0.0167
   86MOL0     C11509   8.107   9.445   8.238 -0.5411 -0.3779  0.9230
   86MOL0     C11510   8.102   9.370   8.350  0.3538 -0.4355 -0.2759
   86MOL0     O11511   8.008   9.272   8.368  0.4874 -0.8603  0.0449
   86MOL0     C11512   7.878   9.278   8.303  0.0026  0.1164  0.3652
   86MOL0     C11513   7.790   9.151   8.295  1.1535 -0.9443 -0.1987
   86MOL0     C11514   7.860   9.021   8.279 -0.1253 -0.0073  0.6645
   86MOL0     C11515   7.782   8.904   8.340  0.0567  0.6194 -0.3403
   86MOL0     C11516   7.868   8.780   8.332 -0.1130 -0.0163 -0.2088
   86MOL0     C11517   7.793   8.661   8.287  0.3419  1.0224  0.9621
   86MOL0     C11518   7.709   8.679   8.155 -0.3826  0.0018 -0.8336
   86MOL0     C11519   7.571   8.616   8.182 -0.1990 -0.6079 -0.2302
   86MOL0    Cl11520   7.569   8.439   8.170 -0.0307  0.3256  0.0785
   86MOL0     C11521   8.207   9.394   8.437 -0.0009 -0.3075 -0.0543
   86MOL0     C11522   8.308   9.493   8.408  0.1735 -1.1108  0.2817
   86MOL0     O11523   8.536   9.684   8.431  0.1491  0.3108  0.0707
   86MOL0     C11524   8.759   9.797   8.305 -0.4426  0.2435  0.0904
   86MOL0     C11525   8.872   9.862   8.241  0.8691  1.2259  0.0418
   86MOL0     N11526   9.400  10.125   7.756 -0.3647  0.0374  0.4245
   86MOL0     N11527   9.440  10.219   7.683 -0.1336  0.4483 -0.2842
   86MOL0     C11528  10.718  10.212   7.547  0.2422  0.0348  0.9573
   86MOL0     C11529  10.839  10.203   7.480  0.1929 -0.5468 -0.3037
   86MOL0     C11530  11.217  10.137   7.249  0.5635 -0.2229 -0.2452
   86MOL0     C11531  11.198  10.113   7.117 -0.3503 -0.4471  0.8301
   86MOL0     C11532  11.299  10.128   7.022  0.0127 -0.1445  0.7950
   86MOL0     C11533  11.425  10.153   7.072 -0.1934 -0.5832 -0.0214
   86MOL0     O11534  11.535  10.167   6.994 -0.0875 -0.4663 -0.4590
   86MOL0     C11535  11.513  10.196   6.858  0.1990  0.3603 -0.3638
   86MOL0     C11536  11.630  10.218   6.766 -0.4894  0.3191 -0.6622
   86MOL0     C11537  11.737  10.100   6.772  0.6458 -0.4611  0.0401
   86MOL0     C11538  11.837  10.128   6.664 -0.4654 -0.6263 -0.0612
   86MOL0     C11539  11.956  10.179   6.724 -0.8484 -0.1063  0.1552
   86MOL0     C11540  12.048  10.218   6.791 -0.5441  1.1423 -0.4677
   86MOL0     C11541  11.446  10.174   7.205  0.0630  0.1959 -0.9627
   86MOL0     C11542  11.342  10.169   7.301  0.4744  0.5952 -0.2153
   86MOL0     H11543  10.765  10.050   7.196  1.7502  2.6172 -1.1663
   86MOL0     H11544  10.534  10.066   7.302 -1.9335 -0.1817  2.7656
   86MOL0     H11545  10.529  10.213   7.728  1.7755  3.0367 -0.1203
   86MOL0     H11546  10.468  10.349   7.648  0.5979 -0.4059  1.0407
   86MOL0     H11547  10.294  10.102   7.688 -0.5604  0.2527 -0.9358
   86MOL0     H11548  10.320  10.206   7.822  3.4592 -0.9670 -0.3227
   86MOL0     H11549  10.219  10.399   7.700  0.5452 -0.7016  0.3964
   86MOL0     H11550  10.233  10.322   7.556  0.1649  1.4125 -0.1341
   86MOL0     H11551  10.061  10.155   7.613  0.8421 -1.1425 -1.2045
   86MOL0     H11552  10.053  10.208   7.785 -1.4994 -1.1680 -1.5770
   86MOL0     H11553   9.951  10.419   7.725 -0.0735  2.7653 -2.5705
   86MOL0     H11554   9.975  10.392   7.554 -0.1183  0.3478  0.0298
   86MOL0     H11555   9.839  10.205   7.568  1.2482  0.9883 -2.1325
   86MOL0     H11556   9.798  10.240   7.743 -2.0041  2.7558  0.7024
   86MOL0     H11557   9.771  10.493   7.607 -2.7649  1.2732  1.2222
   86MOL0     H11558   9.690  10.367   7.508 -2.7767 -0.4879  0.6168
   86MOL0     H11559   9.532  10.473   7.644 -2.0438 -0.2720  1.1302
   86MOL0     H11560   9.640  10.463   7.790  1.5576 -0.8411 -0.1164
   86MOL0     H11561   9.599  10.273   7.965 -0.1695 -0.6904 -0.1326
   86MOL0     H11562   9.465   9.934   7.967  0.1443 -0.6679  1.2002
   86MOL0     H11563   9.537  10.064   8.063 -1.9284  2.4250  1.9967
   86MOL0     H11564   9.321  10.170   8.111 -1.0532  0.1003 -1.2215
   86MOL0     H11565   9.315  10.000   8.162  0.6346  0.1132  0.2192
   86MOL0     H11566   9.218   9.963   7.908  0.3452 -0.9147 -0.4557
   86MOL0     H11567   9.153  10.122   7.967 -1.1337 -0.6343  2.7189
   86MOL0     H11568   9.100  10.010   8.188  0.7238 -1.4506  0.6725
   86MOL0     H11569   9.141   9.864   8.137 -0.1283  1.5554  2.9981
   86MOL0     H11570   8.760   9.825   7.925  2.8654 -2.0849 -0.0761
   86MOL0     H11571   8.524   9.611   8.004  0.7086 -0.2115 -2.2931
   86MOL0     H11572   8.430   9.758   8.020  0.1301  1.1983 -2.4047
   86MOL0     H11573   8.558   9.760   7.903 -0.4164  0.5377 -0.0728
   86MOL0     H11574   8.201   9.593   8.107  0.3785 -0.1809 -0.4518
   86MOL0     H11575   8.038   9.428   8.156  1.8072 -0.2751 -1.1913
   86MOL0     H11576   7.825   9.353   8.362  1.4655 -0.3050  2.3027
   86MOL0     H11577   7.876   9.309   8.198  0.9210  1.0868  0.6161
   86MOL0     H11578   7.736   9.156   8.390  2.0178  0.8971  0.2382
   86MOL0     H11579   7.717   9.165   8.214  0.0504 -0.0873  0.9136
   86MOL0     H11580   7.957   9.029   8.329  0.3053  0.4766 -0.2339
   86MOL0     H11581   7.890   8.995   8.177  2.9425 -0.3934  1.5695
   86MOL0     H11582   7.765   8.916   8.447  0.6300 -1.6047  0.0605
   86MOL0     H11583   7.683   8.893   8.295  0.4967  2.0179 -1.7512
   86MOL0     H11584   7.918   8.778   8.429  2.3008  0.0978 -1.3609
   86MOL0     H11585   7.958   8.792   8.270 -0.5872 -1.5581 -1.2692
   86MOL0     H11586   7.869   8.584   8.273  1.7710  2.6691 -0.9749
   86MOL0     H11587   7.727   8.622   8.365 -1.4871 -1.6707 -1.7006
   86MOL0     H11588   7.766   8.634   8.073 -0.2332 -0.7305 -0.3433
   86MOL0     H11589   7.697   8.783   8.125 -0.3815 -0.3727 -2.1899
   86MOL0     H11590   7.502   8.653   8.106 -1.8919  1.4788  2.1571
   86MOL0     H11591   7.521   8.652   8.273  0.2714  0.9385 -0.5442
   86MOL0     H11592   8.210   9.339   8.531 -0.3623 -0.1027  0.0768
   86MOL0     H11593   8.385   9.515   8.482  1.2542 -2.1591 -0.4903
   86MOL0     H11594   8.757   9.797   8.414 -2.1385  1.1371  0.1067
   86MOL0     H11595   8.949   9.897   8.308  0.6197  0.6778  0.6354
   86MOL0     H11596  10.689  10.263   7.638  1.0896 -0.6410  1.6275
   86MOL0     H11597  10.917  10.247   7.541 -1.6112 -0.7541  2.3231
   86MOL0     H11598  11.098  10.095   7.079  0.8683 -1.7871 -2.0826
   86MOL0     H11599  11.280  10.120   6.915 -0.4262 -4.6475  1.0139
   86MOL0     H11600  11.461  10.109   6.817  0.5307 -1.4483  2.7108
   86MOL0     H11601  11.442  10.279   6.854 -1.3959 -0.8104  1.4034
   86MOL0     H11602  11.690  10.305   6.795 -0.2063 -0.2238  0.4475
   86MOL0     H11603  11.587  10.238   6.668  1.2128  3.2081 -0.9495
   86MOL0     H11604  11.680  10.008   6.753 -0.7223  0.2700  0.4454
   86MOL0     H11605  11.787  10.088   6.869  1.0477 -0.2032 -0.1372
   86MOL0     H11606  11.796  10.186   6.580 -1.2561 -2.8253 -1.2843
   86MOL0     H11607  11.867  10.032   6.621  0.6251 -0.0824 -0.5546
   86MOL0     H11608  12.132  10.254   6.848  1.5723 -0.8364 -2.1955
   86MOL0     H11609  11.544  10.209   7.236  0.3961 -2.6434  1.6475
   86MOL0     H11610  11.352  10.181   7.408 -0.3134 -0.5013  0.0033
   87MOL0     O11611  10.525  10.267   6.334  0.2724 -0.7641 -1.1025
   87MOL0     C11612  10.577  10.155   6.336 -0.0458 -0.0953  0.9384
   87MOL0     O11613  10.518  10.045   6.388 -0.0302  0.0387  0.4539
   87MOL0     C11614  10.400  10.057   6.458 -0.0359  0.7261  0.7790
   87MOL0     C11615  10.283   9.999   6.410 -0.3970 -0.2127  0.1483
   87MOL0     C11616  10.163  10.004   6.489  0.1810  0.0517 -0.5278
   87MOL0     C11617  10.162  10.077   6.611  0.1588  0.6478  0.2799
   87MOL0     O11618  10.051  10.096   6.684  0.0445  0.0828 -0.0268
   87MOL0     C11619   9.937  10.156   6.609  0.4971 -0.2525 -0.2439
   87MOL0     C11620   9.826  10.191   6.700 -0.4389 -0.0811 -0.5429
   87MOL0     C11621   9.704  10.105   6.674 -0.0359 -0.0756  0.2953
   87MOL0     C11622   9.596  10.144   6.774  0.0103  0.8348 -0.4087
   87MOL0     C11623   9.460  10.070   6.753  1.1820  0.7038  0.2651
   87MOL0     C11624   9.375  10.075   6.879  0.0862 -0.5492 -0.1489
   87MOL0     C11625   9.248   9.986   6.859 -0.6832 -0.6788  0.0936
   87MOL0     C11626   9.172   9.967   6.989 -0.3822 -0.0509  0.0519
   87MOL0     N11627   9.036   9.922   6.971  0.3842  0.3009 -0.6508
   87MOL0     C11628   8.933   9.999   6.911 -0.6083 -0.2257 -0.0381
   87MOL0     C11629   8.834   9.906   6.893 -0.3445 -0.3598  1.0679
   87MOL0     C11630   8.715   9.923   6.810  0.0814 -0.3144 -0.6997
   87MOL0     C11631   8.637   9.793   6.798  0.5192  0.1520  0.4429
   87MOL0     C11632   8.494   9.821   6.731 -0.1575  0.1470 -1.0244
   87MOL0     C11633   8.402   9.701   6.746 -0.4737 -0.5894 -0.0482
   87MOL0     O11634   8.454   9.576   6.687  0.3074  0.9748 -0.4809
   87MOL0     C11635   8.366   9.473   6.656  0.5320 -0.2110  0.6710
   87MOL0     C11636   8.417   9.340   6.679 -0.6392  0.6786 -0.1842
   87MOL0     C11637   8.342   9.220   6.658  0.9676  0.1206  0.6569
   87MOL0     C11638   8.405   9.077   6.684  0.2307 -1.0102  0.8914
   87MOL0     C11639   8.209   9.238   6.613  0.0928 -0.1322  0.0659
   87MOL0     C11640   8.117   9.127   6.579  0.4861 -0.9723  0.6391
   87MOL0     O11641   7.984   9.143   6.592  0.1001 -0.3559  0.0681
   87MOL0     C11642   7.904   9.039   6.557  0.3925 -0.5953  0.6031
   87MOL0     C11643   7.862   8.958   6.663 -0.3362 -0.0949 -0.8770
   87MOL0     C11644   7.775   8.849   6.634 -0.0438 -0.0703 -0.5582
   87MOL0     C11645   7.719   8.821   6.505 -0.4890 -0.1538 -0.3843
   87MOL0     O11646   7.651   8.703   6.470 -0.5251  0.3144  1.0015
   87MOL0     C11647   7.618   8.592   6.556 -0.4637 -0.0514  1.2469
   87MOL0     C11648   7.487   8.633   6.620  0.5036 -0.0117  0.2386
   87MOL0     C11649   7.413   8.512   6.662  0.0010  0.2214 -0.4734
   87MOL0     C11650   7.343   8.452   6.539  0.0755 -0.5065 -0.3041
   87MOL0     C11651   7.305   8.308   6.575 -0.6360  0.5466  0.6005
   87MOL0     C11652   7.248   8.229   6.461 -0.1227 -0.1335  0.7829
   87MOL0     C11653   7.354   8.189   6.358  0.1631 -0.3225 -0.7412
   87MOL0     C11654   7.291   8.102   6.259  0.0654  0.2679  0.3182
   87MOL0    Cl11655   7.184   8.201   6.130  0.0193  0.1382  0.1691
   87MOL0     C11656   7.773   8.901   6.403  0.6849  0.1218 -0.0166
   87MOL0     C11657   7.859   9.014   6.428 -0.0206  0.5300 -0.4108
   87MOL0     O11658   8.170   9.025   6.533 -0.0557  0.3485  0.6588
   87MOL0     C11659   8.168   9.368   6.585 -0.2407 -0.3682  0.0902
   87MOL0     C11660   8.243   9.487   6.609  0.7976  0.7961 -0.8832
   87MOL0     N11661   8.875   9.783   6.930  0.1027  0.2479 -0.0508
   87MOL0     N11662   8.989   9.792   6.984  0.0456 -0.6628  0.4579
   87MOL0     C11663  10.292  10.132   6.655 -0.0718 -1.0233  0.5445
   87MOL0     C11664  10.404  10.120   6.576  0.2398  1.6873  0.4232
   87MOL0     C11665  10.710  10.150   6.266  0.9676 -0.5091  0.9867
   87MOL0     C11666  10.772  10.270   6.217  0.2144  0.3284  0.9142
   87MOL0     C11667  10.894  10.264   6.147 -0.4061 -0.3927  0.5787
   87MOL0     C11668  10.949  10.140   6.121 -1.3711  0.3440 -0.1542
   87MOL0     O11669  11.066  10.129   6.050  0.7145 -0.6511  0.4458
   87MOL0     C11670  11.060  10.064   5.925  0.5744 -0.0359 -0.4026
   87MOL0     C11671  11.138  10.148   5.828  0.7167  0.6249  0.2357
   87MOL0     C11672  11.286  10.115   5.838 -0.0998  0.7690  0.0669
   87MOL0     C11673  11.363  10.210   5.739  0.1820  0.0032  0.0079
   87MOL0     C11674  11.360  10.350   5.781  0.4872 -0.1242 -0.1506
   87MOL0     C11675  11.387  10.472   5.802 -0.2062 -1.0740  0.3291
   87MOL0     C11676  10.889  10.022   6.165  0.2951  0.3022 -1.5395
   87MOL0     C11677  10.769  10.029   6.245  0.3181  0.1655 -0.0500
   87MOL0     H11678  10.272   9.955   6.311 -1.3632  0.9181 -0.2579
   87MOL0     H11679  10.071   9.961   6.450  1.9126 -2.1568 -2.4897
   87MOL0     H11680   9.969  10.252   6.568 -0.6166  0.0758 -0.3646
   87MOL0     H11681   9.903  10.085   6.533  0.9684 -1.7428  0.8771
   87MOL0     H11682   9.857  10.183   6.804 -1.2551 -2.1310 -0.4282
   87MOL0     H11683   9.805  10.298   6.684  1.5189  0.3372 -0.5504
   87MOL0     H11684   9.663  10.125   6.574  1.8980  3.6896  0.0521
   87MOL0     H11685   9.729   9.999   6.671  0.1914 -0.0157 -1.9049
   87MOL0     H11686   9.633  10.125   6.875  0.1442  0.2106 -0.5697
   87MOL0     H11687   9.570  10.250   6.766 -1.7042  0.6454  1.8834
   87MOL0     H11688   9.413  10.113   6.664  0.5036  0.9207  0.7196
   87MOL0     H11689   9.477   9.966   6.723  1.4017  1.5056 -2.7279
   87MOL0     H11690   9.427  10.033   6.965  0.0449  1.7458  1.0920
   87MOL0     H11691   9.337  10.173   6.910 -3.6828 -2.3919  1.6373
   87MOL0     H11692   9.172  10.037   6.798 -1.2352  0.2053  1.4770
   87MOL0     H11693   9.270   9.886   6.820  0.2148 -0.1512 -0.8055
   87MOL0     H11694   9.173  10.057   7.051  1.2521  1.0081 -1.4330
   87MOL0     H11695   9.229   9.893   7.045 -0.0311  0.2906  0.1509
   87MOL0     H11696   8.941  10.099   6.871  3.7625 -0.4208 -0.1978
   87MOL0     H11697   8.651  10.000   6.855  0.1945  0.2868 -1.5362
   87MOL0     H11698   8.747   9.961   6.713 -1.4445 -1.0362 -1.5184
   87MOL0     H11699   8.614   9.748   6.895  0.7763 -2.0084 -0.4486
   87MOL0     H11700   8.684   9.718   6.733 -2.3021  0.1459 -1.7776
   87MOL0     H11701   8.511   9.850   6.627  0.2769  1.8098 -0.5132
   87MOL0     H11702   8.431   9.897   6.778 -1.2239 -0.7003 -1.0330
   87MOL0     H11703   8.313   9.723   6.686 -1.5498  0.4569  1.8025
   87MOL0     H11704   8.365   9.685   6.848  0.4196 -3.4004 -0.0860
   87MOL0     H11705   8.513   9.339   6.729 -2.7680 -0.0750  4.3224
   87MOL0     H11706   8.501   9.093   6.733 -0.8033  3.2754  1.9221
   87MOL0     H11707   8.343   9.010   6.745  0.3907 -1.7209  0.2989
   87MOL0     H11708   8.404   9.036   6.582 -1.1864 -0.0266  0.4840
   87MOL0     H11709   7.894   8.988   6.762  0.2676 -1.0722 -0.7668
   87MOL0     H11710   7.740   8.793   6.720 -0.2248 -0.3008 -0.7820
   87MOL0     H11711   7.614   8.510   6.483  0.5487  1.0929 -0.1585
   87MOL0     H11712   7.699   8.576   6.627 -0.2520 -2.1663  0.6044
   87MOL0     H11713   7.505   8.690   6.712 -0.1273  0.5908  0.0014
   87MOL0     H11714   7.438   8.698   6.547  0.6980  1.1135  1.0816
   87MOL0     H11715   7.339   8.548   6.735  1.2142  1.7170  0.0715
   87MOL0     H11716   7.478   8.439   6.712 -1.9827 -0.4188  1.3185
   87MOL0     H11717   7.252   8.500   6.501  0.7290 -0.2282 -1.5839
   87MOL0     H11718   7.404   8.457   6.448 -0.1063 -3.1671 -0.6564
   87MOL0     H11719   7.221   8.317   6.644  0.0190  1.8285  1.2500
   87MOL0     H11720   7.381   8.255   6.633 -0.8017  1.5769  1.8022
   87MOL0     H11721   7.217   8.131   6.500 -1.3044  0.1157  0.4918
   87MOL0     H11722   7.167   8.282   6.410  2.0535  0.8007 -1.9296
   87MOL0     H11723   7.439   8.137   6.404 -0.4343  1.1217  2.2264
   87MOL0     H11724   7.387   8.286   6.318  1.1603  0.2874  1.4085
   87MOL0     H11725   7.236   8.018   6.302  0.3126  0.1867  0.4752
   87MOL0     H11726   7.365   8.060   6.190  0.4097  0.1221  0.7720
   87MOL0     H11727   7.735   8.873   6.305 -2.1346  0.1895  0.9693
   87MOL0     H11728   7.902   9.067   6.344  0.3940  1.0063  0.0982
   87MOL0     H11729   8.069   9.378   6.542 -0.1595 -0.0906 -0.0335
   87MOL0     H11730   8.194   9.582   6.588 -3.2542 -0.9166 -0.0954
   87MOL0     H11731  10.292  10.180   6.752 -0.1598  2.1266 -0.8917
   87MOL0     H11732  10.498  10.171   6.595  0.1570  2.5285 -1.2045
   87MOL0     H11733  10.723  10.364   6.237 -3.2433 -1.4614  1.6107
   87MOL0     H11734  10.942  10.356   6.115 -1.3913  0.1672  0.6449
   87MOL0     H11735  11.086   9.960   5.947 -0.1696 -0.1089  0.1676
   87MOL0     H11736  10.955  10.051   5.897  0.1294 -1.4273  1.6219
   87MOL0     H11737  11.114  10.253   5.851 -3.0895  0.3648 -1.7813
   87MOL0     H11738  11.101  10.122   5.729 -0.3727  0.1546  0.7497
   87MOL0     H11739  11.308  10.009   5.829 -1.8432  0.1969  1.8771
   87MOL0     H11740  11.318  10.153   5.935 -0.3687  1.1343  0.0191
   87MOL0     H11741  11.316  10.204   5.640  0.4959  3.2323 -0.4599
   87MOL0     H11742  11.465  10.172   5.725 -1.6446 -6.3169  0.6463
   87MOL0     H11743  11.414  10.571   5.834  4.4898 -1.8529 -0.5453
   87MOL0     H11744  10.948   9.931   6.167 -0.0481  0.0841 -0.3967
   87MOL0     H11745  10.737   9.942   6.302  2.9280 -0.8197  0.0455
   88MOL0     O11746   3.684   2.550   8.779 -0.2161 -0.7143  0.0826
   88MOL0     C11747   3.688   2.604   8.888  0.2704 -0.1656  0.6813
   88MOL0     O11748   3.573   2.630   8.962  0.4882 -1.2731  0.3332
   88MOL0     C11749   3.448   2.591   8.916  0.8764  0.0799 -0.1527
   88MOL0     C11750   3.347   2.658   8.981 -0.2571  0.9607 -0.4624
   88MOL0     C11751   3.213   2.648   8.956  0.3196  0.5109 -0.7487
   88MOL0     C11752   3.169   2.570   8.849 -0.0392 -0.5283 -0.3801
   88MOL0     O11753   3.041   2.566   8.800  0.6139  0.1633  0.1464
   88MOL0     C11754   2.937   2.619   8.877  0.0849  0.4445  0.3238
   88MOL0     C11755   2.907   2.548   9.012 -0.5642  0.7732 -0.1171
   88MOL0     C11756   2.852   2.406   8.986 -0.0540 -0.0574  0.2886
   88MOL0     C11757   2.849   2.304   9.105 -0.1092  0.3500 -0.0405
   88MOL0     C11758   2.755   2.182   9.077  0.4802 -0.2979  0.0393
   88MOL0     C11759   2.772   2.090   9.197  0.1225 -0.1706 -0.2732
   88MOL0     C11760   2.691   1.966   9.196 -0.6107  0.2397  0.3151
   88MOL0     C11761   2.690   1.880   9.063 -1.0352 -0.7107 -0.1292
   88MOL0     N11762   2.605   1.765   9.056  0.0640 -0.6213 -0.1813
   88MOL0     C11763   2.593   1.691   8.940 -0.0708 -0.8776 -0.2586
   88MOL0     C11764   2.492   1.604   8.971 -0.1802  0.6136  0.6720
   88MOL0     C11765   2.417   1.499   8.898 -0.8248  0.3626  0.0451
   88MOL0     C11766   2.268   1.533   8.885  0.7100  0.6126  0.8968
   88MOL0     C11767   2.244   1.658   8.818  0.8488  0.7559 -0.2061
   88MOL0     C11768   2.092   1.669   8.788 -0.6995 -0.4723 -0.3456
   88MOL0     O11769   2.064   1.609   8.658  0.4968  0.0748 -0.6790
   88MOL0     C11770   1.942   1.639   8.597  0.4797  0.7804 -0.4221
   88MOL0     C11771   1.932   1.580   8.475 -0.1765  0.4403  0.1183
   88MOL0     C11772   1.818   1.603   8.390  0.0552 -0.4730 -0.2269
   88MOL0     C11773   1.827   1.534   8.256  0.2469  0.4810 -0.4244
   88MOL0     C11774   1.713   1.684   8.438  0.4075 -0.0302  0.6770
   88MOL0     C11775   1.587   1.726   8.373  0.2811 -0.4836  0.8978
   88MOL0     O11776   1.509   1.825   8.435 -0.7999 -0.3356  0.0988
   88MOL0     C11777   1.377   1.801   8.448 -0.5018 -0.2615  0.4872
   88MOL0     C11778   1.305   1.903   8.514 -0.5542  0.3461  0.5096
   88MOL0     C11779   1.165   1.896   8.540 -0.7061 -0.7467 -0.1774
   88MOL0     C11780   1.097   1.781   8.507 -0.7382  0.2941 -0.5559
   88MOL0     O11781   0.962   1.775   8.517  0.7865 -0.4636  0.4614
   88MOL0     C11782   0.886   1.763   8.390 -0.0839  0.3070  0.0989
   88MOL0     C11783   0.742   1.751   8.422  0.3753  0.5297 -0.6027
   88MOL0     C11784   0.681   1.867   8.501  0.0233 -0.0299 -0.5551
   88MOL0     C11785   0.525   1.871   8.491  0.4159  0.6263 -0.2742
   88MOL0     C11786   0.453   1.773   8.593 -0.1862 -0.1745 -0.5960
   88MOL0     C11787   0.301   1.784   8.599 -0.7659  0.5072  0.2954
   88MOL0     C11788   0.225   1.663   8.678  0.1031 -0.4196 -0.0875
   88MOL0     C11789   0.071   1.684   8.701  1.0480 -0.1636  0.6238
   88MOL0    Cl11790   0.008   1.535   8.782  0.1690  0.2005 -0.4325
   88MOL0     C11791   1.166   1.672   8.443 -0.2786 -0.1814  0.4868
   88MOL0     C11792   1.305   1.693   8.405  0.6806  0.5467 -0.2264
   88MOL0     O11793   1.570   1.691   8.254 -0.1327 -0.4634  0.0502
   88MOL0     C11794   1.723   1.733   8.563 -0.0780  0.0928  0.0195
   88MOL0     C11795   1.834   1.718   8.646  0.7399 -1.3186  0.0741
   88MOL0     N11796   2.467   1.627   9.107 -0.1326  0.6811  0.1108
   88MOL0     N11797   2.532   1.720   9.161  0.2929 -0.3143  0.0473
   88MOL0     C11798   3.268   2.488   8.787  0.1193  0.2800  0.3513
   88MOL0     C11799   3.408   2.504   8.810  1.0809  0.2515  0.2214
   88MOL0     C11800   3.819   2.634   8.944  0.7347 -0.8780 -0.8145
   88MOL0     C11801   3.819   2.730   9.053  0.5070  0.2336  0.5091
   88MOL0     C11802   3.939   2.768   9.110  0.3532 -0.6986  0.3860
   88MOL0     C11803   4.064   2.716   9.065 -0.3376 -0.0776 -0.8338
   88MOL0     O11804   4.174   2.750   9.149 -0.9149  0.2503  0.0042
   88MOL0     C11805   4.293   2.663   9.131  0.0590 -0.4168 -1.1319
   88MOL0     C11806   4.419   2.692   9.218 -0.6885 -0.5552 -1.0261
   88MOL0     C11807   4.496   2.814   9.167 -0.3266  0.1327  0.5916
   88MOL0     C11808   4.599   2.857   9.266  0.2996 -0.1958 -0.1061
   88MOL0     C11809   4.716   2.773   9.285 -0.0732  0.8609  0.5956
   88MOL0     C11810   4.802   2.682   9.297 -1.1029  0.2472 -1.0890
   88MOL0     C11811   4.064   2.622   8.964  0.7367 -0.2398 -0.7998
   88MOL0     C11812   3.941   2.591   8.897 -0.2742  0.4493 -0.0029
   88MOL0     H11813   3.374   2.731   9.057 -1.0767  2.8216 -1.8769
   88MOL0     H11814   3.147   2.698   9.026  2.3393  3.5203 -0.8136
   88MOL0     H11815   2.949   2.726   8.898 -2.6478  0.8511  0.1463
   88MOL0     H11816   2.840   2.605   8.829 -0.1674 -2.1568  1.4144
   88MOL0     H11817   2.999   2.543   9.071  0.2034 -2.7758 -1.3650
   88MOL0     H11818   2.839   2.612   9.068  0.6603  2.6131 -0.6235
   88MOL0     H11819   2.749   2.424   8.955  0.4496  0.5886 -1.1001
   88MOL0     H11820   2.907   2.368   8.899 -0.1349 -0.7480  0.5355
   88MOL0     H11821   2.949   2.265   9.122 -0.0096  0.5525 -0.1468
   88MOL0     H11822   2.810   2.353   9.195  1.0342  0.3436  0.4712
   88MOL0     H11823   2.653   2.221   9.070  0.3215 -0.0635  2.6259
   88MOL0     H11824   2.776   2.127   8.985  2.1041  0.1543  0.1235
   88MOL0     H11825   2.876   2.065   9.220  0.0869  1.1717  1.6133
   88MOL0     H11826   2.736   2.141   9.287 -5.0126 -4.1249  0.4178
   88MOL0     H11827   2.719   1.896   9.275 -0.8557  0.1128  0.2915
   88MOL0     H11828   2.590   2.005   9.207 -0.1162  1.4995  0.4777
   88MOL0     H11829   2.792   1.857   9.031 -1.1691 -2.2893  0.4865
   88MOL0     H11830   2.653   1.948   8.985  0.3756 -0.4607 -0.6153
   88MOL0     H11831   2.647   1.712   8.848  1.8114 -0.0921  0.9524
   88MOL0     H11832   2.459   1.466   8.803 -0.5305  2.2405 -0.5294
   88MOL0     H11833   2.439   1.408   8.953  0.0827  0.3544 -0.3206
   88MOL0     H11834   2.219   1.547   8.981 -2.4059  0.5835 -0.5764
   88MOL0     H11835   2.219   1.463   8.817  3.4251  1.9908 -2.8152
   88MOL0     H11836   2.305   1.664   8.728  3.3886 -0.8786  1.2943
   88MOL0     H11837   2.273   1.734   8.891  0.8263 -0.9006  1.6131
   88MOL0     H11838   2.071   1.776   8.776 -1.4770 -0.7698 -2.0819
   88MOL0     H11839   2.024   1.638   8.868  0.1747 -0.2413  0.5026
   88MOL0     H11840   2.011   1.515   8.439 -1.5425 -0.9324 -0.5292
   88MOL0     H11841   1.762   1.584   8.183 -0.6791  2.2412  1.5195
   88MOL0     H11842   1.927   1.549   8.215  0.8592  2.8823  1.7204
   88MOL0     H11843   1.800   1.429   8.273  1.7406  0.0260 -0.7893
   88MOL0     H11844   1.358   1.985   8.562 -2.7659 -0.0011  3.9312
   88MOL0     H11845   1.109   1.976   8.588 -0.1024 -0.8466  0.7281
   88MOL0     H11846   0.901   1.858   8.338 -0.9527  1.0880  1.2166
   88MOL0     H11847   0.914   1.682   8.323  0.8568  1.0665 -0.4661
   88MOL0     H11848   0.684   1.749   8.330  0.2915  1.6763 -0.5882
   88MOL0     H11849   0.726   1.656   8.474  2.5528 -0.0412 -0.8657
   88MOL0     H11850   0.723   1.959   8.460  1.1110  0.3330  1.2601
   88MOL0     H11851   0.712   1.859   8.606 -0.6597 -3.6335 -0.5075
   88MOL0     H11852   0.496   1.975   8.511 -2.3462 -0.1419  0.1264
   88MOL0     H11853   0.486   1.856   8.390 -1.4957  0.6388  0.4277
   88MOL0     H11854   0.497   1.753   8.691  0.9692 -1.4540 -1.3434
   88MOL0     H11855   0.472   1.674   8.551  2.0939 -0.1934  0.3459
   88MOL0     H11856   0.271   1.878   8.645  1.5864  0.8265  1.2983
   88MOL0     H11857   0.267   1.782   8.496 -0.3705 -0.8740  0.1611
   88MOL0     H11858   0.287   1.649   8.766  4.7311 -2.3262 -3.2718
   88MOL0     H11859   0.239   1.570   8.622  0.0715 -1.3035  1.3467
   88MOL0     H11860   0.012   1.696   8.609 -2.9605  4.0710  3.2687
   88MOL0     H11861   0.058   1.777   8.757  0.5943  0.4080 -0.3972
   88MOL0     H11862   1.119   1.579   8.411  0.1800 -0.3468  0.2718
   88MOL0     H11863   1.354   1.608   8.358  1.1479 -0.9471  2.7593
   88MOL0     H11864   1.655   1.804   8.609 -0.5145 -1.0387  1.2020
   88MOL0     H11865   1.842   1.786   8.730 -0.7975  1.0010 -1.5360
   88MOL0     H11866   3.242   2.418   8.709 -0.4749  1.1527 -0.2571
   88MOL0     H11867   3.480   2.441   8.760 -0.6825 -2.0373  0.3791
   88MOL0     H11868   3.719   2.770   9.069 -0.1672 -0.6105 -1.2554
   88MOL0     H11869   3.934   2.836   9.194 -0.9508  0.3402 -0.4940
   88MOL0     H11870   4.261   2.562   9.156  2.1400 -1.2586 -1.6085
   88MOL0     H11871   4.335   2.660   9.030  0.9903  1.4857 -0.8519
   88MOL0     H11872   4.482   2.603   9.210  2.6955  1.6245 -0.8669
   88MOL0     H11873   4.384   2.709   9.320  3.5164 -0.8857  0.6912
   88MOL0     H11874   4.434   2.902   9.152  1.6185  1.3296 -0.8428
   88MOL0     H11875   4.539   2.796   9.068  1.7632 -2.1310  1.7826
   88MOL0     H11876   4.556   2.857   9.367  0.2902 -0.3829 -0.1089
   88MOL0     H11877   4.633   2.957   9.237 -0.0822  0.0566  0.2987
   88MOL0     H11878   4.875   2.606   9.312 -0.3688  1.3025  1.0913
   88MOL0     H11879   4.158   2.568   8.952  1.1005  0.2760 -0.3561
   88MOL0     H11880   3.939   2.526   8.810 -0.9621  0.9592 -0.3720
   89MOL0     O11881   5.463   3.321   3.779 -0.4784  0.0759  0.4632
   89MOL0     C11882   5.471   3.220   3.844  0.5332  0.0515 -0.1643
   89MOL0     O11883   5.362   3.137   3.884 -0.3436  0.2588 -0.0695
   89MOL0     C11884   5.234   3.188   3.894  0.1960 -0.3405  0.2419
   89MOL0     C11885   5.175   3.176   4.024  0.1679 -0.2698  0.1111
   89MOL0     C11886   5.047   3.232   4.033  0.6080  0.3739  0.0231
   89MOL0     C11887   4.972   3.299   3.936  0.2277 -0.6472  0.6163
   89MOL0     O11888   4.852   3.361   3.962  0.2337 -0.3230 -0.4654
   89MOL0     C11889   4.780   3.419   3.856  0.2376  0.3172  0.3438
   89MOL0     C11890   4.647   3.451   3.925  0.3639 -0.3941 -0.4280
   89MOL0     C11891   4.538   3.473   3.820  0.0515  0.3319  0.1420
   89MOL0     C11892   4.397   3.489   3.892 -0.4491  0.5304 -0.0560
   89MOL0     C11893   4.280   3.522   3.793  0.0870  0.5199 -0.0534
   89MOL0     C11894   4.166   3.575   3.872  0.4674 -0.3981 -0.2448
   89MOL0     C11895   4.056   3.636   3.773 -0.1031 -0.4059  0.1311
   89MOL0     C11896   3.932   3.679   3.855 -0.0763  0.8098 -0.5238
   89MOL0     N11897   3.820   3.718   3.771 -0.0733  0.7128  0.3206
   89MOL0     C11898   3.827   3.813   3.671 -0.1805 -0.6833 -0.8052
   89MOL0     C11899   3.706   3.807   3.609  0.6493 -0.1585 -0.0646
   89MOL0     C11900   3.653   3.906   3.502 -0.3277 -0.5955  0.4757
   89MOL0     C11901   3.551   4.005   3.567  0.5521 -0.0191 -0.5921
   89MOL0     C11902   3.523   4.126   3.479  0.3005  0.5610 -0.2949
   89MOL0     C11903   3.402   4.195   3.525  0.3767 -0.9501 -0.0176
   89MOL0     O11904   3.351   4.267   3.412 -0.1736 -0.2882  0.0921
   89MOL0     C11905   3.224   4.309   3.411 -0.4696  0.0275 -0.3508
   89MOL0     C11906   3.131   4.290   3.513 -0.8912  0.4309 -0.0438
   89MOL0     C11907   3.007   4.345   3.512  0.7105 -0.3810 -0.0758
   89MOL0     C11908   2.924   4.310   3.633  0.6970 -0.5498  0.0234
   89MOL0     C11909   2.960   4.412   3.393 -0.5605 -0.0221  0.1476
   89MOL0     C11910   2.819   4.464   3.369  0.3944 -0.5603 -0.8469
   89MOL0     O11911   2.809   4.559   3.275 -0.6818 -0.9719  0.7191
   89MOL0     C11912   2.699   4.646   3.263 -0.1635  0.5007 -1.4065
   89MOL0     C11913   2.645   4.706   3.383  0.1756 -0.0756  0.3937
   89MOL0     C11914   2.546   4.806   3.372  0.8876  0.2156 -0.4010
   89MOL0     C11915   2.502   4.841   3.247  0.9185 -0.3212  0.4137
   89MOL0     O11916   2.387   4.919   3.232  0.0971  0.2986 -0.0352
   89MOL0     C11917   2.385   5.052   3.297 -0.1512  0.7922  0.9316
   89MOL0     C11918   2.283   5.049   3.402 -0.5623  0.2445  0.3040
   89MOL0     C11919   2.138   5.051   3.354  0.0924  0.1609  0.3237
   89MOL0     C11920   2.045   5.090   3.463  0.2712 -0.6844  0.1345
   89MOL0     C11921   1.902   5.054   3.427 -0.2881  0.4055  0.0694
   89MOL0     C11922   1.796   5.107   3.526  0.7811  0.2503 -0.2037
   89MOL0     C11923   1.655   5.090   3.475  0.3401  0.4438 -0.2349
   89MOL0     C11924   1.617   5.183   3.364  0.6142  1.1435 -0.1505
   89MOL0    Cl11925   1.442   5.150   3.312 -0.4565 -0.0258  0.1144
   89MOL0     C11926   2.552   4.785   3.124  0.1610 -0.1889 -0.1589
   89MOL0     C11927   2.651   4.692   3.139  0.8050  0.2264  0.5339
   89MOL0     O11928   2.723   4.437   3.442  0.1611 -0.3301 -0.1333
   89MOL0     C11929   3.050   4.432   3.289 -0.0677  0.1123 -0.4375
   89MOL0     C11930   3.181   4.391   3.304 -0.6953  0.2564  0.4651
   89MOL0     N11931   3.631   3.714   3.667  0.7545  0.2945 -0.0210
   89MOL0     N11932   3.701   3.659   3.763  0.5553  0.4102  0.6192
   89MOL0     C11933   5.038   3.306   3.811  0.6527  1.1895  0.1776
   89MOL0     C11934   5.168   3.260   3.793 -0.5381  0.2991  0.4969
   89MOL0     C11935   5.612   3.171   3.868 -0.2848  0.6266 -0.5532
   89MOL0     C11936   5.641   3.106   3.991 -1.0590  0.3187  0.2492
   89MOL0     C11937   5.774   3.102   4.041  0.1641  0.3024  0.0514
   89MOL0     C11938   5.873   3.146   3.955  0.8143  0.2501 -0.1794
   89MOL0     O11939   6.003   3.134   3.980 -0.3771 -0.4776  0.1384
   89MOL0     C11940   6.053   3.090   4.099  0.1125 -0.0586 -0.3521
   89MOL0     C11941   6.200   3.097   4.104 -0.5214 -0.0181 -0.7732
   89MOL0     C11942   6.256   3.234   4.112 -0.0217 -0.5142  0.0359
   89MOL0     C11943   6.411   3.231   4.127  0.5110 -0.0618 -0.4287
   89MOL0     C11944   6.453   3.357   4.075 -0.1705 -0.3405 -0.2274
   89MOL0     C11945   6.484   3.463   4.019  0.7646 -0.4955 -0.3124
   89MOL0     C11946   5.849   3.193   3.832  0.0233 -0.6506 -0.5780
   89MOL0     C11947   5.714   3.206   3.790 -0.5813 -0.5097 -1.4560
   89MOL0     H11948   5.229   3.131   4.107  1.1158 -0.8488 -0.7984
   89MOL0     H11949   4.989   3.220   4.124 -0.8891 -2.4573 -1.1864
   89MOL0     H11950   4.832   3.507   3.817  2.2394 -1.3315 -0.9696
   89MOL0     H11951   4.765   3.347   3.775  0.1492 -1.3084  1.7513
   89MOL0     H11952   4.605   3.368   3.983 -1.5950  0.7265 -0.1368
   89MOL0     H11953   4.659   3.535   3.995  0.9834 -1.1178  0.3639
   89MOL0     H11954   4.561   3.561   3.759  2.0990  1.5852  2.5626
   89MOL0     H11955   4.531   3.381   3.760 -0.8508  0.1033  0.5703
   89MOL0     H11956   4.374   3.393   3.940 -0.3586  0.8184  0.5653
   89MOL0     H11957   4.407   3.558   3.976 -1.3513  2.0190 -1.1365
   89MOL0     H11958   4.321   3.583   3.712  1.1187 -1.5440 -1.1810
   89MOL0     H11959   4.239   3.435   3.740 -2.0540  1.5737 -0.2201
   89MOL0     H11960   4.123   3.491   3.927  0.8771 -0.2059  0.3778
   89MOL0     H11961   4.203   3.648   3.944  0.2428  2.2188 -2.5851
   89MOL0     H11962   4.093   3.722   3.716 -0.3833 -1.5513 -1.8663
   89MOL0     H11963   4.037   3.562   3.695 -1.9857 -0.3972  0.5183
   89MOL0     H11964   3.944   3.764   3.924 -2.5575  0.6556  0.2060
   89MOL0     H11965   3.894   3.601   3.922 -0.5218  0.5809 -1.0362
   89MOL0     H11966   3.905   3.888   3.661 -1.0716  0.3652 -0.0972
   89MOL0     H11967   3.738   3.951   3.449 -2.3995 -0.3830 -2.9879
   89MOL0     H11968   3.602   3.855   3.420  0.1944 -1.7317  0.8353
   89MOL0     H11969   3.593   4.040   3.661  0.2845  1.4204 -0.9776
   89MOL0     H11970   3.464   3.943   3.589 -0.8143  1.4207 -1.7264
   89MOL0     H11971   3.506   4.104   3.373  0.6939 -4.9342  0.5000
   89MOL0     H11972   3.602   4.200   3.490  0.7826  0.2489 -1.4377
   89MOL0     H11973   3.417   4.259   3.612  0.5018 -0.1465 -0.6188
   89MOL0     H11974   3.325   4.120   3.546  0.0992 -0.6065  0.1989
   89MOL0     H11975   3.171   4.237   3.599  0.3977 -0.6906 -1.2845
   89MOL0     H11976   2.873   4.400   3.668 -1.3895 -1.1619 -1.3009
   89MOL0     H11977   2.847   4.240   3.600  0.0227 -0.9094  2.1759
   89MOL0     H11978   2.987   4.264   3.710  0.7595 -1.7960 -0.7469
   89MOL0     H11979   2.677   4.696   3.486 -1.1199  0.0922  0.8340
   89MOL0     H11980   2.510   4.845   3.467  0.8755  1.5633 -0.9308
   89MOL0     H11981   2.477   5.098   3.334 -0.1025  0.7419  0.8750
   89MOL0     H11982   2.365   5.125   3.218 -0.2443  1.1033  1.2436
   89MOL0     H11983   2.305   4.966   3.470  3.6016  1.2583  0.4607
   89MOL0     H11984   2.284   5.143   3.459 -0.1933 -0.0219  0.7443
   89MOL0     H11985   2.111   4.953   3.313 -0.8880  0.2347  0.7734
   89MOL0     H11986   2.127   5.125   3.275 -2.2785 -1.3852 -0.8863
   89MOL0     H11987   2.074   5.045   3.558 -0.6218  1.4265  1.4774
   89MOL0     H11988   2.069   5.195   3.485 -0.5734 -0.7958  1.7097
   89MOL0     H11989   1.889   4.946   3.415  2.6142 -0.0176 -0.0764
   89MOL0     H11990   1.888   5.090   3.325 -1.0505  1.0184  0.3856
   89MOL0     H11991   1.813   5.055   3.620  0.0061 -2.1105 -1.2993
   89MOL0     H11992   1.808   5.216   3.536 -1.6283  0.5251  0.4669
   89MOL0     H11993   1.588   5.105   3.560  2.4839 -1.2036  1.8903
   89MOL0     H11994   1.640   4.986   3.445 -1.6718  1.2095 -2.1091
   89MOL0     H11995   1.679   5.161   3.278  2.2239  0.2972  1.1655
   89MOL0     H11996   1.627   5.282   3.409  2.1615  0.8355  0.2304
   89MOL0     H11997   2.519   4.800   3.022  0.3629  2.0533  0.0461
   89MOL0     H11998   2.693   4.644   3.051  1.2245  0.5318  0.5642
   89MOL0     H11999   3.013   4.472   3.195  0.0185 -2.7418 -1.7985
   89MOL0     H12000   3.254   4.401   3.224  0.0383 -0.6101  0.9994
   89MOL0     H12001   4.992   3.353   3.724 -1.1438 -0.0421  0.3939
   89MOL0     H12002   5.222   3.282   3.702 -0.9457 -0.2297  0.1197
   89MOL0     H12003   5.560   3.068   4.053 -0.5621 -2.7787 -0.8491
   89MOL0     H12004   5.809   3.068   4.138  1.9008  0.3931 -0.4948
   89MOL0     H12005   6.029   3.148   4.189  1.0071  0.4281 -0.4181
   89MOL0     H12006   6.025   2.984   4.097 -2.9785  0.6130  0.5773
   89MOL0     H12007   6.240   3.055   4.011  0.6076  0.8497 -0.7047
   89MOL0     H12008   6.242   3.038   4.186 -0.2358  1.7647  0.4222
   89MOL0     H12009   6.220   3.286   4.201  0.6696  1.1345 -0.6135
   89MOL0     H12010   6.223   3.294   4.027 -2.5085 -0.3756  1.0136
   89MOL0     H12011   6.455   3.148   4.071 -0.5284 -0.6097 -0.4676
   89MOL0     H12012   6.432   3.222   4.234  1.0195  1.9388 -0.3341
   89MOL0     H12013   6.505   3.551   3.961 -0.0331  0.3174  0.6009
   89MOL0     H12014   5.932   3.229   3.773 -0.2405 -0.6300 -0.9461
   89MOL0     H12015   5.698   3.259   3.697  0.9746 -1.4329 -2.3010
   90MOL0     O12016   1.446  11.054   9.645  0.7089 -0.5983  0.5965
   90MOL0     C12017   1.525  11.010   9.568  1.2676  0.0308  0.0543
   90MOL0     O12018   1.504  10.969   9.445 -0.3762  0.0265  0.3599
   90MOL0     C12019   1.383  10.989   9.378 -0.3547 -0.3381 -0.0179
   90MOL0     C12020   1.391  11.022   9.231  0.9189 -0.1432 -0.2647
   90MOL0     C12021   1.274  11.019   9.153  0.8369 -0.6129 -0.0819
   90MOL0     C12022   1.152  10.992   9.221  0.1804 -0.0504 -0.5220
   90MOL0     O12023   1.023  10.993   9.167  0.4039  0.4833  0.5597
   90MOL0     C12024   1.014  11.039   9.028 -0.1428 -0.2179  0.2815
   90MOL0     C12025   0.873  11.096   9.022  0.1696 -0.3793  1.3288
   90MOL0     C12026   0.775  10.995   8.962  0.2308  0.1808 -0.4891
   90MOL0     C12027   0.749  10.880   9.058 -0.3335 -0.1771  0.3602
   90MOL0     C12028   0.628  10.793   9.017  0.4458 -0.0410 -0.7401
   90MOL0     C12029   0.599  10.686   9.129  0.0256 -0.0506  0.3138
   90MOL0     C12030   0.468  10.607   9.120 -0.1873  0.1647 -0.3358
   90MOL0     C12031   0.449  10.535   8.989  0.6154 -0.8378  0.4676
   90MOL0     N12032   0.317  10.456   9.010 -0.3581  0.1766  0.5889
   90MOL0     C12033   0.206  10.453   8.925 -0.3598  0.7417  0.4917
   90MOL0     C12034   0.117  10.365   8.985  0.5655 -1.2665  0.5483
   90MOL0     C12035  -0.024  10.331   8.941  0.1911  0.4685 -0.7895
   90MOL0     C12036  -0.139  10.371   9.040 -0.4440  0.3479  0.7165
   90MOL0     C12037  -0.102  10.311   9.183  0.8706 -0.1512 -0.3190
   90MOL0     C12038  -0.220  10.295   9.273 -0.7263 -0.0288 -1.0482
   90MOL0     O12039  -0.318  10.216   9.215 -0.3761 -0.3150 -0.1814
   90MOL0     C12040  -0.440  10.211   9.263 -0.4058 -0.4778  0.1592
   90MOL0     C12041  -0.479  10.255   9.392  0.6793 -0.9165  0.3621
   90MOL0     C12042  -0.614  10.255   9.429  0.0034 -0.2641  0.0347
   90MOL0     C12043  -0.637  10.312   9.561  0.1135  0.3191  0.4129
   90MOL0     C12044  -0.720  10.230   9.335 -0.1051 -0.5150  0.6741
   90MOL0     C12045  -0.867  10.233   9.371 -0.0625  0.1979 -0.7933
   90MOL0     O12046  -0.952  10.219   9.266 -0.1807  0.0034  1.0721
   90MOL0     C12047  -1.073  10.152   9.282 -0.4504  0.1608 -0.4691
   90MOL0     C12048  -1.103  10.053   9.376 -0.5384  0.3994  0.4924
   90MOL0     C12049  -1.218   9.970   9.372 -0.9814 -0.6731 -0.0770
   90MOL0     C12050  -1.312  10.008   9.274 -0.1463  0.7528  0.0823
   90MOL0     O12051  -1.432   9.948   9.281  0.2480 -0.3174 -0.4055
   90MOL0     C12052  -1.550  10.018   9.287 -0.0001  0.1683  0.5506
   90MOL0     C12053  -1.648   9.940   9.367  0.6434 -0.2666  0.3475
   90MOL0     C12054  -1.785  10.017   9.370  0.5758 -0.0443  0.6085
   90MOL0     C12055  -1.886   9.968   9.467  0.6169  0.2302 -0.6536
   90MOL0     C12056  -2.024  10.034   9.462  0.4772  0.7804 -0.0809
   90MOL0     C12057  -2.123   9.971   9.563 -0.2285 -0.3787  0.0809
   90MOL0     C12058  -2.085  10.000   9.713 -0.4470 -0.3174  0.2002
   90MOL0     C12059  -2.199   9.973   9.812  0.0633 -0.3712 -0.4946
   90MOL0    Cl12060  -2.319  10.106   9.795  0.2672  0.1253 -0.0801
   90MOL0     C12061  -1.278  10.099   9.171  1.3517  0.2841 -0.5199
   90MOL0     C12062  -1.162  10.174   9.184  0.0083  0.2126  0.7631
   90MOL0     O12063  -0.907  10.248   9.487 -0.1827 -0.4196  0.2886
   90MOL0     C12064  -0.675  10.201   9.204  0.8239  0.1936  0.3170
   90MOL0     C12065  -0.539  10.187   9.172 -0.0032  0.1944  0.0666
   90MOL0     N12066   0.179  10.312   9.100  0.0825  0.3782  0.4747
   90MOL0     N12067   0.297  10.370   9.111  0.1105  0.8038  0.2380
   90MOL0     C12068   1.146  10.962   9.358 -0.2050  0.2132  0.7443
   90MOL0     C12069   1.260  10.955   9.432  0.9088 -0.4349 -0.5871
   90MOL0     C12070   1.667  11.007   9.612 -0.0735 -0.3648 -0.1374
   90MOL0     C12071   1.770  11.011   9.519  0.2265  0.7780  1.3673
   90MOL0     C12072   1.905  11.012   9.553  0.6340 -0.3085 -0.2122
   90MOL0     C12073   1.938  11.012   9.694 -0.7126  1.2735  0.6975
   90MOL0     O12074   2.065  11.027   9.741 -0.3554 -0.0093 -0.7004
   90MOL0     C12075   2.184  11.003   9.655  0.0417  0.3625  0.1968
   90MOL0     C12076   2.317  10.984   9.726  0.8889 -0.1283 -0.6401
   90MOL0     C12077   2.318  10.880   9.838 -0.1020 -0.0851 -0.4386
   90MOL0     C12078   2.460  10.852   9.889 -0.6928 -0.6402  0.2213
   90MOL0     C12079   2.493  10.955   9.986 -0.3625 -0.0430  0.3344
   90MOL0     C12080   2.526  11.040  10.058  0.3325 -0.4275  0.4429
   90MOL0     C12081   1.832  11.032   9.785 -0.2231  0.4827 -0.3131
   90MOL0     C12082   1.703  11.015   9.752  0.5061  0.2108  0.1247
   90MOL0     H12083   1.488  11.046   9.189  0.7146 -1.5789 -1.6280
   90MOL0     H12084   1.279  11.043   9.047  2.5955  3.9253  0.8048
   90MOL0     H12085   1.085  11.120   9.008 -0.5060 -0.4875 -2.4792
   90MOL0     H12086   1.029  10.967   8.948 -0.7590 -0.0638  0.0218
   90MOL0     H12087   0.840  11.132   9.120 -0.9147 -1.0874  1.2375
   90MOL0     H12088   0.876  11.176   8.948 -1.9407 -0.8772  0.6466
   90MOL0     H12089   0.689  11.062   8.960  2.5752  3.4196 -0.9252
   90MOL0     H12090   0.802  10.959   8.862 -0.4365  3.0782 -1.8105
   90MOL0     H12091   0.845  10.829   9.068 -0.0189 -0.4392 -2.8601
   90MOL0     H12092   0.726  10.927   9.154  1.8772  2.7003 -0.4096
   90MOL0     H12093   0.534  10.849   9.006 -0.6511 -1.5924  0.2917
   90MOL0     H12094   0.656  10.746   8.923 -3.3506 -0.0178 -2.0428
   90MOL0     H12095   0.677  10.610   9.121  0.9314  0.8724  0.0605
   90MOL0     H12096   0.604  10.734   9.227 -0.0939  1.4756 -0.4013
   90MOL0     H12097   0.463  10.533   9.200  0.1698  0.0365 -0.4325
   90MOL0     H12098   0.385  10.673   9.148 -0.0263  0.0155  0.5133
   90MOL0     H12099   0.524  10.459   8.967  0.1461 -1.5302  1.1767
   90MOL0     H12100   0.434  10.609   8.910 -0.3941  0.3109  1.6873
   90MOL0     H12101   0.192  10.518   8.839 -3.0062  1.2678  1.2488
   90MOL0     H12102  -0.036  10.376   8.842  0.0832  0.7992 -0.6289
   90MOL0     H12103  -0.035  10.223   8.928  1.7021  0.3268 -1.1062
   90MOL0     H12104  -0.226  10.320   8.997 -0.5175  0.3250  0.8909
   90MOL0     H12105  -0.151  10.479   9.053  3.0327  0.7553  1.5999
   90MOL0     H12106  -0.040  10.387   9.231 -0.2624  1.0552 -0.7151
   90MOL0     H12107  -0.052  10.214   9.173  0.7112 -0.0699 -2.1729
   90MOL0     H12108  -0.257  10.396   9.294  2.6711  0.8899  1.2151
   90MOL0     H12109  -0.178  10.252   9.364  2.0529  4.1561 -0.0970
   90MOL0     H12110  -0.397  10.288   9.455 -0.3131 -3.2050  3.0498
   90MOL0     H12111  -0.543  10.355   9.596  1.5103 -1.2883 -1.1563
   90MOL0     H12112  -0.720  10.382   9.557 -0.6929 -0.6580 -0.9121
   90MOL0     H12113  -0.655  10.232   9.634 -0.0681  1.3698  1.5421
   90MOL0     H12114  -1.034  10.019   9.453  1.3962 -1.4571 -1.9015
   90MOL0     H12115  -1.220   9.890   9.444  1.2360 -0.6839  0.0300
   90MOL0     H12116  -1.534  10.118   9.330  1.9943 -0.9294  2.5699
   90MOL0     H12117  -1.589  10.014   9.185 -0.0766  3.2911  0.3626
   90MOL0     H12118  -1.661   9.838   9.329  0.6105 -0.8123  1.7550
   90MOL0     H12119  -1.608   9.931   9.468  1.3553  0.1219  0.1101
   90MOL0     H12120  -1.822  10.028   9.268 -0.6076  0.5788  1.0898
   90MOL0     H12121  -1.760  10.122   9.387  1.7216  0.6288 -4.0172
   90MOL0     H12122  -1.904   9.861   9.457  0.0935  0.3406 -0.9368
   90MOL0     H12123  -1.830   9.988   9.559  4.5814 -2.1333 -2.2659
   90MOL0     H12124  -2.061  10.020   9.360 -2.6263  1.3129  0.8552
   90MOL0     H12125  -2.009  10.140   9.481  0.1985  0.4352  2.4469
   90MOL0     H12126  -2.222  10.012   9.538 -0.1740 -0.7992 -0.8753
   90MOL0     H12127  -2.127   9.863   9.552 -0.5214 -0.4926  1.1879
   90MOL0     H12128  -2.068  10.108   9.715  1.0383 -0.5216  0.0582
   90MOL0     H12129  -1.995   9.949   9.747  1.1466  0.6625 -2.2644
   90MOL0     H12130  -2.165   9.965   9.916  0.4670  3.0558 -0.2238
   90MOL0     H12131  -2.243   9.877   9.786 -0.8425  0.1936 -1.1210
   90MOL0     H12132  -1.352  10.121   9.095 -0.6233  3.1597  1.9846
   90MOL0     H12133  -1.139  10.239   9.100 -0.5163 -0.6314 -0.0456
   90MOL0     H12134  -0.755  10.167   9.139  0.2768 -4.7527  3.0386
   90MOL0     H12135  -0.501  10.162   9.073 -0.5484  0.3127 -0.1719
   90MOL0     H12136   1.051  10.935   9.403 -0.8932 -1.3836 -1.5009
   90MOL0     H12137   1.254  10.925   9.536  0.0402 -3.8429 -1.4567
   90MOL0     H12138   1.753  11.015   9.412  2.2005  0.2576  0.9827
   90MOL0     H12139   1.972  11.015   9.468 -1.1649 -1.0080 -1.7175
   90MOL0     H12140   2.157  10.915   9.595 -2.9259  1.2514  0.0399
   90MOL0     H12141   2.187  11.085   9.583  0.2057  0.2849  0.1149
   90MOL0     H12142   2.347  11.081   9.769 -0.8410  0.0687  0.1632
   90MOL0     H12143   2.393  10.956   9.652  0.9222 -0.4630 -0.4780
   90MOL0     H12144   2.272  10.792   9.791 -0.9319 -0.1585  0.4953
   90MOL0     H12145   2.251  10.903   9.921  0.9166 -1.4295  0.8120
   90MOL0     H12146   2.537  10.856   9.811  0.6287 -1.0150  1.4694
   90MOL0     H12147   2.460  10.757   9.944  2.6342  1.1023  3.6867
   90MOL0     H12148   2.559  11.122  10.118 -1.4935  0.5428  0.1737
   90MOL0     H12149   1.868  11.043   9.888  4.1352  2.2390 -1.7593
   90MOL0     H12150   1.620  11.008   9.822 -2.4154 -3.1702 -3.2400
   91MOL0     O12151   6.501   7.759   0.237 -0.0836 -0.2082 -0.1879
   91MOL0     C12152   6.568   7.655   0.245  0.2858 -0.1949 -0.0808
   91MOL0     O12153   6.608   7.590   0.357 -0.4284  0.1767  0.1065
   91MOL0     C12154   6.593   7.657   0.477 -0.2287 -0.1292 -0.4034
   91MOL0     C12155   6.642   7.787   0.507  0.0870  0.8568  0.0086
   91MOL0     C12156   6.616   7.852   0.631 -0.2590  0.5796  0.0296
   91MOL0     C12157   6.528   7.783   0.715  0.7676  0.4719 -0.1141
   91MOL0     O12158   6.466   7.833   0.831 -0.1474  0.6257 -0.1385
   91MOL0     C12159   6.550   7.935   0.896 -0.5984  0.8852 -0.7331
   91MOL0     C12160   6.509   7.967   1.041  0.2504  0.4503  0.5994
   91MOL0     C12161   6.616   8.060   1.100  0.0721  0.3958 -0.4987
   91MOL0     C12162   6.612   8.209   1.049  0.3162  0.8490  0.4399
   91MOL0     C12163   6.747   8.261   1.098  0.7892 -0.3298  0.5863
   91MOL0     C12164   6.747   8.415   1.087 -0.2127 -0.8090  0.2983
   91MOL0     C12165   6.885   8.473   1.123 -0.7423  0.0537 -0.1376
   91MOL0     C12166   6.886   8.615   1.078 -0.1255  0.2753  0.5252
   91MOL0     N12167   7.021   8.673   1.065  0.1222 -0.5381 -0.3564
   91MOL0     C12168   7.086   8.726   1.167 -1.0510 -0.3011  0.2706
   91MOL0     C12169   7.202   8.788   1.128  0.2799  0.3376 -0.2220
   91MOL0     C12170   7.281   8.884   1.207  0.4090 -0.8164  0.1431
   91MOL0     C12171   7.279   9.023   1.137 -0.8195 -0.1620 -0.9957
   91MOL0     C12172   7.167   9.126   1.186 -0.0398 -0.7566 -0.1467
   91MOL0     C12173   7.018   9.086   1.175  0.2946  0.8324  0.2966
   91MOL0     O12174   6.981   9.088   1.031  0.6089 -0.9782  0.3812
   91MOL0     C12175   6.869   9.015   0.994 -0.7673  0.5893 -0.2241
   91MOL0     C12176   6.858   8.951   0.868  0.1957 -0.1377  0.0389
   91MOL0     C12177   6.748   8.875   0.830  0.1617  0.4440 -1.1067
   91MOL0     C12178   6.751   8.808   0.694 -1.5303  0.4720 -0.2137
   91MOL0     C12179   6.654   8.849   0.929 -0.4811  0.4906 -0.8878
   91MOL0     C12180   6.548   8.744   0.898  0.9129  0.6919 -0.6413
   91MOL0     O12181   6.462   8.756   0.789  0.2074  0.1311  0.4553
   91MOL0     C12182   6.390   8.638   0.775 -0.5312  0.2638 -0.5096
   91MOL0     C12183   6.453   8.515   0.761  0.0796  0.4821 -0.6578
   91MOL0     C12184   6.372   8.397   0.761  0.3993  0.3325  0.5375
   91MOL0     C12185   6.228   8.396   0.784  0.2448 -0.2794 -0.0402
   91MOL0     O12186   6.144   8.284   0.785 -0.3033 -0.1534 -0.5355
   91MOL0     C12187   6.217   8.155   0.775 -0.4290 -0.2577  0.3019
   91MOL0     C12188   6.124   8.030   0.764 -0.1547  0.8494  0.0787
   91MOL0     C12189   6.046   8.012   0.890 -0.8677  0.4538  0.4840
   91MOL0     C12190   5.913   8.082   0.884 -1.0927  0.0726  0.4362
   91MOL0     C12191   5.834   8.045   1.011 -0.1632 -0.0516  0.2155
   91MOL0     C12192   5.706   8.119   1.035 -0.3697 -0.5049  0.4092
   91MOL0     C12193   5.585   8.047   0.984  0.1283 -0.8461  0.3123
   91MOL0     C12194   5.466   8.119   1.044  0.3629 -0.3467  0.1591
   91MOL0    Cl12195   5.328   8.031   0.979 -0.2802  0.0776 -0.0546
   91MOL0     C12196   6.172   8.526   0.790 -0.6979  0.4971  0.0171
   91MOL0     C12197   6.254   8.640   0.785  0.7171 -0.0971 -0.1821
   91MOL0     O12198   6.530   8.680   1.001  0.0160  0.9180 -0.5461
   91MOL0     C12199   6.651   8.916   1.049  0.9419 -0.1163  0.8434
   91MOL0     C12200   6.759   8.991   1.087 -0.4616  0.4788 -0.1372
   91MOL0     N12201   7.203   8.767   0.988 -1.0554  0.0088 -0.4344
   91MOL0     N12202   7.094   8.695   0.954  0.1020  0.0266  0.1142
   91MOL0     C12203   6.503   7.644   0.703  0.6820  0.6989  0.0206
   91MOL0     C12204   6.529   7.589   0.577  0.5474  0.5243  0.2086
   91MOL0     C12205   6.600   7.589   0.117  0.3938 -0.2674  0.4135
   91MOL0     C12206   6.534   7.619  -0.004  0.2328  0.0830 -0.0240
   91MOL0     C12207   6.574   7.553  -0.114 -0.4057 -0.2797 -0.3727
   91MOL0     C12208   6.667   7.448  -0.115 -0.2661  0.4764  0.0303
   91MOL0     O12209   6.707   7.381  -0.228 -1.0095  0.2687  0.0360
   91MOL0     C12210   6.603   7.300  -0.282 -0.2397  0.5977  0.3524
   91MOL0     C12211   6.670   7.199  -0.381  0.4331 -0.3432 -0.3788
   91MOL0     C12212   6.552   7.124  -0.447  0.1710  0.2083 -0.2692
   91MOL0     C12213   6.584   6.992  -0.518 -0.3550 -0.2209 -0.0875
   91MOL0     C12214   6.673   7.004  -0.632  0.1575  0.0465  0.9055
   91MOL0     C12215   6.759   7.029  -0.713 -0.7609 -0.0500 -0.1740
   91MOL0     C12216   6.718   7.415   0.008 -0.0676 -0.1319 -0.2880
   91MOL0     C12217   6.680   7.478   0.123  0.3250  0.7371  1.0003
   91MOL0     H12218   6.696   7.837   0.427  1.3262 -0.3243  0.0676
   91MOL0     H12219   6.642   7.957   0.642 -0.8311  1.2325 -3.5698
   91MOL0     H12220   6.655   7.905   0.911 -1.0946 -0.0879  1.0483
   91MOL0     H12221   6.540   8.026   0.837 -0.4638  1.9392  0.8285
   91MOL0     H12222   6.410   8.011   1.050 -1.0068 -1.4075 -2.6130
   91MOL0     H12223   6.516   7.869   1.090 -0.0743  0.1017 -0.0395
   91MOL0     H12224   6.598   8.057   1.208  1.3610 -0.5757 -0.2921
   91MOL0     H12225   6.710   8.013   1.073  0.0635  0.2170 -0.2210
   91MOL0     H12226   6.608   8.210   0.940  0.1947 -2.0299  0.3285
   91MOL0     H12227   6.525   8.257   1.095 -0.7613  0.2902 -0.9448
   91MOL0     H12228   6.752   8.230   1.203  1.9214 -0.4337  0.5152
   91MOL0     H12229   6.828   8.209   1.046 -0.4840 -1.8966  0.0951
   91MOL0     H12230   6.722   8.434   0.983  2.6507  2.7955  0.0924
   91MOL0     H12231   6.675   8.466   1.152 -0.8331 -0.6704 -0.4838
   91MOL0     H12232   6.903   8.473   1.231  2.2918 -1.6139 -0.5490
   91MOL0     H12233   6.966   8.415   1.077  3.7208  4.7903  0.9044
   91MOL0     H12234   6.811   8.665   1.140 -1.1378  2.3044 -2.1250
   91MOL0     H12235   6.846   8.614   0.976  1.6622 -0.3387 -0.2203
   91MOL0     H12236   7.051   8.715   1.269 -1.4194  1.2565  0.3328
   91MOL0     H12237   7.245   8.907   1.308  1.3220 -0.5532  0.4188
   91MOL0     H12238   7.382   8.845   1.219  1.1638  0.5159 -1.4696
   91MOL0     H12239   7.261   9.012   1.030 -1.7257 -1.7114 -0.7109
   91MOL0     H12240   7.376   9.070   1.158 -0.8366 -0.8380  0.8423
   91MOL0     H12241   7.171   9.220   1.131  1.3100  0.0372  1.2013
   91MOL0     H12242   7.197   9.163   1.285  3.7679  1.8989 -2.0176
   91MOL0     H12243   6.950   9.146   1.236 -1.3806 -0.3601 -0.3226
   91MOL0     H12244   7.003   8.980   1.197 -2.3525  0.6250 -1.9522
   91MOL0     H12245   6.930   8.979   0.792 -0.5037  1.3389 -0.1093
   91MOL0     H12246   6.728   8.701   0.693 -1.3090  0.3510  1.9526
   91MOL0     H12247   6.682   8.859   0.626 -0.3467  0.5025 -1.4324
   91MOL0     H12248   6.852   8.816   0.652  0.3900 -2.3733  3.2688
   91MOL0     H12249   6.561   8.505   0.769  0.1589  2.2606  1.4949
   91MOL0     H12250   6.430   8.307   0.747 -0.4975 -0.3318  0.9864
   91MOL0     H12251   6.285   8.156   0.689 -0.7417  1.7172  0.0237
   91MOL0     H12252   6.274   8.141   0.867  1.8203 -1.8935 -1.2550
   91MOL0     H12253   6.057   8.044   0.678 -1.0649 -2.1277  0.1801
   91MOL0     H12254   6.188   7.943   0.745  0.5366  1.4940 -0.5882
   91MOL0     H12255   6.107   8.045   0.975 -1.2847 -1.3027  1.5326
   91MOL0     H12256   6.029   7.905   0.907  0.2666  0.1189 -0.3981
   91MOL0     H12257   5.926   8.190   0.876 -2.8093  0.1681 -2.5953
   91MOL0     H12258   5.859   8.042   0.798  1.7402 -2.1167 -0.4938
   91MOL0     H12259   5.903   8.070   1.092  0.5484 -0.1688 -0.3449
   91MOL0     H12260   5.806   7.940   1.023 -1.6072  0.5480  2.8417
   91MOL0     H12261   5.686   8.138   1.140 -1.6731 -0.8156  0.2264
   91MOL0     H12262   5.707   8.214   0.980 -2.2620  0.3438  1.7563
   91MOL0     H12263   5.579   7.943   1.016 -2.2262 -0.9344 -0.2138
   91MOL0     H12264   5.576   8.049   0.875  0.8134 -0.2519  0.2604
   91MOL0     H12265   5.470   8.223   1.010  1.2354 -0.3746  0.1506
   91MOL0     H12266   5.460   8.106   1.152 -0.1158 -4.3093 -0.1958
   91MOL0     H12267   6.065   8.543   0.800 -0.7601 -0.6429  1.6400
   91MOL0     H12268   6.198   8.732   0.797  0.8090 -0.1946  1.2129
   91MOL0     H12269   6.575   8.912   1.126  1.1123 -0.1574  1.0105
   91MOL0     H12270   6.757   9.033   1.187  2.7367  1.6015 -0.4227
   91MOL0     H12271   6.454   7.590   0.784  1.4143 -1.4826 -0.9363
   91MOL0     H12272   6.503   7.486   0.555  1.4866  0.3268 -0.0158
   91MOL0     H12273   6.461   7.699  -0.001 -1.9519 -1.7263 -1.3916
   91MOL0     H12274   6.524   7.583  -0.206 -3.3769  0.3947  1.3245
   91MOL0     H12275   6.569   7.238  -0.198  0.8443 -2.5964 -1.3947
   91MOL0     H12276   6.522   7.352  -0.333 -1.0094  0.7256  1.6422
   91MOL0     H12277   6.741   7.132  -0.331 -1.8614 -1.8629  1.0062
   91MOL0     H12278   6.732   7.249  -0.456  0.1259 -0.4670 -0.7187
   91MOL0     H12279   6.507   7.198  -0.514  1.3925  1.2658  0.0228
   91MOL0     H12280   6.483   7.100  -0.367  3.0060 -1.7101  1.8197
   91MOL0     H12281   6.487   6.944  -0.535 -1.5761  2.2618 -0.5892
   91MOL0     H12282   6.639   6.923  -0.453 -2.5323 -0.4007  1.6742
   91MOL0     H12283   6.826   7.047  -0.794 -0.6730 -0.5904 -0.2237
   91MOL0     H12284   6.793   7.338   0.023  2.1463  2.3883  3.3753
   91MOL0     H12285   6.710   7.449   0.223 -3.4174 -0.7145  1.8816
   92MOL0     O12286   8.672   1.850   8.077  0.0703 -0.0504  1.0823
   92MOL0     C12287   8.752   1.881   7.990  0.3744 -0.4695 -0.5612
   92MOL0     O12288   8.736   1.871   7.848 -0.4469  0.3387  0.1816
   92MOL0     C12289   8.612   1.842   7.804  0.1792  0.8103  0.5713
   92MOL0     C12290   8.602   1.759   7.688  0.6620  0.0913 -0.6489
   92MOL0     C12291   8.480   1.737   7.623 -0.1576  0.2919  0.3790
   92MOL0     C12292   8.368   1.811   7.663  0.0739  0.9272  0.2684
   92MOL0     O12293   8.240   1.814   7.606 -0.8249  0.1599 -0.3983
   92MOL0     C12294   8.220   1.733   7.490 -0.2320 -0.3110 -0.0933
   92MOL0     C12295   8.194   1.584   7.514 -0.3894  0.6612 -0.6858
   92MOL0     C12296   8.073   1.559   7.604  0.4093 -0.4528  0.6388
   92MOL0     C12297   8.032   1.411   7.588 -0.4121 -0.1291  0.8484
   92MOL0     C12298   7.900   1.391   7.676 -0.9677 -0.1742  0.1706
   92MOL0     C12299   7.785   1.421   7.589 -0.6412  0.8070 -0.6239
   92MOL0     C12300   7.650   1.413   7.662 -0.2765 -0.0857  0.2016
   92MOL0     C12301   7.613   1.275   7.714 -0.6078  0.2945 -0.4295
   92MOL0     N12302   7.536   1.194   7.614  0.4218 -0.4378  0.8524
   92MOL0     C12303   7.414   1.144   7.646 -0.4678 -0.0914 -0.6680
   92MOL0     C12304   7.392   1.069   7.537 -0.3970  0.0845  0.0625
   92MOL0     C12305   7.271   0.991   7.505 -0.3044 -0.4729  1.1067
   92MOL0     C12306   7.146   1.034   7.579 -0.4316 -0.0599  0.0787
   92MOL0     C12307   7.084   1.170   7.541  0.8005 -1.2496  0.8939
   92MOL0     C12308   6.940   1.173   7.591 -0.0903 -0.0441  0.5734
   92MOL0     O12309   6.870   1.300   7.570 -0.7798  0.5949 -0.2632
   92MOL0     C12310   6.736   1.317   7.601  0.3951  0.5904 -0.1499
   92MOL0     C12311   6.649   1.204   7.606  0.3383 -0.3451  0.7808
   92MOL0     C12312   6.511   1.220   7.625  0.0595 -0.3079  0.7576
   92MOL0     C12313   6.424   1.100   7.619 -0.2049  0.3391  0.2613
   92MOL0     C12314   6.453   1.353   7.648  0.5143 -1.0533 -0.1517
   92MOL0     C12315   6.313   1.388   7.694 -0.5210  0.4229  0.3868
   92MOL0     O12316   6.281   1.526   7.693  0.4971  0.0512 -0.3276
   92MOL0     C12317   6.154   1.558   7.742  0.0050 -1.6188  0.8880
   92MOL0     C12318   6.110   1.529   7.865  0.2780 -1.0449 -0.1192
   92MOL0     C12319   5.983   1.555   7.901 -0.0511  0.1934 -0.4541
   92MOL0     C12320   5.901   1.630   7.817 -0.0680  0.1065  0.3220
   92MOL0     O12321   5.774   1.675   7.845  0.0939 -0.2285 -0.2626
   92MOL0     C12322   5.710   1.639   7.964  0.0546  0.2184  0.2461
   92MOL0     C12323   5.592   1.732   7.985 -0.4117 -0.5188 -0.1262
   92MOL0     C12324   5.465   1.698   7.906 -0.2399  0.2454 -0.2800
   92MOL0     C12325   5.337   1.762   7.962 -0.1212  0.2436  0.1722
   92MOL0     C12326   5.224   1.775   7.856  0.5140 -0.7907  0.4143
   92MOL0     C12327   5.100   1.872   7.901  0.5775  1.1877  0.1620
   92MOL0     C12328   5.022   1.822   8.023  0.2308 -0.0176 -0.5325
   92MOL0     C12329   5.001   1.935   8.132  0.0563  0.0297 -0.8993
   92MOL0    Cl12330   5.060   1.879   8.290 -0.3193  0.0891 -0.2059
   92MOL0     C12331   5.948   1.678   7.697  0.0858 -0.0966 -0.7684
   92MOL0     C12332   6.071   1.639   7.661  0.2124  0.6089 -0.1002
   92MOL0     O12333   6.232   1.303   7.722  0.7680  0.2993 -0.8447
   92MOL0     C12334   6.549   1.458   7.648 -0.2726  0.6091 -0.2555
   92MOL0     C12335   6.692   1.441   7.629  0.7420  0.8840  0.8953
   92MOL0     N12336   7.499   1.078   7.442  0.0392  0.2811 -0.5888
   92MOL0     N12337   7.584   1.164   7.492  0.1019  0.0641  0.1645
   92MOL0     C12338   8.378   1.892   7.778  0.6119 -0.1903 -0.1236
   92MOL0     C12339   8.497   1.905   7.855  0.9135 -0.3385  0.9746
   92MOL0     C12340   8.871   1.928   8.060  0.2602 -0.2667  0.3734
   92MOL0     C12341   8.903   1.911   8.198 -0.3676 -0.3014  1.0957
   92MOL0     C12342   9.018   1.960   8.242 -0.5918 -0.0065 -0.4442
   92MOL0     C12343   9.117   2.024   8.162  0.3114 -0.5799  0.5483
   92MOL0     O12344   9.234   2.068   8.208 -0.1335  0.0128 -0.5416
   92MOL0     C12345   9.243   2.121   8.343  0.0277  0.0808 -0.0463
   92MOL0     C12346   9.280   2.022   8.457 -0.2364 -0.8414 -0.5421
   92MOL0     C12347   9.415   1.947   8.415  0.1512 -0.6563 -0.5628
   92MOL0     C12348   9.533   2.034   8.370 -0.7523 -0.3915 -0.3719
   92MOL0     C12349   9.652   1.961   8.318  0.2968  0.2898  0.3226
   92MOL0     C12350   9.755   1.899   8.298 -1.2167  0.3310  0.0961
   92MOL0     C12351   9.092   2.039   8.032  0.8406  0.9055  0.7504
   92MOL0     C12352   8.969   1.991   7.980  0.8852 -0.3989  0.7613
   92MOL0     H12353   8.694   1.709   7.658  0.1421 -0.4483 -1.3862
   92MOL0     H12354   8.487   1.666   7.541  1.4016  1.2004 -0.2983
   92MOL0     H12355   8.131   1.772   7.439  0.4630  1.6174  0.1088
   92MOL0     H12356   8.298   1.746   7.414  1.2332 -2.3873  0.9436
   92MOL0     H12357   8.179   1.532   7.418 -0.8981 -0.4749 -0.0129
   92MOL0     H12358   8.280   1.541   7.565 -1.2746  0.2903  0.5560
   92MOL0     H12359   8.097   1.572   7.710 -1.7236  0.5186  1.0590
   92MOL0     H12360   7.994   1.629   7.576  0.7310  0.8242  2.6802
   92MOL0     H12361   8.009   1.387   7.483 -1.6938  0.0568  1.0758
   92MOL0     H12362   8.107   1.343   7.631 -2.8670 -3.4109  0.3351
   92MOL0     H12363   7.891   1.287   7.709  1.5777  0.0885  2.0072
   92MOL0     H12364   7.913   1.445   7.770  0.0884  0.1543 -0.1523
   92MOL0     H12365   7.795   1.524   7.552 -1.7704  1.6444  1.2599
   92MOL0     H12366   7.775   1.353   7.504 -0.6902  3.1412 -2.6259
   92MOL0     H12367   7.660   1.490   7.740 -0.0817 -1.0168  1.1150
   92MOL0     H12368   7.564   1.452   7.607  0.6007  3.6426  1.2048
   92MOL0     H12369   7.567   1.293   7.811 -1.2613 -0.7625 -0.5321
   92MOL0     H12370   7.697   1.213   7.746 -1.8520 -0.6845  1.0776
   92MOL0     H12371   7.351   1.155   7.734  1.0787 -2.2148  0.7960
   92MOL0     H12372   7.256   0.985   7.396 -0.9039 -0.1058  1.1660
   92MOL0     H12373   7.293   0.889   7.538  1.7081 -0.3656  0.2798
   92MOL0     H12374   7.156   1.045   7.688 -1.7629  0.5364  0.1555
   92MOL0     H12375   7.077   0.950   7.563  0.6555 -0.3270 -4.3991
   92MOL0     H12376   7.090   1.192   7.434  2.0480 -0.1498  1.1617
   92MOL0     H12377   7.143   1.244   7.597  2.2677 -0.5916 -1.3816
   92MOL0     H12378   6.917   1.147   7.695 -0.0574 -2.2551  0.0747
   92MOL0     H12379   6.884   1.106   7.525 -1.7936  0.1701  1.7205
   92MOL0     H12380   6.689   1.106   7.582  0.7181  0.5854 -2.9669
   92MOL0     H12381   6.398   1.092   7.725  0.1783  1.0626  0.4186
   92MOL0     H12382   6.341   1.125   7.554  2.0173  1.3552 -2.3789
   92MOL0     H12383   6.464   1.003   7.587  0.0414  1.1202 -1.9028
   92MOL0     H12384   6.184   1.477   7.924  2.1521  0.5642 -0.9453
   92MOL0     H12385   5.947   1.507   7.992  1.6816 -1.1365 -0.4068
   92MOL0     H12386   5.682   1.533   7.960  0.6178  0.0018  1.5056
   92MOL0     H12387   5.776   1.648   8.051  0.1614  1.9900  0.0084
   92MOL0     H12388   5.566   1.734   8.091  0.4709 -1.6747  0.1424
   92MOL0     H12389   5.619   1.836   7.965 -1.9994 -0.0465  0.0409
   92MOL0     H12390   5.451   1.590   7.906 -0.9929  0.3272 -1.2941
   92MOL0     H12391   5.485   1.724   7.801 -4.3933 -1.0376 -1.6005
   92MOL0     H12392   5.307   1.717   8.056  0.7974  0.2874  0.4916
   92MOL0     H12393   5.370   1.862   7.990  0.0724  0.3999 -0.5838
   92MOL0     H12394   5.175   1.681   7.830 -2.8925  0.8180  0.3662
   92MOL0     H12395   5.269   1.822   7.769  1.0687  1.9695  2.0593
   92MOL0     H12396   5.147   1.971   7.904 -1.0092  1.9876 -0.2237
   92MOL0     H12397   5.031   1.876   7.816  0.9722 -0.4999 -0.2701
   92MOL0     H12398   5.075   1.738   8.069 -0.1262  1.7079  3.4601
   92MOL0     H12399   4.922   1.780   8.005 -1.5547  3.8436 -0.6666
   92MOL0     H12400   4.897   1.966   8.141  0.5467  1.2070  1.7779
   92MOL0     H12401   5.063   2.022   8.107 -0.1641 -0.0817 -1.8852
   92MOL0     H12402   5.886   1.734   7.627 -1.0056 -0.6847 -0.2964
   92MOL0     H12403   6.110   1.671   7.565  0.2179  2.5501  0.5004
   92MOL0     H12404   6.518   1.557   7.682  0.8135  0.2989  1.7969
   92MOL0     H12405   6.758   1.527   7.623 -0.6132  1.8856 -0.7404
   92MOL0     H12406   8.292   1.934   7.828 -0.2732 -0.6452 -1.2100
   92MOL0     H12407   8.501   1.966   7.945 -2.5013  0.4971  0.7059
   92MOL0     H12408   8.834   1.855   8.261 -3.0479 -0.0138 -1.3635
   92MOL0     H12409   9.032   1.946   8.349  1.8907  2.4967 -0.3316
   92MOL0     H12410   9.304   2.212   8.343 -0.3127  0.3229  0.5324
   92MOL0     H12411   9.144   2.162   8.368 -0.2183  1.2987 -2.6955
   92MOL0     H12412   9.200   1.950   8.478 -0.2735 -1.0392 -1.3160
   92MOL0     H12413   9.298   2.091   8.539 -1.8754  0.4546 -1.2261
   92MOL0     H12414   9.378   1.878   8.339 -2.8464 -1.9371  1.8738
   92MOL0     H12415   9.451   1.878   8.491  1.8163  0.1620 -0.5646
   92MOL0     H12416   9.569   2.099   8.449 -0.7499  1.8329 -2.1118
   92MOL0     H12417   9.499   2.101   8.291  1.2876  1.5555  0.2997
   92MOL0     H12418   9.844   1.845   8.270 -2.7360 -1.5914 -1.3075
   92MOL0     H12419   9.166   2.085   7.966 -0.4068 -0.9177 -2.1300
   92MOL0     H12420   8.949   1.984   7.874 -0.6939 -0.2568  1.0159
   93MOL0     O12421   6.055   0.613  10.173 -0.1435  0.3004 -0.4495
   93MOL0     C12422   6.104   0.707  10.238  0.0477 -0.1105  0.4136
   93MOL0     O12423   6.043   0.810  10.296  0.1034 -0.1801 -0.0436
   93MOL0     C12424   5.912   0.850  10.284 -0.4576 -0.0415 -0.3705
   93MOL0     C12425   5.886   0.956  10.364  1.1918 -0.2301 -0.0247
   93MOL0     C12426   5.760   1.016  10.372 -0.1092  0.5983 -0.5913
   93MOL0     C12427   5.652   0.949  10.311  0.3028 -0.4832  0.3074
   93MOL0     O12428   5.519   0.977  10.332  0.2677  0.4138  0.4423
   93MOL0     C12429   5.488   1.117  10.326 -0.5766 -0.5707 -0.7298
   93MOL0     C12430   5.343   1.138  10.351  0.0474 -0.0191 -0.6883
   93MOL0     C12431   5.260   1.080  10.245  0.1985  0.3049 -0.0097
   93MOL0     C12432   5.112   1.078  10.289 -0.1969 -0.5042 -0.9367
   93MOL0     C12433   5.030   1.006  10.182 -0.4973 -0.3037  1.1310
   93MOL0     C12434   5.064   1.006  10.029  0.4419 -0.7609  0.2697
   93MOL0     C12435   4.946   0.937   9.951 -0.6497 -0.4387 -0.3709
   93MOL0     C12436   4.967   0.969   9.807  0.5200  0.3901 -0.0251
   93MOL0     N12437   5.092   0.919   9.760 -0.8169  1.0156  0.8759
   93MOL0     C12438   5.221   0.966   9.743  0.0833 -0.5815 -0.1213
   93MOL0     C12439   5.299   0.864   9.706  0.4259  0.4066  0.1045
   93MOL0     C12440   5.447   0.882   9.668 -0.7406 -0.6090 -0.3825
   93MOL0     C12441   5.551   0.811   9.760  0.1559 -0.7047  0.6601
   93MOL0     C12442   5.541   0.658   9.731  0.1427  0.3401 -0.1190
   93MOL0     C12443   5.669   0.588   9.781 -0.3473  0.2677 -0.3243
   93MOL0     O12444   5.777   0.628   9.695 -0.6502 -0.3470 -0.2224
   93MOL0     C12445   5.909   0.580   9.737 -0.7302 -0.2240  0.3870
   93MOL0     C12446   5.927   0.474   9.822 -0.1714 -0.2649 -0.2132
   93MOL0     C12447   6.057   0.429   9.856  1.3758  0.0994 -0.5065
   93MOL0     C12448   6.077   0.315   9.959 -0.6890 -0.1764  0.5488
   93MOL0     C12449   6.168   0.500   9.806  0.2144  0.4667  0.3212
   93MOL0     C12450   6.305   0.470   9.833  0.0953  0.6164 -0.2527
   93MOL0     O12451   6.388   0.451   9.732 -0.2584  0.0903 -0.9982
   93MOL0     C12452   6.525   0.451   9.760  0.3260  0.1844  0.5828
   93MOL0     C12453   6.602   0.331   9.798  0.9200  0.2637  0.7838
   93MOL0     C12454   6.729   0.346   9.850  0.1811 -0.5954  0.2494
   93MOL0     C12455   6.796   0.464   9.842 -0.0638  0.8546 -0.4901
   93MOL0     O12456   6.929   0.467   9.875 -0.6480 -0.0169  0.0714
   93MOL0     C12457   6.987   0.586   9.932  0.1231  0.0549 -0.7942
   93MOL0     C12458   7.134   0.569   9.970  0.0879 -0.2773 -0.3367
   93MOL0     C12459   7.187   0.721   9.977 -0.0348 -0.4705 -0.1573
   93MOL0     C12460   7.313   0.728  10.053  0.6876 -0.2822  0.3975
   93MOL0     C12461   7.436   0.682   9.967 -0.2659  0.2251  0.2118
   93MOL0     C12462   7.562   0.652  10.050 -0.4907 -0.5273 -0.3722
   93MOL0     C12463   7.624   0.782  10.109 -0.7874 -1.3081  0.4799
   93MOL0     C12464   7.724   0.758  10.229  0.2288 -0.8697  0.6813
   93MOL0    Cl12465   7.651   0.708  10.382 -0.0162  0.1717  0.3824
   93MOL0     C12466   6.730   0.568   9.799  0.1584 -0.9442  0.0349
   93MOL0     C12467   6.596   0.572   9.771  0.3804  0.5490  0.4138
   93MOL0     O12468   6.336   0.452   9.945 -0.5961  0.1738  0.2023
   93MOL0     C12469   6.146   0.598   9.711 -0.5353  0.3746  0.1643
   93MOL0     C12470   6.019   0.645   9.676  0.1179  0.0329 -0.9609
   93MOL0     N12471   5.216   0.755   9.698  0.5531 -0.0769  0.5192
   93MOL0     N12472   5.095   0.792   9.722  0.6872  0.1658  0.2179
   93MOL0     C12473   5.679   0.839  10.230 -0.1482  1.1908 -0.1332
   93MOL0     C12474   5.808   0.792  10.207  0.0834 -0.1409 -0.0993
   93MOL0     C12475   6.248   0.683  10.270 -0.2824  0.0090 -0.3708
   93MOL0     C12476   6.317   0.572  10.236 -0.2249  0.0624 -0.4815
   93MOL0     C12477   6.455   0.560  10.255  0.6785  0.2103 -0.3286
   93MOL0     C12478   6.528   0.653  10.332 -0.3680  0.7061  0.0906
   93MOL0     O12479   6.662   0.655  10.371  0.1618 -0.5935 -0.0306
   93MOL0     C12480   6.751   0.588  10.286  0.0225 -0.0652 -0.3875
   93MOL0     C12481   6.784   0.450  10.339 -0.6083 -0.6351 -0.0216
   93MOL0     C12482   6.865   0.379  10.220 -0.1437  0.1373 -0.1213
   93MOL0     C12483   6.895   0.233  10.265  0.3022 -0.3904 -0.2057
   93MOL0     C12484   6.992   0.176  10.167 -0.3724  0.0711 -0.0188
   93MOL0     C12485   7.079   0.141  10.091  0.3991 -0.2900 -0.5058
   93MOL0     C12486   6.450   0.755  10.384  0.7832 -0.0153  0.4085
   93MOL0     C12487   6.312   0.770  10.358  0.6435 -0.4388 -0.5204
   93MOL0     H12488   5.973   0.996  10.413  1.0393 -2.3604  2.1903
   93MOL0     H12489   5.736   1.099  10.437 -2.1915 -0.7074  0.4274
   93MOL0     H12490   5.543   1.177  10.400  1.2511 -3.1234  0.1531
   93MOL0     H12491   5.515   1.159  10.229  2.2056 -1.4074 -0.4259
   93MOL0     H12492   5.315   1.086  10.443 -2.5486  2.1232 -0.1274
   93MOL0     H12493   5.325   1.246  10.365  0.5489  0.0244 -0.3590
   93MOL0     H12494   5.277   1.146  10.160 -0.8036  1.0164  0.3392
   93MOL0     H12495   5.296   0.977  10.231  0.7033  0.2857  1.3071
   93MOL0     H12496   5.104   1.013  10.376  0.2837 -2.3275 -2.1839
   93MOL0     H12497   5.077   1.178  10.315 -0.4021 -1.5533  3.7035
   93MOL0     H12498   5.019   0.906  10.225  1.0040  0.1137  2.5768
   93MOL0     H12499   4.931   1.053  10.177  0.6063  2.1524  0.6743
   93MOL0     H12500   5.067   1.108   9.991  2.0771  0.0917  2.4410
   93MOL0     H12501   5.161   0.958  10.010  1.0211  0.3657  0.3324
   93MOL0     H12502   4.963   0.832   9.979 -0.8492 -0.6884 -1.1690
   93MOL0     H12503   4.847   0.970   9.984 -1.5185 -2.5296 -0.6741
   93MOL0     H12504   4.956   1.077   9.794  0.2855  0.4723  0.8284
   93MOL0     H12505   4.886   0.921   9.751 -1.3656  2.8248  0.4939
   93MOL0     H12506   5.244   1.070   9.762 -2.2208  0.4323 -2.3285
   93MOL0     H12507   5.460   0.843   9.566 -2.6055 -1.2061 -0.4252
   93MOL0     H12508   5.470   0.989   9.674  1.9124 -1.1480  0.2483
   93MOL0     H12509   5.524   0.840   9.862  2.1069  1.0377  0.7276
   93MOL0     H12510   5.651   0.851   9.745 -1.2627  2.5595 -1.1121
   93MOL0     H12511   5.522   0.637   9.626 -0.2613 -0.3097  0.0737
   93MOL0     H12512   5.457   0.620   9.792 -0.5438 -0.5599 -1.5679
   93MOL0     H12513   5.658   0.480   9.786  1.6402  0.0431 -0.3170
   93MOL0     H12514   5.691   0.613   9.885 -2.5879  0.7774  0.0932
   93MOL0     H12515   5.855   0.420   9.883  3.2233 -3.5426  1.2495
   93MOL0     H12516   6.122   0.346  10.054 -0.9010 -0.1312  0.6341
   93MOL0     H12517   5.986   0.264   9.990 -0.3796 -0.6502  0.6999
   93MOL0     H12518   6.132   0.235   9.909 -1.0704 -1.1510  1.6312
   93MOL0     H12519   6.553   0.234   9.805 -0.1627  0.8401  1.5369
   93MOL0     H12520   6.790   0.276   9.907  1.3200 -1.0772 -1.5044
   93MOL0     H12521   6.982   0.663   9.854 -3.0539 -0.6105 -1.3969
   93MOL0     H12522   6.930   0.617  10.020 -3.1587 -0.1515 -2.6908
   93MOL0     H12523   7.126   0.517  10.066 -1.9759 -2.1887 -1.4460
   93MOL0     H12524   7.202   0.517   9.902  1.4632  0.0814  0.7207
   93MOL0     H12525   7.104   0.786  10.010  1.3409  0.7777  0.9750
   93MOL0     H12526   7.221   0.749   9.877  1.4390  1.1322  0.7380
   93MOL0     H12527   7.323   0.829  10.094 -1.9249 -1.1538  3.6155
   93MOL0     H12528   7.299   0.672  10.146 -1.2829 -0.1666  0.2236
   93MOL0     H12529   7.463   0.753   9.889 -0.0150 -1.7749 -1.6177
   93MOL0     H12530   7.410   0.595   9.906  0.0676 -0.8905  1.5886
   93MOL0     H12531   7.532   0.584  10.131  0.0991 -1.6358 -1.0657
   93MOL0     H12532   7.644   0.609   9.992 -0.7396  0.2531 -1.3341
   93MOL0     H12533   7.555   0.857  10.147  1.4330 -1.1229  4.7453
   93MOL0     H12534   7.676   0.823  10.022 -1.3097 -3.2118 -0.8035
   93MOL0     H12535   7.790   0.844  10.244 -0.0480  0.0363 -2.6495
   93MOL0     H12536   7.787   0.676  10.193  2.6789  1.2514 -0.1651
   93MOL0     H12537   6.783   0.662   9.784  0.6171 -0.7534  2.4597
   93MOL0     H12538   6.550   0.665   9.740  0.4415 -0.3056 -2.5612
   93MOL0     H12539   6.232   0.655   9.678  0.8671 -0.7420  1.6974
   93MOL0     H12540   6.008   0.730   9.610 -0.5765  0.7671  0.0800
   93MOL0     H12541   5.600   0.789  10.176 -1.3840  0.3668  2.3277
   93MOL0     H12542   5.837   0.716  10.135  2.7191  1.0155 -0.3883
   93MOL0     H12543   6.279   0.494  10.170  0.7723 -2.1452  1.3882
   93MOL0     H12544   6.504   0.473  10.212 -0.2287 -0.9901  1.0012
   93MOL0     H12545   6.716   0.587  10.182  0.6065  1.2475 -0.6231
   93MOL0     H12546   6.847   0.639  10.293  0.8834 -1.7357  0.6807
   93MOL0     H12547   6.694   0.402  10.379 -0.0893 -1.1824  0.5282
   93MOL0     H12548   6.847   0.467  10.427  0.6862 -0.7902 -0.8904
   93MOL0     H12549   6.959   0.431  10.199  0.9359 -0.9184  1.7612
   93MOL0     H12550   6.812   0.370  10.125  1.3234 -1.7451 -0.8133
   93MOL0     H12551   6.801   0.178  10.275  2.3006 -3.6304  2.7421
   93MOL0     H12552   6.932   0.234  10.368  0.4901 -0.4190 -0.2709
   93MOL0     H12553   7.160   0.127  10.022  1.9564  2.1504  0.6891
   93MOL0     H12554   6.494   0.825  10.454 -0.1864 -1.1809  2.2578
   93MOL0     H12555   6.260   0.849  10.411 -0.4288 -1.3049 -0.2482
   94MOL0     O12556  10.318   7.048   8.025 -0.3229  0.0784 -0.0634
   94MOL0     C12557  10.392   7.143   7.997  0.7460  0.1195  0.6647
   94MOL0     O12558  10.374   7.235   7.898  0.6721 -0.9759 -0.4592
   94MOL0     C12559  10.258   7.241   7.820  0.9872  0.1378  0.1278
   94MOL0     C12560  10.129   7.216   7.871 -0.1766 -0.1519  0.1653
   94MOL0     C12561  10.015   7.209   7.782 -0.1179 -0.7312 -0.2825
   94MOL0     C12562  10.034   7.249   7.649 -0.1135 -0.2079 -0.5255
   94MOL0     O12563   9.936   7.272   7.563  0.6354 -0.4095 -0.1634
   94MOL0     C12564   9.839   7.163   7.556 -0.8769 -0.2192  0.8787
   94MOL0     C12565   9.910   7.039   7.481  0.3508 -0.2994 -0.1172
   94MOL0     C12566   9.809   6.922   7.485 -0.1488 -0.6020  0.5201
   94MOL0     C12567   9.852   6.804   7.396  0.2451  0.0201 -0.2605
   94MOL0     C12568   9.977   6.735   7.446 -0.6233  0.0904  0.9094
   94MOL0     C12569  10.021   6.644   7.332  0.7900  0.1467  0.4856
   94MOL0     C12570  10.146   6.559   7.378  0.5544  0.3435 -0.5247
   94MOL0     C12571  10.172   6.438   7.286  0.2537 -0.2358 -0.2279
   94MOL0     N12572  10.243   6.483   7.158  0.1417  0.4591  0.6183
   94MOL0     C12573  10.170   6.540   7.058 -0.8300 -0.5880  0.6179
   94MOL0     C12574  10.238   6.522   6.939  0.7017  0.9949  0.1154
   94MOL0     C12575  10.208   6.573   6.804  0.1616  0.7464 -0.1666
   94MOL0     C12576  10.060   6.583   6.763  0.2441 -0.5997 -0.5631
   94MOL0     C12577  10.050   6.672   6.645  0.5034 -0.5898 -0.8648
   94MOL0     C12578   9.934   6.641   6.556  0.9451 -0.8188  0.0248
   94MOL0     O12579   9.849   6.756   6.547 -0.2651  0.1769  0.0677
   94MOL0     C12580   9.726   6.748   6.490 -0.2276 -1.1247  0.8155
   94MOL0     C12581   9.640   6.867   6.494  0.2819  0.2017 -1.1213
   94MOL0     C12582   9.511   6.869   6.443 -0.5563 -0.0650 -0.6002
   94MOL0     C12583   9.439   6.998   6.438 -0.3852  0.1715 -0.4685
   94MOL0     C12584   9.461   6.747   6.370  0.3961 -0.6521 -0.4812
   94MOL0     C12585   9.329   6.736   6.303  0.4436 -0.1855 -0.8325
   94MOL0     O12586   9.289   6.618   6.247 -0.4415 -0.4873  0.2321
   94MOL0     C12587   9.170   6.618   6.181 -0.1886  0.2658  0.1218
   94MOL0     C12588   9.154   6.692   6.066  0.0255 -0.1141 -0.2030
   94MOL0     C12589   9.023   6.698   6.008 -1.3134 -0.2309 -0.1091
   94MOL0     C12590   8.919   6.616   6.060  0.2231 -0.4697  0.5826
   94MOL0     O12591   8.796   6.644   6.014 -0.6837 -0.1412  0.2017
   94MOL0     C12592   8.705   6.544   5.978  0.6038 -0.2855  0.8328
   94MOL0     C12593   8.575   6.615   5.937 -0.9545  0.0240 -1.0845
   94MOL0     C12594   8.573   6.647   5.790 -0.4895  0.6757  0.3903
   94MOL0     C12595   8.681   6.751   5.733  0.5252  0.0880 -0.1538
   94MOL0     C12596   8.656   6.888   5.785  0.8377  0.5139 -0.0809
   94MOL0     C12597   8.747   6.993   5.741 -0.2497 -0.1683  0.6273
   94MOL0     C12598   8.726   7.128   5.806  0.3302  0.2753  0.1547
   94MOL0     C12599   8.757   7.241   5.712  0.1511  0.4172 -0.0419
   94MOL0    Cl12600   8.633   7.228   5.583  0.1681  0.0766  0.2142
   94MOL0     C12601   8.944   6.525   6.160 -0.0278  0.5936  0.1957
   94MOL0     C12602   9.069   6.531   6.226 -0.8224 -0.3962 -0.5931
   94MOL0     O12603   9.259   6.839   6.307  0.1578 -0.3474  0.1568
   94MOL0     C12604   9.543   6.628   6.380 -0.7562  0.2014  0.2460
   94MOL0     C12605   9.675   6.636   6.429  0.0008 -0.0197 -0.4770
   94MOL0     N12606  10.339   6.437   6.969 -0.6194 -0.3664  0.0003
   94MOL0     N12607  10.343   6.413   7.091 -0.3908  0.7008 -0.9053
   94MOL0     C12608  10.163   7.273   7.605 -0.0661 -0.4999 -0.0166
   94MOL0     C12609  10.278   7.267   7.689 -0.5110 -0.1855  0.1639
   94MOL0     C12610  10.511   7.164   8.084  0.1210 -0.8977  0.1554
   94MOL0     C12611  10.565   7.069   8.173 -0.0343 -0.1319  0.0556
   94MOL0     C12612  10.677   7.105   8.240  0.4752 -1.6357 -0.2551
   94MOL0     C12613  10.751   7.224   8.230  0.4392  0.0427 -0.4802
   94MOL0     O12614  10.858   7.257   8.308 -0.9374  0.0022  0.2907
   94MOL0     C12615  10.888   7.173   8.419 -0.1266 -0.2689 -1.1297
   94MOL0     C12616  10.795   7.185   8.546  0.9545  0.6350  0.7336
   94MOL0     C12617  10.717   7.313   8.557 -0.1508  0.2265 -0.4611
   94MOL0     C12618  10.687   7.324   8.702 -0.5483 -0.0251 -0.2742
   94MOL0     C12619  10.595   7.442   8.724 -0.0878  0.9606 -0.0440
   94MOL0     C12620  10.535   7.542   8.750 -0.0620  0.2103  0.7654
   94MOL0     C12621  10.691   7.317   8.150 -0.6426  0.4043 -0.3898
   94MOL0     C12622  10.581   7.281   8.076 -0.3902 -0.4383 -0.3102
   94MOL0     H12623  10.116   7.174   7.970  3.1279  0.1330  0.8292
   94MOL0     H12624   9.923   7.172   7.826 -0.4041 -0.3804 -0.5809
   94MOL0     H12625   9.812   7.110   7.648  0.6849 -3.1914 -0.2497
   94MOL0     H12626   9.751   7.199   7.501 -0.1120 -0.2888 -0.4274
   94MOL0     H12627   9.927   7.067   7.377  0.8600 -1.9356 -0.5062
   94MOL0     H12628  10.006   7.021   7.530  0.5175  1.3393  0.2048
   94MOL0     H12629   9.792   6.879   7.585  1.8620 -0.5453  0.9317
   94MOL0     H12630   9.711   6.963   7.457  0.7675  1.8899  0.7668
   94MOL0     H12631   9.772   6.730   7.402 -0.7950  1.2269  1.6632
   94MOL0     H12632   9.865   6.845   7.295  0.9146 -0.7758 -0.5086
   94MOL0     H12633  10.058   6.799   7.482  1.2391 -0.7483 -1.4798
   94MOL0     H12634   9.953   6.679   7.536 -0.0622 -1.6828  0.0022
   94MOL0     H12635   9.939   6.574   7.313  1.7356 -0.3308 -2.4264
   94MOL0     H12636  10.034   6.707   7.244 -3.7402  0.6605 -0.0219
   94MOL0     H12637  10.232   6.625   7.392  1.8273 -1.1125 -1.2039
   94MOL0     H12638  10.121   6.508   7.471 -0.7656 -0.7025 -1.4070
   94MOL0     H12639  10.077   6.387   7.266 -0.5952  0.7015  1.2687
   94MOL0     H12640  10.238   6.372   7.341 -0.2331 -2.4200 -2.1037
   94MOL0     H12641  10.081   6.601   7.067 -0.0500  0.6679  0.1297
   94MOL0     H12642  10.246   6.676   6.802 -0.5505  1.0232 -0.0034
   94MOL0     H12643  10.253   6.513   6.725 -2.6180 -1.6596 -0.0868
   94MOL0     H12644  10.003   6.631   6.844  2.0598  2.1072 -0.7235
   94MOL0     H12645  10.026   6.480   6.753  0.8659 -1.0490  1.3996
   94MOL0     H12646  10.135   6.656   6.579 -0.4668 -2.4575 -1.7372
   94MOL0     H12647  10.059   6.776   6.678  0.9637 -0.9441  0.1952
   94MOL0     H12648   9.872   6.560   6.596 -1.3414  0.0623 -1.5631
   94MOL0     H12649   9.974   6.609   6.459 -0.3375 -1.6583 -0.2544
   94MOL0     H12650   9.680   6.959   6.535 -0.4290  0.3314 -0.7122
   94MOL0     H12651   9.503   7.075   6.482 -2.6481  2.6399 -1.1679
   94MOL0     H12652   9.425   7.029   6.334 -0.8494 -0.3240 -0.5530
   94MOL0     H12653   9.341   6.992   6.487 -1.0182 -2.8935 -1.8748
   94MOL0     H12654   9.231   6.757   6.027 -0.0259 -0.8374 -1.5388
   94MOL0     H12655   9.019   6.768   5.926  4.5218  1.3445  0.5254
   94MOL0     H12656   8.736   6.482   5.893 -1.2559 -0.2539  0.0684
   94MOL0     H12657   8.675   6.478   6.060 -0.8511  0.2322  0.7447
   94MOL0     H12658   8.489   6.548   5.949 -1.8781  1.1305 -1.3961
   94MOL0     H12659   8.565   6.705   5.998  2.2810 -0.8575  0.9873
   94MOL0     H12660   8.471   6.675   5.763 -0.1016  1.2338 -0.5587
   94MOL0     H12661   8.591   6.546   5.752 -0.7895  0.3279  1.1584
   94MOL0     H12662   8.783   6.721   5.760  0.5819  1.9614  1.9605
   94MOL0     H12663   8.680   6.752   5.623  1.0015 -2.6337 -0.2598
   94MOL0     H12664   8.663   6.879   5.893 -0.2825  0.2885 -0.0098
   94MOL0     H12665   8.553   6.919   5.763  1.0432  1.2292 -0.0748
   94MOL0     H12666   8.849   6.977   5.778  0.4422  0.2449 -0.9862
   94MOL0     H12667   8.748   6.998   5.632 -2.0602 -2.9483  0.3731
   94MOL0     H12668   8.786   7.138   5.896 -1.1989 -2.2828  1.5785
   94MOL0     H12669   8.623   7.139   5.842  0.2433 -0.7142  0.2438
   94MOL0     H12670   8.857   7.233   5.670 -0.0334 -1.2597 -0.2040
   94MOL0     H12671   8.746   7.334   5.770  0.2841  0.4574 -0.0816
   94MOL0     H12672   8.868   6.452   6.182  1.3951 -0.2065  2.8456
   94MOL0     H12673   9.101   6.464   6.305  1.2564  1.4706  0.2359
   94MOL0     H12674   9.509   6.533   6.340 -2.7530  1.3554 -0.9961
   94MOL0     H12675   9.744   6.554   6.414  0.2930 -0.6536  3.2991
   94MOL0     H12676  10.172   7.294   7.499 -0.8874  1.3780  0.2387
   94MOL0     H12677  10.375   7.296   7.650 -1.9077 -1.1570 -4.7442
   94MOL0     H12678  10.516   6.974   8.188 -1.7086  0.3614 -1.8091
   94MOL0     H12679  10.708   7.030   8.313  2.4576  1.2730  2.1663
   94MOL0     H12680  10.902   7.066   8.402  1.9197 -0.1961 -0.1835
   94MOL0     H12681  10.993   7.184   8.446 -0.0024 -1.3690 -1.1064
   94MOL0     H12682  10.849   7.155   8.636 -1.1429 -0.7286  1.6377
   94MOL0     H12683  10.719   7.106   8.542  2.2475 -0.5864 -0.5193
   94MOL0     H12684  10.626   7.315   8.495  0.0087 -0.1858 -0.7125
   94MOL0     H12685  10.786   7.394   8.533  0.0731  0.0476 -0.4219
   94MOL0     H12686  10.779   7.328   8.761 -0.6746 -4.2837  0.5372
   94MOL0     H12687  10.646   7.231   8.744  1.5838 -1.2009 -0.6462
   94MOL0     H12688  10.473   7.628   8.769  0.3189  0.6451  0.1092
   94MOL0     H12689  10.751   7.408   8.148  2.5488 -1.1487  4.6383
   94MOL0     H12690  10.532   7.353   8.011  0.5246 -0.0476 -0.5872
   95MOL0     O12691   0.764  11.065   3.627  0.0908  0.6825 -0.7247
   95MOL0     C12692   0.750  10.965   3.561 -0.0467  0.1693  0.4546
   95MOL0     O12693   0.636  10.923   3.503 -0.0872  0.9698 -0.5906
   95MOL0     C12694   0.543  11.018   3.484  1.0205 -0.9971  0.6266
   95MOL0     C12695   0.428  11.045   3.556  0.3384  0.1340 -0.2810
   95MOL0     C12696   0.328  11.122   3.498 -0.1571  0.5284 -0.1538
   95MOL0     C12697   0.345  11.195   3.374 -0.6713 -0.4531  0.0374
   95MOL0     O12698   0.255  11.281   3.315 -0.5082  0.6843 -0.3853
   95MOL0     C12699   0.142  11.314   3.397  0.1899  1.0857  0.1109
   95MOL0     C12700   0.044  11.398   3.322 -0.1274  0.0459 -0.8664
   95MOL0     C12701  -0.083  11.411   3.412 -0.9008  0.5287 -0.2055
   95MOL0     C12702  -0.195  11.492   3.350 -0.1510 -0.0961 -0.3338
   95MOL0     C12703  -0.329  11.475   3.429 -0.0229 -0.4869  0.6444
   95MOL0     C12704  -0.440  11.565   3.368  0.0882 -0.2320  0.7106
   95MOL0     C12705  -0.576  11.559   3.431  0.1254 -0.0904  0.4794
   95MOL0     C12706  -0.674  11.650   3.354  0.2443  0.4150  0.1625
   95MOL0     N12707  -0.792  11.692   3.436 -0.5410 -0.4670 -0.5532
   95MOL0     C12708  -0.888  11.617   3.495  0.2776  0.3680 -0.5077
   95MOL0     C12709  -0.946  11.692   3.595 -0.0725  0.0696  0.9262
   95MOL0     C12710  -1.063  11.657   3.677 -0.5969 -0.2988 -0.3856
   95MOL0     C12711  -1.186  11.742   3.632 -0.9172  0.3716 -0.0953
   95MOL0     C12712  -1.310  11.710   3.718 -0.3574 -0.8603  0.8789
   95MOL0     C12713  -1.331  11.818   3.816  0.6671 -0.5499 -0.3888
   95MOL0     O12714  -1.454  11.790   3.885  0.2317  0.1181 -0.3958
   95MOL0     C12715  -1.576  11.810   3.824  0.1202  0.9437  0.3885
   95MOL0     C12716  -1.599  11.896   3.715 -0.0297  0.2887  0.9119
   95MOL0     C12717  -1.721  11.916   3.660  0.0251  0.1490 -0.0685
   95MOL0     C12718  -1.724  12.001   3.534 -0.0091  0.5541  0.0664
   95MOL0     C12719  -1.831  11.859   3.724  0.1523 -0.7715 -0.2474
   95MOL0     C12720  -1.968  11.888   3.676 -0.5398 -0.1730  0.3423
   95MOL0     O12721  -1.991  11.998   3.600 -0.2409 -0.0635  0.4766
   95MOL0     C12722  -2.118  12.037   3.565 -0.3567 -0.1490 -0.6357
   95MOL0     C12723  -2.170  11.980   3.453 -0.1762 -0.6189  0.2583
   95MOL0     C12724  -2.298  12.019   3.410 -0.1723 -1.0114 -0.0719
   95MOL0     C12725  -2.378  12.104   3.497  0.2429 -1.0137 -0.0669
   95MOL0     O12726  -2.511  12.150   3.464  0.1332  0.9034  0.1376
   95MOL0     C12727  -2.605  12.040   3.458  0.0593  0.5002 -0.6933
   95MOL0     C12728  -2.728  12.091   3.382  0.0460  0.5769  0.2117
   95MOL0     C12729  -2.693  12.134   3.239  0.1282  0.6344 -1.2739
   95MOL0     C12730  -2.802  12.188   3.150  0.2648 -0.9493 -1.1539
   95MOL0     C12731  -2.863  12.322   3.198  0.6032 -0.6088 -0.2744
   95MOL0     C12732  -2.958  12.396   3.099  0.9566 -0.0962  0.7336
   95MOL0     C12733  -3.074  12.309   3.052  0.5505 -0.3822  0.8206
   95MOL0     C12734  -3.045  12.228   2.923  0.6999  0.1995 -0.1337
   95MOL0    Cl12735  -3.190  12.166   2.861 -0.1120 -0.0578 -0.2887
   95MOL0     C12736  -2.324  12.160   3.616 -0.4657 -0.0051  0.3608
   95MOL0     C12737  -2.189  12.128   3.651  0.2095  1.1874 -0.3887
   95MOL0     O12738  -2.058  11.814   3.709 -0.4546 -0.3041 -0.4950
   95MOL0     C12739  -1.815  11.776   3.837  1.1591 -0.0614  0.8218
   95MOL0     C12740  -1.689  11.752   3.884  0.3898  0.0526  0.2089
   95MOL0     N12741  -0.877  11.811   3.595 -0.1448  0.2888  0.3856
   95MOL0     N12742  -0.791  11.813   3.497  0.9496 -0.2519  0.2408
   95MOL0     C12743   0.468  11.175   3.308 -0.4081 -0.7308 -0.2464
   95MOL0     C12744   0.569  11.093   3.369 -0.2756 -0.3094 -0.5245
   95MOL0     C12745   0.870  10.895   3.528 -0.6765  0.6814 -0.3866
   95MOL0     C12746   0.998  10.954   3.544  0.0465 -0.1968  0.2287
   95MOL0     C12747   1.111  10.885   3.499  0.1613  0.3541  0.4057
   95MOL0     C12748   1.113  10.754   3.453  0.7255  0.2131 -0.1933
   95MOL0     O12749   1.233  10.695   3.424  0.4001 -0.0137 -0.0236
   95MOL0     C12750   1.232  10.565   3.371 -0.9452 -0.0220  0.6820
   95MOL0     C12751   1.376  10.512   3.344  0.1390  0.3045 -0.0296
   95MOL0     C12752   1.369  10.359   3.326 -0.2327  0.0226  0.1293
   95MOL0     C12753   1.505  10.295   3.314  0.3061  0.4078  0.0655
   95MOL0     C12754   1.569  10.303   3.180  0.2801  0.2420 -0.2471
   95MOL0     C12755   1.632  10.304   3.082 -0.4620  0.2987  0.8795
   95MOL0     C12756   0.982  10.697   3.443 -0.3467  0.0088  0.1098
   95MOL0     C12757   0.868  10.775   3.467  0.5240  0.2977  0.6597
   95MOL0     H12758   0.414  10.991   3.649 -0.8456 -2.1375 -1.6757
   95MOL0     H12759   0.239  11.121   3.560  0.3670  0.4407  0.6041
   95MOL0     H12760   0.083  11.227   3.426  0.3138  0.8216 -0.4211
   95MOL0     H12761   0.170  11.348   3.497  0.4779 -1.5012  0.9643
   95MOL0     H12762   0.103  11.489   3.308  0.8778 -0.5905 -0.8789
   95MOL0     H12763   0.017  11.353   3.226  0.1316 -1.5754 -0.2221
   95MOL0     H12764  -0.120  11.312   3.442  0.4709 -0.1856 -0.7748
   95MOL0     H12765  -0.060  11.467   3.503  0.9572  1.8591 -1.4231
   95MOL0     H12766  -0.160  11.596   3.355  1.2127 -0.5070 -0.9182
   95MOL0     H12767  -0.212  11.462   3.246  0.3525  0.6317 -0.6334
   95MOL0     H12768  -0.357  11.370   3.420  0.0669 -0.3630 -1.9465
   95MOL0     H12769  -0.306  11.499   3.533  1.4505  1.7798 -0.1033
   95MOL0     H12770  -0.406  11.670   3.372 -0.5838  0.1462 -1.7955
   95MOL0     H12771  -0.450  11.538   3.262 -0.2789 -4.4834  1.6648
   95MOL0     H12772  -0.606  11.454   3.438  1.6905 -0.6224 -0.2824
   95MOL0     H12773  -0.570  11.605   3.530 -2.6126  0.0039  0.6946
   95MOL0     H12774  -0.715  11.604   3.264 -1.4573  2.1878 -0.0305
   95MOL0     H12775  -0.622  11.742   3.325 -2.9539  1.9288 -1.3100
   95MOL0     H12776  -0.920  11.516   3.471  1.8859 -0.3639  0.2941
   95MOL0     H12777  -1.085  11.551   3.661  0.7610 -0.6616 -0.0041
   95MOL0     H12778  -1.029  11.671   3.780  0.1042 -2.2748 -0.3167
   95MOL0     H12779  -1.204  11.727   3.525 -0.1450  0.9873 -0.3288
   95MOL0     H12780  -1.161  11.849   3.634 -0.9261  0.6184 -4.0152
   95MOL0     H12781  -1.295  11.612   3.765 -2.2146 -1.9577 -0.6887
   95MOL0     H12782  -1.403  11.701   3.662 -1.9721 -0.9119  3.4356
   95MOL0     H12783  -1.348  11.915   3.770 -2.7687 -2.0290 -2.6312
   95MOL0     H12784  -1.251  11.807   3.890 -0.5028  0.6073  1.1071
   95MOL0     H12785  -1.520  11.951   3.666  0.6217  1.3641  3.0835
   95MOL0     H12786  -1.629  11.978   3.485 -0.8753 -1.4670 -0.7404
   95MOL0     H12787  -1.801  11.965   3.465 -1.8084  1.3522  1.5628
   95MOL0     H12788  -1.735  12.108   3.556  0.9636  0.8310 -0.7218
   95MOL0     H12789  -2.105  11.907   3.406  2.6818  1.7277  0.3437
   95MOL0     H12790  -2.344  11.985   3.318 -0.5737  0.7094 -0.5406
   95MOL0     H12791  -2.568  11.959   3.395 -0.2700 -0.6772  0.5742
   95MOL0     H12792  -2.637  12.015   3.560  3.1373 -2.1101 -0.2192
   95MOL0     H12793  -2.818  12.029   3.377 -0.3636  1.0824  1.0241
   95MOL0     H12794  -2.764  12.177   3.440 -1.9674 -0.3840  0.4855
   95MOL0     H12795  -2.661  12.042   3.189 -0.8139  0.4648 -1.5717
   95MOL0     H12796  -2.603  12.196   3.234  2.2200 -1.6986  2.3618
   95MOL0     H12797  -2.772  12.194   3.045 -1.5100 -0.7126 -1.6808
   95MOL0     H12798  -2.870  12.103   3.146  1.2603 -1.9873  1.6848
   95MOL0     H12799  -2.773  12.383   3.209  0.6285 -0.5122 -0.9530
   95MOL0     H12800  -2.907  12.307   3.296  2.0539 -0.2722  0.4548
   95MOL0     H12801  -2.996  12.487   3.147  0.0217  0.7645 -1.4845
   95MOL0     H12802  -2.900  12.424   3.010  0.9254 -0.7901  0.4867
   95MOL0     H12803  -3.163  12.368   3.028  1.8805  0.9497 -1.1250
   95MOL0     H12804  -3.115  12.249   3.134 -2.4785  2.0736  1.2837
   95MOL0     H12805  -2.986  12.138   2.942 -0.1954 -0.1955  0.8640
   95MOL0     H12806  -2.996  12.300   2.856  1.4108  1.8165  1.9935
   95MOL0     H12807  -2.396  12.216   3.676 -0.0659 -0.7456  1.5567
   95MOL0     H12808  -2.133  12.153   3.741 -1.9596 -0.9975  1.6763
   95MOL0     H12809  -1.904  11.732   3.881 -1.2293 -0.0884 -3.4943
   95MOL0     H12810  -1.675  11.682   3.966  0.1716 -0.0696  0.1427
   95MOL0     H12811   0.487  11.220   3.211 -1.6563  1.7558  0.5649
   95MOL0     H12812   0.660  11.078   3.310 -0.0879  1.3576 -0.7010
   95MOL0     H12813   1.003  11.054   3.584  2.7867 -0.9219  1.9675
   95MOL0     H12814   1.205  10.936   3.512  1.1089 -0.6869 -1.8026
   95MOL0     H12815   1.188  10.496   3.444  2.0844 -0.6288  2.0703
   95MOL0     H12816   1.178  10.579   3.277  0.2028  1.4367  0.2130
   95MOL0     H12817   1.435  10.542   3.431 -1.9348 -0.7168  1.8344
   95MOL0     H12818   1.406  10.562   3.251  2.8031  0.5107  0.8640
   95MOL0     H12819   1.311  10.321   3.241  1.6796 -1.8145 -0.4373
   95MOL0     H12820   1.321  10.319   3.416 -3.7549 -0.2458 -1.6802
   95MOL0     H12821   1.498  10.190   3.346  0.6369  0.5776  0.7082
   95MOL0     H12822   1.581  10.332   3.383 -0.3785 -0.7568  1.5083
   95MOL0     H12823   1.683  10.296   2.988 -2.5734 -0.7161 -0.2330
   95MOL0     H12824   0.960  10.597   3.408 -0.2930 -1.0771  2.9391
   95MOL0     H12825   0.779  10.714   3.459  1.7872 -1.6649  0.7612
   96MOL0     O12826   5.751   1.273   0.244 -1.0569 -0.2438 -0.2517
   96MOL0     C12827   5.858   1.212   0.235 -0.2049  0.2254 -0.1028
   96MOL0     O12828   5.867   1.101   0.155 -0.0623  0.0785  0.4096
   96MOL0     C12829   5.747   1.059   0.094  0.1236 -0.2949  0.1372
   96MOL0     C12830   5.666   0.961   0.147  0.4525 -0.1481  0.1305
   96MOL0     C12831   5.539   0.918   0.091 -0.5359 -0.1060  0.0944
   96MOL0     C12832   5.495   0.987  -0.025  0.3166 -0.6287  0.4101
   96MOL0     O12833   5.366   0.949  -0.065 -0.3592  0.5463  0.5843
   96MOL0     C12834   5.338   0.979  -0.196  0.2255  0.3654  0.9572
   96MOL0     C12835   5.210   0.913  -0.251 -0.1817 -0.1740  0.0115
   96MOL0     C12836   5.224   0.759  -0.241  0.2438 -0.5900 -0.0995
   96MOL0     C12837   5.103   0.690  -0.302 -0.9418 -0.5139  0.0149
   96MOL0     C12838   5.114   0.532  -0.289  0.4494  0.3953  0.4551
   96MOL0     C12839   5.016   0.453  -0.385  0.1649  0.2526  0.6576
   96MOL0     C12840   4.866   0.482  -0.373  0.1838 -0.1903 -1.0441
   96MOL0     C12841   4.811   0.461  -0.224 -0.1460 -0.0512  0.2319
   96MOL0     N12842   4.660   0.456  -0.210  0.3283 -0.4945 -0.1730
   96MOL0     C12843   4.590   0.349  -0.180  0.1572  0.8659 -0.9978
   96MOL0     C12844   4.459   0.385  -0.167 -0.0164  1.1427 -0.5367
   96MOL0     C12845   4.346   0.288  -0.136  0.2484  0.2375 -0.8398
   96MOL0     C12846   4.263   0.217  -0.243 -0.0421  0.6083  0.5722
   96MOL0     C12847   4.174   0.094  -0.197 -0.2092 -0.1001 -0.0242
   96MOL0     C12848   4.085   0.029  -0.304  0.6879 -0.0633 -0.0952
   96MOL0     O12849   3.979   0.119  -0.332  0.3738  0.0721 -0.4451
   96MOL0     C12850   3.857   0.054  -0.368 -0.3641 -0.2426 -0.2751
   96MOL0     C12851   3.745   0.112  -0.309  0.0516  1.1129 -0.8451
   96MOL0     C12852   3.614   0.063  -0.331 -0.4674 -0.5837 -0.4373
   96MOL0     C12853   3.502   0.135  -0.258  0.5501  0.3696 -0.0098
   96MOL0     C12854   3.604  -0.062  -0.408  1.0400 -1.1300  0.2704
   96MOL0     C12855   3.472  -0.136  -0.431  0.0240 -0.3352  0.1025
   96MOL0     O12856   3.450  -0.179  -0.556  0.4138 -0.2720 -0.0762
   96MOL0     C12857   3.343  -0.259  -0.582  0.0393  0.5579 -0.6063
   96MOL0     C12858   3.282  -0.244  -0.705 -0.5879  0.2030 -0.0192
   96MOL0     C12859   3.178  -0.330  -0.742 -0.0035 -0.8311  0.5153
   96MOL0     C12860   3.138  -0.428  -0.657 -0.1615 -0.0882  0.7274
   96MOL0     O12861   3.031  -0.503  -0.699  0.9915  0.3486 -0.2186
   96MOL0     C12862   3.018  -0.631  -0.632  0.2407 -0.0230 -0.0325
   96MOL0     C12863   2.913  -0.698  -0.712 -0.1621  0.4120  0.4537
   96MOL0     C12864   2.972  -0.756  -0.841 -0.5303  0.1721 -0.6476
   96MOL0     C12865   3.056  -0.882  -0.829 -0.2274  0.5457  0.1770
   96MOL0     C12866   3.089  -0.923  -0.976 -0.2946 -0.6008  0.1906
   96MOL0     C12867   3.151  -1.067  -0.987 -0.0998 -0.5082 -0.0637
   96MOL0     C12868   3.289  -1.076  -0.927  0.3071  0.1727  0.3410
   96MOL0     C12869   3.395  -1.034  -1.025 -0.4202 -0.7833 -0.5988
   96MOL0    Cl12870   3.545  -1.100  -0.949  0.1104 -0.0779 -0.1759
   96MOL0     C12871   3.189  -0.442  -0.536 -0.1080 -0.6038 -0.6354
   96MOL0     C12872   3.295  -0.363  -0.500 -0.0807  0.1380 -0.7637
   96MOL0     O12873   3.382  -0.118  -0.346  0.5604  0.0211 -0.7763
   96MOL0     C12874   3.720  -0.123  -0.466 -0.1650  0.8045 -0.0069
   96MOL0     C12875   3.842  -0.061  -0.449 -0.2685 -0.8233 -0.0763
   96MOL0     N12876   4.467   0.527  -0.156 -0.4668  0.1438  0.1452
   96MOL0     N12877   4.582   0.566  -0.180 -0.6434 -0.3005  0.2090
   96MOL0     C12878   5.574   1.095  -0.079  0.3306  0.8844 -0.3326
   96MOL0     C12879   5.708   1.123  -0.022  0.8968 -0.5292  0.8176
   96MOL0     C12880   5.967   1.262   0.313 -0.4917  0.7404 -0.5746
   96MOL0     C12881   5.980   1.387   0.364 -0.1742 -0.1187 -0.1677
   96MOL0     C12882   6.090   1.426   0.430 -0.1944  0.5660 -0.3067
   96MOL0     C12883   6.198   1.337   0.448  0.3611 -0.9461  0.2618
   96MOL0     O12884   6.311   1.382   0.513 -0.1314  0.1561  0.0779
   96MOL0     C12885   6.431   1.403   0.430  0.2006 -0.5249 -0.0516
   96MOL0     C12886   6.414   1.499   0.314  0.5289 -0.1099  0.2617
   96MOL0     C12887   6.384   1.643   0.346  1.7166  0.0097  0.1169
   96MOL0     C12888   6.392   1.734   0.225 -0.3978 -0.0224 -0.2057
   96MOL0     C12889   6.524   1.792   0.207 -0.2629  0.2314 -0.0740
   96MOL0     C12890   6.640   1.817   0.189 -0.1798  0.1016  0.0934
   96MOL0     C12891   6.191   1.209   0.388 -0.3999  0.7106 -0.3957
   96MOL0     C12892   6.078   1.170   0.326  0.2370  0.5436  0.0937
   96MOL0     H12893   5.702   0.912   0.237 -0.8999  0.9236  1.2904
   96MOL0     H12894   5.485   0.832   0.128  1.9609 -1.5855  0.5447
   96MOL0     H12895   5.313   1.085  -0.184 -0.9895  0.2391 -0.2384
   96MOL0     H12896   5.421   0.967  -0.266  0.1246 -2.9955  1.2775
   96MOL0     H12897   5.126   0.939  -0.186  1.0204 -1.0418  1.9927
   96MOL0     H12898   5.197   0.950  -0.353  0.0560  0.9427  0.3737
   96MOL0     H12899   5.320   0.723  -0.277  0.4637  1.8418 -2.2406
   96MOL0     H12900   5.217   0.737  -0.134 -1.0096 -0.8426 -0.2058
   96MOL0     H12901   5.008   0.721  -0.257 -0.5193  0.5269  0.2202
   96MOL0     H12902   5.115   0.712  -0.409  2.5319 -1.0475  0.1710
   96MOL0     H12903   5.216   0.499  -0.309 -0.0630 -1.9544  1.4374
   96MOL0     H12904   5.084   0.499  -0.190 -2.2554 -1.1669 -0.7660
   96MOL0     H12905   5.049   0.448  -0.490  1.7981 -1.6250  1.1977
   96MOL0     H12906   5.023   0.348  -0.356 -0.0220  0.5719  1.9131
   96MOL0     H12907   4.848   0.580  -0.418  0.8294  0.1410 -0.5915
   96MOL0     H12908   4.811   0.407  -0.431 -2.4995 -0.8862  2.0960
   96MOL0     H12909   4.841   0.537  -0.152 -2.2647 -0.2789  1.4414
   96MOL0     H12910   4.845   0.361  -0.196 -2.1766 -0.6419  0.7524
   96MOL0     H12911   4.627   0.247  -0.186  0.5247  0.7108  2.0854
   96MOL0     H12912   4.395   0.207  -0.081  2.2844  2.4236  0.7736
   96MOL0     H12913   4.279   0.339  -0.066  3.0173  0.2911  1.9684
   96MOL0     H12914   4.323   0.182  -0.328 -1.1535  0.7089 -0.2759
   96MOL0     H12915   4.199   0.297  -0.282  0.4821  0.1406 -1.3755
   96MOL0     H12916   4.117   0.137  -0.115 -1.1818  1.7118 -1.5592
   96MOL0     H12917   4.242   0.015  -0.164 -1.2209 -0.0952  2.2089
   96MOL0     H12918   4.051  -0.070  -0.272  0.7719 -0.8949 -2.4091
   96MOL0     H12919   4.144   0.017  -0.395  0.6312  0.9414 -0.2803
   96MOL0     H12920   3.759   0.207  -0.260  0.8974  1.7601 -2.2791
   96MOL0     H12921   3.422   0.173  -0.321 -1.4403 -1.0654  1.5327
   96MOL0     H12922   3.453   0.078  -0.179  0.7521 -1.4170 -1.1183
   96MOL0     H12923   3.542   0.223  -0.206 -0.1863  1.1209 -0.7022
   96MOL0     H12924   3.318  -0.174  -0.779 -0.7263 -0.3540 -0.6143
   96MOL0     H12925   3.128  -0.315  -0.837 -2.3915 -0.8780  1.6797
   96MOL0     H12926   3.103  -0.700  -0.631  1.1190  1.0190 -0.2905
   96MOL0     H12927   2.969  -0.617  -0.535 -1.6759 -3.1971 -0.4151
   96MOL0     H12928   2.869  -0.783  -0.659  2.5207 -2.3395 -1.4070
   96MOL0     H12929   2.828  -0.638  -0.747 -1.0814 -1.0704  0.0278
   96MOL0     H12930   3.022  -0.675  -0.894 -3.4484  1.7980 -1.1142
   96MOL0     H12931   2.895  -0.783  -0.914  0.5798  0.2041 -1.8714
   96MOL0     H12932   3.147  -0.852  -0.776  1.4632  1.6270 -3.0554
   96MOL0     H12933   3.007  -0.961  -0.770 -0.9550 -0.3962 -1.6039
   96MOL0     H12934   3.158  -0.851  -1.022 -2.0328  1.4188  0.6109
   96MOL0     H12935   3.001  -0.941  -1.038 -0.0489  1.4333 -0.8467
   96MOL0     H12936   3.084  -1.137  -0.936  1.5120 -1.2446  1.1125
   96MOL0     H12937   3.151  -1.107  -1.089 -1.8768  0.4874 -0.4916
   96MOL0     H12938   3.300  -1.182  -0.902  0.2332  0.0886  0.0202
   96MOL0     H12939   3.300  -1.011  -0.839  0.2254 -2.0921  2.1051
   96MOL0     H12940   3.389  -0.925  -1.036 -1.4918 -1.0011 -2.8232
   96MOL0     H12941   3.384  -1.071  -1.128 -0.5345  2.3047 -1.8142
   96MOL0     H12942   3.143  -0.501  -0.458 -0.9927  0.8273 -0.0265
   96MOL0     H12943   3.344  -0.368  -0.403  0.0380 -0.2977 -0.8433
   96MOL0     H12944   3.715  -0.219  -0.516  1.9424  0.9731 -0.6443
   96MOL0     H12945   3.920  -0.103  -0.511  0.4790  1.5969 -0.9081
   96MOL0     H12946   5.540   1.152  -0.165 -1.8490 -2.9577 -2.2467
   96MOL0     H12947   5.775   1.192  -0.073  0.7889  0.8595  2.4688
   96MOL0     H12948   5.902   1.463   0.364  0.9095  1.0776  1.6248
   96MOL0     H12949   6.090   1.518   0.488  0.4035 -0.6541  1.7291
   96MOL0     H12950   6.507   1.450   0.494 -1.4903  2.7223 -0.1953
   96MOL0     H12951   6.454   1.301   0.399 -0.6006 -1.1969  1.4718
   96MOL0     H12952   6.330   1.460   0.255  0.8286  0.4133 -0.5239
   96MOL0     H12953   6.503   1.496   0.250  0.4633 -0.3208  0.1787
   96MOL0     H12954   6.453   1.677   0.424  2.5606  0.2131 -0.7039
   96MOL0     H12955   6.284   1.651   0.390  1.7145 -0.7872  0.2829
   96MOL0     H12956   6.325   1.816   0.250  1.1263  1.1882  0.0567
   96MOL0     H12957   6.353   1.680   0.138 -2.6213 -0.4668  0.9840
   96MOL0     H12958   6.740   1.849   0.166 -0.0770 -0.9207 -0.9796
   96MOL0     H12959   6.273   1.138   0.393 -1.3176 -0.4935 -1.5909
   96MOL0     H12960   6.069   1.069   0.287  0.0739  0.3659  0.5810
   97MOL0     O12961   5.945   3.078   4.663  0.5165  0.6127  0.5036
   97MOL0     C12962   6.015   3.080   4.564 -0.1269  0.4519  0.2302
   97MOL0     O12963   5.976   3.052   4.432  0.3913  0.1833 -0.2650
   97MOL0     C12964   5.843   3.037   4.413  0.0035 -0.1283  0.5176
   97MOL0     C12965   5.740   3.132   4.429  0.0487  0.2441 -0.1217
   97MOL0     C12966   5.615   3.091   4.381 -0.4426 -0.0896 -0.5436
   97MOL0     C12967   5.577   2.964   4.351  0.9838  0.2615  0.1876
   97MOL0     O12968   5.447   2.940   4.317  0.2207  0.5089 -0.7089
   97MOL0     C12969   5.412   2.817   4.244 -0.4127  0.1051 -0.2486
   97MOL0     C12970   5.263   2.816   4.220  0.1720 -0.8438 -0.4747
   97MOL0     C12971   5.221   2.689   4.147  0.2045  0.0194  0.7005
   97MOL0     C12972   5.078   2.696   4.095 -0.7546  0.5100 -0.3039
   97MOL0     C12973   5.055   2.570   4.015 -0.4889  0.1597  0.4964
   97MOL0     C12974   4.912   2.561   3.953 -0.0010  0.1227  0.2913
   97MOL0     C12975   4.795   2.569   4.047 -0.2719  0.9513 -0.5469
   97MOL0     C12976   4.670   2.554   3.971  0.3311  0.0627 -0.0573
   97MOL0     N12977   4.551   2.593   4.050 -0.0442 -0.2980  0.1032
   97MOL0     C12978   4.472   2.704   4.020  0.1272 -0.9365  0.1597
   97MOL0     C12979   4.373   2.698   4.103 -0.3530 -0.8759  0.5259
   97MOL0     C12980   4.269   2.803   4.100 -0.1113 -0.5126 -0.2686
   97MOL0     C12981   4.315   2.938   4.145  0.2453  0.1180  0.0559
   97MOL0     C12982   4.218   3.058   4.102  0.5345 -0.5725  0.2436
   97MOL0     C12983   4.072   3.058   4.157  0.1472 -0.1140 -0.0687
   97MOL0     O12984   4.019   2.939   4.114 -0.0035  0.4230 -0.2270
   97MOL0     C12985   3.888   2.915   4.157  0.0353 -0.1085 -1.0115
   97MOL0     C12986   3.775   2.999   4.117 -0.5301  0.2047 -0.0241
   97MOL0     C12987   3.649   2.953   4.154 -0.4469  0.7370  0.5723
   97MOL0     C12988   3.544   3.038   4.094  1.0556  0.4611 -0.4597
   97MOL0     C12989   3.628   2.856   4.251 -0.5230  1.0659  0.3096
   97MOL0     C12990   3.505   2.817   4.313  0.1657 -0.1881 -0.2122
   97MOL0     O12991   3.511   2.771   4.438 -0.1405 -0.0889 -1.1818
   97MOL0     C12992   3.422   2.677   4.483 -0.3039  0.0325 -0.2934
   97MOL0     C12993   3.446   2.540   4.449 -0.4901 -0.1851  0.1389
   97MOL0     C12994   3.358   2.442   4.496 -0.3758 -0.4326  0.3915
   97MOL0     C12995   3.242   2.470   4.574  0.2519 -0.5682 -0.9683
   97MOL0     O12996   3.148   2.379   4.630  0.0595  0.5847 -0.0687
   97MOL0     C12997   3.208   2.250   4.642 -1.1218 -0.1039 -0.7635
   97MOL0     C12998   3.121   2.150   4.725 -0.3743 -0.3924 -0.5667
   97MOL0     C12999   2.969   2.170   4.691 -0.7330 -0.1087  0.1202
   97MOL0     C13000   2.890   2.042   4.698 -0.0889 -0.0116  0.3895
   97MOL0     C13001   2.741   2.082   4.688 -0.6163  0.0624  0.1121
   97MOL0     C13002   2.641   1.967   4.717  0.0999 -0.1135  0.8457
   97MOL0     C13003   2.502   1.965   4.634  1.0772 -0.1762  0.4662
   97MOL0     C13004   2.499   1.859   4.515 -0.0324 -0.1736 -0.3545
   97MOL0    Cl13005   2.632   1.876   4.397 -0.5819 -0.2329  0.0057
   97MOL0     C13006   3.230   2.609   4.610  0.3107  0.9431  0.4176
   97MOL0     C13007   3.316   2.710   4.560  0.1778  0.4034  0.5776
   97MOL0     O13008   3.404   2.803   4.241 -0.0583  0.2528 -0.3186
   97MOL0     C13009   3.740   2.797   4.309  0.4640 -0.2785 -0.1086
   97MOL0     C13010   3.871   2.821   4.256  0.2955 -0.9800 -0.7585
   97MOL0     N13011   4.378   2.584   4.183 -0.0092 -0.2547  0.7889
   97MOL0     N13012   4.493   2.524   4.154  0.4046 -0.2135  0.5244
   97MOL0     C13013   5.683   2.877   4.331 -0.0778  0.6799 -0.0261
   97MOL0     C13014   5.816   2.906   4.364  0.6856 -0.4509 -0.4627
   97MOL0     C13015   6.165   3.103   4.587  0.4036  0.0223 -0.8895
   97MOL0     C13016   6.230   3.036   4.694 -0.1497 -0.1491 -0.4521
   97MOL0     C13017   6.368   3.065   4.717  0.0611  0.0053 -0.3217
   97MOL0     C13018   6.440   3.149   4.637  0.3320  0.8081 -0.6230
   97MOL0     O13019   6.572   3.170   4.681  0.8283 -0.5130  0.2609
   97MOL0     C13020   6.600   3.209   4.816 -0.2464  0.2700 -0.3380
   97MOL0     C13021   6.751   3.182   4.832  0.9192 -0.1674  0.2580
   97MOL0     C13022   6.794   3.237   4.968 -0.0897  0.4614 -0.5655
   97MOL0     C13023   6.900   3.143   5.026  0.2148 -0.5138 -0.4223
   97MOL0     C13024   7.013   3.115   4.939 -0.0519 -0.8719  0.6207
   97MOL0     C13025   7.105   3.085   4.865  0.6298  0.1950  0.0872
   97MOL0     C13026   6.376   3.218   4.523  0.3696  0.5221 -0.2287
   97MOL0     C13027   6.236   3.196   4.503 -0.0297 -0.9116 -0.9922
   97MOL0     H13028   5.766   3.228   4.474  1.9818 -1.0060  1.5874
   97MOL0     H13029   5.534   3.162   4.377 -1.4309 -0.9347  2.0002
   97MOL0     H13030   5.472   2.826   4.152 -1.3292  0.5205 -0.8205
   97MOL0     H13031   5.446   2.723   4.288 -1.3846 -0.7952 -1.3428
   97MOL0     H13032   5.215   2.828   4.318  0.8539  0.9116 -0.3077
   97MOL0     H13033   5.235   2.905   4.163  1.3128  0.4356  0.8573
   97MOL0     H13034   5.291   2.680   4.064 -0.7760 -2.3689  0.0361
   97MOL0     H13035   5.227   2.603   4.214 -3.1404  0.3171  1.5537
   97MOL0     H13036   5.011   2.691   4.182 -0.9520  2.4426 -0.2876
   97MOL0     H13037   5.078   2.788   4.036  0.7281  1.0379  0.4658
   97MOL0     H13038   5.130   2.561   3.935 -1.1226  1.2383 -0.2468
   97MOL0     H13039   5.066   2.481   4.078  4.5615 -0.4410 -0.7585
   97MOL0     H13040   4.894   2.639   3.878  1.3500 -1.7547 -2.0936
   97MOL0     H13041   4.903   2.468   3.898  0.2850 -0.9217  1.9178
   97MOL0     H13042   4.804   2.482   4.114 -1.1225 -1.9066 -3.8771
   97MOL0     H13043   4.801   2.656   4.113  1.8715 -0.7274  1.7174
   97MOL0     H13044   4.671   2.454   3.926 -1.6852  0.7449 -1.7537
   97MOL0     H13045   4.673   2.621   3.885  0.5826 -1.2880 -1.1386
   97MOL0     H13046   4.496   2.779   3.945  1.9532 -1.7789 -0.1580
   97MOL0     H13047   4.222   2.821   4.003 -0.0569  1.2470 -0.0080
   97MOL0     H13048   4.194   2.768   4.171  1.4111  1.8498  2.7642
   97MOL0     H13049   4.419   2.960   4.122  0.8394  1.0833  3.1445
   97MOL0     H13050   4.318   2.936   4.254  2.3256  0.8680  0.0465
   97MOL0     H13051   4.212   3.051   3.993 -1.5640 -1.7830  0.3630
   97MOL0     H13052   4.256   3.155   4.134  2.2627 -1.1591  0.0540
   97MOL0     H13053   4.019   3.143   4.114  1.3778  0.1515 -1.1388
   97MOL0     H13054   4.085   3.051   4.265 -0.1079 -3.4420 -0.1550
   97MOL0     H13055   3.796   3.082   4.051 -0.0691  0.0793 -0.0381
   97MOL0     H13056   3.573   3.112   4.019  1.8095 -0.8520 -1.5122
   97MOL0     H13057   3.468   2.977   4.044  0.7248 -1.9270  2.6458
   97MOL0     H13058   3.494   3.088   4.178  2.8880  0.6078  0.5933
   97MOL0     H13059   3.516   2.505   4.374  0.2859  1.3024  0.1254
   97MOL0     H13060   3.385   2.339   4.472  2.0742  0.3657 -0.6482
   97MOL0     H13061   3.229   2.204   4.545  0.0880 -0.4261 -0.3761
   97MOL0     H13062   3.307   2.259   4.689 -0.8312 -2.1432 -0.8779
   97MOL0     H13063   3.148   2.048   4.698  2.0348 -0.0426  0.3444
   97MOL0     H13064   3.142   2.158   4.832 -0.1413  0.3356 -0.6600
   97MOL0     H13065   2.947   2.205   4.590 -1.6815  0.0878  0.3821
   97MOL0     H13066   2.933   2.248   4.760 -0.2671 -1.5744  2.0900
   97MOL0     H13067   2.921   1.976   4.617 -2.1659  1.0036 -1.3098
   97MOL0     H13068   2.914   2.007   4.799 -1.8900  4.9629  2.8801
   97MOL0     H13069   2.714   2.107   4.585 -2.2019 -2.0911 -0.0750
   97MOL0     H13070   2.725   2.162   4.760  1.5852 -0.5930  1.4467
   97MOL0     H13071   2.693   1.876   4.686 -0.3455  0.0851 -0.5280
   97MOL0     H13072   2.614   1.955   4.823 -1.5815  0.2251  0.4754
   97MOL0     H13073   2.476   2.066   4.600 -0.8988 -1.0056 -0.6873
   97MOL0     H13074   2.421   1.934   4.701 -0.2272 -1.0274 -1.4068
   97MOL0     H13075   2.400   1.849   4.470 -0.0006 -2.3386 -0.0438
   97MOL0     H13076   2.517   1.758   4.552  0.7082  0.7731  2.0473
   97MOL0     H13077   3.142   2.634   4.669 -0.7083  0.3255 -0.7918
   97MOL0     H13078   3.302   2.813   4.592  0.2858  0.3269  0.8791
   97MOL0     H13079   3.733   2.726   4.391 -3.9967  0.7101  0.6393
   97MOL0     H13080   3.956   2.771   4.302  0.5230 -0.8833 -1.0697
   97MOL0     H13081   5.679   2.776   4.292  2.6461  0.7515 -0.6971
   97MOL0     H13082   5.899   2.840   4.342  2.5075  1.7017 -0.4927
   97MOL0     H13083   6.178   2.972   4.765  0.4425 -1.3777 -1.0918
   97MOL0     H13084   6.419   3.006   4.792  1.2361 -0.7720 -1.6812
   97MOL0     H13085   6.587   3.318   4.825 -0.4224  0.1246  1.3762
   97MOL0     H13086   6.547   3.150   4.891 -0.4197 -1.8735 -2.0547
   97MOL0     H13087   6.802   3.238   4.753  2.3220  1.1726  2.0154
   97MOL0     H13088   6.769   3.076   4.814  1.9447 -0.2142  1.4066
   97MOL0     H13089   6.704   3.248   5.031  1.3071  1.8390  1.3048
   97MOL0     H13090   6.835   3.338   4.970 -3.2926  1.9043  0.7758
   97MOL0     H13091   6.855   3.051   5.065 -0.5030  0.3574  0.8720
   97MOL0     H13092   6.948   3.195   5.109  0.8759 -1.2771 -0.3194
   97MOL0     H13093   7.178   3.070   4.788 -0.4655 -3.9762 -0.3786
   97MOL0     H13094   6.435   3.274   4.452  1.1620  0.7836  0.6202
   97MOL0     H13095   6.182   3.249   4.425 -1.4649 -2.8254 -1.3879
   98MOL0     O13096   8.215   2.080   7.284 -0.0166  0.3102 -0.3239
   98MOL0     C13097   8.267   2.115   7.392 -0.2224 -0.4762 -0.0348
   98MOL0     O13098   8.196   2.173   7.495  0.2087 -0.4176 -0.1631
   98MOL0     C13099   8.064   2.208   7.483  0.2233  0.0900 -0.1186
   98MOL0     C13100   7.975   2.165   7.587 -0.0142 -0.0629  0.0916
   98MOL0     C13101   7.831   2.197   7.591 -0.3709  0.5921  0.7181
   98MOL0     C13102   7.790   2.283   7.492  0.2454  0.6613  0.5752
   98MOL0     O13103   7.654   2.314   7.481 -0.0806 -0.0215 -0.8329
   98MOL0     C13104   7.578   2.351   7.591  0.5742 -0.2451 -0.0843
   98MOL0     C13105   7.444   2.281   7.598  0.5103  0.6012 -0.6620
   98MOL0     C13106   7.361   2.317   7.722  0.6708  0.6359 -0.2439
   98MOL0     C13107   7.241   2.225   7.742  0.9213  0.6193 -0.1614
   98MOL0     C13108   7.281   2.118   7.838 -0.0221 -0.2936  0.1796
   98MOL0     C13109   7.157   2.034   7.880  0.0567  0.2643 -0.1734
   98MOL0     C13110   7.041   2.106   7.945  0.4679  0.5081 -0.4450
   98MOL0     C13111   6.957   2.014   8.043 -0.0224  0.8921  0.7033
   98MOL0     N13112   6.857   1.918   7.989 -0.1701 -0.0991 -0.3611
   98MOL0     C13113   6.740   1.895   8.063 -0.2891 -0.5146 -0.1768
   98MOL0     C13114   6.689   1.782   8.007  0.2206  1.2550  0.0822
   98MOL0     C13115   6.551   1.727   8.018 -0.5367  0.6963 -0.3865
   98MOL0     C13116   6.457   1.794   7.914  0.4740 -0.5982  0.3447
   98MOL0     C13117   6.417   1.944   7.940 -0.3001  0.1125  0.4289
   98MOL0     C13118   6.331   2.012   7.834 -0.0847  0.3710 -0.4573
   98MOL0     O13119   6.209   1.935   7.818 -0.4925  0.8300  0.0772
   98MOL0     C13120   6.099   2.001   7.786  0.4452  0.0554 -0.5079
   98MOL0     C13121   6.096   2.117   7.700 -0.3501  0.0619 -0.1908
   98MOL0     C13122   5.971   2.180   7.666 -0.8387  0.6366 -0.1125
   98MOL0     C13123   5.986   2.292   7.563  0.4081  0.4139 -0.5551
   98MOL0     C13124   5.847   2.136   7.723  0.0848  0.7321  0.4147
   98MOL0     C13125   5.714   2.188   7.685  0.5443 -0.9194  0.6637
   98MOL0     O13126   5.702   2.245   7.563 -0.4757  0.4035 -0.7812
   98MOL0     C13127   5.580   2.310   7.524 -0.0413 -0.3852 -0.0255
   98MOL0     C13128   5.518   2.282   7.399 -0.6573  0.3846  0.5453
   98MOL0     C13129   5.399   2.344   7.360  0.0446 -0.3287 -1.0232
   98MOL0     C13130   5.343   2.443   7.440  0.6462 -0.0692 -0.0492
   98MOL0     O13131   5.233   2.496   7.383  0.3488 -0.2133 -0.5948
   98MOL0     C13132   5.158   2.598   7.457  0.5178  0.0027 -0.3382
   98MOL0     C13133   5.071   2.684   7.356  0.2805  0.5793  0.4600
   98MOL0     C13134   5.005   2.811   7.421 -0.6097 -0.5434  0.0687
   98MOL0     C13135   4.869   2.837   7.362  0.5192  1.1830  0.8521
   98MOL0     C13136   4.784   2.928   7.449  0.7262 -0.7611 -0.9605
   98MOL0     C13137   4.643   2.948   7.387 -0.4841 -0.1556 -0.1553
   98MOL0     C13138   4.573   3.041   7.483 -0.4804  0.3639  0.4084
   98MOL0     C13139   4.434   3.074   7.423 -0.9696  0.1203 -0.0835
   98MOL0    Cl13140   4.445   3.151   7.263  0.0985 -0.1054 -0.3757
   98MOL0     C13141   5.395   2.464   7.566 -1.1970 -1.4486  0.2643
   98MOL0     C13142   5.514   2.406   7.606  0.2010 -0.1060 -0.4056
   98MOL0     O13143   5.626   2.164   7.768 -0.7852  0.1710  0.2634
   98MOL0     C13144   5.853   2.034   7.823  0.3916  0.7851 -0.1339
   98MOL0     C13145   5.978   1.964   7.842 -0.4886 -0.3616  0.0409
   98MOL0     N13146   6.781   1.731   7.913  0.5139  0.5508  0.0212
   98MOL0     N13147   6.874   1.811   7.896 -0.3561 -0.5755  0.1341
   98MOL0     C13148   7.876   2.339   7.398  1.0941 -0.4690 -0.4495
   98MOL0     C13149   8.013   2.300   7.385 -0.2755 -0.3723  0.5157
   98MOL0     C13150   8.407   2.085   7.417  0.5996  0.0406  0.6255
   98MOL0     C13151   8.475   1.993   7.334  0.0670 -0.0707 -0.6530
   98MOL0     C13152   8.613   1.970   7.356 -0.0955 -0.1782  0.1419
   98MOL0     C13153   8.682   2.034   7.456  0.5488 -0.1911 -0.8857
   98MOL0     O13154   8.810   2.003   7.490 -0.1095  0.4270  0.4462
   98MOL0     C13155   8.886   1.909   7.406  0.5919  0.1197 -0.1451
   98MOL0     C13156   9.006   1.877   7.480 -0.6103  0.6714 -0.6265
   98MOL0     C13157   9.086   2.005   7.518 -0.0128  0.4329  0.0662
   98MOL0     C13158   9.231   1.964   7.558  0.7637  1.0963 -0.9686
   98MOL0     C13159   9.323   2.072   7.590 -1.0387 -0.1954  0.3205
   98MOL0     C13160   9.383   2.166   7.632 -0.0072 -0.6602  0.1748
   98MOL0     C13161   8.616   2.125   7.539  0.4355 -0.1640 -0.2129
   98MOL0     C13162   8.477   2.152   7.523 -0.7524  0.0432  0.1127
   98MOL0     H13163   8.014   2.106   7.669  2.7354  2.4544  0.7462
   98MOL0     H13164   7.755   2.153   7.655  1.5635 -4.0133  0.2771
   98MOL0     H13165   7.641   2.333   7.678  2.4841 -0.9536 -1.5417
   98MOL0     H13166   7.560   2.458   7.585 -0.5633 -0.3655  0.7311
   98MOL0     H13167   7.382   2.324   7.519 -0.8210  3.8028  1.8928
   98MOL0     H13168   7.441   2.172   7.595  2.0160  0.4867  0.6035
   98MOL0     H13169   7.430   2.328   7.807  1.3992 -0.1165 -0.7229
   98MOL0     H13170   7.328   2.421   7.716 -2.5609  0.1432  4.1891
   98MOL0     H13171   7.159   2.285   7.781  0.8734  0.1671  0.4526
   98MOL0     H13172   7.213   2.171   7.650 -0.3679 -2.2109  1.7344
   98MOL0     H13173   7.363   2.062   7.793 -2.1178 -1.7290 -2.0898
   98MOL0     H13174   7.331   2.156   7.928  1.0363 -3.2566  0.9612
   98MOL0     H13175   7.114   1.988   7.790  0.0594  1.4364 -0.7986
   98MOL0     H13176   7.191   1.957   7.949 -1.7647 -1.6614 -1.3167
   98MOL0     H13177   7.083   2.194   7.995 -2.2342  0.0394  3.0537
   98MOL0     H13178   6.968   2.148   7.875 -0.4228  0.2732  0.3207
   98MOL0     H13179   6.901   2.096   8.089  1.7493  2.9992 -0.6688
   98MOL0     H13180   7.019   1.964   8.117 -0.1715  1.8163  1.4674
   98MOL0     H13181   6.699   1.958   8.142  2.7233  0.3086  0.8394
   98MOL0     H13182   6.561   1.619   8.014  1.0113  0.8608 -2.6082
   98MOL0     H13183   6.513   1.751   8.118  4.3238  0.5547  1.7586
   98MOL0     H13184   6.360   1.743   7.912 -0.4898  1.1535  0.8192
   98MOL0     H13185   6.514   1.793   7.821  3.2520  0.9518  1.9075
   98MOL0     H13186   6.500   2.014   7.948 -0.6663  1.5745 -4.6039
   98MOL0     H13187   6.365   1.951   8.036 -0.8435  1.4746  0.0715
   98MOL0     H13188   6.384   2.029   7.740  1.9540  0.3266  0.6323
   98MOL0     H13189   6.292   2.109   7.866  0.6818  0.9061 -1.1212
   98MOL0     H13190   6.191   2.153   7.660  0.1370  1.4560  2.0339
   98MOL0     H13191   5.919   2.375   7.590  1.3836  0.4970  1.8190
   98MOL0     H13192   6.089   2.325   7.550 -0.3436  3.6697  0.8709
   98MOL0     H13193   5.955   2.241   7.471  1.5556 -2.0625  0.3331
   98MOL0     H13194   5.567   2.205   7.340 -3.7412  0.1221 -1.9460
   98MOL0     H13195   5.355   2.302   7.270 -3.6892  0.7108  0.1269
   98MOL0     H13196   5.089   2.564   7.535  0.5398  0.1490 -0.2540
   98MOL0     H13197   5.227   2.672   7.499  0.1567  0.3429 -0.3401
   98MOL0     H13198   5.131   2.721   7.272  0.2770  0.5091  0.4267
   98MOL0     H13199   4.989   2.623   7.315  2.9532 -1.4958 -2.2898
   98MOL0     H13200   5.052   2.906   7.397 -1.0039 -0.9260 -2.5143
   98MOL0     H13201   5.000   2.795   7.529  0.0065  1.1827  0.3789
   98MOL0     H13202   4.885   2.870   7.259  1.0312 -1.9488 -0.1885
   98MOL0     H13203   4.810   2.745   7.364 -1.4774  2.4138  2.5443
   98MOL0     H13204   4.838   3.022   7.464 -0.5328 -0.1482 -0.0053
   98MOL0     H13205   4.771   2.892   7.552 -3.2733  1.3244 -0.5071
   98MOL0     H13206   4.660   2.997   7.291  0.0496  0.9626  0.4833
   98MOL0     H13207   4.577   2.862   7.377  0.0026 -1.0281  3.0044
   98MOL0     H13208   4.633   3.133   7.486  0.6094 -0.2907 -0.5079
   98MOL0     H13209   4.561   3.001   7.584  1.6423 -2.4529 -0.3221
   98MOL0     H13210   4.382   3.148   7.485 -0.1932  2.0810 -1.6524
   98MOL0     H13211   4.375   2.982   7.411  0.5306 -0.7283 -1.2665
   98MOL0     H13212   5.343   2.534   7.630 -0.4389  0.7256 -1.3894
   98MOL0     H13213   5.557   2.426   7.704  2.8472  1.8953 -1.8375
   98MOL0     H13214   5.763   1.996   7.869 -0.4110  2.7512  0.0206
   98MOL0     H13215   5.966   1.886   7.916 -1.2123  0.1281  0.4451
   98MOL0     H13216   7.831   2.427   7.354  0.2113 -0.5711  0.2236
   98MOL0     H13217   8.081   2.349   7.317 -0.6353 -2.9993 -1.9266
   98MOL0     H13218   8.420   1.937   7.259 -1.8120  1.3124 -0.3773
   98MOL0     H13219   8.665   1.895   7.298  0.4498  0.9986 -0.9691
   98MOL0     H13220   8.832   1.817   7.382  1.4471 -0.6328  0.7288
   98MOL0     H13221   8.909   1.960   7.313 -1.3715  2.8014  0.7073
   98MOL0     H13222   9.065   1.806   7.421 -1.0935 -0.5298  0.2848
   98MOL0     H13223   8.985   1.815   7.568  2.1096  1.3904  0.6396
   98MOL0     H13224   9.032   2.058   7.597  3.2997  1.2773  1.9526
   98MOL0     H13225   9.094   2.080   7.439 -1.1871  1.6440  1.0384
   98MOL0     H13226   9.272   1.900   7.479 -0.4659 -3.6840  1.9063
   98MOL0     H13227   9.233   1.894   7.641  3.0455  0.9335 -1.1012
   98MOL0     H13228   9.444   2.244   7.672  2.7503 -2.1034 -0.9420
   98MOL0     H13229   8.668   2.169   7.624  0.9421 -0.9487 -0.1029
   98MOL0     H13230   8.430   2.220   7.595  0.5722 -1.1215  2.1781
   99MOL0     O13231   5.924   8.599  10.847 -1.0317 -0.0834  0.4128
   99MOL0     C13232   6.017   8.522  10.862 -0.1577  0.3601 -0.0250
   99MOL0     O13233   6.006   8.389  10.840 -0.3667 -0.7411  0.1778
   99MOL0     C13234   5.877   8.344  10.828  0.6114  0.0298  0.3285
   99MOL0     C13235   5.774   8.355  10.927  1.0865 -0.1022  0.1212
   99MOL0     C13236   5.646   8.307  10.881  0.4078 -0.4562 -0.3986
   99MOL0     C13237   5.622   8.234  10.759 -0.7002 -0.0720 -0.8257
   99MOL0     O13238   5.503   8.169  10.744  0.3061 -0.3733 -0.9994
   99MOL0     C13239   5.498   8.029  10.776 -0.0052 -0.7794  0.7459
   99MOL0     C13240   5.479   8.009  10.935 -0.5437 -0.3157  0.5182
   99MOL0     C13241   5.348   8.068  10.993 -0.3005  0.9055  0.6866
   99MOL0     C13242   5.229   7.968  10.949  0.4799 -0.2560  0.1663
   99MOL0     C13243   5.096   8.016  11.013 -0.5696  0.5640  0.0803
   99MOL0     C13244   4.964   7.954  10.948  0.5849 -0.0344 -0.7442
   99MOL0     C13245   4.836   8.002  11.026 -0.5724 -0.1279 -0.2368
   99MOL0     C13246   4.707   7.945  10.984  1.3133 -0.2039  1.1513
   99MOL0     N13247   4.608   8.055  11.023 -0.1790 -0.5119 -0.2203
   99MOL0     C13248   4.525   8.054  11.131  0.1449 -0.0639  1.0928
   99MOL0     C13249   4.429   8.149  11.095  0.0001  0.3900  0.1806
   99MOL0     C13250   4.314   8.196  11.183  0.1670  0.3774  0.4065
   99MOL0     C13251   4.204   8.089  11.202  0.4649 -0.6216  0.3733
   99MOL0     C13252   4.077   8.136  11.280  0.2322 -0.2746 -0.2910
   99MOL0     C13253   3.989   8.017  11.309 -1.2536 -0.0699  0.3877
   99MOL0     O13254   3.874   8.059  11.384  0.7145  1.0383  0.2386
   99MOL0     C13255   3.749   8.073  11.326 -0.5170 -0.6288  0.1802
   99MOL0     C13256   3.651   8.101  11.409 -0.7840  0.1163  0.3630
   99MOL0     C13257   3.516   8.112  11.366  0.2606 -0.1069 -0.6414
   99MOL0     C13258   3.411   8.134  11.467  0.1973 -0.0671  0.7041
   99MOL0     C13259   3.491   8.090  11.228  1.0310 -0.8722 -0.3106
   99MOL0     C13260   3.358   8.091  11.174  0.6874 -0.3128  0.6616
   99MOL0     O13261   3.328   7.992  11.074 -0.6361 -0.7068 -0.1822
   99MOL0     C13262   3.203   7.985  11.022 -0.6369 -0.5834  0.2482
   99MOL0     C13263   3.154   8.083  10.932 -0.1044 -0.1934  0.4859
   99MOL0     C13264   3.023   8.078  10.879 -0.8932 -0.0257  0.2274
   99MOL0     C13265   2.936   7.974  10.922  0.2600 -0.5665 -0.2012
   99MOL0     O13266   2.804   7.967  10.878  0.3590  0.3926  0.6862
   99MOL0     C13267   2.731   7.844  10.912 -0.8708  0.5812 -0.2386
   99MOL0     C13268   2.596   7.856  10.849  0.2464  0.3362  0.1588
   99MOL0     C13269   2.538   7.728  10.794  0.5918  0.7538 -0.1673
   99MOL0     C13270   2.385   7.736  10.750  0.7335  0.4482 -0.3709
   99MOL0     C13271   2.345   7.589  10.735 -0.0267  0.1050 -0.1875
   99MOL0     C13272   2.193   7.580  10.692 -0.3995 -0.3595 -0.6357
   99MOL0     C13273   2.147   7.439  10.677 -0.4769 -0.6468  0.8869
   99MOL0     C13274   2.119   7.372  10.805 -0.1026  0.7340 -0.2392
   99MOL0    Cl13275   1.991   7.448  10.895 -0.1018 -0.3313 -0.8416
   99MOL0     C13276   2.991   7.876  11.006  0.1930  0.8741 -0.5514
   99MOL0     C13277   3.126   7.877  11.052 -0.4807  0.0284 -0.3014
   99MOL0     O13278   3.276   8.180  11.205  0.4650  0.3877  0.5298
   99MOL0     C13279   3.595   8.089  11.140  0.1678 -0.3629 -0.2813
   99MOL0     C13280   3.723   8.080  11.187 -0.0218  0.0721 -0.5102
   99MOL0     N13281   4.454   8.199  10.965  1.2047 -0.6547  0.1317
   99MOL0     N13282   4.566   8.150  10.934 -0.1081 -0.3651  0.5868
   99MOL0     C13283   5.729   8.212  10.673  0.1798  0.2384 -0.4848
   99MOL0     C13284   5.849   8.272  10.705 -0.8214 -0.9570 -0.0387
   99MOL0     C13285   6.155   8.577  10.886 -0.3200  0.7232 -0.3441
   99MOL0     C13286   6.267   8.491  10.887  0.7942 -0.3864 -0.0310
   99MOL0     C13287   6.391   8.538  10.929  0.1324  0.3623  0.2389
   99MOL0     C13288   6.407   8.676  10.959  0.1805  0.5331 -0.0594
   99MOL0     O13289   6.518   8.730  11.014  0.2981  0.7183 -0.5632
   99MOL0     C13290   6.617   8.644  11.070 -1.0961 -0.5903  0.2462
   99MOL0     C13291   6.563   8.572  11.190  1.1328 -0.8608  0.4120
   99MOL0     C13292   6.674   8.514  11.280  0.1028  0.8051 -0.0887
   99MOL0     C13293   6.768   8.414  11.214  0.2672  0.1770  0.2018
   99MOL0     C13294   6.710   8.331  11.111 -0.9975  0.1943 -0.3331
   99MOL0     C13295   6.662   8.268  11.017 -0.0640  0.5670 -0.8341
   99MOL0     C13296   6.301   8.763  10.947 -0.4264  0.2457 -0.0306
   99MOL0     C13297   6.178   8.716  10.913  0.1306 -0.5359  0.1176
   99MOL0     H13298   5.797   8.401  11.023 -3.1011 -0.4904  1.5187
   99MOL0     H13299   5.559   8.323  10.943 -0.5524  0.6033 -1.9610
   99MOL0     H13300   5.407   7.986  10.732 -0.3542 -1.0226  1.6772
   99MOL0     H13301   5.582   7.980  10.727 -1.1894  0.1594 -2.5047
   99MOL0     H13302   5.489   7.902  10.954 -0.0620 -0.3930 -0.1287
   99MOL0     H13303   5.555   8.057  10.998 -1.6852  3.3659 -0.6433
   99MOL0     H13304   5.353   8.071  11.102  2.1177  1.4257  0.6185
   99MOL0     H13305   5.343   8.171  10.955  2.2710  1.2641  1.1366
   99MOL0     H13306   5.209   7.963  10.842  2.2840 -0.8303 -0.1775
   99MOL0     H13307   5.260   7.865  10.968  0.5055 -0.3760 -0.5084
   99MOL0     H13308   5.089   7.995  11.120 -0.9082  3.1694  0.6428
   99MOL0     H13309   5.104   8.125  11.001  0.9575  0.1886 -3.5982
   99MOL0     H13310   4.955   7.971  10.840 -1.0685 -1.6147 -0.9108
   99MOL0     H13311   4.964   7.845  10.949  0.4797 -0.0371 -0.9029
   99MOL0     H13312   4.837   7.992  11.135  0.1231  0.6983 -0.1543
   99MOL0     H13313   4.844   8.111  11.020  4.4961 -0.1685  1.2214
   99MOL0     H13314   4.677   7.858  11.042 -0.7978 -1.1752 -1.2025
   99MOL0     H13315   4.714   7.922  10.877  5.0859  0.0951  1.1875
   99MOL0     H13316   4.525   7.984  11.214 -1.3903 -1.7675 -0.2732
   99MOL0     H13317   4.367   8.214  11.277 -2.0954 -2.3168  2.3446
   99MOL0     H13318   4.275   8.293  11.151  2.6477  1.6310  0.9569
   99MOL0     H13319   4.250   8.002  11.249 -2.0160 -1.8932  0.6034
   99MOL0     H13320   4.171   8.057  11.103  0.5169  1.8181 -0.4908
   99MOL0     H13321   4.027   8.215  11.223 -2.3009 -1.0589  0.6936
   99MOL0     H13322   4.099   8.177  11.379 -0.3178 -0.6391 -0.0121
   99MOL0     H13323   4.037   7.944  11.374 -3.0034 -2.7058 -1.0806
   99MOL0     H13324   3.963   7.966  11.215  1.2315 -1.4453  0.3820
   99MOL0     H13325   3.686   8.113  11.511 -0.1207 -0.4986  0.2207
   99MOL0     H13326   3.385   8.240  11.471  1.1205  0.1554  1.0391
   99MOL0     H13327   3.323   8.077  11.434 -0.3644  1.7155 -1.0869
   99MOL0     H13328   3.447   8.094  11.562  2.0105 -0.3867 -0.0774
   99MOL0     H13329   3.217   8.166  10.902  0.4238 -0.8390 -0.2363
   99MOL0     H13330   2.981   8.146  10.806 -3.0888 -0.2107  1.2501
   99MOL0     H13331   2.782   7.757  10.871 -0.6518  0.1724  0.8663
   99MOL0     H13332   2.725   7.833  11.021 -0.1174  1.0963 -0.1429
   99MOL0     H13333   2.530   7.917  10.910 -2.8534 -1.7430 -0.8322
   99MOL0     H13334   2.617   7.911  10.757  0.9497  1.4909  0.9893
   99MOL0     H13335   2.571   7.641  10.852  2.6227  0.2964 -1.8910
   99MOL0     H13336   2.592   7.716  10.700 -4.2202 -2.9257 -2.9307
   99MOL0     H13337   2.314   7.780  10.821 -0.3496 -1.5376 -0.1420
   99MOL0     H13338   2.365   7.794  10.659  0.8590  1.2163  0.0790
   99MOL0     H13339   2.373   7.525  10.818  0.6560  2.6822  1.6758
   99MOL0     H13340   2.403   7.557  10.648  1.2125  3.0611 -0.5697
   99MOL0     H13341   2.128   7.626  10.767  1.8924  1.1294  0.5707
   99MOL0     H13342   2.181   7.634  10.597 -1.3250 -0.1352 -0.3964
   99MOL0     H13343   2.218   7.383  10.616  2.8781  3.5872  0.5047
   99MOL0     H13344   2.060   7.435  10.610  0.6725  1.0667 -0.7847
   99MOL0     H13345   2.208   7.374  10.868  0.6397 -1.5567 -1.1108
   99MOL0     H13346   2.092   7.269  10.779  2.4514  0.0020 -0.2503
   99MOL0     H13347   2.935   7.791  11.044 -0.0694  0.7218 -1.2755
   99MOL0     H13348   3.162   7.803  11.123 -1.0597 -0.1441 -0.1777
   99MOL0     H13349   3.574   8.087  11.034 -1.7435  2.1990 -0.0674
   99MOL0     H13350   3.807   8.075  11.119  1.2545 -1.2355  1.0733
   99MOL0     H13351   5.731   8.154  10.581  0.9967 -0.5873  0.0325
   99MOL0     H13352   5.930   8.263  10.634  0.2962 -1.2441  1.2349
   99MOL0     H13353   6.264   8.385  10.866  0.9734 -0.2419 -0.7967
   99MOL0     H13354   6.472   8.466  10.925 -1.7604 -2.4128  4.6395
   99MOL0     H13355   6.651   8.579  10.988 -1.6385  2.9218 -3.0649
   99MOL0     H13356   6.702   8.703  11.103  1.3270 -1.6629 -3.4629
   99MOL0     H13357   6.488   8.496  11.167 -0.4130  1.2569 -2.1266
   99MOL0     H13358   6.512   8.656  11.238  1.2011  0.2828 -1.4315
   99MOL0     H13359   6.621   8.458  11.359 -1.9339 -3.5038 -4.0049
   99MOL0     H13360   6.731   8.594  11.327  1.2976 -0.4872  0.7321
   99MOL0     H13361   6.809   8.350  11.294 -2.0015 -0.7039  0.7332
   99MOL0     H13362   6.860   8.457  11.173  2.3244 -1.0833  3.0951
   99MOL0     H13363   6.614   8.219  10.935 -1.5630  1.4049 -0.5060
   99MOL0     H13364   6.326   8.868  10.966  0.3471  0.3022 -1.2722
   99MOL0     H13365   6.096   8.786  10.896  0.9859  0.1453 -1.3918
  100MOL0     O13366   6.400   5.399  11.306  0.3389  1.1543  0.5231
  100MOL0     C13367   6.447   5.313  11.385  0.0115 -0.3408 -0.2848
  100MOL0     O13368   6.371   5.238  11.476  0.7428  0.4215 -0.5177
  100MOL0     C13369   6.234   5.259  11.493  1.3570 -0.6191  0.6722
  100MOL0     C13370   6.155   5.218  11.384 -0.7905  0.2488  0.2809
  100MOL0     C13371   6.012   5.252  11.383 -0.7707  1.0388 -0.7594
  100MOL0     C13372   5.952   5.325  11.484  0.3818 -0.9399 -1.1732
  100MOL0     O13373   5.827   5.367  11.484  0.1215 -1.2114  0.4909
  100MOL0     C13374   5.712   5.289  11.433 -0.0334 -0.7540 -0.3588
  100MOL0     C13375   5.594   5.349  11.516 -0.0638  0.3845  0.8119
  100MOL0     C13376   5.456   5.294  11.489  0.5182  0.5702  0.5756
  100MOL0     C13377   5.431   5.154  11.557 -0.2925 -0.8526 -0.4070
  100MOL0     C13378   5.281   5.123  11.577 -0.8251 -1.2009 -0.4840
  100MOL0     C13379   5.205   5.112  11.446  0.2796  0.3688 -0.3307
  100MOL0     C13380   5.048   5.093  11.470 -0.9103  0.1383 -0.6362
  100MOL0     C13381   4.988   5.228  11.517  0.2674 -0.2583  0.5696
  100MOL0     N13382   4.847   5.215  11.539  0.3528 -0.0183  0.2600
  100MOL0     C13383   4.780   5.210  11.659 -1.2808  0.6091 -0.1341
  100MOL0     C13384   4.647   5.190  11.625 -0.6827  0.0316 -0.0013
  100MOL0     C13385   4.522   5.198  11.715 -0.0534 -0.0654  0.0699
  100MOL0     C13386   4.425   5.082  11.682 -0.6118  0.3565 -0.3308
  100MOL0     C13387   4.286   5.103  11.745 -0.2983  0.0316  0.5905
  100MOL0     C13388   4.287   5.056  11.894 -0.5124 -0.6392 -0.0415
  100MOL0     O13389   4.160   5.085  11.944  1.0796 -0.9501  0.1941
  100MOL0     C13390   4.124   5.001  12.044 -0.1591 -0.2337  0.1321
  100MOL0     C13391   4.004   4.936  12.020  0.1712  0.2642  1.0193
  100MOL0     C13392   3.946   4.851  12.114  0.5962 -0.4912 -0.5329
  100MOL0     C13393   3.815   4.785  12.074  0.3686 -0.3521 -0.5068
  100MOL0     C13394   4.015   4.817  12.235 -0.1720  0.1548  0.1973
  100MOL0     C13395   3.975   4.722  12.342  0.7031 -0.9006  0.1673
  100MOL0     O13396   4.093   4.653  12.381  0.1805  0.1721  0.0113
  100MOL0     C13397   4.094   4.597  12.506 -0.1703  0.2153 -0.0867
  100MOL0     C13398   4.044   4.473  12.531  0.6329  0.4460  0.1528
  100MOL0     C13399   4.048   4.416  12.657 -0.1642  0.2708 -0.0690
  100MOL0     C13400   4.117   4.475  12.762  0.4500 -0.3171 -1.4689
  100MOL0     O13401   4.131   4.410  12.889 -0.4061  0.4548 -0.1774
  100MOL0     C13402   4.143   4.488  13.013  1.1527  0.6602  0.5220
  100MOL0     C13403   4.274   4.454  13.084  0.1738  0.1326  0.3803
  100MOL0     C13404   4.392   4.485  12.998  0.9169  0.3339 -0.5505
  100MOL0     C13405   4.515   4.447  13.071 -0.4574 -0.4603 -0.5618
  100MOL0     C13406   4.651   4.489  13.015 -0.0498  0.0529  0.7372
  100MOL0     C13407   4.762   4.450  13.110  0.4597  0.7051 -0.0185
  100MOL0     C13408   4.886   4.535  13.077 -0.7577  0.2680 -0.3198
  100MOL0     C13409   4.997   4.508  13.180  0.5918  0.7154  0.7682
  100MOL0    Cl13410   5.061   4.338  13.169  0.2630  0.0073  0.0858
  100MOL0     C13411   4.170   4.608  12.732 -0.2097  1.6658  0.3062
  100MOL0     C13412   4.166   4.661  12.604  0.9694  0.0391  0.4551
  100MOL0     O13413   3.862   4.700  12.376 -0.1527  0.6531  0.4894
  100MOL0     C13414   4.132   4.888  12.263 -0.4379  0.1957  0.4975
  100MOL0     C13415   4.190   4.969  12.162  0.0834 -0.7606 -0.1917
  100MOL0     N13416   4.642   5.189  11.490 -0.2241  0.8728  0.6015
  100MOL0     N13417   4.759   5.198  11.441 -0.1956  0.0274 -0.2086
  100MOL0     C13418   6.035   5.371  11.586 -0.3293  0.3438  0.4004
  100MOL0     C13419   6.175   5.343  11.586 -1.0054  1.2276 -0.1303
  100MOL0     C13420   6.588   5.276  11.377 -0.1460  0.0760  0.1969
  100MOL0     C13421   6.626   5.174  11.468 -0.4906 -0.3678 -1.1561
  100MOL0     C13422   6.760   5.127  11.461 -0.3173  0.2152 -0.3692
  100MOL0     C13423   6.855   5.197  11.385  0.9110  0.4694  0.4663
  100MOL0     O13424   6.979   5.140  11.390 -0.1382  0.1350 -0.6690
  100MOL0     C13425   7.087   5.217  11.353 -0.4142  0.1607 -0.3142
  100MOL0     C13426   7.206   5.200  11.450 -0.4089 -1.3593 -0.5181
  100MOL0     C13427   7.288   5.078  11.435  0.0412  0.8853 -0.0331
  100MOL0     C13428   7.404   5.103  11.536 -0.6448  0.0724  0.0589
  100MOL0     C13429   7.480   4.982  11.560 -0.0194 -0.0176 -0.5092
  100MOL0     C13430   7.557   4.896  11.590 -0.5995 -0.3982  0.4640
  100MOL0     C13431   6.817   5.310  11.308  0.7907 -0.4000 -0.2015
  100MOL0     C13432   6.683   5.348  11.306 -0.4798 -0.3622 -0.2123
  100MOL0     H13433   6.196   5.157  11.304 -0.8409 -0.4894  0.8113
  100MOL0     H13434   5.962   5.195  11.305  1.2706 -1.5442 -0.3369
  100MOL0     H13435   5.693   5.293  11.325 -2.6793  0.6444  0.0956
  100MOL0     H13436   5.717   5.186  11.470  0.3888 -0.8576 -0.6855
  100MOL0     H13437   5.619   5.334  11.622 -0.1797 -2.6638  0.4908
  100MOL0     H13438   5.569   5.453  11.493 -3.9290 -0.3695  0.9472
  100MOL0     H13439   5.390   5.378  11.516 -1.4058 -1.1146  1.3333
  100MOL0     H13440   5.434   5.274  11.383  1.4866  0.3392  0.4070
  100MOL0     H13441   5.482   5.066  11.516  1.2146 -0.3079  0.2183
  100MOL0     H13442   5.472   5.162  11.658  1.4224 -0.3204 -1.1042
  100MOL0     H13443   5.273   5.018  11.610 -1.5946 -1.5251 -1.6359
  100MOL0     H13444   5.246   5.200  11.646  2.0212  0.1426 -0.4045
  100MOL0     H13445   5.224   5.200  11.383  0.3322 -0.4978 -1.5705
  100MOL0     H13446   5.230   5.017  11.398 -4.2993 -0.0378 -2.4843
  100MOL0     H13447   5.004   5.054  11.378 -0.4934  0.4822 -0.9909
  100MOL0     H13448   5.032   5.026  11.555 -1.5810  1.9495  0.7343
  100MOL0     H13449   4.987   5.302  11.437 -1.7980 -0.2071  0.5907
  100MOL0     H13450   5.032   5.269  11.609  0.1814 -0.7608  0.8375
  100MOL0     H13451   4.829   5.227  11.754  2.3460 -1.1767 -1.4889
  100MOL0     H13452   4.548   5.203  11.821 -0.9911 -2.9504  0.5417
  100MOL0     H13453   4.469   5.290  11.690  0.6219  0.7269  1.4792
  100MOL0     H13454   4.468   4.987  11.715  2.1272  0.6929 -2.5478
  100MOL0     H13455   4.407   5.068  11.575 -4.0323 -0.9161  0.2736
  100MOL0     H13456   4.221   5.033  11.690 -1.9505  0.9380  1.3216
  100MOL0     H13457   4.249   5.205  11.738  3.8445  1.7206  1.0346
  100MOL0     H13458   4.369   5.110  11.943  0.9766 -0.6010 -2.4190
  100MOL0     H13459   4.324   4.953  11.903  0.6102 -0.3092 -0.6430
  100MOL0     H13460   3.958   4.960  11.924  1.8438  0.3946  0.2017
  100MOL0     H13461   3.809   4.772  11.965  0.5119 -2.9792 -0.2711
  100MOL0     H13462   3.807   4.681  12.106  1.2810 -0.2477  0.0810
  100MOL0     H13463   3.725   4.837  12.110 -0.5210 -2.8555  1.1199
  100MOL0     H13464   3.982   4.428  12.455 -0.5954 -0.1545  1.4667
  100MOL0     H13465   3.992   4.324  12.670  0.1597  0.2573  1.3875
  100MOL0     H13466   4.113   4.592  12.997 -0.5109  0.2022  0.4677
  100MOL0     H13467   4.065   4.451  13.080 -1.3383  3.2291 -0.7475
  100MOL0     H13468   4.279   4.505  13.181 -0.0808  0.5938  0.1552
  100MOL0     H13469   4.277   4.349  13.114  2.3857  0.1786  0.4503
  100MOL0     H13470   4.394   4.588  12.961 -0.9772  0.7516  0.3908
  100MOL0     H13471   4.384   4.417  12.913  2.9472  2.2070 -2.3736
  100MOL0     H13472   4.518   4.502  13.165  1.4451  0.1066 -0.9235
  100MOL0     H13473   4.515   4.346  13.112 -0.3842  0.5015  1.9451
  100MOL0     H13474   4.656   4.597  13.001  1.3350 -0.0813 -0.0310
  100MOL0     H13475   4.671   4.432  12.924  1.0970  0.0599  0.9725
  100MOL0     H13476   4.732   4.462  13.214  3.5390  2.6021  0.7981
  100MOL0     H13477   4.783   4.346  13.083 -3.6311  0.0562 -1.2919
  100MOL0     H13478   4.866   4.643  13.075  0.4615  0.4933 -0.7158
  100MOL0     H13479   4.925   4.507  12.979 -0.0380 -3.1837  0.8148
  100MOL0     H13480   4.955   4.507  13.281 -1.8483 -2.1154 -0.1200
  100MOL0     H13481   5.078   4.582  13.174 -2.5584  4.6042  2.0545
  100MOL0     H13482   4.224   4.661  12.810 -2.2312 -0.4906  3.4067
  100MOL0     H13483   4.220   4.750  12.573 -1.3580  1.5627  0.5594
  100MOL0     H13484   4.189   4.870  12.353  0.6628 -1.7774 -0.5182
  100MOL0     H13485   4.281   5.026  12.177 -0.2414 -0.1563 -0.5091
  100MOL0     H13486   5.988   5.431  11.664 -1.4021 -0.3840  0.3437
  100MOL0     H13487   6.240   5.391  11.659 -2.3641  0.5267  1.6292
  100MOL0     H13488   6.564   5.117  11.536  2.4093 -1.0932  1.0712
  100MOL0     H13489   6.782   5.040  11.521  2.0223  1.1351  0.2076
  100MOL0     H13490   7.117   5.199  11.249 -0.9657 -1.3025 -0.2404
  100MOL0     H13491   7.076   5.326  11.364  0.9456  0.4255 -1.3341
  100MOL0     H13492   7.169   5.216  11.552 -0.9771 -0.7234 -0.8160
  100MOL0     H13493   7.271   5.286  11.429  0.3730 -1.6875  0.4663
  100MOL0     H13494   7.330   5.059  11.336 -0.4481  0.0196 -0.0810
  100MOL0     H13495   7.232   4.992  11.473  1.0574 -0.5315 -1.5832
  100MOL0     H13496   7.373   5.155  11.628  1.1823  1.0974  0.1286
  100MOL0     H13497   7.470   5.174  11.487  1.2591 -0.1970  2.0763
  100MOL0     H13498   7.613   4.807  11.610 -1.3638 -1.2830 -1.1424
  100MOL0     H13499   6.884   5.371  11.249 -2.1666  2.0911 -1.2521
  100MOL0     H13500   6.652   5.419  11.230  2.4781  1.5623  0.2435
  101MOL0     O13501   2.949   2.784   0.501  0.1356  0.2401 -0.2313
  101MOL0     C13502   2.994   2.686   0.564  0.1276  0.2899  0.3329
  101MOL0     O13503   2.913   2.591   0.618  0.3085  0.2227 -0.1240
  101MOL0     C13504   2.774   2.598   0.631  0.1645 -0.9760  0.7276
  101MOL0     C13505   2.709   2.479   0.633 -0.2309 -0.6720 -0.3328
  101MOL0     C13506   2.572   2.484   0.630  0.3131  0.2327 -0.8168
  101MOL0     C13507   2.493   2.602   0.638 -0.3864 -0.3239 -0.1403
  101MOL0     O13508   2.358   2.606   0.629  0.1707 -0.3056  0.9414
  101MOL0     C13509   2.298   2.482   0.586 -0.1777 -0.1806  0.0221
  101MOL0     C13510   2.143   2.498   0.575  0.2297  0.3869  0.0820
  101MOL0     C13511   2.086   2.385   0.475  0.5539 -0.2189  0.0560
  101MOL0     C13512   1.935   2.388   0.456 -0.0157  0.9756 -0.6596
  101MOL0     C13513   1.873   2.529   0.457  0.0104 -0.9301  0.4338
  101MOL0     C13514   1.724   2.513   0.407  0.6984 -0.2764  0.1878
  101MOL0     C13515   1.648   2.636   0.408  0.6061  0.6916  0.2737
  101MOL0     C13516   1.628   2.697   0.261 -0.1390  0.9575 -0.9281
  101MOL0     N13517   1.515   2.643   0.187  0.2542 -0.1268  0.4478
  101MOL0     C13518   1.377   2.658   0.204 -0.4728  0.5726 -0.6382
  101MOL0     C13519   1.315   2.607   0.098 -0.6787 -0.6630 -0.3014
  101MOL0     C13520   1.163   2.617   0.087  0.3314 -0.3171 -0.1203
  101MOL0     C13521   1.095   2.479   0.074 -0.2303 -0.3904  0.7465
  101MOL0     C13522   0.948   2.490   0.064  0.7846  0.5213  0.2879
  101MOL0     C13523   0.869   2.365   0.038  0.7663 -0.5524  0.1343
  101MOL0     O13524   0.730   2.396   0.033  0.2931  0.0288  0.2024
  101MOL0     C13525   0.645   2.291   0.013  0.1796  0.1729 -0.4901
  101MOL0     C13526   0.668   2.155   0.034  0.1065  0.1465 -1.1828
  101MOL0     C13527   0.565   2.061   0.023 -0.5309 -0.1763 -1.2893
  101MOL0     C13528   0.610   1.920   0.044  0.5277 -0.5067  0.1918
  101MOL0     C13529   0.447   2.093  -0.046 -0.0021 -0.4691 -0.4009
  101MOL0     C13530   0.339   2.007  -0.093 -0.5303 -0.3686  0.3178
  101MOL0     O13531   0.276   2.054  -0.206 -0.7520  0.2524 -0.3651
  101MOL0     C13532   0.171   1.978  -0.252  0.1494  0.1815 -0.6075
  101MOL0     C13533   0.060   1.970  -0.165  0.7270 -0.2312  0.3914
  101MOL0     C13534  -0.055   1.895  -0.196  0.4994 -0.3623 -0.2321
  101MOL0     C13535  -0.066   1.824  -0.315 -0.1319  0.4495 -0.2145
  101MOL0     O13536  -0.180   1.752  -0.359  0.3546 -0.0146 -0.7435
  101MOL0     C13537  -0.300   1.798  -0.286  0.3520  0.3236 -0.6498
  101MOL0     C13538  -0.427   1.759  -0.368  0.1215  0.1487 -0.6732
  101MOL0     C13539  -0.558   1.776  -0.310  1.2924  0.3965 -0.5313
  101MOL0     C13540  -0.670   1.700  -0.394  0.0624 -0.0475 -0.5453
  101MOL0     C13541  -0.809   1.756  -0.352 -0.4476  0.3674 -0.8795
  101MOL0     C13542  -0.918   1.703  -0.444  0.2271  0.6296 -0.1403
  101MOL0     C13543  -0.926   1.544  -0.455 -0.2936 -0.0977  0.0648
  101MOL0     C13544  -1.056   1.487  -0.500  0.5528 -0.1244 -0.6719
  101MOL0    Cl13545  -1.083   1.523  -0.671 -0.3411 -0.0794  0.1419
  101MOL0     C13546   0.050   1.824  -0.402  0.9555  0.1464 -0.0286
  101MOL0     C13547   0.165   1.895  -0.375  0.2669 -0.1770 -0.0130
  101MOL0     O13548   0.321   1.902  -0.034 -0.3220 -0.8090  0.5031
  101MOL0     C13549   0.424   2.232  -0.075 -0.5662  0.8849  0.6685
  101MOL0     C13550   0.524   2.327  -0.042 -0.2280  0.0668 -0.2472
  101MOL0     N13551   1.411   2.543   0.017  0.2620  0.6085 -1.0473
  101MOL0     N13552   1.531   2.564   0.072 -0.2798  0.0929 -0.3645
  101MOL0     C13553   2.564   2.724   0.659  0.4841  0.5015  0.4140
  101MOL0     C13554   2.703   2.725   0.650  0.9920  0.1792  0.2156
  101MOL0     C13555   3.134   2.682   0.584 -0.3531  0.9568 -0.6687
  101MOL0     C13556   3.196   2.599   0.684  0.3651  0.0365  0.1139
  101MOL0     C13557   3.338   2.586   0.688  0.3596  0.0114 -0.6741
  101MOL0     C13558   3.420   2.673   0.615 -0.1328  0.5882 -0.8422
  101MOL0     O13559   3.556   2.678   0.628 -0.0920 -0.3320 -0.1156
  101MOL0     C13560   3.624   2.550   0.639  0.4593  0.3188  0.1018
  101MOL0     C13561   3.744   2.525   0.548 -0.9940 -0.2376 -0.6362
  101MOL0     C13562   3.861   2.611   0.600  0.4005 -0.2865 -0.4192
  101MOL0     C13563   3.970   2.641   0.486  1.2947 -0.0040  0.1850
  101MOL0     C13564   4.080   2.707   0.556  0.1611  0.0174 -0.2101
  101MOL0     C13565   4.177   2.754   0.622  0.9225  0.2582  0.9570
  101MOL0     C13566   3.357   2.763   0.528 -1.0403 -0.2200 -0.7074
  101MOL0     C13567   3.222   2.762   0.503  0.2872  0.1810 -0.5743
  101MOL0     H13568   2.759   2.383   0.624 -1.4113 -1.2788 -0.6360
  101MOL0     H13569   2.521   2.390   0.610  0.7741  0.1230 -1.5205
  101MOL0     H13570   2.332   2.457   0.484 -0.1313 -1.1135  0.2542
  101MOL0     H13571   2.316   2.396   0.651 -3.2626 -0.7532  0.2665
  101MOL0     H13572   2.082   2.498   0.665  0.2978  1.3391  0.1390
  101MOL0     H13573   2.123   2.591   0.520 -0.3482  1.4445  1.9875
  101MOL0     H13574   2.133   2.400   0.377  3.9162 -3.2163  0.9944
  101MOL0     H13575   2.118   2.284   0.504 -0.4044 -0.6549 -0.3669
  101MOL0     H13576   1.918   2.340   0.359  2.2475  1.6832 -1.4863
  101MOL0     H13577   1.875   2.329   0.525  1.4545  1.2378  0.9036
  101MOL0     H13578   1.871   2.569   0.559  0.2738  0.0611  0.0595
  101MOL0     H13579   1.946   2.591   0.405  2.2465  0.6195  4.8898
  101MOL0     H13580   1.726   2.472   0.306 -1.3270  2.2162 -0.9830
  101MOL0     H13581   1.679   2.432   0.465 -1.5664  0.2079 -0.7800
  101MOL0     H13582   1.551   2.621   0.456  1.3062 -1.5155  1.0945
  101MOL0     H13583   1.699   2.704   0.477 -0.0103  0.0663  1.3801
  101MOL0     H13584   1.724   2.685   0.210  0.1327 -0.2702 -0.1885
  101MOL0     H13585   1.602   2.802   0.251  1.7820  1.3724 -2.1378
  101MOL0     H13586   1.340   2.719   0.285  1.3507  1.7312 -0.6211
  101MOL0     H13587   1.125   2.677   0.170 -0.8128 -0.0802 -0.7971
  101MOL0     H13588   1.148   2.685   0.003  4.0613  2.8247  1.4362
  101MOL0     H13589   1.122   2.410   0.154  0.5910  0.3892  1.1592
  101MOL0     H13590   1.128   2.439  -0.023  1.4960 -1.6087  1.7836
  101MOL0     H13591   0.928   2.560  -0.018  1.8676 -3.0118 -3.3147
  101MOL0     H13592   0.920   2.525   0.164 -1.3811  0.6634 -0.3255
  101MOL0     H13593   0.897   2.293   0.116  1.5046 -3.8159 -2.8467
  101MOL0     H13594   0.902   2.317  -0.054 -1.1878 -0.2932 -0.7640
  101MOL0     H13595   0.763   2.129   0.081  1.1895  3.0280 -1.5959
  101MOL0     H13596   0.695   1.918   0.112  2.1971 -3.2197 -1.7624
  101MOL0     H13597   0.537   1.852   0.089 -1.7366  1.4083 -0.3435
  101MOL0     H13598   0.645   1.880  -0.052  0.2074 -2.3426  0.8030
  101MOL0     H13599   0.061   2.025  -0.072 -2.7395  0.0652  0.4072
  101MOL0     H13600  -0.138   1.894  -0.127 -0.8310  1.7242 -1.6851
  101MOL0     H13601  -0.310   1.740  -0.194 -1.2614 -2.3096 -2.3528
  101MOL0     H13602  -0.309   1.905  -0.267 -2.4207  0.1870 -0.7477
  101MOL0     H13603  -0.407   1.807  -0.464 -1.7017 -0.3726 -1.3527
  101MOL0     H13604  -0.421   1.651  -0.385  4.5141 -0.5687  3.1907
  101MOL0     H13605  -0.575   1.884  -0.311 -0.6063  0.1737  0.7038
  101MOL0     H13606  -0.554   1.738  -0.207 -1.4367  0.4855 -0.3218
  101MOL0     H13607  -0.647   1.717  -0.500  0.5360  2.2529 -0.1217
  101MOL0     H13608  -0.665   1.593  -0.375  0.0700 -0.0138 -0.3516
  101MOL0     H13609  -0.817   1.864  -0.341 -1.2432  0.3755 -1.4185
  101MOL0     H13610  -0.817   1.713  -0.252  1.8768 -2.5729 -1.7846
  101MOL0     H13611  -1.014   1.733  -0.400  0.2527  0.1445  0.2514
  101MOL0     H13612  -0.898   1.736  -0.546  1.3587 -1.5048 -0.6558
  101MOL0     H13613  -0.915   1.514  -0.350 -0.0140  0.0104  0.0654
  101MOL0     H13614  -0.841   1.508  -0.513  0.5919  1.7373  0.1568
  101MOL0     H13615  -1.133   1.529  -0.434 -0.9102 -2.0920 -1.0180
  101MOL0     H13616  -1.045   1.379  -0.486  0.4820 -0.1151 -0.5458
  101MOL0     H13617   0.033   1.748  -0.477 -1.5128 -0.6249  1.2072
  101MOL0     H13618   0.253   1.876  -0.436  1.0142  0.6409  0.7779
  101MOL0     H13619   0.338   2.274  -0.125  0.5694  1.5884 -0.7747
  101MOL0     H13620   0.517   2.430  -0.074 -0.6191  0.1837  0.2005
  101MOL0     H13621   2.510   2.809   0.698  1.1342  0.3525  1.6859
  101MOL0     H13622   2.763   2.814   0.667  2.2306 -0.4073 -0.9478
  101MOL0     H13623   3.136   2.533   0.746  3.1720 -1.6090  1.2629
  101MOL0     H13624   3.391   2.517   0.753  0.6247  1.1841  0.4083
  101MOL0     H13625   3.661   2.544   0.741  0.0496  0.9074  0.2924
  101MOL0     H13626   3.550   2.470   0.630  0.3721  0.5038 -1.0451
  101MOL0     H13627   3.728   2.558   0.444 -1.1677  3.4691  0.4089
  101MOL0     H13628   3.770   2.419   0.550 -2.1180 -0.5305 -0.8691
  101MOL0     H13629   3.916   2.562   0.681 -1.4428  2.3597  2.6592
  101MOL0     H13630   3.835   2.707   0.645 -0.4848 -0.6448 -0.1391
  101MOL0     H13631   3.935   2.709   0.408  2.2738  0.7892  0.4087
  101MOL0     H13632   4.000   2.548   0.438 -0.9279 -1.0375  0.6698
  101MOL0     H13633   4.264   2.800   0.664  1.2324 -0.8289  1.5394
  101MOL0     H13634   3.426   2.820   0.466 -0.1773 -0.0279  0.3987
  101MOL0     H13635   3.187   2.831   0.427  2.1805 -1.0217 -2.6670
  102MOL0     O13636   2.569   6.700   5.172  0.3024 -0.1758 -0.1773
  102MOL0     C13637   2.634   6.806   5.166  0.2426  0.2647  0.4303
  102MOL0     O13638   2.591   6.926   5.200  0.4736 -0.6182 -0.2515
  102MOL0     C13639   2.468   6.950   5.251 -0.8523  0.0872  0.4978
  102MOL0     C13640   2.358   6.923   5.172 -1.1518 -0.3376  0.4032
  102MOL0     C13641   2.229   6.951   5.217  0.0253 -0.2283  0.4480
  102MOL0     C13642   2.214   7.000   5.349 -0.7643  0.5957 -0.7940
  102MOL0     O13643   2.086   7.039   5.393 -0.1408  0.0801 -0.9250
  102MOL0     C13644   2.066   7.100   5.521 -0.0901  0.1497  0.8948
  102MOL0     C13645   1.920   7.138   5.521 -0.1091 -0.4879  0.0875
  102MOL0     C13646   1.823   7.024   5.528 -0.3913 -0.0297 -0.3108
  102MOL0     C13647   1.680   7.075   5.546  0.6553  0.6808 -0.3780
  102MOL0     C13648   1.572   6.963   5.513  0.2523 -0.6029 -0.2804
  102MOL0     C13649   1.427   7.014   5.537  0.2190 -0.4058  0.3971
  102MOL0     C13650   1.337   6.890   5.532 -0.4145 -1.3960  0.8386
  102MOL0     C13651   1.188   6.924   5.517  0.0170 -0.7868 -0.1042
  102MOL0     N13652   1.142   6.987   5.641 -0.5579 -1.4016  0.5188
  102MOL0     C13653   1.106   7.123   5.641  0.3133 -0.0722  0.9063
  102MOL0     C13654   1.058   7.147   5.765  0.0199  1.0456 -0.4311
  102MOL0     C13655   1.015   7.289   5.821  0.4388  0.8087  0.2536
  102MOL0     C13656   1.138   7.362   5.882  0.1870  0.2794  0.8789
  102MOL0     C13657   1.209   7.291   5.993  0.8744  0.1680 -0.1639
  102MOL0     C13658   1.322   7.364   6.065  0.5473  0.2270  0.2138
  102MOL0     O13659   1.436   7.333   5.992 -0.6473  0.1304  0.4848
  102MOL0     C13660   1.554   7.409   5.993  0.2764  0.5312  0.0475
  102MOL0     C13661   1.673   7.341   5.946 -0.6459 -0.3834 -0.4676
  102MOL0     C13662   1.796   7.409   5.951 -0.0157 -0.0023 -0.2389
  102MOL0     C13663   1.911   7.326   5.897 -0.8824  0.7297 -0.4726
  102MOL0     C13664   1.810   7.535   6.009  0.0696 -0.1528  0.2016
  102MOL0     C13665   1.940   7.617   6.009 -0.1551  0.4572 -1.0524
  102MOL0     O13666   2.038   7.573   5.938 -0.4732  0.2116 -0.2975
  102MOL0     C13667   2.150   7.652   5.924 -0.6908  0.0184 -0.6269
  102MOL0     C13668   2.269   7.569   5.917  0.6516 -0.5529 -0.7568
  102MOL0     C13669   2.393   7.632   5.893 -0.2691 -0.5126  1.3599
  102MOL0     C13670   2.407   7.773   5.881  0.3245 -0.3211 -1.1717
  102MOL0     O13671   2.531   7.826   5.863 -0.6927  0.1530  0.9484
  102MOL0     C13672   2.566   7.943   5.936 -0.3551  0.4874 -0.2395
  102MOL0     C13673   2.712   7.941   5.983 -0.0974  0.3350  0.4743
  102MOL0     C13674   2.818   7.967   5.869 -0.0892 -1.0768  0.4251
  102MOL0     C13675   2.961   7.983   5.931 -0.3077  1.0362  0.5038
  102MOL0     C13676   3.000   7.854   6.009  0.0926  0.9254  0.6257
  102MOL0     C13677   3.151   7.858   6.044 -0.2108  0.2409 -0.5495
  102MOL0     C13678   3.194   7.738   6.126  1.1046  0.4153  0.3913
  102MOL0     C13679   3.344   7.719   6.126 -0.1434 -0.2029 -0.4705
  102MOL0    Cl13680   3.405   7.659   5.967 -0.3402 -0.1196  0.6611
  102MOL0     C13681   2.285   7.846   5.888 -0.1887 -0.2401  0.0256
  102MOL0     C13682   2.163   7.788   5.899 -0.6127  0.5084 -0.9792
  102MOL0     O13683   1.942   7.716   6.080  0.2651 -0.1663 -0.0368
  102MOL0     C13684   1.695   7.601   6.057  0.5217  0.4487  0.1929
  102MOL0     C13685   1.568   7.540   6.046 -0.4278 -0.1090 -0.8935
  102MOL0     N13686   1.068   7.026   5.837 -0.7181 -0.2587 -0.5229
  102MOL0     N13687   1.119   6.933   5.765 -0.4126  1.1432  0.4900
  102MOL0     C13688   2.326   7.005   5.438  0.3180 -0.7253 -0.2092
  102MOL0     C13689   2.456   6.988   5.386  0.1805 -0.3196  0.0766
  102MOL0     C13690   2.774   6.805   5.123  0.3169  0.5721 -1.0662
  102MOL0     C13691   2.864   6.916   5.114 -0.0153  0.5628 -0.1306
  102MOL0     C13692   2.987   6.910   5.051  0.9988  0.2271 -0.8996
  102MOL0     C13693   3.039   6.784   5.016 -0.1927  0.2097  0.4942
  102MOL0     O13694   3.158   6.760   4.941  0.1322  0.1945  0.1537
  102MOL0     C13695   3.246   6.866   4.924  0.2471  0.2559  0.8722
  102MOL0     C13696   3.371   6.823   4.858  0.0072  0.2821 -0.4175
  102MOL0     C13697   3.442   6.710   4.921 -0.4161  0.2287 -0.3411
  102MOL0     C13698   3.539   6.640   4.837  0.8096 -0.0135  0.2616
  102MOL0     C13699   3.479   6.543   4.750 -0.2111  0.9233 -0.1508
  102MOL0     C13700   3.415   6.465   4.682  0.1946  0.8024 -0.1895
  102MOL0     C13701   2.953   6.669   5.032 -1.1356  0.1347 -0.2997
  102MOL0     C13702   2.830   6.675   5.090  0.6731  0.4610  0.3089
  102MOL0     H13703   2.371   6.878   5.074 -1.4613 -0.7382  0.5441
  102MOL0     H13704   2.135   6.919   5.173 -0.3720 -0.3349  1.3517
  102MOL0     H13705   2.095   7.027   5.596  0.2918  0.2935  0.8899
  102MOL0     H13706   2.122   7.193   5.533 -0.2527  0.2222  1.1025
  102MOL0     H13707   1.909   7.208   5.605  1.6931  0.5620 -0.5124
  102MOL0     H13708   1.899   7.199   5.433 -1.1319  0.9087  1.2368
  102MOL0     H13709   1.833   6.962   5.439  1.1955 -0.1396 -0.0955
  102MOL0     H13710   1.840   6.965   5.619 -2.3953 -1.0000 -0.5088
  102MOL0     H13711   1.678   7.107   5.651 -3.5662 -1.2339  0.3467
  102MOL0     H13712   1.664   7.159   5.478  0.1466 -0.3521 -1.5781
  102MOL0     H13713   1.584   6.929   5.410  3.7321 -3.8366  0.9597
  102MOL0     H13714   1.596   6.883   5.584 -1.5170  1.2181  2.5765
  102MOL0     H13715   1.413   7.058   5.636 -6.2719 -1.6498  0.4692
  102MOL0     H13716   1.406   7.083   5.455 -0.0386 -0.4709  0.4069
  102MOL0     H13717   1.366   6.824   5.449  1.8065 -3.2987  2.9770
  102MOL0     H13718   1.355   6.832   5.623  0.5979 -0.3787  1.3023
  102MOL0     H13719   1.133   6.832   5.498 -2.0665  0.1524  1.0926
  102MOL0     H13720   1.178   6.987   5.428  2.3568 -1.2148 -0.7392
  102MOL0     H13721   1.099   7.202   5.566 -1.5174  1.1280  2.2586
  102MOL0     H13722   0.966   7.353   5.747 -2.3883 -0.8937  0.5087
  102MOL0     H13723   0.943   7.269   5.901  1.2145 -2.0807  0.3241
  102MOL0     H13724   1.105   7.459   5.923 -0.5168 -0.0880  1.2117
  102MOL0     H13725   1.212   7.382   5.805  1.7731  1.3292  2.5809
  102MOL0     H13726   1.248   7.194   5.961  0.7059 -1.0217  2.8328
  102MOL0     H13727   1.130   7.256   6.060  0.1864  2.8807  0.5666
  102MOL0     H13728   1.329   7.321   6.165  0.8942 -2.8155 -1.0202
  102MOL0     H13729   1.295   7.470   6.071  0.5739  0.2288  0.3062
  102MOL0     H13730   1.659   7.239   5.912 -1.8853 -0.1191 -0.8125
  102MOL0     H13731   1.880   7.221   5.899  2.2160 -0.2969  1.5054
  102MOL0     H13732   1.932   7.344   5.792  1.7963 -0.6202 -0.2527
  102MOL0     H13733   1.997   7.340   5.964  0.6809  0.3461 -2.3238
  102MOL0     H13734   2.258   7.461   5.921 -1.4972 -0.4679 -2.3037
  102MOL0     H13735   2.474   7.559   5.889  1.0736  0.9610  0.9965
  102MOL0     H13736   2.546   8.028   5.871  0.5117  0.5040 -0.4889
  102MOL0     H13737   2.511   7.941   6.031  0.6433  1.5430  0.3972
  102MOL0     H13738   2.727   8.016   6.061 -1.3367 -0.0049  1.0615
  102MOL0     H13739   2.726   7.845   6.034 -2.2169  1.0369  2.5077
  102MOL0     H13740   2.804   8.061   5.815  0.6912  0.2082  2.3131
  102MOL0     H13741   2.815   7.885   5.798  2.8286  0.4582 -1.6902
  102MOL0     H13742   3.032   8.003   5.850  1.2833  0.9596  1.8141
  102MOL0     H13743   2.972   8.066   6.001 -0.5512  0.7129  0.9336
  102MOL0     H13744   2.984   7.768   5.943  0.5320  0.2381  1.3884
  102MOL0     H13745   2.941   7.839   6.100  0.5049 -4.0869  0.3232
  102MOL0     H13746   3.211   7.869   5.953  1.7317 -2.7190  0.2197
  102MOL0     H13747   3.160   7.946   6.109 -0.7873  0.5733 -0.9067
  102MOL0     H13748   3.156   7.651   6.071  2.2626  0.7326 -0.9705
  102MOL0     H13749   3.152   7.741   6.226 -0.4214 -2.1747 -0.0814
  102MOL0     H13750   3.370   7.636   6.192  0.3645  1.9556  2.2227
  102MOL0     H13751   3.388   7.805   6.177 -1.4082 -0.0985  0.5129
  102MOL0     H13752   2.285   7.954   5.897  3.4149 -0.2004  1.4009
  102MOL0     H13753   2.072   7.847   5.911 -2.4592 -2.4620  0.6437
  102MOL0     H13754   1.691   7.699   6.104  0.1355  1.3068 -1.5399
  102MOL0     H13755   1.487   7.599   6.089  1.0086 -0.1874  2.2162
  102MOL0     H13756   2.318   7.038   5.541  0.2067  1.0639 -0.7693
  102MOL0     H13757   2.545   6.993   5.448  1.0643 -0.1708 -1.1727
  102MOL0     H13758   2.812   7.004   5.149  2.0113  0.2992  4.2268
  102MOL0     H13759   3.041   7.002   5.028  2.6776 -0.7351 -0.9409
  102MOL0     H13760   3.204   6.948   4.865  0.4896 -0.6487 -0.5766
  102MOL0     H13761   3.270   6.913   5.021  0.3143  0.2313  0.8673
  102MOL0     H13762   3.434   6.912   4.858  1.3364 -0.6093  0.7965
  102MOL0     H13763   3.335   6.800   4.757  1.0205 -0.9941 -0.5170
  102MOL0     H13764   3.374   6.632   4.954  0.5994 -0.1277  1.0005
  102MOL0     H13765   3.497   6.747   5.008  1.4213 -1.4114 -0.7121
  102MOL0     H13766   3.619   6.590   4.893  1.0841 -0.1420 -0.2471
  102MOL0     H13767   3.591   6.716   4.779  0.5315  1.0317  1.3335
  102MOL0     H13768   3.360   6.393   4.625 -2.0083  0.7811  1.8003
  102MOL0     H13769   2.984   6.567   5.012 -3.3386 -0.3252 -1.7460
  102MOL0     H13770   2.779   6.580   5.083 -0.6261  1.2524 -2.3086
  103MOL0     O13771  10.939   8.066   6.081  0.1965  0.3998  0.1939
  103MOL0     C13772  10.966   7.964   6.143 -0.0414 -0.5474  0.2425
  103MOL0     O13773  10.868   7.860   6.176 -0.5516  0.3843 -0.2091
  103MOL0     C13774  10.738   7.880   6.148 -0.3396  0.4575 -0.3539
  103MOL0     C13775  10.699   7.881   6.005  0.1961  0.0679  0.1559
  103MOL0     C13776  10.572   7.920   5.968  0.1071 -0.8048  0.3348
  103MOL0     C13777  10.482   7.948   6.074  0.0978  0.1075  0.4785
  103MOL0     O13778  10.355   7.985   6.036  0.2781 -0.2327 -0.7818
  103MOL0     C13779  10.277   8.069   6.120  0.8446 -1.0799 -0.4015
  103MOL0     C13780  10.187   8.159   6.027  0.5161  1.0387 -0.2629
  103MOL0     C13781  10.072   8.235   6.105  0.7319 -0.2061  0.2220
  103MOL0     C13782  10.017   8.371   6.038 -0.0510 -0.2764  0.1142
  103MOL0     C13783   9.903   8.439   6.112 -0.0510  1.0564  0.4418
  103MOL0     C13784   9.780   8.350   6.130 -0.5690  0.6190 -0.2723
  103MOL0     C13785   9.664   8.431   6.182 -0.0268 -0.4051 -0.3438
  103MOL0     C13786   9.524   8.366   6.174  0.4428 -0.3084 -0.9537
  103MOL0     N13787   9.526   8.224   6.221  0.4101 -0.0911  0.2719
  103MOL0     C13788   9.550   8.171   6.344 -0.8734 -0.1993  0.1803
  103MOL0     C13789   9.505   8.046   6.338  0.5169  0.5502 -0.1392
  103MOL0     C13790   9.509   7.958   6.458  0.2597 -0.1698  0.7433
  103MOL0     C13791   9.631   7.876   6.475  0.0414 -0.1404  0.2973
  103MOL0     C13792   9.752   7.965   6.492  0.3961 -0.6184  0.3292
  103MOL0     C13793   9.861   7.895   6.566 -0.1073  0.9774 -0.4376
  103MOL0     O13794   9.842   7.897   6.714 -0.4088  0.2675  0.3725
  103MOL0     C13795   9.958   7.884   6.783 -0.4245  0.0364  0.5627
  103MOL0     C13796  10.069   7.803   6.752 -0.1521 -0.2982 -1.0427
  103MOL0     C13797  10.184   7.769   6.836  0.3646 -0.3558 -0.0084
  103MOL0     C13798  10.284   7.667   6.796  0.8204  0.2634 -0.0169
  103MOL0     C13799  10.176   7.836   6.965  0.2363 -0.5263  0.5488
  103MOL0     C13800  10.282   7.811   7.059  0.3598  0.2583 -1.1380
  103MOL0     O13801  10.410   7.807   7.012  0.2554 -0.8380 -0.2210
  103MOL0     C13802  10.514   7.799   7.105 -0.3812 -0.4782  0.0642
  103MOL0     C13803  10.546   7.897   7.201 -0.9456 -0.6166 -0.1915
  103MOL0     C13804  10.659   7.900   7.274  0.3815  0.0726  0.4947
  103MOL0     C13805  10.748   7.790   7.267 -0.1417  0.2594 -0.4315
  103MOL0     O13806  10.868   7.798   7.336  0.1593  0.0613 -0.8556
  103MOL0     C13807  10.984   7.802   7.257  0.5677  0.1633 -1.0634
  103MOL0     C13808  11.101   7.756   7.347 -0.8127  1.2688 -0.4313
  103MOL0     C13809  11.115   7.595   7.334 -0.2309  0.3364 -0.3114
  103MOL0     C13810  11.274   7.572   7.337  0.2773 -0.3753  0.0045
  103MOL0     C13811  11.316   7.431   7.303 -0.7590  0.1332 -0.8943
  103MOL0     C13812  11.466   7.434   7.294  0.0134 -0.5681  0.5415
  103MOL0     C13813  11.537   7.303   7.267 -0.3544  0.5285  0.5566
  103MOL0     C13814  11.686   7.323   7.243 -0.4922  0.4628  0.3439
  103MOL0    Cl13815  11.730   7.458   7.131 -0.3334  0.3118  0.1466
  103MOL0     C13816  10.723   7.692   7.172 -0.0783  0.6770 -0.5530
  103MOL0     C13817  10.610   7.701   7.091  0.3246  0.0226  0.3184
  103MOL0     O13818  10.248   7.806   7.178  0.2075 -0.1037  0.7116
  103MOL0     C13819  10.064   7.911   6.997 -0.2081 -0.1481 -0.5847
  103MOL0     C13820   9.963   7.935   6.909  0.1899  0.0400 -1.0261
  103MOL0     N13821   9.453   8.020   6.210 -0.7938 -0.6505  0.3479
  103MOL0     N13822   9.449   8.132   6.153 -0.0908 -0.5448  0.2481
  103MOL0     C13823  10.515   7.930   6.211 -0.7418  0.1548  0.2449
  103MOL0     C13824  10.644   7.899   6.250 -0.3856 -0.1389  0.1709
  103MOL0     C13825  11.105   7.942   6.193 -0.6066  0.2978  0.3237
  103MOL0     C13826  11.155   7.837   6.272  0.2397 -0.7294 -0.1389
  103MOL0     C13827  11.286   7.835   6.316 -0.4036 -0.3885  0.3151
  103MOL0     C13828  11.382   7.933   6.285  0.2615  0.4833  0.4856
  103MOL0     O13829  11.517   7.947   6.320  0.5151 -0.4064  0.5035
  103MOL0     C13830  11.563   7.868   6.430  0.2599 -0.2554  0.1449
  103MOL0     C13831  11.703   7.925   6.474 -0.7869 -0.6108  0.5490
  103MOL0     C13832  11.744   7.881   6.611 -0.7207 -0.6054 -0.6942
  103MOL0     C13833  11.895   7.916   6.647 -1.3813  0.4058 -0.1386
  103MOL0     C13834  11.928   8.063   6.646  0.5834 -0.5891 -0.6836
  103MOL0     C13835  11.962   8.182   6.660 -0.4867  0.8298  0.2230
  103MOL0     C13836  11.335   8.023   6.192 -0.5402 -1.0873  0.1807
  103MOL0     C13837  11.205   8.039   6.142  1.0750  0.4923 -0.4190
  103MOL0     H13838  10.765   7.843   5.928 -0.7423 -1.1121 -0.1076
  103MOL0     H13839  10.538   7.925   5.865  0.4993 -0.7271  0.2103
  103MOL0     H13840  10.204   8.006   6.172  1.3960 -0.1659  1.6046
  103MOL0     H13841  10.345   8.138   6.172  0.1442  0.5387 -1.5575
  103MOL0     H13842  10.253   8.229   5.974  2.7527 -0.7016  0.0774
  103MOL0     H13843  10.146   8.093   5.950  1.0102  2.1973 -1.5673
  103MOL0     H13844   9.994   8.158   6.107  0.0495  0.4628  0.1067
  103MOL0     H13845  10.104   8.257   6.207  1.7295 -0.4238 -0.0343
  103MOL0     H13846  10.097   8.445   6.037 -2.1001  2.1005 -1.7737
  103MOL0     H13847   9.983   8.361   5.934 -1.7100 -1.1613  0.7014
  103MOL0     H13848   9.947   8.457   6.211 -0.9021 -0.6868  1.1756
  103MOL0     H13849   9.881   8.541   6.079  4.4327  1.3875 -2.5093
  103MOL0     H13850   9.743   8.325   6.030 -2.6128 -0.6712  0.7386
  103MOL0     H13851   9.791   8.259   6.191  1.0432  1.3012  0.5267
  103MOL0     H13852   9.683   8.467   6.283 -0.0041  1.1122 -0.8619
  103MOL0     H13853   9.670   8.526   6.128  0.0988 -0.9256 -1.2737
  103MOL0     H13854   9.500   8.358   6.067  2.2544  1.6860 -1.5877
  103MOL0     H13855   9.446   8.418   6.229  1.6164 -0.8563  1.3384
  103MOL0     H13856   9.604   8.218   6.425 -0.5991 -0.1757 -0.0164
  103MOL0     H13857   9.497   8.025   6.544 -1.1330 -0.7179  1.0001
  103MOL0     H13858   9.425   7.888   6.453  0.1973 -0.3398  3.1662
  103MOL0     H13859   9.639   7.814   6.386  1.1621  1.7823 -1.0299
  103MOL0     H13860   9.629   7.818   6.568  2.2799 -1.3102 -0.3118
  103MOL0     H13861   9.732   8.060   6.542  1.0349 -0.3523  0.0983
  103MOL0     H13862   9.794   7.986   6.393 -1.7699 -1.8130 -0.9247
  103MOL0     H13863   9.954   7.940   6.533  0.5891 -0.2616 -0.2415
  103MOL0     H13864   9.875   7.792   6.532  2.7676  1.6317 -1.4617
  103MOL0     H13865  10.063   7.754   6.656 -0.8564 -0.8712 -0.7198
  103MOL0     H13866  10.298   7.602   6.882  0.2328  1.1349  0.7543
  103MOL0     H13867  10.251   7.591   6.724  1.3467  0.0337 -0.0171
  103MOL0     H13868  10.373   7.716   6.756 -0.0232  1.0756 -0.9644
  103MOL0     H13869  10.481   7.983   7.214 -1.0074 -0.5130 -1.1546
  103MOL0     H13870  10.697   7.979   7.337  2.0983 -1.2920  1.2491
  103MOL0     H13871  10.977   7.746   7.163 -1.9930 -0.9857 -0.2893
  103MOL0     H13872  10.993   7.908   7.232 -1.8282  0.4835 -0.8042
  103MOL0     H13873  11.200   7.791   7.316 -1.4697  3.1293 -0.5685
  103MOL0     H13874  11.083   7.788   7.450 -2.1414  2.7673 -1.0924
  103MOL0     H13875  11.072   7.560   7.239  2.2592 -4.0306 -0.1169
  103MOL0     H13876  11.055   7.541   7.407 -2.0306  0.2114 -1.8093
  103MOL0     H13877  11.324   7.623   7.254 -0.3374  0.8634  0.3591
  103MOL0     H13878  11.314   7.609   7.432 -1.1706  0.8308  0.2020
  103MOL0     H13879  11.262   7.389   7.218 -3.8379 -0.0854  1.0032
  103MOL0     H13880  11.294   7.373   7.393 -0.9628  0.2009 -0.8994
  103MOL0     H13881  11.486   7.498   7.208  2.8746 -2.5823 -0.4566
  103MOL0     H13882  11.512   7.475   7.385  0.0098  1.1937 -0.2162
  103MOL0     H13883  11.505   7.250   7.177  1.4811 -0.8160  0.6308
  103MOL0     H13884  11.520   7.236   7.352 -1.4370 -0.2650 -0.2533
  103MOL0     H13885  11.723   7.225   7.211  1.5832  0.0666  3.4491
  103MOL0     H13886  11.734   7.339   7.340 -0.4763  3.1899 -0.0296
  103MOL0     H13887  10.802   7.621   7.147  0.6880  0.7274  1.5710
  103MOL0     H13888  10.606   7.637   7.003 -2.3194 -1.3699  1.3604
  103MOL0     H13889  10.057   7.965   7.091  2.4904 -0.8274  0.1043
  103MOL0     H13890   9.885   8.004   6.939 -0.8353 -1.8026  0.7619
  103MOL0     H13891  10.449   7.954   6.294  0.2147  0.8556  0.8238
  103MOL0     H13892  10.693   7.905   6.346  0.8212  1.7307 -0.5049
  103MOL0     H13893  11.097   7.752   6.305 -1.4158 -0.3402 -1.8795
  103MOL0     H13894  11.307   7.752   6.383 -0.7982  0.3151  1.3260
  103MOL0     H13895  11.496   7.876   6.517 -0.7587 -0.2768 -0.6172
  103MOL0     H13896  11.571   7.765   6.394  0.8174  1.0497 -3.9613
  103MOL0     H13897  11.693   8.033   6.482 -0.8581 -0.6576  1.0915
  103MOL0     H13898  11.765   7.897   6.388 -2.4843 -0.7260 -0.7079
  103MOL0     H13899  11.728   7.773   6.602 -3.4195 -0.1862 -1.7953
  103MOL0     H13900  11.679   7.920   6.690  1.4303  0.5038  0.6326
  103MOL0     H13901  11.966   7.868   6.579  0.5412  0.1157  1.9570
  103MOL0     H13902  11.909   7.875   6.747 -2.0924 -0.5361 -0.4122
  103MOL0     H13903  12.002   8.282   6.664 -2.6164  1.6879  2.0225
  103MOL0     H13904  11.406   8.100   6.164  0.6700 -1.3067  2.4754
  103MOL0     H13905  11.178   8.112   6.067  0.4333 -0.8223 -1.4932
  104MOL0     O13906   0.465   4.798   8.832 -0.3281  0.2308  0.2283
  104MOL0     C13907   0.548   4.792   8.921  0.7456  0.6818  0.2479
  104MOL0     O13908   0.522   4.783   9.053 -0.0659 -0.4602 -0.5952
  104MOL0     C13909   0.388   4.773   9.098  0.4697 -0.7542 -0.2342
  104MOL0     C13910   0.291   4.687   9.044 -0.2383  0.2144  1.2030
  104MOL0     C13911   0.154   4.687   9.089  0.0913  0.1125 -0.0929
  104MOL0     C13912   0.118   4.787   9.176 -0.6396 -0.2206  0.0905
  104MOL0     O13913  -0.004   4.769   9.232  0.2309 -0.2228  0.1848
  104MOL0     C13914  -0.030   4.785   9.370  0.0805 -0.4975 -0.4053
  104MOL0     C13915  -0.164   4.713   9.395 -0.2053 -0.0222 -0.5812
  104MOL0     C13916  -0.287   4.786   9.344  0.0582 -0.1274 -1.0320
  104MOL0     C13917  -0.378   4.706   9.262  0.1086 -0.2327  0.4699
  104MOL0     C13918  -0.429   4.583   9.322  0.0003 -0.6522  0.0233
  104MOL0     C13919  -0.501   4.578   9.458  0.8861 -0.0574 -1.1124
  104MOL0     C13920  -0.629   4.658   9.473 -0.7078  0.2820  0.1476
  104MOL0     C13921  -0.742   4.607   9.379  0.3931 -1.6419 -0.7049
  104MOL0     N13922  -0.867   4.676   9.424  0.3284 -0.0138 -1.0094
  104MOL0     C13923  -0.897   4.805   9.402  0.0145  1.0696 -1.7400
  104MOL0     C13924  -1.005   4.836   9.478 -0.3986  0.3362  0.1271
  104MOL0     C13925  -1.076   4.975   9.476  0.8711  0.2768 -0.5943
  104MOL0     C13926  -1.225   4.961   9.434 -0.9305  0.7294  0.4633
  104MOL0     C13927  -1.318   4.909   9.544 -0.3854 -0.7378 -0.7076
  104MOL0     C13928  -1.308   4.995   9.670 -0.0167  0.1798  0.0956
  104MOL0     O13929  -1.405   4.942   9.758 -0.0242  0.9047 -0.2518
  104MOL0     C13930  -1.433   4.999   9.884  0.6424  0.0789 -0.3954
  104MOL0     C13931  -1.521   4.939   9.978 -0.7693 -0.1297  1.1705
  104MOL0     C13932  -1.554   5.006  10.093 -0.8739 -0.8619 -0.8336
  104MOL0     C13933  -1.655   4.945  10.184  0.1853 -0.7496  1.3496
  104MOL0     C13934  -1.495   5.133  10.134  0.0188  0.4855 -0.2816
  104MOL0     C13935  -1.517   5.208  10.264 -0.9293  0.3650  0.6802
  104MOL0     O13936  -1.560   5.127  10.369 -0.2661 -0.0270 -0.6051
  104MOL0     C13937  -1.588   5.181  10.497 -0.4603  0.0299  0.2525
  104MOL0     C13938  -1.501   5.268  10.560 -0.3017 -0.0265  0.2189
  104MOL0     C13939  -1.533   5.319  10.689 -0.1570 -0.5136 -0.7119
  104MOL0     C13940  -1.637   5.260  10.762 -0.4853  0.1798  0.5128
  104MOL0     O13941  -1.660   5.294  10.897  1.3847  0.2595  0.5429
  104MOL0     C13942  -1.629   5.191  10.993 -0.4747  0.1772  0.2137
  104MOL0     C13943  -1.625   5.243  11.134 -0.5076  0.5666  0.1091
  104MOL0     C13944  -1.765   5.280  11.178  0.4157 -0.2780 -0.6362
  104MOL0     C13945  -1.771   5.307  11.328  1.4095  0.5332 -0.2238
  104MOL0     C13946  -1.910   5.342  11.379 -0.7916 -0.1849  0.6683
  104MOL0     C13947  -1.914   5.364  11.528  0.2839  0.4800  0.2522
  104MOL0     C13948  -1.890   5.240  11.611  0.0630  0.0723 -0.0294
  104MOL0     C13949  -1.932   5.262  11.752 -0.3026  0.1626 -0.1905
  104MOL0    Cl13950  -2.108   5.244  11.771 -0.4924  0.1320 -0.1428
  104MOL0     C13951  -1.713   5.158  10.697 -0.3412  0.4169 -0.1179
  104MOL0     C13952  -1.701   5.133  10.560 -1.0031 -0.5420 -0.2653
  104MOL0     O13953  -1.524   5.330  10.262 -0.0094  0.0813 -0.6958
  104MOL0     C13954  -1.400   5.187  10.046 -0.5147  0.6006  0.6478
  104MOL0     C13955  -1.385   5.124   9.920 -0.0365 -0.1843  0.7921
  104MOL0     N13956  -1.044   4.725   9.554 -0.2579  0.2963 -0.5247
  104MOL0     N13957  -0.952   4.625   9.517  0.7620 -0.1405  0.8887
  104MOL0     C13958   0.216   4.876   9.233  0.7911 -1.0262  0.9964
  104MOL0     C13959   0.342   4.865   9.184 -0.2302  0.3206 -0.7108
  104MOL0     C13960   0.689   4.786   8.877  0.3821  0.3130 -0.9617
  104MOL0     C13961   0.779   4.731   8.972  0.0179 -0.0316  0.1076
  104MOL0     C13962   0.909   4.711   8.935 -0.3198  0.2592 -0.3006
  104MOL0     C13963   0.958   4.753   8.812 -0.0189 -0.0457 -0.6175
  104MOL0     O13964   1.091   4.736   8.788 -0.3876  0.3562  0.3165
  104MOL0     C13965   1.139   4.766   8.651 -0.0734  0.2563  0.0050
  104MOL0     C13966   1.281   4.707   8.642 -0.6719 -1.0634  0.5208
  104MOL0     C13967   1.375   4.783   8.736  0.2948  0.0171  0.5150
  104MOL0     C13968   1.523   4.733   8.715 -0.6619  1.0441 -0.2495
  104MOL0     C13969   1.558   4.812   8.594 -0.3342  0.3083  0.1833
  104MOL0     C13970   1.578   4.874   8.487  0.9873 -0.0172  0.1358
  104MOL0     C13971   0.872   4.827   8.731 -0.1911  0.2572 -0.0005
  104MOL0     C13972   0.736   4.832   8.757  0.5391  0.1519 -0.6030
  104MOL0     H13973   0.329   4.608   8.980  1.1640  0.7159  1.3771
  104MOL0     H13974   0.078   4.613   9.062  0.0519 -0.0554  0.4717
  104MOL0     H13975   0.050   4.743   9.432  0.9404  2.0801  0.3573
  104MOL0     H13976  -0.043   4.888   9.405 -3.5093 -1.1174  0.4598
  104MOL0     H13977  -0.155   4.610   9.359  1.1552 -0.2640  0.3951
  104MOL0     H13978  -0.169   4.715   9.504  2.8022  0.8264 -0.3757
  104MOL0     H13979  -0.334   4.837   9.429  3.8194 -2.8003  3.0690
  104MOL0     H13980  -0.260   4.871   9.282  1.5811  0.0178 -0.2047
  104MOL0     H13981  -0.457   4.769   9.222  2.4371  0.3258 -3.7671
  104MOL0     H13982  -0.329   4.679   9.168 -2.5548  3.0372 -2.0950
  104MOL0     H13983  -0.498   4.547   9.244 -0.0569 -2.4573  0.8641
  104MOL0     H13984  -0.347   4.511   9.321  0.4377 -0.1824  1.1968
  104MOL0     H13985  -0.524   4.473   9.482  0.9308  0.1432 -0.1259
  104MOL0     H13986  -0.427   4.620   9.526 -0.0426 -1.1265  0.6598
  104MOL0     H13987  -0.664   4.653   9.577 -0.9075  2.4403  0.2180
  104MOL0     H13988  -0.612   4.766   9.473 -2.4563  0.7514  4.3930
  104MOL0     H13989  -0.751   4.499   9.364  0.2495 -2.0369  1.9025
  104MOL0     H13990  -0.724   4.644   9.277 -1.5420 -1.9840 -1.2098
  104MOL0     H13991  -0.844   4.877   9.340  2.1364  1.0491 -0.0728
  104MOL0     H13992  -1.060   5.036   9.565 -1.5119  0.1385 -0.0006
  104MOL0     H13993  -1.035   5.036   9.394  0.2224 -0.6188 -1.6029
  104MOL0     H13994  -1.227   4.904   9.341  3.1585  3.2124 -1.4275
  104MOL0     H13995  -1.258   5.061   9.402 -2.5546 -0.0694 -0.5225
  104MOL0     H13996  -1.277   4.813   9.576 -2.4999 -0.8495  2.1074
  104MOL0     H13997  -1.422   4.891   9.516 -0.8771  0.4202  0.2909
  104MOL0     H13998  -1.325   5.100   9.645  1.9144  0.7882  1.1801
  104MOL0     H13999  -1.210   4.985   9.716 -0.8146  0.4902  1.9752
  104MOL0     H14000  -1.587   4.864   9.933  0.9783 -1.6355  1.0097
  104MOL0     H14001  -1.726   5.012  10.234 -1.2137 -1.0133 -0.2141
  104MOL0     H14002  -1.717   4.883  10.118 -1.5727  3.7215 -1.6942
  104MOL0     H14003  -1.616   4.887  10.268  1.9117 -0.5264  0.7269
  104MOL0     H14004  -1.411   5.284  10.502  0.7428  1.3754  2.0988
  104MOL0     H14005  -1.465   5.387  10.738  0.4321  0.4262 -2.7284
  104MOL0     H14006  -1.691   5.101  10.984  3.0382 -2.3152 -1.3910
  104MOL0     H14007  -1.529   5.158  10.964 -0.7862  0.2952 -1.0409
  104MOL0     H14008  -1.578   5.163  11.192 -1.9870  0.0519  0.6492
  104MOL0     H14009  -1.557   5.328  11.128  2.2610 -1.6030 -2.2735
  104MOL0     H14010  -1.833   5.200  11.148  0.4320 -0.3313 -0.5330
  104MOL0     H14011  -1.788   5.373  11.126 -0.0850 -0.4193 -0.6685
  104MOL0     H14012  -1.730   5.235  11.400 -0.6454  0.5950  1.1072
  104MOL0     H14013  -1.713   5.399  11.338  0.3385  1.0787  1.5589
  104MOL0     H14014  -1.977   5.266  11.338  1.6477 -0.5395 -3.1923
  104MOL0     H14015  -1.933   5.437  11.332  1.3201 -0.1378 -0.3952
  104MOL0     H14016  -1.844   5.446  11.546  0.4115  0.1357  1.3942
  104MOL0     H14017  -2.008   5.412  11.557 -0.9146 -1.6124  0.0321
  104MOL0     H14018  -1.782   5.218  11.612  0.6315  2.0856 -3.2901
  104MOL0     H14019  -1.946   5.152  11.577 -1.0493 -0.7056  3.4463
  104MOL0     H14020  -1.904   5.364  11.782  1.1691 -1.1248  3.3380
  104MOL0     H14021  -1.884   5.191  11.820  1.4281 -1.1856 -2.6215
  104MOL0     H14022  -1.800   5.114  10.746 -0.0664 -0.8509 -0.7340
  104MOL0     H14023  -1.770   5.063  10.514 -1.7686  0.7529 -1.1312
  104MOL0     H14024  -1.336   5.269  10.075 -0.8953  0.9009  0.6511
  104MOL0     H14025  -1.338   5.190   9.848 -2.0220  0.7312  0.2802
  104MOL0     H14026   0.198   4.940   9.318  1.1953 -0.2033  0.4717
  104MOL0     H14027   0.416   4.931   9.229 -0.4868 -0.9198  1.6731
  104MOL0     H14028   0.740   4.682   9.061  2.3745 -1.4982  0.4073
  104MOL0     H14029   0.970   4.650   9.001  0.1357 -1.8648 -2.5359
  104MOL0     H14030   1.069   4.729   8.576 -0.1543 -2.2254  1.1939
  104MOL0     H14031   1.132   4.874   8.643 -0.6547  0.4066  2.0028
  104MOL0     H14032   1.318   4.721   8.540  0.6732 -0.9816  1.0148
  104MOL0     H14033   1.283   4.600   8.664 -0.2039 -1.3179 -0.6742
  104MOL0     H14034   1.350   4.764   8.841 -2.5832  0.3198 -0.0254
  104MOL0     H14035   1.367   4.891   8.722 -0.6750 -0.1271 -0.0723
  104MOL0     H14036   1.530   4.625   8.698 -2.1086  0.7672  0.6510
  104MOL0     H14037   1.587   4.749   8.802  0.2409  0.0828 -0.7233
  104MOL0     H14038   1.593   4.913   8.388  0.1084 -3.0234 -1.2853
  104MOL0     H14039   0.909   4.871   8.639 -1.0082 -0.6465 -0.7800
  104MOL0     H14040   0.665   4.878   8.688  1.8292  2.5029 -0.4769
  105MOL0     O14041   3.171   3.238   8.919  0.3467 -0.5959 -0.4690
  105MOL0     C14042   3.213   3.148   8.985  0.8835  1.2053 -0.0592
  105MOL0     O14043   3.140   3.043   9.036 -0.2537 -0.1458  0.5854
  105MOL0     C14044   3.014   3.017   8.997 -0.0585  0.0258 -0.1005
  105MOL0     C14045   2.957   3.028   8.869 -0.0762 -0.4618 -0.1325
  105MOL0     C14046   2.836   2.978   8.835  0.9000 -0.4459  0.8760
  105MOL0     C14047   2.753   2.910   8.926  0.1553 -0.3269  0.2400
  105MOL0     O14048   2.630   2.864   8.895  0.2318  0.5918  0.5139
  105MOL0     C14049   2.535   2.853   9.006  0.1344 -0.1450 -0.4630
  105MOL0     C14050   2.494   2.977   9.094 -0.2807 -0.1957 -0.0147
  105MOL0     C14051   2.385   3.063   9.035  0.0419 -0.6166  0.1456
  105MOL0     C14052   2.368   3.187   9.130 -0.2236  0.0927 -0.2935
  105MOL0     C14053   2.273   3.292   9.080  0.4093  0.6190  0.1425
  105MOL0     C14054   2.322   3.343   8.940  0.0634  0.3733  0.6028
  105MOL0     C14055   2.230   3.448   8.891  0.0411  0.6547 -0.4905
  105MOL0     C14056   2.271   3.496   8.748 -0.3765  0.1412 -0.1817
  105MOL0     N14057   2.171   3.587   8.686 -0.1813  0.1074  0.6738
  105MOL0     C14058   2.036   3.561   8.656  0.1863 -0.1298  0.1573
  105MOL0     C14059   1.990   3.657   8.579  0.0904  0.2525 -0.8266
  105MOL0     C14060   1.844   3.651   8.547 -0.4728  0.9417  0.0749
  105MOL0     C14061   1.786   3.788   8.502 -0.4986  0.0550 -0.6002
  105MOL0     C14062   1.801   3.893   8.606 -0.5712 -0.7965  0.3295
  105MOL0     C14063   1.759   4.032   8.562  0.3055  0.2462 -1.1838
  105MOL0     O14064   1.658   4.020   8.452  0.5127  0.3390  0.4946
  105MOL0     C14065   1.528   4.003   8.483 -0.1549  0.6087  0.1347
  105MOL0     C14066   1.438   4.005   8.377  0.3507 -0.6359 -0.2462
  105MOL0     C14067   1.302   4.000   8.401 -0.5794 -0.5534 -0.9554
  105MOL0     C14068   1.215   4.007   8.276 -0.3363  0.0528  0.0366
  105MOL0     C14069   1.251   3.992   8.536  0.1752  0.7283  0.0963
  105MOL0     C14070   1.110   3.972   8.558 -0.9109 -0.3528 -0.0151
  105MOL0     O14071   1.015   4.045   8.486 -0.6936  0.1984 -0.7017
  105MOL0     C14072   0.877   4.050   8.508 -0.2998 -0.0839 -0.2742
  105MOL0     C14073   0.808   4.010   8.625  0.0487  1.2091  0.1548
  105MOL0     C14074   0.674   4.043   8.635 -0.7934 -0.3210 -0.3627
  105MOL0     C14075   0.612   4.088   8.523  0.8472  0.3718  0.3367
  105MOL0     O14076   0.481   4.135   8.538 -0.1018  0.4316 -0.0974
  105MOL0     C14077   0.386   4.056   8.618 -0.0007 -0.4878  0.2710
  105MOL0     C14078   0.243   4.109   8.617  0.1228 -0.2806 -0.4280
  105MOL0     C14079   0.166   4.063   8.496  0.2783  0.1264  0.5662
  105MOL0     C14080   0.028   4.125   8.491  0.9407  0.1635  0.8225
  105MOL0     C14081  -0.072   4.030   8.547  0.1088  0.1295  0.1099
  105MOL0     C14082  -0.211   4.073   8.508 -0.4098 -1.1932 -0.6455
  105MOL0     C14083  -0.321   3.999   8.579  0.7556  0.4789  0.4617
  105MOL0     C14084  -0.421   3.952   8.469  0.1632 -0.2764  0.2592
  105MOL0    Cl14085  -0.496   4.105   8.393 -0.2917 -0.3861 -0.1849
  105MOL0     C14086   0.676   4.120   8.398  0.5295 -0.7267 -0.1759
  105MOL0     C14087   0.813   4.098   8.394  0.3914 -0.4487  0.2544
  105MOL0     O14088   1.087   3.892   8.642 -0.4115  0.4333 -0.6522
  105MOL0     C14089   1.342   3.975   8.641  0.0277 -0.6766  0.9094
  105MOL0     C14090   1.483   3.997   8.614  0.0528 -0.1517  0.1075
  105MOL0     N14091   2.085   3.754   8.576 -0.3627 -0.4758 -0.6470
  105MOL0     N14092   2.190   3.706   8.635  0.0880  0.0771  0.6167
  105MOL0     C14093   2.813   2.883   9.056 -1.3047 -1.0929  0.5116
  105MOL0     C14094   2.949   2.929   9.080  0.8934  0.4967 -0.4192
  105MOL0     C14095   3.351   3.145   9.019  0.4058  0.7206 -0.7088
  105MOL0     C14096   3.403   3.022   9.078  0.7991 -1.0086 -0.2389
  105MOL0     C14097   3.538   3.018   9.105 -0.0865 -0.0816  0.5276
  105MOL0     C14098   3.632   3.116   9.072  0.5790  1.0796  0.1705
  105MOL0     O14099   3.763   3.082   9.086 -0.4840 -0.8427  0.5676
  105MOL0     C14100   3.863   3.189   9.099 -0.5303  0.0797 -0.1862
  105MOL0     C14101   3.993   3.125   9.147 -0.3574  0.3148 -0.3367
  105MOL0     C14102   4.110   3.228   9.166  0.8004  0.3632  0.1811
  105MOL0     C14103   4.242   3.166   9.181  0.2357  0.8245  1.5219
  105MOL0     C14104   4.235   3.072   9.290  0.5809  0.7310 -0.1341
  105MOL0     C14105   4.236   2.998   9.382 -0.2675  0.6082  0.0045
  105MOL0     C14106   3.580   3.232   9.015 -0.4008  0.4136 -0.1672
  105MOL0     C14107   3.438   3.248   8.988 -0.4918 -0.5246  0.7815
  105MOL0     H14108   3.016   3.075   8.791 -0.6125 -0.1371 -0.3459
  105MOL0     H14109   2.794   3.003   8.738  0.2695 -3.2178  0.3328
  105MOL0     H14110   2.438   2.824   8.965 -0.5965  3.3084 -1.5475
  105MOL0     H14111   2.572   2.769   9.065  1.4176 -0.8751 -2.2361
  105MOL0     H14112   2.464   2.942   9.193 -0.2375 -1.2521 -0.3582
  105MOL0     H14113   2.590   3.027   9.110 -0.6788 -0.0910  2.3071
  105MOL0     H14114   2.426   3.107   8.943 -0.0220 -0.0040  0.4034
  105MOL0     H14115   2.287   3.018   9.022 -0.8751  0.9477  1.3220
  105MOL0     H14116   2.351   3.163   9.236 -0.0975 -1.0383 -0.5201
  105MOL0     H14117   2.459   3.248   9.139 -0.1641 -0.2281  2.1682
  105MOL0     H14118   2.173   3.247   9.073  0.9909 -0.6428 -0.3635
  105MOL0     H14119   2.272   3.377   9.149 -1.5654  0.6921  0.0756
  105MOL0     H14120   2.427   3.374   8.938 -0.2427  2.0600  3.7422
  105MOL0     H14121   2.318   3.265   8.864  0.3616  1.2250 -0.3149
  105MOL0     H14122   2.124   3.422   8.898 -0.3926  2.4355  0.0866
  105MOL0     H14123   2.242   3.534   8.959  3.4687  2.5134 -3.1018
  105MOL0     H14124   2.280   3.410   8.681 -2.9533 -0.1001 -0.2987
  105MOL0     H14125   2.364   3.554   8.755 -0.0332 -0.2983 -0.9718
  105MOL0     H14126   1.978   3.473   8.681  0.4374 -0.8731 -1.6636
  105MOL0     H14127   1.834   3.578   8.466  1.7360 -1.4973  1.8284
  105MOL0     H14128   1.783   3.611   8.630 -1.0048  1.9801  0.2045
  105MOL0     H14129   1.681   3.774   8.477  0.1754 -1.5321 -2.8791
  105MOL0     H14130   1.833   3.812   8.406  3.6457 -0.7277  1.0001
  105MOL0     H14131   1.900   3.908   8.650  0.0035 -0.7395 -0.9523
  105MOL0     H14132   1.742   3.861   8.693 -3.0953 -0.0301 -0.9987
  105MOL0     H14133   1.840   4.082   8.509  0.8173 -0.6752 -1.2957
  105MOL0     H14134   1.729   4.097   8.645  2.7325  2.6338 -2.0274
  105MOL0     H14135   1.484   4.004   8.278  1.1958 -1.4713  0.1412
  105MOL0     H14136   1.279   4.031   8.191 -0.5868  0.7337  0.0339
  105MOL0     H14137   1.171   3.911   8.247 -0.5097  0.9947 -3.2317
  105MOL0     H14138   1.142   4.089   8.280 -0.2771  0.1674 -0.9683
  105MOL0     H14139   0.847   3.951   8.708 -2.2852 -0.4790  0.1369
  105MOL0     H14140   0.615   4.033   8.725  0.1161 -0.8464  0.1956
  105MOL0     H14141   0.381   3.955   8.577  3.5018 -1.4643  1.8825
  105MOL0     H14142   0.418   4.063   8.723  0.0956  1.9447  0.1540
  105MOL0     H14143   0.183   4.067   8.699 -2.0719 -0.6267 -2.1458
  105MOL0     H14144   0.245   4.217   8.631  0.2626 -0.2016 -1.0321
  105MOL0     H14145   0.157   3.955   8.483 -1.7396  0.4344 -1.0185
  105MOL0     H14146   0.220   4.082   8.403 -0.1589 -1.1896  0.0150
  105MOL0     H14147   0.030   4.223   8.539  0.6419  1.2782 -1.3197
  105MOL0     H14148   0.004   4.140   8.385  0.8997 -3.8251  0.1026
  105MOL0     H14149  -0.067   4.031   8.657 -1.8393 -0.3219  0.2324
  105MOL0     H14150  -0.061   3.931   8.502 -1.6617  0.7048 -1.6930
  105MOL0     H14151  -0.213   4.175   8.549  1.7035 -1.8512  1.2898
  105MOL0     H14152  -0.219   4.078   8.399 -0.1494  1.9382 -0.5986
  105MOL0     H14153  -0.375   4.070   8.642  0.3606  1.2840 -0.7557
  105MOL0     H14154  -0.293   3.909   8.635  0.2079 -0.1719 -0.2778
  105MOL0     H14155  -0.497   3.885   8.510  1.4004 -1.4836  0.6578
  105MOL0     H14156  -0.364   3.904   8.389  0.9087  1.0017 -0.0132
  105MOL0     H14157   0.634   4.158   8.305 -0.8574  0.4270  0.8834
  105MOL0     H14158   0.861   4.136   8.305 -0.1525  1.8891  0.9033
  105MOL0     H14159   1.313   3.960   8.745  2.6686  1.0255  2.0010
  105MOL0     H14160   1.548   4.009   8.701  2.9898  1.4401 -2.1057
  105MOL0     H14161   2.757   2.832   9.134 -1.4267  0.4658  1.4828
  105MOL0     H14162   2.987   2.901   9.179  0.9273 -0.0254 -0.5752
  105MOL0     H14163   3.343   2.933   9.097 -0.7891  0.0284 -0.2576
  105MOL0     H14164   3.580   2.922   9.135  0.5487  0.5301  1.6721
  105MOL0     H14165   3.885   3.233   9.001  2.5123 -2.9238 -1.0437
  105MOL0     H14166   3.845   3.272   9.169  2.9983  2.1129 -1.3746
  105MOL0     H14167   4.035   3.048   9.081 -1.0271  0.3586 -0.8228
  105MOL0     H14168   3.971   3.098   9.251  2.4088  1.8286  0.7539
  105MOL0     H14169   4.088   3.285   9.256 -2.6086 -0.9219  0.3316
  105MOL0     H14170   4.122   3.307   9.091  0.2224  0.9883  0.7323
  105MOL0     H14171   4.320   3.237   9.207  0.9966  0.4230  0.4431
  105MOL0     H14172   4.266   3.119   9.085 -4.2984  1.6200 -0.2423
  105MOL0     H14173   4.231   2.941   9.473 -0.3974 -0.0447 -0.4009
  105MOL0     H14174   3.644   3.316   8.993  1.8461 -1.0682  0.4242
  105MOL0     H14175   3.395   3.335   8.938 -0.5444 -0.6999  0.5231
  106MOL0     O14176   6.596  10.138  10.920  0.8645 -0.1918 -0.4901
  106MOL0     C14177   6.667  10.038  10.938 -0.3536  0.6779  1.8214
  106MOL0     O14178   6.626   9.904  10.952  0.0028 -0.2922 -0.2781
  106MOL0     C14179   6.495   9.879  10.918  0.0756 -0.0522  0.8413
  106MOL0     C14180   6.395   9.941  10.994 -0.0196  0.1355 -0.4255
  106MOL0     C14181   6.262   9.916  10.960  0.1027  0.0840 -0.0627
  106MOL0     C14182   6.224   9.847  10.845 -0.4962  0.3901 -0.4505
  106MOL0     O14183   6.087   9.840  10.812 -0.4337 -0.6115 -1.1471
  106MOL0     C14184   6.055   9.817  10.680 -0.3400 -0.0142 -0.1283
  106MOL0     C14185   6.041   9.668  10.661  0.2498 -0.4677  0.1247
  106MOL0     C14186   5.934   9.605  10.750  0.2196 -0.0556 -0.4116
  106MOL0     C14187   5.790   9.614  10.696 -0.6659 -0.6495  0.6811
  106MOL0     C14188   5.707   9.505  10.761 -0.3236  0.0411  0.7313
  106MOL0     C14189   5.553   9.528  10.751  0.3714 -0.5841  0.0561
  106MOL0     C14190   5.474   9.417  10.818  0.9196  0.4312  0.1833
  106MOL0     C14191   5.494   9.277  10.757 -0.1444  0.6822 -0.0324
  106MOL0     N14192   5.387   9.184  10.808  0.2761 -0.3587 -0.8323
  106MOL0     C14193   5.405   9.098  10.918 -0.3389 -0.6389 -0.1602
  106MOL0     C14194   5.288   9.035  10.932  0.1855 -1.1388  0.4563
  106MOL0     C14195   5.274   8.918  11.034  0.5900 -0.2043 -0.7541
  106MOL0     C14196   5.117   8.885  11.051 -0.2319  0.5207 -0.4237
  106MOL0     C14197   5.103   8.762  11.147  0.3241 -0.1401 -0.2496
  106MOL0     C14198   4.963   8.717  11.186 -0.0187  0.2313 -0.3273
  106MOL0     O14199   4.870   8.666  11.083  0.3373 -0.8334  0.1059
  106MOL0     C14200   4.738   8.702  11.085 -0.7062 -0.6254 -0.2757
  106MOL0     C14201   4.632   8.615  11.072  0.6650 -0.1264  0.0076
  106MOL0     C14202   4.499   8.661  11.065  0.5371 -0.6590 -0.2360
  106MOL0     C14203   4.398   8.555  11.035  1.4789  0.6834  0.2205
  106MOL0     C14204   4.477   8.798  11.093  0.1082  0.1740 -1.0517
  106MOL0     C14205   4.340   8.857  11.117  0.0016 -0.2394 -0.7103
  106MOL0     O14206   4.232   8.794  11.061  0.1403 -0.1796 -0.3430
  106MOL0     C14207   4.105   8.837  11.093 -0.0420  0.1621  0.0070
  106MOL0     C14208   4.020   8.835  10.983  0.3205  0.2965 -0.3629
  106MOL0     C14209   3.887   8.873  10.989 -0.0472  0.8101 -0.2530
  106MOL0     C14210   3.839   8.915  11.117  0.6364 -0.7767 -0.4881
  106MOL0     O14211   3.714   8.961  11.143  0.0773  0.1768  0.0762
  106MOL0     C14212   3.622   8.972  11.031  0.4213  0.1633  0.4208
  106MOL0     C14213   3.490   9.048  11.075  0.1636  0.0904  0.5209
  106MOL0     C14214   3.390   8.958  11.136  1.3112 -0.2237 -0.6142
  106MOL0     C14215   3.256   9.034  11.138 -0.3487  0.6483  0.1069
  106MOL0     C14216   3.139   8.970  11.230  0.3696  0.3675 -0.0807
  106MOL0     C14217   3.175   8.984  11.380 -0.9033 -0.5081  0.8709
  106MOL0     C14218   3.052   8.963  11.472  0.2384 -0.7825  0.2621
  106MOL0     C14219   3.097   8.912  11.610 -0.3591  0.2008  0.3839
  106MOL0    Cl14220   2.956   8.892  11.703 -0.0587  0.4768 -0.2329
  106MOL0     C14221   3.927   8.912  11.232 -0.2314 -0.2532 -0.4154
  106MOL0     C14222   4.059   8.871  11.224  0.8405 -0.4267 -0.2367
  106MOL0     O14223   4.341   8.962  11.183  0.6419  0.5307 -0.9513
  106MOL0     C14224   4.588   8.885  11.103  0.2539  0.4322  0.3949
  106MOL0     C14225   4.716   8.839  11.107  0.0787  0.2615  0.5259
  106MOL0     N14226   5.204   9.072  10.825 -0.3487 -0.1953  0.2154
  106MOL0     N14227   5.259   9.171  10.753 -0.3340  0.0981 -0.1931
  106MOL0     C14228   6.326   9.788  10.762 -0.4977 -0.5012  0.1523
  106MOL0     C14229   6.463   9.809  10.800 -0.5037  0.2609 -0.5482
  106MOL0     C14230   6.810  10.054  10.946  0.4941 -0.1955 -0.4449
  106MOL0     C14231   6.869  10.164  10.873 -0.9914  0.3307  0.3334
  106MOL0     C14232   7.008  10.187  10.884 -0.7533  0.1759  0.3301
  106MOL0     C14233   7.090  10.098  10.954 -0.1674  0.6143 -0.0240
  106MOL0     O14234   7.227  10.117  10.947  0.1199 -0.3770 -0.0466
  106MOL0     C14235   7.320  10.053  11.036  0.5598  0.9528  0.2271
  106MOL0     C14236   7.440  10.137  11.050 -0.1588 -0.1443 -0.5071
  106MOL0     C14237   7.518  10.167  10.919  0.1159  0.4015 -0.1894
  106MOL0     C14238   7.608  10.291  10.927 -0.6941 -0.6178 -0.2694
  106MOL0     C14239   7.684  10.289  10.807 -0.0003 -0.8804  0.0864
  106MOL0     C14240   7.731  10.287  10.695  0.2573  0.2630  0.7991
  106MOL0     C14241   7.038   9.976  11.021 -0.3255 -0.4703  0.7801
  106MOL0     C14242   6.896   9.966  11.020 -0.1198  1.2656 -0.0533
  106MOL0     H14243   6.426   9.997  11.081  0.2889  0.0483 -0.4761
  106MOL0     H14244   6.188   9.947  11.033 -2.1335  0.9042 -2.5129
  106MOL0     H14245   5.955   9.859  10.663  0.1566  1.7646  1.0645
  106MOL0     H14246   6.122   9.864  10.608 -0.6767 -1.9784 -1.8028
  106MOL0     H14247   6.026   9.647  10.555  1.0715 -0.7127  0.0519
  106MOL0     H14248   6.142   9.631  10.681  0.6765  0.8717  0.5236
  106MOL0     H14249   5.970   9.502  10.744  1.2208  0.2810 -0.4519
  106MOL0     H14250   5.942   9.620  10.858  0.4349 -0.3164 -0.3916
  106MOL0     H14251   5.746   9.708  10.730 -1.3953 -0.7497  0.0296
  106MOL0     H14252   5.787   9.607  10.587 -0.3984  0.8565  0.5438
  106MOL0     H14253   5.732   9.408  10.717  1.2331  0.4996  0.5749
  106MOL0     H14254   5.734   9.507  10.867 -2.6340  2.2399  1.3736
  106MOL0     H14255   5.532   9.627  10.793 -0.2536 -1.1067  1.0265
  106MOL0     H14256   5.528   9.524  10.645 -1.9071  1.4389  0.4230
  106MOL0     H14257   5.494   9.425  10.925  0.9551  1.7328  0.0935
  106MOL0     H14258   5.367   9.439  10.813  1.3661  2.5864 -1.1544
  106MOL0     H14259   5.597   9.244  10.774  0.6947  1.6205 -2.8000
  106MOL0     H14260   5.470   9.289  10.651 -2.8856 -0.1489  0.4133
  106MOL0     H14261   5.494   9.088  10.979  0.7914  0.8932 -1.4635
  106MOL0     H14262   5.322   8.828  10.995  0.1396 -1.6597  1.8130
  106MOL0     H14263   5.315   8.946  11.132 -0.9215  0.8346 -0.3800
  106MOL0     H14264   5.080   8.858  10.952 -1.4476  0.9060 -0.0902
  106MOL0     H14265   5.071   8.972  11.099 -0.1129 -0.7684  2.1666
  106MOL0     H14266   5.165   8.795  11.231  5.4209 -0.3801 -3.4664
  106MOL0     H14267   5.162   8.676  11.111  0.1123 -0.6818  0.6563
  106MOL0     H14268   4.911   8.798  11.237 -1.0364  0.8387 -2.2204
  106MOL0     H14269   4.974   8.643  11.266  1.7870  5.3522  4.8650
  106MOL0     H14270   4.660   8.510  11.069 -3.5707 -1.4930  1.1529
  106MOL0     H14271   4.340   8.590  10.949 -0.2018 -2.3721 -0.0182
  106MOL0     H14272   4.433   8.455  11.009 -2.3929 -1.4001  2.1265
  106MOL0     H14273   4.328   8.544  11.118  0.4268 -1.0407 -0.8148
  106MOL0     H14274   4.057   8.802  10.886 -2.3926 -2.4807 -0.5976
  106MOL0     H14275   3.818   8.857  10.907  2.1217 -2.8365 -1.5781
  106MOL0     H14276   3.670   9.030  10.952  1.2266 -2.6317 -1.2852
  106MOL0     H14277   3.594   8.876  10.987  1.9258 -0.4561  0.7372
  106MOL0     H14278   3.508   9.118  11.157 -0.2333  0.2810  0.4471
  106MOL0     H14279   3.444   9.100  10.991 -1.4613 -1.1379  0.5814
  106MOL0     H14280   3.426   8.934  11.236 -0.0881 -4.5935 -0.9160
  106MOL0     H14281   3.382   8.861  11.084  1.7105 -2.4928  3.1947
  106MOL0     H14282   3.277   9.137  11.168 -0.0393  0.5807  0.1199
  106MOL0     H14283   3.207   9.035  11.040 -0.3007 -4.3461 -0.1992
  106MOL0     H14284   3.123   8.865  11.205 -2.4521  1.0951 -1.7577
  106MOL0     H14285   3.053   9.036  11.213  1.0241  0.9293 -1.3620
  106MOL0     H14286   3.260   8.919  11.403  1.7617  1.6613 -1.9561
  106MOL0     H14287   3.216   9.084  11.398 -1.3633 -0.4189  1.4576
  106MOL0     H14288   2.981   8.888  11.436 -1.5350  0.0311  1.8715
  106MOL0     H14289   2.997   9.057  11.483  1.5764  0.3637 -2.0693
  106MOL0     H14290   3.163   8.988  11.654  0.0337  0.4584 -0.6181
  106MOL0     H14291   3.145   8.814  11.611  3.8003  2.0177  0.9745
  106MOL0     H14292   3.865   8.936  11.319  0.0599 -1.8510  0.2619
  106MOL0     H14293   4.123   8.876  11.312  0.0706 -0.9006  0.3725
  106MOL0     H14294   4.577   8.990  11.129  0.3555  0.7646 -0.8558
  106MOL0     H14295   4.783   8.923  11.122 -1.4050  1.3880  1.0919
  106MOL0     H14296   6.329   9.749  10.661  2.1455  0.2541 -0.1414
  106MOL0     H14297   6.548   9.777  10.741 -0.3520 -0.2349 -0.0620
  106MOL0     H14298   6.808  10.221  10.804 -0.6367  0.0834 -0.1927
  106MOL0     H14299   7.051  10.268  10.826 -2.3268  0.2068 -0.8683
  106MOL0     H14300   7.271  10.039  11.133  0.4591  2.3676  0.4107
  106MOL0     H14301   7.346   9.952  11.004  0.6960  0.6279  1.3318
  106MOL0     H14302   7.509  10.091  11.122  2.9531  2.3299 -1.7333
  106MOL0     H14303   7.413  10.231  11.099  1.2630  0.2499 -0.4408
  106MOL0     H14304   7.451  10.185  10.834  0.5673  1.1283 -0.4030
  106MOL0     H14305   7.569  10.073  10.897 -0.5903 -0.4525  1.6253
  106MOL0     H14306   7.679  10.276  11.009 -2.8580  0.9205  2.0297
  106MOL0     H14307   7.554  10.385  10.939 -0.3966 -0.4403 -0.2961
  106MOL0     H14308   7.780  10.282  10.600 -1.9749  1.2613 -0.5128
  106MOL0     H14309   7.104   9.900  11.060  2.0863  0.9851 -0.2401
  106MOL0     H14310   6.853   9.876  11.063  0.9169 -0.4610 -2.4371
  107MOL0     O14311   4.512   7.159   8.281 -0.1490  0.0142 -0.1048
  107MOL0     C14312   4.559   7.253   8.217  0.2992  0.2478  1.2396
  107MOL0     O14313   4.478   7.347   8.143 -0.2999  0.0664  0.6314
  107MOL0     C14314   4.348   7.353   8.171  0.5570  0.2145  0.8612
  107MOL0     C14315   4.288   7.352   8.295  1.3739 -0.2852  0.3680
  107MOL0     C14316   4.147   7.384   8.310 -0.6199 -0.1661 -0.4449
  107MOL0     C14317   4.067   7.407   8.198 -0.6854 -0.0508 -1.2039
  107MOL0     O14318   3.932   7.438   8.195 -0.4708 -0.1130  1.0386
  107MOL0     C14319   3.858   7.456   8.317  0.7120  0.9681 -0.5436
  107MOL0     C14320   3.703   7.431   8.295 -0.8409 -0.0899  0.6003
  107MOL0     C14321   3.630   7.461   8.424  0.6556  0.2249  0.1833
  107MOL0     C14322   3.488   7.434   8.386 -0.5041 -0.7372  0.4760
  107MOL0     C14323   3.394   7.467   8.498  0.4048  0.7402 -0.5616
  107MOL0     C14324   3.256   7.420   8.457 -1.0913 -0.0204  0.5954
  107MOL0     C14325   3.157   7.440   8.581 -0.8905 -0.2105  0.8019
  107MOL0     C14326   3.185   7.347   8.711  0.7290 -0.5023 -0.4986
  107MOL0     N14327   3.072   7.360   8.808  0.1598  0.4735 -0.4595
  107MOL0     C14328   3.010   7.477   8.853 -0.7062  0.2758  0.0151
  107MOL0     C14329   2.915   7.439   8.937  0.7594  0.5669  0.5695
  107MOL0     C14330   2.847   7.526   9.035  0.9274  0.7877 -0.2131
  107MOL0     C14331   2.743   7.610   8.961  0.0100 -0.5964 -0.2321
  107MOL0     C14332   2.640   7.526   8.897  0.0204 -0.7509 -0.0698
  107MOL0     C14333   2.539   7.453   8.990 -1.0936 -0.2317 -0.3261
  107MOL0     O14334   2.417   7.420   8.928  0.1090 -0.3623  0.0078
  107MOL0     C14335   2.310   7.508   8.930 -0.4612  0.1419  0.3211
  107MOL0     C14336   2.206   7.476   8.845  0.6120  0.1040  0.3389
  107MOL0     C14337   2.084   7.563   8.838  0.4171  0.0527 -0.4029
  107MOL0     C14338   1.965   7.512   8.759 -0.5422  0.6426 -0.4896
  107MOL0     C14339   2.071   7.665   8.930  0.4453 -0.2942  0.0840
  107MOL0     C14340   1.943   7.733   8.957  0.7355 -0.0571  0.6318
  107MOL0     O14341   1.876   7.774   8.839 -0.2664 -0.3130 -0.6973
  107MOL0     C14342   1.763   7.853   8.852  0.5676 -0.3045 -0.6687
  107MOL0     C14343   1.638   7.795   8.849  0.3017 -0.6910  0.4189
  107MOL0     C14344   1.531   7.868   8.806 -0.0461  0.1176  0.2209
  107MOL0     C14345   1.527   8.008   8.793  0.4425  0.5086  0.4556
  107MOL0     O14346   1.402   8.066   8.767  0.5151  1.3120 -0.6066
  107MOL0     C14347   1.405   8.202   8.724 -0.3585  0.2939  0.9855
  107MOL0     C14348   1.284   8.212   8.635  0.2773 -0.0206 -0.3403
  107MOL0     C14349   1.149   8.184   8.705 -1.3439  0.3567  0.1132
  107MOL0     C14350   1.031   8.216   8.615 -0.8040  0.5706 -0.0096
  107MOL0     C14351   0.901   8.227   8.697 -1.4328  1.0560 -0.2098
  107MOL0     C14352   0.777   8.215   8.604 -0.4174 -0.4016 -0.3355
  107MOL0     C14353   0.644   8.249   8.669  0.1118  0.7823  0.0328
  107MOL0     C14354   0.521   8.254   8.575  0.6875 -0.1827 -0.2978
  107MOL0    Cl14355   0.449   8.107   8.505  0.6433 -0.3778  0.0013
  107MOL0     C14356   1.644   8.065   8.813  0.3249 -0.3231 -0.7401
  107MOL0     C14357   1.763   7.991   8.842 -0.3027 -1.4768  0.2793
  107MOL0     O14358   1.907   7.760   9.070 -0.2885  0.6911  0.4011
  107MOL0     C14359   2.180   7.696   9.014 -0.3116  0.0527  0.1604
  107MOL0     C14360   2.295   7.619   9.006  0.4499  0.1646 -0.8487
  107MOL0     N14361   2.908   7.301   8.928 -0.2145 -0.5794  0.2768
  107MOL0     N14362   2.996   7.249   8.842 -0.3505 -0.3984 -0.1959
  107MOL0     C14363   4.123   7.396   8.069 -0.6418 -0.5559 -0.5180
  107MOL0     C14364   4.259   7.378   8.064 -0.0463 -0.0605  0.2870
  107MOL0     C14365   4.699   7.273   8.218 -0.4068  0.2837 -0.1484
  107MOL0     C14366   4.782   7.198   8.293 -0.1187  0.6587 -0.0038
  107MOL0     C14367   4.922   7.223   8.304 -0.1892 -0.4689 -0.0233
  107MOL0     C14368   4.978   7.334   8.238  0.8099 -0.3171  0.4662
  107MOL0     O14369   5.114   7.369   8.226  0.3386 -0.1642 -0.3435
  107MOL0     C14370   5.197   7.341   8.342 -0.6531  0.1477  0.6091
  107MOL0     C14371   5.171   7.436   8.470 -0.2794 -0.9544  0.0413
  107MOL0     C14372   5.271   7.420   8.583 -0.2147  0.2129 -0.1160
  107MOL0     C14373   5.208   7.452   8.723  0.9334  0.3546 -1.0135
  107MOL0     C14374   5.296   7.529   8.811  0.5522  0.1911 -0.4566
  107MOL0     C14375   5.367   7.598   8.874  0.2563  0.2517  1.1380
  107MOL0     C14376   4.886   7.413   8.159  0.9468 -0.1166  0.4136
  107MOL0     C14377   4.755   7.384   8.156  0.3640  0.6533 -0.4788
  107MOL0     H14378   4.352   7.342   8.382  1.7153  1.0747  0.2967
  107MOL0     H14379   4.111   7.400   8.411 -0.5532  1.7208 -0.6806
  107MOL0     H14380   3.899   7.393   8.397  0.0329 -0.1472 -1.0518
  107MOL0     H14381   3.870   7.562   8.344  1.9656  0.5249  0.7712
  107MOL0     H14382   3.669   7.487   8.207  0.4718 -3.7650 -2.5214
  107MOL0     H14383   3.693   7.323   8.278 -3.9346 -0.1362  2.1074
  107MOL0     H14384   3.661   7.391   8.502 -1.2796 -2.0541 -0.9572
  107MOL0     H14385   3.647   7.563   8.459  1.8731  0.2666 -0.4959
  107MOL0     H14386   3.462   7.499   8.301 -1.2090  0.6612  1.7162
  107MOL0     H14387   3.470   7.330   8.358 -1.3423 -0.8198  1.2929
  107MOL0     H14388   3.419   7.415   8.591 -0.1528 -0.0166 -0.8241
  107MOL0     H14389   3.394   7.576   8.509 -1.2313  0.7370 -0.1982
  107MOL0     H14390   3.217   7.480   8.375  1.0967  2.0501  0.9605
  107MOL0     H14391   3.275   7.317   8.426  1.6762  0.3723  0.7566
  107MOL0     H14392   3.155   7.549   8.597  0.0932  0.5031 -2.9355
  107MOL0     H14393   3.056   7.412   8.551 -1.6372  0.0522  2.8865
  107MOL0     H14394   3.281   7.371   8.757 -0.0580 -0.6675  1.3114
  107MOL0     H14395   3.190   7.241   8.682  0.9616 -0.2904 -1.2554
  107MOL0     H14396   3.043   7.580   8.848  2.0922 -0.4934  0.6957
  107MOL0     H14397   2.797   7.460   9.107  0.8386  1.5388  0.4235
  107MOL0     H14398   2.920   7.591   9.084  1.0537 -0.0018  0.6639
  107MOL0     H14399   2.790   7.679   8.890  2.1220  1.1326  2.6107
  107MOL0     H14400   2.690   7.678   9.029 -0.0506  0.6133 -1.4171
  107MOL0     H14401   2.675   7.449   8.827 -2.6285 -1.7827 -0.3660
  107MOL0     H14402   2.579   7.592   8.834 -0.2042  1.0469  1.9361
  107MOL0     H14403   2.526   7.510   9.082  0.2882  1.0889 -0.9065
  107MOL0     H14404   2.577   7.354   9.019 -0.8602  0.3660  1.5506
  107MOL0     H14405   2.211   7.387   8.783  0.7050  0.4675 -0.1852
  107MOL0     H14406   1.952   7.557   8.661 -2.3706 -0.9764 -1.0597
  107MOL0     H14407   1.965   7.403   8.751  2.4039  0.5658 -0.3648
  107MOL0     H14408   1.880   7.537   8.824  1.1370  0.4820  1.8990
  107MOL0     H14409   1.639   7.686   8.848 -0.8642 -0.7052 -0.6902
  107MOL0     H14410   1.443   7.807   8.792 -1.6126  2.4022 -0.5265
  107MOL0     H14411   1.400   8.278   8.801  1.0235  0.9860  0.4231
  107MOL0     H14412   1.492   8.218   8.660 -0.1323  1.4688  1.5855
  107MOL0     H14413   1.295   8.312   8.592 -0.1440  0.6722  1.0807
  107MOL0     H14414   1.282   8.130   8.563 -4.4089  0.4463 -1.0351
  107MOL0     H14415   1.144   8.247   8.794  1.2245 -0.5493  0.9952
  107MOL0     H14416   1.142   8.076   8.724  0.2232 -0.1399 -1.8809
  107MOL0     H14417   1.063   8.310   8.568  1.7383 -0.2217 -0.0043
  107MOL0     H14418   1.017   8.137   8.540  0.7764 -1.4079  1.6583
  107MOL0     H14419   0.892   8.328   8.739  0.6614  0.3833  2.0931
  107MOL0     H14420   0.912   8.150   8.773  1.4700  0.0081 -1.5279
  107MOL0     H14421   0.787   8.288   8.524  0.2697  0.4452  0.5013
  107MOL0     H14422   0.770   8.118   8.553 -0.6090 -1.2408  1.2150
  107MOL0     H14423   0.662   8.346   8.715  0.1964  2.7048 -3.6324
  107MOL0     H14424   0.615   8.172   8.741 -0.0735  0.7881 -0.0341
  107MOL0     H14425   0.559   8.320   8.497  1.3137 -0.3861 -0.1690
  107MOL0     H14426   0.451   8.312   8.635  0.1273 -0.1072 -1.0099
  107MOL0     H14427   1.653   8.171   8.792  2.1490 -0.3905 -0.5101
  107MOL0     H14428   1.864   8.032   8.843 -0.8814  0.0311  0.4813
  107MOL0     H14429   2.165   7.771   9.090 -2.5607  0.6497 -0.7938
  107MOL0     H14430   2.382   7.647   9.064 -2.0981 -0.4596  3.7086
  107MOL0     H14431   4.062   7.421   7.982  2.6262 -0.5078 -2.9753
  107MOL0     H14432   4.310   7.377   7.969 -0.2114  0.0799  0.1962
  107MOL0     H14433   4.740   7.114   8.348 -4.0847  2.0524 -0.5559
  107MOL0     H14434   4.985   7.171   8.375  0.2280 -0.1166 -0.1257
  107MOL0     H14435   5.184   7.235   8.366 -0.0765 -0.6064 -2.0707
  107MOL0     H14436   5.302   7.338   8.314 -0.0255 -0.9586  2.8602
  107MOL0     H14437   5.071   7.410   8.507 -0.7080  2.1805  1.3561
  107MOL0     H14438   5.180   7.539   8.434  1.9063 -1.2073 -0.2977
  107MOL0     H14439   5.353   7.493   8.576  0.5852 -0.2861  2.7760
  107MOL0     H14440   5.313   7.320   8.590 -1.9593 -0.5761 -0.4904
  107MOL0     H14441   5.174   7.360   8.770  2.5079  0.3362  0.1799
  107MOL0     H14442   5.118   7.514   8.723  1.8836  1.7886 -0.5911
  107MOL0     H14443   5.430   7.659   8.936 -0.9236  1.3831  1.2673
  107MOL0     H14444   4.927   7.499   8.107 -1.2987  0.5753 -0.3386
  107MOL0     H14445   4.686   7.446   8.100  1.0262  2.0033  0.1561
  108MOL0     O14446   6.838   7.945   7.821  0.0999 -0.3342  0.7294
  108MOL0     C14447   6.877   8.061   7.799 -0.1784 -0.3952  0.2476
  108MOL0     O14448   6.790   8.176   7.796  0.4078  0.7414  0.2285
  108MOL0     C14449   6.662   8.149   7.817 -1.0494 -0.8879 -0.5963
  108MOL0     C14450   6.572   8.200   7.729  0.0993  0.3163 -0.0243
  108MOL0     C14451   6.432   8.203   7.761 -0.2643 -0.1330  0.1027
  108MOL0     C14452   6.380   8.151   7.877 -0.5979  0.3571  0.8533
  108MOL0     O14453   6.240   8.137   7.894 -0.2964 -0.6027 -0.0926
  108MOL0     C14454   6.136   8.208   7.813 -0.4622  0.3090 -0.5620
  108MOL0     C14455   6.030   8.110   7.776  0.4296 -0.5510  0.4381
  108MOL0     C14456   5.896   8.171   7.725 -0.1900 -0.1107  0.3723
  108MOL0     C14457   5.836   8.289   7.806 -0.1260 -0.1755 -0.1705
  108MOL0     C14458   5.788   8.248   7.948  0.1933 -0.7950  0.0144
  108MOL0     C14459   5.654   8.164   7.960 -0.1170  0.2331  0.1922
  108MOL0     C14460   5.529   8.249   7.938 -0.6745  0.1398 -0.3590
  108MOL0     C14461   5.396   8.165   7.954 -0.1109 -0.0671 -0.1837
  108MOL0     N14462   5.275   8.248   7.971  0.0613  0.3556  0.0894
  108MOL0     C14463   5.170   8.249   7.878 -0.2775 -0.1175 -0.2405
  108MOL0     C14464   5.071   8.323   7.943  0.2774 -0.6157  0.0434
  108MOL0     C14465   4.927   8.338   7.891  0.4119  0.8994  0.5492
  108MOL0     C14466   4.801   8.283   7.965 -0.3422 -0.0852  0.5346
  108MOL0     C14467   4.786   8.310   8.107 -0.2577  0.5056 -0.0381
  108MOL0     C14468   4.663   8.249   8.175  0.0133  0.2453  0.0096
  108MOL0     O14469   4.554   8.310   8.120  0.0759  0.0627 -0.5580
  108MOL0     C14470   4.439   8.240   8.142 -0.4178 -0.8748  1.9412
  108MOL0     C14471   4.339   8.278   8.051  0.3998 -0.0384 -0.8490
  108MOL0     C14472   4.213   8.219   8.057 -0.0171 -0.9029  1.0612
  108MOL0     C14473   4.104   8.277   7.970 -0.2422  0.2403 -0.0376
  108MOL0     C14474   4.189   8.122   8.153 -0.1871  0.1963  0.1484
  108MOL0     C14475   4.057   8.051   8.177 -0.5436  0.0504 -0.0775
  108MOL0     O14476   3.962   8.048   8.078  0.4978  0.3714 -0.0765
  108MOL0     C14477   3.829   8.024   8.103 -0.0072 -0.2947 -0.8888
  108MOL0     C14478   3.743   8.106   8.032 -0.6175  0.5317  0.4907
  108MOL0     C14479   3.611   8.087   8.061  0.4119 -1.3829  0.3150
  108MOL0     C14480   3.567   7.993   8.146 -0.0629  0.4154  0.3218
  108MOL0     O14481   3.430   7.980   8.170  0.1183 -0.7938 -0.5749
  108MOL0     C14482   3.387   7.865   8.235 -0.5105  0.9339  0.1823
  108MOL0     C14483   3.238   7.853   8.201 -0.1994  0.3444 -0.3199
  108MOL0     C14484   3.156   7.749   8.286  0.0131  0.2282  1.0773
  108MOL0     C14485   3.010   7.758   8.252 -0.5111  0.0597  0.4877
  108MOL0     C14486   2.921   7.660   8.321 -0.7936 -0.0181  0.1604
  108MOL0     C14487   2.904   7.699   8.470  0.3769  0.5659 -0.2523
  108MOL0     C14488   2.806   7.808   8.500 -0.0855 -1.0614  0.9276
  108MOL0     C14489   2.764   7.812   8.648 -0.3457 -0.3576 -0.5738
  108MOL0    Cl14490   2.911   7.857   8.742 -0.5155  0.2176 -0.0742
  108MOL0     C14491   3.654   7.893   8.199  0.1570 -0.2115  0.1726
  108MOL0     C14492   3.785   7.930   8.191  0.2132 -0.1680 -0.2613
  108MOL0     O14493   4.041   8.004   8.286 -0.2582 -0.3284  0.1728
  108MOL0     C14494   4.294   8.068   8.225  0.1287  0.1699 -0.3732
  108MOL0     C14495   4.421   8.123   8.214  0.3390 -0.0177  0.6438
  108MOL0     N14496   5.128   8.364   8.066 -0.2182  0.1114  0.4649
  108MOL0     N14497   5.243   8.326   8.080  0.2803  0.8437 -0.2650
  108MOL0     C14498   6.476   8.098   7.967  0.4512 -1.1678 -0.4214
  108MOL0     C14499   6.615   8.093   7.937 -0.5078 -0.0298 -0.3743
  108MOL0     C14500   7.019   8.104   7.779  0.6146  0.0831 -0.4844
  108MOL0     C14501   7.087   8.026   7.683 -1.0756 -0.2575 -0.1025
  108MOL0     C14502   7.228   8.054   7.662 -0.9381  0.5451 -0.8663
  108MOL0     C14503   7.287   8.166   7.724 -0.0002  0.2727  0.0551
  108MOL0     O14504   7.425   8.175   7.705 -0.1143  0.1815  0.2666
  108MOL0     C14505   7.508   8.284   7.743  0.2582 -0.2655 -0.0246
  108MOL0     C14506   7.653   8.249   7.699 -0.1259  0.0124  0.2644
  108MOL0     C14507   7.744   8.376   7.668  0.3356 -0.6030  0.2029
  108MOL0     C14508   7.877   8.381   7.747  0.1219  0.2940 -0.0823
  108MOL0     C14509   7.873   8.398   7.893 -0.7938 -0.6168 -0.1070
  108MOL0     C14510   7.871   8.399   8.011  0.0111  0.3131 -0.2379
  108MOL0     C14511   7.215   8.250   7.806  0.4836  0.0263  0.8194
  108MOL0     C14512   7.080   8.213   7.840 -0.1633  0.3074 -0.5432
  108MOL0     H14513   6.614   8.245   7.639  1.0816 -1.2719 -0.3990
  108MOL0     H14514   6.361   8.243   7.689  0.9273  2.4855  0.2534
  108MOL0     H14515   6.100   8.287   7.880 -1.0331  0.3788 -0.9468
  108MOL0     H14516   6.180   8.248   7.721  2.4917  3.5035  1.9676
  108MOL0     H14517   6.068   8.044   7.697  2.2033  1.6291 -0.6407
  108MOL0     H14518   5.996   8.046   7.858  0.7476  1.2072  1.9901
  108MOL0     H14519   5.892   8.211   7.623 -1.1231  1.0199  0.8299
  108MOL0     H14520   5.830   8.084   7.718 -2.0966  1.3536 -0.7906
  108MOL0     H14521   5.915   8.364   7.813 -0.1558 -0.2751  1.7796
  108MOL0     H14522   5.755   8.334   7.749  1.0196 -0.2499 -1.9532
  108MOL0     H14523   5.869   8.189   7.992  0.6110 -1.0118 -1.0296
  108MOL0     H14524   5.780   8.343   8.000  0.8932  1.4650 -3.6471
  108MOL0     H14525   5.650   8.076   7.894 -4.2257  0.3309  0.0658
  108MOL0     H14526   5.650   8.125   8.062 -0.4104  2.4974  1.0987
  108MOL0     H14527   5.520   8.330   8.010 -2.0857 -0.0182 -0.3191
  108MOL0     H14528   5.538   8.295   7.839 -1.5664  1.0364 -0.0450
  108MOL0     H14529   5.408   8.116   8.051  2.6343  1.8404  0.5407
  108MOL0     H14530   5.377   8.097   7.870 -0.5802  1.3441 -1.2738
  108MOL0     H14531   5.175   8.185   7.790 -2.0109  1.7868 -1.8427
  108MOL0     H14532   4.911   8.446   7.886  4.0076  1.5319 -0.1608
  108MOL0     H14533   4.919   8.300   7.789 -6.1841  4.5595 -0.8609
  108MOL0     H14534   4.801   8.174   7.957  0.3420 -0.2029  1.8367
  108MOL0     H14535   4.710   8.318   7.915 -0.6181 -1.7307 -0.1877
  108MOL0     H14536   4.808   8.416   8.126  1.0008  0.1457  0.6420
  108MOL0     H14537   4.876   8.275   8.157 -0.8579 -2.9523 -1.1486
  108MOL0     H14538   4.671   8.245   8.284  1.0747 -2.0444 -0.1022
  108MOL0     H14539   4.665   8.145   8.141 -0.2134  1.2761 -3.6129
  108MOL0     H14540   4.370   8.357   7.984 -2.4402  3.2705  1.3722
  108MOL0     H14541   4.137   8.378   7.942  0.3507 -0.5441 -2.3859
  108MOL0     H14542   4.091   8.212   7.884  3.7066 -1.1155  0.2033
  108MOL0     H14543   4.004   8.286   8.015 -1.4727  2.9298 -2.9082
  108MOL0     H14544   3.779   8.174   7.955 -1.9838  0.2768 -0.4044
  108MOL0     H14545   3.540   8.158   8.022  2.2538 -0.4349 -1.5168
  108MOL0     H14546   3.430   7.776   8.187  0.9523  1.9160 -0.3875
  108MOL0     H14547   3.426   7.863   8.337  1.7920  1.2336 -0.6341
  108MOL0     H14548   3.180   7.945   8.208 -0.4396  0.1772 -0.0571
  108MOL0     H14549   3.240   7.819   8.097  1.8166 -2.2734  0.4534
  108MOL0     H14550   3.186   7.771   8.389  0.9311  1.1466  0.6361
  108MOL0     H14551   3.190   7.648   8.259  4.2982  0.8629  3.1582
  108MOL0     H14552   2.974   7.860   8.273 -3.4341 -0.3130 -2.0047
  108MOL0     H14553   2.996   7.745   8.144  2.1154  2.8691 -0.3709
  108MOL0     H14554   2.967   7.561   8.311  0.9084  0.6816  0.5983
  108MOL0     H14555   2.830   7.660   8.261  1.0063  0.0711 -2.7213
  108MOL0     H14556   2.863   7.608   8.515 -0.9709  0.9882 -0.5943
  108MOL0     H14557   2.996   7.720   8.525  0.4812  0.2255 -0.2962
  108MOL0     H14558   2.719   7.802   8.434  0.5312  2.8009 -0.4541
  108MOL0     H14559   2.852   7.903   8.473 -2.3451 -0.4955 -1.2636
  108MOL0     H14560   2.726   7.715   8.682 -0.1631  0.1762  1.2467
  108MOL0     H14561   2.686   7.883   8.676  1.9105  1.6141  1.2010
  108MOL0     H14562   3.627   7.810   8.263 -0.7969  0.3429  0.5034
  108MOL0     H14563   3.852   7.872   8.254 -0.6371 -1.2088 -0.2798
  108MOL0     H14564   4.274   7.975   8.277  1.6173 -0.5516 -1.0113
  108MOL0     H14565   4.506   8.074   8.262  3.5850  1.9932 -2.5114
  108MOL0     H14566   6.439   8.056   8.060 -2.8571 -0.8010 -1.4361
  108MOL0     H14567   6.682   8.046   8.008 -1.2542  0.7653  0.9189
  108MOL0     H14568   7.042   7.936   7.642  3.9603 -3.3831  0.4263
  108MOL0     H14569   7.279   7.989   7.591 -1.6865 -1.5336  0.4248
  108MOL0     H14570   7.472   8.381   7.705 -1.5141 -0.8002  0.2493
  108MOL0     H14571   7.508   8.281   7.852 -0.7348  0.5758  0.0192
  108MOL0     H14572   7.644   8.193   7.605  0.6054  0.8571 -0.3253
  108MOL0     H14573   7.693   8.180   7.773 -0.3067 -1.7530 -1.1958
  108MOL0     H14574   7.687   8.467   7.689  3.2304  1.2211  0.6113
  108MOL0     H14575   7.763   8.367   7.561  2.8263  1.4879  0.3648
  108MOL0     H14576   7.950   8.456   7.714  1.8870 -0.6188  1.5407
  108MOL0     H14577   7.918   8.282   7.726 -1.9668 -1.0383  1.6709
  108MOL0     H14578   7.882   8.410   8.117 -1.5429  2.7710 -0.2676
  108MOL0     H14579   7.266   8.332   7.857 -0.9696  1.0097  0.7347
  108MOL0     H14580   7.013   8.279   7.894 -0.3304  0.9582 -1.5261
  109MOL0     O14581  10.774  10.249   0.153 -0.4355  0.2810  0.4437
  109MOL0     C14582  10.876  10.268   0.220 -0.4480 -1.1010  0.1356
  109MOL0     O14583  10.893  10.378   0.297  0.7994  0.1820  0.4666
  109MOL0     C14584  10.791  10.465   0.304 -0.0855 -0.0449 -0.0029
  109MOL0     C14585  10.752  10.493   0.433 -0.2000 -0.0710 -0.8173
  109MOL0     C14586  10.654  10.593   0.455 -0.4528  0.0491  0.5284
  109MOL0     C14587  10.588  10.660   0.351  0.2179 -0.2061  0.2365
  109MOL0     O14588  10.476  10.736   0.358  0.1206  0.0319 -0.3961
  109MOL0     C14589  10.489  10.848   0.449 -0.6942 -0.4324  0.9504
  109MOL0     C14590  10.400  10.959   0.402  0.2799  0.3726  0.2526
  109MOL0     C14591  10.259  10.923   0.441 -0.0751  0.4598  0.1929
  109MOL0     C14592  10.149  11.039   0.425  0.3567  0.6412 -0.0469
  109MOL0     C14593  10.012  10.976   0.479  1.2790 -0.3875 -0.5139
  109MOL0     C14594   9.911  11.087   0.472  0.6137 -0.4750  0.6325
  109MOL0     C14595   9.779  11.034   0.522  0.1494 -0.0829 -0.5039
  109MOL0     C14596   9.678  11.147   0.543  0.4028 -0.1616 -0.5620
  109MOL0     N14597   9.548  11.088   0.574 -0.1829 -1.0664 -0.4036
  109MOL0     C14598   9.467  11.013   0.489  0.2778  0.7287 -0.8899
  109MOL0     C14599   9.351  11.014   0.566  0.0468 -0.3577 -0.3802
  109MOL0     C14600   9.205  10.963   0.521  0.7193 -0.3594  0.6517
  109MOL0     C14601   9.098  11.043   0.601 -0.9722 -0.2268  0.0785
  109MOL0     C14602   9.091  11.188   0.561  0.0352 -0.4958  0.7293
  109MOL0     C14603   8.970  11.260   0.619 -0.2786  0.4231 -0.4494
  109MOL0     O14604   8.857  11.191   0.577 -0.0160  0.4528 -0.6676
  109MOL0     C14605   8.741  11.230   0.642 -0.4193 -0.2126  0.5088
  109MOL0     C14606   8.714  11.189   0.774  0.2343  0.2006  0.2997
  109MOL0     C14607   8.597  11.239   0.838 -0.7312  0.3602 -0.2612
  109MOL0     C14608   8.567  11.209   0.992 -0.6474  0.1487  0.3107
  109MOL0     C14609   8.504  11.311   0.760  0.0638  0.1947  0.0218
  109MOL0     C14610   8.376  11.363   0.821  0.1810 -0.3191 -0.3199
  109MOL0     O14611   8.394  11.421   0.943  0.1763  0.1139 -1.0388
  109MOL0     C14612   8.283  11.457   1.012  0.7416  0.0656 -0.1784
  109MOL0     C14613   8.233  11.371   1.113 -0.3675 -0.5410 -1.1373
  109MOL0     C14614   8.118  11.409   1.181  0.2608 -0.8233  0.0278
  109MOL0     C14615   8.027  11.515   1.138 -0.3755 -0.3210 -0.0759
  109MOL0     O14616   7.916  11.540   1.210 -0.4035 -0.3870  0.0132
  109MOL0     C14617   7.811  11.612   1.138  1.2071  0.1144  0.2203
  109MOL0     C14618   7.686  11.594   1.216 -0.4007 -0.2836  0.2630
  109MOL0     C14619   7.568  11.645   1.141 -0.8254  0.6116  0.2159
  109MOL0     C14620   7.447  11.633   1.221 -0.2424  0.5130  0.0100
  109MOL0     C14621   7.329  11.687   1.141  0.1251 -0.0960 -0.0094
  109MOL0     C14622   7.195  11.665   1.211 -0.5777  0.2001  0.1023
  109MOL0     C14623   7.164  11.525   1.238 -0.2385  0.5644 -0.0473
  109MOL0     C14624   7.025  11.513   1.297 -0.3035  0.4631  0.0577
  109MOL0    Cl14625   6.888  11.555   1.191  0.1702 -0.4409  0.0880
  109MOL0     C14626   8.076  11.599   1.034  0.0482 -0.0667  0.5497
  109MOL0     C14627   8.206  11.574   0.973 -0.1374  0.5659  0.7183
  109MOL0     O14628   8.277  11.369   0.750  0.8094 -0.7441  0.4717
  109MOL0     C14629   8.530  11.339   0.624  1.0566  0.3949 -0.0350
  109MOL0     C14630   8.644  11.302   0.566 -0.7443 -0.8315  0.1949
  109MOL0     N14631   9.370  11.060   0.693 -0.1347 -0.0222 -0.5329
  109MOL0     N14632   9.488  11.120   0.696  1.3134 -0.9126  0.3949
  109MOL0     C14633  10.631  10.627   0.223 -0.0786 -0.3320 -0.6225
  109MOL0     C14634  10.738  10.535   0.198  0.1540  0.4437 -0.7902
  109MOL0     C14635  10.986  10.163   0.236 -0.1395  0.4193 -0.1319
  109MOL0     C14636  11.100  10.178   0.312 -0.8305 -0.4620 -0.0512
  109MOL0     C14637  11.200  10.080   0.316  0.3132  0.2931  0.3052
  109MOL0     C14638  11.203   9.971   0.228  0.5705 -0.8258 -0.2155
  109MOL0     O14639  11.320   9.894   0.222  0.3959 -0.1081 -0.9882
  109MOL0     C14640  11.348   9.809   0.112 -0.1737 -0.0228 -0.1721
  109MOL0     C14641  11.497   9.778   0.133 -0.7808 -0.0495 -0.0023
  109MOL0     C14642  11.529   9.649   0.212  0.8339 -0.9561  0.1375
  109MOL0     C14643  11.668   9.598   0.199 -0.5477  0.3667  0.1167
  109MOL0     C14644  11.683   9.538   0.065  0.2454 -0.2879 -0.1833
  109MOL0     C14645  11.705   9.511  -0.050 -0.3877  0.0951  1.0772
  109MOL0     C14646  11.089   9.951   0.148 -0.1303  0.0013 -0.2960
  109MOL0     C14647  10.989  10.052   0.147 -0.0460  0.0980 -0.6319
  109MOL0     H14648  10.788  10.433   0.516 -0.9153  0.7545  0.1089
  109MOL0     H14649  10.646  10.613   0.562  4.2603 -1.0774  1.3078
  109MOL0     H14650  10.463  10.811   0.549 -0.8469 -2.5591  0.1740
  109MOL0     H14651  10.592  10.885   0.455 -0.6955 -0.5672  2.2413
  109MOL0     H14652  10.416  11.060   0.439 -1.7482  1.4002 -1.4548
  109MOL0     H14653  10.416  10.968   0.294 -2.0217  0.1383 -0.1507
  109MOL0     H14654  10.228  10.833   0.386  1.6049 -0.7731  1.1667
  109MOL0     H14655  10.261  10.894   0.546  0.7824 -0.3472 -0.0269
  109MOL0     H14656  10.177  11.114   0.499 -1.6854 -0.6982  2.2179
  109MOL0     H14657  10.148  11.074   0.321  1.0835 -0.2807 -0.3846
  109MOL0     H14658   9.983  10.902   0.404 -0.4323  0.8977 -1.1784
  109MOL0     H14659  10.017  10.937   0.581 -1.6026 -0.1083 -0.1824
  109MOL0     H14660   9.942  11.177   0.526 -3.3896  1.4356  0.1657
  109MOL0     H14661   9.908  11.118   0.367 -0.6021 -1.9470  0.1818
  109MOL0     H14662   9.739  10.959   0.453 -3.5362 -1.5716  2.8522
  109MOL0     H14663   9.796  10.987   0.619  3.1185  0.6888 -0.5404
  109MOL0     H14664   9.665  11.193   0.445  0.0003 -1.1876 -1.0103
  109MOL0     H14665   9.706  11.216   0.623 -2.1417  0.5045 -0.1632
  109MOL0     H14666   9.495  10.973   0.392  1.9248 -2.3761  0.7148
  109MOL0     H14667   9.200  10.978   0.413 -0.9275  2.5220  1.0301
  109MOL0     H14668   9.209  10.856   0.546 -0.3370 -0.8225 -1.0202
  109MOL0     H14669   9.103  11.036   0.710  0.9297  0.2874  0.0545
  109MOL0     H14670   9.004  10.995   0.573 -0.2194 -1.4967 -0.3633
  109MOL0     H14671   9.094  11.198   0.452  3.0008 -0.9827  0.6895
  109MOL0     H14672   9.178  11.246   0.593  0.6573 -1.5250  0.9287
  109MOL0     H14673   8.954  11.359   0.575 -4.4333  1.4462  2.7205
  109MOL0     H14674   8.972  11.275   0.727 -3.8797  0.3117 -0.2537
  109MOL0     H14675   8.780  11.126   0.833 -1.7923 -0.3828  2.0766
  109MOL0     H14676   8.566  11.306   1.043 -1.0438  1.0042 -1.2668
  109MOL0     H14677   8.477  11.155   1.019  0.8021 -2.7131 -0.2204
  109MOL0     H14678   8.652  11.157   1.037  0.3419  2.7424  1.7097
  109MOL0     H14679   8.294  11.285   1.139 -1.6023 -0.7258  1.5421
  109MOL0     H14680   8.089  11.343   1.262 -2.3328  0.9000  0.6456
  109MOL0     H14681   7.825  11.721   1.136 -2.6110  0.9240  3.2752
  109MOL0     H14682   7.807  11.564   1.040  0.8154 -1.8030  1.1295
  109MOL0     H14683   7.665  11.488   1.234 -1.2946 -0.1669 -0.0337
  109MOL0     H14684   7.692  11.632   1.318  0.7931 -1.9176  0.8459
  109MOL0     H14685   7.560  11.586   1.049  1.9893  0.8237 -0.2784
  109MOL0     H14686   7.587  11.750   1.115  1.0994 -0.5640 -4.0522
  109MOL0     H14687   7.439  11.528   1.249  0.4410  0.5858  0.5108
  109MOL0     H14688   7.462  11.683   1.317  1.0300 -2.1193  1.2767
  109MOL0     H14689   7.326  11.623   1.053 -0.3115 -1.2252  0.8107
  109MOL0     H14690   7.334  11.794   1.114 -0.0136 -0.5860 -2.1988
  109MOL0     H14691   7.192  11.718   1.307  1.5584 -1.2939  1.0934
  109MOL0     H14692   7.116  11.696   1.142 -0.1370 -1.2643 -1.1099
  109MOL0     H14693   7.234  11.486   1.313  0.4649 -0.0731 -1.0063
  109MOL0     H14694   7.172  11.465   1.147  0.6120 -1.4408  1.2600
  109MOL0     H14695   7.017  11.574   1.387 -4.8393  0.1387  0.1337
  109MOL0     H14696   7.014  11.406   1.318  2.8337  0.4535  2.2751
  109MOL0     H14697   8.010  11.679   1.002 -1.8263 -1.5252  0.5876
  109MOL0     H14698   8.245  11.630   0.889  0.6383 -0.3049  0.4781
  109MOL0     H14699   8.465  11.412   0.577  0.3175  0.1406  0.5722
  109MOL0     H14700   8.674  11.343   0.470 -1.1187  0.4439  0.6052
  109MOL0     H14701  10.570  10.652   0.136  0.8780 -0.1936 -1.2631
  109MOL0     H14702  10.757  10.501   0.097 -0.6241  1.4096 -1.2681
  109MOL0     H14703  11.113  10.272   0.367  5.3694 -0.9088 -0.0646
  109MOL0     H14704  11.277  10.090   0.392  0.1600 -0.5354  0.5870
  109MOL0     H14705  11.290   9.716   0.108  1.0046 -0.7417 -2.0113
  109MOL0     H14706  11.332   9.864   0.019 -3.2589  0.2018  0.3848
  109MOL0     H14707  11.556   9.859   0.175  1.0650 -0.9547 -0.7293
  109MOL0     H14708  11.554   9.760   0.041 -1.0246  1.4741 -0.4737
  109MOL0     H14709  11.454   9.579   0.173 -1.3933  0.3113  1.8466
  109MOL0     H14710  11.499   9.670   0.315 -1.5426  2.0411 -1.0050
  109MOL0     H14711  11.690   9.519   0.272  0.4814 -0.4245 -0.9983
  109MOL0     H14712  11.747   9.668   0.224  1.9265 -3.1737  3.3280
  109MOL0     H14713  11.726   9.481  -0.151  0.6234  0.7627  1.0796
  109MOL0     H14714  11.081   9.861   0.088 -2.6141  0.8679 -1.3883
  109MOL0     H14715  10.910  10.049   0.072  0.4683  0.1253 -1.1780
  110MOL0     O14716   3.809   0.012   8.250  0.5794 -0.0715 -0.4956
  110MOL0     C14717   3.794  -0.095   8.196  1.0086  0.8187  0.3251
  110MOL0     O14718   3.884  -0.200   8.182 -0.1152  0.0855 -0.9374
  110MOL0     C14719   4.021  -0.190   8.207 -0.3489 -0.2162 -0.3219
  110MOL0     C14720   4.102  -0.075   8.179  0.4408  0.3928  1.0472
  110MOL0     C14721   4.237  -0.063   8.204  0.6242  0.2105 -0.9954
  110MOL0     C14722   4.293  -0.184   8.261 -0.7898 -0.1983 -0.0718
  110MOL0     O14723   4.435  -0.200   8.284  0.3797  0.0323 -0.0159
  110MOL0     C14724   4.519  -0.083   8.262 -0.1441 -0.7985  0.1675
  110MOL0     C14725   4.634  -0.111   8.358  0.1246 -0.0792  0.1927
  110MOL0     C14726   4.735  -0.197   8.289 -0.0887  1.0248  0.8943
  110MOL0     C14727   4.874  -0.224   8.360 -0.4385 -0.3871  0.1961
  110MOL0     C14728   4.959  -0.309   8.262  0.0229 -0.5122  0.7359
  110MOL0     C14729   5.104  -0.341   8.317  0.4220 -0.1759  0.2212
  110MOL0     C14730   5.117  -0.392   8.458  0.4266 -0.6926  0.6731
  110MOL0     C14731   5.047  -0.533   8.487 -0.4582  0.0330  0.4450
  110MOL0     N14732   5.058  -0.556   8.630 -0.1048  0.8462  0.0288
  110MOL0     C14733   5.002  -0.488   8.729 -0.5106 -0.0362 -1.1849
  110MOL0     C14734   5.050  -0.541   8.842  0.1788  0.4760 -0.1331
  110MOL0     C14735   5.012  -0.484   8.980 -0.0620 -0.8216  0.3150
  110MOL0     C14736   5.031  -0.594   9.097  0.4044 -1.0798 -0.3522
  110MOL0     C14737   4.999  -0.543   9.239 -0.5285  0.2284  0.0352
  110MOL0     C14738   4.877  -0.455   9.254  0.1326 -0.9639  0.1574
  110MOL0     O14739   4.752  -0.516   9.201 -0.3783  0.0489 -0.2226
  110MOL0     C14740   4.622  -0.474   9.243  0.0124 -0.1673  0.6782
  110MOL0     C14741   4.607  -0.350   9.302  0.6689 -0.5659 -0.2449
  110MOL0     C14742   4.480  -0.310   9.342  0.2058  0.1368 -0.5739
  110MOL0     C14743   4.465  -0.172   9.400  0.4998 -0.3065 -0.7544
  110MOL0     C14744   4.364  -0.393   9.299 -0.5566  0.3347 -0.3403
  110MOL0     C14745   4.221  -0.362   9.330 -0.2756 -0.6463 -0.2092
  110MOL0     O14746   4.124  -0.468   9.315  0.1582  0.0587  0.3062
  110MOL0     C14747   3.990  -0.442   9.339  0.2080 -0.6633  0.3634
  110MOL0     C14748   3.905  -0.547   9.296  0.0065  0.1179 -0.4476
  110MOL0     C14749   3.769  -0.531   9.308  0.6173 -0.3212  0.8931
  110MOL0     C14750   3.716  -0.416   9.369 -0.2906 -1.0651  0.0946
  110MOL0     O14751   3.584  -0.399   9.393  0.5134 -0.3416  0.1549
  110MOL0     C14752   3.485  -0.495   9.363  0.5484  0.3201 -0.4171
  110MOL0     C14753   3.344  -0.442   9.361 -0.1083  0.1540  0.1551
  110MOL0     C14754   3.238  -0.556   9.355 -0.1323 -1.0490 -0.0697
  110MOL0     C14755   3.100  -0.495   9.374 -0.3038  0.5713 -0.1021
  110MOL0     C14756   3.088  -0.448   9.521 -0.0024 -0.3174  0.0532
  110MOL0     C14757   2.937  -0.437   9.546 -0.5064  0.1896 -0.1000
  110MOL0     C14758   2.918  -0.432   9.697 -0.5137  0.2009 -0.7851
  110MOL0     C14759   2.783  -0.380   9.729  0.4853  0.4086 -0.6252
  110MOL0    Cl14760   2.763  -0.198   9.709 -0.0518 -0.0870 -0.3398
  110MOL0     C14761   3.795  -0.313   9.415 -0.6286  0.3173  0.2169
  110MOL0     C14762   3.933  -0.330   9.406  0.2143  0.5657  0.2503
  110MOL0     O14763   4.202  -0.257   9.375 -0.6250 -0.0476  0.9134
  110MOL0     C14764   4.391  -0.514   9.237 -0.4554  0.3463 -0.2631
  110MOL0     C14765   4.520  -0.557   9.214  1.0980  0.5404  0.3968
  110MOL0     N14766   5.143  -0.646   8.819  0.8700 -0.5937 -0.2439
  110MOL0     N14767   5.143  -0.652   8.690 -0.4762 -0.3110 -0.0022
  110MOL0     C14768   4.219  -0.301   8.292  0.1879  0.4765 -0.5268
  110MOL0     C14769   4.086  -0.303   8.257  0.8753 -0.4603  1.0700
  110MOL0     C14770   3.653  -0.122   8.151 -0.0612  0.5822 -0.6161
  110MOL0     C14771   3.631  -0.232   8.067 -0.0729 -0.5721 -0.2879
  110MOL0     C14772   3.506  -0.247   8.008 -0.0144  0.6820 -0.0124
  110MOL0     C14773   3.402  -0.166   8.054  0.5347  0.3355  0.5415
  110MOL0     O14774   3.271  -0.169   8.014 -0.0927  0.1462  0.8152
  110MOL0     C14775   3.235  -0.288   7.952  0.4031  0.4953 -0.0827
  110MOL0     C14776   3.085  -0.292   7.928 -0.4429 -0.8970 -0.5540
  110MOL0     C14777   2.997  -0.268   8.053  0.9458 -0.0154  0.2608
  110MOL0     C14778   2.970  -0.119   8.088 -0.1704  0.0335  0.2387
  110MOL0     C14779   2.898  -0.037   7.993 -0.4779 -0.6445 -0.3842
  110MOL0     C14780   2.843   0.025   7.900  0.6742  0.5671 -0.2156
  110MOL0     C14781   3.428  -0.057   8.136  0.2094 -0.8428  0.5818
  110MOL0     C14782   3.548  -0.027   8.184 -0.3882  0.2852  0.7963
  110MOL0     H14783   4.055   0.000   8.116 -0.0178  1.1687  2.2892
  110MOL0     H14784   4.287   0.026   8.169  2.0136 -0.4121 -0.6444
  110MOL0     H14785   4.552  -0.090   8.158 -1.6217 -4.6564 -0.2281
  110MOL0     H14786   4.475   0.013   8.287 -1.4998 -1.3223 -0.1136
  110MOL0     H14787   4.688  -0.019   8.379 -0.9841  0.8330 -0.8135
  110MOL0     H14788   4.608  -0.163   8.451 -1.1365  0.5821  0.2285
  110MOL0     H14789   4.688  -0.295   8.276  2.4151 -0.1222 -0.2618
  110MOL0     H14790   4.759  -0.152   8.192  1.7499  1.0312  1.3208
  110MOL0     H14791   4.927  -0.130   8.378 -2.5471  1.3237 -1.8383
  110MOL0     H14792   4.856  -0.284   8.449 -1.1199  2.6708  2.2706
  110MOL0     H14793   4.902  -0.399   8.236  0.4469 -1.0451  1.5844
  110MOL0     H14794   4.977  -0.257   8.168  2.6956 -0.9491  0.9239
  110MOL0     H14795   5.152  -0.407   8.245  0.5685  0.7605 -0.5621
  110MOL0     H14796   5.154  -0.244   8.313  0.5486 -0.1431  1.8578
  110MOL0     H14797   5.223  -0.386   8.487  0.6970 -0.0764 -0.3931
  110MOL0     H14798   5.073  -0.314   8.520  1.5596  0.3701  0.2040
  110MOL0     H14799   5.089  -0.624   8.442 -0.2068  1.2447 -1.9177
  110MOL0     H14800   4.942  -0.547   8.460 -0.4566 -0.9294  0.8665
  110MOL0     H14801   4.924  -0.411   8.732  0.0339  0.6188  3.4451
  110MOL0     H14802   5.062  -0.388   8.997  0.9287 -1.0956 -0.9283
  110MOL0     H14803   4.907  -0.454   8.970  0.2716 -0.4144 -3.1685
  110MOL0     H14804   5.132  -0.635   9.086  1.0443  0.7845 -1.9179
  110MOL0     H14805   4.958  -0.673   9.077  0.2449 -1.4883  1.6237
  110MOL0     H14806   5.090  -0.485   9.260 -0.2697 -0.5425  1.1235
  110MOL0     H14807   4.998  -0.626   9.310 -1.9134  0.6688  0.5442
  110MOL0     H14808   4.900  -0.363   9.198 -0.7145 -2.4496 -2.8899
  110MOL0     H14809   4.867  -0.432   9.360  1.1042 -3.4149  0.8425
  110MOL0     H14810   4.686  -0.283   9.336  0.4995  0.9855 -2.6725
  110MOL0     H14811   4.560  -0.126   9.426  1.2659 -1.3230 -1.6415
  110MOL0     H14812   4.411  -0.103   9.333 -0.6071  0.6793  1.0646
  110MOL0     H14813   4.410  -0.173   9.495 -0.8873  1.0693 -1.4933
  110MOL0     H14814   3.949  -0.634   9.248 -3.2421 -1.1938 -1.3074
  110MOL0     H14815   3.703  -0.609   9.272  2.0342 -1.0633 -0.1695
  110MOL0     H14816   3.507  -0.548   9.270  0.9658  0.0673 -0.1791
  110MOL0     H14817   3.493  -0.562   9.449  2.8536  0.6789 -0.2694
  110MOL0     H14818   3.326  -0.385   9.452 -0.0054  2.1102 -0.9956
  110MOL0     H14819   3.338  -0.377   9.273 -1.2289 -0.6220 -0.3731
  110MOL0     H14820   3.259  -0.623   9.439 -0.0674 -1.8410 -0.7071
  110MOL0     H14821   3.242  -0.618   9.265 -2.6040  0.1814 -1.1196
  110MOL0     H14822   3.089  -0.408   9.308 -1.4799 -0.0032 -0.6865
  110MOL0     H14823   3.032  -0.576   9.346  0.5534  0.1378 -0.9974
  110MOL0     H14824   3.145  -0.356   9.535  0.7148 -0.8479  0.7361
  110MOL0     H14825   3.117  -0.527   9.592  1.4086  1.2689  1.3077
  110MOL0     H14826   2.908  -0.346   9.492 -0.3717 -1.2236 -2.7357
  110MOL0     H14827   2.878  -0.515   9.498  2.6843 -1.7348 -1.2685
  110MOL0     H14828   3.003  -0.383   9.746  0.9610 -2.5154 -0.4170
  110MOL0     H14829   2.918  -0.533   9.740  3.2144  0.0424 -0.8337
  110MOL0     H14830   2.767  -0.408   9.834  2.3204 -2.3269 -0.9637
  110MOL0     H14831   2.703  -0.432   9.675  1.8175 -1.5254 -0.8580
  110MOL0     H14832   3.742  -0.231   9.463 -2.2997 -1.4243  1.5236
  110MOL0     H14833   4.000  -0.257   9.451  1.8356 -1.2680  0.9530
  110MOL0     H14834   4.319  -0.589   9.205  1.0227 -0.6057 -1.4543
  110MOL0     H14835   4.530  -0.656   9.169 -1.7389 -0.7344  2.2257
  110MOL0     H14836   4.274  -0.388   8.325 -0.5545  1.1167  2.6910
  110MOL0     H14837   4.039  -0.398   8.279  0.2886 -0.1325  1.2580
  110MOL0     H14838   3.704  -0.312   8.058  0.6070 -0.0662  0.5578
  110MOL0     H14839   3.482  -0.331   7.943 -0.3808  0.9372 -0.2149
  110MOL0     H14840   3.280  -0.310   7.856 -3.7749  1.9571 -2.6622
  110MOL0     H14841   3.264  -0.367   8.022  0.7637 -1.1282 -1.9980
  110MOL0     H14842   3.070  -0.388   7.877  0.4987  0.7008 -4.1166
  110MOL0     H14843   3.066  -0.225   7.844  0.1907 -0.6399 -0.4947
  110MOL0     H14844   3.060  -0.320   8.127  2.8155  0.3618 -0.9839
  110MOL0     H14845   2.902  -0.320   8.044  1.7632 -2.1408  2.5553
  110MOL0     H14846   3.069  -0.075   8.098  0.1004 -0.4712 -0.1865
  110MOL0     H14847   2.927  -0.121   8.189  0.2475  1.7940  0.4796
  110MOL0     H14848   2.798   0.080   7.820 -0.1080  3.1467  1.8350
  110MOL0     H14849   3.344   0.009   8.157  0.6305 -0.4286  0.9948
  110MOL0     H14850   3.559   0.066   8.238 -1.4265  1.3486 -0.7243
  111MOL0     O14851   9.601   3.187   0.380 -0.0179 -0.7873  0.4898
  111MOL0     C14852   9.659   3.116   0.296 -0.1076  0.0729  0.1170
  111MOL0     O14853   9.595   3.045   0.195  0.5004 -0.1820 -0.3138
  111MOL0     C14854   9.459   3.048   0.198 -0.6965  0.0263 -0.3546
  111MOL0     C14855   9.380   3.092   0.093  0.6212 -0.2031  0.0866
  111MOL0     C14856   9.239   3.066   0.098 -0.1096 -0.4440 -1.2304
  111MOL0     C14857   9.173   3.019   0.212 -0.5186 -0.0350  0.1473
  111MOL0     O14858   9.033   3.011   0.205  0.1431 -0.2578  0.6107
  111MOL0     C14859   8.975   3.045   0.331  0.1045 -0.7947 -0.5367
  111MOL0     C14860   8.827   2.992   0.339 -0.2584 -0.1630  0.3122
  111MOL0     C14861   8.824   2.842   0.352  0.5249 -0.1845 -0.3259
  111MOL0     C14862   8.684   2.775   0.334  0.3864 -0.4048  0.1432
  111MOL0     C14863   8.571   2.812   0.425 -0.6365  0.0353 -0.5608
  111MOL0     C14864   8.458   2.712   0.434 -0.4575 -0.3724  1.2487
  111MOL0     C14865   8.334   2.767   0.514  0.3438 -0.2334 -0.5454
  111MOL0     C14866   8.291   2.673   0.621  0.7972  0.3814 -0.8646
  111MOL0     N14867   8.151   2.701   0.662 -0.6163  0.5237 -0.2535
  111MOL0     C14868   8.114   2.820   0.731  0.1425 -0.2110 -0.0584
  111MOL0     C14869   7.974   2.810   0.727  0.7257 -0.1310 -0.7749
  111MOL0     C14870   7.894   2.914   0.811 -0.4415 -0.8794 -0.2579
  111MOL0     C14871   7.839   3.034   0.734  0.6434 -0.2711 -0.6690
  111MOL0     C14872   7.822   3.163   0.812  0.9302  0.0326  0.5966
  111MOL0     C14873   7.737   3.258   0.729 -0.3966  0.1282  0.0520
  111MOL0     O14874   7.594   3.231   0.748 -0.4315  0.2202  0.4142
  111MOL0     C14875   7.501   3.293   0.667 -0.5356 -0.2790  1.0758
  111MOL0     C14876   7.530   3.387   0.574 -0.1324  0.4690  0.2837
  111MOL0     C14877   7.431   3.452   0.500  0.9578  0.1975  1.1360
  111MOL0     C14878   7.484   3.530   0.390 -0.0700 -0.0318  1.0851
  111MOL0     C14879   7.290   3.431   0.532 -0.5632  0.3636  1.2479
  111MOL0     C14880   7.173   3.481   0.462 -0.5384 -0.3547  0.1417
  111MOL0     O14881   7.055   3.416   0.484 -0.4721  0.1843  0.4378
  111MOL0     C14882   6.940   3.492   0.455 -0.1700 -0.0212 -0.5526
  111MOL0     C14883   6.877   3.549   0.563 -0.1108  0.1395  0.1783
  111MOL0     C14884   6.765   3.639   0.544 -0.0686 -0.6906 -0.3099
  111MOL0     C14885   6.708   3.651   0.420  0.2409  0.0310  0.2191
  111MOL0     O14886   6.592   3.723   0.388  0.1713 -0.2898 -0.2829
  111MOL0     C14887   6.503   3.751   0.495  0.0775  0.6259 -0.0730
  111MOL0     C14888   6.540   3.896   0.545 -0.1982  0.1816 -0.8696
  111MOL0     C14889   6.473   3.919   0.680 -0.0756  0.1411 -0.1135
  111MOL0     C14890   6.339   3.998   0.689 -0.4544 -0.3822 -0.2553
  111MOL0     C14891   6.320   4.092   0.570  0.0001  0.5029  1.0616
  111MOL0     C14892   6.192   4.174   0.568  0.2088 -0.4064 -0.3515
  111MOL0     C14893   6.181   4.286   0.677  0.3934  0.5978  0.5127
  111MOL0     C14894   6.047   4.358   0.670 -0.0783 -0.5397 -0.1021
  111MOL0    Cl14895   6.022   4.451   0.816  0.3317  0.0876  0.0804
  111MOL0     C14896   6.754   3.572   0.321  0.3782  0.2528  0.2054
  111MOL0     C14897   6.869   3.494   0.333 -0.1741  0.2299  0.4551
  111MOL0     O14898   7.188   3.588   0.402 -0.5040  0.5517 -0.0061
  111MOL0     C14899   7.269   3.333   0.633 -1.1023 -0.3060  0.3213
  111MOL0     C14900   7.371   3.277   0.705 -1.3364 -0.2079  0.3577
  111MOL0     N14901   7.932   2.700   0.646  0.2783 -0.0202  0.1996
  111MOL0     N14902   8.042   2.631   0.616 -0.1784  0.0078  0.6001
  111MOL0     C14903   9.261   2.965   0.314 -1.0968 -1.2997 -0.0930
  111MOL0     C14904   9.397   2.977   0.303  0.4811 -1.1909  0.4102
  111MOL0     C14905   9.805   3.106   0.310  0.8322  0.8960 -0.1265
  111MOL0     C14906   9.872   3.131   0.438  0.2737  0.2365  0.0062
  111MOL0     C14907  10.016   3.135   0.446  0.4713  0.3169  0.4810
  111MOL0     C14908  10.088   3.101   0.327 -0.0604  0.3740 -0.1607
  111MOL0     O14909  10.222   3.103   0.342 -0.3094  0.6241  0.2323
  111MOL0     C14910  10.308   3.036   0.239  0.6053 -0.0771 -0.5379
  111MOL0     C14911  10.460   3.043   0.266 -0.5321 -0.7806 -0.9109
  111MOL0     C14912  10.518   3.168   0.209  0.8808 -1.1495  0.1335
  111MOL0     C14913  10.660   3.190   0.254 -0.2914  0.3280  0.6576
  111MOL0     C14914  10.749   3.079   0.225  0.1572  0.5303  0.2469
  111MOL0     C14915  10.852   3.018   0.200 -0.5564  0.8572 -0.0807
  111MOL0     C14916  10.023   3.085   0.200 -0.3416 -0.1046 -0.8491
  111MOL0     C14917   9.881   3.086   0.189 -0.2035 -0.4512  0.4410
  111MOL0     H14918   9.429   3.146   0.012 -1.6826  1.3130 -0.3810
  111MOL0     H14919   9.172   3.099   0.019  2.0645  1.7585 -2.2736
  111MOL0     H14920   9.024   3.012   0.423  2.5403  2.1848 -0.5801
  111MOL0     H14921   8.991   3.153   0.339  0.3861 -0.9122  0.6263
  111MOL0     H14922   8.764   3.044   0.411 -0.9357 -0.6567  0.0934
  111MOL0     H14923   8.781   3.017   0.243  3.4865 -1.2276 -1.9428
  111MOL0     H14924   8.886   2.792   0.277 -1.9303 -1.3174 -1.7172
  111MOL0     H14925   8.863   2.809   0.449  0.4752 -2.5660 -1.0657
  111MOL0     H14926   8.648   2.790   0.232 -0.5983 -0.5586  0.4530
  111MOL0     H14927   8.687   2.666   0.349  0.2825 -0.3344  0.6775
  111MOL0     H14928   8.606   2.828   0.527  3.0488 -2.3795 -1.2819
  111MOL0     H14929   8.524   2.906   0.392 -0.0498 -0.4286 -2.9494
  111MOL0     H14930   8.435   2.687   0.330  0.4648  2.1348  0.3883
  111MOL0     H14931   8.507   2.624   0.477  3.7344 -0.5550 -3.0767
  111MOL0     H14932   8.357   2.866   0.554  1.5102 -0.7632  0.1523
  111MOL0     H14933   8.253   2.768   0.440 -0.3015  0.6082  0.1605
  111MOL0     H14934   8.360   2.703   0.701  2.6596 -1.4480 -1.6641
  111MOL0     H14935   8.296   2.567   0.592 -0.0865 -0.0971  0.5856
  111MOL0     H14936   8.172   2.883   0.798 -0.2328 -0.9719  1.0181
  111MOL0     H14937   7.808   2.865   0.856 -2.1495  3.0684  1.2662
  111MOL0     H14938   7.961   2.944   0.892  1.3643 -2.1247 -1.2108
  111MOL0     H14939   7.744   2.986   0.708  0.7577  0.5631 -2.7948
  111MOL0     H14940   7.902   3.058   0.648 -0.3434  0.4706 -1.2020
  111MOL0     H14941   7.918   3.207   0.841  1.1545  0.9295 -1.3832
  111MOL0     H14942   7.761   3.143   0.901 -1.8640 -2.4508 -1.7026
  111MOL0     H14943   7.771   3.247   0.625 -3.1240 -1.0779 -0.8104
  111MOL0     H14944   7.762   3.358   0.765 -2.5431  0.6932  0.1169
  111MOL0     H14945   7.634   3.404   0.551  0.2959 -0.3639  1.5211
  111MOL0     H14946   7.482   3.466   0.301  1.2339  2.3349 -0.7547
  111MOL0     H14947   7.417   3.611   0.361 -0.8485 -0.4627  1.6555
  111MOL0     H14948   7.586   3.566   0.411  0.0437 -1.3495  3.1199
  111MOL0     H14949   6.921   3.534   0.661 -1.1861  2.0355  1.0088
  111MOL0     H14950   6.736   3.690   0.636  1.1034 -0.2916 -0.1484
  111MOL0     H14951   6.402   3.755   0.454  0.5606  0.8863 -1.2838
  111MOL0     H14952   6.508   3.677   0.575  1.8492  0.5206 -0.2356
  111MOL0     H14953   6.648   3.891   0.566  0.3630 -3.4408 -3.5203
  111MOL0     H14954   6.525   3.981   0.478  2.1174  2.1178  0.8887
  111MOL0     H14955   6.550   3.969   0.740 -0.5587  2.0833 -1.0430
  111MOL0     H14956   6.455   3.823   0.729  0.5988 -0.6223 -1.3134
  111MOL0     H14957   6.260   3.923   0.686 -0.2010 -0.6675  0.1735
  111MOL0     H14958   6.335   4.055   0.782  3.5915  0.6803 -0.5387
  111MOL0     H14959   6.318   4.022   0.486  3.2688  0.2575  1.0712
  111MOL0     H14960   6.412   4.151   0.569  0.6530 -0.4846  0.2172
  111MOL0     H14961   6.177   4.223   0.471 -2.5502  1.5965  0.9323
  111MOL0     H14962   6.108   4.105   0.583 -1.5058  1.6635  0.2038
  111MOL0     H14963   6.266   4.354   0.664 -0.2086  1.5428  1.4457
  111MOL0     H14964   6.183   4.236   0.774  2.0130 -1.9904 -0.7074
  111MOL0     H14965   5.960   4.294   0.655 -2.0022  1.9003 -0.0659
  111MOL0     H14966   6.053   4.420   0.580  0.0466 -1.2163 -0.5713
  111MOL0     H14967   6.700   3.582   0.227  0.6974 -2.2515 -0.3431
  111MOL0     H14968   6.900   3.439   0.245 -0.7499  1.0737 -0.2993
  111MOL0     H14969   7.172   3.303   0.669 -0.7483  0.5440  2.0658
  111MOL0     H14970   7.362   3.218   0.796  1.9546  0.5108  1.2658
  111MOL0     H14971   9.216   2.902   0.390 -1.9944 -0.8688 -0.2530
  111MOL0     H14972   9.458   2.933   0.381 -0.4496 -0.6542  1.4681
  111MOL0     H14973   9.811   3.140   0.527 -3.2046 -1.9348 -1.9567
  111MOL0     H14974  10.064   3.155   0.541 -0.2021  0.3189  0.8256
  111MOL0     H14975  10.286   2.929   0.239  2.4448 -0.5224  0.9394
  111MOL0     H14976  10.291   3.069   0.136  0.4047  0.2557 -0.4003
  111MOL0     H14977  10.509   2.957   0.219  3.2781  0.7303  0.0001
  111MOL0     H14978  10.467   3.039   0.375 -0.7769  0.3008 -0.8459
  111MOL0     H14979  10.458   3.255   0.237  1.7339 -0.8537  1.1439
  111MOL0     H14980  10.508   3.159   0.101 -1.1171  1.3453  0.0118
  111MOL0     H14981  10.653   3.204   0.363 -0.5954  2.6031  0.4002
  111MOL0     H14982  10.709   3.279   0.214  2.0273 -1.5662 -1.0048
  111MOL0     H14983  10.942   2.964   0.179  0.6855  2.2878  1.3000
  111MOL0     H14984  10.070   3.081   0.103 -2.6444 -1.0479 -2.0209
  111MOL0     H14985   9.842   3.059   0.091  0.2749  0.3561  0.0158
  112MOL0     O14986   3.793   3.997   2.763  0.2309 -0.4078  0.3092
  112MOL0     C14987   3.843   4.099   2.804 -0.0579 -0.4962  0.3378
  112MOL0     O14988   3.783   4.219   2.827  0.0454 -0.5828  0.3691
  112MOL0     C14989   3.653   4.241   2.789  0.6361 -0.2036 -0.2021
  112MOL0     C14990   3.597   4.354   2.855  0.2451  0.3627  0.8203
  112MOL0     C14991   3.469   4.401   2.824  0.0067  0.2156  0.1004
  112MOL0     C14992   3.383   4.334   2.737  0.1674 -0.2362  0.1191
  112MOL0     O14993   3.257   4.387   2.700  0.3964  0.2023 -0.0088
  112MOL0     C14994   3.140   4.302   2.691 -0.1476 -0.7785 -0.1655
  112MOL0     C14995   3.082   4.261   2.829 -0.1137  0.5163  0.3142
  112MOL0     C14996   3.020   4.373   2.918  0.2884  0.1382 -0.0542
  112MOL0     C14997   2.863   4.374   2.941 -0.1368 -0.1511  0.0236
  112MOL0     C14998   2.804   4.261   3.031  0.7541 -0.1417 -0.0722
  112MOL0     C14999   2.651   4.301   3.061 -0.1612 -0.0146 -0.4534
  112MOL0     C15000   2.550   4.280   2.954  0.8467 -0.1823  0.3636
  112MOL0     C15001   2.527   4.132   2.919 -0.3504 -0.4670  0.2554
  112MOL0     N15002   2.397   4.108   2.849 -0.0772 -0.2466 -0.4873
  112MOL0     C15003   2.277   4.160   2.895  0.9895  0.0100  0.3781
  112MOL0     C15004   2.194   4.124   2.794  0.1404 -0.5388 -0.4623
  112MOL0     C15005   2.049   4.149   2.814  0.1206  0.2351 -0.5288
  112MOL0     C15006   2.000   4.065   2.932  0.7213 -0.0324 -0.1015
  112MOL0     C15007   1.862   4.127   2.969  0.4298 -0.5077  0.3038
  112MOL0     C15008   1.753   4.056   2.879  1.2881  0.7702  0.2204
  112MOL0     O15009   1.628   4.100   2.936 -0.3421 -0.1353 -0.0860
  112MOL0     C15010   1.509   4.082   2.869 -1.0340 -0.1008  0.5874
  112MOL0     C15011   1.506   3.992   2.756  0.6225  0.4884 -0.6713
  112MOL0     C15012   1.383   3.967   2.686 -0.2813 -0.2122  1.0319
  112MOL0     C15013   1.386   3.855   2.584  0.0090 -0.0325  1.2365
  112MOL0     C15014   1.269   4.038   2.717 -0.6725  0.3969  0.1702
  112MOL0     C15015   1.132   4.035   2.646  0.5632  1.0923  0.5083
  112MOL0     O15016   1.030   4.110   2.707  0.3125 -1.0815 -0.2028
  112MOL0     C15017   0.927   4.156   2.630  0.6290  0.3166 -0.8899
  112MOL0     C15018   0.826   4.075   2.588 -0.6503  0.5681 -0.4705
  112MOL0     C15019   0.712   4.122   2.523  0.0984  0.5646  0.2094
  112MOL0     C15020   0.696   4.259   2.496 -0.6394  0.3733  0.0552
  112MOL0     O15021   0.594   4.309   2.430  0.6399  0.3485  0.0884
  112MOL0     C15022   0.530   4.221   2.335 -0.4790  0.0691  0.2365
  112MOL0     C15023   0.449   4.313   2.244  0.2416 -0.0048 -0.2990
  112MOL0     C15024   0.398   4.231   2.129  0.3341 -0.4621 -0.3424
  112MOL0     C15025   0.364   4.326   2.020 -0.0031  0.1660 -0.4159
  112MOL0     C15026   0.282   4.270   1.909  0.6732  0.0574 -0.6979
  112MOL0     C15027   0.370   4.185   1.818  0.1334  0.9111  0.5673
  112MOL0     C15028   0.285   4.140   1.700  0.0152  1.0267  0.5120
  112MOL0     C15029   0.353   4.079   1.575  0.4782 -0.2235  0.3797
  112MOL0    Cl15030   0.449   3.940   1.634 -0.4986 -0.2743  0.2612
  112MOL0     C15031   0.806   4.342   2.522  0.2086 -0.0471  0.4317
  112MOL0     C15032   0.919   4.296   2.598  0.2524  0.2417  0.2898
  112MOL0     O15033   1.123   3.977   2.536  0.3793 -0.0078 -0.2909
  112MOL0     C15034   1.283   4.136   2.818 -0.0010 -0.7360 -1.1235
  112MOL0     C15035   1.393   4.146   2.901  0.8303 -0.0471  0.3091
  112MOL0     N15036   2.266   4.057   2.695 -0.0741 -0.2216 -0.7690
  112MOL0     N15037   2.386   4.045   2.734  0.5658 -0.7378  0.5072
  112MOL0     C15038   3.435   4.213   2.689 -0.4769  0.2661  0.6705
  112MOL0     C15039   3.561   4.172   2.709 -0.2312 -0.5085  1.1894
  112MOL0     C15040   3.987   4.090   2.827  0.3741 -0.1911  0.0299
  112MOL0     C15041   4.050   3.966   2.829 -0.1120 -0.0606 -0.5376
  112MOL0     C15042   4.185   3.957   2.853  0.4773  0.2458  0.1894
  112MOL0     C15043   4.262   4.072   2.887  0.6513  0.6201 -0.4583
  112MOL0     O15044   4.391   4.051   2.934 -0.0698  0.5067 -0.6957
  112MOL0     C15045   4.489   4.152   2.911 -0.2889 -0.3837  1.1456
  112MOL0     C15046   4.624   4.091   2.958  0.2848  0.1851 -0.0987
  112MOL0     C15047   4.695   4.013   2.848  0.0299 -0.3991 -0.7617
  112MOL0     C15048   4.810   3.928   2.900 -0.1973  0.1948  0.2976
  112MOL0     C15049   4.919   3.991   2.980 -0.0557  0.0157  0.1039
  112MOL0     C15050   5.012   4.046   3.028  0.3198 -1.0682  0.1047
  112MOL0     C15051   4.194   4.194   2.888 -0.0043 -0.3681 -0.1874
  112MOL0     C15052   4.060   4.206   2.859 -0.2786 -0.9013 -0.6737
  112MOL0     H15053   3.654   4.392   2.939 -0.5773  1.8471  0.7457
  112MOL0     H15054   3.417   4.476   2.884  2.0508  0.8055  1.2409
  112MOL0     H15055   3.063   4.366   2.647  0.0967  0.4359  1.1049
  112MOL0     H15056   3.169   4.219   2.626  1.4541  0.1771 -0.7094
  112MOL0     H15057   2.998   4.194   2.805  1.2698 -1.1888  0.0361
  112MOL0     H15058   3.154   4.198   2.882 -1.4939 -0.6092  0.9428
  112MOL0     H15059   3.074   4.358   3.012  2.0969  1.3208 -0.8487
  112MOL0     H15060   3.050   4.469   2.877 -0.8865 -0.2793 -2.0343
  112MOL0     H15061   2.845   4.468   2.994 -0.4163 -1.5906  2.6562
  112MOL0     H15062   2.811   4.368   2.844 -0.2776  2.7574 -0.1567
  112MOL0     H15063   2.803   4.163   2.981  1.4492 -1.0707  1.6555
  112MOL0     H15064   2.882   4.253   3.107  3.7622  0.2837 -2.8938
  112MOL0     H15065   2.612   4.256   3.153  3.0459  1.2962  1.7526
  112MOL0     H15066   2.649   4.408   3.085  2.2802 -0.0697  0.2503
  112MOL0     H15067   2.458   4.325   2.992  0.9440 -1.0423  1.6816
  112MOL0     H15068   2.578   4.331   2.861 -3.5208 -1.2032 -1.7762
  112MOL0     H15069   2.536   4.067   3.006 -0.6748 -2.9984 -1.5032
  112MOL0     H15070   2.601   4.095   2.848 -1.4621 -1.5223 -0.3848
  112MOL0     H15071   2.256   4.226   2.979  0.6422  0.0822  0.2385
  112MOL0     H15072   2.030   4.255   2.833  1.2316  0.6323 -1.5261
  112MOL0     H15073   1.992   4.124   2.724  0.3239 -0.0292 -0.5840
  112MOL0     H15074   2.066   4.073   3.019  0.0718  0.9945  0.3234
  112MOL0     H15075   2.008   3.963   2.893  1.2517  0.5908 -1.6837
  112MOL0     H15076   1.854   4.236   2.968  0.0315 -0.3939  3.7653
  112MOL0     H15077   1.836   4.102   3.073  0.3041 -3.7150 -0.3816
  112MOL0     H15078   1.754   3.947   2.882 -2.0714  0.6494 -0.0111
  112MOL0     H15079   1.759   4.093   2.776 -0.4725 -0.5831 -0.4134
  112MOL0     H15080   1.585   3.928   2.719 -1.1684 -3.6947  2.0805
  112MOL0     H15081   1.296   3.793   2.593  0.9703 -1.5780  0.5922
  112MOL0     H15082   1.399   3.899   2.485  2.9230  0.7826  1.8838
  112MOL0     H15083   1.471   3.791   2.609  2.7575  2.9137  0.0711
  112MOL0     H15084   0.835   3.970   2.613 -1.2220  1.3084  3.4010
  112MOL0     H15085   0.626   4.059   2.503 -0.4135  1.3701 -0.1848
  112MOL0     H15086   0.606   4.175   2.271 -0.5441 -1.9045  1.4882
  112MOL0     H15087   0.468   4.141   2.377 -0.7452  1.7320  3.2632
  112MOL0     H15088   0.360   4.351   2.295 -0.5017 -1.3772 -0.5369
  112MOL0     H15089   0.512   4.395   2.210 -0.3478 -0.1658 -1.8537
  112MOL0     H15090   0.311   4.179   2.169  1.4696 -1.3267  1.0939
  112MOL0     H15091   0.466   4.154   2.091 -0.9774 -1.5175 -0.6382
  112MOL0     H15092   0.300   4.404   2.063 -1.6755 -2.6164  2.6004
  112MOL0     H15093   0.455   4.367   1.976  0.9240  0.7259  1.8518
  112MOL0     H15094   0.234   4.345   1.845  1.5586  0.4897 -0.8731
  112MOL0     H15095   0.211   4.197   1.949  1.3068 -0.3350 -0.2631
  112MOL0     H15096   0.456   4.243   1.785 -0.7983  1.0859 -1.6741
  112MOL0     H15097   0.402   4.092   1.868 -2.8561  0.0264  1.0328
  112MOL0     H15098   0.223   4.224   1.666  0.0969  0.0573 -2.2835
  112MOL0     H15099   0.220   4.058   1.733  2.9755 -0.8495  2.1112
  112MOL0     H15100   0.417   4.152   1.526 -0.2391  0.1623 -0.0043
  112MOL0     H15101   0.287   4.045   1.495 -1.3582  2.0866  0.8151
  112MOL0     H15102   0.800   4.449   2.506 -2.1301 -0.3977 -1.5922
  112MOL0     H15103   0.996   4.368   2.623  0.0886  0.1022  1.2007
  112MOL0     H15104   1.199   4.194   2.853 -0.7633 -0.6918 -2.8839
  112MOL0     H15105   1.388   4.225   2.975 -2.3599  1.6780 -1.5131
  112MOL0     H15106   3.365   4.157   2.627  1.7929 -1.5315 -0.4176
  112MOL0     H15107   3.592   4.092   2.642 -3.7446  0.8924 -2.5153
  112MOL0     H15108   4.002   3.870   2.810  0.4584 -0.9712  2.1528
  112MOL0     H15109   4.239   3.864   2.844  1.4095  0.8682 -0.9177
  112MOL0     H15110   4.492   4.180   2.806  1.5777  0.7088  1.4402
  112MOL0     H15111   4.463   4.235   2.978 -2.9053 -0.8159  0.7591
  112MOL0     H15112   4.581   4.026   3.035 -3.2832  3.1590  0.7168
  112MOL0     H15113   4.682   4.170   3.007  3.7766 -2.7838  1.0176
  112MOL0     H15114   4.738   4.084   2.777  0.8269 -2.2697 -2.2446
  112MOL0     H15115   4.627   3.955   2.786 -2.6103 -0.1299  1.6978
  112MOL0     H15116   4.853   3.877   2.814  0.4449  0.8152  0.2420
  112MOL0     H15117   4.758   3.848   2.953 -1.5751  1.3180  0.7310
  112MOL0     H15118   5.094   4.105   3.065  0.0978 -0.9135  0.3548
  112MOL0     H15119   4.243   4.286   2.915 -2.8019  0.9134  0.9625
  112MOL0     H15120   4.018   4.306   2.858 -2.8113 -1.8603 -2.7069
  113MOL0     O15121   0.698   1.744   5.608  0.1337  1.2745 -0.1354
  113MOL0     C15122   0.670   1.796   5.502 -0.5761  0.5704 -0.6673
  113MOL0     O15123   0.552   1.838   5.466 -0.3971 -0.0234 -0.8285
  113MOL0     C15124   0.449   1.804   5.559 -0.1628 -0.0846  0.6292
  113MOL0     C15125   0.360   1.708   5.532  0.3744  0.7247  0.6851
  113MOL0     C15126   0.255   1.682   5.626  1.6588 -0.4507  0.2112
  113MOL0     C15127   0.245   1.746   5.749 -0.5828  0.3508  1.6449
  113MOL0     O15128   0.146   1.698   5.833  0.4302  0.9379  0.2642
  113MOL0     C15129   0.136   1.765   5.958 -0.0273  0.5860  0.3575
  113MOL0     C15130   0.002   1.713   6.026 -0.3618 -0.5314  0.6262
  113MOL0     C15131   0.016   1.776   6.169  0.1767  0.6870 -0.5651
  113MOL0     C15132  -0.087   1.715   6.263  0.1583 -0.6398 -1.1940
  113MOL0     C15133  -0.091   1.765   6.410  0.8333  0.0674  0.2997
  113MOL0     C15134   0.050   1.768   6.480  0.8969 -1.0848  0.3226
  113MOL0     C15135   0.126   1.632   6.491 -0.3539 -0.4210  0.2510
  113MOL0     C15136   0.044   1.544   6.578 -0.1680 -0.4114  0.0047
  113MOL0     N15137  -0.059   1.465   6.503 -0.3919 -0.3326  1.1482
  113MOL0     C15138  -0.028   1.357   6.426  0.0129 -0.2990  1.3262
  113MOL0     C15139  -0.149   1.306   6.394 -0.2391  0.1224  0.1950
  113MOL0     C15140  -0.172   1.184   6.315  0.5697  0.7005  0.2609
  113MOL0     C15141  -0.182   1.212   6.160  1.0059 -0.2894 -0.3222
  113MOL0     C15142  -0.233   1.089   6.082 -1.2947 -0.1546  0.1390
  113MOL0     C15143  -0.279   1.121   5.942  0.4664 -0.1639 -0.3338
  113MOL0     O15144  -0.341   1.004   5.895 -0.2599  0.2607 -0.7207
  113MOL0     C15145  -0.434   1.006   5.794  0.1605  0.0766 -0.4477
  113MOL0     C15146  -0.509   0.890   5.785  0.9562  0.8353  0.2285
  113MOL0     C15147  -0.609   0.871   5.692  0.4271  1.1481  0.1789
  113MOL0     C15148  -0.684   0.737   5.705  0.0862  0.3223 -0.1164
  113MOL0     C15149  -0.638   0.986   5.609 -0.3014  0.3065 -0.4198
  113MOL0     C15150  -0.751   0.994   5.514  0.5644  0.1239 -0.5843
  113MOL0     O15151  -0.823   0.878   5.501  0.1169  0.4837  0.1873
  113MOL0     C15152  -0.949   0.868   5.440  0.2466 -0.2896  0.6571
  113MOL0     C15153  -1.055   0.853   5.529  0.0422  1.2242  0.1063
  113MOL0     C15154  -1.186   0.834   5.475 -0.1295 -0.5595 -0.0718
  113MOL0     C15155  -1.211   0.843   5.335 -0.2098  0.0413  0.2969
  113MOL0     O15156  -1.328   0.825   5.267 -0.0358  0.0103  0.0336
  113MOL0     C15157  -1.443   0.844   5.357 -0.3411 -0.3820  0.6372
  113MOL0     C15158  -1.575   0.837   5.281  0.3064  0.0212  0.5094
  113MOL0     C15159  -1.700   0.866   5.360 -0.0502 -0.7126  0.2008
  113MOL0     C15160  -1.833   0.812   5.304 -0.2989 -0.0901  0.6423
  113MOL0     C15161  -1.955   0.900   5.327 -0.3062  0.3713  0.6495
  113MOL0     C15162  -2.025   0.866   5.462 -1.1306 -0.8439  0.3403
  113MOL0     C15163  -2.106   0.983   5.514  0.4393 -0.7989 -0.1388
  113MOL0     C15164  -2.203   1.032   5.401 -0.8811  0.2242 -0.2273
  113MOL0    Cl15165  -2.299   1.172   5.471  0.0545  0.4709  0.6475
  113MOL0     C15166  -1.103   0.870   5.251 -0.0626  0.6854 -0.8593
  113MOL0     C15167  -0.968   0.879   5.303  0.4246  0.1221 -0.4724
  113MOL0     O15168  -0.774   1.101   5.456 -0.0219  0.1602 -0.4162
  113MOL0     C15169  -0.549   1.095   5.612  0.1174  0.2153 -0.4575
  113MOL0     C15170  -0.448   1.108   5.710 -0.0205 -0.0426 -0.3983
  113MOL0     N15171  -0.245   1.381   6.461  0.4239 -0.5052 -0.1286
  113MOL0     N15172  -0.196   1.476   6.531 -0.4110 -0.1010 -1.0283
  113MOL0     C15173   0.348   1.838   5.782  0.6612  0.2425  0.3093
  113MOL0     C15174   0.453   1.866   5.684  0.5464  0.6498 -0.0418
  113MOL0     C15175   0.783   1.809   5.407 -0.5795 -0.1145 -0.1719
  113MOL0     C15176   0.911   1.764   5.446 -0.3292  1.0389  0.0118
  113MOL0     C15177   1.021   1.776   5.365 -1.3570 -1.1112  0.5377
  113MOL0     C15178   1.013   1.847   5.241 -0.6513  0.2960 -0.1753
  113MOL0     O15179   1.107   1.862   5.143  0.2513  0.0592  0.2264
  113MOL0     C15180   1.239   1.807   5.161 -0.1249  0.2772  0.0791
  113MOL0     C15181   1.332   1.876   5.049  0.3819 -0.0133 -0.5802
  113MOL0     C15182   1.467   1.808   5.052  0.2962  0.1303  1.2159
  113MOL0     C15183   1.522   1.846   4.914  0.4484  0.6132 -0.3713
  113MOL0     C15184   1.666   1.847   4.901 -0.4106  0.3160  0.4848
  113MOL0     C15185   1.789   1.830   4.881  0.6253  0.9985 -0.5494
  113MOL0     C15186   0.890   1.911   5.218 -0.2634  0.2173 -0.0313
  113MOL0     C15187   0.778   1.881   5.296  0.3853  0.2768  0.0965
  113MOL0     H15188   0.372   1.652   5.440  0.2031 -0.8602  1.5767
  113MOL0     H15189   0.173   1.617   5.597 -1.0257  2.4383  0.7667
  113MOL0     H15190   0.223   1.740   6.019  0.9574  0.5370 -1.0287
  113MOL0     H15191   0.127   1.871   5.934 -0.0165  0.5077  0.0108
  113MOL0     H15192  -0.090   1.747   5.976 -0.4139 -0.3475  0.8444
  113MOL0     H15193  -0.001   1.605   6.040  0.1496 -0.7323 -0.6611
  113MOL0     H15194   0.115   1.757   6.210 -0.3307 -0.7829  0.0439
  113MOL0     H15195  -0.001   1.884   6.168 -1.0230  0.5449  0.7445
  113MOL0     H15196  -0.186   1.733   6.221 -0.8149  2.1583  1.8617
  113MOL0     H15197  -0.060   1.609   6.262 -0.0288 -0.7947  1.5485
  113MOL0     H15198  -0.129   1.867   6.420 -1.5987 -0.3850 -2.8296
  113MOL0     H15199  -0.162   1.702   6.464 -0.3889 -1.1312 -2.4940
  113MOL0     H15200   0.103   1.844   6.421 -0.4502  0.2621  0.7802
  113MOL0     H15201   0.048   1.813   6.580  1.6355 -0.0150 -0.1153
  113MOL0     H15202   0.147   1.579   6.397  0.5830 -1.5608  1.0715
  113MOL0     H15203   0.224   1.652   6.534  0.1004 -1.3227 -0.3263
  113MOL0     H15204  -0.010   1.600   6.655 -0.6709 -2.0183  0.8892
  113MOL0     H15205   0.114   1.473   6.624 -1.8556 -0.7802  2.1760
  113MOL0     H15206   0.072   1.328   6.394 -0.5412 -1.5683  0.6931
  113MOL0     H15207  -0.091   1.113   6.336  0.7313 -0.0012 -2.2909
  113MOL0     H15208  -0.261   1.137   6.357  0.5762 -0.0475 -0.5219
  113MOL0     H15209  -0.082   1.226   6.119  0.2678 -0.3973 -2.2379
  113MOL0     H15210  -0.260   1.288   6.150 -1.4197 -2.1759  2.4820
  113MOL0     H15211  -0.322   1.065   6.140 -0.2219  2.1911  3.0742
  113MOL0     H15212  -0.164   1.006   6.097 -0.3842  0.7084  0.8654
  113MOL0     H15213  -0.189   1.153   5.890 -0.9075 -1.0658 -3.4759
  113MOL0     H15214  -0.354   1.202   5.938  0.0167 -0.4843  0.9583
  113MOL0     H15215  -0.487   0.811   5.857  0.3867  0.5611  0.1067
  113MOL0     H15216  -0.792   0.746   5.693 -0.0502 -0.1492  0.6567
  113MOL0     H15217  -0.646   0.665   5.632 -3.7846 -0.5865 -1.4313
  113MOL0     H15218  -0.675   0.706   5.810  0.2088 -0.0167 -0.2252
  113MOL0     H15219  -1.043   0.864   5.636 -0.6742  0.2140  0.3000
  113MOL0     H15220  -1.269   0.823   5.544 -1.7595  2.3087 -1.3924
  113MOL0     H15221  -1.443   0.763   5.430 -1.7804  0.6825  1.8741
  113MOL0     H15222  -1.430   0.941   5.406  1.0909  0.0302 -0.4752
  113MOL0     H15223  -1.578   0.902   5.193  1.5813 -2.0345 -1.1242
  113MOL0     H15224  -1.575   0.732   5.250 -0.4634 -0.3774  1.7997
  113MOL0     H15225  -1.712   0.968   5.398  0.3612 -0.1320 -1.1394
  113MOL0     H15226  -1.682   0.804   5.448  0.3376  0.0581  0.6771
  113MOL0     H15227  -1.809   0.802   5.197  0.5979 -2.9358  1.0234
  113MOL0     H15228  -1.853   0.707   5.327 -1.0027  0.0602  0.7438
  113MOL0     H15229  -2.030   0.883   5.249 -0.5904 -3.1313  1.5373
  113MOL0     H15230  -1.920   1.004   5.319 -2.9710  1.1647 -3.5184
  113MOL0     H15231  -2.087   0.778   5.443 -0.0931 -1.9007  1.6950
  113MOL0     H15232  -1.944   0.838   5.530  1.3017  0.7825 -1.7347
  113MOL0     H15233  -2.047   1.065   5.555 -0.7414 -0.0505  0.1198
  113MOL0     H15234  -2.172   0.962   5.599 -2.3774  3.8610 -0.8284
  113MOL0     H15235  -2.269   0.949   5.375  0.5082 -1.3911  1.1620
  113MOL0     H15236  -2.151   1.070   5.313 -0.6242  0.7135  0.1278
  113MOL0     H15237  -1.116   0.882   5.144 -1.1359  0.7708 -0.7270
  113MOL0     H15238  -0.881   0.890   5.239 -0.4290 -0.5674 -1.8060
  113MOL0     H15239  -0.549   1.180   5.544 -0.7606  1.1085  0.6226
  113MOL0     H15240  -0.366   1.176   5.693  0.5219 -1.1067 -2.3520
  113MOL0     H15241   0.344   1.890   5.877  0.3928 -0.8979  0.9405
  113MOL0     H15242   0.534   1.932   5.714  1.4828 -1.5728  2.6980
  113MOL0     H15243   0.924   1.706   5.537  0.6408 -0.6099 -1.1247
  113MOL0     H15244   1.117   1.735   5.393  0.7217  2.6681 -0.4629
  113MOL0     H15245   1.264   1.843   5.262 -0.2018 -0.1761  0.2624
  113MOL0     H15246   1.246   1.699   5.148 -1.0843  0.1772  0.3602
  113MOL0     H15247   1.351   1.980   5.075 -0.6591 -0.2916  1.5937
  113MOL0     H15248   1.281   1.859   4.954 -0.4269 -2.3669  0.2019
  113MOL0     H15249   1.453   1.700   5.046 -1.2025  0.2315  2.3469
  113MOL0     H15250   1.538   1.831   5.131  2.0674  1.6799 -0.7117
  113MOL0     H15251   1.488   1.948   4.890 -0.4499  0.5853  0.6965
  113MOL0     H15252   1.492   1.776   4.836  2.6885  0.5993 -1.3029
  113MOL0     H15253   1.894   1.826   4.863  0.9580  1.2613  1.2249
  113MOL0     H15254   0.891   1.985   5.138  4.7911  0.8961  0.3198
  113MOL0     H15255   0.690   1.929   5.256 -2.0683 -2.8265  1.3349
  114MOL0     O15256  10.695   7.368   3.883 -0.6932 -0.1771 -0.3348
  114MOL0     C15257  10.694   7.371   3.762 -0.2102 -0.4851 -0.6407
  114MOL0     O15258  10.586   7.379   3.675  0.8565 -0.1038  0.0063
  114MOL0     C15259  10.457   7.377   3.733  0.1440 -0.3422  0.3909
  114MOL0     C15260  10.367   7.486   3.713 -0.4370 -0.3005 -0.3634
  114MOL0     C15261  10.232   7.465   3.755  0.1019 -0.6169 -0.1689
  114MOL0     C15262  10.183   7.344   3.822 -0.3442 -0.3122  0.6731
  114MOL0     O15263  10.055   7.334   3.856  0.3734 -0.6557  0.1557
  114MOL0     C15264  10.024   7.254   3.965 -0.3192  1.4971 -0.7778
  114MOL0     C15265   9.884   7.276   4.029 -0.2791 -0.6453  0.9384
  114MOL0     C15266   9.768   7.248   3.936 -0.6352  0.0020  0.3567
  114MOL0     C15267   9.642   7.250   4.023  0.7685  0.1600 -0.2305
  114MOL0     C15268   9.521   7.230   3.935  0.3263 -1.1476 -0.0489
  114MOL0     C15269   9.392   7.256   4.012  0.6397 -0.0662  0.2278
  114MOL0     C15270   9.275   7.245   3.909  0.1592  0.3763 -0.7287
  114MOL0     C15271   9.143   7.265   3.999 -0.2798  0.0792  0.1785
  114MOL0     N15272   9.030   7.304   3.916  0.4778 -0.0374  0.2411
  114MOL0     C15273   8.976   7.227   3.810 -0.2659  0.5054  0.1136
  114MOL0     C15274   8.876   7.304   3.763  0.0597  0.1614 -0.0936
  114MOL0     C15275   8.753   7.279   3.665 -0.6378  0.2076  0.2411
  114MOL0     C15276   8.730   7.393   3.557  0.4000  0.2656 -0.0602
  114MOL0     C15277   8.630   7.363   3.441  0.0426  0.5212 -0.6309
  114MOL0     C15278   8.509   7.276   3.489  0.0738 -0.6602 -0.7797
  114MOL0     O15279   8.418   7.271   3.378  0.3140  0.8450 -0.1142
  114MOL0     C15280   8.284   7.297   3.401  0.3961 -0.4901  0.1649
  114MOL0     C15281   8.202   7.322   3.291 -0.0074  0.3661 -0.5761
  114MOL0     C15282   8.068   7.359   3.301 -0.0181 -0.5834 -0.6775
  114MOL0     C15283   7.983   7.408   3.182 -0.3173  0.6544 -0.1292
  114MOL0     C15284   8.009   7.350   3.430 -0.3608 -0.4226  0.8665
  114MOL0     C15285   7.862   7.393   3.465 -0.9296 -0.1714  0.5570
  114MOL0     O15286   7.802   7.333   3.569 -0.3757 -0.0916 -0.3698
  114MOL0     C15287   7.672   7.361   3.611  0.2216  0.5348 -0.4402
  114MOL0     C15288   7.564   7.275   3.566 -0.3612 -0.8923 -0.0531
  114MOL0     C15289   7.440   7.286   3.626  0.1439  0.8228 -0.0184
  114MOL0     C15290   7.409   7.371   3.728  0.5623  0.4187  0.5412
  114MOL0     O15291   7.289   7.375   3.796 -0.1327 -0.4755  0.3370
  114MOL0     C15292   7.171   7.313   3.750  0.1285 -0.0579  0.3765
  114MOL0     C15293   7.067   7.355   3.848 -0.0224  0.0201  0.2232
  114MOL0     C15294   6.929   7.285   3.810 -0.6916  0.1047  1.0503
  114MOL0     C15295   6.835   7.332   3.914  0.2685 -0.2131 -0.1946
  114MOL0     C15296   6.811   7.224   4.030 -0.4096 -0.6881  0.5956
  114MOL0     C15297   6.689   7.250   4.100 -0.6052  0.8975 -0.6174
  114MOL0     C15298   6.661   7.151   4.215 -0.0662 -0.3298  0.2305
  114MOL0     C15299   6.540   7.184   4.299  0.1474 -0.2395 -0.1931
  114MOL0    Cl15300   6.392   7.172   4.193 -0.3521 -0.0937  0.0742
  114MOL0     C15301   7.510   7.460   3.770 -0.8230  0.6180 -0.3547
  114MOL0     C15302   7.637   7.456   3.709 -0.5978 -0.0687 -0.7208
  114MOL0     O15303   7.800   7.472   3.398 -0.5945  0.0386  0.1313
  114MOL0     C15304   8.081   7.303   3.532 -0.3439 -0.0621  0.1986
  114MOL0     C15305   8.218   7.278   3.514  0.7774  0.3887  0.5839
  114MOL0     N15306   8.874   7.425   3.835 -1.0072  1.1546 -0.0429
  114MOL0     N15307   8.978   7.429   3.911  0.8642  0.3267 -0.3896
  114MOL0     C15308  10.279   7.249   3.842 -0.2902 -0.3420 -0.8121
  114MOL0     C15309  10.412   7.265   3.808 -0.8892 -0.5183  0.2153
  114MOL0     C15310  10.828   7.349   3.694 -0.0132  0.3812 -0.4211
  114MOL0     C15311  10.935   7.281   3.761  0.1597  1.9286  0.5182
  114MOL0     C15312  11.054   7.249   3.693 -0.4201 -0.0870  0.5467
  114MOL0     C15313  11.077   7.281   3.554 -0.0282  0.0839  0.1298
  114MOL0     O15314  11.183   7.266   3.479 -0.2297  0.1072 -0.5622
  114MOL0     C15315  11.288   7.194   3.542 -0.7623 -0.8539 -0.2322
  114MOL0     C15316  11.273   7.050   3.503 -0.8454  1.0106 -0.4780
  114MOL0     C15317  11.380   6.957   3.576  0.1417  0.2213  0.1154
  114MOL0     C15318  11.528   7.001   3.572  0.0298 -0.4733  0.5071
  114MOL0     C15319  11.615   6.919   3.657 -0.2765  0.5440 -1.3691
  114MOL0     C15320  11.679   6.864   3.743  1.3780  0.4226  0.4750
  114MOL0     C15321  10.966   7.348   3.497 -1.0546 -0.1347  0.1707
  114MOL0     C15322  10.854   7.384   3.566  0.8480 -0.5623  0.9029
  114MOL0     H15323  10.388   7.574   3.654 -2.7535  1.1374  0.8073
  114MOL0     H15324  10.159   7.544   3.741  3.5019  2.4469 -2.3885
  114MOL0     H15325  10.031   7.148   3.939 -1.3772  1.0420  0.6944
  114MOL0     H15326  10.098   7.270   4.044 -0.4633 -2.2908  0.3007
  114MOL0     H15327   9.878   7.201   4.108  2.5900 -0.1683  1.7113
  114MOL0     H15328   9.869   7.380   4.060 -1.2667 -0.6729  0.6012
  114MOL0     H15329   9.757   7.327   3.861  0.1428 -1.5245 -1.4737
  114MOL0     H15330   9.783   7.156   3.877  1.3019  0.4006  0.1676
  114MOL0     H15331   9.647   7.168   4.095  1.1991 -0.1672 -0.6209
  114MOL0     H15332   9.630   7.343   4.080 -1.4422  0.3458 -0.9256
  114MOL0     H15333   9.527   7.309   3.860 -1.4044  0.3027  1.2407
  114MOL0     H15334   9.526   7.135   3.882 -0.3306 -0.5351 -1.2529
  114MOL0     H15335   9.379   7.178   4.087 -0.7445 -1.5714 -1.4986
  114MOL0     H15336   9.395   7.359   4.048  1.8435 -0.3745  1.0884
  114MOL0     H15337   9.278   7.326   3.836  0.3669  0.9688 -0.0865
  114MOL0     H15338   9.265   7.147   3.862  0.1141 -1.1002  2.0882
  114MOL0     H15339   9.160   7.347   4.069 -3.3475  1.0504 -0.0745
  114MOL0     H15340   9.124   7.172   4.054  1.5819  0.5272  1.7080
  114MOL0     H15341   9.015   7.132   3.772 -2.7477  0.9910 -4.2106
  114MOL0     H15342   8.766   7.187   3.607 -1.3628  0.3521 -0.1617
  114MOL0     H15343   8.666   7.278   3.731  1.0390 -1.9935  2.6150
  114MOL0     H15344   8.831   7.410   3.519  0.8594  2.8584  2.0187
  114MOL0     H15345   8.693   7.484   3.606  0.7965 -0.6880  2.1513
  114MOL0     H15346   8.690   7.312   3.366  0.9763  0.9504 -0.1998
  114MOL0     H15347   8.606   7.462   3.399  1.2753  0.5167 -1.4006
  114MOL0     H15348   8.471   7.322   3.581  3.1934 -0.2359  0.4309
  114MOL0     H15349   8.531   7.175   3.524 -0.5895 -0.2499  0.9109
  114MOL0     H15350   8.256   7.323   3.196  1.5364 -1.0244  0.2374
  114MOL0     H15351   8.031   7.406   3.084  0.9801  2.8967  0.3706
  114MOL0     H15352   7.894   7.346   3.177  0.0461  0.1621 -0.5500
  114MOL0     H15353   7.948   7.511   3.196  0.8211  0.8942  1.2748
  114MOL0     H15354   7.575   7.207   3.482  2.7878 -1.2443  0.5240
  114MOL0     H15355   7.365   7.221   3.581  1.8627  0.5333 -2.6258
  114MOL0     H15356   7.132   7.349   3.655 -0.6275  0.0505  0.7257
  114MOL0     H15357   7.177   7.204   3.749 -0.5843 -0.1200 -1.9595
  114MOL0     H15358   7.104   7.309   3.941 -1.6415 -3.7644 -0.8222
  114MOL0     H15359   7.054   7.464   3.846 -2.6888 -0.2452 -1.1049
  114MOL0     H15360   6.931   7.177   3.823 -0.8585 -0.0039  0.2383
  114MOL0     H15361   6.904   7.319   3.709 -0.0711 -1.9561  0.1585
  114MOL0     H15362   6.860   7.431   3.954  0.3059  0.1672 -1.1355
  114MOL0     H15363   6.733   7.333   3.873 -0.3236 -0.9699  1.2113
  114MOL0     H15364   6.893   7.223   4.102  0.2166  1.4981  0.0014
  114MOL0     H15365   6.810   7.127   3.981 -1.4907 -0.5663  0.3551
  114MOL0     H15366   6.690   7.349   4.146  0.8534 -0.9556  3.9108
  114MOL0     H15367   6.620   7.251   4.015  1.6793 -0.9609 -2.6564
  114MOL0     H15368   6.751   7.168   4.275  0.1745 -4.3668  1.3114
  114MOL0     H15369   6.650   7.050   4.175 -2.6321 -0.5131  1.1850
  114MOL0     H15370   6.548   7.286   4.336  1.4199 -0.7222  0.9283
  114MOL0     H15371   6.520   7.118   4.384 -1.6513 -2.5704 -2.2824
  114MOL0     H15372   7.482   7.525   3.852 -1.1272 -0.7348  0.6523
  114MOL0     H15373   7.715   7.526   3.736  0.5364  0.8406 -5.4128
  114MOL0     H15374   8.043   7.294   3.633  0.0166 -0.7429  0.2776
  114MOL0     H15375   8.273   7.253   3.604  1.4204 -1.2949 -0.2210
  114MOL0     H15376  10.255   7.159   3.897  0.6049  0.2486  0.5894
  114MOL0     H15377  10.483   7.183   3.812  0.2241  0.3946 -0.4056
  114MOL0     H15378  10.930   7.253   3.865  4.1736 -0.0332  0.3393
  114MOL0     H15379  11.118   7.191   3.759 -0.2910 -0.7035 -0.1045
  114MOL0     H15380  11.382   7.232   3.503  0.6052 -2.8823  0.8882
  114MOL0     H15381  11.299   7.207   3.650 -0.8756  0.1346 -0.3338
  114MOL0     H15382  11.287   7.035   3.396 -1.2527  1.5274 -0.6088
  114MOL0     H15383  11.170   7.023   3.527 -0.5793  0.0736 -0.3775
  114MOL0     H15384  11.377   6.859   3.528  0.5344  1.0194 -1.6103
  114MOL0     H15385  11.357   6.936   3.681 -1.0900 -1.7999 -0.4886
  114MOL0     H15386  11.538   7.099   3.619  2.1919 -0.4227  0.0205
  114MOL0     H15387  11.574   7.009   3.473  4.3030 -1.0530  2.2160
  114MOL0     H15388  11.745   6.800   3.796 -1.0054 -2.6102  0.0644
  114MOL0     H15389  10.970   7.379   3.393  0.0918 -0.8817 -0.0240
  114MOL0     H15390  10.775   7.433   3.510  1.2519  1.8603  2.2794
  115MOL0     O15391   9.806   6.295   4.258 -0.2477  0.4400 -0.3750
  115MOL0     C15392   9.890   6.207   4.273  0.1814  0.5278  0.0651
  115MOL0     O15393   9.991   6.211   4.365 -0.2574 -0.2361  0.2042
  115MOL0     C15394   9.994   6.333   4.431  0.0429  0.1085  0.5018
  115MOL0     C15395   9.918   6.369   4.543 -0.7354 -0.0220 -0.7552
  115MOL0     C15396   9.912   6.502   4.591 -0.9915 -0.6771  0.9028
  115MOL0     C15397   9.996   6.599   4.525 -0.4664  0.1767  0.4317
  115MOL0     O15398  10.019   6.721   4.580  0.7891 -0.7087  0.0344
  115MOL0     C15399   9.914   6.816   4.603 -0.3624  0.0034  0.8599
  115MOL0     C15400   9.896   6.823   4.754 -0.1740 -0.2537  0.0021
  115MOL0     C15401   9.757   6.802   4.807 -0.5126  0.3406 -0.4684
  115MOL0     C15402   9.663   6.914   4.747 -0.0656 -0.1125  0.5592
  115MOL0     C15403   9.514   6.884   4.794  0.0094  0.1921 -0.8691
  115MOL0     C15404   9.415   7.000   4.792 -0.0645 -0.2097 -0.5651
  115MOL0     C15405   9.286   6.980   4.875 -0.6095  0.3686 -0.4064
  115MOL0     C15406   9.185   6.877   4.829  0.8660  1.1854 -0.0863
  115MOL0     N15407   9.098   6.929   4.719 -0.1240  0.9185 -0.3338
  115MOL0     C15408   9.124   6.907   4.586 -0.1567 -0.8932 -0.1488
  115MOL0     C15409   9.008   6.945   4.527 -0.3177  0.0444 -0.5805
  115MOL0     C15410   8.977   6.923   4.390  0.6445  0.0667  0.6932
  115MOL0     C15411   8.838   6.856   4.381  1.3899 -0.7032  0.5934
  115MOL0     C15412   8.809   6.809   4.234  0.2175  0.7345  0.4322
  115MOL0     C15413   8.671   6.748   4.212  1.1658 -0.2704  0.2569
  115MOL0     O15414   8.558   6.829   4.263  0.1287  0.3082  0.5761
  115MOL0     C15415   8.502   6.907   4.165  0.5193  0.2475 -0.1028
  115MOL0     C15416   8.363   6.898   4.156  0.8798 -0.0982 -0.7571
  115MOL0     C15417   8.289   6.977   4.075  0.0492  0.2102  0.6597
  115MOL0     C15418   8.143   6.935   4.064 -0.3592 -0.1115  0.3906
  115MOL0     C15419   8.348   7.095   4.015 -0.3807 -1.2755  0.8938
  115MOL0     C15420   8.268   7.199   3.951 -0.1507 -0.5411  0.1972
  115MOL0     O15421   8.137   7.198   3.962 -0.2452 -0.1467  0.4414
  115MOL0     C15422   8.073   7.306   4.020  0.5750 -0.6741  0.2134
  115MOL0     C15423   7.929   7.300   4.010  0.2216 -0.6449 -0.6439
  115MOL0     C15424   7.850   7.419   4.026  0.4923 -0.0916 -0.4042
  115MOL0     C15425   7.899   7.534   4.080 -0.1977  1.1532  0.2689
  115MOL0     O15426   7.812   7.629   4.110 -0.1655  0.2469 -0.8663
  115MOL0     C15427   7.860   7.760   4.150  0.3776  0.1601  0.2205
  115MOL0     C15428   7.929   7.838   4.039  0.3426  0.6931  0.8869
  115MOL0     C15429   7.838   7.883   3.930  0.8942 -0.6677 -0.0011
  115MOL0     C15430   7.801   7.772   3.833  0.1468  0.4102 -1.1067
  115MOL0     C15431   7.740   7.820   3.713 -0.5363 -0.3084  0.5479
  115MOL0     C15432   7.846   7.841   3.607 -0.5149 -0.1454 -0.5246
  115MOL0     C15433   7.785   7.916   3.485 -0.6815  0.2616  0.1508
  115MOL0     C15434   7.764   7.822   3.364  0.1296  0.3482 -0.2427
  115MOL0    Cl15435   7.708   7.943   3.241 -0.4770  0.3523  0.3667
  115MOL0     C15436   8.036   7.532   4.114  0.0754 -0.1940  0.3383
  115MOL0     C15437   8.125   7.426   4.076  1.5545 -0.1401  0.7390
  115MOL0     O15438   8.332   7.273   3.876  0.4322 -0.1350 -0.3835
  115MOL0     C15439   8.484   7.115   4.043 -0.1541 -0.2837 -0.3664
  115MOL0     C15440   8.566   7.013   4.103 -0.4847 -0.1802  0.5172
  115MOL0     N15441   8.918   6.997   4.625 -0.2661 -0.6801 -0.0245
  115MOL0     N15442   8.975   6.984   4.738  0.4701  0.3159 -0.4551
  115MOL0     C15443  10.075   6.557   4.413  0.5208  0.0003  0.3551
  115MOL0     C15444  10.081   6.424   4.366  0.4453  1.0859 -0.1036
  115MOL0     C15445   9.855   6.080   4.211  0.5662  0.0454  0.3164
  115MOL0     C15446   9.733   6.054   4.134  0.8669 -0.3112  0.3160
  115MOL0     C15447   9.706   5.921   4.080 -0.0291 -0.2645 -0.4906
  115MOL0     C15448   9.801   5.825   4.104  1.2613 -0.2951 -0.2290
  115MOL0     O15449   9.789   5.704   4.033  0.2861  0.2374  0.0151
  115MOL0     C15450   9.856   5.592   4.094 -0.2993  0.5322 -0.6065
  115MOL0     C15451   9.777   5.458   4.068  0.1317 -0.1145  0.0032
  115MOL0     C15452   9.852   5.329   4.129  0.4972 -0.2820  0.0838
  115MOL0     C15453   9.813   5.314   4.282 -0.1867 -0.1180  0.8317
  115MOL0     C15454   9.668   5.294   4.301  0.6447 -0.3075  0.1293
  115MOL0     C15455   9.551   5.280   4.337 -1.0655  0.5188 -0.8502
  115MOL0     C15456   9.923   5.848   4.175 -0.6912 -0.0788  0.6027
  115MOL0     C15457   9.946   5.972   4.227  0.1525 -1.0935 -0.3713
  115MOL0     H15458   9.864   6.288   4.590 -0.2953  0.8377  1.3499
  115MOL0     H15459   9.856   6.533   4.679  0.1768 -0.3418  1.5527
  115MOL0     H15460   9.946   6.917   4.575 -0.8076 -0.1732 -0.3597
  115MOL0     H15461   9.821   6.791   4.551 -0.3744 -0.6080  1.1642
  115MOL0     H15462   9.958   6.755   4.814 -1.1084 -0.0148  1.2938
  115MOL0     H15463   9.941   6.920   4.779  4.0299 -1.8678 -0.4415
  115MOL0     H15464   9.730   6.697   4.794  0.4255  0.1572 -1.0231
  115MOL0     H15465   9.765   6.820   4.914 -1.8500  1.5540 -0.5316
  115MOL0     H15466   9.679   7.020   4.772 -2.8841  1.8050 -4.3821
  115MOL0     H15467   9.664   6.907   4.638  1.7566 -1.7000  0.6241
  115MOL0     H15468   9.475   6.797   4.740 -2.1261 -0.4646  1.5490
  115MOL0     H15469   9.512   6.865   4.901 -0.9836  1.4508 -0.6372
  115MOL0     H15470   9.470   7.091   4.820  0.4332 -0.7492  0.2460
  115MOL0     H15471   9.387   7.006   4.686  2.4056 -0.8747 -1.3297
  115MOL0     H15472   9.315   6.960   4.978 -1.3896 -1.6680 -0.5348
  115MOL0     H15473   9.226   7.072   4.868 -0.8441  0.0960 -2.6315
  115MOL0     H15474   9.115   6.847   4.908 -0.1948 -0.6086 -1.6228
  115MOL0     H15475   9.230   6.787   4.784  2.7130  0.5706  2.7328
  115MOL0     H15476   9.210   6.851   4.550 -1.4375 -2.9700 -0.1369
  115MOL0     H15477   8.965   7.025   4.351  0.0625 -0.1433  0.3107
  115MOL0     H15478   9.048   6.867   4.329  0.8926  2.1186 -1.0539
  115MOL0     H15479   8.760   6.931   4.399  0.1285 -1.7213 -0.3485
  115MOL0     H15480   8.833   6.771   4.450  0.2876 -1.0373  0.1247
  115MOL0     H15481   8.881   6.731   4.208 -1.2408 -0.8085  0.8166
  115MOL0     H15482   8.824   6.894   4.167  3.2397 -1.1133 -1.4849
  115MOL0     H15483   8.667   6.646   4.252  0.6701  0.0101  0.9496
  115MOL0     H15484   8.661   6.730   4.105 -1.4866  1.0333  0.2075
  115MOL0     H15485   8.313   6.817   4.209  1.8488  0.2728  0.8066
  115MOL0     H15486   8.136   6.826   4.078 -2.6686 -0.3457 -1.9409
  115MOL0     H15487   8.109   6.975   4.160  1.2778 -1.0333  1.4020
  115MOL0     H15488   8.082   6.960   3.978 -0.6892  1.0564  0.9486
  115MOL0     H15489   7.870   7.219   3.968  0.9826 -0.4215 -2.2180
  115MOL0     H15490   7.745   7.414   4.000 -0.1555  1.5829  1.6929
  115MOL0     H15491   7.773   7.818   4.181  1.1887  1.5300  0.0249
  115MOL0     H15492   7.929   7.742   4.233  1.8185  0.3595 -0.8855
  115MOL0     H15493   7.969   7.932   4.076  0.0828  0.7769  0.9506
  115MOL0     H15494   8.017   7.780   4.006  0.9032  0.4240  2.7553
  115MOL0     H15495   7.894   7.954   3.869 -2.0154  0.1691 -1.9383
  115MOL0     H15496   7.749   7.929   3.974  2.1319 -0.1007  2.0039
  115MOL0     H15497   7.890   7.709   3.818 -0.4342 -0.7150 -0.0433
  115MOL0     H15498   7.726   7.710   3.882 -0.9147  1.2648 -1.6222
  115MOL0     H15499   7.700   7.921   3.727  2.8705  0.9136  3.0482
  115MOL0     H15500   7.673   7.749   3.664  0.8987 -0.2810 -1.5935
  115MOL0     H15501   7.920   7.911   3.647 -1.1051  0.2841 -0.1569
  115MOL0     H15502   7.894   7.747   3.579 -1.1087 -1.4665  2.5225
  115MOL0     H15503   7.858   7.993   3.457  1.8278 -1.7128  0.8449
  115MOL0     H15504   7.695   7.970   3.515 -1.2388  0.7951 -2.2392
  115MOL0     H15505   7.691   7.743   3.387  3.0121 -2.5923 -0.4549
  115MOL0     H15506   7.858   7.778   3.329 -0.3720 -1.2301  0.2882
  115MOL0     H15507   8.088   7.619   4.155  2.7107 -1.2317 -0.5613
  115MOL0     H15508   8.232   7.438   4.087  1.9108 -2.1956 -0.0023
  115MOL0     H15509   8.530   7.205   4.004 -1.8812  0.5047 -0.6744
  115MOL0     H15510   8.672   7.035   4.108  0.0524 -2.7207  1.5509
  115MOL0     H15511  10.144   6.630   4.370  1.1021 -0.5193  0.4068
  115MOL0     H15512  10.138   6.387   4.282 -1.2028 -0.3759 -0.6310
  115MOL0     H15513   9.665   6.134   4.109 -0.0061 -0.2920  2.5167
  115MOL0     H15514   9.620   5.887   4.024  0.9013 -4.3461  0.2480
  115MOL0     H15515   9.961   5.581   4.067 -0.2171 -0.2817  0.0036
  115MOL0     H15516   9.857   5.600   4.203 -1.5993 -1.3572 -0.4051
  115MOL0     H15517   9.772   5.450   3.959  1.6999  0.8620 -0.1601
  115MOL0     H15518   9.675   5.468   4.106  0.8184  0.7230  1.6800
  115MOL0     H15519   9.960   5.339   4.115  0.7285 -1.6133  0.7600
  115MOL0     H15520   9.813   5.240   4.078 -0.5290  1.0759 -1.5783
  115MOL0     H15521   9.846   5.403   4.336  0.9000 -0.5119  0.8377
  115MOL0     H15522   9.861   5.221   4.316  3.2658  0.2928 -2.3316
  115MOL0     H15523   9.452   5.276   4.378 -2.3488  0.1886 -3.7142
  115MOL0     H15524  10.003   5.775   4.176 -2.2634 -1.9576 -1.3233
  115MOL0     H15525  10.037   6.000   4.280 -1.3458  3.6892  0.1915
  116MOL0     O15526   1.055   6.995   1.025 -0.9902 -0.3081 -0.4316
  116MOL0     C15527   1.102   7.027   0.916  0.8020 -0.4093 -0.9211
  116MOL0     O15528   1.035   7.024   0.803  0.5312 -0.7699  0.1435
  116MOL0     C15529   0.901   7.054   0.803  0.8301  0.5322 -0.5462
  116MOL0     C15530   0.835   7.158   0.879  0.2213 -0.2267  0.2554
  116MOL0     C15531   0.697   7.190   0.851 -0.5198  0.1867 -0.8734
  116MOL0     C15532   0.619   7.117   0.767  0.7975  0.1036  0.2534
  116MOL0     O15533   0.490   7.140   0.734  0.0157 -0.2825 -0.2198
  116MOL0     C15534   0.436   7.274   0.757  0.4471 -0.4720  0.2024
  116MOL0     C15535   0.463   7.362   0.631 -1.1094  0.0821  0.5084
  116MOL0     C15536   0.394   7.502   0.653 -0.3375  1.4575 -0.1883
  116MOL0     C15537   0.260   7.494   0.586  0.5630 -0.0210  0.3063
  116MOL0     C15538   0.179   7.630   0.602  0.0792 -0.1427  0.0037
  116MOL0     C15539   0.255   7.758   0.570  0.1024 -0.2092  0.2923
  116MOL0     C15540   0.157   7.864   0.597 -0.2358 -0.9970 -0.1572
  116MOL0     C15541   0.222   8.005   0.574  0.1110  0.9780  0.0831
  116MOL0     N15542   0.115   8.109   0.583 -0.0196 -0.5867 -0.1871
  116MOL0     C15543   0.015   8.118   0.680 -0.1064  0.6557  0.8500
  116MOL0     C15544  -0.048   8.236   0.639  0.3118 -0.0828  0.3832
  116MOL0     C15545  -0.158   8.305   0.708 -1.6103 -0.6916 -0.7015
  116MOL0     C15546  -0.079   8.394   0.804  0.0006 -0.4770 -0.2203
  116MOL0     C15547  -0.172   8.438   0.917  0.4428 -0.1043 -0.0345
  116MOL0     C15548  -0.103   8.493   1.040  0.1422 -0.9474  0.1306
  116MOL0     O15549  -0.201   8.582   1.102 -0.2812 -0.2898 -0.9714
  116MOL0     C15550  -0.305   8.535   1.174  0.4212  0.2332 -0.0203
  116MOL0     C15551  -0.330   8.400   1.196  0.4237  0.1120  0.6002
  116MOL0     C15552  -0.434   8.357   1.280  0.6823  0.0964 -0.6725
  116MOL0     C15553  -0.451   8.203   1.289  0.0545 -0.5123 -0.3980
  116MOL0     C15554  -0.529   8.450   1.341  0.2877  0.6140  0.3027
  116MOL0     C15555  -0.653   8.415   1.418  0.4662  0.3043  0.0048
  116MOL0     O15556  -0.726   8.515   1.458 -0.4546 -0.8707 -0.4900
  116MOL0     C15557  -0.832   8.488   1.528  0.5735  0.9348 -1.1179
  116MOL0     C15558  -0.829   8.521   1.667  0.2152 -0.3179  0.2576
  116MOL0     C15559  -0.937   8.491   1.741  0.4857  0.2279 -0.6532
  116MOL0     C15560  -1.052   8.423   1.692 -0.9461 -0.6649 -0.1684
  116MOL0     O15561  -1.151   8.399   1.784 -0.5199  0.5422 -0.1191
  116MOL0     C15562  -1.251   8.297   1.744 -0.1435  0.0774  0.2709
  116MOL0     C15563  -1.349   8.271   1.851 -0.3402  0.5562  0.7068
  116MOL0     C15564  -1.276   8.224   1.978 -0.2329 -0.0492 -0.4145
  116MOL0     C15565  -1.371   8.164   2.076 -0.2233  0.2127  0.0433
  116MOL0     C15566  -1.323   8.068   2.175  0.4611 -0.5580 -0.0279
  116MOL0     C15567  -1.436   8.017   2.262  0.0736  0.3054  0.5384
  116MOL0     C15568  -1.396   7.924   2.379  0.1910  0.0476 -0.2530
  116MOL0     C15569  -1.339   7.991   2.506 -0.2636 -0.2310 -0.1520
  116MOL0    Cl15570  -1.438   8.124   2.551  0.0808 -0.0188  0.0895
  116MOL0     C15571  -1.054   8.387   1.557 -0.0431  0.8750  0.0043
  116MOL0     C15572  -0.948   8.427   1.473 -0.1662  0.5078  0.1723
  116MOL0     O15573  -0.672   8.298   1.442  0.6447  0.2671  0.2865
  116MOL0     C15574  -0.497   8.591   1.333  0.8815  0.4706  0.0336
  116MOL0     C15575  -0.389   8.624   1.243 -0.1042 -0.2616  0.3223
  116MOL0     N15576  -0.006   8.264   0.513 -0.6334 -0.2253 -1.1097
  116MOL0     N15577   0.080   8.181   0.476  0.7337 -0.5226 -0.2500
  116MOL0     C15578   0.684   7.014   0.700 -0.8332  0.4667  0.3485
  116MOL0     C15579   0.819   6.987   0.711  0.5296 -0.7150  0.3654
  116MOL0     C15580   1.239   7.076   0.902  0.4657 -1.1663  0.0892
  116MOL0     C15581   1.275   7.145   0.787  0.4113 -0.1098  0.4561
  116MOL0     C15582   1.405   7.193   0.772  0.6538 -0.1258 -0.2117
  116MOL0     C15583   1.503   7.155   0.860  0.1552  0.4426  0.5631
  116MOL0     O15584   1.633   7.196   0.850  0.2845 -0.5499 -0.2087
  116MOL0     C15585   1.684   7.223   0.723  0.3510 -0.4751  0.6353
  116MOL0     C15586   1.836   7.201   0.714 -0.0723 -0.1102 -0.4695
  116MOL0     C15587   1.918   7.258   0.832  0.9637  0.0403  0.2899
  116MOL0     C15588   2.069   7.264   0.803 -0.6341 -0.3484  0.1914
  116MOL0     C15589   2.158   7.269   0.923  0.1001 -0.6829  0.8872
  116MOL0     C15590   2.231   7.286   1.012 -0.3196 -0.4524 -0.0184
  116MOL0     C15591   1.468   7.087   0.981 -0.2810  0.1094  0.2086
  116MOL0     C15592   1.334   7.046   1.001  0.7082 -0.3577  0.3754
  116MOL0     H15593   0.904   7.214   0.941  1.0001 -0.4522 -0.3800
  116MOL0     H15594   0.670   7.273   0.915  1.7920  1.7176 -1.7444
  116MOL0     H15595   0.328   7.264   0.775  0.9626 -1.3782  3.4146
  116MOL0     H15596   0.482   7.323   0.844  0.5807 -1.2070  0.5478
  116MOL0     H15597   0.572   7.368   0.621 -1.2428  0.2857 -1.1342
  116MOL0     H15598   0.426   7.316   0.539 -0.1488  3.3705 -1.7132
  116MOL0     H15599   0.384   7.516   0.761 -2.0071  1.0705 -0.2533
  116MOL0     H15600   0.464   7.575   0.614 -1.8991  4.3457  2.0424
  116MOL0     H15601   0.289   7.469   0.484  1.2976  0.6046  0.3515
  116MOL0     H15602   0.208   7.407   0.627 -0.6318  0.0892 -0.8980
  116MOL0     H15603   0.093   7.646   0.535  0.3490  0.3824 -0.2250
  116MOL0     H15604   0.134   7.624   0.701  1.0065  0.5056  0.4769
  116MOL0     H15605   0.342   7.776   0.634  2.5430 -0.5535 -2.6829
  116MOL0     H15606   0.299   7.771   0.471  0.9602  1.2245  0.8157
  116MOL0     H15607   0.075   7.870   0.525 -0.4486  1.6621  0.2008
  116MOL0     H15608   0.113   7.859   0.697  0.7949 -0.4095  0.3429
  116MOL0     H15609   0.258   8.006   0.471  0.0572  1.1519  0.0655
  116MOL0     H15610   0.299   8.027   0.647 -1.7825 -1.8495  3.2325
  116MOL0     H15611   0.008   8.050   0.764  0.4508 -0.7922 -0.2333
  116MOL0     H15612  -0.221   8.368   0.645 -2.8887 -0.3872  0.8099
  116MOL0     H15613  -0.211   8.230   0.768 -0.4049 -0.7144  0.3719
  116MOL0     H15614  -0.046   8.484   0.752 -1.3916  0.9083  1.1445
  116MOL0     H15615   0.005   8.337   0.846  0.4848  0.8343  0.6680
  116MOL0     H15616  -0.231   8.352   0.951  0.0152  1.1332  2.5398
  116MOL0     H15617  -0.239   8.518   0.883  0.0379 -1.8590 -3.9468
  116MOL0     H15618  -0.012   8.543   1.005  0.8873 -2.1076  0.3559
  116MOL0     H15619  -0.075   8.404   1.097  2.9434 -0.2339  0.0082
  116MOL0     H15620  -0.262   8.322   1.162 -0.0857 -0.0959  0.0461
  116MOL0     H15621  -0.448   8.164   1.391 -2.8791 -1.0128 -0.4375
  116MOL0     H15622  -0.554   8.177   1.263 -0.5885 -0.5968  2.0003
  116MOL0     H15623  -0.387   8.148   1.220 -0.7134 -0.4110 -1.2090
  116MOL0     H15624  -0.740   8.566   1.708 -1.8492  3.7695  0.7537
  116MOL0     H15625  -0.937   8.524   1.845 -0.1166 -3.0610  0.5152
  116MOL0     H15626  -1.300   8.338   1.656  2.1225 -0.2739 -1.2338
  116MOL0     H15627  -1.199   8.203   1.724  0.4758  0.3593  0.5186
  116MOL0     H15628  -1.403   8.363   1.876  0.9902  1.1009  1.7224
  116MOL0     H15629  -1.423   8.197   1.818  0.1676  0.1834  0.4009
  116MOL0     H15630  -1.220   8.310   2.017  2.5842 -0.5398 -3.0040
  116MOL0     H15631  -1.205   8.142   1.963  1.1156  1.0636 -0.2513
  116MOL0     H15632  -1.404   8.254   2.129  2.1629  0.6395  0.9276
  116MOL0     H15633  -1.451   8.121   2.017  1.4393  0.3554 -2.4714
  116MOL0     H15634  -1.258   8.126   2.242 -0.0316  2.1604 -1.7391
  116MOL0     H15635  -1.274   7.981   2.131 -1.2487 -1.4594 -0.1987
  116MOL0     H15636  -1.490   8.103   2.303  0.5837  1.0517 -0.3035
  116MOL0     H15637  -1.500   7.951   2.202  0.2449 -1.9253  2.6438
  116MOL0     H15638  -1.309   7.863   2.353  3.4125  3.1382  2.4550
  116MOL0     H15639  -1.490   7.873   2.404  0.1511 -0.3539 -1.1783
  116MOL0     H15640  -1.232   8.011   2.498  0.2259 -1.5112  2.2724
  116MOL0     H15641  -1.341   7.923   2.592  0.7380  0.6670  0.6096
  116MOL0     H15642  -1.133   8.324   1.517  1.6516 -2.5327  1.6626
  116MOL0     H15643  -0.949   8.423   1.364 -1.5255  1.5407  0.1230
  116MOL0     H15644  -0.558   8.663   1.388 -1.2705 -0.4473 -1.0065
  116MOL0     H15645  -0.389   8.730   1.219  0.6380 -0.6110 -1.3805
  116MOL0     H15646   0.627   6.964   0.622 -1.4767  3.3685 -1.1449
  116MOL0     H15647   0.844   6.905   0.643  0.3604 -1.3627  1.0681
  116MOL0     H15648   1.197   7.165   0.714 -1.5105  1.2941  2.7383
  116MOL0     H15649   1.434   7.232   0.676 -0.2677  4.4484  1.1235
  116MOL0     H15650   1.636   7.154   0.653  0.2812 -0.5161  0.7244
  116MOL0     H15651   1.648   7.321   0.690 -0.2505 -0.4956  1.2181
  116MOL0     H15652   1.867   7.260   0.627  0.3319 -1.2658 -1.1418
  116MOL0     H15653   1.860   7.095   0.699 -0.6184  0.0510 -2.9053
  116MOL0     H15654   1.887   7.202   0.921 -1.8374  0.4154 -0.3453
  116MOL0     H15655   1.871   7.353   0.861 -2.6762 -1.0405 -1.4349
  116MOL0     H15656   2.091   7.346   0.734  1.5385 -0.7952  0.2652
  116MOL0     H15657   2.103   7.173   0.752 -2.3816 -1.7702  1.4390
  116MOL0     H15658   2.297   7.299   1.095 -2.5563  0.2702  1.7328
  116MOL0     H15659   1.542   7.058   1.054 -0.9590  0.2698  0.9793
  116MOL0     H15660   1.303   6.989   1.088 -0.0899 -1.2274 -0.4530
  117MOL0     O15661   7.063   8.276   4.683 -0.4596 -0.0824  0.1297
  117MOL0     C15662   7.086   8.171   4.729  0.0839  0.1088 -0.5862
  117MOL0     O15663   7.004   8.061   4.727  0.6066  0.0579 -0.1571
  117MOL0     C15664   6.879   8.054   4.664 -0.3908 -0.5958 -0.7256
  117MOL0     C15665   6.777   8.122   4.732 -0.1090 -1.1162 -0.1623
  117MOL0     C15666   6.644   8.109   4.698 -0.3842 -0.2327  0.8978
  117MOL0     C15667   6.619   8.038   4.579 -0.0822  0.2850 -0.7812
  117MOL0     O15668   6.494   8.015   4.525  0.2152 -0.4749  0.0892
  117MOL0     C15669   6.371   8.085   4.561  0.5603 -0.9262 -0.1433
  117MOL0     C15670   6.269   8.068   4.445 -0.6277  0.4341  0.2690
  117MOL0     C15671   6.312   8.126   4.315 -0.0885  0.6302  0.4056
  117MOL0     C15672   6.212   8.127   4.202  0.1826 -0.0549  0.2024
  117MOL0     C15673   6.266   8.205   4.078  0.0702  0.0500 -0.7152
  117MOL0     C15674   6.186   8.197   3.947 -0.4524 -0.0508 -0.0636
  117MOL0     C15675   6.055   8.271   3.966  0.8962 -0.8059 -0.3735
  117MOL0     C15676   5.976   8.285   3.837 -0.1952  0.3075 -1.3476
  117MOL0     N15677   5.858   8.368   3.852 -0.4666 -0.4383  0.0874
  117MOL0     C15678   5.867   8.505   3.853  0.1458 -0.1616  0.3250
  117MOL0     C15679   5.738   8.551   3.845 -0.8245 -0.7065  0.0870
  117MOL0     C15680   5.684   8.688   3.878  0.1873 -0.4391 -0.1068
  117MOL0     C15681   5.730   8.791   3.774  0.7246  0.8512  0.3469
  117MOL0     C15682   5.840   8.881   3.834 -0.1065 -0.0227 -0.1114
  117MOL0     C15683   5.868   9.007   3.744  0.5662 -0.5768 -0.9591
  117MOL0     O15684   6.000   9.072   3.764 -0.1414 -0.4112  0.4403
  117MOL0     C15685   6.035   9.115   3.890  0.8860  0.2862 -0.0915
  117MOL0     C15686   6.169   9.152   3.899 -0.4066 -0.1707  0.5989
  117MOL0     C15687   6.232   9.206   4.020  0.9051  0.1691  0.6676
  117MOL0     C15688   6.381   9.225   4.012  0.1479 -0.3904  0.2172
  117MOL0     C15689   6.153   9.222   4.139  0.7365 -0.3606  0.0465
  117MOL0     C15690   6.206   9.231   4.277 -0.3595 -0.5238 -0.3098
  117MOL0     O15691   6.122   9.241   4.382  0.1684 -0.2098  0.7968
  117MOL0     C15692   6.168   9.225   4.511  0.4530 -0.1326 -1.2715
  117MOL0     C15693   6.297   9.251   4.566  0.1265 -0.0699 -0.3689
  117MOL0     C15694   6.319   9.237   4.702 -0.5317  0.3285  0.5491
  117MOL0     C15695   6.216   9.185   4.784  0.3876 -1.0057 -0.2015
  117MOL0     O15696   6.266   9.149   4.906  0.8772  0.2030 -0.2900
  117MOL0     C15697   6.199   9.046   4.973  0.5459  0.5711 -0.2865
  117MOL0     C15698   6.276   8.993   5.088 -0.5184  0.0711 -0.2069
  117MOL0     C15699   6.401   8.911   5.049 -0.5106  0.1885 -0.0016
  117MOL0     C15700   6.475   8.868   5.182  1.0651  0.3157  0.1072
  117MOL0     C15701   6.596   8.794   5.148 -0.2440  0.2413  0.2120
  117MOL0     C15702   6.665   8.765   5.280  0.1186 -0.2129 -0.0351
  117MOL0     C15703   6.773   8.661   5.260  0.3789  0.7841 -0.4682
  117MOL0     C15704   6.821   8.602   5.387 -0.8350 -0.6134  0.0292
  117MOL0    Cl15705   6.929   8.730   5.463  0.2882  0.1736  0.4222
  117MOL0     C15706   6.087   9.172   4.736  0.3303  0.8174 -0.1731
  117MOL0     C15707   6.064   9.190   4.603  0.1343 -0.7596 -0.5193
  117MOL0     O15708   6.329   9.234   4.287  0.0360  0.0898 -0.1824
  117MOL0     C15709   6.014   9.186   4.127  0.9089  0.2609  0.2516
  117MOL0     C15710   5.955   9.135   4.010 -0.7172  1.7506 -0.1358
  117MOL0     N15711   5.660   8.435   3.821 -0.0087  0.9039 -0.3603
  117MOL0     N15712   5.728   8.326   3.832 -0.0897  0.0584  0.4126
  117MOL0     C15713   6.722   7.988   4.499 -0.0240  0.1636 -0.7341
  117MOL0     C15714   6.851   7.993   4.546  0.6712 -0.2130 -0.2590
  117MOL0     C15715   7.222   8.155   4.796  0.0639 -0.8718  0.8585
  117MOL0     C15716   7.314   8.267   4.800  0.3031 -0.4691 -0.3375
  117MOL0     C15717   7.444   8.255   4.850  0.3554  0.1521 -0.3045
  117MOL0     C15718   7.492   8.135   4.894 -0.9256  0.1826  0.1858
  117MOL0     O15719   7.621   8.132   4.902  0.1105 -0.3922 -0.3681
  117MOL0     C15720   7.677   8.024   4.974 -0.9101 -0.5893 -0.1406
  117MOL0     C15721   7.821   8.057   5.028 -0.9375 -0.9969 -0.0876
  117MOL0     C15722   7.891   7.944   5.098 -0.5332  0.4325 -0.7334
  117MOL0     C15723   8.037   7.959   5.131 -0.7742  0.3985  0.1663
  117MOL0     C15724   8.106   7.952   5.001 -0.2099 -0.6075 -0.7540
  117MOL0     C15725   8.177   7.942   4.900 -0.1796  0.7592 -0.7948
  117MOL0     C15726   7.403   8.020   4.905 -0.3334  0.0064 -0.2895
  117MOL0     C15727   7.274   8.031   4.848 -0.5061 -0.3448 -0.2868
  117MOL0     H15728   6.803   8.166   4.828  2.8879 -2.4370 -0.2607
  117MOL0     H15729   6.556   8.137   4.755  0.0820 -1.4371  2.2643
  117MOL0     H15730   6.319   8.038   4.645 -1.2104 -0.9845 -1.2123
  117MOL0     H15731   6.379   8.192   4.581 -1.6309 -0.7376  0.0347
  117MOL0     H15732   6.247   7.962   4.428 -0.0964  0.2848  0.5106
  117MOL0     H15733   6.174   8.109   4.479 -1.0255  0.4938 -0.8687
  117MOL0     H15734   6.352   8.227   4.326  0.4925  0.5095 -0.4480
  117MOL0     H15735   6.393   8.057   4.286 -2.0443 -1.3055 -0.7249
  117MOL0     H15736   6.189   8.024   4.172  1.4986 -0.8345  1.6841
  117MOL0     H15737   6.120   8.158   4.252 -0.3007  0.3469 -0.9272
  117MOL0     H15738   6.289   8.311   4.096 -0.2930  0.2857 -1.5736
  117MOL0     H15739   6.365   8.164   4.058  0.2611  1.2187 -2.3238
  117MOL0     H15740   6.253   8.235   3.870  0.1125 -1.6332 -0.3885
  117MOL0     H15741   6.165   8.097   3.909  1.0018  0.5427 -2.6418
  117MOL0     H15742   5.992   8.204   4.024 -1.1845 -0.9516 -2.6460
  117MOL0     H15743   6.063   8.371   4.011 -4.0874 -0.9028  1.3766
  117MOL0     H15744   5.968   8.182   3.801  1.3247 -1.0282  1.7690
  117MOL0     H15745   6.035   8.345   3.767 -2.0038  1.9260 -1.6101
  117MOL0     H15746   5.957   8.558   3.881  1.5131 -1.9283 -0.5737
  117MOL0     H15747   5.575   8.691   3.877  0.2037  2.0494 -1.1068
  117MOL0     H15748   5.710   8.714   3.981 -3.9018  0.1198  0.9626
  117MOL0     H15749   5.643   8.855   3.758 -1.8018 -2.6651 -1.1688
  117MOL0     H15750   5.747   8.747   3.676 -3.6058  2.0276 -1.1564
  117MOL0     H15751   5.932   8.821   3.836  0.8238  1.3708  0.5529
  117MOL0     H15752   5.811   8.909   3.935  0.3284  1.8242 -0.4603
  117MOL0     H15753   5.793   9.082   3.769  1.7812  1.2617 -2.5274
  117MOL0     H15754   5.861   8.977   3.639 -2.7482 -0.3222 -0.8907
  117MOL0     H15755   6.219   9.158   3.803 -2.8238 -0.1867 -0.7468
  117MOL0     H15756   6.395   9.321   4.063 -1.2792  1.6069 -2.9000
  117MOL0     H15757   6.422   9.134   4.058 -1.6559 -0.8866  0.9214
  117MOL0     H15758   6.416   9.231   3.909  1.4831  0.6635  0.7065
  117MOL0     H15759   6.372   9.296   4.502  0.4155 -2.0271 -1.4963
  117MOL0     H15760   6.423   9.250   4.730 -0.5241  0.7153  0.3528
  117MOL0     H15761   6.106   9.095   5.002 -0.6693  0.3732 -3.5034
  117MOL0     H15762   6.182   8.958   4.911  1.4419 -0.1371  0.4283
  117MOL0     H15763   6.305   9.079   5.150 -2.4072  0.1590  0.6061
  117MOL0     H15764   6.213   8.923   5.143 -1.0222  0.3382 -0.4404
  117MOL0     H15765   6.466   8.971   4.984 -2.7328  3.3538  0.4707
  117MOL0     H15766   6.359   8.832   4.986 -2.7268  1.7390 -0.5696
  117MOL0     H15767   6.500   8.957   5.241  0.2027  1.0506 -0.6032
  117MOL0     H15768   6.403   8.816   5.246  1.0945 -0.5112 -0.5168
  117MOL0     H15769   6.669   8.850   5.088 -1.7070  4.5191  2.0563
  117MOL0     H15770   6.569   8.700   5.098  2.5343 -2.3495  3.0772
  117MOL0     H15771   6.722   8.852   5.316 -3.1697  1.6841  0.9934
  117MOL0     H15772   6.604   8.732   5.365  1.1051 -1.8204  0.0947
  117MOL0     H15773   6.844   8.708   5.192  0.2428  2.2916  0.3916
  117MOL0     H15774   6.735   8.581   5.195 -0.0671  0.9966 -0.4741
  117MOL0     H15775   6.874   8.509   5.364 -1.5842 -1.2729  0.8609
  117MOL0     H15776   6.748   8.571   5.462 -0.4361 -0.9857  0.2662
  117MOL0     H15777   6.004   9.133   4.794  1.5642  0.4463  1.3883
  117MOL0     H15778   5.966   9.167   4.561 -0.6949 -1.4685  1.6898
  117MOL0     H15779   5.940   9.189   4.206 -0.4221 -0.4664 -0.9149
  117MOL0     H15780   5.853   9.099   4.024  0.7330 -2.2002  1.8012
  117MOL0     H15781   6.698   7.938   4.405 -1.7040 -1.0918  0.2970
  117MOL0     H15782   6.924   7.950   4.478  0.0743 -1.0547 -0.3920
  117MOL0     H15783   7.281   8.364   4.765  0.4828 -0.1431  0.3741
  117MOL0     H15784   7.508   8.341   4.870  1.3533 -0.1692 -1.9499
  117MOL0     H15785   7.628   7.999   5.069 -1.6707  1.5675  0.0908
  117MOL0     H15786   7.684   7.935   4.911 -0.7623  0.2510 -1.3440
  117MOL0     H15787   7.821   8.144   5.094 -1.6960  0.7389 -2.2709
  117MOL0     H15788   7.876   8.093   4.940 -0.2826 -1.6537  0.0380
  117MOL0     H15789   7.877   7.855   5.036 -1.5589  0.3581 -0.3946
  117MOL0     H15790   7.837   7.937   5.192 -0.5032  3.0471 -0.4485
  117MOL0     H15791   8.062   7.873   5.193 -1.8460 -0.1318 -0.1239
  117MOL0     H15792   8.061   8.051   5.185  3.1995  1.1992 -2.5295
  117MOL0     H15793   8.220   7.937   4.802 -0.7860 -0.5435 -1.0209
  117MOL0     H15794   7.435   7.935   4.965 -2.8886 -0.2948  0.7980
  117MOL0     H15795   7.209   7.945   4.857 -0.1606 -0.5458  0.3761
  118MOL0     O15796   7.819   9.922   6.688 -0.1611  0.5449  0.2280
  118MOL0     C15797   7.938   9.906   6.676 -0.0414 -0.4027 -0.4342
  118MOL0     O15798   7.998   9.792   6.642 -0.0088 -0.1351 -0.1790
  118MOL0     C15799   7.921   9.686   6.604  0.0558 -0.5985  0.0183
  118MOL0     C15800   7.827   9.699   6.492 -0.8228 -0.5358 -0.8243
  118MOL0     C15801   7.734   9.603   6.468  0.2358 -0.3958  0.1607
  118MOL0     C15802   7.713   9.492   6.547 -0.2727  0.6146 -0.3321
  118MOL0     O15803   7.626   9.392   6.506  0.4808  0.6029  0.6339
  118MOL0     C15804   7.614   9.274   6.585  0.9484  0.0189  0.3593
  118MOL0     C15805   7.498   9.189   6.537  0.0495 -0.3353  0.1332
  118MOL0     C15806   7.372   9.255   6.577  0.3854  0.2545 -0.1789
  118MOL0     C15807   7.253   9.161   6.550 -0.2446  0.7080 -0.5604
  118MOL0     C15808   7.120   9.222   6.596 -0.1758 -0.4082  0.2831
  118MOL0     C15809   7.005   9.129   6.568 -0.7491  0.1333 -0.7337
  118MOL0     C15810   6.867   9.185   6.581  0.1576 -0.1023  0.8362
  118MOL0     C15811   6.758   9.086   6.572  0.4943 -0.4792 -0.8633
  118MOL0     N15812   6.621   9.140   6.604 -0.5118  0.0201  0.6193
  118MOL0     C15813   6.571   9.155   6.723  0.1061 -0.6310 -0.5856
  118MOL0     C15814   6.444   9.201   6.695 -0.4057  0.1668 -0.2089
  118MOL0     C15815   6.351   9.249   6.807  0.4069 -0.0288 -0.9936
  118MOL0     C15816   6.216   9.180   6.817  0.6397 -0.2694  0.3288
  118MOL0     C15817   6.170   9.145   6.959 -0.4345  0.5680 -0.2105
  118MOL0     C15818   6.048   9.047   6.962 -0.6701 -0.4283 -1.1146
  118MOL0     O15819   5.979   9.057   7.082 -0.3775 -0.7243  0.3032
  118MOL0     C15820   5.874   9.143   7.093 -0.1198  1.0951 -0.8751
  118MOL0     C15821   5.783   9.171   6.987  0.0158  0.0684 -0.3240
  118MOL0     C15822   5.665   9.249   7.010 -0.1468  0.2741 -0.6625
  118MOL0     C15823   5.585   9.286   6.882 -0.1386  0.0716 -0.0679
  118MOL0     C15824   5.635   9.291   7.137 -0.0150  0.3242 -0.6661
  118MOL0     C15825   5.504   9.354   7.170 -0.1172  0.0519  0.5692
  118MOL0     O15826   5.504   9.405   7.296 -0.1328  0.6031  0.0858
  118MOL0     C15827   5.400   9.480   7.339 -0.5513 -0.1643  0.1701
  118MOL0     C15828   5.420   9.606   7.389  0.7764 -0.8330 -0.3272
  118MOL0     C15829   5.308   9.693   7.420  0.0472 -0.0634  0.0399
  118MOL0     C15830   5.177   9.663   7.394 -0.6451 -0.0926  0.0874
  118MOL0     O15831   5.067   9.745   7.403  0.1651 -0.4488 -0.6956
  118MOL0     C15832   5.083   9.855   7.491 -0.4908 -0.0926  0.4366
  118MOL0     C15833   4.954   9.940   7.509 -0.6794  0.6169  0.4118
  118MOL0     C15834   4.850   9.844   7.573 -0.0225  0.0062 -0.2924
  118MOL0     C15835   4.720   9.928   7.608  0.8208  0.3477  0.5000
  118MOL0     C15836   4.630   9.830   7.682  0.3469 -0.6022  0.1526
  118MOL0     C15837   4.509   9.890   7.750  0.6113 -0.1725  0.4141
  118MOL0     C15838   4.416   9.954   7.643  0.8646  0.4671 -0.5842
  118MOL0     C15839   4.264   9.982   7.680 -0.2426 -0.1873 -0.5773
  118MOL0    Cl15840   4.175  10.004   7.520  0.1454 -0.3112 -0.1884
  118MOL0     C15841   5.156   9.538   7.340  0.5020  0.5753 -0.3907
  118MOL0     C15842   5.266   9.450   7.316 -0.7973 -0.7094  1.6649
  118MOL0     O15843   5.410   9.364   7.090 -0.4264  0.8477  0.1416
  118MOL0     C15844   5.715   9.249   7.248  0.2598 -0.3247 -1.0483
  118MOL0     C15845   5.827   9.169   7.221  0.1431 -0.8321  0.0416
  118MOL0     N15846   6.426   9.215   6.558 -0.2014  0.2830  0.1000
  118MOL0     N15847   6.535   9.181   6.500 -0.0548 -0.3253 -0.2970
  118MOL0     C15848   7.805   9.475   6.657  0.4965  0.7246  0.0026
  118MOL0     C15849   7.903   9.565   6.674  0.1536 -0.4359 -0.0188
  118MOL0     C15850   8.026  10.016   6.715 -0.0282  0.7782 -0.4953
  118MOL0     C15851   8.156  10.018   6.669 -0.1211 -0.0127 -0.2772
  118MOL0     C15852   8.240  10.134   6.693  0.7355  0.7547  0.5405
  118MOL0     C15853   8.196  10.232   6.782 -0.1862  0.4093  0.6729
  118MOL0     O15854   8.285  10.324   6.832  0.0615  0.8079  0.8182
  118MOL0     C15855   8.245  10.414   6.940  0.2049  0.1400  0.2928
  118MOL0     C15856   8.360  10.500   6.992 -0.1028  0.6967 -0.2506
  118MOL0     C15857   8.420  10.597   6.891 -0.3688  0.1504 -0.1505
  118MOL0     C15858   8.562  10.606   6.905 -0.7655  0.1356  0.5726
  118MOL0     C15859   8.613  10.661   7.027  0.0606  0.0200  1.2071
  118MOL0     C15860   8.632  10.698   7.136  0.8418  0.2610  0.3289
  118MOL0     C15861   8.058  10.229   6.823 -0.4021  0.5200  0.3168
  118MOL0     C15862   7.980  10.119   6.792  0.4910 -0.5150 -0.7928
  118MOL0     H15863   7.828   9.786   6.426 -2.0934  0.6029  0.5948
  118MOL0     H15864   7.689   9.620   6.370  1.7155 -1.5060 -0.7415
  118MOL0     H15865   7.706   9.216   6.578  1.4638  0.7108  1.3443
  118MOL0     H15866   7.599   9.310   6.687 -0.3588 -1.3321  0.6829
  118MOL0     H15867   7.508   9.182   6.428  0.5948 -0.9426  0.2160
  118MOL0     H15868   7.510   9.094   6.590 -0.4703  0.6365  2.0629
  118MOL0     H15869   7.385   9.287   6.680 -1.8374 -1.2063  0.6419
  118MOL0     H15870   7.355   9.346   6.519  0.3441 -1.0586 -2.3423
  118MOL0     H15871   7.249   9.135   6.443 -1.1603  0.8374 -0.5681
  118MOL0     H15872   7.276   9.063   6.592 -1.2833 -0.2457 -2.1002
  118MOL0     H15873   7.118   9.236   6.704 -4.3947  0.1242  0.2825
  118MOL0     H15874   7.094   9.310   6.536  0.5807 -0.2073  0.2368
  118MOL0     H15875   7.016   9.099   6.463  0.6458  0.7972 -0.8001
  118MOL0     H15876   7.020   9.038   6.628  0.5328  0.2306 -0.8666
  118MOL0     H15877   6.862   9.238   6.677  0.3256  3.1186 -0.7660
  118MOL0     H15878   6.846   9.251   6.496 -0.1213 -0.5393  0.5618
  118MOL0     H15879   6.775   9.002   6.640  0.6192 -0.6604 -1.1151
  118MOL0     H15880   6.748   9.054   6.467  1.0577  2.1695 -1.8019
  118MOL0     H15881   6.617   9.152   6.821 -2.3742 -0.2353  0.6860
  118MOL0     H15882   6.410   9.238   6.899  1.1570  0.4154 -1.4117
  118MOL0     H15883   6.332   9.357   6.803  2.2793  0.3266 -1.1314
  118MOL0     H15884   6.220   9.087   6.760 -0.1118  1.1224 -2.1247
  118MOL0     H15885   6.142   9.231   6.754  0.9533  1.7194  1.4787
  118MOL0     H15886   6.136   9.237   7.009 -0.1785  0.2883  0.5005
  118MOL0     H15887   6.257   9.102   7.011 -2.3953 -3.9923 -0.3349
  118MOL0     H15888   6.078   8.942   6.961  0.2450 -0.2720  1.6163
  118MOL0     H15889   5.993   9.062   6.868  0.2403  2.4268 -1.2869
  118MOL0     H15890   5.802   9.133   6.887  0.4065  1.9209 -1.0032
  118MOL0     H15891   5.573   9.394   6.869  1.7971  0.2898 -0.3723
  118MOL0     H15892   5.638   9.260   6.791  3.0866  2.4359  0.9230
  118MOL0     H15893   5.489   9.236   6.875  0.4775 -1.2199  0.3491
  118MOL0     H15894   5.522   9.642   7.402 -0.3929  2.7633  0.1086
  118MOL0     H15895   5.338   9.789   7.461  0.9354  0.5391 -1.8690
  118MOL0     H15896   5.120   9.823   7.589 -0.9112  0.5034  0.7936
  118MOL0     H15897   5.151   9.927   7.445 -1.4821  0.3704 -0.3487
  118MOL0     H15898   4.969  10.018   7.584  0.4960  1.4380 -0.6473
  118MOL0     H15899   4.923   9.976   7.410  0.0742  0.1064 -0.0260
  118MOL0     H15900   4.886   9.807   7.670 -2.8417  2.5000  1.8947
  118MOL0     H15901   4.840   9.764   7.499  0.6675 -0.8668  0.5275
  118MOL0     H15902   4.738  10.004   7.685 -2.0156 -0.9215  2.5736
  118MOL0     H15903   4.670   9.966   7.518 -2.3462 -1.3320  1.4218
  118MOL0     H15904   4.693   9.784   7.759  1.2185  0.7655  0.2812
  118MOL0     H15905   4.602   9.753   7.609 -0.5109  0.8535 -1.1284
  118MOL0     H15906   4.451   9.814   7.804  0.6744 -0.7417 -0.3087
  118MOL0     H15907   4.539   9.963   7.825 -1.2102  0.0821  0.9485
  118MOL0     H15908   4.409   9.902   7.547 -0.1888 -2.9268  1.1680
  118MOL0     H15909   4.461  10.052   7.625 -1.7302  1.4603 -2.3596
  118MOL0     H15910   4.252  10.066   7.748 -2.1147  0.1859 -1.2878
  118MOL0     H15911   4.229   9.895   7.737  0.5903 -0.3980 -0.3829
  118MOL0     H15912   5.059   9.523   7.294 -0.2059 -0.4676  1.3415
  118MOL0     H15913   5.247   9.359   7.259 -0.9029  0.6718 -0.6068
  118MOL0     H15914   5.693   9.278   7.350  0.4739 -0.8908 -0.8394
  118MOL0     H15915   5.867   9.122   7.310 -0.2347 -0.9924  0.1290
  118MOL0     H15916   7.796   9.385   6.717 -1.5950  0.2385 -0.9462
  118MOL0     H15917   7.972   9.541   6.755  0.8606  0.1293 -0.4355
  118MOL0     H15918   8.189   9.938   6.604 -2.0404 -3.1826  2.3208
  118MOL0     H15919   8.338  10.146   6.649  0.6943  1.5202  0.6443
  118MOL0     H15920   8.165  10.480   6.905  0.7945  1.9419  2.1448
  118MOL0     H15921   8.200  10.346   7.014 -0.3536 -0.7526 -0.8415
  118MOL0     H15922   8.438  10.432   7.027 -0.5623 -0.8382 -2.0516
  118MOL0     H15923   8.329  10.561   7.077  3.4180  3.4817 -0.7464
  118MOL0     H15924   8.374  10.696   6.892  1.4504  1.0528 -1.2369
  118MOL0     H15925   8.414  10.568   6.786  0.4226  3.1148 -1.0946
  118MOL0     H15926   8.617  10.666   6.831  0.5854 -0.7024  0.8671
  118MOL0     H15927   8.606  10.506   6.909  0.0783  0.5316  2.9579
  118MOL0     H15928   8.647  10.755   7.226  0.0169  0.6709  0.2176
  118MOL0     H15929   8.014  10.309   6.882 -0.5770  0.7124 -0.0711
  118MOL0     H15930   7.875  10.105   6.817  0.9912 -1.9404  0.7053
  119MOL0     O15931   8.817   6.440   1.666 -0.3828 -0.2467 -0.9192
  119MOL0     C15932   8.900   6.363   1.708 -0.3535 -0.3719  0.2473
  119MOL0     O15933   8.868   6.249   1.786 -0.5966  0.4998  0.6930
  119MOL0     C15934   8.739   6.209   1.809  1.1905 -0.8993 -1.0022
  119MOL0     C15935   8.696   6.080   1.780 -0.5064 -0.4787 -0.0088
  119MOL0     C15936   8.571   6.032   1.811  0.3685  0.1226  1.8065
  119MOL0     C15937   8.471   6.118   1.857 -0.2001 -0.1512  0.3274
  119MOL0     O15938   8.336   6.084   1.871  0.0631 -0.5201  0.2752
  119MOL0     C15939   8.289   5.944   1.871  0.4179  0.4067 -0.9178
  119MOL0     C15940   8.139   5.934   1.906 -0.3821  0.6795 -0.2457
  119MOL0     C15941   8.082   5.797   1.862 -0.4913 -0.0537  0.5494
  119MOL0     C15942   7.931   5.803   1.888  0.5477  0.4497 -0.8717
  119MOL0     C15943   7.849   5.686   1.833  0.6806  0.2939 -0.0257
  119MOL0     C15944   7.692   5.707   1.877  0.4849  0.2958  0.5285
  119MOL0     C15945   7.609   5.615   1.790  0.9237 -0.2687 -0.0591
  119MOL0     C15946   7.457   5.626   1.817 -0.3098  0.7473  0.4189
  119MOL0     N15947   7.396   5.749   1.778 -0.7516  0.2947 -0.2510
  119MOL0     C15948   7.439   5.836   1.680  0.1168  0.3503 -0.0464
  119MOL0     C15949   7.349   5.932   1.690  0.5944 -0.6843  0.7466
  119MOL0     C15950   7.357   6.055   1.604 -0.0578 -0.1878 -1.0015
  119MOL0     C15951   7.374   6.036   1.452 -0.5657 -0.2153 -0.7953
  119MOL0     C15952   7.251   5.976   1.390 -0.1927 -0.1275  0.2884
  119MOL0     C15953   7.266   5.966   1.241  0.1355 -0.1540 -0.0538
  119MOL0     O15954   7.141   5.950   1.168 -0.5185  0.0338  0.7551
  119MOL0     C15955   7.045   5.866   1.229  1.0137 -0.3511 -0.7362
  119MOL0     C15956   7.069   5.735   1.265  0.4545 -0.0667 -0.7491
  119MOL0     C15957   6.977   5.653   1.325 -0.8740 -0.0565 -0.3101
  119MOL0     C15958   7.019   5.509   1.345 -0.1042 -0.8035 -0.2051
  119MOL0     C15959   6.850   5.714   1.367  0.0780  0.3545  0.3989
  119MOL0     C15960   6.742   5.640   1.451 -0.5521 -0.3075  0.1284
  119MOL0     O15961   6.632   5.710   1.463 -0.7596 -0.4809  0.2668
  119MOL0     C15962   6.539   5.650   1.544  0.0535  0.1449  0.3181
  119MOL0     C15963   6.543   5.671   1.688  0.6439 -0.3455  0.2034
  119MOL0     C15964   6.434   5.631   1.764 -0.5606  0.6632 -0.2386
  119MOL0     C15965   6.320   5.579   1.713 -0.6033  0.1231  0.6468
  119MOL0     O15966   6.214   5.530   1.787 -0.4299  0.8185  0.5841
  119MOL0     C15967   6.232   5.515   1.931  1.0026 -0.1968 -0.9785
  119MOL0     C15968   6.107   5.454   1.981  0.9683  0.0949  0.2157
  119MOL0     C15969   6.113   5.420   2.131  0.1967  0.2751  0.0556
  119MOL0     C15970   6.130   5.550   2.208  0.8178  0.3424 -0.2259
  119MOL0     C15971   6.105   5.533   2.359  0.4128  0.0891  0.3911
  119MOL0     C15972   6.212   5.459   2.427  0.1566  0.2105 -0.4866
  119MOL0     C15973   6.182   5.438   2.577  0.0223  0.5823 -0.8962
  119MOL0     C15974   6.270   5.330   2.634 -0.0135  0.4017 -0.1690
  119MOL0    Cl15975   6.215   5.289   2.797  0.2794 -0.1181 -0.3327
  119MOL0     C15976   6.316   5.569   1.572  1.0188  0.2121  0.0638
  119MOL0     C15977   6.424   5.605   1.486 -0.6162 -0.1556 -0.7671
  119MOL0     O15978   6.760   5.524   1.485  0.0782 -0.2316 -0.3392
  119MOL0     C15979   6.828   5.846   1.339 -0.5637 -0.0119  0.2932
  119MOL0     C15980   6.917   5.919   1.257 -0.3150 -0.5014  0.2289
  119MOL0     N15981   7.268   5.911   1.793  1.0161  0.3514 -1.2186
  119MOL0     N15982   7.291   5.791   1.844  0.2173  0.7588 -0.5369
  119MOL0     C15983   8.510   6.253   1.883  0.1091 -0.5977  0.7299
  119MOL0     C15984   8.633   6.299   1.855 -0.4840  0.0345  0.1014
  119MOL0     C15985   9.036   6.371   1.670  0.9299  0.1831  0.1421
  119MOL0     C15986   9.121   6.256   1.671  0.2692 -0.2148  0.8524
  119MOL0     C15987   9.260   6.281   1.639 -0.3367 -0.0706  0.1518
  119MOL0     C15988   9.306   6.407   1.610 -0.3114  0.1039 -0.8474
  119MOL0     O15989   9.438   6.405   1.585 -0.2864 -0.0920 -0.2878
  119MOL0     C15990   9.496   6.536   1.558 -0.0516 -0.1301 -0.7990
  119MOL0     C15991   9.649   6.508   1.575  0.1910 -0.5660  0.3153
  119MOL0     C15992   9.734   6.636   1.548 -0.3628  0.1641  0.1706
  119MOL0     C15993   9.884   6.620   1.530  0.1942  0.4703 -0.4225
  119MOL0     C15994   9.903   6.525   1.412  0.2729 -0.4682 -1.2812
  119MOL0     C15995   9.916   6.438   1.319  0.5285  0.6575  1.1431
  119MOL0     C15996   9.219   6.522   1.621 -0.7505  0.1588 -0.6427
  119MOL0     C15997   9.085   6.499   1.650  0.4132 -0.0695  0.4214
  119MOL0     H15998   8.772   6.010   1.748  2.0154  0.9893  2.3685
  119MOL0     H15999   8.550   5.927   1.795 -1.7898  0.3832  2.5523
  119MOL0     H16000   8.316   5.889   1.781  1.3868 -0.9096  0.1224
  119MOL0     H16001   8.341   5.887   1.950  2.5544  0.8971 -1.8860
  119MOL0     H16002   8.119   5.953   2.012  0.7833  3.4232 -0.4419
  119MOL0     H16003   8.087   6.005   1.840 -2.5471  0.0073  0.6517
  119MOL0     H16004   8.099   5.769   1.757 -0.5504 -0.3906  0.6274
  119MOL0     H16005   8.131   5.722   1.925  1.4846  1.8302  1.3570
  119MOL0     H16006   7.920   5.798   1.997 -0.2376 -1.8574 -0.9979
  119MOL0     H16007   7.894   5.901   1.857 -0.6092  0.4147  0.2879
  119MOL0     H16008   7.862   5.691   1.724 -1.7730  0.3902 -0.3706
  119MOL0     H16009   7.898   5.602   1.882  2.8294  1.7846  0.5509
  119MOL0     H16010   7.677   5.683   1.982  2.2567 -0.6807  0.5998
  119MOL0     H16011   7.668   5.812   1.861  0.0509 -0.2068 -2.8608
  119MOL0     H16012   7.616   5.641   1.684 -0.8782  1.0380  0.1160
  119MOL0     H16013   7.637   5.510   1.802 -0.8505 -0.6194  1.3333
  119MOL0     H16014   7.441   5.625   1.925 -0.5514  0.5725  0.3813
  119MOL0     H16015   7.404   5.540   1.776 -0.9309  1.5442 -0.4994
  119MOL0     H16016   7.525   5.830   1.613 -0.9904 -1.0491 -1.4219
  119MOL0     H16017   7.275   6.126   1.622  1.5638  1.5182 -0.0659
  119MOL0     H16018   7.448   6.098   1.646  0.6689 -1.0948 -1.6348
  119MOL0     H16019   7.458   5.968   1.433 -0.9733 -1.0867  0.3936
  119MOL0     H16020   7.401   6.135   1.412  1.3423 -1.4288 -2.7436
  119MOL0     H16021   7.169   6.040   1.422  1.8777  1.2427  3.2891
  119MOL0     H16022   7.222   5.879   1.432 -0.1239 -0.1391  0.3108
  119MOL0     H16023   7.316   5.869   1.234  1.1383  0.3927 -0.6637
  119MOL0     H16024   7.328   6.050   1.211  0.3809  0.2908  1.5802
  119MOL0     H16025   7.161   5.701   1.218 -0.3960 -1.6399 -1.3400
  119MOL0     H16026   7.110   5.485   1.290 -0.4883  1.4117 -1.9861
  119MOL0     H16027   7.025   5.498   1.454  0.7011  1.6299  0.0737
  119MOL0     H16028   6.937   5.454   1.297  0.0608  0.4169 -1.9695
  119MOL0     H16029   6.621   5.725   1.741 -0.4544  1.7024 -0.1825
  119MOL0     H16030   6.442   5.647   1.871 -1.5514 -2.2941  0.3778
  119MOL0     H16031   6.320   5.454   1.956 -0.3137 -2.6735 -1.9780
  119MOL0     H16032   6.235   5.619   1.964 -2.7306 -0.1555 -0.3698
  119MOL0     H16033   6.017   5.514   1.970  0.9112  0.2930  1.5919
  119MOL0     H16034   6.101   5.358   1.929 -2.0222  0.5209 -0.3647
  119MOL0     H16035   6.185   5.344   2.162  1.7282  2.0991  1.1064
  119MOL0     H16036   6.017   5.373   2.154  0.5333 -0.3456  0.2177
  119MOL0     H16037   6.233   5.585   2.190  0.9143  0.0020 -0.3441
  119MOL0     H16038   6.056   5.623   2.174 -1.3650 -2.0241 -0.8346
  119MOL0     H16039   6.008   5.486   2.378 -0.1027  0.2576 -1.5983
  119MOL0     H16040   6.101   5.637   2.392 -1.6416  0.4352 -0.7882
  119MOL0     H16041   6.204   5.360   2.381  1.8829 -0.3114  0.2649
  119MOL0     H16042   6.308   5.508   2.409  1.0749 -0.7596  1.4643
  119MOL0     H16043   6.077   5.410   2.586 -0.5469  2.6066 -0.8099
  119MOL0     H16044   6.182   5.523   2.646 -2.2493 -1.2659  1.5995
  119MOL0     H16045   6.371   5.373   2.633  1.0271 -1.8500  0.8760
  119MOL0     H16046   6.281   5.242   2.569  2.6055  1.0052 -0.6769
  119MOL0     H16047   6.223   5.524   1.541  1.6945 -1.4468  0.3559
  119MOL0     H16048   6.426   5.599   1.378  1.9402 -0.0400 -0.7975
  119MOL0     H16049   6.735   5.895   1.367  0.3874  2.8940 -1.2020
  119MOL0     H16050   6.893   6.022   1.232  0.8366 -0.3613 -0.3614
  119MOL0     H16051   8.427   6.313   1.920 -0.7560 -1.7116  0.6639
  119MOL0     H16052   8.655   6.403   1.876  1.7539  0.0050 -1.7078
  119MOL0     H16053   9.079   6.157   1.687  0.9485 -1.2083 -2.5690
  119MOL0     H16054   9.333   6.201   1.636 -0.6880 -0.4059 -2.8915
  119MOL0     H16055   9.471   6.578   1.460  0.7330  1.9105 -0.1854
  119MOL0     H16056   9.463   6.618   1.622  0.1972  0.5470 -1.5135
  119MOL0     H16057   9.680   6.422   1.514  1.2737  0.2206 -0.2814
  119MOL0     H16058   9.658   6.491   1.682 -2.5373  1.3595  0.9369
  119MOL0     H16059   9.714   6.702   1.633 -1.1404  0.9277 -0.5785
  119MOL0     H16060   9.698   6.693   1.461  0.2175 -0.3737 -0.4267
  119MOL0     H16061   9.923   6.572   1.621  0.9825 -2.4590 -2.1507
  119MOL0     H16062   9.937   6.715   1.518  1.7293  0.1547  2.8144
  119MOL0     H16063   9.922   6.361   1.245 -0.9233  1.0631  0.5460
  119MOL0     H16064   9.253   6.622   1.645 -1.9408  0.5211 -0.3888
  119MOL0     H16065   9.025   6.589   1.658  0.9248  0.3712 -0.5711
  120MOL0     O16066   0.722  10.789  10.654  0.4398  0.2632 -0.0747
  120MOL0     C16067   0.691  10.721  10.751 -0.7919  0.1345  1.3880
  120MOL0     O16068   0.567  10.707  10.799 -0.0430  0.7597  0.1092
  120MOL0     C16069   0.449  10.759  10.749  0.7986  0.2372 -0.5268
  120MOL0     C16070   0.336  10.751  10.835 -0.0406  0.0138 -0.3927
  120MOL0     C16071   0.215  10.794  10.797 -0.3519 -0.6634 -0.0141
  120MOL0     C16072   0.207  10.882  10.685  0.1480  0.4383  0.1063
  120MOL0     O16073   0.093  10.949  10.648 -0.1924  0.3799  0.2716
  120MOL0     C16074  -0.030  10.940  10.730  0.3301 -0.2527 -0.5100
  120MOL0     C16075  -0.136  11.018  10.659  0.3629  0.1187 -0.1838
  120MOL0     C16076  -0.265  10.986  10.733  0.0210 -0.0267 -0.6355
  120MOL0     C16077  -0.371  11.095  10.710 -0.4630  0.5409 -0.1776
  120MOL0     C16078  -0.499  11.054  10.781 -0.8333  0.3430 -0.1615
  120MOL0     C16079  -0.600  11.155  10.751  0.7859 -0.0694 -0.1344
  120MOL0     C16080  -0.742  11.114  10.797 -0.1045  0.3705  0.6453
  120MOL0     C16081  -0.834  11.224  10.754 -0.0810  0.7619  0.6244
  120MOL0     N16082  -0.974  11.186  10.767 -0.4560 -0.4706 -0.4058
  120MOL0     C16083  -1.033  11.110  10.674 -0.3620  0.5061 -0.9230
  120MOL0     C16084  -1.159  11.081  10.730  0.1115  0.6822 -0.2939
  120MOL0     C16085  -1.279  11.020  10.666  0.3374  0.5284 -0.2051
  120MOL0     C16086  -1.307  10.876  10.712  1.1307 -0.4011  1.1322
  120MOL0     C16087  -1.434  10.811  10.662  0.3347 -0.1716 -0.0787
  120MOL0     C16088  -1.463  10.671  10.716 -0.7116 -0.0015 -0.5357
  120MOL0     O16089  -1.571  10.607  10.644  0.1048  0.3896  0.5408
  120MOL0     C16090  -1.707  10.640  10.657 -1.0455  0.1468  0.4841
  120MOL0     C16091  -1.803  10.568  10.575 -0.2380 -0.0680 -0.2816
  120MOL0     C16092  -1.938  10.601  10.576  0.3774  0.3887 -0.1959
  120MOL0     C16093  -2.033  10.539  10.474 -0.5295  0.0677 -0.3636
  120MOL0     C16094  -1.981  10.711  10.655  0.1111  0.0050 -0.2762
  120MOL0     C16095  -2.123  10.763  10.668  0.1149  0.3255  0.1069
  120MOL0     O16096  -2.139  10.903  10.658 -0.4110  0.4765 -0.0450
  120MOL0     C16097  -2.269  10.937  10.660  0.6672 -0.1847  0.2376
  120MOL0     C16098  -2.336  10.923  10.539 -0.2395 -1.0724  0.3553
  120MOL0     C16099  -2.468  10.954  10.533  0.7003  0.4443  0.0165
  120MOL0     C16100  -2.546  11.002  10.637  0.0513  0.6060  0.1762
  120MOL0     O16101  -2.683  11.017  10.625  0.0183 -0.1429  0.6874
  120MOL0     C16102  -2.756  10.902  10.589  0.3349  0.0088  1.1775
  120MOL0     C16103  -2.887  10.918  10.664  0.4073 -0.5656 -0.3384
  120MOL0     C16104  -2.874  10.943  10.818 -0.8823 -0.5007 -0.3421
  120MOL0     C16105  -3.009  10.924  10.880  0.0755  0.5007 -0.7284
  120MOL0     C16106  -2.995  10.918  11.033 -0.1248  0.4502  0.6561
  120MOL0     C16107  -3.130  10.935  11.104  0.9315  0.9488  1.3618
  120MOL0     C16108  -3.123  10.946  11.260 -0.2530 -0.0275 -0.5074
  120MOL0     C16109  -3.260  10.990  11.307  0.5136  0.7188  0.5833
  120MOL0    Cl16110  -3.306  10.930  11.464 -0.7093 -0.2233 -0.0793
  120MOL0     C16111  -2.487  11.016  10.765  0.0157 -0.3334  0.6479
  120MOL0     C16112  -2.341  10.981  10.779  0.8672  0.4464 -0.6590
  120MOL0     O16113  -2.204  10.679  10.700 -0.2727 -0.2419  0.0943
  120MOL0     C16114  -1.887  10.784  10.738  0.7587 -0.5783  0.3815
  120MOL0     C16115  -1.753  10.744  10.738 -0.2082  0.2199 -0.7361
  120MOL0     N16116  -1.168  11.148  10.853 -0.8278  0.7156 -0.2705
  120MOL0     N16117  -1.054  11.216  10.870  0.2411 -0.4352  0.3538
  120MOL0     C16118   0.319  10.897  10.602  0.4142 -0.4193  0.2624
  120MOL0     C16119   0.429  10.831  10.625 -0.7055 -0.2388  0.2601
  120MOL0     C16120   0.795  10.633  10.800 -0.0503 -0.8079 -0.1820
  120MOL0     C16121   0.934  10.646  10.770  0.0564 -0.2063  0.2185
  120MOL0     C16122   1.031  10.562  10.829  0.5287 -0.4158  0.6163
  120MOL0     C16123   0.991  10.457  10.910  0.2450 -0.5904  0.4906
  120MOL0     O16124   1.089  10.378  10.955  0.4064  0.0700 -0.2242
  120MOL0     C16125   1.066  10.302  11.079  1.1455  0.7866  0.0647
  120MOL0     C16126   1.156  10.370  11.184 -0.1894  0.6512 -0.4031
  120MOL0     C16127   1.292  10.301  11.187  0.5049  0.5853 -0.3206
  120MOL0     C16128   1.389  10.365  11.286  1.0003 -0.2415  0.9246
  120MOL0     C16129   1.426  10.507  11.249 -0.1953 -0.0400  0.1696
  120MOL0     C16130   1.451  10.627  11.240  0.8402 -0.0671 -0.8088
  120MOL0     C16131   0.851  10.442  10.933 -0.2141  0.7882 -0.2368
  120MOL0     C16132   0.761  10.527  10.882  0.0108 -0.1197 -0.0340
  120MOL0     H16133   0.349  10.701  10.930  1.2666  0.3559 -0.3743
  120MOL0     H16134   0.135  10.777  10.867  1.8048 -0.1418  2.7535
  120MOL0     H16135  -0.052  10.835  10.749  2.2907 -0.5324  0.4973
  120MOL0     H16136  -0.014  11.001  10.820 -0.8700  1.3767 -1.3461
  120MOL0     H16137  -0.110  11.124  10.668 -1.0637  0.3986  1.2070
  120MOL0     H16138  -0.140  10.991  10.553  0.8997  0.1380 -0.2093
  120MOL0     H16139  -0.307  10.889  10.705  1.8463 -0.7704 -0.9331
  120MOL0     H16140  -0.247  10.970  10.840  0.0387 -0.9906 -0.7749
  120MOL0     H16141  -0.329  11.185  10.757 -0.2626  0.9820 -1.1756
  120MOL0     H16142  -0.399  11.129  10.610  0.9360  1.3861 -0.3159
  120MOL0     H16143  -0.519  10.955  10.738 -0.3376  0.1938 -0.0619
  120MOL0     H16144  -0.490  11.037  10.888 -1.3838 -1.3819 -0.3494
  120MOL0     H16145  -0.577  11.238  10.818 -2.4100 -1.3051  2.7931
  120MOL0     H16146  -0.606  11.174  10.643  0.2481  0.1366 -0.0705
  120MOL0     H16147  -0.761  11.020  10.745  1.7643  1.0337 -1.3974
  120MOL0     H16148  -0.736  11.096  10.905  5.1118  1.3452  0.7872
  120MOL0     H16149  -0.817  11.263  10.654  1.4358 -2.0879 -0.3229
  120MOL0     H16150  -0.819  11.309  10.822 -0.8441 -0.0316  1.8437
  120MOL0     H16151  -1.005  11.063  10.580 -1.6274 -0.1475 -0.9903
  120MOL0     H16152  -1.363  11.082  10.698 -0.3449  1.0655 -2.7660
  120MOL0     H16153  -1.279  11.035  10.558  1.1691  0.2754 -0.2458
  120MOL0     H16154  -1.317  10.883  10.821 -1.2330 -0.2891  0.9653
  120MOL0     H16155  -1.214  10.821  10.696  1.3114  0.2753 -0.3676
  120MOL0     H16156  -1.424  10.798  10.554 -2.6656 -0.0430 -0.4548
  120MOL0     H16157  -1.514  10.884  10.679  0.0010 -0.3682 -0.7947
  120MOL0     H16158  -1.485  10.669  10.823  2.2144 -3.2022  0.1588
  120MOL0     H16159  -1.379  10.604  10.700 -1.7295 -0.8224 -3.0174
  120MOL0     H16160  -1.758  10.486  10.520  0.7273  0.3682 -0.1519
  120MOL0     H16161  -2.028  10.592  10.378  0.3418 -2.2952 -1.6954
  120MOL0     H16162  -2.026  10.431  10.461 -2.0937  0.0697 -1.6099
  120MOL0     H16163  -2.136  10.545  10.511 -0.0871  1.6752  0.7197
  120MOL0     H16164  -2.292  10.874  10.453  0.2328 -1.3264  0.7368
  120MOL0     H16165  -2.512  10.931  10.436 -0.2904 -0.2140  0.5981
  120MOL0     H16166  -2.779  10.894  10.482 -0.5174 -0.4088  1.3833
  120MOL0     H16167  -2.720  10.803  10.619  1.1308  0.1476  0.7072
  120MOL0     H16168  -2.952  10.994  10.620 -0.5646 -2.4961 -2.4370
  120MOL0     H16169  -2.944  10.825  10.660 -1.0036  0.2956 -1.0497
  120MOL0     H16170  -2.837  11.045  10.828 -3.2233  0.4135 -0.5394
  120MOL0     H16171  -2.800  10.873  10.860 -1.8492 -0.4582  1.5257
  120MOL0     H16172  -3.062  11.018  10.860  0.5950  0.7201 -1.0878
  120MOL0     H16173  -3.067  10.836  10.850 -1.1845  0.7393  0.8793
  120MOL0     H16174  -2.936  11.009  11.049  0.3287  0.5657 -1.3250
  120MOL0     H16175  -2.951  10.825  11.070 -0.2612 -0.3840 -1.1745
  120MOL0     H16176  -3.174  11.026  11.062 -1.1955 -1.1462 -1.4074
  120MOL0     H16177  -3.197  10.851  11.082  0.2991  1.3873  1.5773
  120MOL0     H16178  -3.044  11.012  11.298 -0.8074 -0.0580  0.7636
  120MOL0     H16179  -3.099  10.850  11.305 -0.1257  1.1179  2.0576
  120MOL0     H16180  -3.338  10.958  11.238 -0.8430  1.5740  1.6682
  120MOL0     H16181  -3.271  11.099  11.308  0.3354  0.7004  0.5729
  120MOL0     H16182  -2.538  11.042  10.857  3.8296  3.1601  2.1244
  120MOL0     H16183  -2.301  10.978  10.880 -0.4600 -1.7585 -0.1216
  120MOL0     H16184  -1.924  10.864  10.801 -0.8153  0.5637 -1.8422
  120MOL0     H16185  -1.679  10.791  10.801  1.4844 -4.7504  1.5284
  120MOL0     H16186   0.307  10.964  10.517  0.2440  1.7157  1.9087
  120MOL0     H16187   0.506  10.843  10.550  1.7054  0.5542  2.7050
  120MOL0     H16188   0.966  10.726  10.704 -1.6340 -0.1089 -0.5352
  120MOL0     H16189   1.139  10.571  10.820  0.6043 -1.5708  0.1304
  120MOL0     H16190   0.963  10.290  11.113  0.5476  2.9633 -0.7837
  120MOL0     H16191   1.101  10.199  11.066  0.2265  0.0103  3.0890
  120MOL0     H16192   1.118  10.360  11.287  1.5670  3.3262  0.6154
  120MOL0     H16193   1.170  10.477  11.168 -0.9989  1.0941  1.5727
  120MOL0     H16194   1.339  10.298  11.089 -0.6793 -1.5977 -0.8821
  120MOL0     H16195   1.279  10.195  11.214  0.7473  0.5078 -0.5095
  120MOL0     H16196   1.483  10.310  11.299  2.2419  1.6095  0.1903
  120MOL0     H16197   1.338  10.359  11.382  0.3757 -2.2961  0.5239
  120MOL0     H16198   1.465  10.733  11.234  0.0593 -0.0330 -3.3253
  120MOL0     H16199   0.808  10.356  10.983  0.5446  1.3427  1.4759
  120MOL0     H16200   0.661  10.509  10.922  0.1119 -0.4260  0.0852
  121MOL0     O16201   1.188   2.836   1.613 -0.0328  0.9618 -0.0959
  121MOL0     C16202   1.183   2.722   1.654  0.0681 -0.2232  0.1236
  121MOL0     O16203   1.288   2.661   1.716  0.0310 -0.2756  0.4118
  121MOL0     C16204   1.413   2.723   1.740  0.5881 -0.4154  0.1349
  121MOL0     C16205   1.511   2.742   1.636  0.4215  0.4078 -0.7530
  121MOL0     C16206   1.627   2.807   1.663 -0.3536  0.0787 -0.3524
  121MOL0     C16207   1.648   2.867   1.785 -0.5569  0.3914 -1.3690
  121MOL0     O16208   1.763   2.940   1.789  0.3014  0.0476  0.4532
  121MOL0     C16209   1.751   3.066   1.867  0.2044 -0.2326  0.2383
  121MOL0     C16210   1.817   3.185   1.789  0.1739  0.2903 -0.0699
  121MOL0     C16211   1.772   3.321   1.840 -0.6992  0.3468 -0.7585
  121MOL0     C16212   1.871   3.427   1.799  0.8861  0.7190 -0.4613
  121MOL0     C16213   1.842   3.564   1.864  0.2441  0.1745 -0.7643
  121MOL0     C16214   1.702   3.627   1.817  0.0178 -0.5615 -0.0214
  121MOL0     C16215   1.681   3.657   1.665 -0.6943  0.2273 -0.0644
  121MOL0     C16216   1.803   3.710   1.590  0.3716  0.7591  0.0661
  121MOL0     N16217   1.782   3.695   1.443 -0.4738  0.4977 -0.3204
  121MOL0     C16218   1.876   3.715   1.348 -0.2205 -0.4727 -0.3713
  121MOL0     C16219   1.824   3.680   1.228 -0.6848 -0.0045 -0.0935
  121MOL0     C16220   1.910   3.685   1.104  0.1087 -0.0051  0.5653
  121MOL0     C16221   1.840   3.774   1.004  0.8849 -0.2541  0.4015
  121MOL0     C16222   1.743   3.692   0.916 -0.3574  0.1111  1.3724
  121MOL0     C16223   1.683   3.769   0.797  0.3178 -0.0823 -0.3307
  121MOL0     O16224   1.602   3.666   0.736  0.0709  1.0950  0.3917
  121MOL0     C16225   1.472   3.641   0.781  0.7782  0.3039  0.7608
  121MOL0     C16226   1.404   3.542   0.705  0.1266 -0.5048  0.6917
  121MOL0     C16227   1.271   3.510   0.731  0.7315  0.1498  0.1655
  121MOL0     C16228   1.205   3.421   0.624  0.4559  0.5411 -0.1190
  121MOL0     C16229   1.204   3.565   0.843 -0.1180 -0.3984  0.1546
  121MOL0     C16230   1.074   3.521   0.887 -0.2760 -0.4207 -0.0867
  121MOL0     O16231   1.011   3.601   0.978 -0.0860 -0.0948 -0.1493
  121MOL0     C16232   0.881   3.569   1.012  0.1266  0.1621  0.3527
  121MOL0     C16233   0.848   3.557   1.150  0.0899  0.1951  0.0871
  121MOL0     C16234   0.714   3.526   1.187 -0.3718 -0.1719 -0.4286
  121MOL0     C16235   0.611   3.529   1.087 -0.3710  0.2683 -0.2982
  121MOL0     O16236   0.473   3.514   1.115  0.3560  0.1168  0.0805
  121MOL0     C16237   0.429   3.556   1.245  0.5355  0.3592 -0.3085
  121MOL0     C16238   0.283   3.604   1.239  0.6340  0.6264  0.3974
  121MOL0     C16239   0.284   3.759   1.234  0.0858 -0.5709  0.5387
  121MOL0     C16240   0.129   3.814   1.204  0.0443  1.1035  0.1161
  121MOL0     C16241   0.050   3.872   1.330 -0.4083  0.7732  0.3386
  121MOL0     C16242   0.007   3.768   1.438  0.0078  0.3684  0.3173
  121MOL0     C16243  -0.083   3.844   1.533  0.1539 -0.8872 -0.5914
  121MOL0     C16244  -0.126   3.748   1.635 -0.3691 -0.1104 -0.6489
  121MOL0    Cl16245  -0.007   3.655   1.716  0.1570  0.1215  0.1079
  121MOL0     C16246   0.648   3.551   0.954  0.2889  0.1949  0.0431
  121MOL0     C16247   0.778   3.575   0.911  0.9921 -0.2818 -1.1157
  121MOL0     O16248   1.041   3.409   0.859 -0.4904  0.8045 -0.2647
  121MOL0     C16249   1.277   3.654   0.926  0.4191  0.0308  1.2744
  121MOL0     C16250   1.407   3.693   0.896 -0.4343  0.1436  0.7388
  121MOL0     N16251   1.690   3.668   1.241 -0.0791 -0.4379  0.5174
  121MOL0     N16252   1.674   3.663   1.370 -0.6154 -0.5709  1.0211
  121MOL0     C16253   1.552   2.850   1.887 -0.1318 -0.3531 -0.3905
  121MOL0     C16254   1.436   2.783   1.863 -0.4891 -1.2584 -0.0384
  121MOL0     C16255   1.053   2.646   1.640 -0.9815  0.2470  0.0766
  121MOL0     C16256   0.941   2.711   1.583 -0.6501  0.4519  0.1513
  121MOL0     C16257   0.810   2.654   1.585 -0.3720  0.4389  0.9083
  121MOL0     C16258   0.787   2.528   1.642  0.4773  0.0061  0.3424
  121MOL0     O16259   0.664   2.471   1.655  0.5647 -0.2725  0.5207
  121MOL0     C16260   0.546   2.548   1.624 -0.0950 -0.3741 -0.4359
  121MOL0     C16261   0.418   2.460   1.613  0.1436  0.0469 -0.1413
  121MOL0     C16262   0.322   2.502   1.726 -0.0544  0.6697 -0.0423
  121MOL0     C16263   0.173   2.472   1.710  0.1710 -0.3763 -0.4306
  121MOL0     C16264   0.114   2.525   1.590  0.8383 -0.2236 -0.5188
  121MOL0     C16265   0.055   2.565   1.492  0.5372 -0.4458  0.2541
  121MOL0     C16266   0.903   2.464   1.677  0.0384 -0.0087 -0.8420
  121MOL0     C16267   1.036   2.516   1.681  0.4535 -0.5002  1.3808
  121MOL0     H16268   1.495   2.698   1.538 -1.2529  0.6008 -0.5978
  121MOL0     H16269   1.705   2.825   1.589  1.7727  0.9607  1.9294
  121MOL0     H16270   1.651   3.104   1.886  1.2825  2.8957  0.2801
  121MOL0     H16271   1.805   3.046   1.960 -0.9673 -0.5117  0.8747
  121MOL0     H16272   1.926   3.178   1.798  0.0799 -3.0388 -0.0731
  121MOL0     H16273   1.781   3.179   1.686 -0.3785 -1.2715  0.1853
  121MOL0     H16274   1.668   3.338   1.808 -0.9677 -0.1860 -0.1985
  121MOL0     H16275   1.771   3.326   1.949  0.2981 -0.3762 -0.7095
  121MOL0     H16276   1.973   3.406   1.830  0.4714  1.0837  1.2910
  121MOL0     H16277   1.867   3.436   1.690  0.1482  4.2631 -0.2743
  121MOL0     H16278   1.848   3.555   1.973  0.0043  3.1625 -0.4181
  121MOL0     H16279   1.918   3.639   1.840  0.8845 -0.0004  0.6529
  121MOL0     H16280   1.622   3.558   1.844  1.0150 -1.7908 -0.1415
  121MOL0     H16281   1.697   3.721   1.873 -1.2249 -1.1960  0.9657
  121MOL0     H16282   1.652   3.568   1.608  0.7693  1.1358 -2.3950
  121MOL0     H16283   1.590   3.717   1.660 -0.2665  0.8620 -0.3854
  121MOL0     H16284   1.898   3.661   1.614  0.1398  0.4774  0.4212
  121MOL0     H16285   1.804   3.817   1.610  1.9062  0.9437 -0.8619
  121MOL0     H16286   1.982   3.731   1.369 -0.4034 -1.2698  1.4020
  121MOL0     H16287   2.012   3.720   1.127 -0.5184  1.5800  1.1017
  121MOL0     H16288   1.920   3.582   1.068  1.3950  0.0400  0.7527
  121MOL0     H16289   1.914   3.830   0.945 -1.3945  3.6662  0.8766
  121MOL0     H16290   1.781   3.849   1.059 -0.5688 -1.3010  0.3233
  121MOL0     H16291   1.664   3.662   0.985 -0.5638 -1.7597  0.4075
  121MOL0     H16292   1.784   3.598   0.878 -1.6285 -0.3515  1.0873
  121MOL0     H16293   1.761   3.808   0.730  1.0848  1.9099  1.6006
  121MOL0     H16294   1.630   3.858   0.833 -0.0437 -0.7580  0.8773
  121MOL0     H16295   1.460   3.500   0.623  0.2327  1.0115 -0.0568
  121MOL0     H16296   1.279   3.380   0.555  0.6864  0.3826  0.2200
  121MOL0     H16297   1.155   3.337   0.673  0.1913  1.2388  0.8331
  121MOL0     H16298   1.126   3.464   0.562 -0.3799 -0.4727  0.2125
  121MOL0     H16299   0.928   3.584   1.219  2.9740 -2.6769 -1.8067
  121MOL0     H16300   0.701   3.497   1.291 -2.4890  0.5767 -0.4467
  121MOL0     H16301   0.432   3.470   1.313  1.0112  1.0418  0.5536
  121MOL0     H16302   0.490   3.633   1.293 -1.1357  0.3641  1.9734
  121MOL0     H16303   0.236   3.561   1.151  0.9383 -3.4906  2.0278
  121MOL0     H16304   0.225   3.574   1.327 -0.1016 -0.3965 -0.4190
  121MOL0     H16305   0.363   3.791   1.165  0.9627 -0.1206  1.7088
  121MOL0     H16306   0.308   3.788   1.337  1.2788  0.3154  0.0328
  121MOL0     H16307   0.152   3.885   1.123 -0.4507 -0.9911 -1.9788
  121MOL0     H16308   0.080   3.731   1.153  1.7094  0.5478 -0.6562
  121MOL0     H16309  -0.043   3.905   1.281 -2.8887 -2.8929  2.1451
  121MOL0     H16310   0.099   3.960   1.373 -2.4184  2.4450 -0.5722
  121MOL0     H16311  -0.046   3.679   1.402  0.6223  0.2482 -0.3233
  121MOL0     H16312   0.098   3.744   1.494 -0.3902 -0.1376  0.7540
  121MOL0     H16313  -0.167   3.885   1.476  0.0443 -2.4367 -1.5961
  121MOL0     H16314  -0.031   3.922   1.589  0.5436 -1.5454 -0.0256
  121MOL0     H16315  -0.193   3.676   1.587 -4.0194  2.8036 -0.4540
  121MOL0     H16316  -0.180   3.815   1.704  3.5377  3.7921 -0.9138
  121MOL0     H16317   0.571   3.562   0.879  0.4536  0.1506 -0.1310
  121MOL0     H16318   0.791   3.611   0.809 -0.7428 -0.5090 -1.4527
  121MOL0     H16319   1.228   3.700   1.011 -1.2419  4.0080 -1.4939
  121MOL0     H16320   1.448   3.769   0.962  3.4380 -0.3649 -0.8109
  121MOL0     H16321   1.558   2.896   1.985  0.0579 -0.0809 -0.5278
  121MOL0     H16322   1.350   2.788   1.928  0.4735  2.4556  1.1846
  121MOL0     H16323   0.944   2.811   1.541  2.3988 -0.5196 -2.3060
  121MOL0     H16324   0.728   2.715   1.549  1.7162  2.0677 -1.4597
  121MOL0     H16325   0.539   2.619   1.707  0.1093 -0.6278 -0.1977
  121MOL0     H16326   0.551   2.599   1.527  2.2725  0.5772  0.1171
  121MOL0     H16327   0.442   2.356   1.638  5.7144  1.2173  0.9038
  121MOL0     H16328   0.383   2.465   1.510 -0.8856 -0.2945  0.1872
  121MOL0     H16329   0.335   2.610   1.743 -0.7130  1.0340 -1.6132
  121MOL0     H16330   0.351   2.458   1.821  0.2468 -0.4162 -0.6217
  121MOL0     H16331   0.121   2.488   1.805  1.2922 -2.2169  0.5571
  121MOL0     H16332   0.171   2.365   1.686  1.6008  0.1534 -3.3160
  121MOL0     H16333   0.013   2.602   1.401  2.4968  1.6412  0.0972
  121MOL0     H16334   0.888   2.359   1.701 -0.7460  0.4640  0.8786
  121MOL0     H16335   1.119   2.453   1.712 -0.1678 -0.5559  3.0182
  122MOL0     O16336   0.053  10.950   1.719 -0.3480  0.2243 -0.4007
  122MOL0     C16337   0.031  10.854   1.645 -0.2944  0.1513  0.1681
  122MOL0     O16338  -0.088  10.811   1.600 -0.3150 -0.0311  0.0498
  122MOL0     C16339  -0.203  10.881   1.619  0.3640  0.9765  0.2459
  122MOL0     C16340  -0.198  11.024   1.625  0.1649  0.2399 -0.1339
  122MOL0     C16341  -0.317  11.095   1.653 -0.7997  0.3586  0.2238
  122MOL0     C16342  -0.443  11.039   1.655 -0.0344 -0.3357  0.3917
  122MOL0     O16343  -0.562  11.105   1.656  0.1557  0.5641 -0.6939
  122MOL0     C16344  -0.591  11.180   1.778 -0.0362 -0.1729  0.3636
  122MOL0     C16345  -0.730  11.233   1.764  0.1880  0.9714  0.3131
  122MOL0     C16346  -0.759  11.286   1.903  0.0406 -0.6512 -0.3416
  122MOL0     C16347  -0.880  11.367   1.883 -0.2893 -0.1795 -0.2663
  122MOL0     C16348  -0.949  11.412   2.015  0.4265  0.1998  0.1503
  122MOL0     C16349  -1.081  11.470   1.985  0.9920 -0.4664  0.7407
  122MOL0     C16350  -1.156  11.513   2.111  0.0916 -0.1068  0.6634
  122MOL0     C16351  -1.262  11.628   2.098 -0.5903  0.4335 -0.5422
  122MOL0     N16352  -1.365  11.624   1.999 -0.1872 -0.4672 -0.2470
  122MOL0     C16353  -1.443  11.511   1.971  0.0656  1.2878 -0.0519
  122MOL0     C16354  -1.545  11.553   1.894  0.1318  0.3006 -0.3165
  122MOL0     C16355  -1.657  11.464   1.848  0.2522  0.2185 -1.2943
  122MOL0     C16356  -1.752  11.448   1.976  0.1013 -0.3644 -0.4416
  122MOL0     C16357  -1.887  11.389   1.940 -1.0542  0.6961 -0.0673
  122MOL0     C16358  -1.968  11.387   2.072  0.8779  0.6892 -0.6236
  122MOL0     O16359  -2.017  11.513   2.115 -0.0507 -0.9252 -0.1453
  122MOL0     C16360  -2.142  11.555   2.080 -0.4089  0.3837  0.4210
  122MOL0     C16361  -2.199  11.498   1.971  0.2594  0.1081 -0.1241
  122MOL0     C16362  -2.323  11.541   1.922 -0.0739  0.4311  0.5670
  122MOL0     C16363  -2.377  11.466   1.800  0.0417  0.0597 -0.1196
  122MOL0     C16364  -2.394  11.636   1.994  0.2046 -0.2851 -0.6120
  122MOL0     C16365  -2.534  11.678   1.964  0.3855 -0.4770  0.9402
  122MOL0     O16366  -2.617  11.677   2.080  0.0500 -0.3580 -0.3290
  122MOL0     C16367  -2.737  11.734   2.057 -0.6632 -0.3127 -0.2976
  122MOL0     C16368  -2.768  11.852   2.117  0.7944  0.0223 -0.6030
  122MOL0     C16369  -2.892  11.906   2.112  0.2888  0.1309 -0.0851
  122MOL0     C16370  -3.002  11.848   2.043  0.5546 -0.4043 -0.0322
  122MOL0     O16371  -3.116  11.927   2.048 -0.1317  0.1332 -0.1819
  122MOL0     C16372  -3.232  11.896   1.964 -0.1630  0.1326  0.1862
  122MOL0     C16373  -3.342  11.851   2.055 -0.8697 -0.2954 -0.5268
  122MOL0     C16374  -3.469  11.814   1.978 -0.2373  0.8707  0.3697
  122MOL0     C16375  -3.562  11.939   1.974 -0.1371  0.1934 -0.0595
  122MOL0     C16376  -3.701  11.903   1.917 -0.4539 -0.6513  0.0257
  122MOL0     C16377  -3.802  12.023   1.949 -0.1467  0.1150 -0.1179
  122MOL0     C16378  -3.944  11.999   1.894 -0.1685  0.1822  0.1019
  122MOL0     C16379  -4.038  12.110   1.953  0.3483  0.8423 -0.1741
  122MOL0    Cl16380  -3.985  12.273   1.887  0.2407 -0.0771 -0.6349
  122MOL0     C16381  -2.970  11.739   1.965 -0.2213  0.3662 -0.7389
  122MOL0     C16382  -2.838  11.673   1.979 -0.6101 -0.4461  0.2668
  122MOL0     O16383  -2.575  11.705   1.849  0.0949  0.3380 -0.2911
  122MOL0     C16384  -2.327  11.707   2.103 -0.5272  0.1322 -0.0225
  122MOL0     C16385  -2.203  11.666   2.140 -1.0572 -0.3241  0.7956
  122MOL0     N16386  -1.536  11.691   1.886  0.2564 -0.0048  0.3576
  122MOL0     N16387  -1.431  11.729   1.953 -0.6065  1.0218  0.5380
  122MOL0     C16388  -0.448  10.896   1.647 -0.6096 -0.2036 -0.1160
  122MOL0     C16389  -0.328  10.814   1.642 -0.3242 -0.7956 -0.4053
  122MOL0     C16390   0.150  10.763   1.611 -0.7441  0.4835  0.0313
  122MOL0     C16391   0.274  10.787   1.675  0.8223  0.3490  0.1418
  122MOL0     C16392   0.386  10.718   1.637 -0.3114 -0.6544 -0.4195
  122MOL0     C16393   0.377  10.622   1.535 -0.4504  0.1705  0.1035
  122MOL0     O16394   0.480  10.550   1.477  0.0558  0.7817  0.1458
  122MOL0     C16395   0.616  10.583   1.485  0.0182 -0.2273 -0.7370
  122MOL0     C16396   0.695  10.536   1.364 -0.0038  0.1437  0.3827
  122MOL0     C16397   0.712  10.381   1.378 -0.4220  0.5581  0.0765
  122MOL0     C16398   0.799  10.300   1.273  0.0187 -0.8109  0.7816
  122MOL0     C16399   0.931  10.363   1.239  0.1946  0.2808  0.5762
  122MOL0     C16400   1.037  10.397   1.205  0.1110 -0.5998  0.2420
  122MOL0     C16401   0.251  10.589   1.479  0.1950 -0.5770  0.3498
  122MOL0     C16402   0.144  10.654   1.522  1.7874  0.3746  0.9986
  122MOL0     H16403  -0.111  11.086   1.607 -0.0726  0.3765 -0.8455
  122MOL0     H16404  -0.303  11.202   1.665 -3.5249  0.5690  2.7745
  122MOL0     H16405  -0.588  11.112   1.864  1.2852  0.4412  0.8191
  122MOL0     H16406  -0.520  11.261   1.795  0.8741 -0.6277 -1.1153
  122MOL0     H16407  -0.728  11.308   1.684  1.8210  0.6664  0.0157
  122MOL0     H16408  -0.790  11.147   1.732  3.4075 -1.4273  0.1829
  122MOL0     H16409  -0.778  11.204   1.972  1.7867 -0.8142 -0.0036
  122MOL0     H16410  -0.681  11.349   1.947  1.8501 -1.0385 -2.7243
  122MOL0     H16411  -0.858  11.455   1.822 -1.6709  2.0070  2.1881
  122MOL0     H16412  -0.946  11.299   1.829 -1.7569 -1.6657  3.1116
  122MOL0     H16413  -0.954  11.327   2.083  2.8179 -2.2685 -2.4895
  122MOL0     H16414  -0.876  11.479   2.061  3.8268 -1.9373 -1.6877
  122MOL0     H16415  -1.058  11.560   1.927  1.4327 -0.6101  0.6832
  122MOL0     H16416  -1.159  11.406   1.943  1.0182 -1.2927  1.8957
  122MOL0     H16417  -1.215  11.431   2.152 -1.3564  2.0761  3.2952
  122MOL0     H16418  -1.087  11.549   2.188 -0.1042  4.9650 -1.1411
  122MOL0     H16419  -1.211  11.725   2.092  1.3557 -0.3605  1.6426
  122MOL0     H16420  -1.315  11.626   2.193  0.0792  2.4699 -0.0866
  122MOL0     H16421  -1.426  11.407   1.999 -3.0825  0.3051 -1.3700
  122MOL0     H16422  -1.705  11.513   1.762  1.6972  2.9749 -0.6323
  122MOL0     H16423  -1.615  11.368   1.817 -2.7939 -0.7574 -2.8865
  122MOL0     H16424  -1.776  11.544   2.021 -2.0134  0.3319 -2.8300
  122MOL0     H16425  -1.707  11.376   2.046 -0.5018 -0.8910 -0.5809
  122MOL0     H16426  -1.871  11.284   1.912  2.9225  0.6412  1.6997
  122MOL0     H16427  -1.933  11.447   1.860  0.3198  1.1737 -0.5357
  122MOL0     H16428  -1.911  11.346   2.156 -0.8640 -1.1448 -0.2736
  122MOL0     H16429  -2.055  11.321   2.078 -0.0946  1.9297 -0.6013
  122MOL0     H16430  -2.157  11.410   1.923  0.2727  0.9300 -1.6934
  122MOL0     H16431  -2.303  11.395   1.761  0.5672 -1.0936  2.7146
  122MOL0     H16432  -2.466  11.414   1.834  1.2594 -1.4800  0.8404
  122MOL0     H16433  -2.391  11.542   1.722 -1.7256  0.3619  0.4502
  122MOL0     H16434  -2.687  11.905   2.167 -0.4135  2.2382 -0.9145
  122MOL0     H16435  -2.919  11.994   2.170 -0.7419  0.2607 -0.7310
  122MOL0     H16436  -3.280  11.980   1.914 -1.5579 -1.2220 -0.8253
  122MOL0     H16437  -3.212  11.814   1.895  1.9078 -0.1306  1.0237
  122MOL0     H16438  -3.308  11.763   2.112 -3.4965 -0.7805  0.4055
  122MOL0     H16439  -3.354  11.941   2.116  0.4682 -0.8547  0.6220
  122MOL0     H16440  -3.524  11.732   2.024 -3.2678  0.6924 -3.1054
  122MOL0     H16441  -3.443  11.794   1.873 -3.0552 -0.0314 -0.2519
  122MOL0     H16442  -3.574  11.965   2.079 -0.2242  0.2069 -0.0727
  122MOL0     H16443  -3.518  12.022   1.919 -0.9063 -0.2696 -1.4408
  122MOL0     H16444  -3.737  11.815   1.971 -1.0349 -1.1824 -1.1764
  122MOL0     H16445  -3.699  11.859   1.817  0.8453 -0.9049  0.1422
  122MOL0     H16446  -3.791  12.031   2.058  1.3654  3.0328 -0.3916
  122MOL0     H16447  -3.758  12.112   1.903 -0.2413 -0.0064 -0.4442
  122MOL0     H16448  -3.987  11.904   1.927 -3.8799  1.1546 -1.4047
  122MOL0     H16449  -3.930  11.992   1.786  1.3931 -0.3760  0.3127
  122MOL0     H16450  -4.033  12.099   2.061 -0.1300  0.3100 -0.1961
  122MOL0     H16451  -4.144  12.099   1.925  0.4335 -3.3820  0.4970
  122MOL0     H16452  -3.030  11.683   1.895  0.1432  0.0598 -0.8062
  122MOL0     H16453  -2.813  11.583   1.923  0.9392 -0.1954  0.5140
  122MOL0     H16454  -2.379  11.782   2.161  0.5313 -1.5857  3.3841
  122MOL0     H16455  -2.152  11.715   2.222 -1.3148  2.0938 -0.4087
  122MOL0     H16456  -0.546  10.851   1.658  0.6026 -2.5964  1.9612
  122MOL0     H16457  -0.343  10.706   1.645  0.8531 -0.9499  0.7201
  122MOL0     H16458   0.280  10.864   1.752  2.8019  1.2271 -0.8304
  122MOL0     H16459   0.482  10.745   1.679  0.7870 -1.6957 -2.1633
  122MOL0     H16460   0.622  10.692   1.481  0.2002 -0.2458 -1.0246
  122MOL0     H16461   0.667  10.559   1.579  0.3989  0.6532 -0.7049
  122MOL0     H16462   0.793  10.583   1.366  0.0110  0.3197 -1.7098
  122MOL0     H16463   0.642  10.560   1.271  0.6606 -0.4104 -0.1513
  122MOL0     H16464   0.610  10.342   1.376 -0.0162 -0.5677  0.1136
  122MOL0     H16465   0.754  10.373   1.479  0.0882  0.9438 -0.1020
  122MOL0     H16466   0.748  10.286   1.178 -0.8506  2.2352  0.6889
  122MOL0     H16467   0.826  10.201   1.312 -0.0647 -2.0409 -2.0213
  122MOL0     H16468   1.136  10.427   1.176 -0.1597  0.7898  0.6748
  122MOL0     H16469   0.243  10.525   1.391  1.1411 -1.8005  1.1201
  122MOL0     H16470   0.045  10.631   1.484  2.3824  0.0891 -0.4823
  123MOL0     O16471   1.485   1.916   7.571 -0.0027  0.6388 -0.3494
  123MOL0     C16472   1.517   2.000   7.490 -0.1797 -0.1201 -0.2891
  123MOL0     O16473   1.423   2.067   7.412 -0.3297  0.5893  0.4061
  123MOL0     C16474   1.295   2.037   7.433  0.6902 -0.1736  0.1241
  123MOL0     C16475   1.212   2.135   7.500 -0.6389 -0.1969  0.1577
  123MOL0     C16476   1.080   2.101   7.519 -0.6591  0.4976 -1.1842
  123MOL0     C16477   1.019   1.975   7.482  0.2483 -0.1607  0.2186
  123MOL0     O16478   0.880   1.953   7.497 -1.0785  0.0119  0.2795
  123MOL0     C16479   0.814   1.849   7.431 -0.1762  0.0057  0.1706
  123MOL0     C16480   0.659   1.863   7.463  0.1712 -0.3431  1.2863
  123MOL0     C16481   0.577   1.789   7.359 -0.6213  0.5647 -0.1955
  123MOL0     C16482   0.425   1.798   7.400 -0.5665  0.2910 -0.0007
  123MOL0     C16483   0.338   1.720   7.298 -0.6413 -0.0104 -0.5827
  123MOL0     C16484   0.187   1.771   7.300  0.0903  0.4147  0.5397
  123MOL0     C16485   0.103   1.738   7.178  0.0442 -0.1649 -0.2928
  123MOL0     C16486   0.061   1.587   7.188 -0.1730 -1.6706  0.3191
  123MOL0     N16487  -0.042   1.552   7.280 -0.3688  0.5740  0.5191
  123MOL0     C16488  -0.093   1.421   7.284 -0.3453  0.1175  0.1708
  123MOL0     C16489  -0.181   1.431   7.383  0.5784  0.4439  0.0107
  123MOL0     C16490  -0.282   1.319   7.412 -0.0312  0.1744  0.1864
  123MOL0     C16491  -0.400   1.305   7.305 -0.3387  0.9096 -0.4491
  123MOL0     C16492  -0.493   1.429   7.327  0.6249  0.0272 -0.3755
  123MOL0     C16493  -0.624   1.427   7.255 -0.2292  0.4559  0.1797
  123MOL0     O16494  -0.711   1.317   7.291  0.0043 -0.5110 -0.1690
  123MOL0     C16495  -0.825   1.306   7.209  0.7248 -0.2719  0.7357
  123MOL0     C16496  -0.883   1.397   7.118 -0.4001  0.3148  0.1016
  123MOL0     C16497  -0.996   1.364   7.038 -0.8023  1.1093 -0.8736
  123MOL0     C16498  -1.027   1.466   6.931 -0.0298  0.7530 -1.0346
  123MOL0     C16499  -1.071   1.246   7.067  0.6649 -0.1275  0.1954
  123MOL0     C16500  -1.203   1.212   6.998  0.3762 -0.1108 -0.4376
  123MOL0     O16501  -1.235   1.084   6.977 -0.1535 -0.1396  0.3822
  123MOL0     C16502  -1.367   1.061   6.999  0.3177  0.0415  0.1972
  123MOL0     C16503  -1.417   1.085   7.126 -0.5707 -0.4300  0.2740
  123MOL0     C16504  -1.547   1.041   7.157  0.4632  0.7992  0.3385
  123MOL0     C16505  -1.636   0.991   7.061  0.2459  0.2336  0.5382
  123MOL0     O16506  -1.757   0.972   7.118 -0.2699 -0.2602 -0.0219
  123MOL0     C16507  -1.864   0.973   7.029  0.3133  0.4059 -0.7381
  123MOL0     C16508  -1.978   0.888   7.099  0.6645 -0.0995  0.4168
  123MOL0     C16509  -1.931   0.749   7.137  0.3305 -0.4828  0.4107
  123MOL0     C16510  -2.058   0.653   7.144 -0.2095  0.2682 -0.3702
  123MOL0     C16511  -2.023   0.506   7.181  0.5821 -0.2026  0.0572
  123MOL0     C16512  -2.156   0.424   7.218 -0.1994 -0.3479  0.1334
  123MOL0     C16513  -2.114   0.291   7.300 -0.1995  0.2694  0.1509
  123MOL0     C16514  -2.229   0.183   7.321  0.0047 -0.2245  0.2106
  123MOL0    Cl16515  -2.396   0.255   7.336 -0.4391  0.3777 -0.1839
  123MOL0     C16516  -1.581   0.967   6.933 -0.1100 -0.2934  0.5726
  123MOL0     C16517  -1.449   0.995   6.906 -0.3577  0.0024  0.8892
  123MOL0     O16518  -1.272   1.314   6.972  0.7175 -0.4079  0.9192
  123MOL0     C16519  -1.004   1.163   7.158 -0.2595  0.2252  0.4872
  123MOL0     C16520  -0.885   1.185   7.228 -0.3450 -0.2162  0.3428
  123MOL0     N16521  -0.191   1.550   7.436  0.1935 -0.7454 -0.0140
  123MOL0     N16522  -0.093   1.616   7.384 -0.3070  0.6278 -0.3975
  123MOL0     C16523   1.102   1.889   7.420  0.8016  0.0355  0.3910
  123MOL0     C16524   1.235   1.917   7.392 -0.2229  0.1121  0.3669
  123MOL0     C16525   1.656   2.034   7.489 -0.6680 -0.2557  0.5223
  123MOL0     C16526   1.757   1.941   7.533 -0.0200  0.0653 -0.6879
  123MOL0     C16527   1.894   1.967   7.511 -0.1625  0.2955  0.1430
  123MOL0     C16528   1.934   2.075   7.433 -0.1048 -0.4154  0.6456
  123MOL0     O16529   2.067   2.117   7.409 -0.4593 -0.2778  0.1130
  123MOL0     C16530   2.120   2.063   7.288  0.2624 -0.2676 -0.5166
  123MOL0     C16531   2.232   2.148   7.238  0.6091 -0.2691  0.3606
  123MOL0     C16532   2.274   2.134   7.086 -0.1257 -0.6731 -0.0321
  123MOL0     C16533   2.353   2.258   7.033  0.7712  0.3132  0.3631
  123MOL0     C16534   2.444   2.319   7.126  0.4106 -0.0077 -0.0550
  123MOL0     C16535   2.515   2.387   7.194  0.0336 -0.0563  0.1236
  123MOL0     C16536   1.828   2.167   7.390 -0.3884 -0.0978 -0.4713
  123MOL0     C16537   1.698   2.152   7.416  0.3403  0.4438 -0.1872
  123MOL0     H16538   1.249   2.232   7.531 -0.4304 -0.0571 -0.5048
  123MOL0     H16539   1.024   2.171   7.581  2.6948  0.8768  1.7500
  123MOL0     H16540   0.830   1.861   7.323  0.7847 -0.9781  0.1788
  123MOL0     H16541   0.862   1.755   7.461  1.9671  0.7151 -0.8001
  123MOL0     H16542   0.638   1.827   7.565 -0.8942  0.8934  1.5265
  123MOL0     H16543   0.628   1.968   7.461 -0.8832 -0.6461 -0.4816
  123MOL0     H16544   0.595   1.836   7.262  1.0567 -0.2771 -0.3163
  123MOL0     H16545   0.603   1.683   7.361  0.8449  0.7508 -3.3139
  123MOL0     H16546   0.422   1.763   7.503 -0.4632  1.9046  0.5722
  123MOL0     H16547   0.394   1.903   7.405  1.6765  1.1515 -2.0961
  123MOL0     H16548   0.389   1.741   7.203 -0.0726  1.9049  0.1070
  123MOL0     H16549   0.357   1.614   7.317  0.2516  0.1856 -0.3674
  123MOL0     H16550   0.131   1.743   7.390 -0.1476 -1.5173 -0.1651
  123MOL0     H16551   0.191   1.880   7.303  0.2564  0.3971  1.1233
  123MOL0     H16552   0.012   1.799   7.183  0.7873  0.8692  2.1556
  123MOL0     H16553   0.164   1.768   7.092  2.1985  2.1312  1.8444
  123MOL0     H16554   0.152   1.529   7.209  0.7658 -0.6350 -0.7289
  123MOL0     H16555   0.023   1.551   7.092 -0.9421 -0.6968  0.2549
  123MOL0     H16556  -0.101   1.333   7.221  0.8039 -0.1149  0.3200
  123MOL0     H16557  -0.233   1.221   7.413 -0.0840  0.1073 -1.2609
  123MOL0     H16558  -0.310   1.330   7.517  0.2162  1.0661  0.1649
  123MOL0     H16559  -0.451   1.213   7.332 -4.2508  2.9633 -0.0840
  123MOL0     H16560  -0.367   1.290   7.202 -1.0654  1.4989 -0.7821
  123MOL0     H16561  -0.445   1.525   7.307  1.1820  0.5053  2.7340
  123MOL0     H16562  -0.502   1.429   7.436  4.5341 -1.3705  0.0975
  123MOL0     H16563  -0.605   1.414   7.149 -2.9467  1.2484 -0.4885
  123MOL0     H16564  -0.667   1.525   7.279  0.5730  0.9307 -0.2950
  123MOL0     H16565  -0.852   1.500   7.108 -0.5818  0.6643  2.5185
  123MOL0     H16566  -0.940   1.522   6.896 -0.2539  0.2148 -2.5232
  123MOL0     H16567  -1.078   1.418   6.847 -1.7847  1.8666 -0.6586
  123MOL0     H16568  -1.099   1.534   6.977 -0.9807 -1.4335  0.8986
  123MOL0     H16569  -1.349   1.113   7.206  0.6905  0.3497 -1.0152
  123MOL0     H16570  -1.575   1.044   7.262 -0.8064 -1.0092  0.1071
  123MOL0     H16571  -1.909   1.072   7.018  1.2307  0.6869 -2.1587
  123MOL0     H16572  -1.835   0.924   6.936 -1.6740  1.0145 -1.7391
  123MOL0     H16573  -2.020   0.946   7.182 -3.7392 -0.7210 -1.1074
  123MOL0     H16574  -2.054   0.875   7.021  1.5536 -1.6571 -0.2321
  123MOL0     H16575  -1.864   0.746   7.223  0.5550  0.3111  0.2730
  123MOL0     H16576  -1.878   0.719   7.046 -2.5463  2.4228 -2.5309
  123MOL0     H16577  -2.137   0.695   7.207  3.5037  1.8809  3.7034
  123MOL0     H16578  -2.096   0.660   7.041 -3.3961 -0.2307  0.6836
  123MOL0     H16579  -1.953   0.510   7.265  1.6285 -3.3744 -0.5169
  123MOL0     H16580  -1.974   0.456   7.097  0.7635  1.2343 -0.7242
  123MOL0     H16581  -2.228   0.491   7.267 -0.4085 -0.6288  0.2083
  123MOL0     H16582  -2.204   0.397   7.123  0.9844  1.8855 -1.2007
  123MOL0     H16583  -2.067   0.314   7.396  0.9651 -0.7047 -0.1684
  123MOL0     H16584  -2.039   0.245   7.236  0.6737  3.2222 -1.0742
  123MOL0     H16585  -2.213   0.129   7.414 -0.2571 -2.5957 -1.0526
  123MOL0     H16586  -2.235   0.106   7.243  0.1531 -1.3285  1.2637
  123MOL0     H16587  -1.655   0.946   6.857 -0.7455 -2.9844  1.8000
  123MOL0     H16588  -1.406   0.988   6.807  0.2462 -0.2759  1.1670
  123MOL0     H16589  -1.048   1.066   7.180 -0.9128 -0.1224 -2.0285
  123MOL0     H16590  -0.838   1.111   7.292 -0.0373 -0.4520 -0.1498
  123MOL0     H16591   1.071   1.797   7.372 -1.0201  0.8516 -0.0958
  123MOL0     H16592   1.289   1.841   7.336 -0.8764 -0.7532  0.8896
  123MOL0     H16593   1.731   1.855   7.594  3.0213 -0.1687  0.4424
  123MOL0     H16594   1.962   1.901   7.565 -0.9235 -1.5320 -1.0277
  123MOL0     H16595   2.147   1.958   7.300  0.9962  0.1408  1.8654
  123MOL0     H16596   2.043   2.065   7.210 -3.2956  0.6195  2.7074
  123MOL0     H16597   2.314   2.128   7.308 -1.3605  0.3604  3.0151
  123MOL0     H16598   2.201   2.252   7.245  1.8533  0.0377  2.3853
  123MOL0     H16599   2.192   2.115   7.016 -1.3470 -0.2281  1.2323
  123MOL0     H16600   2.347   2.054   7.074  0.2328 -0.1227 -1.9354
  123MOL0     H16601   2.280   2.333   7.001  0.9339  0.9746  1.4836
  123MOL0     H16602   2.411   2.219   6.949  0.6853 -0.9998  0.8946
  123MOL0     H16603   2.581   2.435   7.263 -0.2883 -0.8553  1.0110
  123MOL0     H16604   1.859   2.251   7.328 -0.9311  0.3339 -0.1660
  123MOL0     H16605   1.627   2.227   7.380  0.9962 -0.5600 -3.9627
  124MOL0     O16606   6.986   6.040  10.155 -0.3026 -1.3598 -0.0274
  124MOL0     C16607   7.020   6.084  10.046  0.0098 -0.4107  0.7297
  124MOL0     O16608   6.939   6.141   9.950  0.1243 -0.8139 -0.1385
  124MOL0     C16609   6.818   6.199   9.980  1.1341 -0.0310 -0.0733
  124MOL0     C16610   6.729   6.166  10.084 -0.5121  0.3407 -1.1506
  124MOL0     C16611   6.608   6.239  10.093  0.2692 -0.4168 -1.5791
  124MOL0     C16612   6.569   6.329   9.991  0.3488 -0.3822  0.2928
  124MOL0     O16613   6.446   6.390   9.989  0.4790 -0.3139  0.1528
  124MOL0     C16614   6.362   6.382  10.106 -1.1385  0.0287  0.5142
  124MOL0     C16615   6.237   6.474  10.106 -0.5048  0.5328  0.7122
  124MOL0     C16616   6.171   6.496  10.242  0.1016 -0.0998 -0.0891
  124MOL0     C16617   6.058   6.593  10.214 -0.8086  0.2894  0.3875
  124MOL0     C16618   5.981   6.618  10.340 -0.5654  0.0403  0.3410
  124MOL0     C16619   5.851   6.686  10.300  0.0039  0.9712 -0.3060
  124MOL0     C16620   5.775   6.725  10.427 -0.2799  0.2352 -0.3802
  124MOL0     C16621   5.663   6.824  10.390  0.1699  0.4505  0.3397
  124MOL0     N16622   5.538   6.755  10.342  0.1533  0.4335  0.8206
  124MOL0     C16623   5.485   6.713  10.219  0.2171  0.8668  0.3632
  124MOL0     C16624   5.358   6.671  10.248 -1.4283 -0.4917  0.4309
  124MOL0     C16625   5.251   6.633  10.160  0.0691 -0.1202  0.4331
  124MOL0     C16626   5.117   6.606  10.232 -0.8674 -0.3966 -0.3267
  124MOL0     C16627   5.043   6.719  10.306  0.8516  0.1577 -0.1512
  124MOL0     C16628   4.893   6.689  10.339 -1.1036 -0.7410  0.2296
  124MOL0     O16629   4.815   6.740  10.230  1.1324  0.0251  0.1545
  124MOL0     C16630   4.683   6.731  10.254  0.7397 -1.2367 -0.1820
  124MOL0     C16631   4.603   6.628  10.208  0.3308 -0.2216  0.3758
  124MOL0     C16632   4.458   6.640  10.227 -0.3493 -0.1443 -1.0316
  124MOL0     C16633   4.373   6.520  10.179  0.1128  0.5258 -0.2053
  124MOL0     C16634   4.397   6.755  10.278 -0.0982 -0.0964  0.3431
  124MOL0     C16635   4.250   6.772  10.295  0.0648 -0.3847  0.1634
  124MOL0     O16636   4.219   6.903  10.260 -0.2863 -1.0421  0.0042
  124MOL0     C16637   4.098   6.939  10.305 -0.2305  0.2309  1.0571
  124MOL0     C16638   3.972   6.919  10.243 -0.7184  0.4231  0.3530
  124MOL0     C16639   3.851   6.973  10.284 -0.3524  0.6283  0.1475
  124MOL0     C16640   3.845   7.053  10.402  0.3206  0.7933 -1.0636
  124MOL0     O16641   3.728   7.119  10.430  1.2795  0.5785  0.0096
  124MOL0     C16642   3.721   7.244  10.509 -0.4541  0.0331 -0.3761
  124MOL0     C16643   3.583   7.292  10.560  0.9592  0.4793  0.3406
  124MOL0     C16644   3.493   7.326  10.448 -0.2654 -0.2623 -0.5494
  124MOL0     C16645   3.358   7.374  10.499 -0.1094 -0.3456 -0.2023
  124MOL0     C16646   3.268   7.411  10.383  0.0213 -0.2886 -1.3705
  124MOL0     C16647   3.129   7.440  10.437  0.6312 -0.0002  0.3250
  124MOL0     C16648   3.041   7.466  10.318 -0.3224 -0.1242 -0.3021
  124MOL0     C16649   2.897   7.486  10.369  0.0058  0.9573  0.9658
  124MOL0    Cl16650   2.786   7.478  10.230  0.3468 -0.5450  0.3015
  124MOL0     C16651   3.962   7.072  10.478  0.0085 -0.5234  0.8705
  124MOL0     C16652   4.087   7.014  10.424 -0.1978  0.2204 -0.1103
  124MOL0     O16653   4.175   6.679  10.319 -0.3533 -0.5960  1.1083
  124MOL0     C16654   4.487   6.851  10.337  0.4076  0.9255  0.2972
  124MOL0     C16655   4.626   6.840  10.321 -0.8917  0.9247  0.1712
  124MOL0     N16656   5.343   6.680  10.384 -0.1263  0.2324 -0.0590
  124MOL0     N16657   5.443   6.736  10.429  0.1296  0.7932 -0.2140
  124MOL0     C16658   6.660   6.360   9.893 -0.9838  0.0393  0.1349
  124MOL0     C16659   6.783   6.303   9.897  0.0602 -0.8244 -0.2353
  124MOL0     C16660   7.161   6.062  10.009  0.0634 -0.1373 -0.4045
  124MOL0     C16661   7.257   5.994  10.088  0.0582 -0.0055  0.0763
  124MOL0     C16662   7.392   5.966  10.047  0.1029 -0.3134  0.2053
  124MOL0     C16663   7.439   6.030   9.925 -0.8306  0.0291 -0.2869
  124MOL0     O16664   7.577   6.033   9.886  0.2337  0.4314 -0.0577
  124MOL0     C16665   7.659   5.918   9.920 -0.0249  0.7173  0.5258
  124MOL0     C16666   7.781   5.917   9.820  0.0518  0.3467  0.5004
  124MOL0     C16667   7.747   5.856   9.676  0.0407  0.5493 -0.0333
  124MOL0     C16668   7.842   5.756   9.617  0.2184  0.0809 -0.1591
  124MOL0     C16669   7.822   5.624   9.677 -0.1891 -0.4447 -0.9972
  124MOL0     C16670   7.799   5.523   9.743  0.6635 -0.2084  0.2855
  124MOL0     C16671   7.343   6.100   9.842  0.4115  0.5545  0.2477
  124MOL0     C16672   7.210   6.107   9.883  0.7127  0.5448  1.0235
  124MOL0     H16673   6.760   6.090  10.154  0.7036 -0.1343 -2.1587
  124MOL0     H16674   6.539   6.217  10.175  0.5612  1.1178 -0.8855
  124MOL0     H16675   6.341   6.275  10.110  2.7149 -0.8389  0.6889
  124MOL0     H16676   6.419   6.406  10.196  2.2456 -1.7150 -0.9759
  124MOL0     H16677   6.269   6.569  10.064  2.0123 -0.3583  0.4019
  124MOL0     H16678   6.164   6.430  10.038 -0.5797  3.6167 -1.3836
  124MOL0     H16679   6.130   6.400  10.274  1.3145 -0.0675  1.7759
  124MOL0     H16680   6.236   6.528  10.325 -0.1158 -0.4146  0.2075
  124MOL0     H16681   6.081   6.693  10.177 -2.6911 -0.0098 -1.8189
  124MOL0     H16682   5.999   6.547  10.135  0.0677  0.7380 -0.5446
  124MOL0     H16683   5.954   6.528  10.395 -0.1866  0.9792  2.1164
  124MOL0     H16684   6.037   6.676  10.414 -4.1478  1.1775  2.3778
  124MOL0     H16685   5.861   6.778  10.243 -0.1277  0.6814 -0.8016
  124MOL0     H16686   5.792   6.616  10.241 -0.5876 -1.0263  2.4253
  124MOL0     H16687   5.747   6.632  10.478  2.8191  0.0662  1.2180
  124MOL0     H16688   5.841   6.781  10.493  0.8644 -2.5629  1.0263
  124MOL0     H16689   5.696   6.902  10.321  1.5511  0.0941  0.5813
  124MOL0     H16690   5.647   6.870  10.488 -0.0377  0.6823  0.1969
  124MOL0     H16691   5.534   6.720  10.123  0.1453  2.3526  0.4084
  124MOL0     H16692   5.229   6.707  10.082 -0.4352  1.6895  2.2044
  124MOL0     H16693   5.285   6.537  10.121  0.7901 -0.1952  1.2180
  124MOL0     H16694   5.128   6.523  10.303  0.5473  1.4976  1.8038
  124MOL0     H16695   5.051   6.570  10.153  0.2116 -2.8509 -0.2036
  124MOL0     H16696   5.057   6.817  10.260 -1.4441  3.8071  5.6600
  124MOL0     H16697   5.089   6.737  10.404 -1.6998  0.0281  1.1692
  124MOL0     H16698   4.864   6.748  10.427 -0.6514 -0.0447 -0.0808
  124MOL0     H16699   4.871   6.583  10.358 -0.2484 -0.9305  0.2095
  124MOL0     H16700   4.638   6.537  10.160  2.9788 -0.5572  2.6978
  124MOL0     H16701   4.278   6.554  10.135 -0.4544  0.2643  0.7797
  124MOL0     H16702   4.417   6.468  10.094 -3.0559 -1.7780 -0.6433
  124MOL0     H16703   4.355   6.451  10.262  2.9832 -0.3280 -0.1780
  124MOL0     H16704   3.966   6.869  10.146 -0.4300  1.2587 -0.1045
  124MOL0     H16705   3.759   6.955  10.230  0.4433  0.6459 -1.2475
  124MOL0     H16706   3.774   7.226  10.603  0.7496  3.7159 -0.1578
  124MOL0     H16707   3.767   7.330  10.458 -0.6660 -0.2504 -1.0530
  124MOL0     H16708   3.532   7.210  10.610 -2.2228  2.3628  0.4592
  124MOL0     H16709   3.588   7.371  10.636  0.3244 -1.1992  2.1950
  124MOL0     H16710   3.496   7.237  10.384  2.6618 -1.0090  0.4691
  124MOL0     H16711   3.541   7.411  10.400  1.5700 -0.0181  1.5429
  124MOL0     H16712   3.310   7.295  10.559 -0.7742 -0.2950 -0.6545
  124MOL0     H16713   3.379   7.459  10.564  0.2437  0.0334 -0.8022
  124MOL0     H16714   3.265   7.326  10.314  1.5196  0.6336 -2.6602
  124MOL0     H16715   3.307   7.493  10.321  0.4793  0.7130  0.1802
  124MOL0     H16716   3.099   7.354  10.498 -1.0361 -1.6096 -2.5470
  124MOL0     H16717   3.128   7.537  10.488 -0.1765  0.8450 -1.2314
  124MOL0     H16718   3.050   7.378  10.253 -3.7734  0.5800 -1.9671
  124MOL0     H16719   3.058   7.552  10.252 -1.3561 -0.4698 -1.0465
  124MOL0     H16720   2.881   7.580  10.423 -1.0027  0.4647  1.5423
  124MOL0     H16721   2.872   7.404  10.437  0.5967 -2.1566 -2.3155
  124MOL0     H16722   3.962   7.130  10.570  1.2452 -2.6970  2.3336
  124MOL0     H16723   4.171   7.009  10.492 -0.0834 -1.1871 -0.3185
  124MOL0     H16724   4.445   6.934  10.393 -2.1457 -1.2618  1.8765
  124MOL0     H16725   4.693   6.923  10.343  0.1412  0.5109 -1.2458
  124MOL0     H16726   6.638   6.432   9.816 -2.1425 -1.8623 -1.3837
  124MOL0     H16727   6.866   6.326   9.831 -0.0397 -0.2507 -0.1632
  124MOL0     H16728   7.232   5.958  10.187 -1.3428 -1.6119 -0.8210
  124MOL0     H16729   7.461   5.905  10.105  0.1339  0.0461  0.5495
  124MOL0     H16730   7.690   5.924  10.025 -0.7449 -0.4064  0.8186
  124MOL0     H16731   7.605   5.824   9.903  0.8321  0.1776  0.6972
  124MOL0     H16732   7.864   5.861   9.862  3.0666  3.1545 -1.2128
  124MOL0     H16733   7.817   6.016   9.789  2.0123 -1.2086 -2.7503
  124MOL0     H16734   7.734   5.942   9.611  2.5230  1.0083 -0.0216
  124MOL0     H16735   7.649   5.807   9.685  0.1361  0.4576  0.6213
  124MOL0     H16736   7.947   5.785   9.616  1.0704 -2.4573  1.9535
  124MOL0     H16737   7.807   5.742   9.515  0.9919 -1.5101 -0.2315
  124MOL0     H16738   7.764   5.442   9.803 -1.3131  0.5288  0.2105
  124MOL0     H16739   7.381   6.143   9.750  0.3465 -0.5782 -0.3332
  124MOL0     H16740   7.144   6.155   9.811  1.2972  3.7284  2.4343
  125MOL0     O16741   3.638   3.175   2.559  0.4954  0.0365  0.8723
  125MOL0     C16742   3.658   3.211   2.676 -0.7179 -0.1163  1.2046
  125MOL0     O16743   3.559   3.220   2.775 -0.2268 -0.3859  0.3814
  125MOL0     C16744   3.432   3.182   2.740  0.6658  0.2495  0.6396
  125MOL0     C16745   3.374   3.065   2.792 -1.1126 -0.2841 -0.8321
  125MOL0     C16746   3.240   3.018   2.750  0.3196 -0.0768 -0.5489
  125MOL0     C16747   3.158   3.096   2.666 -0.1579  0.9612 -0.5209
  125MOL0     O16748   3.040   3.058   2.618 -0.0314 -0.8351 -0.3881
  125MOL0     C16749   3.034   2.918   2.587 -0.0029  0.0347  0.6672
  125MOL0     C16750   2.913   2.890   2.482 -0.2986  0.3193 -0.6779
  125MOL0     C16751   2.923   2.970   2.356  0.4917  0.1391 -0.2608
  125MOL0     C16752   2.857   2.903   2.234  0.6833  0.9198  0.4027
  125MOL0     C16753   2.705   2.913   2.222  0.6000 -0.5012 -0.1973
  125MOL0     C16754   2.624   2.842   2.327  0.3330 -0.8621  0.3499
  125MOL0     C16755   2.473   2.883   2.311 -0.4823  0.2589  0.9900
  125MOL0     C16756   2.379   2.813   2.406 -0.0162  0.2122  0.5934
  125MOL0     N16757   2.245   2.815   2.348  0.5825 -0.4848  0.1932
  125MOL0     C16758   2.198   2.754   2.235  0.3425 -0.2279  0.3907
  125MOL0     C16759   2.069   2.785   2.222  0.0256  0.1712  0.1754
  125MOL0     C16760   1.981   2.755   2.106 -0.7072  0.2334 -0.7066
  125MOL0     C16761   1.921   2.609   2.105 -0.5103  0.1053  0.5524
  125MOL0     C16762   1.840   2.591   1.973  0.3130  0.4755 -0.5482
  125MOL0     C16763   1.768   2.454   1.956  0.6529 -0.1027 -0.5123
  125MOL0     O16764   1.678   2.440   2.059  0.3684  0.0988  0.3956
  125MOL0     C16765   1.559   2.387   2.027 -0.5494 -1.1858  0.5448
  125MOL0     C16766   1.549   2.249   1.984  0.1120 -0.5658 -0.6013
  125MOL0     C16767   1.417   2.194   1.955 -1.0613  0.8020 -0.0385
  125MOL0     C16768   1.402   2.052   1.908 -0.4708 -0.4617  0.2190
  125MOL0     C16769   1.311   2.277   1.981 -0.3257 -0.1668 -0.5386
  125MOL0     C16770   1.171   2.241   1.969  0.6487  0.6149 -0.0866
  125MOL0     O16771   1.077   2.314   2.026 -0.0806  0.2290 -0.2660
  125MOL0     C16772   0.946   2.277   2.027  0.0914 -0.5424 -0.4013
  125MOL0     C16773   0.908   2.151   2.075  0.3851  0.5717  0.4228
  125MOL0     C16774   0.774   2.116   2.081  0.2003  0.6631 -0.4648
  125MOL0     C16775   0.677   2.199   2.031  0.2792 -0.4992  0.3526
  125MOL0     O16776   0.555   2.151   2.029  0.2464  0.1446  1.1338
  125MOL0     C16777   0.446   2.247   2.036 -0.2809 -0.2175 -0.3245
  125MOL0     C16778   0.304   2.180   2.056 -0.4747 -0.0859  0.2333
  125MOL0     C16779   0.188   2.284   2.066 -0.5209  0.0883  0.1424
  125MOL0     C16780   0.091   2.272   2.188 -0.3957 -0.0480  0.1049
  125MOL0     C16781  -0.029   2.369   2.193  0.2837  0.4835 -0.6500
  125MOL0     C16782  -0.100   2.385   2.323 -0.0511 -0.7903 -0.8195
  125MOL0     C16783  -0.153   2.255   2.385 -0.3315  0.2080 -0.1400
  125MOL0     C16784  -0.227   2.275   2.516 -0.0016  0.0518  0.7910
  125MOL0    Cl16785  -0.279   2.110   2.564 -0.2215  0.1483  0.3675
  125MOL0     C16786   0.710   2.327   1.972 -0.5367 -0.1528 -0.3989
  125MOL0     C16787   0.847   2.366   1.981 -0.0849 -0.3651 -0.0071
  125MOL0     O16788   1.146   2.160   1.887 -0.0004  0.5365 -0.7124
  125MOL0     C16789   1.329   2.412   2.025 -0.8791  0.2269 -0.6286
  125MOL0     C16790   1.451   2.464   2.052  0.1844 -0.5808 -0.6458
  125MOL0     N16791   2.032   2.861   2.334 -0.3026 -0.3325 -0.0504
  125MOL0     N16792   2.139   2.876   2.412 -0.0839 -0.1505  0.4001
  125MOL0     C16793   3.211   3.224   2.629 -0.3586 -0.4465 -0.3922
  125MOL0     C16794   3.345   3.268   2.663  0.2624  0.0723  0.1181
  125MOL0     C16795   3.793   3.262   2.711  0.2041  0.6498  0.3845
  125MOL0     C16796   3.886   3.296   2.613  0.0127  1.0536  0.3709
  125MOL0     C16797   4.019   3.326   2.641 -1.2806 -0.7603 -0.2715
  125MOL0     C16798   4.055   3.333   2.778 -0.3647 -0.7159 -0.0957
  125MOL0     O16799   4.176   3.375   2.825 -0.3113 -0.3478  0.1748
  125MOL0     C16800   4.267   3.438   2.728 -0.2713 -0.4885  0.5744
  125MOL0     C16801   4.357   3.534   2.810  0.4499 -0.0102  0.4046
  125MOL0     C16802   4.485   3.462   2.850  0.2812 -0.1028 -0.5366
  125MOL0     C16803   4.589   3.551   2.910  0.2948 -0.1606  0.0011
  125MOL0     C16804   4.698   3.482   2.972 -0.2936  0.2290 -0.7011
  125MOL0     C16805   4.800   3.428   3.018 -0.0389 -0.7637  1.0412
  125MOL0     C16806   3.954   3.320   2.878  0.1394 -0.6492  0.8363
  125MOL0     C16807   3.823   3.287   2.843  0.0582 -0.3594 -0.2941
  125MOL0     H16808   3.418   3.009   2.874 -2.0767 -0.4212 -0.3896
  125MOL0     H16809   3.199   2.926   2.789 -0.8435 -0.4519 -2.5133
  125MOL0     H16810   3.124   2.870   2.547  0.5662  1.6091 -0.0318
  125MOL0     H16811   3.009   2.869   2.681  0.3976 -0.2509  0.6279
  125MOL0     H16812   2.909   2.784   2.456  1.0507  0.5721 -1.9796
  125MOL0     H16813   2.828   2.912   2.547  0.2763  0.8035 -0.0788
  125MOL0     H16814   2.879   3.069   2.371 -0.2226 -0.3778  1.2883
  125MOL0     H16815   3.028   2.979   2.327 -0.1296 -1.5209 -3.5296
  125MOL0     H16816   2.897   2.957   2.147 -0.3687 -0.1516 -0.7894
  125MOL0     H16817   2.890   2.801   2.213 -0.1035  0.3954  1.6179
  125MOL0     H16818   2.682   3.019   2.217 -0.9924 -0.8236 -0.2289
  125MOL0     H16819   2.674   2.872   2.125 -1.7319  1.0928 -0.2139
  125MOL0     H16820   2.632   2.735   2.307 -0.9503 -1.1643  1.3190
  125MOL0     H16821   2.659   2.865   2.428  1.0472  1.3501 -0.3332
  125MOL0     H16822   2.467   2.991   2.324  2.4615  0.6929 -0.4853
  125MOL0     H16823   2.438   2.859   2.211  3.5759 -1.4170 -0.2347
  125MOL0     H16824   2.381   2.867   2.500 -2.4522  1.3869  0.0416
  125MOL0     H16825   2.411   2.708   2.414 -2.1473 -0.7616 -1.9131
  125MOL0     H16826   2.257   2.700   2.162 -1.3014  1.7095 -2.6103
  125MOL0     H16827   1.899   2.826   2.100  0.3789  1.8469  2.0171
  125MOL0     H16828   2.033   2.773   2.012 -1.0631 -0.3403 -1.0240
  125MOL0     H16829   1.860   2.581   2.191  1.1031 -1.4049  1.2723
  125MOL0     H16830   2.002   2.535   2.096 -0.1877  0.3780  1.1101
  125MOL0     H16831   1.904   2.604   1.886  0.0623  2.5332 -0.4868
  125MOL0     H16832   1.773   2.678   1.972  1.9414  1.8426  1.7068
  125MOL0     H16833   1.825   2.362   1.945  1.2604  0.0764  0.9280
  125MOL0     H16834   1.714   2.485   1.865  0.8016  2.5261  0.2216
  125MOL0     H16835   1.634   2.191   1.947 -0.3507  0.2291 -3.1287
  125MOL0     H16836   1.330   2.001   1.973 -0.6919  0.1005  0.4184
  125MOL0     H16837   1.357   2.051   1.809 -2.1983 -2.8787  0.9352
  125MOL0     H16838   1.499   2.001   1.914 -1.3459 -2.1896  0.4260
  125MOL0     H16839   0.987   2.086   2.112  0.2317  0.0542 -0.1391
  125MOL0     H16840   0.730   2.030   2.130 -0.2987  0.9245 -0.4438
  125MOL0     H16841   0.465   2.311   2.123 -2.0383 -1.8919  1.3855
  125MOL0     H16842   0.445   2.313   1.949  0.5138  1.0370  0.5834
  125MOL0     H16843   0.279   2.118   1.970 -0.7836  2.1964 -1.4379
  125MOL0     H16844   0.310   2.114   2.143  0.4421 -1.2525 -0.6947
  125MOL0     H16845   0.123   2.285   1.979 -1.3974  3.3726  0.7174
  125MOL0     H16846   0.231   2.384   2.062 -1.7995  0.6088 -1.8419
  125MOL0     H16847   0.051   2.171   2.194 -0.7724 -0.0756 -2.0603
  125MOL0     H16848   0.145   2.304   2.278  0.3089 -0.4174 -0.1839
  125MOL0     H16849  -0.101   2.338   2.117 -0.4272  0.4168  0.0402
  125MOL0     H16850   0.015   2.466   2.167  3.3569 -1.0769 -1.7861
  125MOL0     H16851  -0.043   2.426   2.406 -0.9130 -2.1233  0.4806
  125MOL0     H16852  -0.181   2.456   2.302  1.5211  2.1212  2.0311
  125MOL0     H16853  -0.062   2.198   2.407 -0.6128 -0.3616 -0.4147
  125MOL0     H16854  -0.216   2.197   2.317  1.5305 -2.2886  0.1247
  125MOL0     H16855  -0.313   2.342   2.516  0.6463  0.9163  1.7906
  125MOL0     H16856  -0.159   2.320   2.589  1.4831  0.5886 -0.8372
  125MOL0     H16857   0.639   2.398   1.931 -1.3480  0.0213  1.2172
  125MOL0     H16858   0.881   2.460   1.941 -0.4693 -0.8151 -1.4343
  125MOL0     H16859   1.244   2.477   2.037 -1.0006  0.1523 -1.0884
  125MOL0     H16860   1.471   2.564   2.091  2.8532 -1.8207  1.4916
  125MOL0     H16861   3.156   3.286   2.558 -1.9501  0.9457  1.9189
  125MOL0     H16862   3.385   3.365   2.633  0.1144  1.1422  3.0069
  125MOL0     H16863   3.868   3.278   2.508 -1.1209  1.0321  0.5554
  125MOL0     H16864   4.091   3.336   2.560 -0.5084 -1.9885  0.2387
  125MOL0     H16865   4.324   3.360   2.677 -0.9561 -0.8864  0.4088
  125MOL0     H16866   4.217   3.489   2.645  1.7153  0.0251 -0.3659
  125MOL0     H16867   4.300   3.574   2.894 -1.0854  0.6191 -0.9024
  125MOL0     H16868   4.385   3.623   2.754  0.1729  1.2202  2.1424
  125MOL0     H16869   4.528   3.395   2.775  0.5692 -1.4253  0.7503
  125MOL0     H16870   4.444   3.402   2.932  4.2208  0.0703  1.8270
  125MOL0     H16871   4.540   3.622   2.977 -0.1946 -0.2131 -0.2981
  125MOL0     H16872   4.627   3.605   2.822 -1.4607 -1.9954 -2.0081
  125MOL0     H16873   4.883   3.385   3.070 -0.1023 -1.6155  0.4646
  125MOL0     H16874   3.993   3.330   2.979  2.2484 -5.6920  0.7987
  125MOL0     H16875   3.749   3.253   2.915 -1.0816  0.1331 -1.1855
  126MOL0     O16876   6.942   3.191   2.328 -0.4830 -1.1187 -0.1747
  126MOL0     C16877   6.998   3.186   2.438 -0.6390 -0.1949  1.1230
  126MOL0     O16878   6.949   3.235   2.558 -0.1316  0.6372  0.2254
  126MOL0     C16879   6.826   3.295   2.571 -0.5728  0.1766  0.3698
  126MOL0     C16880   6.825   3.439   2.584  0.0754  0.3758 -0.0187
  126MOL0     C16881   6.705   3.511   2.588  0.3788 -0.4094  0.4494
  126MOL0     C16882   6.584   3.438   2.586  0.2124  0.0374  0.4961
  126MOL0     O16883   6.457   3.488   2.607 -0.1104  0.1250 -0.0537
  126MOL0     C16884   6.454   3.639   2.612 -0.0578 -0.2732  0.5022
  126MOL0     C16885   6.310   3.670   2.660 -0.0831 -0.3280  1.1797
  126MOL0     C16886   6.209   3.590   2.566  0.2398  0.4633  0.5131
  126MOL0     C16887   6.066   3.641   2.598 -0.2499 -1.6702 -0.0043
  126MOL0     C16888   5.959   3.553   2.554 -0.2972 -0.2727  0.7930
  126MOL0     C16889   5.933   3.564   2.404  0.0033  0.1851 -0.4807
  126MOL0     C16890   5.813   3.464   2.380 -0.9788  0.6686 -0.0732
  126MOL0     C16891   5.743   3.495   2.248  0.2168  0.2774  0.3341
  126MOL0     N16892   5.610   3.431   2.240  0.3380  0.4154  0.4199
  126MOL0     C16893   5.595   3.302   2.204  0.0877  0.2413 -0.7682
  126MOL0     C16894   5.465   3.278   2.202 -0.8617 -0.3192 -0.4954
  126MOL0     C16895   5.394   3.148   2.172 -0.7655  0.4299 -0.5879
  126MOL0     C16896   5.272   3.108   2.249  0.3885 -0.1662  0.1720
  126MOL0     C16897   5.230   2.974   2.206  0.5948  0.5215 -0.2524
  126MOL0     C16898   5.110   2.936   2.287 -0.0305 -0.3949  0.0278
  126MOL0     O16899   5.008   3.032   2.284  1.0094 -0.4387 -0.6116
  126MOL0     C16900   4.911   3.029   2.186  0.0155  0.2228 -0.3599
  126MOL0     C16901   4.901   3.143   2.108 -0.0845 -0.0064 -1.0744
  126MOL0     C16902   4.800   3.168   2.017 -1.0384  0.0857 -0.1171
  126MOL0     C16903   4.803   3.303   1.949  0.1015  0.0722 -0.0937
  126MOL0     C16904   4.710   3.051   2.001 -0.5938 -0.4774  0.3355
  126MOL0     C16905   4.601   3.046   1.908 -0.1417  0.8263  0.6776
  126MOL0     O16906   4.599   2.949   1.819  0.2852  0.2353 -0.4892
  126MOL0     C16907   4.496   2.913   1.748  0.5009  0.1064  0.1011
  126MOL0     C16908   4.521   2.820   1.649 -0.6467  0.0442 -0.5618
  126MOL0     C16909   4.423   2.765   1.558 -0.9681 -0.0570 -0.3633
  126MOL0     C16910   4.297   2.820   1.570  0.2171  0.2702 -0.1190
  126MOL0     O16911   4.207   2.770   1.468  0.4005 -0.1879 -0.6339
  126MOL0     C16912   4.070   2.832   1.470 -0.1324  0.3801 -0.1916
  126MOL0     C16913   4.006   2.794   1.335  0.3728  0.2920  0.8792
  126MOL0     C16914   3.869   2.861   1.325 -0.1893 -0.4846 -0.2960
  126MOL0     C16915   3.769   2.792   1.413  0.6616  0.5344 -0.3866
  126MOL0     C16916   3.636   2.870   1.403  0.9674  0.0830 -0.4473
  126MOL0     C16917   3.523   2.814   1.485  0.3567 -0.0371  0.9033
  126MOL0     C16918   3.380   2.885   1.478  0.7455  0.5489 -0.5313
  126MOL0     C16919   3.321   2.894   1.622 -0.0258  0.1217  0.7701
  126MOL0    Cl16920   3.295   2.725   1.690  0.3916 -0.7178  0.0198
  126MOL0     C16921   4.269   2.924   1.665 -0.0937  1.4684  0.3508
  126MOL0     C16922   4.370   2.965   1.762 -0.0926  0.0867  0.2019
  126MOL0     O16923   4.533   3.144   1.909 -0.5940  0.9428 -0.6199
  126MOL0     C16924   4.734   2.935   2.065 -0.1748  0.7788 -0.0330
  126MOL0     C16925   4.828   2.918   2.172  0.3276  0.4036  0.0727
  126MOL0     N16926   5.405   3.403   2.237  0.2471 -0.5919 -0.0424
  126MOL0     N16927   5.489   3.497   2.243 -0.6529  0.5006 -0.2610
  126MOL0     C16928   6.582   3.306   2.577 -1.3582  0.4610  0.4674
  126MOL0     C16929   6.701   3.230   2.573  0.2577  0.3308  0.8183
  126MOL0     C16930   7.134   3.122   2.432  0.7612 -0.1621  0.4786
  126MOL0     C16931   7.193   3.077   2.546 -0.0989 -0.7323 -0.6205
  126MOL0     C16932   7.325   3.032   2.546  0.3354  0.0693 -0.1359
  126MOL0     C16933   7.405   3.046   2.432  0.4328  0.3181 -0.1440
  126MOL0     O16934   7.537   3.029   2.425  0.2463 -0.3308 -0.2920
  126MOL0     C16935   7.614   3.010   2.542 -0.4230 -0.1921  0.4946
  126MOL0     C16936   7.739   2.935   2.487 -0.1321 -0.2409  0.3628
  126MOL0     C16937   7.694   2.819   2.405 -0.8091  0.0372  0.3782
  126MOL0     C16938   7.816   2.723   2.405  0.4078 -0.6733 -1.0940
  126MOL0     C16939   7.934   2.786   2.345 -0.3146 -1.1911  0.1468
  126MOL0     C16940   8.034   2.849   2.299 -0.3228  0.1431 -1.1880
  126MOL0     C16941   7.349   3.087   2.317  0.1649 -0.3462  0.1420
  126MOL0     C16942   7.213   3.121   2.314 -0.5565  0.0149  0.1952
  126MOL0     H16943   6.921   3.490   2.590  1.1503 -1.3801 -1.1601
  126MOL0     H16944   6.714   3.619   2.578  1.4527 -0.6121 -1.0735
  126MOL0     H16945   6.513   3.689   2.690 -0.4562 -0.2016  0.7625
  126MOL0     H16946   6.465   3.687   2.515  5.0244 -1.8228  0.0481
  126MOL0     H16947   6.305   3.657   2.768  3.3295  5.3513  2.4179
  126MOL0     H16948   6.295   3.776   2.636 -0.0945 -0.9505 -2.0367
  126MOL0     H16949   6.223   3.613   2.460 -0.0060  2.4086  0.8759
  126MOL0     H16950   6.208   3.481   2.580 -0.0519  0.4891  0.6986
  126MOL0     H16951   6.051   3.642   2.706 -1.6148 -1.9343 -0.1736
  126MOL0     H16952   6.065   3.744   2.559 -0.5795 -2.7040 -3.0285
  126MOL0     H16953   5.991   3.451   2.577  1.2999 -0.8010 -3.0407
  126MOL0     H16954   5.867   3.572   2.610  0.0579 -3.1272  2.5242
  126MOL0     H16955   5.896   3.660   2.367  1.2625  0.3189 -1.5049
  126MOL0     H16956   6.020   3.526   2.349  0.9995  0.6972  0.6937
  126MOL0     H16957   5.853   3.362   2.374 -2.0642  0.2845 -1.2568
  126MOL0     H16958   5.741   3.466   2.463 -1.5263 -1.2054 -0.4445
  126MOL0     H16959   5.809   3.477   2.163 -0.5740  2.3317 -0.8020
  126MOL0     H16960   5.726   3.602   2.232  0.1223  0.2039 -0.0650
  126MOL0     H16961   5.673   3.228   2.195  2.4882  2.3356  1.2661
  126MOL0     H16962   5.357   3.157   2.070 -0.7263  1.9047 -0.4921
  126MOL0     H16963   5.473   3.073   2.187 -1.0089  0.4418  0.8827
  126MOL0     H16964   5.198   3.189   2.244 -0.2178 -0.5762  1.8722
  126MOL0     H16965   5.291   3.118   2.356 -0.6884  3.4187  0.1584
  126MOL0     H16966   5.307   2.896   2.213 -1.6366 -1.9310 -1.2088
  126MOL0     H16967   5.198   2.980   2.101  1.5470 -3.8224 -0.9876
  126MOL0     H16968   5.149   2.931   2.389 -0.3124 -0.6364  0.1224
  126MOL0     H16969   5.073   2.841   2.249 -3.2190  0.3411  1.0507
  126MOL0     H16970   4.984   3.210   2.129  0.3453 -1.2550  1.6828
  126MOL0     H16971   4.740   3.378   1.999  1.2627  0.6668  0.5028
  126MOL0     H16972   4.906   3.337   1.939 -0.0070 -0.1411 -2.9030
  126MOL0     H16973   4.775   3.290   1.844  1.5043 -0.5509 -0.4123
  126MOL0     H16974   4.621   2.778   1.645 -0.7038 -0.0149 -1.5003
  126MOL0     H16975   4.433   2.687   1.484 -2.2768  0.2708 -0.9071
  126MOL0     H16976   4.007   2.783   1.544  1.7489 -4.0352 -1.1696
  126MOL0     H16977   4.082   2.940   1.475 -2.2961  0.8042 -2.3233
  126MOL0     H16978   4.074   2.826   1.256 -1.1941  0.0471 -0.6129
  126MOL0     H16979   3.985   2.688   1.317 -1.8990  1.2055 -2.9764
  126MOL0     H16980   3.848   2.861   1.217 -3.5723  0.4773  0.2343
  126MOL0     H16981   3.867   2.970   1.341  0.0380 -0.6662  0.9887
  126MOL0     H16982   3.755   2.689   1.380 -3.2346  0.9502 -0.5332
  126MOL0     H16983   3.797   2.786   1.518  0.2080 -0.6780 -0.3153
  126MOL0     H16984   3.607   2.878   1.298 -1.1458  2.1532  0.2116
  126MOL0     H16985   3.645   2.968   1.450  1.8676 -0.6629  0.9931
  126MOL0     H16986   3.503   2.709   1.462 -3.5736  0.9807 -1.2176
  126MOL0     H16987   3.564   2.824   1.586  1.8480  0.8245  0.2508
  126MOL0     H16988   3.304   2.829   1.422  0.2332  0.2690  0.4151
  126MOL0     H16989   3.379   2.985   1.433  0.8824  1.2049  0.8855
  126MOL0     H16990   3.220   2.936   1.620  0.2365  0.7398 -0.9478
  126MOL0     H16991   3.385   2.955   1.687  1.3304 -1.4826  0.9991
  126MOL0     H16992   4.171   2.969   1.677 -0.2161  1.5804 -0.9145
  126MOL0     H16993   4.336   3.036   1.837  0.3886 -0.7245  1.2249
  126MOL0     H16994   4.672   2.847   2.052 -1.9009  1.7439  1.2642
  126MOL0     H16995   4.836   2.825   2.227 -1.9316 -1.7018 -2.8034
  126MOL0     H16996   6.492   3.245   2.572 -0.4670 -0.8139 -2.3694
  126MOL0     H16997   6.699   3.126   2.542  0.4293  0.4612  0.3540
  126MOL0     H16998   7.136   3.081   2.639 -0.4642  0.1793 -0.8682
  126MOL0     H16999   7.362   3.001   2.644 -2.2599  0.7820  1.1361
  126MOL0     H17000   7.644   3.100   2.596 -2.9380  0.2887  1.2113
  126MOL0     H17001   7.564   2.947   2.617 -0.9097 -1.7985 -1.1070
  126MOL0     H17002   7.794   2.900   2.574 -0.0941 -1.0787  0.0098
  126MOL0     H17003   7.806   2.999   2.428 -0.6650 -1.2299 -1.4039
  126MOL0     H17004   7.686   2.855   2.302  0.6011  0.3048  0.3400
  126MOL0     H17005   7.597   2.771   2.420  0.1363 -2.9037 -1.8309
  126MOL0     H17006   7.796   2.635   2.342 -0.6497  0.2780 -2.1344
  126MOL0     H17007   7.833   2.686   2.507  0.8028 -1.0739 -1.2989
  126MOL0     H17008   8.124   2.892   2.262  0.1334  0.7574  0.5453
  126MOL0     H17009   7.411   3.115   2.232  2.2280 -0.0807  1.6438
  126MOL0     H17010   7.174   3.164   2.223 -0.6999 -1.0800 -0.2777
  127MOL0     O17011  10.720   9.032   7.524  0.4548 -0.1289 -0.0327
  127MOL0     C17012  10.750   8.935   7.594 -0.4349  1.4484 -0.0266
  127MOL0     O17013  10.669   8.830   7.623  0.0039 -0.1914  0.2450
  127MOL0     C17014  10.530   8.843   7.611 -0.1540  0.3387  0.2412
  127MOL0     C17015  10.444   8.954   7.620 -0.7355  0.1924 -0.0604
  127MOL0     C17016  10.308   8.944   7.596 -0.3601  0.2400  0.1058
  127MOL0     C17017  10.243   8.825   7.564 -0.0453  0.1388 -0.0535
  127MOL0     O17018  10.113   8.810   7.530  0.2141  0.2495 -0.0505
  127MOL0     C17019  10.012   8.908   7.571 -0.5415 -0.3849  0.6622
  127MOL0     C17020   9.876   8.852   7.541 -0.4834  0.2510 -0.3805
  127MOL0     C17021   9.766   8.961   7.548 -0.3482 -0.1540 -0.2020
  127MOL0     C17022   9.628   8.893   7.544 -0.2954  0.1132 -0.2863
  127MOL0     C17023   9.524   8.981   7.479 -0.3791 -0.4039  0.5315
  127MOL0     C17024   9.386   8.923   7.472  0.7616  1.8102  0.0586
  127MOL0     C17025   9.382   8.837   7.339  0.7487 -0.2087 -0.0596
  127MOL0     C17026   9.242   8.787   7.314 -0.5547 -0.9166  0.5447
  127MOL0     N17027   9.242   8.683   7.216 -0.0587  0.2225 -0.6924
  127MOL0     C17028   9.167   8.568   7.234  0.4755 -0.2405  0.0177
  127MOL0     C17029   9.190   8.502   7.119 -0.1312 -0.4629  0.2844
  127MOL0     C17030   9.122   8.384   7.079 -0.3658  0.0223 -0.0566
  127MOL0     C17031   8.993   8.394   7.019  0.2498 -0.4001  0.6879
  127MOL0     C17032   8.922   8.258   7.021  0.5371 -0.2718 -0.1400
  127MOL0     C17033   8.766   8.272   7.020 -0.3754  0.4516 -0.6353
  127MOL0     O17034   8.725   8.133   7.046  0.5287  0.2449  0.3113
  127MOL0     C17035   8.594   8.107   7.014 -0.4078  0.5070 -0.5585
  127MOL0     C17036   8.489   8.196   7.040  0.0794  0.0141 -0.6292
  127MOL0     C17037   8.358   8.155   7.013  0.1951  0.5329  0.5811
  127MOL0     C17038   8.254   8.261   7.034  0.2517  0.5401 -0.6136
  127MOL0     C17039   8.331   8.029   6.948 -0.0650 -0.7074 -0.5052
  127MOL0     C17040   8.188   7.981   6.904  0.2229 -0.1252 -0.6050
  127MOL0     O17041   8.179   7.852   6.852 -0.1806 -0.6185 -0.0867
  127MOL0     C17042   8.059   7.782   6.825  0.1344  0.0622 -1.2016
  127MOL0     C17043   7.915   7.812   6.845 -1.0147 -0.4908  0.3659
  127MOL0     C17044   7.812   7.720   6.810  0.1837  0.7128  0.4323
  127MOL0     C17045   7.848   7.592   6.768  0.2331  0.2253  0.4248
  127MOL0     O17046   7.744   7.513   6.736 -0.7808 -0.1028 -0.3659
  127MOL0     C17047   7.767   7.374   6.738  0.4499 -0.3474 -0.6127
  127MOL0     C17048   7.624   7.328   6.711 -0.3466 -0.6337 -0.2928
  127MOL0     C17049   7.612   7.173   6.682 -0.1750  0.1904 -0.7010
  127MOL0     C17050   7.473   7.116   6.713 -0.2754 -1.0270  0.5160
  127MOL0     C17051   7.457   6.972   6.664  0.0407 -0.4219  0.8050
  127MOL0     C17052   7.320   6.908   6.694  0.2332  0.4732  0.0004
  127MOL0     C17053   7.300   6.777   6.613  0.3443 -0.1511  0.3405
  127MOL0     C17054   7.170   6.710   6.644  0.6215  0.0004 -0.2117
  127MOL0    Cl17055   7.161   6.656   6.809  0.1301  0.0247  0.3445
  127MOL0     C17056   7.982   7.553   6.766  0.2336  1.3410 -0.3923
  127MOL0     C17057   8.082   7.653   6.789 -0.6905 -0.2636 -0.4262
  127MOL0     O17058   8.094   8.044   6.943 -0.1119 -0.3019 -0.2039
  127MOL0     C17059   8.444   7.945   6.930  0.1088  0.7277  0.2613
  127MOL0     C17060   8.575   7.981   6.964  0.5433  0.3451  0.8431
  127MOL0     N17061   9.280   8.567   7.039  0.5086 -0.3854 -0.1767
  127MOL0     N17062   9.303   8.681   7.102 -0.5341  0.5124  0.2911
  127MOL0     C17063  10.325   8.712   7.563 -0.1396  0.2705  0.4247
  127MOL0     C17064  10.467   8.722   7.583  0.2925 -0.1089  0.1605
  127MOL0     C17065  10.901   8.919   7.633 -0.0271  0.7336 -0.3388
  127MOL0     C17066  10.988   9.022   7.597  0.2302 -0.0365 -0.5864
  127MOL0     C17067  11.125   9.019   7.641  0.0326 -0.4637  0.1174
  127MOL0     C17068  11.168   8.905   7.713 -0.3642 -0.7513  0.3172
  127MOL0     O17069  11.297   8.883   7.762 -0.5197 -0.3176  0.1670
  127MOL0     C17070  11.399   8.976   7.726 -0.4614 -0.6422  0.1050
  127MOL0     C17071  11.518   8.932   7.810 -0.3371 -0.1458 -0.3046
  127MOL0     C17072  11.584   8.802   7.762  0.6437 -0.3643 -0.1115
  127MOL0     C17073  11.650   8.805   7.628  0.2275 -0.7198  0.5927
  127MOL0     C17074  11.733   8.930   7.601 -0.0744 -0.3737  0.2044
  127MOL0     C17075  11.804   9.028   7.587  0.4566 -0.2251  0.3669
  127MOL0     C17076  11.079   8.808   7.756  0.1557 -0.2673 -0.3431
  127MOL0     C17077  10.945   8.815   7.717 -0.7076 -0.8371  0.2467
  127MOL0     H17078  10.486   9.047   7.657 -2.1289  1.8558 -2.3941
  127MOL0     H17079  10.238   9.027   7.600 -1.0358 -0.0247 -3.4011
  127MOL0     H17080  10.022   8.936   7.677 -0.5766 -1.3931  0.9418
  127MOL0     H17081  10.027   8.999   7.512  2.0553 -0.0154  1.7305
  127MOL0     H17082   9.896   8.830   7.436  2.4454  1.8893 -0.2616
  127MOL0     H17083   9.838   8.761   7.589 -1.4399 -0.2986 -2.0952
  127MOL0     H17084   9.779   9.031   7.631  0.7416  0.7491 -1.1033
  127MOL0     H17085   9.772   9.011   7.451 -1.3472 -1.6167 -1.0619
  127MOL0     H17086   9.621   8.797   7.492  2.3941 -1.0904  1.4020
  127MOL0     H17087   9.597   8.877   7.648  0.7851  1.0010  0.1909
  127MOL0     H17088   9.513   9.080   7.523  1.4413 -0.2763  0.8163
  127MOL0     H17089   9.563   9.008   7.381  0.0014  0.8524  1.0143
  127MOL0     H17090   9.355   8.868   7.562  2.5220  1.6050  0.5633
  127MOL0     H17091   9.310   9.001   7.458  0.0860  1.4448  1.4540
  127MOL0     H17092   9.420   8.881   7.247 -1.0233  1.3912 -0.1165
  127MOL0     H17093   9.442   8.749   7.361 -0.9599 -0.5660  4.4575
  127MOL0     H17094   9.187   8.870   7.268 -0.2360 -0.9103  0.1723
  127MOL0     H17095   9.193   8.750   7.404  1.0456 -0.6388  1.5655
  127MOL0     H17096   9.102   8.545   7.319 -0.5151  1.5982 -0.1749
  127MOL0     H17097   9.186   8.336   7.004 -0.2493 -1.9000  1.2008
  127MOL0     H17098   9.113   8.313   7.161  4.3821 -2.2165 -1.1389
  127MOL0     H17099   8.989   8.435   6.918  0.6476 -0.9093  0.4607
  127MOL0     H17100   8.931   8.453   7.087 -0.4186 -0.4683  0.1457
  127MOL0     H17101   8.944   8.206   7.114  2.5644  1.4603  0.4407
  127MOL0     H17102   8.949   8.194   6.936 -2.0549 -1.8835  0.1434
  127MOL0     H17103   8.725   8.308   6.925  0.9358  3.1441 -0.2703
  127MOL0     H17104   8.727   8.332   7.103  1.3705 -0.9442  1.3262
  127MOL0     H17105   8.512   8.288   7.095  3.2861  0.4698 -2.4513
  127MOL0     H17106   8.185   8.217   7.107  0.9955 -0.0966 -0.2765
  127MOL0     H17107   8.305   8.337   7.095  0.7707  0.5867 -1.0968
  127MOL0     H17108   8.211   8.298   6.940 -0.4819 -0.3606 -0.6449
  127MOL0     H17109   7.901   7.910   6.888 -1.9247 -0.6117  0.3543
  127MOL0     H17110   7.710   7.751   6.827  0.9070  1.9600  2.9204
  127MOL0     H17111   7.824   7.352   6.647  0.3313  0.9041 -1.0144
  127MOL0     H17112   7.793   7.338   6.838 -0.1065  0.0785 -0.3095
  127MOL0     H17113   7.558   7.344   6.797  0.4299  1.2040  0.0042
  127MOL0     H17114   7.582   7.371   6.620 -3.1133 -1.4209  0.5240
  127MOL0     H17115   7.674   7.121   6.755 -2.6547 -0.4819  1.0543
  127MOL0     H17116   7.650   7.145   6.583  2.3616  1.6316 -0.2323
  127MOL0     H17117   7.457   7.129   6.820  0.6039  0.6691  0.4800
  127MOL0     H17118   7.397   7.182   6.671  0.0449 -1.3878 -0.6693
  127MOL0     H17119   7.535   6.907   6.705  0.1637  0.3014  1.7488
  127MOL0     H17120   7.463   6.975   6.555  1.0652 -0.0638  0.8663
  127MOL0     H17121   7.312   6.890   6.802  1.1984 -0.8105 -0.1093
  127MOL0     H17122   7.236   6.974   6.669 -1.3101 -0.9724  1.1194
  127MOL0     H17123   7.380   6.702   6.610  2.3022  1.7292  1.8060
  127MOL0     H17124   7.286   6.806   6.509 -0.1695 -0.4264  0.3315
  127MOL0     H17125   7.149   6.625   6.578  1.9077 -1.2954  0.9747
  127MOL0     H17126   7.080   6.769   6.622  1.0793 -0.2081 -2.9729
  127MOL0     H17127   8.017   7.451   6.754 -0.9674  0.4856  2.5175
  127MOL0     H17128   8.186   7.621   6.783 -0.9793 -1.0067 -2.1003
  127MOL0     H17129   8.427   7.844   6.895 -1.2603  0.6989  0.9122
  127MOL0     H17130   8.657   7.910   6.956  2.7179  2.7743  0.6262
  127MOL0     H17131  10.286   8.614   7.537  1.4004 -1.3260  3.5291
  127MOL0     H17132  10.532   8.636   7.574  2.8575  1.4687  1.9911
  127MOL0     H17133  10.954   9.108   7.541  2.9538  0.8377 -1.0213
  127MOL0     H17134  11.190   9.100   7.612 -1.6370  1.9298  2.4922
  127MOL0     H17135  11.425   8.957   7.622  0.6773 -2.4848  0.6710
  127MOL0     H17136  11.374   9.081   7.742 -0.2770 -0.7073  0.8974
  127MOL0     H17137  11.494   8.917   7.916  3.3302 -2.3511  0.4020
  127MOL0     H17138  11.591   9.013   7.802  1.8929 -2.0848 -0.4592
  127MOL0     H17139  11.514   8.718   7.753  0.5812 -0.1644 -1.6672
  127MOL0     H17140  11.668   8.770   7.825  0.7493  2.5086  1.3610
  127MOL0     H17141  11.583   8.783   7.544 -0.3771 -0.6082  1.0386
  127MOL0     H17142  11.726   8.727   7.619  0.2329 -0.8548  1.6844
  127MOL0     H17143  11.851   9.123   7.575 -1.6632  0.8515  0.2128
  127MOL0     H17144  11.115   8.729   7.821  1.3163  1.2963  1.0007
  127MOL0     H17145  10.875   8.740   7.751 -0.1294 -1.6548 -0.3136
  128MOL0     O17146   3.935   8.546   2.767  0.6059 -0.5833 -0.0471
  128MOL0     C17147   4.010   8.518   2.673  0.3640  0.3677 -0.0927
  128MOL0     O17148   3.966   8.476   2.550 -0.9018 -0.3683  0.9803
  128MOL0     C17149   3.835   8.476   2.524 -0.4914  0.1591 -0.5652
  128MOL0     C17150   3.788   8.580   2.437  0.1443  0.7953 -0.0507
  128MOL0     C17151   3.648   8.584   2.408  0.0724 -0.3504  0.0634
  128MOL0     C17152   3.561   8.480   2.455  0.6762 -0.4226  0.6399
  128MOL0     O17153   3.432   8.484   2.410  0.1642 -0.3124 -0.2225
  128MOL0     C17154   3.319   8.426   2.488  1.1261 -0.0675 -0.6470
  128MOL0     C17155   3.193   8.501   2.443 -0.5995 -0.5901 -0.7866
  128MOL0     C17156   3.166   8.467   2.296  0.5733 -0.0455 -0.3617
  128MOL0     C17157   3.050   8.560   2.240 -1.3275 -0.2967 -0.6188
  128MOL0     C17158   3.025   8.503   2.105  0.7612  0.1328 -0.3083
  128MOL0     C17159   2.923   8.598   2.030 -0.5914 -0.1111 -0.6082
  128MOL0     C17160   2.920   8.576   1.878  0.3758  0.0482  0.0654
  128MOL0     C17161   2.888   8.428   1.837  0.1800  0.6405  1.0205
  128MOL0     N17162   2.875   8.398   1.688 -0.7104 -0.1177 -0.6205
  128MOL0     C17163   2.922   8.478   1.584 -0.5701 -0.0895  0.4584
  128MOL0     C17164   2.864   8.431   1.473  0.0476  0.0436  0.5638
  128MOL0     C17165   2.866   8.509   1.343 -0.0974  0.3748 -0.4082
  128MOL0     C17166   3.011   8.505   1.290 -0.1272  0.5304 -1.3126
  128MOL0     C17167   3.033   8.605   1.187 -0.1228  0.1899 -0.3027
  128MOL0     C17168   2.929   8.606   1.072  0.1945  0.1087 -0.7619
  128MOL0     O17169   2.916   8.477   1.021  0.2709  0.1839 -0.6187
  128MOL0     C17170   2.804   8.459   0.949  0.3316 -0.0127 -0.0058
  128MOL0     C17171   2.802   8.494   0.812  0.9335  0.5688  0.1652
  128MOL0     C17172   2.680   8.517   0.742  0.0311  0.4095  0.2035
  128MOL0     C17173   2.676   8.590   0.613  0.9119  0.6976 -0.1908
  128MOL0     C17174   2.553   8.490   0.803 -0.7141  0.0072 -0.3267
  128MOL0     C17175   2.427   8.506   0.732 -0.3685  0.4419  0.3853
  128MOL0     O17176   2.328   8.573   0.800  0.1306  0.0456 -0.1502
  128MOL0     C17177   2.190   8.557   0.779 -0.0380 -0.9838 -0.3385
  128MOL0     C17178   2.132   8.457   0.691 -0.0235  0.4617  0.1258
  128MOL0     C17179   1.994   8.442   0.687  0.1156 -0.0863  0.5898
  128MOL0     C17180   1.911   8.536   0.758  0.7046  0.0977 -0.3192
  128MOL0     O17181   1.776   8.549   0.743 -0.4021 -0.2060  0.1263
  128MOL0     C17182   1.701   8.483   0.644  0.6227 -0.8718 -0.2349
  128MOL0     C17183   1.546   8.492   0.665 -0.4729  0.1382 -1.2011
  128MOL0     C17184   1.478   8.413   0.552  1.0898 -0.4019 -0.0499
  128MOL0     C17185   1.323   8.449   0.539 -0.7471  0.1971 -0.4914
  128MOL0     C17186   1.255   8.356   0.448 -0.1805 -0.0892  0.2428
  128MOL0     C17187   1.107   8.410   0.423  0.5247 -0.6412 -0.1312
  128MOL0     C17188   1.025   8.298   0.374  0.0337 -0.2612 -0.0359
  128MOL0     C17189   0.881   8.335   0.329 -0.2571  0.2257 -0.2999
  128MOL0    Cl17190   0.802   8.407   0.468  0.0486 -0.1763  0.6094
  128MOL0     C17191   1.963   8.626   0.853 -0.2888  0.4066  0.8581
  128MOL0     C17192   2.101   8.634   0.862 -0.9069 -0.3266  0.4115
  128MOL0     O17193   2.409   8.459   0.617 -0.2941 -0.4142 -0.5460
  128MOL0     C17194   2.556   8.462   0.940 -0.7529  0.7133  0.7940
  128MOL0     C17195   2.679   8.450   1.007 -0.0975 -0.5859 -0.0832
  128MOL0     N17196   2.800   8.308   1.509 -0.1578 -0.4608 -0.5445
  128MOL0     N17197   2.800   8.296   1.634  0.1475 -0.8393  0.2805
  128MOL0     C17198   3.616   8.385   2.539  0.7323  1.1815  0.2764
  128MOL0     C17199   3.750   8.378   2.577 -0.1820 -0.8353  0.4179
  128MOL0     C17200   4.157   8.516   2.691 -0.1363  0.2479 -0.4896
  128MOL0     C17201   4.220   8.523   2.810  0.9211  0.0679 -0.0179
  128MOL0     C17202   4.360   8.543   2.831  0.7121  0.5498  0.2061
  128MOL0     C17203   4.446   8.533   2.726 -0.6031  1.1222  0.7724
  128MOL0     O17204   4.582   8.527   2.750  0.3669 -0.6371  0.3490
  128MOL0     C17205   4.618   8.449   2.862 -0.2345 -0.1129 -0.2930
  128MOL0     C17206   4.672   8.543   2.961 -0.5144 -0.7085 -0.2318
  128MOL0     C17207   4.793   8.627   2.918  0.3911  0.1397  0.1039
  128MOL0     C17208   4.827   8.729   3.026 -0.0541 -0.3838  0.4724
  128MOL0     C17209   4.736   8.838   3.031  0.6869  0.7466  0.3309
  128MOL0     C17210   4.652   8.917   3.059 -0.0527 -0.3167  0.2601
  128MOL0     C17211   4.389   8.519   2.598 -0.2556 -0.9780  0.2517
  128MOL0     C17212   4.247   8.517   2.579 -0.0888 -0.6407 -0.7160
  128MOL0     H17213   3.861   8.652   2.402 -0.0185  0.7327 -0.5153
  128MOL0     H17214   3.601   8.664   2.351  0.2171 -0.6684 -0.5102
  128MOL0     H17215   3.313   8.319   2.469 -0.2379 -0.0561 -0.3928
  128MOL0     H17216   3.338   8.448   2.593  1.0901 -0.9000 -0.4585
  128MOL0     H17217   3.114   8.459   2.506 -0.4344  1.1184  0.6475
  128MOL0     H17218   3.205   8.608   2.464  0.9515  0.2960 -5.1990
  128MOL0     H17219   3.251   8.483   2.228 -0.7348  0.0162 -2.0553
  128MOL0     H17220   3.131   8.363   2.294 -1.0955  0.4600 -2.9656
  128MOL0     H17221   2.964   8.564   2.307  0.1134  0.8074  1.2793
  128MOL0     H17222   3.094   8.660   2.237  0.7913 -1.1261  0.3956
  128MOL0     H17223   3.117   8.519   2.048  0.8554  3.0113  0.5403
  128MOL0     H17224   3.001   8.396   2.114  1.2811  0.0344 -0.0626
  128MOL0     H17225   2.822   8.582   2.067 -0.4955 -1.8139 -0.9841
  128MOL0     H17226   2.957   8.696   2.064 -0.3060 -0.5657  0.4953
  128MOL0     H17227   2.839   8.633   1.832  1.3092  1.1126 -0.2924
  128MOL0     H17228   3.017   8.609   1.841  1.5065  0.3945  3.0193
  128MOL0     H17229   2.796   8.396   1.888  0.7515 -2.2719  0.4178
  128MOL0     H17230   2.961   8.353   1.869  1.1547  2.3496  3.0143
  128MOL0     H17231   2.981   8.569   1.596 -1.1297  0.2551  0.6115
  128MOL0     H17232   2.797   8.465   1.270 -2.7620  0.3149  1.9697
  128MOL0     H17233   2.831   8.612   1.354 -1.6598  0.3368 -3.6562
  128MOL0     H17234   3.043   8.405   1.258  0.2852 -0.1924  1.1188
  128MOL0     H17235   3.083   8.520   1.372  0.4761  0.0180 -1.7401
  128MOL0     H17236   3.136   8.592   1.153  0.6873  2.6072  0.9749
  128MOL0     H17237   3.040   8.705   1.231 -2.5923  0.4593 -0.3712
  128MOL0     H17238   2.959   8.679   0.995 -0.1181  1.0409 -0.0199
  128MOL0     H17239   2.833   8.646   1.106 -0.5519 -0.8884 -1.6690
  128MOL0     H17240   2.895   8.516   0.760  0.5949 -1.9562 -1.7067
  128MOL0     H17241   2.638   8.526   0.533 -0.9738  1.1293  0.3026
  128MOL0     H17242   2.618   8.683   0.620 -0.6469 -0.3586  2.8298
  128MOL0     H17243   2.773   8.623   0.575 -0.1676  0.0658 -3.9398
  128MOL0     H17244   2.182   8.376   0.640 -1.6990 -0.4140 -0.2026
  128MOL0     H17245   1.951   8.363   0.626  0.3695  0.6550 -0.5842
  128MOL0     H17246   1.722   8.514   0.541 -0.5983 -1.3308 -0.6405
  128MOL0     H17247   1.731   8.378   0.645  0.2089 -1.0205 -1.3649
  128MOL0     H17248   1.505   8.458   0.760  0.6689  0.7286 -0.4739
  128MOL0     H17249   1.523   8.597   0.644 -0.6078  0.3438 -0.1155
  128MOL0     H17250   1.488   8.306   0.574 -1.7152 -0.6078  0.5881
  128MOL0     H17251   1.531   8.443   0.461  0.2403  0.7740 -0.1720
  128MOL0     H17252   1.274   8.432   0.635 -1.6662 -4.2723 -1.5261
  128MOL0     H17253   1.309   8.547   0.493 -1.2527  0.6229  0.5531
  128MOL0     H17254   1.252   8.253   0.485 -2.2631 -0.1062  0.1188
  128MOL0     H17255   1.311   8.357   0.354 -1.9060  2.0475 -0.8742
  128MOL0     H17256   1.055   8.453   0.509 -2.0255  1.2516 -2.4427
  128MOL0     H17257   1.103   8.491   0.349 -1.5264 -1.8055 -1.3915
  128MOL0     H17258   1.010   8.226   0.455 -1.9292 -0.2426 -0.3388
  128MOL0     H17259   1.085   8.262   0.289 -0.1839  0.0513 -0.3217
  128MOL0     H17260   0.817   8.256   0.291 -0.2716  0.3138 -0.4569
  128MOL0     H17261   0.899   8.410   0.251 -0.1877 -2.4004 -2.9784
  128MOL0     H17262   1.899   8.659   0.935  2.4364  0.6339  3.0223
  128MOL0     H17263   2.151   8.698   0.935  1.2671  1.3414 -2.3375
  128MOL0     H17264   2.467   8.449   1.001  0.0537 -0.5732  1.7470
  128MOL0     H17265   2.692   8.420   1.111  3.7962 -3.5370 -1.2108
  128MOL0     H17266   3.554   8.303   2.576 -0.7543  2.6171  1.0969
  128MOL0     H17267   3.787   8.300   2.642 -2.6319 -2.6781 -0.2542
  128MOL0     H17268   4.153   8.524   2.896  0.5646  0.1492 -0.2966
  128MOL0     H17269   4.390   8.541   2.935 -0.3710  0.2316  0.5294
  128MOL0     H17270   4.534   8.391   2.900 -1.6948  2.1847  0.1113
  128MOL0     H17271   4.689   8.377   2.819 -0.6801  0.7010 -2.5221
  128MOL0     H17272   4.694   8.497   3.058  1.5575  1.0293  0.2055
  128MOL0     H17273   4.593   8.614   2.986  0.2764  0.4017 -0.8196
  128MOL0     H17274   4.776   8.673   2.820 -3.4966 -1.2533 -0.0483
  128MOL0     H17275   4.869   8.549   2.903 -3.0949 -3.0315 -3.5300
  128MOL0     H17276   4.931   8.763   3.013 -0.3805  0.4999  0.1299
  128MOL0     H17277   4.831   8.680   3.124 -2.8612  0.5335  1.1350
  128MOL0     H17278   4.575   8.991   3.075 -0.0489 -1.0381  5.2771
  128MOL0     H17279   4.448   8.524   2.507  0.1023  1.6048  0.5305
  128MOL0     H17280   4.196   8.517   2.483 -1.6889 -2.0219  0.0639
  129MOL0     O17281   7.463   4.488   1.176 -0.0808 -0.1459  0.0965
  129MOL0     C17282   7.512   4.551   1.080  0.4046 -0.4989  0.3319
  129MOL0     O17283   7.442   4.636   0.991 -0.4481  0.2363  0.7528
  129MOL0     C17284   7.305   4.638   1.006 -0.5860  0.2909 -0.4763
  129MOL0     C17285   7.225   4.540   0.943 -0.0936 -0.0678  0.6207
  129MOL0     C17286   7.087   4.554   0.948 -0.3624 -0.3948  0.4473
  129MOL0     C17287   7.030   4.649   1.025  0.1758 -0.0554 -0.6703
  129MOL0     O17288   6.891   4.651   1.018 -0.6499 -0.2187  0.5005
  129MOL0     C17289   6.821   4.777   1.033  0.5040 -0.6096 -0.9266
  129MOL0     C17290   6.748   4.775   1.169 -1.3389 -0.5450 -0.4711
  129MOL0     C17291   6.660   4.908   1.190 -0.2718  0.2533  0.4618
  129MOL0     C17292   6.569   4.889   1.315  0.4853 -0.2370  0.4330
  129MOL0     C17293   6.490   5.027   1.334 -0.9679 -1.3069 -0.3676
  129MOL0     C17294   6.575   5.146   1.391  0.6807 -0.0203  0.4666
  129MOL0     C17295   6.567   5.146   1.542  0.1661  0.2073  0.0229
  129MOL0     C17296   6.648   5.263   1.599  0.0260 -0.3876 -0.2678
  129MOL0     N17297   6.678   5.271   1.748 -0.4330  0.1847  0.6349
  129MOL0     C17298   6.594   5.333   1.848  0.1182 -0.5807 -0.1089
  129MOL0     C17299   6.633   5.278   1.967 -0.2519  0.3393 -0.5136
  129MOL0     C17300   6.564   5.296   2.097  0.3276  0.0144 -0.2387
  129MOL0     C17301   6.639   5.402   2.183  0.5352  0.3178  0.3286
  129MOL0     C17302   6.611   5.546   2.141 -0.0541 -0.2752 -0.6019
  129MOL0     C17303   6.661   5.643   2.251 -0.7174 -0.0068  0.2975
  129MOL0     O17304   6.658   5.780   2.216  0.3239 -0.3714 -0.7049
  129MOL0     C17305   6.544   5.837   2.167  0.8066 -0.3794 -0.1718
  129MOL0     C17306   6.540   5.898   2.045  0.2473  0.1169  0.2368
  129MOL0     C17307   6.428   5.938   1.980  0.3340 -0.7220  0.4374
  129MOL0     C17308   6.437   5.975   1.825  0.3327 -0.6789 -1.2303
  129MOL0     C17309   6.307   5.939   2.060 -0.9853 -0.3449  0.2646
  129MOL0     C17310   6.175   5.997   2.013  0.4104  0.1802 -0.1155
  129MOL0     O17311   6.083   6.047   2.108  0.2567  0.4191 -0.2586
  129MOL0     C17312   5.981   6.125   2.048 -0.0159  0.9680 -0.1085
  129MOL0     C17313   6.024   6.232   1.968  0.7441 -0.4909  0.5939
  129MOL0     C17314   5.921   6.319   1.912  1.0653  0.5568 -0.1304
  129MOL0     C17315   5.783   6.294   1.930  0.5820 -0.2178 -0.3561
  129MOL0     O17316   5.676   6.373   1.901  0.2371 -0.3200  0.6316
  129MOL0     C17317   5.682   6.452   1.778  0.2732  0.4773 -0.4832
  129MOL0     C17318   5.554   6.468   1.691  0.7675  0.2959  0.0948
  129MOL0     C17319   5.440   6.525   1.782 -0.1127 -0.6987  0.5625
  129MOL0     C17320   5.317   6.529   1.686 -1.1073 -0.7577  0.1398
  129MOL0     C17321   5.195   6.567   1.764 -0.1436  0.2003  0.4240
  129MOL0     C17322   5.071   6.555   1.686  1.1777 -0.5441  0.2306
  129MOL0     C17323   4.948   6.591   1.767  0.1827 -0.4608 -0.1172
  129MOL0     C17324   4.824   6.637   1.697 -0.1894 -0.1418  0.5290
  129MOL0    Cl17325   4.870   6.760   1.569  0.6022  0.0080  0.2083
  129MOL0     C17326   5.752   6.181   2.006  0.4987 -0.6773  0.9555
  129MOL0     C17327   5.844   6.107   2.074  0.0419  0.0339 -0.4117
  129MOL0     O17328   6.151   5.980   1.895  0.3849 -0.1759  0.0765
  129MOL0     C17329   6.309   5.888   2.191 -1.2315  0.6166 -0.2044
  129MOL0     C17330   6.429   5.845   2.249 -0.3523 -0.1162 -0.2616
  129MOL0     N17331   6.737   5.191   1.938  0.1287 -0.4270  0.6638
  129MOL0     N17332   6.756   5.179   1.809 -0.2360 -0.2045 -0.1000
  129MOL0     C17333   7.106   4.747   1.088 -0.7198 -0.9001 -0.8578
  129MOL0     C17334   7.253   4.738   1.080 -0.3962 -0.8778  0.3807
  129MOL0     C17335   7.654   4.529   1.048 -1.2766  0.0720  0.5883
  129MOL0     C17336   7.727   4.427   1.098  0.1044 -0.2921 -1.3375
  129MOL0     C17337   7.857   4.405   1.052  0.3093  0.3332  0.0611
  129MOL0     C17338   7.918   4.491   0.959  0.9537 -0.2946  0.1959
  129MOL0     O17339   8.053   4.493   0.928  1.1612  0.3270 -0.1282
  129MOL0     C17340   8.122   4.381   0.979 -0.7883  0.1351  0.8466
  129MOL0     C17341   8.250   4.354   0.898  0.1995 -0.0670  0.6795
  129MOL0     C17342   8.342   4.472   0.903  0.8982  0.4910  0.3800
  129MOL0     C17343   8.485   4.428   0.882  0.0285  0.2072 -0.3502
  129MOL0     C17344   8.580   4.543   0.910  0.3182 -0.1870 -0.7034
  129MOL0     C17345   8.651   4.636   0.934 -0.7044  0.5671 -0.7434
  129MOL0     C17346   7.846   4.602   0.911 -0.4396 -0.4417 -1.1667
  129MOL0     C17347   7.718   4.626   0.958  0.3025  0.3494  0.0537
  129MOL0     H17348   7.266   4.463   0.878 -1.3328  1.3164 -1.9729
  129MOL0     H17349   7.025   4.490   0.886  0.1837 -2.4571  1.9272
  129MOL0     H17350   6.884   4.866   1.028  0.7784 -0.6661  0.8796
  129MOL0     H17351   6.740   4.787   0.960 -0.7303 -0.9853  0.3518
  129MOL0     H17352   6.677   4.695   1.190 -1.6883 -0.0141  0.4394
  129MOL0     H17353   6.828   4.778   1.243  1.2418 -0.7178 -3.0671
  129MOL0     H17354   6.730   4.993   1.190  2.4949 -1.8175 -2.0132
  129MOL0     H17355   6.593   4.919   1.105 -1.9378 -3.3589  1.1239
  129MOL0     H17356   6.497   4.810   1.294  0.7756 -0.4312  0.1553
  129MOL0     H17357   6.623   4.858   1.405 -0.3823 -0.4780  0.8838
  129MOL0     H17358   6.456   5.063   1.237 -2.7963 -1.3920  0.2002
  129MOL0     H17359   6.410   5.002   1.405 -0.5398 -2.7541 -0.3457
  129MOL0     H17360   6.682   5.137   1.368  0.4400 -0.9452 -0.3797
  129MOL0     H17361   6.556   5.249   1.360  3.5494  1.4456  3.0123
  129MOL0     H17362   6.462   5.154   1.572 -0.1331 -0.9003 -0.6855
  129MOL0     H17363   6.605   5.051   1.581 -0.2530  0.2957  0.6744
  129MOL0     H17364   6.592   5.355   1.584 -0.2368 -0.6242 -0.7467
  129MOL0     H17365   6.746   5.265   1.550  0.8693  0.0902  1.3329
  129MOL0     H17366   6.509   5.399   1.843  1.8848  1.8178 -0.1881
  129MOL0     H17367   6.462   5.330   2.082  0.1103 -1.2144 -1.8758
  129MOL0     H17368   6.555   5.203   2.154 -3.1391 -0.1491 -0.8280
  129MOL0     H17369   6.748   5.390   2.183  0.5530  0.2577 -1.4702
  129MOL0     H17370   6.604   5.384   2.285  2.6341 -1.2787  0.8397
  129MOL0     H17371   6.505   5.558   2.118  0.0186 -0.8729 -1.2786
  129MOL0     H17372   6.658   5.566   2.044 -1.5435 -1.3838 -1.5912
  129MOL0     H17373   6.766   5.620   2.270 -0.7407 -1.8384 -1.5086
  129MOL0     H17374   6.596   5.634   2.339  0.3958 -0.5995  1.0840
  129MOL0     H17375   6.629   5.894   1.983 -1.0872  3.2397 -2.1286
  129MOL0     H17376   6.538   5.962   1.786  1.0627 -1.9035  0.8564
  129MOL0     H17377   6.373   5.901   1.776  0.3082 -0.6812 -1.1952
  129MOL0     H17378   6.400   6.075   1.803 -0.9448 -0.1735  2.4288
  129MOL0     H17379   6.125   6.261   1.944  0.0399  2.1660  0.5233
  129MOL0     H17380   5.949   6.404   1.851 -0.2468  1.8145  0.9485
  129MOL0     H17381   5.731   6.548   1.800  2.9584 -0.8019 -0.5029
  129MOL0     H17382   5.752   6.404   1.710  1.1049  0.7046  0.1860
  129MOL0     H17383   5.569   6.539   1.609  0.9159 -0.6642 -0.7205
  129MOL0     H17384   5.523   6.370   1.653 -1.5997  0.4521  1.3928
  129MOL0     H17385   5.464   6.624   1.822  2.4350 -0.5048 -1.1563
  129MOL0     H17386   5.418   6.457   1.865  0.7702  1.4329  2.6765
  129MOL0     H17387   5.339   6.603   1.609 -0.2137 -0.7179  0.4267
  129MOL0     H17388   5.300   6.436   1.631 -1.0027  0.9045 -2.9348
  129MOL0     H17389   5.205   6.668   1.804  2.9824  0.9501 -1.8597
  129MOL0     H17390   5.182   6.496   1.847 -1.7540 -1.9436 -1.5158
  129MOL0     H17391   5.074   6.610   1.591  0.9487 -0.8148  0.0641
  129MOL0     H17392   5.052   6.456   1.643  0.2577  1.4078 -4.5795
  129MOL0     H17393   4.987   6.659   1.844  0.2093 -0.3765 -0.2054
  129MOL0     H17394   4.910   6.503   1.820  2.0421 -1.5839 -0.5570
  129MOL0     H17395   4.757   6.694   1.762 -0.9884  1.5086 -1.6059
  129MOL0     H17396   4.763   6.554   1.660 -1.7831  0.9849  0.5333
  129MOL0     H17397   5.648   6.154   2.023  0.4501 -1.0969  0.0516
  129MOL0     H17398   5.800   6.030   2.137 -1.2975  1.8188  0.9519
  129MOL0     H17399   6.213   5.884   2.240 -1.3487 -0.9615 -0.4883
  129MOL0     H17400   6.450   5.808   2.349  3.7543 -0.0343 -0.9212
  129MOL0     H17401   7.059   4.813   1.161  0.3420  0.7394 -1.5912
  129MOL0     H17402   7.310   4.817   1.128 -1.4831  0.2685 -0.1476
  129MOL0     H17403   7.681   4.358   1.168 -2.2729  1.4473 -1.0512
  129MOL0     H17404   7.908   4.329   1.111 -0.5447  0.0521  0.4659
  129MOL0     H17405   8.145   4.402   1.084 -2.5758 -0.7913  1.4702
  129MOL0     H17406   8.060   4.291   0.972 -1.6430  0.8282 -0.9454
  129MOL0     H17407   8.226   4.345   0.791 -0.9881 -0.8801  0.9922
  129MOL0     H17408   8.296   4.259   0.928 -0.2595 -0.7663 -0.7287
  129MOL0     H17409   8.337   4.526   0.998  0.9052 -0.6448  1.0370
  129MOL0     H17410   8.317   4.538   0.819 -0.7359 -0.2553  0.2510
  129MOL0     H17411   8.491   4.394   0.779 -1.9940 -0.5486 -0.2749
  129MOL0     H17412   8.498   4.338   0.943 -4.0285 -0.7877 -0.6813
  129MOL0     H17413   8.710   4.718   0.970 -0.1609 -0.4182  0.6870
  129MOL0     H17414   7.895   4.678   0.851  2.7983  0.4300  2.2436
  129MOL0     H17415   7.665   4.711   0.914  1.2665  1.3647  0.7889
  130MOL0     O17416   4.836   1.490   6.929  0.0521  0.5449  0.1957
  130MOL0     C17417   4.886   1.597   6.907  0.0137 -0.3018  0.5945
  130MOL0     O17418   4.827   1.698   6.844  0.7170 -0.3156 -0.0537
  130MOL0     C17419   4.691   1.686   6.822 -0.0927 -0.8518 -0.0276
  130MOL0     C17420   4.603   1.773   6.885  0.1074 -0.1260  0.6580
  130MOL0     C17421   4.469   1.773   6.841  0.2258 -0.0689  0.2510
  130MOL0     C17422   4.426   1.677   6.746  0.4485  0.4479  0.8685
  130MOL0     O17423   4.298   1.674   6.699  0.4872  0.3058  0.1349
  130MOL0     C17424   4.275   1.679   6.561  0.0626 -0.3368 -0.1139
  130MOL0     C17425   4.171   1.580   6.502 -0.1562  0.6285 -0.5836
  130MOL0     C17426   4.023   1.606   6.530 -1.2419  0.0390  0.7525
  130MOL0     C17427   3.935   1.521   6.439 -0.0313 -0.4639 -0.3073
  130MOL0     C17428   3.786   1.533   6.473  0.3194 -0.4523 -0.0686
  130MOL0     C17429   3.701   1.505   6.345 -0.3981  0.3054  0.4790
  130MOL0     C17430   3.552   1.528   6.371  0.5808  1.2057 -0.4731
  130MOL0     C17431   3.475   1.479   6.256  0.4007 -0.3804 -0.4271
  130MOL0     N17432   3.349   1.424   6.304  0.9567 -0.0283 -0.2200
  130MOL0     C17433   3.325   1.295   6.351  0.2585  0.3318  0.7309
  130MOL0     C17434   3.191   1.270   6.338 -0.8008 -0.6785 -0.8540
  130MOL0     C17435   3.119   1.134   6.348 -0.4689 -0.3085 -0.4843
  130MOL0     C17436   3.048   1.122   6.488 -0.0907  0.2776  0.0263
  130MOL0     C17437   3.023   0.973   6.512  0.1160 -0.2356  0.6529
  130MOL0     C17438   2.894   0.933   6.440  0.1722  0.3353 -0.2840
  130MOL0     O17439   2.893   0.791   6.409 -0.0926 -0.1927  0.2227
  130MOL0     C17440   2.765   0.758   6.374  0.5419 -0.4847  0.1650
  130MOL0     C17441   2.713   0.634   6.427 -0.2770  0.3063 -0.2104
  130MOL0     C17442   2.574   0.596   6.418  0.7877 -0.2155 -0.3121
  130MOL0     C17443   2.548   0.458   6.471  0.7359  0.0005 -1.0865
  130MOL0     C17444   2.482   0.672   6.349  0.0880 -0.4074 -1.2128
  130MOL0     C17445   2.346   0.640   6.310 -1.3567 -0.7505 -0.1632
  130MOL0     O17446   2.272   0.744   6.266  0.4115  0.5606  1.1510
  130MOL0     C17447   2.138   0.714   6.231 -1.3001 -0.2922 -0.3462
  130MOL0     C17448   2.108   0.632   6.125  0.1222  0.8419  0.4790
  130MOL0     C17449   1.976   0.612   6.082  0.4777 -0.2096 -0.1129
  130MOL0     C17450   1.871   0.677   6.145  0.3598 -0.3043 -0.2565
  130MOL0     O17451   1.750   0.656   6.090 -0.1288 -0.2817  0.0351
  130MOL0     C17452   1.630   0.717   6.146 -0.4937  0.1060  0.1107
  130MOL0     C17453   1.525   0.693   6.037  0.4543  0.5573  0.2174
  130MOL0     C17454   1.371   0.696   6.074 -0.0563 -0.4136 -0.2509
  130MOL0     C17455   1.301   0.798   5.977 -0.5350 -0.1085 -0.4388
  130MOL0     C17456   1.174   0.847   6.037  0.9362  0.0987 -0.3204
  130MOL0     C17457   1.067   0.733   6.049 -0.9179 -0.4496 -0.5489
  130MOL0     C17458   0.948   0.783   6.130 -0.4465  0.0589 -0.5007
  130MOL0     C17459   0.847   0.675   6.156 -0.0506 -0.0049 -0.1363
  130MOL0    Cl17460   0.919   0.553   6.265 -0.2424 -0.1813  0.1541
  130MOL0     C17461   1.898   0.750   6.261 -0.4199 -0.0033 -0.4341
  130MOL0     C17462   2.034   0.771   6.302  1.2553  0.6958  0.4241
  130MOL0     O17463   2.315   0.520   6.303 -0.0512  0.1542  0.2592
  130MOL0     C17464   2.532   0.793   6.292 -0.2200 -0.2365  0.4616
  130MOL0     C17465   2.666   0.834   6.316  0.4912  0.2410 -0.1425
  130MOL0     N17466   3.137   1.385   6.286 -0.0285 -0.7782  0.0924
  130MOL0     N17467   3.230   1.479   6.271 -0.0359 -0.1495  0.3912
  130MOL0     C17468   4.514   1.573   6.703 -0.4898 -0.6678 -0.6733
  130MOL0     C17469   4.649   1.584   6.738  0.9443  0.5254 -0.5169
  130MOL0     C17470   5.023   1.615   6.954  0.1173 -0.0214  0.1305
  130MOL0     C17471   5.063   1.741   6.994  0.9415  1.2815  0.1491
  130MOL0     C17472   5.183   1.759   7.060 -0.0824 -0.8613 -0.3753
  130MOL0     C17473   5.277   1.661   7.064 -0.6793  0.1120 -0.2906
  130MOL0     O17474   5.399   1.689   7.123 -0.0799  0.0212  0.1506
  130MOL0     C17475   5.500   1.579   7.139  0.1680  0.6398  0.8763
  130MOL0     C17476   5.596   1.580   7.008  0.2594 -1.0108 -0.3853
  130MOL0     C17477   5.702   1.687   7.005 -0.0471 -0.4305 -0.5177
  130MOL0     C17478   5.802   1.671   6.894  0.2594 -0.9394  0.1733
  130MOL0     C17479   5.743   1.705   6.760 -0.6099 -0.1972 -0.1858
  130MOL0     C17480   5.685   1.732   6.659 -0.5441 -0.3472 -0.3787
  130MOL0     C17481   5.242   1.541   7.011 -0.2469 -0.4203 -0.2445
  130MOL0     C17482   5.116   1.513   6.965 -0.2434  0.2652 -0.2299
  130MOL0     H17483   4.645   1.846   6.953 -0.0012  0.6753 -0.1203
  130MOL0     H17484   4.405   1.859   6.859 -0.5075 -0.1420 -1.7292
  130MOL0     H17485   4.229   1.774   6.532  2.7079  1.1280  0.0962
  130MOL0     H17486   4.372   1.662   6.513 -0.1692  1.3865 -1.2697
  130MOL0     H17487   4.194   1.577   6.395  1.1154 -1.6359 -0.3155
  130MOL0     H17488   4.190   1.479   6.541  0.7216  0.3211 -1.7356
  130MOL0     H17489   3.999   1.583   6.635 -0.9923  0.0714  0.8181
  130MOL0     H17490   3.998   1.712   6.524  0.1897  0.4028  0.7632
  130MOL0     H17491   3.954   1.562   6.340  0.6853 -0.1463 -0.0473
  130MOL0     H17492   3.969   1.417   6.447 -0.0039 -0.3884  0.7375
  130MOL0     H17493   3.746   1.461   6.544 -3.3959  1.3513 -0.0496
  130MOL0     H17494   3.769   1.637   6.503 -1.5930  0.1718 -2.9093
  130MOL0     H17495   3.723   1.574   6.263 -1.4370 -1.8302 -1.7250
  130MOL0     H17496   3.723   1.407   6.303  3.0492  0.4176  1.7078
  130MOL0     H17497   3.523   1.468   6.458  1.6918 -0.8933 -1.4924
  130MOL0     H17498   3.548   1.635   6.394  0.0310  0.9436  0.7296
  130MOL0     H17499   3.521   1.397   6.200 -0.1884  0.8823 -2.8737
  130MOL0     H17500   3.467   1.560   6.182  0.1949  1.1380  1.1860
  130MOL0     H17501   3.404   1.228   6.383  1.3057  0.4975 -1.3656
  130MOL0     H17502   3.047   1.117   6.267 -1.1776  1.0816 -0.1854
  130MOL0     H17503   3.191   1.052   6.343 -0.4530 -0.3357  0.0454
  130MOL0     H17504   2.959   1.183   6.499  0.4508  1.1551 -0.3159
  130MOL0     H17505   3.116   1.152   6.568 -1.4889  0.6402  1.1149
  130MOL0     H17506   3.001   0.946   6.616 -2.6394  0.5239  0.3548
  130MOL0     H17507   3.110   0.917   6.476  0.1098  1.2298 -1.8668
  130MOL0     H17508   2.887   0.989   6.346  2.2820 -0.7573 -1.1764
  130MOL0     H17509   2.818   0.983   6.499  2.4374  3.8742 -0.0858
  130MOL0     H17510   2.789   0.566   6.463 -1.3338  0.4069  2.4491
  130MOL0     H17511   2.547   0.389   6.385  2.9019 -0.0866 -1.0987
  130MOL0     H17512   2.634   0.436   6.534 -0.8603  0.6172  1.4487
  130MOL0     H17513   2.453   0.458   6.526  1.1734  1.8998 -0.2615
  130MOL0     H17514   2.184   0.579   6.069  1.8634  3.3535  0.2627
  130MOL0     H17515   1.954   0.557   5.991  1.9260 -0.3766 -0.3989
  130MOL0     H17516   1.598   0.660   6.234 -2.8339 -3.6296 -2.8898
  130MOL0     H17517   1.643   0.824   6.167 -0.6501  0.7583 -2.7510
  130MOL0     H17518   1.544   0.746   5.943 -1.3744  0.4611 -0.2451
  130MOL0     H17519   1.553   0.592   6.006  0.0845 -0.4628  2.9231
  130MOL0     H17520   1.362   0.732   6.177 -2.4337 -1.5098 -0.0157
  130MOL0     H17521   1.330   0.596   6.061 -0.9178 -0.0785 -0.2113
  130MOL0     H17522   1.366   0.884   5.955  1.0294 -1.4760 -1.3606
  130MOL0     H17523   1.277   0.748   5.883 -0.3483 -3.5002  1.1821
  130MOL0     H17524   1.139   0.937   5.986  0.7082 -0.7155 -1.6313
  130MOL0     H17525   1.195   0.882   6.139  0.7617  0.6366 -0.4648
  130MOL0     H17526   1.029   0.715   5.948 -1.9282  1.2353 -0.4974
  130MOL0     H17527   1.107   0.642   6.096 -1.3662  0.1644  1.0940
  130MOL0     H17528   0.912   0.878   6.091 -0.2771  0.1801 -0.3610
  130MOL0     H17529   0.978   0.810   6.232 -1.2260  1.0624 -0.5251
  130MOL0     H17530   0.818   0.629   6.062 -0.3068  0.9193 -0.5229
  130MOL0     H17531   0.758   0.713   6.208 -0.1000 -1.2121  0.7080
  130MOL0     H17532   1.826   0.797   6.327 -0.0292  0.6062 -0.4326
  130MOL0     H17533   2.038   0.843   6.384 -2.2106 -0.4135  1.7266
  130MOL0     H17534   2.469   0.852   6.227  1.3648 -2.3865 -3.3104
  130MOL0     H17535   2.702   0.922   6.264  0.5417 -0.0781 -0.6555
  130MOL0     H17536   4.486   1.490   6.640  2.0587 -1.3612 -1.0247
  130MOL0     H17537   4.720   1.508   6.705  2.2215 -0.3336  3.6028
  130MOL0     H17538   4.993   1.822   6.977  0.0423  0.3984 -0.4616
  130MOL0     H17539   5.202   1.855   7.106 -1.0511  0.7376 -3.0575
  130MOL0     H17540   5.554   1.605   7.231 -0.7238  1.5028  1.1823
  130MOL0     H17541   5.450   1.483   7.154 -0.7969  1.1155  0.7855
  130MOL0     H17542   5.533   1.601   6.920 -0.9322 -0.3784  0.5789
  130MOL0     H17543   5.643   1.482   7.000 -0.6622 -1.8955  3.0818
  130MOL0     H17544   5.752   1.685   7.102 -0.7733 -2.7312 -0.1204
  130MOL0     H17545   5.659   1.786   6.989  0.2264  0.1934  2.1911
  130MOL0     H17546   5.833   1.567   6.896 -2.4027 -1.8023  1.6535
  130MOL0     H17547   5.875   1.753   6.898  2.9143 -2.9808 -2.3818
  130MOL0     H17548   5.646   1.761   6.563 -2.6504  0.4065  0.6441
  130MOL0     H17549   5.303   1.452   7.011  1.8534  0.8523 -3.0023
  130MOL0     H17550   5.089   1.410   6.943 -0.7595  0.0431  1.3621
  131MOL0     O17551   6.722   5.799   0.843  0.3724  0.2341 -0.7792
  131MOL0     C17552   6.758   5.691   0.868  0.1211 -0.0514 -0.4616
  131MOL0     O17553   6.692   5.606   0.953 -0.6404  0.2521 -0.4564
  131MOL0     C17554   6.566   5.633   1.010  0.6611  0.5823 -0.0721
  131MOL0     C17555   6.462   5.703   0.949  0.3204  0.8469 -0.5629
  131MOL0     C17556   6.327   5.685   0.983 -0.4318  0.4647 -0.2050
  131MOL0     C17557   6.304   5.580   1.073  0.3294  0.5837 -0.8006
  131MOL0     O17558   6.178   5.553   1.127 -0.7961 -0.4182  0.0162
  131MOL0     C17559   6.064   5.617   1.061  0.3227  1.0282 -0.1390
  131MOL0     C17560   5.928   5.559   1.098  0.2497  0.3722  0.3192
  131MOL0     C17561   5.874   5.573   1.245 -0.6504 -0.0513  0.8833
  131MOL0     C17562   5.747   5.483   1.251 -0.9142  0.4841 -0.8673
  131MOL0     C17563   5.630   5.536   1.339 -0.3353 -0.0429 -0.5373
  131MOL0     C17564   5.543   5.633   1.278 -0.1648 -0.3647  0.2512
  131MOL0     C17565   5.405   5.650   1.344 -0.7743 -0.2802  0.2651
  131MOL0     C17566   5.415   5.658   1.499  0.1904 -0.4126 -0.2429
  131MOL0     N17567   5.264   5.651   1.541 -0.2809  0.1433  0.1017
  131MOL0     C17568   5.172   5.748   1.550  0.3641 -0.9313  1.0008
  131MOL0     C17569   5.058   5.695   1.600 -0.9394  0.2541  0.3233
  131MOL0     C17570   4.929   5.770   1.599  0.1960 -0.5028  0.5091
  131MOL0     C17571   4.863   5.740   1.467  0.0832  0.2446  0.0769
  131MOL0     C17572   4.704   5.746   1.486  0.9250  0.0258  0.0350
  131MOL0     C17573   4.626   5.754   1.352  0.4894  0.1291  0.3450
  131MOL0     O17574   4.484   5.746   1.378 -0.1557  0.8571  0.3139
  131MOL0     C17575   4.401   5.738   1.271  0.3762  0.6192  1.0954
  131MOL0     C17576   4.433   5.788   1.145  0.4415  0.2826 -0.1812
  131MOL0     C17577   4.337   5.813   1.044  0.5039  0.0819 -0.5742
  131MOL0     C17578   4.382   5.857   0.909 -0.4086  0.8486  0.1911
  131MOL0     C17579   4.199   5.787   1.079 -0.3730  0.5280 -0.5674
  131MOL0     C17580   4.082   5.813   0.990  0.7525  0.6083 -0.1177
  131MOL0     O17581   3.959   5.745   1.024  0.3601 -0.5198  0.3491
  131MOL0     C17582   3.845   5.781   0.956 -0.6297 -0.5315  0.2127
  131MOL0     C17583   3.788   5.674   0.892 -0.1574 -0.0250  0.5365
  131MOL0     C17584   3.663   5.684   0.831 -0.3714  0.8348  0.0110
  131MOL0     C17585   3.598   5.804   0.838  0.4047 -0.4078 -0.3069
  131MOL0     O17586   3.475   5.814   0.772 -0.2560  0.2139 -0.3231
  131MOL0     C17587   3.375   5.886   0.838 -0.1328  0.2578  0.8385
  131MOL0     C17588   3.232   5.847   0.787  0.4091 -0.2947 -0.3070
  131MOL0     C17589   3.118   5.909   0.877  0.0502  0.3333  0.0235
  131MOL0     C17590   2.983   5.883   0.813  0.6019 -0.0765 -0.6157
  131MOL0     C17591   2.865   5.970   0.865  0.0039 -0.2278 -0.9035
  131MOL0     C17592   2.728   5.927   0.816 -1.1226  0.1713 -0.9285
  131MOL0     C17593   2.638   6.049   0.800 -0.1100 -0.3797  0.4491
  131MOL0     C17594   2.496   5.999   0.749 -1.0533  0.1521 -0.3881
  131MOL0    Cl17595   2.418   5.910   0.875  0.2909 -0.7386  0.6843
  131MOL0     C17596   3.650   5.915   0.909 -0.1552 -0.1374 -0.2595
  131MOL0     C17597   3.774   5.901   0.970 -0.4518  0.7350 -1.0383
  131MOL0     O17598   4.099   5.902   0.905  0.1989  0.4556  0.7626
  131MOL0     C17599   4.176   5.730   1.207  0.1188 -0.4410  0.0232
  131MOL0     C17600   4.270   5.706   1.301 -0.4683 -0.7624  0.0039
  131MOL0     N17601   5.077   5.562   1.630  0.0408 -0.7931 -0.3629
  131MOL0     N17602   5.200   5.542   1.592  0.1565 -0.4334 -0.3386
  131MOL0     C17603   6.406   5.507   1.137 -0.5202  0.5768 -0.4078
  131MOL0     C17604   6.540   5.540   1.116 -0.4602  0.3229  0.4132
  131MOL0     C17605   6.891   5.649   0.810 -0.5689 -0.0754 -0.4921
  131MOL0     C17606   6.961   5.535   0.854  0.6621 -0.1496 -0.2476
  131MOL0     C17607   7.081   5.508   0.804 -0.6263  0.1770  0.4580
  131MOL0     C17608   7.141   5.574   0.696  0.5667 -0.2624  0.6906
  131MOL0     O17609   7.269   5.552   0.641  0.2011  0.2983  0.1065
  131MOL0     C17610   7.338   5.427   0.654 -0.0517 -0.4658  0.7541
  131MOL0     C17611   7.477   5.426   0.602  0.4291 -0.6530 -0.1422
  131MOL0     C17612   7.489   5.452   0.452  0.5816 -0.2777 -0.7674
  131MOL0     C17613   7.630   5.449   0.391  0.2757 -0.4256 -0.8190
  131MOL0     C17614   7.679   5.307   0.405  0.2423 -0.3760  1.1245
  131MOL0     C17615   7.721   5.191   0.405 -0.4922 -0.0117 -0.6273
  131MOL0     C17616   7.080   5.695   0.657  0.3855  0.7408 -0.3448
  131MOL0     C17617   6.960   5.734   0.719  0.3326 -0.2059  0.0648
  131MOL0     H17618   6.488   5.775   0.872  0.8372  1.0337 -0.2171
  131MOL0     H17619   6.255   5.739   0.924  0.7227  0.3776 -1.7608
  131MOL0     H17620   6.063   5.726   1.068 -1.1158  1.3102 -3.1902
  131MOL0     H17621   6.068   5.601   0.953 -2.8705 -0.0010 -0.2080
  131MOL0     H17622   5.856   5.619   1.042  0.5758  3.2506  2.7702
  131MOL0     H17623   5.924   5.452   1.073 -0.9213 -0.3566  3.1720
  131MOL0     H17624   5.951   5.544   1.317  2.8158  2.5653 -1.4724
  131MOL0     H17625   5.841   5.676   1.265  1.6028  1.0674 -0.6867
  131MOL0     H17626   5.708   5.454   1.153 -1.6488 -3.1390  0.3219
  131MOL0     H17627   5.781   5.391   1.300 -0.0987  0.0017 -2.2703
  131MOL0     H17628   5.565   5.456   1.376 -2.7684  1.6664 -0.8997
  131MOL0     H17629   5.674   5.570   1.433 -0.7186  0.5593 -0.5709
  131MOL0     H17630   5.593   5.729   1.261 -1.6403  0.5384  0.8121
  131MOL0     H17631   5.522   5.584   1.183  2.8313 -1.3722 -0.0062
  131MOL0     H17632   5.367   5.745   1.306  2.3792  0.6633 -0.8495
  131MOL0     H17633   5.338   5.569   1.313  2.0997 -2.0171 -1.9085
  131MOL0     H17634   5.463   5.750   1.532 -0.8609  0.9345 -2.2363
  131MOL0     H17635   5.465   5.571   1.543  0.0026 -1.6289 -2.2547
  131MOL0     H17636   5.189   5.855   1.536  1.4181 -1.2491 -0.2999
  131MOL0     H17637   4.869   5.733   1.682 -1.7672 -0.6004 -0.8839
  131MOL0     H17638   4.949   5.877   1.611  1.0907 -0.9120  3.3702
  131MOL0     H17639   4.897   5.639   1.440 -1.6841 -1.4012  3.3624
  131MOL0     H17640   4.895   5.812   1.392 -0.9857 -0.1761 -0.8104
  131MOL0     H17641   4.664   5.831   1.542 -1.3141 -0.3788 -0.8591
  131MOL0     H17642   4.675   5.655   1.538 -0.8687  0.2529 -0.5004
  131MOL0     H17643   4.658   5.667   1.294  0.0368  1.2362 -1.6961
  131MOL0     H17644   4.649   5.851   1.307 -0.9048  0.6098  0.6244
  131MOL0     H17645   4.534   5.817   1.121 -0.3939  4.2062  0.3873
  131MOL0     H17646   4.316   5.813   0.834 -0.8606  0.8414  0.5905
  131MOL0     H17647   4.371   5.965   0.899 -0.4404  0.6974 -1.7931
  131MOL0     H17648   4.484   5.830   0.880 -1.2091 -0.5076 -1.5429
  131MOL0     H17649   3.836   5.577   0.881 -4.1006 -2.2348  0.6586
  131MOL0     H17650   3.624   5.596   0.780 -0.5427  0.7653  0.2631
  131MOL0     H17651   3.381   5.875   0.947 -0.4433 -1.7907  0.6943
  131MOL0     H17652   3.390   5.991   0.813  0.1722  0.3016  1.2014
  131MOL0     H17653   3.220   5.892   0.688 -1.6934 -0.2960 -0.1010
  131MOL0     H17654   3.207   5.741   0.780 -0.5942 -0.1245  0.3415
  131MOL0     H17655   3.140   6.016   0.874 -0.8110  0.6249  2.2759
  131MOL0     H17656   3.133   5.865   0.976 -1.3938  1.4094  0.7451
  131MOL0     H17657   2.983   5.905   0.705  0.4538  0.7141 -0.4602
  131MOL0     H17658   2.961   5.777   0.830 -1.1092 -0.4513 -4.1324
  131MOL0     H17659   2.881   6.074   0.836 -1.1302  0.1962 -0.1093
  131MOL0     H17660   2.868   5.967   0.975  2.3656  0.4338 -0.9031
  131MOL0     H17661   2.740   5.881   0.717 -0.5320 -0.2765 -0.6486
  131MOL0     H17662   2.686   5.851   0.882  1.1196 -1.7229 -1.5579
  131MOL0     H17663   2.679   6.119   0.726  1.4078 -2.5021 -0.8308
  131MOL0     H17664   2.627   6.097   0.898 -2.5202 -1.1519  0.6105
  131MOL0     H17665   2.504   5.927   0.667 -0.6149 -1.3644  0.9204
  131MOL0     H17666   2.432   6.080   0.714 -2.5095 -0.0126  1.7085
  131MOL0     H17667   3.587   6.003   0.916  0.2392  0.3256 -2.0886
  131MOL0     H17668   3.818   5.977   1.033 -2.6617  0.7607  0.6038
  131MOL0     H17669   4.073   5.711   1.235  0.4504 -4.0736 -0.7927
  131MOL0     H17670   4.253   5.668   1.401  1.8357 -0.7135  0.4731
  131MOL0     H17671   6.378   5.417   1.191 -0.0481  1.3846  1.2345
  131MOL0     H17672   6.625   5.482   1.150  1.1317  0.2408 -3.2806
  131MOL0     H17673   6.927   5.474   0.937  1.1105  0.1919  0.1891
  131MOL0     H17674   7.123   5.421   0.854  1.9782  1.0984  0.0441
  131MOL0     H17675   7.342   5.396   0.759 -1.7409 -0.8725  0.7286
  131MOL0     H17676   7.289   5.349   0.595  1.7991  0.3872 -2.0791
  131MOL0     H17677   7.518   5.330   0.633  2.5566 -0.6440 -2.5907
  131MOL0     H17678   7.531   5.504   0.656  2.8488 -3.8019  2.3437
  131MOL0     H17679   7.444   5.550   0.435  1.3516  0.2362  0.1111
  131MOL0     H17680   7.423   5.393   0.388 -0.3590  1.0794 -1.0807
  131MOL0     H17681   7.698   5.509   0.451  0.9409 -0.2357 -1.7419
  131MOL0     H17682   7.630   5.493   0.291 -3.3668  0.1192 -0.7014
  131MOL0     H17683   7.754   5.089   0.397 -1.8353 -0.3915 -1.6347
  131MOL0     H17684   7.122   5.765   0.585  1.3061  1.5414  0.9288
  131MOL0     H17685   6.903   5.816   0.675  0.7800 -0.3037 -0.7084
  132MOL0     O17686   4.163   1.277   4.570 -0.2592 -0.1387  0.1569
  132MOL0     C17687   4.162   1.290   4.692 -0.2543  0.2735 -0.2074
  132MOL0     O17688   4.063   1.265   4.776  0.5595 -0.6769 -0.1791
  132MOL0     C17689   3.956   1.190   4.735  0.8509 -0.3304  0.2903
  132MOL0     C17690   3.949   1.088   4.637 -0.0440 -0.1546 -0.2774
  132MOL0     C17691   3.838   1.011   4.613 -0.8173  0.0449  0.5096
  132MOL0     C17692   3.722   1.032   4.688 -0.1409 -0.4316 -1.4354
  132MOL0     O17693   3.622   0.948   4.661  0.8680  0.0604 -1.5432
  132MOL0     C17694   3.494   1.004   4.633 -0.3131 -0.6777 -0.0255
  132MOL0     C17695   3.396   0.886   4.623 -0.0964 -0.2621  0.2061
  132MOL0     C17696   3.359   0.817   4.758  0.2760 -0.0893 -0.8837
  132MOL0     C17697   3.285   0.683   4.732  0.2172  0.2842 -0.1981
  132MOL0     C17698   3.218   0.649   4.866  0.6143 -0.7281 -0.1032
  132MOL0     C17699   3.111   0.546   4.836 -0.7761 -0.4908 -0.3068
  132MOL0     C17700   3.188   0.427   4.784 -0.0571  0.0618 -0.5784
  132MOL0     C17701   3.119   0.292   4.814  0.2314  1.3748  0.1158
  132MOL0     N17702   2.985   0.290   4.751  0.4687  0.7455  0.4193
  132MOL0     C17703   2.867   0.298   4.819 -0.1338  0.7978 -0.2418
  132MOL0     C17704   2.770   0.268   4.733 -0.3712  0.2778  0.2094
  132MOL0     C17705   2.626   0.255   4.765 -0.8549  0.3079 -0.5229
  132MOL0     C17706   2.527   0.275   4.652  0.4035 -0.3267 -0.8114
  132MOL0     C17707   2.385   0.238   4.679 -0.7629 -0.3125 -0.4052
  132MOL0     C17708   2.287   0.288   4.570  0.4819  0.7553  0.0344
  132MOL0     O17709   2.190   0.373   4.630  0.3083  0.4762  0.0564
  132MOL0     C17710   2.057   0.339   4.636 -0.1447  0.2238  0.2259
  132MOL0     C17711   1.996   0.234   4.568  0.0197 -0.3725  0.0206
  132MOL0     C17712   1.857   0.214   4.566  0.2036  0.0660  0.4568
  132MOL0     C17713   1.812   0.074   4.518 -0.5577  0.0428  1.1808
  132MOL0     C17714   1.769   0.317   4.622 -0.0132  0.7030 -0.1111
  132MOL0     C17715   1.624   0.308   4.608  0.1059  0.8451  0.5794
  132MOL0     O17716   1.551   0.383   4.688 -0.2924 -0.4080  0.5308
  132MOL0     C17717   1.418   0.366   4.684 -0.0947 -0.1096 -1.3262
  132MOL0     C17718   1.340   0.425   4.584  0.6035  0.0301  0.2779
  132MOL0     C17719   1.197   0.431   4.594  0.6614 -0.1147 -0.3943
  132MOL0     C17720   1.135   0.369   4.703  0.3457  0.1982 -0.1533
  132MOL0     O17721   0.997   0.367   4.718 -0.5309  0.7267  0.0077
  132MOL0     C17722   0.944   0.494   4.745 -0.0900 -1.1621 -0.1258
  132MOL0     C17723   0.802   0.459   4.762  0.0766 -0.2855 -0.2036
  132MOL0     C17724   0.714   0.570   4.798 -0.5710  0.4575 -0.0094
  132MOL0     C17725   0.574   0.503   4.816 -0.4290 -0.5074  0.1455
  132MOL0     C17726   0.460   0.606   4.827 -1.1397 -0.0353 -0.1277
  132MOL0     C17727   0.419   0.652   4.679 -0.3621  0.5905  0.4264
  132MOL0     C17728   0.269   0.690   4.681  0.1270 -0.4953  0.1701
  132MOL0     C17729   0.215   0.750   4.554  0.1472 -0.6922 -0.4549
  132MOL0    Cl17730   0.057   0.829   4.579  0.3256 -0.0482 -0.4232
  132MOL0     C17731   1.215   0.321   4.806 -0.5544 -0.2466 -0.9334
  132MOL0     C17732   1.355   0.320   4.794  0.3417  0.3976 -0.2484
  132MOL0     O17733   1.577   0.235   4.517  0.4431  0.4375  0.0065
  132MOL0     C17734   1.830   0.429   4.677  0.2904  0.1718 -0.2572
  132MOL0     C17735   1.968   0.436   4.701 -0.1717  0.4835  0.3217
  132MOL0     N17736   2.825   0.260   4.603  0.8684  0.6366 -0.1436
  132MOL0     N17737   2.956   0.265   4.624 -0.3606  0.3009  0.1952
  132MOL0     C17738   3.714   1.135   4.777 -0.5886 -0.0890  0.4959
  132MOL0     C17739   3.834   1.210   4.809 -0.2914  1.2466 -0.1947
  132MOL0     C17740   4.283   1.348   4.753 -0.1439  0.0299  0.0774
  132MOL0     C17741   4.377   1.407   4.672 -0.6272 -0.6627 -0.3464
  132MOL0     C17742   4.493   1.459   4.729 -0.3805  0.1679 -0.0834
  132MOL0     C17743   4.517   1.458   4.861 -0.3882 -0.3838  0.3317
  132MOL0     O17744   4.636   1.509   4.901 -0.5606 -0.1631  0.0264
  132MOL0     C17745   4.658   1.519   5.044 -0.3701  0.0660  0.7772
  132MOL0     C17746   4.767   1.608   5.067 -0.5480  0.1872 -0.0778
  132MOL0     C17747   4.895   1.525   5.051 -1.6689 -0.2133 -0.4966
  132MOL0     C17748   4.996   1.565   5.148 -0.7462 -1.0819  0.0346
  132MOL0     C17749   5.037   1.707   5.125  0.0468  0.2322 -0.5142
  132MOL0     C17750   5.076   1.820   5.125 -0.2987  0.6147  0.4535
  132MOL0     C17751   4.413   1.395   4.943  1.5547 -0.6898  0.2574
  132MOL0     C17752   4.298   1.344   4.891  0.7726 -0.0957 -0.3844
  132MOL0     H17753   4.042   1.050   4.594  1.4455 -0.8774  3.2000
  132MOL0     H17754   3.834   0.941   4.530  3.5384 -0.0312  0.0899
  132MOL0     H17755   3.460   1.068   4.716  0.8455 -1.2101  0.8847
  132MOL0     H17756   3.489   1.061   4.540 -1.5078  1.1964  1.1160
  132MOL0     H17757   3.308   0.929   4.574  3.1918  2.8263 -3.6958
  132MOL0     H17758   3.435   0.811   4.555 -3.8709 -1.4728 -0.8539
  132MOL0     H17759   3.451   0.797   4.815  0.6333 -1.6587 -1.9593
  132MOL0     H17760   3.301   0.890   4.816  2.1888  1.0444 -0.2865
  132MOL0     H17761   3.202   0.695   4.662 -0.7805  1.8651  1.1668
  132MOL0     H17762   3.343   0.610   4.675 -3.5793 -1.3658 -2.2869
  132MOL0     H17763   3.284   0.615   4.946  0.0617  0.7468  1.0358
  132MOL0     H17764   3.158   0.732   4.903 -1.7071 -2.3400 -0.0278
  132MOL0     H17765   3.054   0.522   4.926 -0.3584  0.6443  0.2724
  132MOL0     H17766   3.041   0.577   4.758  0.7562 -1.7742 -2.3065
  132MOL0     H17767   3.202   0.441   4.676  1.1821  0.3399 -0.3984
  132MOL0     H17768   3.285   0.416   4.833 -0.4005  0.5960  0.2251
  132MOL0     H17769   3.101   0.269   4.920 -1.4416 -0.4571 -0.5087
  132MOL0     H17770   3.179   0.212   4.770 -2.0962 -1.2221  1.3442
  132MOL0     H17771   2.846   0.300   4.926 -1.7340  1.0789 -0.5454
  132MOL0     H17772   2.608   0.157   4.811 -1.5086  0.3747 -0.6247
  132MOL0     H17773   2.599   0.321   4.848  1.0555 -2.3523  2.4174
  132MOL0     H17774   2.566   0.208   4.574  3.3476 -4.0322  3.3063
  132MOL0     H17775   2.534   0.380   4.625  2.1272 -0.2680 -0.2955
  132MOL0     H17776   2.362   0.280   4.777 -1.7475 -1.7747  0.0296
  132MOL0     H17777   2.380   0.129   4.674 -0.5371 -0.2749 -1.8861
  132MOL0     H17778   2.240   0.207   4.512  0.4106  3.0572 -3.3971
  132MOL0     H17779   2.349   0.345   4.501 -0.5128  1.7782 -0.0462
  132MOL0     H17780   2.047   0.151   4.518 -2.5870 -0.5409 -2.5759
  132MOL0     H17781   1.902   0.014   4.499 -3.0005 -3.5813  0.1563
  132MOL0     H17782   1.761   0.026   4.602  0.1249 -1.1251  0.9441
  132MOL0     H17783   1.760   0.069   4.423  2.3402 -0.8812 -0.4956
  132MOL0     H17784   1.390   0.458   4.494  1.6006 -4.8582 -1.2695
  132MOL0     H17785   1.137   0.465   4.511 -0.3646 -2.3278 -0.6348
  132MOL0     H17786   0.992   0.541   4.832  0.5264 -1.4030 -0.3347
  132MOL0     H17787   0.953   0.560   4.659 -0.7385  0.9320  1.3316
  132MOL0     H17788   0.772   0.418   4.665  3.5665  1.5135 -2.2331
  132MOL0     H17789   0.798   0.383   4.841  2.0639  1.0464  1.2369
  132MOL0     H17790   0.719   0.641   4.715  1.0497  0.5671  0.1600
  132MOL0     H17791   0.746   0.631   4.883  1.3184  1.0035 -1.0653
  132MOL0     H17792   0.559   0.428   4.738  3.0094  0.6293 -1.8480
  132MOL0     H17793   0.571   0.444   4.908  1.0247 -2.2455 -0.8717
  132MOL0     H17794   0.487   0.690   4.891 -0.0529 -0.3290 -0.1836
  132MOL0     H17795   0.370   0.561   4.871 -0.1647 -2.2027 -0.2480
  132MOL0     H17796   0.480   0.737   4.649 -0.6097  0.3771 -0.7014
  132MOL0     H17797   0.433   0.568   4.610 -2.1736 -0.9224  1.7600
  132MOL0     H17798   0.241   0.769   4.752 -2.7916  1.2031 -2.5713
  132MOL0     H17799   0.206   0.606   4.711  1.0763 -0.4982  2.3734
  132MOL0     H17800   0.194   0.668   4.486 -0.5435 -2.1032  1.3730
  132MOL0     H17801   0.294   0.819   4.523  0.6763 -1.4530 -0.8123
  132MOL0     H17802   1.176   0.276   4.897  2.9992  0.3050  1.0389
  132MOL0     H17803   1.421   0.289   4.874 -0.1378 -0.5629 -0.2076
  132MOL0     H17804   1.765   0.512   4.702  1.1928  0.9363 -0.4083
  132MOL0     H17805   2.015   0.520   4.751  4.1020 -1.7711  0.6196
  132MOL0     H17806   3.626   1.147   4.839  0.8995  0.2452  2.6321
  132MOL0     H17807   3.845   1.285   4.887  0.4530  1.6574 -0.6781
  132MOL0     H17808   4.361   1.421   4.566  1.6909 -1.0884 -0.8139
  132MOL0     H17809   4.568   1.494   4.657  2.4515 -0.2882  2.4327
  132MOL0     H17810   4.569   1.568   5.084 -0.0653  0.5151  0.9171
  132MOL0     H17811   4.671   1.416   5.078  0.9904  0.0535  0.2885
  132MOL0     H17812   4.754   1.652   5.166 -0.0778  0.1750 -0.0068
  132MOL0     H17813   4.753   1.693   5.000 -1.4873  0.3309  0.2831
  132MOL0     H17814   4.945   1.531   4.954  0.4471 -0.7141  0.4918
  132MOL0     H17815   4.880   1.418   5.070 -1.5995 -0.7368 -3.0306
  132MOL0     H17816   5.088   1.506   5.139  1.4072  1.7818  1.5737
  132MOL0     H17817   4.960   1.547   5.249  0.2339 -2.3598  0.1817
  132MOL0     H17818   5.108   1.922   5.130  1.5174 -0.0002  3.8125
  132MOL0     H17819   4.428   1.376   5.049  0.5649 -0.7144  0.4002
  132MOL0     H17820   4.218   1.301   4.951  0.7988 -1.1920 -1.0994
  133MOL0     O17821   7.701   0.587   8.700  0.4889 -0.4044  0.2000
  133MOL0     C17822   7.689   0.707   8.718  0.3961  0.1873  0.0806
  133MOL0     O17823   7.573   0.774   8.739 -0.4091  0.1968  0.4408
  133MOL0     C17824   7.459   0.701   8.713 -0.1879 -0.0286 -0.1138
  133MOL0     C17825   7.394   0.635   8.827 -0.5070 -0.8932  0.7761
  133MOL0     C17826   7.270   0.571   8.801 -0.3778  0.6623 -0.4822
  133MOL0     C17827   7.207   0.570   8.681  0.1482  0.2191 -0.0525
  133MOL0     O17828   7.081   0.514   8.681 -0.4468 -0.3515 -0.5831
  133MOL0     C17829   6.977   0.584   8.611 -0.0639  0.9399  0.7843
  133MOL0     C17830   6.841   0.536   8.660  0.2258  0.2683 -0.5303
  133MOL0     C17831   6.712   0.596   8.624 -0.0657 -0.8747  0.0678
  133MOL0     C17832   6.597   0.526   8.679 -0.0244  0.0641 -0.6805
  133MOL0     C17833   6.467   0.602   8.658  0.5062 -0.0128  0.3593
  133MOL0     C17834   6.358   0.509   8.706 -0.5554 -0.0021 -0.5126
  133MOL0     C17835   6.223   0.576   8.736 -0.0218 -0.8982 -0.6003
  133MOL0     C17836   6.137   0.631   8.619 -0.2144  0.6200 -0.4986
  133MOL0     N17837   6.002   0.675   8.662  0.7908 -0.5355  0.2739
  133MOL0     C17838   5.907   0.599   8.720  0.1601 -0.2381  0.3138
  133MOL0     C17839   5.799   0.675   8.727  0.1090  0.4616 -0.7587
  133MOL0     C17840   5.666   0.642   8.795  0.6564 -0.2598 -0.3509
  133MOL0     C17841   5.649   0.728   8.921 -0.1121 -0.1184 -0.2734
  133MOL0     C17842   5.544   0.682   9.012 -0.4657 -0.6433  0.6183
  133MOL0     C17843   5.409   0.697   8.946  0.0131  0.3947  0.0283
  133MOL0     O17844   5.318   0.596   8.996  1.1088  0.2229 -0.4039
  133MOL0     C17845   5.181   0.605   8.978  0.6246 -0.6535  0.0438
  133MOL0     C17846   5.114   0.484   8.989  0.4600  0.4657 -0.0756
  133MOL0     C17847   4.970   0.478   8.976  0.4910 -0.7140 -0.0425
  133MOL0     C17848   4.906   0.341   8.999  0.1855 -0.2294 -0.2340
  133MOL0     C17849   4.896   0.601   8.943 -0.9911  0.2635  0.6315
  133MOL0     C17850   4.755   0.614   8.925  0.3730 -0.4872 -0.5054
  133MOL0     O17851   4.676   0.522   8.996 -0.5886 -0.3896 -0.9104
  133MOL0     C17852   4.540   0.541   8.999  0.9417  0.5899  0.5019
  133MOL0     C17853   4.482   0.659   9.053 -1.1001 -0.2521  0.2662
  133MOL0     C17854   4.341   0.672   9.057 -0.0847  0.0378  0.5035
  133MOL0     C17855   4.247   0.575   9.015  0.3957  0.1691  0.4785
  133MOL0     O17856   4.112   0.590   9.030  0.0973  0.0611 -0.1423
  133MOL0     C17857   4.020   0.494   8.968 -0.0400  0.8238 -0.7129
  133MOL0     C17858   3.870   0.535   8.987 -0.1094  0.7743 -0.0634
  133MOL0     C17859   3.795   0.525   8.853  0.5609 -1.2446 -0.4844
  133MOL0     C17860   3.659   0.588   8.866  0.2171  0.2655  0.9945
  133MOL0     C17861   3.611   0.628   8.721  0.7677  0.5070 -0.0208
  133MOL0     C17862   3.478   0.702   8.710  0.6690  0.3506 -0.4884
  133MOL0     C17863   3.465   0.823   8.804  0.0751  0.1722  0.5770
  133MOL0     C17864   3.431   0.953   8.725  1.0067 -0.3216 -0.0250
  133MOL0    Cl17865   3.268   0.931   8.635  0.2118  0.1217  0.2431
  133MOL0     C17866   4.304   0.460   8.960  0.3703  0.8144 -0.1824
  133MOL0     C17867   4.450   0.445   8.958  0.5604  0.1419 -1.0193
  133MOL0     O17868   4.710   0.718   8.868 -0.0898 -0.0194 -0.0349
  133MOL0     C17869   4.974   0.719   8.924  0.1315 -0.1963 -0.2937
  133MOL0     C17870   5.112   0.725   8.949  0.6562  0.4057 -0.2894
  133MOL0     N17871   5.825   0.798   8.678  0.3463 -0.0046 -0.7546
  133MOL0     N17872   5.951   0.800   8.633 -0.1422 -0.3130 -0.5366
  133MOL0     C17873   7.277   0.623   8.575  0.9364 -0.8415  0.6567
  133MOL0     C17874   7.396   0.694   8.587 -0.0971  0.8295  0.7483
  133MOL0     C17875   7.810   0.791   8.692  0.0697 -0.8316  0.6800
  133MOL0     C17876   7.800   0.933   8.685  0.3624  0.8092 -0.3976
  133MOL0     C17877   7.912   1.014   8.662  0.2122 -0.6695  0.7984
  133MOL0     C17878   8.042   0.957   8.659  0.0148 -0.8229  0.1488
  133MOL0     O17879   8.160   1.033   8.670 -0.6396 -0.0865  0.1035
  133MOL0     C17880   8.148   1.152   8.752  0.1949 -0.3920 -0.5636
  133MOL0     C17881   8.281   1.226   8.724  0.1085 -0.3767  0.3990
  133MOL0     C17882   8.419   1.143   8.748  0.5326 -0.1556  0.1831
  133MOL0     C17883   8.453   1.106   8.890 -0.9809 -0.7310  0.8992
  133MOL0     C17884   8.570   1.028   8.876  0.1524  0.3091 -1.0921
  133MOL0     C17885   8.667   0.966   8.863 -0.4216  0.1314 -0.2959
  133MOL0     C17886   8.053   0.817   8.665  0.1759 -0.5847 -1.0382
  133MOL0     C17887   7.938   0.737   8.673  0.1064 -0.2458  0.3311
  133MOL0     H17888   7.441   0.642   8.925  0.9898 -1.4669  0.1394
  133MOL0     H17889   7.227   0.522   8.888  1.6173 -0.2160  0.0915
  133MOL0     H17890   6.971   0.692   8.625 -0.9643  1.6275 -3.5016
  133MOL0     H17891   6.979   0.561   8.504 -2.5957  0.0348  0.8472
  133MOL0     H17892   6.830   0.429   8.642 -1.5072  0.3578 -0.1530
  133MOL0     H17893   6.842   0.556   8.768  0.9370  0.8523 -0.6376
  133MOL0     H17894   6.716   0.700   8.659 -0.3079 -0.9171  0.2278
  133MOL0     H17895   6.699   0.586   8.516  1.2745  0.4026 -0.2431
  133MOL0     H17896   6.600   0.422   8.644  3.4398 -0.2963  0.3381
  133MOL0     H17897   6.601   0.527   8.788  2.2493  2.6470 -0.6775
  133MOL0     H17898   6.463   0.703   8.700 -2.9328 -0.4869  1.4925
  133MOL0     H17899   6.464   0.616   8.549  4.2024  1.3565  0.3036
  133MOL0     H17900   6.344   0.428   8.633 -1.7902 -0.9599  0.7306
  133MOL0     H17901   6.372   0.466   8.806 -5.5784 -1.7807 -0.3074
  133MOL0     H17902   6.167   0.504   8.797 -0.1405 -1.1116 -0.9557
  133MOL0     H17903   6.233   0.660   8.805  0.6861  1.4236 -3.3351
  133MOL0     H17904   6.137   0.546   8.550  1.0629 -0.5136  0.8096
  133MOL0     H17905   6.196   0.702   8.561  0.6838 -0.5932 -1.1180
  133MOL0     H17906   5.938   0.503   8.760  3.2816  1.0295  1.2467
  133MOL0     H17907   5.587   0.679   8.730 -0.5187 -1.4591  0.3556
  133MOL0     H17908   5.651   0.535   8.814  0.5035 -0.0760  0.5752
  133MOL0     H17909   5.625   0.827   8.883  2.3122  0.0036 -1.6957
  133MOL0     H17910   5.746   0.738   8.971 -0.5876  3.1387  0.2291
  133MOL0     H17911   5.545   0.738   9.107 -1.3128  0.0382  0.2381
  133MOL0     H17912   5.568   0.577   9.033  0.5627 -0.5671 -0.1429
  133MOL0     H17913   5.411   0.681   8.838  0.8645 -0.9907  0.2311
  133MOL0     H17914   5.382   0.801   8.965  1.8487  0.5676  2.0986
  133MOL0     H17915   5.167   0.394   9.019  0.7843  0.9579  0.8483
  133MOL0     H17916   4.810   0.337   8.947  1.6379  0.9923 -3.2855
  133MOL0     H17917   4.971   0.260   8.963 -1.9486 -2.5846  0.9477
  133MOL0     H17918   4.896   0.331   9.107 -1.2324 -1.8577 -0.4681
  133MOL0     H17919   4.546   0.734   9.098  0.5211 -0.4371 -1.5771
  133MOL0     H17920   4.304   0.769   9.088  1.3607  0.5689  0.6161
  133MOL0     H17921   4.046   0.482   8.863  0.5664  0.3183 -0.5045
  133MOL0     H17922   4.032   0.405   9.030 -1.4940  0.5394 -0.8021
  133MOL0     H17923   3.815   0.464   9.049  0.8666  0.3547  0.3545
  133MOL0     H17924   3.860   0.631   9.038 -3.1598  1.3789 -1.5911
  133MOL0     H17925   3.787   0.422   8.816 -1.3917 -1.4995  0.5136
  133MOL0     H17926   3.854   0.598   8.796  1.0718 -0.0736  1.4431
  133MOL0     H17927   3.584   0.520   8.908 -0.4155  0.7416  0.6633
  133MOL0     H17928   3.666   0.672   8.935  2.8926  0.5010  0.5440
  133MOL0     H17929   3.608   0.543   8.653 -1.1070  1.4761 -1.2300
  133MOL0     H17930   3.688   0.696   8.686 -0.0550  1.5171  0.0939
  133MOL0     H17931   3.465   0.724   8.604  0.0483 -2.0189 -0.9695
  133MOL0     H17932   3.408   0.628   8.750  1.6886  0.7041  2.1469
  133MOL0     H17933   3.556   0.839   8.863  1.2961  1.5795 -1.5645
  133MOL0     H17934   3.382   0.804   8.873  1.0921  1.5964  2.2751
  133MOL0     H17935   3.513   0.988   8.662  1.9509 -1.5471  0.4967
  133MOL0     H17936   3.416   1.040   8.789  0.8375  1.5735 -2.4634
  133MOL0     H17937   4.254   0.371   8.924  1.7850  0.5249 -1.5171
  133MOL0     H17938   4.490   0.354   8.915  0.7227 -0.7345  0.8970
  133MOL0     H17939   4.934   0.819   8.908  1.9300  0.9451  1.7546
  133MOL0     H17940   5.157   0.823   8.946  1.4943  0.0058 -2.2924
  133MOL0     H17941   7.227   0.627   8.479  0.9029 -0.1233  0.6957
  133MOL0     H17942   7.439   0.753   8.507 -0.7452  1.7807  1.0762
  133MOL0     H17943   7.714   0.992   8.714  0.1626  0.7323 -0.8185
  133MOL0     H17944   7.893   1.121   8.665 -6.5734 -1.3902 -0.1510
  133MOL0     H17945   8.071   1.219   8.714  2.0485  3.0182  1.2304
  133MOL0     H17946   8.140   1.129   8.859 -0.3078 -2.5262 -1.0033
  133MOL0     H17947   8.291   1.310   8.793  0.7817 -0.7203  0.7333
  133MOL0     H17948   8.286   1.253   8.618  0.5234  1.1800  0.7985
  133MOL0     H17949   8.500   1.212   8.720  0.7718  0.2991  1.8625
  133MOL0     H17950   8.412   1.052   8.688 -3.9564  1.4209 -2.1570
  133MOL0     H17951   8.372   1.059   8.946 -1.8331  0.2814  0.5375
  133MOL0     H17952   8.478   1.196   8.948 -1.3825  0.3161 -0.4954
  133MOL0     H17953   8.766   0.928   8.850 -0.5910  0.0010 -1.2675
  133MOL0     H17954   8.149   0.767   8.668 -0.4823 -1.8437 -0.5842
  133MOL0     H17955   7.951   0.630   8.667  1.0504 -0.1545  0.5851
  134MOL0     O17956   0.077   8.786   9.599  0.7185 -0.5278 -0.6237
  134MOL0     C17957   0.095   8.809   9.716  0.1022  0.2343  0.3110
  134MOL0     O17958   0.005   8.817   9.816  0.2412  0.1142 -0.0050
  134MOL0     C17959  -0.132   8.781   9.794  0.6069 -0.0765 -0.6102
  134MOL0     C17960  -0.212   8.799   9.911  0.8177 -0.1387  0.6212
  134MOL0     C17961  -0.349   8.764   9.912  0.2522 -0.7365  0.4885
  134MOL0     C17962  -0.408   8.711   9.797 -0.6042  0.0925  0.4121
  134MOL0     O17963  -0.525   8.645   9.809 -0.2143 -0.0407  0.2870
  134MOL0     C17964  -0.615   8.666   9.700  0.6828 -0.7408 -0.4720
  134MOL0     C17965  -0.744   8.704   9.765  0.0701 -0.8918  0.3915
  134MOL0     C17966  -0.844   8.771   9.663 -0.0231 -0.0331  0.1984
  134MOL0     C17967  -0.996   8.713   9.671 -0.2000  0.2521  0.0407
  134MOL0     C17968  -1.087   8.802   9.583 -1.2928  0.1023  1.2363
  134MOL0     C17969  -1.234   8.786   9.631 -0.3047 -0.2270 -0.1287
  134MOL0     C17970  -1.277   8.636   9.636 -0.2487 -0.3899  0.0741
  134MOL0     C17971  -1.432   8.611   9.656  0.3501  0.3949 -0.1396
  134MOL0     N17972  -1.488   8.658   9.785 -1.0784  0.3031  0.3654
  134MOL0     C17973  -1.479   8.584   9.900 -0.1604  0.4402 -0.2544
  134MOL0     C17974  -1.550   8.662   9.984 -0.8928 -0.5881  0.5821
  134MOL0     C17975  -1.559   8.637  10.131  1.4139 -0.3154  0.1984
  134MOL0     C17976  -1.621   8.512  10.163  0.1277  0.5310  0.9052
  134MOL0     C17977  -1.657   8.508  10.311 -0.1037  0.2257 -0.6961
  134MOL0     C17978  -1.699   8.370  10.330  0.3468  0.8922 -0.6754
  134MOL0     O17979  -1.771   8.359  10.458 -0.1210 -0.0658  0.2060
  134MOL0     C17980  -1.894   8.419  10.465 -0.0187 -0.1736  0.4272
  134MOL0     C17981  -1.986   8.436  10.360  0.3507  0.3026 -0.2076
  134MOL0     C17982  -2.120   8.476  10.372 -0.1711 -0.2971  0.3047
  134MOL0     C17983  -2.191   8.521  10.249  0.8066 -0.1877 -0.4948
  134MOL0     C17984  -2.173   8.484  10.505  0.6548 -0.1622 -0.1643
  134MOL0     C17985  -2.314   8.518  10.540  0.2251 -0.2571 -0.6269
  134MOL0     O17986  -2.402   8.537  10.436  0.6915  0.2161 -0.4420
  134MOL0     C17987  -2.521   8.606  10.470 -0.1632 -0.0645 -0.0898
  134MOL0     C17988  -2.644   8.565  10.418 -0.2783  0.2061  0.0957
  134MOL0     C17989  -2.763   8.629  10.447 -0.3241  0.2979 -0.0208
  134MOL0     C17990  -2.760   8.734  10.543  0.0027 -0.0980 -0.1275
  134MOL0     O17991  -2.872   8.790  10.599  0.0009  1.1820  0.1975
  134MOL0     C17992  -2.998   8.728  10.590  0.8961  0.3634 -0.2199
  134MOL0     C17993  -3.106   8.807  10.683 -1.0709  0.2444 -0.1284
  134MOL0     C17994  -3.235   8.739  10.677  0.3104 -0.0992 -0.5583
  134MOL0     C17995  -3.311   8.761  10.544 -0.4519 -0.3211  0.1159
  134MOL0     C17996  -3.449   8.690  10.545  0.6886 -0.7759 -0.5930
  134MOL0     C17997  -3.537   8.711  10.424  1.3100  0.5477  0.2796
  134MOL0     C17998  -3.557   8.862  10.391  0.0738 -0.4164  0.6994
  134MOL0     C17999  -3.614   8.947  10.510 -0.0484  1.1850  1.0733
  134MOL0    Cl18000  -3.747   8.859  10.600  0.4004 -0.0209  0.2460
  134MOL0     C18001  -2.634   8.779  10.588 -0.8392  0.3712  0.2349
  134MOL0     C18002  -2.515   8.721  10.552 -0.3049  0.2337  0.7259
  134MOL0     O18003  -2.335   8.526  10.663  0.0165 -0.5670 -0.2085
  134MOL0     C18004  -2.090   8.449  10.609  0.2918 -0.0313  0.1580
  134MOL0     C18005  -1.955   8.421  10.588  0.4419  0.1394 -0.1870
  134MOL0     N18006  -1.609   8.769   9.920  0.3170  0.3954  0.1241
  134MOL0     N18007  -1.570   8.765   9.805  0.6545  0.7650  0.4718
  134MOL0     C18008  -0.332   8.714   9.682 -0.2960 -0.1796  0.9682
  134MOL0     C18009  -0.196   8.728   9.681  0.1317 -0.1288 -0.5528
  134MOL0     C18010   0.235   8.838   9.754 -0.7465  0.6859 -0.6298
  134MOL0     C18011   0.265   8.904   9.881 -0.7816 -0.4970 -0.0352
  134MOL0     C18012   0.396   8.935   9.922 -0.1545 -0.2086 -0.2147
  134MOL0     C18013   0.504   8.905   9.831  0.5223 -0.2182  0.5574
  134MOL0     O18014   0.625   8.944   9.868  0.2360 -0.2696  0.1752
  134MOL0     C18015   0.643   9.085   9.871  0.4592  0.3964  0.0606
  134MOL0     C18016   0.767   9.127   9.791 -0.6857  1.0404  0.2843
  134MOL0     C18017   0.888   9.052   9.834  1.0640 -0.1363  0.0247
  134MOL0     C18018   1.003   9.097   9.743  0.0585  0.0145 -0.0427
  134MOL0     C18019   1.002   9.052   9.608 -1.0733  0.6034  0.5437
  134MOL0     C18020   0.999   9.019   9.491 -0.2813 -0.0195 -1.1261
  134MOL0     C18021   0.476   8.862   9.703  0.1130 -0.6259 -0.3385
  134MOL0     C18022   0.340   8.839   9.665 -1.2543  0.2100 -0.0683
  134MOL0     H18023  -0.162   8.840   9.999  0.7233 -0.0155  0.6158
  134MOL0     H18024  -0.412   8.763  10.000  0.4889 -3.8838  0.7376
  134MOL0     H18025  -0.584   8.742   9.627  3.2981 -2.3835 -1.2186
  134MOL0     H18026  -0.615   8.571   9.645  3.1422 -1.3386  0.4536
  134MOL0     H18027  -0.789   8.621   9.821 -2.6974  1.0805  1.3124
  134MOL0     H18028  -0.722   8.777   9.843 -2.4059  1.1334 -0.6611
  134MOL0     H18029  -0.837   8.880   9.670  0.3171 -0.0828  0.7268
  134MOL0     H18030  -0.816   8.757   9.559 -1.5281 -0.7360 -0.1345
  134MOL0     H18031  -1.000   8.612   9.628 -1.3257 -1.6575  4.1180
  134MOL0     H18032  -1.035   8.717   9.773  1.7813 -1.6350  0.9601
  134MOL0     H18033  -1.063   8.907   9.604  2.9091 -0.7966  1.6939
  134MOL0     H18034  -1.076   8.777   9.477  0.6711  2.0279  0.9269
  134MOL0     H18035  -1.242   8.830   9.731 -1.0699 -2.3828  0.8207
  134MOL0     H18036  -1.291   8.842   9.556 -1.1014 -2.1608 -1.0443
  134MOL0     H18037  -1.251   8.596   9.537  0.2757 -0.9232  0.4232
  134MOL0     H18038  -1.213   8.577   9.702  0.9381  0.5630 -0.1838
  134MOL0     H18039  -1.458   8.507   9.638 -4.6463  1.4597 -0.5128
  134MOL0     H18040  -1.491   8.667   9.583 -0.0226 -2.8389 -2.5470
  134MOL0     H18041  -1.421   8.496   9.925  0.4122  0.9659  0.3113
  134MOL0     H18042  -1.462   8.644  10.182  2.5903 -0.8049 -1.8544
  134MOL0     H18043  -1.634   8.710  10.162  0.6871  1.1891 -4.3036
  134MOL0     H18044  -1.557   8.429  10.132  0.6611  1.9109 -2.0467
  134MOL0     H18045  -1.715   8.506  10.107  0.3840 -0.6748  0.5632
  134MOL0     H18046  -1.733   8.583  10.334  3.2324  3.6313  0.2981
  134MOL0     H18047  -1.569   8.515  10.377  0.5365 -3.0334 -1.0173
  134MOL0     H18048  -1.625   8.289  10.327 -1.8019 -1.1508 -2.6677
  134MOL0     H18049  -1.754   8.333  10.243  1.7682  2.1605 -2.1762
  134MOL0     H18050  -1.953   8.418  10.258 -0.2934  0.0979 -0.3870
  134MOL0     H18051  -2.119   8.528  10.166 -1.6970  0.7210 -2.7170
  134MOL0     H18052  -2.274   8.451  10.238 -0.1774  0.9857 -0.7709
  134MOL0     H18053  -2.233   8.622  10.260  0.3472 -0.5631  1.4994
  134MOL0     H18054  -2.647   8.478  10.354  2.6560  0.7423 -0.8943
  134MOL0     H18055  -2.860   8.606  10.404 -0.4472  0.4460  0.1738
  134MOL0     H18056  -3.031   8.747  10.488  0.1352  1.1892  0.1714
  134MOL0     H18057  -2.999   8.621  10.616 -1.0563  0.4452  0.1612
  134MOL0     H18058  -3.083   8.805  10.790 -1.4317  1.8650  0.0117
  134MOL0     H18059  -3.121   8.911  10.652  2.0677  0.2758 -1.9260
  134MOL0     H18060  -3.299   8.769  10.761  1.9357  2.5983 -0.1796
  134MOL0     H18061  -3.232   8.630  10.688  1.3915  0.0611  1.0754
  134MOL0     H18062  -3.324   8.868  10.530  0.0993 -0.2307  0.2785
  134MOL0     H18063  -3.245   8.727  10.464  1.5505  1.4139  0.9446
  134MOL0     H18064  -3.501   8.725  10.634  1.0733  1.4294 -1.1905
  134MOL0     H18065  -3.435   8.581  10.545 -1.0969 -1.0492 -0.5802
  134MOL0     H18066  -3.486   8.656  10.344  1.5323  1.2469 -0.0770
  134MOL0     H18067  -3.638   8.676  10.447  1.2717 -0.0886 -0.7753
  134MOL0     H18068  -3.630   8.873  10.311 -1.7152  4.0701  2.6330
  134MOL0     H18069  -3.461   8.906  10.361 -0.0749  1.2313  2.4450
  134MOL0     H18070  -3.667   9.038  10.480  1.2014  1.6721  0.3064
  134MOL0     H18071  -3.532   8.974  10.577 -0.7921  0.1137  2.4716
  134MOL0     H18072  -2.615   8.869  10.645  0.9625  0.0738  0.1621
  134MOL0     H18073  -2.421   8.766  10.582 -1.5687  2.9181  0.8869
  134MOL0     H18074  -2.115   8.461  10.714  1.7010 -0.6169  0.5749
  134MOL0     H18075  -1.893   8.412  10.677 -0.7045 -1.0754  0.5140
  134MOL0     H18076  -0.384   8.698   9.588 -0.9986  1.6699  1.0073
  134MOL0     H18077  -0.154   8.698   9.585 -2.3191 -2.7054 -0.9568
  134MOL0     H18078   0.183   8.934   9.945 -0.0958  1.1464  0.1326
  134MOL0     H18079   0.406   8.995  10.012  2.4399  2.3062 -1.9809
  134MOL0     H18080   0.547   9.131   9.848 -0.9783 -1.4303  1.9719
  134MOL0     H18081   0.661   9.122   9.973 -0.7067  3.0414 -0.5979
  134MOL0     H18082   0.795   9.233   9.789  2.5158  0.2806 -0.0169
  134MOL0     H18083   0.738   9.101   9.688 -0.0510 -0.7488  0.5338
  134MOL0     H18084   0.876   8.944   9.824  3.2447 -0.3186 -1.1077
  134MOL0     H18085   0.903   9.071   9.941  0.0470 -1.0589  0.3524
  134MOL0     H18086   1.092   9.056   9.792 -0.8875 -1.1089  0.8046
  134MOL0     H18087   1.002   9.206   9.741 -0.5281  0.0058 -1.9094
  134MOL0     H18088   1.012   9.005   9.386 -2.2605  0.8282 -1.5361
  134MOL0     H18089   0.563   8.848   9.640  1.1226  1.5067  0.4844
  134MOL0     H18090   0.321   8.808   9.563 -1.0239  1.4414 -0.5073
  135MOL0     O18091   9.160   6.980  10.418 -0.0404  0.7132  0.0658
  135MOL0     C18092   9.193   6.886  10.491  0.1291 -0.1616 -0.1063
  135MOL0     O18093   9.119   6.838  10.592 -0.1680 -0.4411  0.1668
  135MOL0     C18094   9.003   6.898  10.623  0.3330  1.0907 -0.0615
  135MOL0     C18095   8.989   6.987  10.731  0.7435  0.0883 -0.3157
  135MOL0     C18096   8.868   7.049  10.751  0.3836 -0.1855 -0.6103
  135MOL0     C18097   8.766   7.029  10.662  0.9017  0.2860  0.3031
  135MOL0     O18098   8.648   7.085  10.701 -0.7545  0.2629 -0.1794
  135MOL0     C18099   8.584   7.149  10.589  0.6623  0.5675 -0.0362
  135MOL0     C18100   8.466   7.226  10.627 -0.0299 -0.6066 -0.4835
  135MOL0     C18101   8.505   7.356  10.702  0.1225  0.3353  0.1219
  135MOL0     C18102   8.383   7.455  10.724 -0.1654  0.6722  0.4285
  135MOL0     C18103   8.258   7.388  10.779  0.0064 -0.8983 -0.3670
  135MOL0     C18104   8.164   7.499  10.844 -0.1055 -0.7930 -0.6760
  135MOL0     C18105   8.037   7.432  10.906 -0.1753 -0.4072 -0.2433
  135MOL0     C18106   7.916   7.528  10.939 -0.9264  0.8872  0.3714
  135MOL0     N18107   7.957   7.649  11.012  0.1945 -0.4682 -0.3657
  135MOL0     C18108   8.031   7.657  11.122  0.2079 -0.7223 -0.4103
  135MOL0     C18109   8.050   7.787  11.153  0.2909  0.0462  0.0464
  135MOL0     C18110   8.131   7.828  11.274 -0.4456 -0.2731 -0.3088
  135MOL0     C18111   8.278   7.809  11.250  0.7592  0.5818  0.0995
  135MOL0     C18112   8.330   7.926  11.159 -0.2275 -0.2164 -0.5802
  135MOL0     C18113   8.489   7.921  11.140  0.2735 -0.2472 -0.0508
  135MOL0     O18114   8.526   7.805  11.058  0.5630  0.4763 -0.1998
  135MOL0     C18115   8.662   7.766  11.046 -0.2551  1.0246  0.0260
  135MOL0     C18116   8.695   7.663  10.962  0.5705 -0.3991 -0.2926
  135MOL0     C18117   8.818   7.609  10.932  0.9710 -0.4499  0.4478
  135MOL0     C18118   8.816   7.498  10.841  0.4436  0.2886  0.4207
  135MOL0     C18119   8.933   7.672  10.998 -0.8631  0.3053  0.9538
  135MOL0     C18120   9.072   7.623  10.983 -0.1733 -0.1308 -0.0626
  135MOL0     O18121   9.166   7.690  11.059 -0.1569  0.2839  0.1977
  135MOL0     C18122   9.294   7.641  11.070  0.4025  0.9585  0.5394
  135MOL0     C18123   9.367   7.648  10.951  0.1383 -0.0723 -0.0284
  135MOL0     C18124   9.494   7.599  10.948 -0.0366 -0.6565  0.2973
  135MOL0     C18125   9.557   7.558  11.068 -0.7257 -0.4264 -0.8698
  135MOL0     O18126   9.688   7.514  11.060 -0.6478 -0.0142 -0.1096
  135MOL0     C18127   9.710   7.375  11.087 -0.2959  0.1131 -0.3630
  135MOL0     C18128   9.854   7.333  11.088  0.6274  0.0759 -0.3003
  135MOL0     C18129   9.935   7.437  11.166 -0.1231 -0.7173  0.6169
  135MOL0     C18130  10.086   7.412  11.122 -0.2283  0.1186  0.9968
  135MOL0     C18131  10.171   7.489  11.217 -0.5792 -0.7442 -0.0226
  135MOL0     C18132  10.151   7.644  11.227  0.5495 -0.2192 -0.3314
  135MOL0     C18133  10.229   7.693  11.351  0.8711  0.1385 -0.7290
  135MOL0     C18134  10.193   7.844  11.350 -0.6852  0.1938 -0.2332
  135MOL0    Cl18135  10.296   7.940  11.457  0.3670  0.6549  0.4404
  135MOL0     C18136   9.489   7.562  11.185  0.0804 -0.4081  0.7563
  135MOL0     C18137   9.354   7.600  11.184  0.0933 -0.5878 -0.1408
  135MOL0     O18138   9.098   7.536  10.900  0.4995  0.1284  0.5862
  135MOL0     C18139   8.902   7.775  11.091 -0.0045  0.1393  0.0591
  135MOL0     C18140   8.767   7.818  11.119  0.8872  0.4592  0.7118
  135MOL0     N18141   7.972   7.860  11.062  0.8748  0.1815 -0.3000
  135MOL0     N18142   7.937   7.779  10.969 -0.1110  0.4402  0.0871
  135MOL0     C18143   8.775   6.942  10.552 -0.1490 -0.1608  0.6139
  135MOL0     C18144   8.895   6.875  10.536 -0.4220 -0.0268 -0.3365
  135MOL0     C18145   9.323   6.820  10.463  0.4710 -0.2888  0.0518
  135MOL0     C18146   9.394   6.853  10.342  0.0835  0.4524 -0.3030
  135MOL0     C18147   9.523   6.810  10.314  0.1438 -0.8059  0.1006
  135MOL0     C18148   9.592   6.727  10.401 -1.0471  0.3874  0.4035
  135MOL0     O18149   9.720   6.676  10.381 -0.3693 -0.5110 -0.1492
  135MOL0     C18150   9.805   6.766  10.315  0.2811 -0.8494  0.4044
  135MOL0     C18151   9.942   6.707  10.328  0.2958 -0.0952  0.3289
  135MOL0     C18152  10.041   6.794  10.255 -0.0123  0.2347 -0.3739
  135MOL0     C18153  10.187   6.743  10.238  0.1383  0.2732  0.2987
  135MOL0     C18154  10.258   6.744  10.363  0.1736  0.3048  0.0025
  135MOL0     C18155  10.321   6.740  10.469 -0.3593 -0.1897  0.5936
  135MOL0     C18156   9.521   6.680  10.517  0.1750  0.2624  0.0481
  135MOL0     C18157   9.390   6.737  10.549 -0.1883  0.0428 -0.1771
  135MOL0     H18158   9.064   6.993  10.809  0.8953 -1.9206 -0.2764
  135MOL0     H18159   8.858   7.108  10.841  1.4752 -2.5193  1.1717
  135MOL0     H18160   8.658   7.214  10.542  0.3485  0.4341 -0.7194
  135MOL0     H18161   8.542   7.080  10.516  2.8843 -1.3750  0.3994
  135MOL0     H18162   8.422   7.262  10.533  2.4825 -0.9741 -1.8826
  135MOL0     H18163   8.404   7.165  10.693 -0.3077 -0.7154 -0.8446
  135MOL0     H18164   8.537   7.324  10.802 -1.2463 -3.1221 -0.3820
  135MOL0     H18165   8.589   7.406  10.652  1.2532 -0.6220  0.9821
  135MOL0     H18166   8.410   7.531  10.798 -2.0300  0.5638  1.2667
  135MOL0     H18167   8.358   7.517  10.637 -2.0836  0.1164  0.5288
  135MOL0     H18168   8.202   7.336  10.701 -0.1289 -1.2132 -0.0635
  135MOL0     H18169   8.293   7.316  10.854  0.4325  0.3154  0.6510
  135MOL0     H18170   8.222   7.554  10.919  0.2127  0.7810 -2.0258
  135MOL0     H18171   8.135   7.573  10.769  0.9728  1.5612  1.1075
  135MOL0     H18172   7.994   7.362  10.834  0.7117 -1.1455 -0.0759
  135MOL0     H18173   8.069   7.386  11.000  0.1654 -0.1725 -0.2442
  135MOL0     H18174   7.840   7.467  10.988  2.6098 -5.0072 -0.4937
  135MOL0     H18175   7.875   7.558  10.842 -0.3616 -0.1497 -0.1994
  135MOL0     H18176   8.076   7.576  11.178  2.1939 -0.2667 -1.2782
  135MOL0     H18177   8.116   7.933  11.302  1.2873 -0.7422  2.8918
  135MOL0     H18178   8.085   7.777  11.359 -2.8252 -0.5565 -1.7021
  135MOL0     H18179   8.294   7.712  11.202  0.7170  1.1039 -0.9928
  135MOL0     H18180   8.340   7.806  11.341  1.9866  0.4514 -0.7112
  135MOL0     H18181   8.316   8.012  11.225  1.1642 -0.2424 -0.2076
  135MOL0     H18182   8.275   7.936  11.065 -3.4196 -4.3859  0.5456
  135MOL0     H18183   8.531   7.903  11.239  1.3047 -0.0122 -0.4352
  135MOL0     H18184   8.541   8.013  11.113  1.5615 -0.4322  1.6233
  135MOL0     H18185   8.602   7.630  10.916 -0.2052 -0.8790  1.5248
  135MOL0     H18186   8.728   7.441  10.870 -0.8386  3.1649  2.6930
  135MOL0     H18187   8.816   7.546  10.743 -0.7943  0.8459  0.6762
  135MOL0     H18188   8.893   7.422  10.854 -0.6613 -1.1383 -1.0219
  135MOL0     H18189   9.333   7.659  10.849 -1.4050 -4.4726 -0.2201
  135MOL0     H18190   9.543   7.611  10.852  1.7923 -0.1590  1.2405
  135MOL0     H18191   9.664   7.355  11.184  0.4787 -2.5622 -0.4684
  135MOL0     H18192   9.666   7.311  11.010 -0.5185  1.3685 -1.2978
  135MOL0     H18193   9.875   7.236  11.133 -1.7095 -2.4301 -4.0739
  135MOL0     H18194   9.882   7.328  10.983  0.9079 -1.6915 -0.1715
  135MOL0     H18195   9.924   7.427  11.275  0.1106  2.9891  1.1210
  135MOL0     H18196   9.907   7.536  11.130  1.4843 -1.2133 -2.2469
  135MOL0     H18197  10.110   7.307  11.145  1.7362  0.4294  0.5528
  135MOL0     H18198  10.096   7.432  11.015 -1.6614  2.0928  1.1733
  135MOL0     H18199  10.271   7.463  11.181 -0.9899  0.8464 -2.5665
  135MOL0     H18200  10.165   7.453  11.320  0.5446 -0.4054  0.1749
  135MOL0     H18201  10.194   7.697  11.141  1.5249 -0.2069  0.1508
  135MOL0     H18202  10.045   7.667  11.243  0.4327 -0.0754 -1.2367
  135MOL0     H18203  10.334   7.701  11.322  0.5489  2.3956 -1.4592
  135MOL0     H18204  10.207   7.636  11.442 -0.3726 -0.9692 -1.6912
  135MOL0     H18205  10.086   7.859  11.366 -0.2283  1.8528  1.7426
  135MOL0     H18206  10.225   7.880  11.252 -1.9128 -0.4452 -0.8789
  135MOL0     H18207   9.524   7.540  11.286 -0.7628 -0.8014  0.9715
  135MOL0     H18208   9.288   7.609  11.270  0.3142  2.4307 -0.1793
  135MOL0     H18209   8.992   7.817  11.135  1.1823 -1.6340 -0.6069
  135MOL0     H18210   8.734   7.899  11.183 -0.8404 -1.3084  2.1823
  135MOL0     H18211   8.695   6.909  10.486  0.7138  1.8654 -1.5860
  135MOL0     H18212   8.911   6.798  10.461  0.8813  1.0255 -1.1659
  135MOL0     H18213   9.346   6.917  10.269 -0.5160  1.4433  0.9176
  135MOL0     H18214   9.562   6.845  10.219  2.0382 -0.1931  1.0593
  135MOL0     H18215   9.768   6.769  10.213 -3.0453 -2.1911  1.4460
  135MOL0     H18216   9.796   6.862  10.368 -2.1545  0.8442 -2.7275
  135MOL0     H18217   9.947   6.611  10.276  1.1825 -2.2465  3.9734
  135MOL0     H18218   9.959   6.686  10.434 -0.3274 -1.6343  0.1502
  135MOL0     H18219  10.047   6.895  10.299 -2.9296  0.7648 -1.0163
  135MOL0     H18220   9.999   6.816  10.157 -0.6823 -0.6590 -0.2902
  135MOL0     H18221  10.237   6.814  10.171  0.6644  2.2777  2.6744
  135MOL0     H18222  10.187   6.648  10.183 -2.3054 -0.3558  1.2522
  135MOL0     H18223  10.372   6.725  10.562 -0.8941 -0.9017  0.7861
  135MOL0     H18224   9.566   6.619  10.595 -0.8574 -0.3671  0.1720
  135MOL0     H18225   9.349   6.719  10.648 -2.7872 -0.6264 -1.2767
  136MOL0     O18226   4.467   7.897   2.357  0.2401 -0.5155  0.1423
  136MOL0     C18227   4.490   8.009   2.394  0.1891 -0.1543 -0.2286
  136MOL0     O18228   4.396   8.103   2.430  0.8345  0.0835 -0.1178
  136MOL0     C18229   4.264   8.079   2.409 -0.1786  0.7667  0.2998
  136MOL0     C18230   4.199   7.975   2.478  0.2407  0.2667  0.2824
  136MOL0     C18231   4.060   7.948   2.481 -0.0255 -0.4243  0.5763
  136MOL0     C18232   3.982   8.036   2.410 -0.0007 -0.4703 -0.1231
  136MOL0     O18233   3.847   8.009   2.407 -0.5050  0.3829 -0.8033
  136MOL0     C18234   3.774   8.086   2.309  1.5464  0.0962 -0.9400
  136MOL0     C18235   3.630   8.050   2.341  0.1321  0.0227  1.1973
  136MOL0     C18236   3.531   8.078   2.220  0.3643  0.5351 -0.3712
  136MOL0     C18237   3.392   8.011   2.214  0.2075 -0.4667 -0.2868
  136MOL0     C18238   3.293   8.064   2.319 -0.0581 -0.1267  0.0987
  136MOL0     C18239   3.155   8.035   2.277  0.3431  0.2439  0.1168
  136MOL0     C18240   3.056   8.053   2.393  0.1980  0.2664  0.0192
  136MOL0     C18241   2.909   8.023   2.369 -0.2184 -0.1486  0.4688
  136MOL0     N18242   2.836   8.139   2.308  0.5247 -0.2325  0.4836
  136MOL0     C18243   2.774   8.244   2.376  0.6823  0.2398  0.4218
  136MOL0     C18244   2.732   8.327   2.276  0.3228  0.6292  0.0468
  136MOL0     C18245   2.660   8.458   2.295  0.4178 -0.4769 -0.2521
  136MOL0     C18246   2.517   8.475   2.243 -0.6342  0.4264  0.2809
  136MOL0     C18247   2.416   8.464   2.357 -0.2093  0.0722  0.6027
  136MOL0     C18248   2.274   8.499   2.320  1.2466  0.2595  0.2827
  136MOL0     O18249   2.279   8.630   2.253  0.0668  0.1784  0.4579
  136MOL0     C18250   2.146   8.667   2.218  0.5021  0.2035 -0.2109
  136MOL0     C18251   2.035   8.682   2.309 -0.1453 -0.8402  0.0493
  136MOL0     C18252   1.899   8.697   2.264 -0.1309 -0.1211 -0.8332
  136MOL0     C18253   1.782   8.714   2.362 -0.2429  0.6382  0.2088
  136MOL0     C18254   1.877   8.707   2.122 -1.7446 -0.7295  0.0880
  136MOL0     C18255   1.760   8.754   2.058 -0.4760  0.2602 -0.3605
  136MOL0     O18256   1.756   8.872   1.995 -0.7934 -0.4016  0.5337
  136MOL0     C18257   1.634   8.929   1.986 -0.5482  0.0308  0.1189
  136MOL0     C18258   1.568   8.988   2.100 -0.6325  0.6449 -0.1883
  136MOL0     C18259   1.452   9.064   2.076  0.4609  0.2183  0.1960
  136MOL0     C18260   1.394   9.062   1.949  0.6429 -0.1811 -0.1020
  136MOL0     O18261   1.288   9.141   1.938  0.2901  0.0641  0.2823
  136MOL0     C18262   1.269   9.201   1.813  0.2942  0.2860  0.6044
  136MOL0     C18263   1.146   9.288   1.836  0.2543  0.0651  0.4846
  136MOL0     C18264   1.075   9.343   1.712  1.0052 -0.2576 -1.0002
  136MOL0     C18265   0.939   9.408   1.765 -0.3047 -0.3815  0.2336
  136MOL0     C18266   0.844   9.456   1.649 -0.5777 -0.0560 -0.2301
  136MOL0     C18267   0.733   9.538   1.696  0.0592 -0.6877  0.0056
  136MOL0     C18268   0.670   9.620   1.584  0.0174  0.4241  0.1151
  136MOL0     C18269   0.579   9.523   1.502  0.7888  0.8177 -0.2565
  136MOL0    Cl18270   0.475   9.608   1.379 -0.1677 -0.2710  0.1536
  136MOL0     C18271   1.463   9.003   1.841  1.2310 -0.5473  0.9652
  136MOL0     C18272   1.583   8.939   1.858  0.2718  0.2034  0.2731
  136MOL0     O18273   1.670   8.668   2.055 -0.5024  0.1813 -0.5157
  136MOL0     C18274   1.993   8.711   2.037 -0.2397  0.4291 -0.2563
  136MOL0     C18275   2.118   8.692   2.080 -0.8258  0.7821 -0.5011
  136MOL0     N18276   2.741   8.266   2.155 -0.6209  1.1324 -0.0246
  136MOL0     N18277   2.817   8.163   2.176 -0.0372  0.4751  0.0647
  136MOL0     C18278   4.040   8.142   2.347  0.9070  0.1160 -0.3902
  136MOL0     C18279   4.181   8.159   2.343  0.9146  0.6794 -0.1325
  136MOL0     C18280   4.627   8.060   2.397  0.1643  0.5542 -0.0322
  136MOL0     C18281   4.656   8.193   2.440 -0.3348 -0.0041 -0.4539
  136MOL0     C18282   4.795   8.227   2.453 -0.3318 -0.3740  0.1970
  136MOL0     C18283   4.897   8.133   2.428  0.6591 -0.1987 -0.0557
  136MOL0     O18284   5.025   8.179   2.448  0.2910  0.2683  0.3165
  136MOL0     C18285   5.138   8.122   2.371 -0.1409 -0.5702  0.2671
  136MOL0     C18286   5.218   8.250   2.329  0.1235 -0.0042  0.4407
  136MOL0     C18287   5.345   8.217   2.252  0.4192 -0.2123 -0.4047
  136MOL0     C18288   5.434   8.349   2.274  0.4211 -0.6867 -0.8506
  136MOL0     C18289   5.571   8.333   2.220 -0.6043 -0.9247  0.0651
  136MOL0     C18290   5.667   8.342   2.141  0.1616  0.1889  0.2098
  136MOL0     C18291   4.863   8.007   2.378 -0.1752  0.2347  0.2756
  136MOL0     C18292   4.729   7.973   2.366  0.2654 -0.2200  0.1137
  136MOL0     H18293   4.261   7.906   2.535  3.0799  3.2853  1.2259
  136MOL0     H18294   4.024   7.854   2.523 -2.7447  0.4684  0.4220
  136MOL0     H18295   3.784   8.194   2.293  1.0907  0.1591 -0.8168
  136MOL0     H18296   3.801   8.042   2.212 -3.2163 -2.3257 -1.4730
  136MOL0     H18297   3.623   7.943   2.363  0.4201 -0.3916 -0.5970
  136MOL0     H18298   3.596   8.111   2.426 -0.2930 -0.3587  1.3044
  136MOL0     H18299   3.513   8.186   2.223  0.6338  0.5792  2.6910
  136MOL0     H18300   3.578   8.050   2.125 -0.5586 -1.1881 -0.3602
  136MOL0     H18301   3.343   8.027   2.118 -0.8658  2.8411  0.6779
  136MOL0     H18302   3.392   7.902   2.220  0.7401 -0.7742 -3.8019
  136MOL0     H18303   3.321   8.017   2.414  0.0192  0.2996  0.2917
  136MOL0     H18304   3.304   8.172   2.310  1.9451 -0.3706 -0.9737
  136MOL0     H18305   3.126   8.114   2.207 -1.8118  1.8638  2.5906
  136MOL0     H18306   3.143   7.933   2.240 -1.4312  0.0326  1.1597
  136MOL0     H18307   3.068   7.977   2.471 -1.6551 -1.7154 -1.4889
  136MOL0     H18308   3.068   8.149   2.444 -3.0363 -1.0806  3.8490
  136MOL0     H18309   2.863   8.009   2.467  2.8284  0.8497  2.1873
  136MOL0     H18310   2.896   7.933   2.308  2.6685 -0.4112  0.1185
  136MOL0     H18311   2.762   8.258   2.483 -0.0564 -0.9426  0.5123
  136MOL0     H18312   2.672   8.499   2.396  1.3411  1.2547 -1.0048
  136MOL0     H18313   2.717   8.541   2.251 -1.6037  0.6713 -0.8483
  136MOL0     H18314   2.501   8.401   2.164  2.5625 -0.0786 -0.0115
  136MOL0     H18315   2.520   8.574   2.195  0.6752 -0.1345 -0.8531
  136MOL0     H18316   2.460   8.522   2.439 -0.4018  1.7988 -0.4779
  136MOL0     H18317   2.416   8.357   2.381  1.2903 -0.1877 -0.4245
  136MOL0     H18318   2.217   8.502   2.413  0.1207 -0.3095 -0.3607
  136MOL0     H18319   2.227   8.427   2.252 -0.2999 -0.1144  1.6974
  136MOL0     H18320   2.041   8.660   2.415  0.7523 -0.0497  0.1829
  136MOL0     H18321   1.802   8.639   2.439 -1.1221 -0.5793 -0.7142
  136MOL0     H18322   1.775   8.818   2.396 -2.5879  0.3850  0.7110
  136MOL0     H18323   1.691   8.686   2.308  0.1818 -0.7200  0.1614
  136MOL0     H18324   1.608   8.978   2.200 -1.4769 -2.7588 -0.0853
  136MOL0     H18325   1.401   9.127   2.149 -0.7583  1.6664 -1.8130
  136MOL0     H18326   1.359   9.250   1.774  0.3870 -0.3270  0.0082
  136MOL0     H18327   1.239   9.140   1.727  2.9806 -1.5388  0.8267
  136MOL0     H18328   1.076   9.225   1.892  0.3695 -1.8145 -1.3499
  136MOL0     H18329   1.177   9.370   1.901  2.0363 -0.2380  0.0726
  136MOL0     H18330   1.068   9.260   1.641  1.5710 -0.1356 -1.2022
  136MOL0     H18331   1.137   9.421   1.667  0.6008  1.9622  1.9905
  136MOL0     H18332   0.887   9.343   1.836 -0.5050 -0.8861 -0.3634
  136MOL0     H18333   0.971   9.491   1.829 -0.4952 -0.9132  1.0432
  136MOL0     H18334   0.805   9.374   1.588  0.6587 -0.9213  0.1146
  136MOL0     H18335   0.912   9.513   1.585  1.5235  0.7747  2.5759
  136MOL0     H18336   0.662   9.472   1.746  1.3041 -1.9244  0.2074
  136MOL0     H18337   0.776   9.607   1.770  0.6800  0.5640 -1.4583
  136MOL0     H18338   0.736   9.683   1.522 -0.7580  0.4412 -0.7199
  136MOL0     H18339   0.599   9.691   1.627  0.7537  2.6490 -2.0682
  136MOL0     H18340   0.508   9.466   1.562 -1.6872  3.0643 -0.8236
  136MOL0     H18341   0.646   9.453   1.451  1.1247  1.2169 -0.3689
  136MOL0     H18342   1.427   9.016   1.739 -1.9155  0.1421  2.0492
  136MOL0     H18343   1.642   8.912   1.771 -3.8192 -2.3230 -2.0712
  136MOL0     H18344   1.988   8.721   1.929  1.8466  0.8476 -0.3608
  136MOL0     H18345   2.205   8.676   2.018  0.2966  3.8916  0.1056
  136MOL0     H18346   3.988   8.220   2.294  1.2040 -0.6898 -1.9232
  136MOL0     H18347   4.218   8.246   2.290  0.8634  0.6516 -0.2160
  136MOL0     H18348   4.585   8.272   2.462 -1.8084 -1.1598 -0.8922
  136MOL0     H18349   4.830   8.320   2.497  0.1083 -0.5376  0.1934
  136MOL0     H18350   5.204   8.059   2.432 -0.0387  0.1574  0.9277
  136MOL0     H18351   5.105   8.062   2.286 -2.2390  1.7331 -0.6839
  136MOL0     H18352   5.243   8.291   2.427  0.1816  0.0671  0.3964
  136MOL0     H18353   5.156   8.317   2.269 -1.6554 -2.2670 -0.4145
  136MOL0     H18354   5.304   8.212   2.151 -1.7945  1.0972  0.3553
  136MOL0     H18355   5.395   8.124   2.279  0.8063  0.3607  0.9329
  136MOL0     H18356   5.426   8.376   2.379  1.0076 -0.5333 -0.8451
  136MOL0     H18357   5.386   8.431   2.220 -0.5898 -0.2178  0.7127
  136MOL0     H18358   5.754   8.358   2.080 -1.5204  2.3607 -1.8078
  136MOL0     H18359   4.934   7.934   2.341 -1.3565  0.2610 -2.2303
  136MOL0     H18360   4.714   7.868   2.345  1.4950 -0.9096  2.3293
  137MOL0     O18361   1.912   3.378   9.732 -0.0287 -0.8204  0.2251
  137MOL0     C18362   1.805   3.426   9.774  0.9859 -0.0268 -0.0208
  137MOL0     O18363   1.679   3.398   9.720 -0.1366 -0.4260  0.3806
  137MOL0     C18364   1.689   3.310   9.617  0.7097  0.1695 -0.0691
  137MOL0     C18365   1.686   3.348   9.485  1.0091 -0.0557 -0.5404
  137MOL0     C18366   1.686   3.253   9.386  0.5026  0.6941  1.5398
  137MOL0     C18367   1.676   3.117   9.408  0.4074 -0.2500 -0.7668
  137MOL0     O18368   1.673   3.033   9.299 -0.7664 -0.2560 -0.0951
  137MOL0     C18369   1.647   2.887   9.316  0.6719  0.1360 -0.5439
  137MOL0     C18370   1.630   2.803   9.185 -0.1830 -0.0317  0.1079
  137MOL0     C18371   1.687   2.873   9.056  1.0917 -0.4611  0.0527
  137MOL0     C18372   1.640   2.798   8.928 -0.5061  0.2637  0.9779
  137MOL0     C18373   1.662   2.883   8.799 -0.6500 -0.5036 -0.3159
  137MOL0     C18374   1.604   2.811   8.678 -0.5222  0.4561 -0.3792
  137MOL0     C18375   1.452   2.775   8.689  1.0011 -0.4973  0.0562
  137MOL0     C18376   1.390   2.757   8.547  0.4165 -0.2361 -0.4624
  137MOL0     N18377   1.441   2.636   8.483 -0.1977  1.0516  0.1659
  137MOL0     C18378   1.363   2.516   8.478  0.0536  0.4417 -0.1933
  137MOL0     C18379   1.423   2.438   8.380 -0.1828  0.3989 -0.2230
  137MOL0     C18380   1.381   2.295   8.331  0.1931 -1.4389  0.0454
  137MOL0     C18381   1.237   2.291   8.271 -1.0161 -1.0242  0.3890
  137MOL0     C18382   1.197   2.155   8.230  0.1695  0.5314 -0.0976
  137MOL0     C18383   1.053   2.144   8.194  0.1178  0.0677  0.3134
  137MOL0     O18384   0.967   2.170   8.302 -0.6468 -0.0497 -0.0548
  137MOL0     C18385   0.834   2.173   8.274 -0.0984 -0.7197 -0.3279
  137MOL0     C18386   0.757   2.241   8.371  0.1755  0.1631  0.6305
  137MOL0     C18387   0.614   2.251   8.373 -1.5695 -0.5073  0.5262
  137MOL0     C18388   0.549   2.334   8.479 -0.7927 -0.8090 -0.1643
  137MOL0     C18389   0.548   2.168   8.277  0.1930 -0.5432 -0.2156
  137MOL0     C18390   0.398   2.157   8.263  0.1661 -0.6126 -1.3828
  137MOL0     O18391   0.342   2.087   8.171  0.0947  0.1387  0.3788
  137MOL0     C18392   0.205   2.073   8.164 -0.7145  0.0478  1.1143
  137MOL0     C18393   0.138   1.960   8.199  0.0855  0.2871 -0.3937
  137MOL0     C18394   0.000   1.957   8.203  0.3831 -0.6676  0.2235
  137MOL0     C18395  -0.065   2.068   8.145  1.2822  0.0153  0.2016
  137MOL0     O18396  -0.203   2.071   8.129 -0.4231  0.3284 -0.1265
  137MOL0     C18397  -0.241   1.972   8.029 -0.4495 -0.3679 -0.1084
  137MOL0     C18398  -0.306   1.851   8.084  0.2235  0.0913 -0.3614
  137MOL0     C18399  -0.446   1.826   8.030  0.5365  0.4622 -0.5934
  137MOL0     C18400  -0.525   1.742   8.136 -0.5771 -0.1916 -0.3893
  137MOL0     C18401  -0.681   1.754   8.107 -0.6894 -0.1578 -0.0824
  137MOL0     C18402  -0.720   1.692   7.967 -0.7176 -0.1857  0.8045
  137MOL0     C18403  -0.644   1.556   7.929  0.6598  0.0514 -0.4116
  137MOL0     C18404  -0.690   1.450   8.028  0.3795  0.8965  0.7389
  137MOL0    Cl18405  -0.855   1.401   7.985 -0.2933 -0.3695  0.3921
  137MOL0     C18406   0.003   2.178   8.105  0.1189 -0.2836 -0.4829
  137MOL0     C18407   0.141   2.181   8.117 -0.0575 -0.4076 -0.2447
  137MOL0     O18408   0.331   2.213   8.355 -0.5056 -0.4769  0.5153
  137MOL0     C18409   0.618   2.104   8.176  0.3358  0.1864  0.3500
  137MOL0     C18410   0.759   2.102   8.177  0.1920 -0.7700  0.1186
  137MOL0     N18411   1.540   2.510   8.337 -0.1663  0.1091  0.2066
  137MOL0     N18412   1.552   2.618   8.401 -0.2082 -0.0766 -0.1904
  137MOL0     C18413   1.675   3.069   9.536 -0.9775  0.0960 -0.4690
  137MOL0     C18414   1.691   3.165   9.645 -0.5999 -0.4246 -0.4874
  137MOL0     C18415   1.806   3.500   9.901  0.1968 -0.5630 -0.2543
  137MOL0     C18416   1.690   3.551   9.962  0.5165  1.3857  0.0091
  137MOL0     C18417   1.697   3.622  10.084  0.3186  0.7774 -0.7543
  137MOL0     C18418   1.823   3.639  10.143  0.2733  0.3476 -0.0327
  137MOL0     O18419   1.810   3.709  10.262 -0.3150 -0.4001  0.3986
  137MOL0     C18420   1.924   3.773  10.322  0.4579 -0.1186  0.4848
  137MOL0     C18421   1.952   3.905  10.247  0.3046 -0.2229  0.1560
  137MOL0     C18422   1.838   4.002  10.273 -0.2197  0.1139 -0.0106
  137MOL0     C18423   1.862   4.151  10.228 -0.3196  0.3983  0.4762
  137MOL0     C18424   1.976   4.214  10.300 -0.6867  0.5206 -0.1767
  137MOL0     C18425   2.066   4.252  10.371  0.3800 -0.9128  0.1465
  137MOL0     C18426   1.942   3.606  10.079  0.1076  0.3747  0.6817
  137MOL0     C18427   1.927   3.536   9.962 -0.6989  0.0798 -0.0981
  137MOL0     H18428   1.678   3.450   9.451  0.7208 -0.6105 -2.2345
  137MOL0     H18429   1.691   3.281   9.281  0.1192  0.9633  1.5894
  137MOL0     H18430   1.726   2.832   9.369 -0.2178 -1.5754 -0.9196
  137MOL0     H18431   1.560   2.877   9.382  0.6510  0.3667 -0.5360
  137MOL0     H18432   1.686   2.710   9.199  1.5453  0.7999 -0.9776
  137MOL0     H18433   1.524   2.786   9.162  0.0766  2.0106 -3.1607
  137MOL0     H18434   1.641   2.972   9.059 -1.1827 -1.4199  3.5514
  137MOL0     H18435   1.796   2.867   9.059  1.2017  1.3718  1.9714
  137MOL0     H18436   1.697   2.706   8.917 -2.0503 -0.9098  2.2297
  137MOL0     H18437   1.533   2.777   8.937 -0.4613 -1.0754 -1.0236
  137MOL0     H18438   1.612   2.979   8.810  0.2376 -0.2199  1.6332
  137MOL0     H18439   1.769   2.903   8.795 -0.3700 -2.0779 -2.3033
  137MOL0     H18440   1.621   2.880   8.595 -1.6069 -0.6677 -1.5700
  137MOL0     H18441   1.653   2.714   8.668 -1.7665 -0.2069 -0.1433
  137MOL0     H18442   1.436   2.684   8.748 -0.2131  0.2317  0.8881
  137MOL0     H18443   1.390   2.851   8.737 -1.2343 -0.0272 -3.2089
  137MOL0     H18444   1.390   2.842   8.477  0.0394  1.0010  0.9904
  137MOL0     H18445   1.283   2.742   8.565  0.2950  0.6177 -0.4159
  137MOL0     H18446   1.273   2.506   8.538 -0.3753  0.9486 -0.7445
  137MOL0     H18447   1.450   2.247   8.260  0.6179 -0.6203 -0.1094
  137MOL0     H18448   1.388   2.233   8.420  3.1093 -2.4450 -0.7787
  137MOL0     H18449   1.242   2.344   8.175  3.9931  0.8121  1.3630
  137MOL0     H18450   1.162   2.336   8.337 -1.5905 -2.2775  0.6088
  137MOL0     H18451   1.222   2.086   8.310  1.5236 -1.8886 -2.4306
  137MOL0     H18452   1.267   2.124   8.151 -1.3491 -0.2389 -1.1763
  137MOL0     H18453   1.038   2.038   8.172 -0.4461 -0.4163  2.7389
  137MOL0     H18454   1.029   2.208   8.108 -1.8150 -1.3849 -0.3009
  137MOL0     H18455   0.816   2.294   8.445  1.2017  2.5338 -1.7445
  137MOL0     H18456   0.510   2.270   8.559  0.0593  1.6966  2.4419
  137MOL0     H18457   0.623   2.401   8.525 -1.5375  0.4716 -0.7881
  137MOL0     H18458   0.469   2.401   8.447  1.2579  2.0129  0.2724
  137MOL0     H18459   0.187   1.869   8.234 -1.2464 -0.6820 -0.9698
  137MOL0     H18460  -0.046   1.868   8.246  3.3156 -1.6490  1.5801
  137MOL0     H18461  -0.315   2.016   7.962  0.3876  0.6109 -0.4164
  137MOL0     H18462  -0.163   1.940   7.959 -0.6629 -1.6110  0.2032
  137MOL0     H18463  -0.240   1.766   8.064  0.0112 -0.3884  0.8854
  137MOL0     H18464  -0.307   1.844   8.194  0.9700 -0.9735 -0.4078
  137MOL0     H18465  -0.446   1.768   7.937 -0.1320 -0.7857  0.1555
  137MOL0     H18466  -0.499   1.921   8.022 -1.4429 -0.4744  0.5956
  137MOL0     H18467  -0.496   1.637   8.144  1.3164  0.2543 -0.9328
  137MOL0     H18468  -0.510   1.784   8.236  0.5737  0.2095 -0.7128
  137MOL0     H18469  -0.710   1.858   8.094  1.4436  0.8136  2.1635
  137MOL0     H18470  -0.729   1.713   8.196 -0.1900  1.8438  1.1574
  137MOL0     H18471  -0.829   1.688   7.960 -0.8007  2.8517 -2.8419
  137MOL0     H18472  -0.678   1.766   7.898 -1.3225  0.5738  1.2366
  137MOL0     H18473  -0.536   1.567   7.938  0.7822 -1.0651 -0.4639
  137MOL0     H18474  -0.662   1.534   7.824 -1.1642 -2.0012  0.2504
  137MOL0     H18475  -0.687   1.495   8.128  1.0089  0.2742  1.0142
  137MOL0     H18476  -0.626   1.362   8.019  0.6905  1.0475  1.3540
  137MOL0     H18477  -0.047   2.264   8.062  0.0844 -1.8592 -3.9444
  137MOL0     H18478   0.193   2.260   8.064 -1.1161  1.2629  1.1062
  137MOL0     H18479   0.555   2.045   8.110  0.0285  0.4049  0.4415
  137MOL0     H18480   0.807   2.040   8.102 -1.3705 -0.6578 -1.0145
  137MOL0     H18481   1.676   2.961   9.549 -0.0143  0.1887  0.3235
  137MOL0     H18482   1.697   3.131   9.748 -2.4845  1.3552  0.2918
  137MOL0     H18483   1.594   3.534   9.916  0.7074  0.1464  0.0201
  137MOL0     H18484   1.611   3.656  10.140  1.2665  1.0996  0.5790
  137MOL0     H18485   1.904   3.785  10.429 -0.1773 -1.9935  0.6042
  137MOL0     H18486   2.006   3.701  10.328  0.5668 -0.0176  0.1965
  137MOL0     H18487   1.965   3.890  10.139  0.3746 -2.0689  0.3929
  137MOL0     H18488   2.045   3.946  10.289  1.5641  1.1087 -3.5035
  137MOL0     H18489   1.815   3.999  10.380  1.5656 -3.2645  0.4179
  137MOL0     H18490   1.753   3.963  10.217 -2.1063  2.9729  0.6539
  137MOL0     H18491   1.766   4.204  10.232 -1.1241 -0.9802  0.2490
  137MOL0     H18492   1.889   4.147  10.122  0.8294 -3.5050  0.7746
  137MOL0     H18493   2.134   4.297  10.441 -0.5459  1.0589 -0.1422
  137MOL0     H18494   2.034   3.635  10.129  0.7651  0.6572 -0.6300
  137MOL0     H18495   2.025   3.526   9.916  1.1084  1.0555  3.2480
  138MOL0     O18496   7.208   2.174   2.992 -0.2979  0.1684 -0.1916
  138MOL0     C18497   7.235   2.165   3.111 -0.2379  0.2733  0.6114
  138MOL0     O18498   7.142   2.152   3.208  0.1079 -0.1403 -0.1575
  138MOL0     C18499   7.001   2.126   3.175 -0.4652 -0.2251 -0.4320
  138MOL0     C18500   6.907   2.199   3.248 -0.1070 -0.1475  0.5922
  138MOL0     C18501   6.771   2.200   3.209 -0.0508  0.6279 -0.1930
  138MOL0     C18502   6.722   2.115   3.105 -0.1536 -0.2050  0.0553
  138MOL0     O18503   6.603   2.123   3.049  0.2341  0.8760  0.3465
  138MOL0     C18504   6.480   2.146   3.117 -0.3885 -0.8198 -0.2076
  138MOL0     C18505   6.448   2.032   3.220 -0.7858  0.4405  0.2121
  138MOL0     C18506   6.307   2.042   3.276 -0.4166  0.1593 -0.5267
  138MOL0     C18507   6.260   1.914   3.348  0.1080 -0.2226 -0.0289
  138MOL0     C18508   6.108   1.929   3.377  0.3120  0.1112 -0.9122
  138MOL0     C18509   6.061   1.818   3.476  0.1980 -0.7404  0.2498
  138MOL0     C18510   5.912   1.791   3.459  0.8747 -0.0941 -0.9015
  138MOL0     C18511   5.820   1.911   3.487  0.3574  0.1630 -0.0692
  138MOL0     N18512   5.680   1.878   3.468 -0.0732 -0.0730  0.3536
  138MOL0     C18513   5.601   1.828   3.568  0.2122 -0.3795 -1.1054
  138MOL0     C18514   5.478   1.828   3.509 -0.4286  0.0740 -0.0668
  138MOL0     C18515   5.349   1.784   3.569 -0.0104 -0.6299  0.5766
  138MOL0     C18516   5.280   1.903   3.629 -0.5114 -0.9844 -0.5804
  138MOL0     C18517   5.129   1.885   3.619 -0.0529 -0.5275  0.2873
  138MOL0     C18518   5.048   1.997   3.683  0.1363  0.2439 -0.5329
  138MOL0     O18519   4.911   1.955   3.709  0.1236  0.1233 -0.0270
  138MOL0     C18520   4.806   2.047   3.689 -0.3952  0.6366 -0.9381
  138MOL0     C18521   4.678   1.999   3.710  0.3073 -0.5219  0.6537
  138MOL0     C18522   4.559   2.085   3.711  0.2430  0.0648  0.0528
  138MOL0     C18523   4.417   2.021   3.729 -0.6113 -0.3802 -0.7507
  138MOL0     C18524   4.577   2.222   3.677  0.4710 -0.3036  0.3478
  138MOL0     C18525   4.471   2.322   3.661  0.1580 -0.2442  0.3872
  138MOL0     O18526   4.357   2.280   3.592 -0.0106 -0.0757 -0.4577
  138MOL0     C18527   4.241   2.359   3.577  0.3386  0.5222  0.4620
  138MOL0     C18528   4.131   2.284   3.559  0.4057  0.2772  0.1448
  138MOL0     C18529   4.003   2.339   3.542 -0.3937 -0.1438 -0.2528
  138MOL0     C18530   3.993   2.472   3.517 -0.4755  0.7344 -0.1481
  138MOL0     O18531   3.867   2.514   3.483  0.0042  0.5862  0.5307
  138MOL0     C18532   3.840   2.649   3.432 -0.0945  0.4692 -0.0743
  138MOL0     C18533   3.697   2.690   3.450  0.0275  0.2320 -0.7662
  138MOL0     C18534   3.603   2.588   3.381  0.5055 -0.3858  0.4109
  138MOL0     C18535   3.457   2.642   3.394 -0.6475 -0.2752  0.0473
  138MOL0     C18536   3.356   2.532   3.354  0.3726  0.7266  0.1345
  138MOL0     C18537   3.207   2.576   3.387  0.1311 -0.9676 -0.3662
  138MOL0     C18538   3.107   2.475   3.348  0.5619  0.4396 -0.6518
  138MOL0     C18539   2.960   2.505   3.398 -0.1136 -0.7620 -0.4877
  138MOL0    Cl18540   2.869   2.352   3.382  0.0490 -0.2187 -0.1559
  138MOL0     C18541   4.112   2.548   3.522 -0.2009 -0.0972 -0.4304
  138MOL0     C18542   4.235   2.490   3.550 -1.1890  0.1123 -0.2947
  138MOL0     O18543   4.498   2.440   3.681  0.8859  0.3752  0.1443
  138MOL0     C18544   4.714   2.270   3.679 -0.1264  0.6421  0.6408
  138MOL0     C18545   4.828   2.188   3.689 -0.4577 -0.3232  0.0624
  138MOL0     N18546   5.489   1.875   3.379 -0.4936 -0.8683 -1.0734
  138MOL0     N18547   5.610   1.908   3.358 -0.3979 -1.0059  0.4698
  138MOL0     C18548   6.815   2.044   3.036 -0.8094  0.1814 -0.4927
  138MOL0     C18549   6.954   2.055   3.060  0.1934  0.2564  0.1500
  138MOL0     C18550   7.373   2.185   3.152 -0.5416 -0.2429  0.2923
  138MOL0     C18551   7.406   2.174   3.292  0.3992 -0.8393 -0.1671
  138MOL0     C18552   7.538   2.187   3.335  0.3881  0.7062 -0.7877
  138MOL0     C18553   7.642   2.207   3.243  0.1939 -0.1023  0.2225
  138MOL0     O18554   7.775   2.217   3.265 -0.8838 -0.9854 -0.2370
  138MOL0     C18555   7.822   2.161   3.386  0.5336  0.2686 -0.0312
  138MOL0     C18556   7.977   2.143   3.377  0.1039 -0.4277  0.2484
  138MOL0     C18557   8.018   2.020   3.302  0.2343  0.6373  0.5800
  138MOL0     C18558   7.979   2.032   3.156  0.0894 -0.1570  0.4269
  138MOL0     C18559   8.067   1.944   3.076 -0.3359  0.2449 -0.6331
  138MOL0     C18560   8.137   1.869   3.016 -1.0996  0.5945  0.1829
  138MOL0     C18561   7.604   2.229   3.112  0.2288 -0.4350 -0.2979
  138MOL0     C18562   7.474   2.221   3.067  0.1502 -0.8488 -0.1708
  138MOL0     H18563   6.936   2.266   3.329  0.1753  3.2767 -2.1280
  138MOL0     H18564   6.706   2.275   3.253 -1.9989 -1.0367 -0.1291
  138MOL0     H18565   6.469   2.241   3.170  1.2146 -0.6320 -0.1791
  138MOL0     H18566   6.401   2.146   3.041 -2.9350  1.7876  2.1682
  138MOL0     H18567   6.458   1.938   3.167 -0.5526  1.0927 -0.9318
  138MOL0     H18568   6.520   2.032   3.303 -1.1475  1.0577  0.5338
  138MOL0     H18569   6.297   2.125   3.346  0.0054 -0.7579  0.6768
  138MOL0     H18570   6.236   2.051   3.193 -1.1346 -1.9822 -0.2374
  138MOL0     H18571   6.285   1.825   3.289  0.4993  0.9072 -1.6180
  138MOL0     H18572   6.325   1.897   3.435  0.2488 -0.2497 -0.1384
  138MOL0     H18573   6.090   2.030   3.415  0.3642 -0.5793  1.0611
  138MOL0     H18574   6.058   1.916   3.280 -0.7051  1.0397 -0.5387
  138MOL0     H18575   6.109   1.725   3.446 -0.5548 -1.5573  1.5115
  138MOL0     H18576   6.083   1.840   3.581  1.3273 -1.5519  0.1969
  138MOL0     H18577   5.884   1.754   3.360 -0.2443 -0.3516 -0.4956
  138MOL0     H18578   5.896   1.707   3.527  2.9196  0.7646  0.7750
  138MOL0     H18579   5.847   1.993   3.419 -0.2697 -0.9171 -1.6966
  138MOL0     H18580   5.836   1.946   3.589  0.0079  0.1228 -0.0018
  138MOL0     H18581   5.641   1.822   3.669  3.5569  2.5606 -2.0710
  138MOL0     H18582   5.274   1.751   3.496 -2.1051  1.6466  1.5419
  138MOL0     H18583   5.361   1.712   3.650 -0.9420  2.0365  3.2955
  138MOL0     H18584   5.313   1.989   3.569  3.2024 -2.9699 -1.7266
  138MOL0     H18585   5.306   1.929   3.732 -1.8734  2.5403 -0.9628
  138MOL0     H18586   5.088   1.799   3.672  0.4466  0.2192  1.9713
  138MOL0     H18587   5.103   1.886   3.513 -2.5355 -0.5830  0.8253
  138MOL0     H18588   5.061   2.089   3.626 -2.8009  0.8178 -0.4418
  138MOL0     H18589   5.086   2.017   3.784 -0.8765 -1.5639  0.2575
  138MOL0     H18590   4.672   1.893   3.732 -3.4718 -0.0809  2.6880
  138MOL0     H18591   4.372   1.998   3.632 -1.4864  0.3861 -0.5426
  138MOL0     H18592   4.411   1.934   3.796 -1.2708  0.0142 -0.2859
  138MOL0     H18593   4.359   2.107   3.762  3.7459  2.1847  1.0815
  138MOL0     H18594   4.122   2.176   3.558  0.1573  0.2972  0.2770
  138MOL0     H18595   3.923   2.268   3.559  0.5187 -1.1155  0.1120
  138MOL0     H18596   3.904   2.716   3.489 -0.8729 -0.1710  1.6465
  138MOL0     H18597   3.845   2.643   3.323 -3.4747 -2.5292 -0.2500
  138MOL0     H18598   3.669   2.706   3.554 -3.0306  0.2968 -1.4868
  138MOL0     H18599   3.686   2.783   3.393  1.4920  0.4689 -0.7056
  138MOL0     H18600   3.601   2.492   3.434  0.5371  0.1308  1.3791
  138MOL0     H18601   3.629   2.587   3.275 -0.1590  3.3149  0.0954
  138MOL0     H18602   3.439   2.652   3.501  1.7802 -2.2203  0.7403
  138MOL0     H18603   3.441   2.740   3.347 -2.1456 -0.3329  0.4072
  138MOL0     H18604   3.380   2.441   3.409 -2.6169  0.0960  0.5546
  138MOL0     H18605   3.356   2.501   3.250 -2.7019 -1.7780  0.7303
  138MOL0     H18606   3.186   2.596   3.493 -1.0415 -1.8051 -0.4122
  138MOL0     H18607   3.193   2.672   3.337  1.5793 -1.3913 -1.6503
  138MOL0     H18608   3.132   2.380   3.396  1.0860  1.3204  0.9017
  138MOL0     H18609   3.086   2.463   3.241 -2.5454  1.6808 -0.2793
  138MOL0     H18610   2.899   2.587   3.357  0.3031  0.7389  1.7135
  138MOL0     H18611   2.960   2.535   3.503  1.9648  1.4664 -1.0253
  138MOL0     H18612   4.117   2.653   3.494 -0.3944 -0.3393 -1.4133
  138MOL0     H18613   4.322   2.555   3.561  0.3730 -1.9790  0.3419
  138MOL0     H18614   4.735   2.376   3.690  1.4784  0.4906 -0.6260
  138MOL0     H18615   4.926   2.235   3.688 -1.7760  2.6780  0.7277
  138MOL0     H18616   6.781   1.981   2.954  0.8447  1.1608 -1.9986
  138MOL0     H18617   7.022   2.008   2.990 -1.9443 -0.0598 -1.8663
  138MOL0     H18618   7.329   2.156   3.367  2.5552  3.1498  3.4121
  138MOL0     H18619   7.556   2.187   3.442 -0.3596  0.3514 -0.6545
  138MOL0     H18620   7.790   2.228   3.467  0.0697  0.8611 -0.6872
  138MOL0     H18621   7.777   2.065   3.413 -1.3556  1.6151  1.9430
  138MOL0     H18622   8.021   2.143   3.477 -4.2642 -0.2147  2.3947
  138MOL0     H18623   8.015   2.226   3.317 -0.5602 -0.6022 -0.4280
  138MOL0     H18624   8.006   1.924   3.352  0.4625 -1.1667 -2.5477
  138MOL0     H18625   8.127   2.025   3.306  0.1781  1.6728  1.2641
  138MOL0     H18626   7.977   2.138   3.128 -0.3791 -0.7362 -1.9432
  138MOL0     H18627   7.874   2.005   3.145 -0.2225  1.2565 -0.2077
  138MOL0     H18628   8.190   1.801   2.952 -1.7180 -0.1988  0.4882
  138MOL0     H18629   7.690   2.237   3.046  1.6033 -1.9564  1.2161
  138MOL0     H18630   7.455   2.241   2.962  1.6204 -1.7998 -0.6494
  139MOL0     O18631   8.399   7.437   4.271 -0.9563 -0.5066  0.8843
  139MOL0     C18632   8.466   7.433   4.371 -0.4382  0.2356  0.0405
  139MOL0     O18633   8.433   7.478   4.496  0.5894  0.3132 -0.0955
  139MOL0     C18634   8.311   7.535   4.508  0.1798  0.0027  0.1553
  139MOL0     C18635   8.218   7.494   4.604  0.3396 -0.3237  0.8355
  139MOL0     C18636   8.090   7.554   4.613  0.0847 -0.2429 -0.5969
  139MOL0     C18637   8.057   7.657   4.529 -0.4968  0.4405  0.2899
  139MOL0     O18638   7.937   7.719   4.539 -0.3290 -0.0141 -0.2533
  139MOL0     C18639   7.932   7.820   4.637  0.0496 -0.5436  0.5804
  139MOL0     C18640   7.787   7.874   4.657 -0.2537 -0.6696 -0.5708
  139MOL0     C18641   7.695   7.879   4.533  0.3912  0.7271 -0.1542
  139MOL0     C18642   7.576   7.964   4.578 -0.2969  0.0938 -0.6206
  139MOL0     C18643   7.466   7.956   4.473 -0.3926 -0.8821 -0.3097
  139MOL0     C18644   7.406   8.101   4.470 -0.2356  0.0224 -0.0712
  139MOL0     C18645   7.284   8.127   4.383 -0.4788 -0.1065  0.4658
  139MOL0     C18646   7.243   8.274   4.364 -0.3580  0.2507  0.4589
  139MOL0     N18647   7.114   8.280   4.289  0.1756 -0.6454  0.0688
  139MOL0     C18648   6.985   8.280   4.340 -0.2419 -0.8016  0.6732
  139MOL0     C18649   6.897   8.279   4.235  0.5286  0.7355  0.3631
  139MOL0     C18650   6.750   8.256   4.249 -0.0752  0.2842  0.5129
  139MOL0     C18651   6.672   8.351   4.152  0.5797  0.7797  0.0019
  139MOL0     C18652   6.679   8.498   4.178 -0.7907 -0.1544  0.0568
  139MOL0     C18653   6.619   8.534   4.308  0.0577 -1.0474  0.1133
  139MOL0     O18654   6.505   8.459   4.355  0.4248 -0.2051 -0.6884
  139MOL0     C18655   6.383   8.506   4.319  0.5432 -0.3556 -0.3159
  139MOL0     C18656   6.356   8.600   4.219  0.6795 -0.5165 -0.3339
  139MOL0     C18657   6.222   8.639   4.199 -0.1460 -0.3685  1.1171
  139MOL0     C18658   6.207   8.742   4.090 -0.1967 -0.6962 -0.7671
  139MOL0     C18659   6.112   8.583   4.270 -0.4646 -0.0733  0.3399
  139MOL0     C18660   5.969   8.602   4.239  0.9698 -0.2227 -0.4025
  139MOL0     O18661   5.877   8.534   4.319 -0.1354  0.0721  0.5030
  139MOL0     C18662   5.745   8.563   4.291  0.3404  0.7396  0.5509
  139MOL0     C18663   5.676   8.500   4.191  0.6858  0.4604  0.1373
  139MOL0     C18664   5.537   8.510   4.176  0.5080 -0.0421 -0.8682
  139MOL0     C18665   5.465   8.596   4.254  0.4582  0.1151  0.2262
  139MOL0     O18666   5.327   8.617   4.248  0.0375  0.4036 -0.8099
  139MOL0     C18667   5.245   8.549   4.152  0.4805 -0.5813  0.3064
  139MOL0     C18668   5.095   8.598   4.174 -0.3863  0.5075 -0.0005
  139MOL0     C18669   5.079   8.756   4.179 -0.5250  0.0775 -0.4315
  139MOL0     C18670   4.994   8.795   4.297 -0.1661 -0.9353 -0.0445
  139MOL0     C18671   4.987   8.948   4.319 -0.6527  0.8214  0.6291
  139MOL0     C18672   4.901   9.025   4.221 -0.9818  0.8098  0.0534
  139MOL0     C18673   4.814   9.124   4.295 -0.5835 -0.1473 -0.1321
  139MOL0     C18674   4.734   9.207   4.199 -0.1306  0.2719 -0.0124
  139MOL0    Cl18675   4.636   9.330   4.285  0.0210 -0.3312 -0.0715
  139MOL0     C18676   5.533   8.663   4.350  0.0273 -0.4797 -1.4817
  139MOL0     C18677   5.672   8.647   4.376  0.4469 -0.2712  0.6355
  139MOL0     O18678   5.935   8.673   4.142 -0.3878 -0.1228  0.6709
  139MOL0     C18679   6.147   8.498   4.379 -0.4040 -1.1004  0.3519
  139MOL0     C18680   6.278   8.453   4.391  0.2921  0.2637 -0.6635
  139MOL0     N18681   6.981   8.296   4.121  0.8725 -0.1394 -0.5169
  139MOL0     N18682   7.105   8.301   4.158 -0.4587  0.2196 -0.0359
  139MOL0     C18683   8.146   7.699   4.434  0.0680 -0.0793 -0.0626
  139MOL0     C18684   8.275   7.641   4.423 -0.2664 -0.3013 -1.1377
  139MOL0     C18685   8.603   7.380   4.357  0.2550 -0.1273 -0.2820
  139MOL0     C18686   8.675   7.334   4.462 -0.4940  0.2983 -0.0414
  139MOL0     C18687   8.806   7.294   4.444  0.0837  0.5010 -0.1558
  139MOL0     C18688   8.870   7.286   4.320 -0.5287  0.3364 -0.4924
  139MOL0     O18689   9.006   7.263   4.292 -0.3755  0.4381 -0.5711
  139MOL0     C18690   9.102   7.293   4.395 -1.2390  0.3338 -0.8128
  139MOL0     C18691   9.249   7.278   4.353 -0.2404 -0.5934  0.3649
  139MOL0     C18692   9.345   7.311   4.463 -0.2623  0.4675 -0.6212
  139MOL0     C18693   9.498   7.318   4.422  0.3966 -0.3867 -0.1023
  139MOL0     C18694   9.555   7.182   4.402 -0.0799 -0.6269  1.1243
  139MOL0     C18695   9.589   7.067   4.392  0.0427 -0.5453  0.5265
  139MOL0     C18696   8.790   7.305   4.209 -0.4259  0.8267 -0.1906
  139MOL0     C18697   8.662   7.359   4.229  0.4420  0.3169 -0.8636
  139MOL0     H18698   8.243   7.419   4.678 -0.1793 -0.3716  0.9680
  139MOL0     H18699   8.024   7.522   4.693  2.0352  0.2936  1.3233
  139MOL0     H18700   7.971   7.802   4.738 -1.0773  2.0928  1.5949
  139MOL0     H18701   7.995   7.901   4.598 -0.1216 -0.8556 -0.3675
  139MOL0     H18702   7.755   7.815   4.743  4.2169 -2.0470  0.4105
  139MOL0     H18703   7.799   7.979   4.686  2.9051 -1.8242  3.2756
  139MOL0     H18704   7.739   7.920   4.441  1.7284  0.6586  0.4289
  139MOL0     H18705   7.659   7.778   4.514 -1.1486  1.5399 -1.7966
  139MOL0     H18706   7.535   7.925   4.671 -0.8288 -0.0643 -0.9162
  139MOL0     H18707   7.611   8.066   4.596  0.2092 -0.3945  1.3448
  139MOL0     H18708   7.498   7.927   4.372 -0.1136  1.8595 -1.1085
  139MOL0     H18709   7.400   7.879   4.514  1.5033 -1.8510  1.1096
  139MOL0     H18710   7.386   8.137   4.572 -0.8094  2.0725 -0.8595
  139MOL0     H18711   7.482   8.173   4.437  0.3001  0.1483  1.3557
  139MOL0     H18712   7.297   8.080   4.286  0.1658  4.1102 -1.7366
  139MOL0     H18713   7.200   8.083   4.439 -0.6862  2.0903  2.0534
  139MOL0     H18714   7.315   8.320   4.296  0.1866 -1.2134  0.0035
  139MOL0     H18715   7.230   8.323   4.461 -2.0773 -0.5150  0.6444
  139MOL0     H18716   6.957   8.263   4.444 -0.4197  0.9859  0.9490
  139MOL0     H18717   6.733   8.151   4.226 -0.2957 -0.2662  2.8969
  139MOL0     H18718   6.708   8.275   4.349 -2.1486  0.5755 -0.3510
  139MOL0     H18719   6.567   8.322   4.161  0.0452  1.8429 -2.0382
  139MOL0     H18720   6.694   8.343   4.045 -2.4410  3.0761 -0.9456
  139MOL0     H18721   6.626   8.559   4.104  0.2580 -1.4413 -1.8341
  139MOL0     H18722   6.784   8.527   4.175 -0.2154 -2.1565 -0.3817
  139MOL0     H18723   6.590   8.639   4.296 -0.0931 -1.3007 -2.2905
  139MOL0     H18724   6.684   8.521   4.395 -0.3679 -1.7170  0.3348
  139MOL0     H18725   6.431   8.647   4.156  1.2592  0.4146  0.9872
  139MOL0     H18726   6.305   8.787   4.071 -0.2619 -0.3676 -0.3430
  139MOL0     H18727   6.161   8.695   4.002  2.1467 -2.1221 -1.3237
  139MOL0     H18728   6.156   8.832   4.125  4.4608  2.3272 -0.9334
  139MOL0     H18729   5.721   8.422   4.130  0.6610  1.1121 -0.7397
  139MOL0     H18730   5.494   8.449   4.097  1.1039 -0.3029 -0.9937
  139MOL0     H18731   5.271   8.580   4.050  0.0563  2.8910  1.1284
  139MOL0     H18732   5.252   8.440   4.157 -0.2959 -0.9427 -3.3760
  139MOL0     H18733   5.029   8.562   4.094 -1.0323  1.4747  0.0890
  139MOL0     H18734   5.053   8.559   4.267 -0.1748  1.1376  0.3656
  139MOL0     H18735   5.031   8.788   4.086 -1.6839 -0.9600 -0.2180
  139MOL0     H18736   5.172   8.811   4.193 -0.4967 -0.6453  3.2069
  139MOL0     H18737   4.895   8.749   4.287 -1.9187  2.4806  0.1306
  139MOL0     H18738   5.040   8.755   4.388 -1.8937 -0.5102  1.0693
  139MOL0     H18739   5.085   8.994   4.309  0.8279 -1.8460  1.6323
  139MOL0     H18740   4.953   8.958   4.423  0.4695 -1.7370  1.3315
  139MOL0     H18741   4.968   9.083   4.157  0.6303  0.8933  1.7568
  139MOL0     H18742   4.843   8.953   4.162  1.5876  0.4744 -2.2925
  139MOL0     H18743   4.888   9.178   4.355 -1.2468 -0.8564  1.3757
  139MOL0     H18744   4.745   9.077   4.366 -2.3432  0.3140 -1.4583
  139MOL0     H18745   4.653   9.152   4.152 -0.5713  0.9037 -0.0074
  139MOL0     H18746   4.806   9.248   4.128 -0.1142 -1.6602 -1.1752
  139MOL0     H18747   5.477   8.728   4.415  0.8880 -1.8440  0.7204
  139MOL0     H18748   5.724   8.697   4.458  0.2951  1.4243 -0.2512
  139MOL0     H18749   6.078   8.460   4.453  0.0911  0.0290  1.4252
  139MOL0     H18750   6.298   8.375   4.465 -0.4691  0.6374 -0.0489
  139MOL0     H18751   8.124   7.791   4.379  0.4318 -0.3505 -0.6752
  139MOL0     H18752   8.348   7.669   4.347  1.5665 -1.6586  0.0508
  139MOL0     H18753   8.624   7.328   4.557  1.6567  3.6027  1.5066
  139MOL0     H18754   8.875   7.261   4.520  0.1802  0.7801 -0.1197
  139MOL0     H18755   9.082   7.395   4.427 -2.0474  0.5891 -2.0508
  139MOL0     H18756   9.082   7.232   4.483 -1.2818 -0.0680 -1.0982
  139MOL0     H18757   9.257   7.350   4.272 -4.5447 -0.4070 -0.1238
  139MOL0     H18758   9.265   7.174   4.325  1.4487 -0.0786 -0.6813
  139MOL0     H18759   9.324   7.254   4.554 -0.0262 -2.8584 -2.4817
  139MOL0     H18760   9.309   7.411   4.489  1.3280  0.6931  0.9230
  139MOL0     H18761   9.548   7.380   4.497 -1.0812  2.0938 -1.0304
  139MOL0     H18762   9.515   7.375   4.330 -0.3292  0.4331  0.2616
  139MOL0     H18763   9.621   6.965   4.392  1.2439 -0.2278 -1.7010
  139MOL0     H18764   8.838   7.291   4.113  0.8068 -2.2308  0.7330
  139MOL0     H18765   8.600   7.375   4.141 -0.8308 -0.5097 -0.1562
  140MOL0     O18766   0.723  10.924   7.902 -0.3695 -0.1804  0.6711
  140MOL0     C18767   0.820  10.938   7.830 -0.2164 -0.4258 -0.3918
  140MOL0     O18768   0.857  10.847   7.737  0.5082  0.4742 -0.3619
  140MOL0     C18769   0.766  10.745   7.705  0.0099  0.7066 -0.4970
  140MOL0     C18770   0.623  10.756   7.697 -0.5601 -0.6292 -0.5421
  140MOL0     C18771   0.537  10.645   7.670 -0.0837 -0.3743 -0.5206
  140MOL0     C18772   0.594  10.521   7.640  1.0519 -0.3425 -1.1067
  140MOL0     O18773   0.506  10.418   7.604 -0.3944  0.1178 -0.4134
  140MOL0     C18774   0.566  10.328   7.505 -0.0313 -0.2132 -0.6815
  140MOL0     C18775   0.459  10.263   7.424 -0.1666  0.4503  0.7973
  140MOL0     C18776   0.393  10.151   7.502  0.5314 -0.5543 -0.8663
  140MOL0     C18777   0.476  10.026   7.482  0.0366  0.1548  0.1651
  140MOL0     C18778   0.412   9.903   7.539 -0.7917 -0.0163  0.5569
  140MOL0     C18779   0.504   9.789   7.566  0.4545 -0.7490 -0.1350
  140MOL0     C18780   0.420   9.660   7.560 -0.0567  0.2510  0.6621
  140MOL0     C18781   0.311   9.642   7.671 -0.2360  0.4166  0.2549
  140MOL0     N18782   0.185   9.726   7.650 -0.3740  0.4227  0.2574
  140MOL0     C18783   0.139   9.823   7.737 -0.2042  0.1402  0.5998
  140MOL0     C18784   0.017   9.851   7.706  1.1976  0.2019  0.5959
  140MOL0     C18785  -0.068   9.957   7.765 -0.0402 -0.2797 -0.1686
  140MOL0     C18786  -0.221   9.916   7.758  0.5462 -0.3775 -0.2822
  140MOL0     C18787  -0.323  10.013   7.829  0.3806 -0.3181 -0.5162
  140MOL0     C18788  -0.456   9.956   7.813  0.8485 -0.0973 -0.0032
  140MOL0     O18789  -0.553  10.046   7.881  0.6377  0.0266  0.2796
  140MOL0     C18790  -0.686  10.003   7.913 -0.9035 -0.3523 -0.3762
  140MOL0     C18791  -0.761  10.079   7.997 -0.4222  0.2453 -0.2866
  140MOL0     C18792  -0.898  10.057   8.026  0.4553 -0.9562  0.2947
  140MOL0     C18793  -0.972  10.174   8.103 -0.1318  0.6447  0.6865
  140MOL0     C18794  -0.968   9.949   7.966  0.1835  0.0858  0.2101
  140MOL0     C18795  -1.099   9.914   7.990 -0.3428 -0.3270  0.0470
  140MOL0     O18796  -1.150   9.826   7.914 -0.4722  0.3631  0.2749
  140MOL0     C18797  -1.284   9.809   7.896  0.4666  0.2436  0.5982
  140MOL0     C18798  -1.329   9.677   7.867 -0.0721 -0.7950  0.2781
  140MOL0     C18799  -1.468   9.659   7.850 -0.2708  0.3064  0.3711
  140MOL0     C18800  -1.560   9.764   7.843  0.3053  0.0548  0.0447
  140MOL0     O18801  -1.694   9.744   7.835  0.0795 -0.2442  0.2394
  140MOL0     C18802  -1.742   9.695   7.712 -0.1318  0.4271 -0.0522
  140MOL0     C18803  -1.893   9.707   7.715  1.4559  0.8595 -0.6734
  140MOL0     C18804  -1.960   9.652   7.838  0.2973 -0.1607 -0.1384
  140MOL0     C18805  -2.108   9.615   7.846  0.2236 -0.1947  0.0263
  140MOL0     C18806  -2.164   9.530   7.730 -0.2011 -0.7373 -0.2857
  140MOL0     C18807  -2.307   9.492   7.743 -0.4618 -0.4816  0.4573
  140MOL0     C18808  -2.393   9.604   7.699 -0.0143 -0.1617 -0.0879
  140MOL0     C18809  -2.535   9.552   7.686 -0.8608  0.1699 -0.3179
  140MOL0    Cl18810  -2.649   9.680   7.617 -0.3165  0.3847  0.4603
  140MOL0     C18811  -1.507   9.891   7.876  0.0619 -0.7458 -0.3653
  140MOL0     C18812  -1.376   9.915   7.908 -0.0242 -0.0940 -0.2383
  140MOL0     O18813  -1.155   9.964   8.091 -0.6860  0.0670  0.0040
  140MOL0     C18814  -0.890   9.875   7.877 -0.1080  0.1218 -0.1043
  140MOL0     C18815  -0.757   9.909   7.847 -0.3196  0.7304  0.2645
  140MOL0     N18816  -0.015   9.781   7.594  0.0404 -0.0476 -0.0311
  140MOL0     N18817   0.086   9.700   7.564  0.2520  0.2015  0.3510
  140MOL0     C18818   0.733  10.510   7.647  0.2339  0.9575 -1.1310
  140MOL0     C18819   0.824  10.619   7.682  0.3816  0.4162 -0.2392
  140MOL0     C18820   0.902  11.062   7.835  0.0698  0.2596  0.2037
  140MOL0     C18821   0.919  11.148   7.951  0.0409  0.0686  0.2606
  140MOL0     C18822   1.011  11.260   7.945 -0.0642  0.7510 -0.7659
  140MOL0     C18823   1.093  11.284   7.839  0.5182 -0.3843  0.0421
  140MOL0     O18824   1.183  11.382   7.839  0.3399 -0.7232 -0.0554
  140MOL0     C18825   1.144  11.507   7.906  0.1334  0.2004  0.0593
  140MOL0     C18826   1.240  11.615   7.860 -0.0378  0.7065 -0.1925
  140MOL0     C18827   1.271  11.624   7.705  0.2771  0.7363  0.5122
  140MOL0     C18828   1.359  11.734   7.662 -0.3333  0.7225 -0.2453
  140MOL0     C18829   1.476  11.763   7.745  0.5476 -0.4997  0.0388
  140MOL0     C18830   1.573  11.796   7.812  0.4141  0.6097  0.1982
  140MOL0     C18831   1.087  11.192   7.727  0.0447  0.1577 -0.0249
  140MOL0     C18832   0.994  11.081   7.724 -0.2992 -0.1432  0.3511
  140MOL0     H18833   0.581  10.855   7.713  2.6579  1.0943 -1.7157
  140MOL0     H18834   0.431  10.665   7.661  0.0139 -0.7681 -3.9252
  140MOL0     H18835   0.617  10.386   7.429 -1.3237 -0.8534 -2.0941
  140MOL0     H18836   0.636  10.265   7.561 -1.4661 -0.8829  0.4529
  140MOL0     H18837   0.383  10.330   7.384  0.4661  0.1360 -1.0130
  140MOL0     H18838   0.507  10.222   7.335  0.9404  3.6379 -0.1938
  140MOL0     H18839   0.400  10.178   7.607 -1.7145 -0.6969 -0.6342
  140MOL0     H18840   0.288  10.142   7.474 -0.0376  0.1000  0.9416
  140MOL0     H18841   0.486  10.008   7.374  0.2873 -1.4194  0.4325
  140MOL0     H18842   0.570  10.045   7.534 -0.1046 -1.4474  1.0633
  140MOL0     H18843   0.364   9.923   7.636  1.0766  2.7645  1.0156
  140MOL0     H18844   0.336   9.870   7.468  0.7376 -3.4222  0.3116
  140MOL0     H18845   0.573   9.780   7.482 -0.1215  1.9785 -1.0088
  140MOL0     H18846   0.554   9.797   7.663 -0.3711  0.2453  0.2321
  140MOL0     H18847   0.383   9.635   7.460 -1.7319 -2.0779  1.7665
  140MOL0     H18848   0.486   9.578   7.590 -0.3708 -0.5672 -0.7795
  140MOL0     H18849   0.357   9.663   7.768  1.0178  0.6572 -0.3773
  140MOL0     H18850   0.267   9.542   7.682 -1.8062  1.3568  4.3005
  140MOL0     H18851   0.192   9.876   7.815  0.9969 -0.0042 -0.1007
  140MOL0     H18852  -0.046   9.977   7.870 -2.7210 -1.4527  0.7271
  140MOL0     H18853  -0.051  10.047   7.705  1.3764  0.7669  1.7094
  140MOL0     H18854  -0.222   9.813   7.796  2.5741 -0.1670  0.4743
  140MOL0     H18855  -0.254   9.919   7.654  1.9508 -1.3985 -0.7896
  140MOL0     H18856  -0.315  10.114   7.788  1.6306 -1.4308 -3.2442
  140MOL0     H18857  -0.297  10.016   7.935  0.8678 -0.7694 -0.6185
  140MOL0     H18858  -0.471   9.851   7.839 -1.3400  0.5862  1.8580
  140MOL0     H18859  -0.482   9.965   7.708 -2.4231 -0.0989  0.7152
  140MOL0     H18860  -0.717  10.167   8.043 -0.7705 -0.0807  0.6821
  140MOL0     H18861  -0.912  10.265   8.099  1.3660 -0.0252  4.4276
  140MOL0     H18862  -1.077  10.181   8.073 -0.7771 -3.3708  1.4156
  140MOL0     H18863  -0.985  10.143   8.207 -1.4996 -3.1720 -0.4639
  140MOL0     H18864  -1.254   9.599   7.862  2.2237  1.0127  2.9144
  140MOL0     H18865  -1.502   9.557   7.833 -0.5718  0.2612  1.1956
  140MOL0     H18866  -1.693   9.747   7.630  1.9635  1.1045  1.5221
  140MOL0     H18867  -1.719   9.588   7.702 -0.4466  0.2370  1.0516
  140MOL0     H18868  -1.910   9.815   7.722 -0.7083  0.5146  0.3331
  140MOL0     H18869  -1.938   9.666   7.624 -0.6516  2.6189 -0.5165
  140MOL0     H18870  -1.935   9.718   7.922 -1.8702 -1.9611  2.0467
  140MOL0     H18871  -1.908   9.557   7.854 -1.9129 -1.2459  1.0769
  140MOL0     H18872  -2.130   9.574   7.945 -0.6530  0.3377  0.0556
  140MOL0     H18873  -2.173   9.702   7.859  0.0386 -0.4342  0.7436
  140MOL0     H18874  -2.094   9.448   7.710 -0.4672 -0.9345 -0.4075
  140MOL0     H18875  -2.157   9.592   7.640 -3.2347 -1.8996 -1.4549
  140MOL0     H18876  -2.329   9.403   7.684 -0.8242 -0.7676  1.0132
  140MOL0     H18877  -2.338   9.468   7.845 -4.3116  2.9692  0.3864
  140MOL0     H18878  -2.355   9.644   7.604  1.3126  2.6105  1.4678
  140MOL0     H18879  -2.386   9.686   7.772  2.9936  0.4649 -0.9072
  140MOL0     H18880  -2.567   9.520   7.785  0.5558  1.0257  0.4444
  140MOL0     H18881  -2.534   9.468   7.616 -2.5518 -1.1484  1.1378
  140MOL0     H18882  -1.583   9.968   7.876 -2.0881 -2.7436  0.0544
  140MOL0     H18883  -1.343  10.016   7.933 -1.6375  0.6129 -0.7883
  140MOL0     H18884  -0.931   9.784   7.833 -0.0383  0.6361 -1.2646
  140MOL0     H18885  -0.709   9.848   7.771 -3.0179 -2.4601  0.8889
  140MOL0     H18886   0.768  10.412   7.616 -0.1359  1.1018 -2.0174
  140MOL0     H18887   0.930  10.601   7.692  0.8800  0.2380 -4.1640
  140MOL0     H18888   0.868  11.116   8.041  0.6174 -2.0506 -0.1090
  140MOL0     H18889   1.022  11.323   8.033 -2.4641 -0.5047  0.5259
  140MOL0     H18890   1.047  11.537   7.864  1.7498 -0.1836 -4.4851
  140MOL0     H18891   1.144  11.493   8.015 -0.0490 -1.1929 -0.0967
  140MOL0     H18892   1.328  11.596   7.923 -1.7676 -0.8597  1.8698
  140MOL0     H18893   1.193  11.710   7.888 -0.8972  0.0266  0.7049
  140MOL0     H18894   1.180  11.629   7.645  0.8710 -0.3439 -0.5165
  140MOL0     H18895   1.325  11.531   7.684  1.5209  1.3821  0.7707
  140MOL0     H18896   1.299  11.825   7.649  1.2378  1.6946 -1.0821
  140MOL0     H18897   1.405  11.710   7.566 -0.2480 -0.5886  0.1094
  140MOL0     H18898   1.651  11.814   7.883 -1.1151 -2.4779  2.9499
  140MOL0     H18899   1.163  11.191   7.649  2.3883 -1.3287  2.0797
  140MOL0     H18900   1.000  11.012   7.639  2.4072  0.8832 -0.3891
  141MOL0     O18901  10.968   6.326   1.009  0.2418  0.4870 -0.9504
  141MOL0     C18902  11.029   6.217   1.001  0.6689  0.2222 -0.1847
  141MOL0     O18903  10.966   6.098   0.982 -0.6287 -0.0263  0.1509
  141MOL0     C18904  10.832   6.088   0.986  0.1932  0.0721 -0.0641
  141MOL0     C18905  10.769   6.020   1.085 -0.2981 -0.4956  0.1288
  141MOL0     C18906  10.630   6.015   1.090  0.4557 -0.4601  0.1552
  141MOL0     C18907  10.547   6.089   0.996 -0.2103  0.4950 -0.7398
  141MOL0     O18908  10.408   6.078   0.981 -0.1724 -0.7030 -0.0663
  141MOL0     C18909  10.334   6.021   1.093  0.7968 -0.5165 -0.1433
  141MOL0     C18910  10.333   6.105   1.220  0.1152  0.4159 -1.0786
  141MOL0     C18911  10.211   6.062   1.305  0.5755  0.2987 -0.1543
  141MOL0     C18912  10.070   6.099   1.262 -0.4684  0.4871  0.0910
  141MOL0     C18913   9.981   6.072   1.378 -0.2444  0.5074 -0.0198
  141MOL0     C18914   9.826   6.077   1.346  0.6805  0.0267  0.5139
  141MOL0     C18915   9.742   6.081   1.478  0.7416 -0.0779  0.6068
  141MOL0     C18916   9.598   6.137   1.470 -0.1375 -0.2005  0.2183
  141MOL0     N18917   9.512   6.022   1.463  0.0103  0.0706  0.3806
  141MOL0     C18918   9.466   5.946   1.572 -0.0935  0.2573  0.1395
  141MOL0     C18919   9.378   5.853   1.525 -0.4785 -0.4464  0.6728
  141MOL0     C18920   9.285   5.765   1.610 -0.6808 -0.0503 -0.4186
  141MOL0     C18921   9.147   5.748   1.558  0.2777 -0.5666  0.3154
  141MOL0     C18922   9.057   5.868   1.593  0.5602 -0.8301  0.5801
  141MOL0     C18923   8.927   5.859   1.512 -0.1869  0.5011 -0.9136
  141MOL0     O18924   8.840   5.754   1.552  0.5563 -0.7216 -0.0353
  141MOL0     C18925   8.705   5.754   1.557  0.0774 -0.1834  1.1329
  141MOL0     C18926   8.652   5.683   1.666 -0.3395 -0.5439 -0.9626
  141MOL0     C18927   8.517   5.659   1.672 -0.7802  0.1925  1.0748
  141MOL0     C18928   8.452   5.568   1.778 -0.6251  1.2039  0.5884
  141MOL0     C18929   8.435   5.704   1.561  0.4175  0.2542 -1.1414
  141MOL0     C18930   8.291   5.689   1.541 -0.1699 -0.3760  0.1533
  141MOL0     O18931   8.233   5.582   1.585  0.2315 -0.1078 -0.4659
  141MOL0     C18932   8.097   5.546   1.561 -0.4455 -0.4343 -0.0296
  141MOL0     C18933   8.017   5.609   1.464 -0.3989  0.6157 -0.0390
  141MOL0     C18934   7.885   5.558   1.436 -0.8464  0.3724  0.6582
  141MOL0     C18935   7.835   5.454   1.517 -0.8859 -0.0316 -0.7074
  141MOL0     O18936   7.708   5.410   1.486 -0.5151 -0.2231 -0.3639
  141MOL0     C18937   7.642   5.317   1.573  0.5396  0.3353  0.2106
  141MOL0     C18938   7.491   5.345   1.573  0.1077 -0.1437 -0.2487
  141MOL0     C18939   7.410   5.285   1.688 -0.4421 -0.2944 -1.0915
  141MOL0     C18940   7.267   5.327   1.693  1.2887 -0.8008 -0.6329
  141MOL0     C18941   7.192   5.288   1.822 -0.6137 -0.2906 -0.0651
  141MOL0     C18942   7.053   5.356   1.817 -0.7765  0.1693  0.1440
  141MOL0     C18943   7.064   5.515   1.823  0.1867  0.0375  0.6676
  141MOL0     C18944   6.928   5.581   1.808  1.6027 -0.0685  0.2029
  141MOL0    Cl18945   6.930   5.744   1.722  0.2748 -0.6708  0.4740
  141MOL0     C18946   7.917   5.391   1.610  0.3406  0.8272  1.0232
  141MOL0     C18947   8.047   5.428   1.629 -0.2981  0.1765  0.3642
  141MOL0     O18948   8.235   5.793   1.514 -0.8779 -1.2847 -0.2819
  141MOL0     C18949   8.494   5.778   1.458  0.1698  0.0427  0.4446
  141MOL0     C18950   8.627   5.798   1.454 -0.8597  0.1027 -0.3730
  141MOL0     N18951   9.379   5.863   1.384  0.2307  0.5128 -0.7957
  141MOL0     N18952   9.460   5.960   1.355 -0.7955 -1.1536 -0.4564
  141MOL0     C18953  10.613   6.169   0.904  0.3218  0.0152  0.6015
  141MOL0     C18954  10.751   6.161   0.898  0.9998 -0.0749 -0.2227
  141MOL0     C18955  11.179   6.219   0.996 -0.6849  0.0796 -0.4249
  141MOL0     C18956  11.258   6.337   0.990  0.9188  0.2097  0.2077
  141MOL0     C18957  11.395   6.342   0.998 -0.0707 -0.1857 -0.2857
  141MOL0     C18958  11.463   6.228   1.011 -0.9306  0.1671 -0.3277
  141MOL0     O18959  11.602   6.234   1.019  0.7128  0.7086 -0.2501
  141MOL0     C18960  11.649   6.250   1.153  0.3620 -0.1110  0.6159
  141MOL0     C18961  11.775   6.171   1.193 -0.5456 -0.7414 -0.3983
  141MOL0     C18962  11.752   6.030   1.246  0.2279  0.1229 -0.3380
  141MOL0     C18963  11.883   5.962   1.305  0.9165 -0.0226  0.2252
  141MOL0     C18964  11.978   5.922   1.198 -0.3963  0.4151  0.8948
  141MOL0     C18965  12.066   5.892   1.122  0.3286 -0.4965  0.1405
  141MOL0     C18966  11.395   6.111   1.016  0.0294 -0.4163  0.1029
  141MOL0     C18967  11.256   6.101   1.011  0.5986 -0.1406  0.2329
  141MOL0     H18968  10.839   5.970   1.152  1.5760 -0.1085 -1.4450
  141MOL0     H18969  10.588   5.951   1.166 -0.9644 -1.4904 -1.4289
  141MOL0     H18970  10.231   6.006   1.059  0.5629 -1.6456  1.0326
  141MOL0     H18971  10.372   5.922   1.117  3.1617 -0.1175 -1.8472
  141MOL0     H18972  10.426   6.076   1.270 -0.6252  0.2148  0.2262
  141MOL0     H18973  10.339   6.214   1.210 -1.5223  0.8950  1.9386
  141MOL0     H18974  10.215   5.954   1.322 -2.4194  0.0868 -0.2940
  141MOL0     H18975  10.222   6.108   1.404 -2.1974 -1.7875  1.2373
  141MOL0     H18976  10.075   6.204   1.232  1.9353  0.0708 -1.1984
  141MOL0     H18977  10.029   6.038   1.180 -1.8592  1.8621 -0.2759
  141MOL0     H18978  10.002   5.971   1.416 -0.7460  0.2126 -0.5027
  141MOL0     H18979   9.997   6.148   1.455  0.0196 -0.6170  1.0833
  141MOL0     H18980   9.806   6.165   1.284 -0.6661  0.1244  1.0582
  141MOL0     H18981   9.777   5.994   1.294  1.6746  0.1444 -0.6484
  141MOL0     H18982   9.746   5.985   1.530  0.3370  0.6623  2.0765
  141MOL0     H18983   9.797   6.142   1.551  0.3280 -1.1976  1.8968
  141MOL0     H18984   9.577   6.204   1.386 -0.3786 -0.2319  0.2530
  141MOL0     H18985   9.564   6.184   1.563 -0.5280 -0.2854  0.1211
  141MOL0     H18986   9.475   5.966   1.678 -0.5611  3.2255 -0.2851
  141MOL0     H18987   9.334   5.667   1.612  0.0767  0.2969 -1.2081
  141MOL0     H18988   9.299   5.798   1.713  1.7775  0.6996 -0.9132
  141MOL0     H18989   9.104   5.658   1.603 -0.5381 -0.1308  0.4156
  141MOL0     H18990   9.149   5.735   1.450 -0.8564  1.3296  0.0206
  141MOL0     H18991   9.109   5.961   1.568 -1.6493  0.0911 -0.9854
  141MOL0     H18992   9.041   5.883   1.700  1.3121  1.1431  0.4652
  141MOL0     H18993   8.939   5.850   1.403 -1.3778 -2.7366 -0.8545
  141MOL0     H18994   8.873   5.952   1.532  0.9534  1.2571 -1.2321
  141MOL0     H18995   8.723   5.656   1.744 -1.4921  1.2057  0.7849
  141MOL0     H18996   8.414   5.475   1.734 -1.3338  1.8977 -0.3142
  141MOL0     H18997   8.527   5.540   1.852 -1.3217 -1.7470  0.3211
  141MOL0     H18998   8.377   5.616   1.841 -1.9778 -1.1970  0.9585
  141MOL0     H18999   8.047   5.696   1.406  1.6128 -1.2116 -1.9421
  141MOL0     H19000   7.824   5.595   1.354 -0.4196  1.0152  0.6271
  141MOL0     H19001   7.657   5.214   1.538  1.9720  0.6296 -0.1183
  141MOL0     H19002   7.677   5.316   1.677 -1.5269  1.2012  0.9561
  141MOL0     H19003   7.478   5.453   1.576 -0.1092 -0.1598 -0.5748
  141MOL0     H19004   7.451   5.318   1.474  1.0467  1.3281 -1.0738
  141MOL0     H19005   7.451   5.321   1.783  0.7710  0.6949 -1.9562
  141MOL0     H19006   7.424   5.177   1.684  1.8463 -0.0048 -2.2902
  141MOL0     H19007   7.275   5.432   1.664  0.0496 -0.5143  0.0261
  141MOL0     H19008   7.209   5.269   1.620 -2.0672 -2.4124  2.9614
  141MOL0     H19009   7.249   5.318   1.910 -0.0112 -2.2097  0.2358
  141MOL0     H19010   7.174   5.180   1.825 -0.7389 -0.2855  3.6226
  141MOL0     H19011   6.998   5.324   1.728  1.8769 -2.0227 -0.8602
  141MOL0     H19012   6.998   5.319   1.904 -0.5461 -1.2950 -0.2952
  141MOL0     H19013   7.126   5.551   1.740 -0.0322  0.6466  0.7596
  141MOL0     H19014   7.117   5.553   1.911  2.5335  3.3648 -1.9019
  141MOL0     H19015   6.895   5.598   1.910  0.2717  1.9529 -0.5176
  141MOL0     H19016   6.861   5.524   1.743  3.1004 -2.9243  0.9838
  141MOL0     H19017   7.888   5.303   1.667  0.1111  0.7056  0.7224
  141MOL0     H19018   8.126   5.380   1.686  0.3281  1.0072  0.2103
  141MOL0     H19019   8.430   5.814   1.377  0.1531 -1.6044 -0.3237
  141MOL0     H19020   8.679   5.846   1.372  3.2903  0.2961  2.0867
  141MOL0     H19021  10.559   6.228   0.831  0.7286  0.3358  0.5607
  141MOL0     H19022  10.806   6.208   0.818  0.3586 -1.2939 -1.4242
  141MOL0     H19023  11.220   6.439   0.982  3.0625  1.2214  1.9342
  141MOL0     H19024  11.452   6.434   0.990  1.6045 -1.1019  0.6527
  141MOL0     H19025  11.670   6.354   1.178 -2.2584  0.0014  2.7518
  141MOL0     H19026  11.566   6.225   1.220 -2.2822  0.0675 -2.3583
  141MOL0     H19027  11.835   6.216   1.273 -1.7717  2.1665 -1.0006
  141MOL0     H19028  11.845   6.166   1.109  0.3594 -1.8025  0.3738
  141MOL0     H19029  11.706   5.968   1.169  2.6664 -0.9326 -1.0631
  141MOL0     H19030  11.684   6.027   1.332  1.3394 -1.6580  0.5418
  141MOL0     H19031  11.850   5.876   1.362 -1.3228  0.4797 -0.2387
  141MOL0     H19032  11.947   6.032   1.360 -0.0737  2.3398 -1.4562
  141MOL0     H19033  12.149   5.863   1.060  0.1556 -1.4212  0.3168
  141MOL0     H19034  11.452   6.021   1.038  2.6402  1.2450  0.5428
  141MOL0     H19035  11.195   6.011   1.017  1.0738 -0.5866 -1.1377
  142MOL0     O19036   0.118   4.231   1.435 -0.1909  0.2931 -0.3243
  142MOL0     C19037   0.080   4.340   1.401  0.2425  0.2686 -0.1052
  142MOL0     O19038   0.131   4.466   1.433  0.6336  0.5012 -0.3948
  142MOL0     C19039   0.246   4.476   1.513  0.2045  0.4658  0.0572
  142MOL0     C19040   0.367   4.408   1.487  0.4977 -0.5317  0.3619
  142MOL0     C19041   0.476   4.428   1.565  0.4359  1.0980  0.2060
  142MOL0     C19042   0.479   4.523   1.663 -0.1591 -0.1070 -0.8084
  142MOL0     O19043   0.591   4.539   1.733 -0.2393  0.5373 -0.2900
  142MOL0     C19044   0.599   4.620   1.848  0.4550  0.0058 -0.7909
  142MOL0     C19045   0.730   4.620   1.917  0.5310  0.1575  0.2424
  142MOL0     C19046   0.744   4.520   2.034  0.5764  0.0057  0.7948
  142MOL0     C19047   0.891   4.510   2.075 -0.1489  0.4845 -0.0752
  142MOL0     C19048   0.896   4.450   2.225  1.0899 -0.2736  0.1551
  142MOL0     C19049   1.035   4.457   2.292  0.1734 -0.2300  0.0142
  142MOL0     C19050   1.134   4.350   2.241 -0.4175  0.6831 -1.1006
  142MOL0     C19051   1.277   4.387   2.302  0.8750 -0.2141 -0.7681
  142MOL0     N19052   1.374   4.276   2.261 -0.0979 -0.0133 -0.7430
  142MOL0     C19053   1.346   4.133   2.267  0.0930 -0.2312  0.2111
  142MOL0     C19054   1.448   4.079   2.201 -0.3599 -0.6352 -1.0766
  142MOL0     C19055   1.469   3.935   2.178 -0.3941  0.2684 -0.9024
  142MOL0     C19056   1.377   3.879   2.067  0.5196 -0.9313 -0.7308
  142MOL0     C19057   1.427   3.749   2.018 -0.4673  0.8672  0.4050
  142MOL0     C19058   1.343   3.697   1.897  0.2732 -0.4480 -0.1912
  142MOL0     O19059   1.202   3.714   1.923 -0.8618 -0.0815  0.1295
  142MOL0     C19060   1.109   3.648   1.849 -0.0426 -0.2942 -0.9499
  142MOL0     C19061   1.137   3.580   1.733 -0.3589  0.5419  0.8552
  142MOL0     C19062   1.029   3.520   1.665  0.0652  0.4986  0.3980
  142MOL0     C19063   1.068   3.444   1.541 -0.0200  0.3055 -0.3546
  142MOL0     C19064   0.892   3.527   1.711 -0.9024 -0.0267  0.9860
  142MOL0     C19065   0.773   3.468   1.640  0.1072  0.1084  0.0538
  142MOL0     O19066   0.660   3.479   1.715  0.8228 -0.6083  0.4315
  142MOL0     C19067   0.538   3.440   1.661  0.5875  0.2017  0.0049
  142MOL0     C19068   0.437   3.538   1.669 -0.6463  0.2123 -0.4773
  142MOL0     C19069   0.307   3.503   1.614 -0.4855 -0.3019 -0.3156
  142MOL0     C19070   0.283   3.378   1.565 -0.0251  0.3960  0.5910
  142MOL0     O19071   0.156   3.355   1.515 -0.4716  0.1518 -0.3383
  142MOL0     C19072   0.136   3.245   1.418  0.6740 -0.1939 -0.5713
  142MOL0     C19073  -0.004   3.251   1.379 -0.3281  0.2077  0.3925
  142MOL0     C19074  -0.038   3.379   1.302 -0.3046  0.3503 -0.1836
  142MOL0     C19075  -0.188   3.388   1.261  0.5485  0.2642  0.3970
  142MOL0     C19076  -0.227   3.525   1.185 -0.0777  0.2351  0.2225
  142MOL0     C19077  -0.325   3.607   1.270 -0.4161  0.9588  0.1415
  142MOL0     C19078  -0.349   3.747   1.215  0.0723 -0.8194 -0.9401
  142MOL0     C19079  -0.471   3.799   1.283  0.0012 -0.7399  0.0230
  142MOL0    Cl19080  -0.442   3.805   1.455  0.2103 -0.0717 -0.2265
  142MOL0     C19081   0.392   3.285   1.561 -0.3088 -0.2794  1.1929
  142MOL0     C19082   0.510   3.317   1.612 -0.4074  0.0316  0.2936
  142MOL0     O19083   0.783   3.415   1.530 -0.6421 -0.2557 -0.0039
  142MOL0     C19084   0.871   3.590   1.831  0.1476  0.0097  0.0000
  142MOL0     C19085   0.972   3.648   1.896 -0.4187 -0.0564 -1.5382
  142MOL0     N19086   1.532   4.183   2.159 -0.0057  0.7471  0.8304
  142MOL0     N19087   1.495   4.298   2.205  0.1435 -0.3811 -0.2645
  142MOL0     C19088   0.361   4.583   1.698  0.7826 -1.5518 -0.0896
  142MOL0     C19089   0.245   4.569   1.617  0.1710  0.7273 -0.2775
  142MOL0     C19090  -0.025   4.342   1.302 -0.1750 -0.2042 -0.3572
  142MOL0     C19091  -0.096   4.230   1.267 -0.5639 -0.2931  0.6895
  142MOL0     C19092  -0.202   4.233   1.175  0.5866  0.3733  0.1421
  142MOL0     C19093  -0.266   4.347   1.138 -0.8579  0.1490  0.2337
  142MOL0     O19094  -0.388   4.332   1.066  0.2554 -0.1071  0.0960
  142MOL0     C19095  -0.458   4.452   1.027 -0.7994 -0.1121  0.7353
  142MOL0     C19096  -0.590   4.443   0.955  0.7048 -0.0908  0.0900
  142MOL0     C19097  -0.692   4.364   1.032  0.0001 -0.2889 -0.5473
  142MOL0     C19098  -0.834   4.406   0.995  0.6184  0.7762 -0.8455
  142MOL0     C19099  -0.873   4.349   0.870  0.2332 -0.2842 -1.8530
  142MOL0     C19100  -0.907   4.314   0.761  0.2041  0.1661 -0.3598
  142MOL0     C19101  -0.196   4.470   1.164  0.1176  0.8745  0.2124
  142MOL0     C19102  -0.078   4.467   1.244 -0.3832  0.4218  0.3181
  142MOL0     H19103   0.371   4.335   1.406 -0.9930 -2.5815  2.0153
  142MOL0     H19104   0.555   4.354   1.555 -1.5429 -1.0896 -0.1945
  142MOL0     H19105   0.571   4.724   1.827  1.1375  0.4720  0.4688
  142MOL0     H19106   0.522   4.595   1.921 -0.9718  2.7579 -1.2160
  142MOL0     H19107   0.813   4.601   1.849  1.2907  2.4360  0.4626
  142MOL0     H19108   0.745   4.716   1.969  0.1685 -0.7357  2.0980
  142MOL0     H19109   0.681   4.560   2.113 -3.5264 -2.3096 -1.0204
  142MOL0     H19110   0.699   4.427   1.999  1.5425 -1.0451  2.2066
  142MOL0     H19111   0.954   4.453   2.006  0.5282  1.6627 -0.4478
  142MOL0     H19112   0.932   4.610   2.063 -5.2525  2.6176 -2.6889
  142MOL0     H19113   0.831   4.504   2.296 -1.0045 -2.2891 -0.1050
  142MOL0     H19114   0.849   4.351   2.220 -0.6914  0.2372  3.7099
  142MOL0     H19115   1.063   4.558   2.261 -0.5186 -0.3023 -0.9004
  142MOL0     H19116   1.025   4.448   2.400  1.1376 -0.2921  0.1065
  142MOL0     H19117   1.097   4.255   2.281  1.3832  0.4717  0.2108
  142MOL0     H19118   1.137   4.337   2.132 -1.0481 -0.8767 -0.9656
  142MOL0     H19119   1.276   4.391   2.411  0.0358  0.2646 -0.7896
  142MOL0     H19120   1.306   4.486   2.266  0.4450  1.4308  2.9317
  142MOL0     H19121   1.263   4.072   2.301 -1.1612  1.8893  1.1802
  142MOL0     H19122   1.574   3.933   2.147  1.0271  0.9957  3.1814
  142MOL0     H19123   1.470   3.873   2.268  0.3755  2.3747  0.6310
  142MOL0     H19124   1.369   3.950   1.983  3.5319 -0.2840 -0.5901
  142MOL0     H19125   1.280   3.864   2.116  1.6777  0.9964  2.4866
  142MOL0     H19126   1.402   3.674   2.094 -2.4718  1.6959  0.6216
  142MOL0     H19127   1.535   3.753   2.000 -0.3826 -2.2338 -0.2364
  142MOL0     H19128   1.363   3.590   1.888  1.4699 -0.1116 -1.9886
  142MOL0     H19129   1.371   3.755   1.809  1.1367  0.6321  0.7585
  142MOL0     H19130   1.238   3.558   1.701 -0.2832 -0.4835  1.7023
  142MOL0     H19131   1.018   3.482   1.451 -2.0137  1.6226  1.2229
  142MOL0     H19132   1.176   3.440   1.528  0.4338 -0.2677  2.7941
  142MOL0     H19133   1.030   3.342   1.553 -2.1874  1.3671  3.8968
  142MOL0     H19134   0.466   3.634   1.709 -1.0771 -0.1189  0.6480
  142MOL0     H19135   0.228   3.577   1.608  2.1879  3.2525  3.2651
  142MOL0     H19136   0.189   3.260   1.323  1.2770 -3.5252 -0.8576
  142MOL0     H19137   0.153   3.151   1.470 -0.0611  0.5525  1.1084
  142MOL0     H19138  -0.022   3.165   1.315  2.7878  1.7656 -2.8965
  142MOL0     H19139  -0.056   3.236   1.474  2.2736 -3.8050  1.4345
  142MOL0     H19140   0.033   3.387   1.218  1.1101 -0.2896  0.9117
  142MOL0     H19141  -0.021   3.470   1.360  0.1895 -0.0678  0.3410
  142MOL0     H19142  -0.206   3.318   1.178  1.3087 -1.4762  1.6422
  142MOL0     H19143  -0.243   3.360   1.351 -0.8919  0.6854 -0.3290
  142MOL0     H19144  -0.282   3.501   1.093  0.7457 -2.1139  0.2533
  142MOL0     H19145  -0.142   3.589   1.158 -2.8758  3.5177 -1.4590
  142MOL0     H19146  -0.413   3.546   1.293  1.4617 -1.8762  0.2760
  142MOL0     H19147  -0.278   3.626   1.367  1.0258 -0.7569 -0.1691
  142MOL0     H19148  -0.384   3.742   1.111 -2.2359  2.4228 -0.4609
  142MOL0     H19149  -0.262   3.812   1.226 -1.6970  1.5363 -0.1734
  142MOL0     H19150  -0.548   3.724   1.264 -0.7391 -0.4742  1.7818
  142MOL0     H19151  -0.509   3.888   1.232  0.5843 -2.3181 -3.4539
  142MOL0     H19152   0.384   3.184   1.521  0.7060 -0.2529  0.8968
  142MOL0     H19153   0.582   3.237   1.600 -1.2503 -0.5135 -1.5249
  142MOL0     H19154   0.775   3.597   1.881  0.4235  0.2034  0.5077
  142MOL0     H19155   0.935   3.697   1.986  0.7991 -0.6971 -0.6624
  142MOL0     H19156   0.362   4.644   1.787  3.1885  0.5886 -1.4493
  142MOL0     H19157   0.154   4.623   1.642 -1.7797 -2.0881 -0.7975
  142MOL0     H19158  -0.071   4.128   1.296 -2.1723 -1.5903 -2.0670
  142MOL0     H19159  -0.266   4.151   1.144 -0.8259  1.3403  0.3918
  142MOL0     H19160  -0.478   4.509   1.118  0.5171 -1.4160  1.8874
  142MOL0     H19161  -0.400   4.507   0.952 -0.3811 -0.5339  0.7470
  142MOL0     H19162  -0.566   4.390   0.862  0.7288  0.8668 -0.4616
  142MOL0     H19163  -0.631   4.540   0.923  1.0486 -0.8239 -2.8435
  142MOL0     H19164  -0.691   4.384   1.139 -2.3306  0.8332 -0.6661
  142MOL0     H19165  -0.676   4.256   1.023 -0.5203 -0.5936  1.7682
  142MOL0     H19166  -0.859   4.512   1.006 -0.4500  0.5372 -0.8739
  142MOL0     H19167  -0.905   4.361   1.065 -0.4932  2.8579 -0.5564
  142MOL0     H19168  -0.936   4.275   0.666  1.5990  0.1720 -0.8089
  142MOL0     H19169  -0.238   4.562   1.125 -2.0156 -0.8588 -1.8258
  142MOL0     H19170  -0.021   4.559   1.246 -2.1670  1.6241 -0.9283
  143MOL0     O19171   1.369  10.197   0.272 -0.4032  0.3884  0.6736
  143MOL0     C19172   1.414  10.238   0.383  0.5336  0.4003 -0.2471
  143MOL0     O19173   1.412  10.368   0.428 -0.6684  0.3102 -0.3616
  143MOL0     C19174   1.318  10.455   0.380 -1.0385 -0.1377 -0.6645
  143MOL0     C19175   1.189  10.429   0.339 -0.2420 -0.6004  0.2830
  143MOL0     C19176   1.106  10.525   0.299  0.0013  0.6884  0.0924
  143MOL0     C19177   1.151  10.656   0.279  0.7440 -0.2154  0.8651
  143MOL0     O19178   1.070  10.759   0.240  0.7280 -0.0046  0.5043
  143MOL0     C19179   0.974  10.727   0.136 -0.6170 -0.0990  0.4640
  143MOL0     C19180   1.036  10.671   0.007  0.4815 -0.0985 -0.6487
  143MOL0     C19181   1.128  10.788  -0.041  0.3498  0.0133 -0.1090
  143MOL0     C19182   1.147  10.784  -0.191 -0.6219 -0.0858  0.6620
  143MOL0     C19183   1.240  10.899  -0.232  0.6242  0.2686  0.7376
  143MOL0     C19184   1.253  10.898  -0.389  0.5275  0.3291 -0.3406
  143MOL0     C19185   1.351  11.000  -0.440  1.0657 -0.2773  0.2452
  143MOL0     C19186   1.381  10.974  -0.592 -0.2636 -0.6145 -0.1643
  143MOL0     N19187   1.449  10.848  -0.625 -0.2133 -0.3404 -0.3236
  143MOL0     C19188   1.582  10.809  -0.609 -0.5014  0.2774  0.1523
  143MOL0     C19189   1.592  10.686  -0.657  0.0796  0.1799 -0.2548
  143MOL0     C19190   1.710  10.599  -0.671 -0.1487 -0.2597 -0.2106
  143MOL0     C19191   1.722  10.543  -0.816 -0.3934 -0.2371 -0.1686
  143MOL0     C19192   1.819  10.431  -0.811 -0.1105  0.2275 -0.4512
  143MOL0     C19193   1.772  10.301  -0.750  0.0551  0.8933 -0.3214
  143MOL0     O19194   1.693  10.239  -0.854 -0.1150  0.9851 -0.8404
  143MOL0     C19195   1.553  10.254  -0.854  0.7663  0.3641  0.1170
  143MOL0     C19196   1.466  10.317  -0.761 -0.5034  0.2764 -0.8584
  143MOL0     C19197   1.330  10.314  -0.773  0.4475  0.5022  0.0364
  143MOL0     C19198   1.252  10.384  -0.656  0.5435 -0.0279 -0.4507
  143MOL0     C19199   1.273  10.245  -0.887 -0.3056  0.5215 -0.3247
  143MOL0     C19200   1.126  10.220  -0.915 -1.1865 -0.4733 -0.0806
  143MOL0     O19201   1.036  10.296  -0.850  0.7326 -0.1429 -0.0339
  143MOL0     C19202   0.910  10.309  -0.901 -0.2495 -0.0166  0.5528
  143MOL0     C19203   0.815  10.344  -0.808  0.3884  0.0041 -0.7611
  143MOL0     C19204   0.687  10.377  -0.850  0.2545 -0.6529  0.2614
  143MOL0     C19205   0.651  10.353  -0.988  0.3512  0.3126  0.2825
  143MOL0     O19206   0.524  10.370  -1.046 -0.6111 -0.2839 -0.7307
  143MOL0     C19207   0.419  10.405  -0.955  0.3889  0.1039 -0.5710
  143MOL0     C19208   0.295  10.438  -1.028  0.5929  0.1532  0.2971
  143MOL0     C19209   0.197  10.502  -0.926  0.5228 -0.1267 -1.3747
  143MOL0     C19210   0.175  10.649  -0.952 -0.5901 -1.3270  0.3164
  143MOL0     C19211   0.045  10.697  -0.889 -0.9799 -0.4745  0.7033
  143MOL0     C19212  -0.079  10.629  -0.958  0.7027  0.0365 -0.1937
  143MOL0     C19213  -0.209  10.658  -0.873 -0.5679  0.4559  1.0325
  143MOL0     C19214  -0.328  10.594  -0.947 -0.4386  0.4214  0.2718
  143MOL0    Cl19215  -0.346  10.686  -1.097 -0.5377  0.7052 -0.0028
  143MOL0     C19216   0.748  10.314  -1.073  0.7986  0.0379  0.0575
  143MOL0     C19217   0.873  10.298  -1.030 -0.0961 -0.1910  0.5564
  143MOL0     O19218   1.098  10.125  -0.979 -0.7639 -0.0948  0.5324
  143MOL0     C19219   1.364  10.199  -0.989 -0.7809 -0.7185  0.0256
  143MOL0     C19220   1.502  10.206  -0.969  0.8253 -0.1735 -0.8555
  143MOL0     N19221   1.462  10.650  -0.699  0.5887  0.3458  0.6301
  143MOL0     N19222   1.378  10.744  -0.673 -0.6502  0.0676  0.8102
  143MOL0     C19223   1.288  10.679   0.307  0.2603  0.0961  0.3797
  143MOL0     C19224   1.367  10.584   0.369  0.1554 -0.5562  0.0185
  143MOL0     C19225   1.500  10.144   0.464  0.2891  0.3097  0.6319
  143MOL0     C19226   1.517  10.011   0.424 -0.1913  0.3126  0.3457
  143MOL0     C19227   1.615   9.929   0.492 -0.4230  0.1915  0.5574
  143MOL0     C19228   1.677   9.971   0.607  1.0257  0.3430  0.3062
  143MOL0     O19229   1.758   9.887   0.672 -0.2322  0.9263 -0.2892
  143MOL0     C19230   1.861   9.934   0.765  0.6880  0.0701 -0.2794
  143MOL0     C19231   1.969  10.011   0.693 -0.9509 -0.2798  0.3338
  143MOL0     C19232   2.077  10.049   0.795 -0.3236 -0.1988 -0.2533
  143MOL0     C19233   2.207  10.100   0.738 -0.7853 -0.1125  0.2080
  143MOL0     C19234   2.280  10.182   0.832 -0.7622 -0.0698 -0.5638
  143MOL0     C19235   2.326  10.251   0.927 -0.2113  0.6363  0.1913
  143MOL0     C19236   1.660  10.107   0.639 -0.3175 -0.3079  0.1819
  143MOL0     C19237   1.568  10.189   0.576  0.4871  0.1476 -0.1772
  143MOL0     H19238   1.139  10.333   0.348 -1.2080 -0.0250  1.2961
  143MOL0     H19239   1.002  10.496   0.281  0.0785 -0.4848  1.3827
  143MOL0     H19240   0.893  10.662   0.169  0.6377 -3.7451 -2.8509
  143MOL0     H19241   0.921  10.819   0.112 -2.3980 -1.6361 -1.9098
  143MOL0     H19242   1.094  10.581   0.027  0.4601  0.1673  0.7617
  143MOL0     H19243   0.962  10.642  -0.068  0.6044 -1.4173 -0.2800
  143MOL0     H19244   1.082  10.881  -0.010  0.0260 -0.6950  1.6217
  143MOL0     H19245   1.226  10.781   0.008  0.1458 -4.0837  0.1311
  143MOL0     H19246   1.190  10.693  -0.234  2.6949  1.3094  0.7431
  143MOL0     H19247   1.047  10.786  -0.236 -1.5414 -1.6036  2.4821
  143MOL0     H19248   1.207  10.998  -0.200 -4.2861 -0.5203 -1.1539
  143MOL0     H19249   1.337  10.876  -0.186  0.7419  2.2167  1.5575
  143MOL0     H19250   1.274  10.797  -0.424 -0.5164  0.6312 -1.9113
  143MOL0     H19251   1.158  10.925  -0.435 -1.0554 -3.8851  0.0241
  143MOL0     H19252   1.326  11.105  -0.423 -1.9640 -1.2847  3.0410
  143MOL0     H19253   1.441  10.986  -0.378  1.0056  1.0621  0.6790
  143MOL0     H19254   1.446  11.053  -0.630  0.0116  0.0616  1.6476
  143MOL0     H19255   1.287  10.973  -0.649 -0.5832 -2.8593  0.3022
  143MOL0     H19256   1.660  10.864  -0.557  0.3898  0.2538 -1.1034
  143MOL0     H19257   1.802  10.649  -0.637 -0.9981  1.0099  0.2899
  143MOL0     H19258   1.706  10.513  -0.604  1.8151 -1.2898 -1.3080
  143MOL0     H19259   1.776  10.624  -0.866 -0.7214  0.7042  0.9750
  143MOL0     H19260   1.635  10.513  -0.875 -0.6024  1.3723 -0.7047
  143MOL0     H19261   1.919  10.463  -0.780  0.3004  1.2627 -2.6002
  143MOL0     H19262   1.845  10.422  -0.917 -0.6649  0.2142 -0.5857
  143MOL0     H19263   1.711  10.312  -0.660  0.2628  0.4755 -0.1277
  143MOL0     H19264   1.860  10.242  -0.723 -0.2802 -0.2183 -1.5054
  143MOL0     H19265   1.503  10.351  -0.665 -2.2959 -2.1624  0.8077
  143MOL0     H19266   1.172  10.448  -0.693  0.9937 -0.1266 -1.6237
  143MOL0     H19267   1.209  10.316  -0.582 -0.1613 -2.3100 -2.8076
  143MOL0     H19268   1.316  10.446  -0.592  1.1334 -0.3132 -0.7563
  143MOL0     H19269   0.844  10.354  -0.703  0.5359  0.6572 -0.8557
  143MOL0     H19270   0.610  10.421  -0.787 -1.2116  0.3148 -2.0832
  143MOL0     H19271   0.404  10.313  -0.897  1.5478 -0.3574 -0.9685
  143MOL0     H19272   0.449  10.494  -0.898  1.8379  0.0023 -1.1372
  143MOL0     H19273   0.315  10.520  -1.098 -2.4968 -2.0155 -3.5892
  143MOL0     H19274   0.262  10.358  -1.095  2.5383  0.3401 -0.9455
  143MOL0     H19275   0.222  10.484  -0.821  0.3913  1.7228 -0.9960
  143MOL0     H19276   0.105  10.443  -0.934 -0.5107  1.3591 -0.8664
  143MOL0     H19277   0.252  10.709  -0.903 -3.4122  0.3956  3.0420
  143MOL0     H19278   0.182  10.679  -1.057  1.6894  1.4261  1.1313
  143MOL0     H19279   0.027  10.804  -0.898  0.2909 -0.3660 -1.1413
  143MOL0     H19280   0.045  10.676  -0.782 -1.9389  0.9638  1.0142
  143MOL0     H19281  -0.095  10.673  -1.057  0.7202  0.2756 -0.0904
  143MOL0     H19282  -0.077  10.520  -0.971  1.0192  0.3068 -3.1799
  143MOL0     H19283  -0.224  10.766  -0.860  1.7397  0.7446  1.7241
  143MOL0     H19284  -0.197  10.623  -0.770  2.1731  0.1393  0.6770
  143MOL0     H19285  -0.427  10.604  -0.902 -0.2151 -0.6345  1.0538
  143MOL0     H19286  -0.301  10.488  -0.956 -1.1009  0.2305  0.5074
  143MOL0     H19287   0.725  10.308  -1.179  0.3223  2.1931  0.0104
  143MOL0     H19288   0.951  10.297  -1.105 -1.0188 -0.5496 -0.4188
  143MOL0     H19289   1.319  10.169  -1.083 -0.4416 -1.0801 -0.0236
  143MOL0     H19290   1.562  10.166  -1.051  0.9811  0.8230 -1.2432
  143MOL0     H19291   1.330  10.774   0.275  0.5963 -0.9328 -2.5136
  143MOL0     H19292   1.467  10.613   0.399  0.0937 -0.2789 -0.0391
  143MOL0     H19293   1.463   9.956   0.347 -0.5731 -0.8536  1.4031
  143MOL0     H19294   1.622   9.824   0.466 -0.2600 -0.0765  1.6229
  143MOL0     H19295   1.825   9.995   0.849 -1.2714 -1.9153  0.4361
  143MOL0     H19296   1.909   9.845   0.806  0.7108  1.3760  2.8138
  143MOL0     H19297   1.932  10.107   0.655 -2.1545 -0.3164  1.3469
  143MOL0     H19298   2.011   9.957   0.608  2.1168  0.6985  1.0894
  143MOL0     H19299   2.094   9.956   0.850 -1.2550  0.7478  1.7618
  143MOL0     H19300   2.034  10.123   0.864  2.6455  2.9985 -1.5531
  143MOL0     H19301   2.188  10.166   0.652 -1.8227  0.1594  0.6352
  143MOL0     H19302   2.272  10.020   0.700  1.9490  0.9367  2.2812
  143MOL0     H19303   2.379  10.297   1.008  1.8931 -2.8267  1.0372
  143MOL0     H19304   1.712  10.155   0.722  0.1393  0.4481 -0.5217
  143MOL0     H19305   1.571  10.294   0.602  1.3775 -0.0447  0.5545
  144MOL0     O19306   9.492   6.853   9.919  0.5616  0.1938 -0.0845
  144MOL0     C19307   9.587   6.851   9.846  0.5686 -0.3282  0.2449
  144MOL0     O19308   9.602   6.939   9.739 -0.6948  0.3675  0.7877
  144MOL0     C19309   9.505   7.028   9.696 -0.2284 -1.1019 -0.3641
  144MOL0     C19310   9.547   7.151   9.660 -0.1477 -0.5560 -0.0662
  144MOL0     C19311   9.458   7.239   9.598  0.9607 -0.2016  0.5632
  144MOL0     C19312   9.326   7.197   9.549  0.1609 -0.3915 -0.3737
  144MOL0     O19313   9.244   7.272   9.461  0.1752 -0.2659  0.0235
  144MOL0     C19314   9.289   7.402   9.411  0.0033 -0.0519 -0.0987
  144MOL0     C19315   9.189   7.442   9.301 -0.1393  0.3924  0.2067
  144MOL0     C19316   9.045   7.437   9.341  0.1066  0.4108  0.6614
  144MOL0     C19317   8.945   7.505   9.242  0.5891 -0.1765  0.4318
  144MOL0     C19318   8.810   7.488   9.302  0.2032 -0.7841  0.6135
  144MOL0     C19319   8.704   7.568   9.225  0.1361  0.0830 -0.1212
  144MOL0     C19320   8.567   7.563   9.303  0.2041 -0.6987 -0.4801
  144MOL0     C19321   8.559   7.644   9.434 -0.0614  0.2105 -0.6980
  144MOL0     N19322   8.417   7.646   9.470 -0.7020  0.5391  0.0823
  144MOL0     C19323   8.336   7.544   9.509  0.8052 -0.3419 -0.5405
  144MOL0     C19324   8.210   7.598   9.525 -0.2399  0.4409 -1.7687
  144MOL0     C19325   8.079   7.520   9.535  0.1769 -0.2296 -0.2837
  144MOL0     C19326   8.034   7.473   9.675 -0.7078  0.1104  0.0099
  144MOL0     C19327   7.939   7.349   9.684  0.4207 -0.1479 -0.3249
  144MOL0     C19328   7.862   7.354   9.811  0.9544 -0.0423  0.1896
  144MOL0     O19329   7.932   7.402   9.923 -0.0089 -0.2729  0.1080
  144MOL0     C19330   8.026   7.325   9.986 -0.4510 -1.2663 -0.0243
  144MOL0     C19331   8.117   7.399  10.055  1.1516  0.0132 -0.5717
  144MOL0     C19332   8.231   7.343  10.118  0.8647 -0.5799  0.2116
  144MOL0     C19333   8.312   7.443  10.198 -0.5955  0.0313  0.8661
  144MOL0     C19334   8.256   7.208  10.098  0.1687 -0.1663 -0.2978
  144MOL0     C19335   8.380   7.141  10.149 -0.5345 -0.1029  0.1832
  144MOL0     O19336   8.451   7.061  10.058 -0.5693 -0.7813  0.2256
  144MOL0     C19337   8.575   7.020  10.092  0.1852  0.9770  0.6829
  144MOL0     C19338   8.588   6.898  10.168 -0.0387 -0.6987 -0.7342
  144MOL0     C19339   8.713   6.833  10.174 -0.1727  0.2248 -0.4720
  144MOL0     C19340   8.833   6.889  10.123 -0.5315  0.5419 -0.0168
  144MOL0     O19341   8.953   6.816  10.125 -0.5989 -0.5818  0.2038
  144MOL0     C19342   9.069   6.880  10.069  0.3212  0.3446 -0.1895
  144MOL0     C19343   9.091   6.853   9.926 -0.6662  0.9896 -0.1842
  144MOL0     C19344   9.049   6.708   9.868 -0.6157 -0.7528 -0.9077
  144MOL0     C19345   9.110   6.598   9.949 -0.2915  0.2852  0.3245
  144MOL0     C19346   9.246   6.545   9.898 -0.3342  0.3492 -0.2133
  144MOL0     C19347   9.249   6.491   9.757 -0.1395  0.1504 -0.2929
  144MOL0     C19348   9.142   6.386   9.739 -0.5295 -0.5139  0.4528
  144MOL0     C19349   9.034   6.425   9.640 -0.7540 -0.1468  0.6282
  144MOL0    Cl19350   9.112   6.459   9.478 -0.3160  0.7481  0.1220
  144MOL0     C19351   8.815   7.011  10.054  0.3219  0.1118 -0.4159
  144MOL0     C19352   8.693   7.068  10.039 -0.3716  0.1438  0.3018
  144MOL0     O19353   8.419   7.162  10.267  0.5831  0.0466  0.5618
  144MOL0     C19354   8.162   7.134  10.029  0.2234  0.0034  0.2034
  144MOL0     C19355   8.053   7.191   9.965 -0.3848 -0.2215 -0.0388
  144MOL0     N19356   8.217   7.734   9.506 -0.6328  0.4757  0.2069
  144MOL0     N19357   8.337   7.763   9.467 -0.0591 -0.4912  0.2577
  144MOL0     C19358   9.290   7.071   9.599  0.3175 -0.0515  0.5579
  144MOL0     C19359   9.374   6.989   9.674 -0.0883  0.4478  1.2552
  144MOL0     C19360   9.699   6.757   9.887 -0.1176  0.5474  0.1127
  144MOL0     C19361   9.670   6.651   9.981  0.2536  0.3008 -0.3987
  144MOL0     C19362   9.772   6.565  10.015  0.2654  0.2302  1.3300
  144MOL0     C19363   9.898   6.565   9.956  0.4842 -0.6849  0.0589
  144MOL0     O19364   9.989   6.468   9.987  0.0648 -0.5743  0.0583
  144MOL0     C19365  10.054   6.400   9.885 -0.6897 -0.3457  0.9486
  144MOL0     C19366  10.178   6.323   9.934  0.2167  0.9171  0.1258
  144MOL0     C19367  10.266   6.280   9.814  0.3768 -0.5906 -0.0358
  144MOL0     C19368  10.383   6.192   9.857 -0.2074 -0.3889 -0.1241
  144MOL0     C19369  10.352   6.083   9.953 -1.0070  1.0781 -0.4583
  144MOL0     C19370  10.325   6.002  10.039 -0.5608  0.6584 -0.0901
  144MOL0     C19371   9.928   6.679   9.882  0.0586  0.3140 -0.6608
  144MOL0     C19372   9.835   6.780   9.848  0.3712  0.0538 -0.3072
  144MOL0     H19373   9.643   7.175   9.704  0.6514 -2.0550 -0.9064
  144MOL0     H19374   9.492   7.341   9.585  1.7257 -0.6994 -1.9433
  144MOL0     H19375   9.277   7.477   9.490 -3.2554 -1.7860  1.2577
  144MOL0     H19376   9.392   7.412   9.376  0.3797  3.3654  1.5607
  144MOL0     H19377   9.206   7.543   9.265 -0.6751  0.7834  1.0178
  144MOL0     H19378   9.201   7.375   9.216 -0.4829  0.6217 -0.0228
  144MOL0     H19379   9.022   7.333   9.364 -0.2324  0.8362  2.3647
  144MOL0     H19380   9.037   7.480   9.441 -0.5133  1.9928 -0.0223
  144MOL0     H19381   8.972   7.610   9.228 -1.7755  0.0973 -3.8203
  144MOL0     H19382   8.958   7.464   9.142 -0.8935 -0.3534  0.2808
  144MOL0     H19383   8.776   7.385   9.309 -0.0778 -0.6218  1.9996
  144MOL0     H19384   8.811   7.528   9.404  3.1065  1.3651 -0.1119
  144MOL0     H19385   8.741   7.670   9.213  1.2094 -0.5956 -3.8263
  144MOL0     H19386   8.697   7.530   9.122 -0.1875 -1.8742  0.5742
  144MOL0     H19387   8.490   7.605   9.237 -0.3658 -1.7227 -0.4863
  144MOL0     H19388   8.535   7.459   9.315 -2.4386  0.1521  0.6089
  144MOL0     H19389   8.601   7.743   9.412  0.7543 -0.0330 -0.2772
  144MOL0     H19390   8.619   7.605   9.516  1.3525  0.9061 -1.3657
  144MOL0     H19391   8.366   7.440   9.514 -0.9514 -0.8231  2.6502
  144MOL0     H19392   8.004   7.595   9.507  1.2091  0.8239 -0.3119
  144MOL0     H19393   8.075   7.441   9.459 -0.6538 -0.1974 -0.2815
  144MOL0     H19394   7.972   7.546   9.729 -0.6899 -1.9559  3.0505
  144MOL0     H19395   8.128   7.458   9.730  0.4698  2.0578 -1.3425
  144MOL0     H19396   8.004   7.264   9.661 -0.2274 -1.1575  1.3385
  144MOL0     H19397   7.871   7.354   9.598  0.0071  2.4356  0.0834
  144MOL0     H19398   7.819   7.255   9.828  0.5169 -0.3268 -2.2443
  144MOL0     H19399   7.783   7.430   9.802 -0.1801 -1.1755  0.2961
  144MOL0     H19400   8.102   7.506  10.067  1.3037 -0.2388  2.9604
  144MOL0     H19401   8.396   7.479  10.137  0.4969 -3.9417 -0.2649
  144MOL0     H19402   8.249   7.522  10.239 -1.4624 -0.9182  1.3998
  144MOL0     H19403   8.349   7.395  10.289 -0.1387  0.8851  1.1395
  144MOL0     H19404   8.494   6.857  10.204  0.6046  0.0552  2.0703
  144MOL0     H19405   8.724   6.739  10.227 -0.4810  0.7661  0.5734
  144MOL0     H19406   9.066   6.987  10.089 -3.3966  0.2119  0.8308
  144MOL0     H19407   9.152   6.845  10.132 -0.8211 -3.0641 -0.3207
  144MOL0     H19408   9.042   6.934   9.872 -1.4880  1.3510  1.0591
  144MOL0     H19409   9.199   6.864   9.911 -0.4673  1.5532  1.4991
  144MOL0     H19410   9.085   6.710   9.765 -0.1581 -2.7283 -0.8158
  144MOL0     H19411   8.939   6.703   9.866 -0.5894 -1.1821 -1.7194
  144MOL0     H19412   9.127   6.630  10.052  2.2394  0.9133 -0.2077
  144MOL0     H19413   9.038   6.516   9.943 -0.9572  0.7978  1.2352
  144MOL0     H19414   9.295   6.475   9.967 -0.7362  0.3469  0.0771
  144MOL0     H19415   9.314   6.630   9.894  1.3046 -0.6484  2.9591
  144MOL0     H19416   9.229   6.575   9.689 -2.1613 -0.3634 -0.3945
  144MOL0     H19417   9.349   6.449   9.739 -0.9537 -1.3894 -1.3888
  144MOL0     H19418   9.102   6.351   9.835 -0.0827 -1.1099  0.4307
  144MOL0     H19419   9.188   6.297   9.695 -3.1323 -2.0246  0.5924
  144MOL0     H19420   8.976   6.514   9.664 -1.4813 -0.8646  1.5821
  144MOL0     H19421   8.970   6.336   9.641  1.0772 -1.5515 -0.7685
  144MOL0     H19422   8.898   7.057  10.001 -0.0062  1.3359  0.1019
  144MOL0     H19423   8.678   7.159   9.982 -0.2060  1.2519  1.9638
  144MOL0     H19424   8.172   7.026  10.022  3.1774  0.1997  0.2620
  144MOL0     H19425   7.999   7.128   9.896  3.5443 -2.7528 -1.1497
  144MOL0     H19426   9.196   7.033   9.559  0.1227  1.6022 -0.6601
  144MOL0     H19427   9.343   6.888   9.697  0.9573  0.1705  1.4637
  144MOL0     H19428   9.569   6.636  10.016  0.6649  0.6474  0.9859
  144MOL0     H19429   9.753   6.472  10.066 -0.9904  0.2257  0.8906
  144MOL0     H19430   9.982   6.324   9.854  1.5573 -3.3835  2.7231
  144MOL0     H19431  10.079   6.473   9.807  1.2858  1.9820  3.5261
  144MOL0     H19432  10.148   6.234   9.989 -1.4497  0.2336 -1.7669
  144MOL0     H19433  10.232   6.386  10.006  1.8519 -0.0096 -0.2411
  144MOL0     H19434  10.308   6.367   9.763 -0.0879 -0.0121  0.5476
  144MOL0     H19435  10.202   6.222   9.747  1.4726 -1.8077 -0.0608
  144MOL0     H19436  10.462   6.248   9.907 -2.5140  3.3085 -0.2415
  144MOL0     H19437  10.427   6.139   9.773  1.7154 -1.5582  1.5248
  144MOL0     H19438  10.292   5.934  10.115  1.1744  1.8784  1.8743
  144MOL0     H19439  10.029   6.700   9.848  0.6404  0.3281  0.9817
  144MOL0     H19440   9.860   6.862   9.780 -1.1703  0.5949 -0.2480
  145MOL0     O19441   6.456   7.637   1.985 -0.2997  0.9136 -0.5276
  145MOL0     C19442   6.459   7.751   1.948 -0.2913  0.3735  1.2546
  145MOL0     O19443   6.363   7.811   1.872  0.0522  0.1178 -0.2913
  145MOL0     C19444   6.250   7.735   1.850 -0.7662  0.3180 -0.4570
  145MOL0     C19445   6.132   7.791   1.895  0.0273  0.1391 -0.2177
  145MOL0     C19446   6.014   7.727   1.871  0.6816  0.9360 -0.2327
  145MOL0     C19447   6.007   7.597   1.797 -0.5636 -0.4436 -0.1948
  145MOL0     O19448   5.885   7.535   1.786  0.4269  0.1030  0.1981
  145MOL0     C19449   5.863   7.475   1.654 -0.4816  0.1132 -0.1883
  145MOL0     C19450   5.710   7.509   1.638  0.1741  0.0004 -0.4242
  145MOL0     C19451   5.611   7.406   1.694  0.0077 -0.6913 -0.1006
  145MOL0     C19452   5.585   7.284   1.613  0.3560 -0.0790 -0.5088
  145MOL0     C19453   5.451   7.218   1.660  0.4156 -0.0185  0.4599
  145MOL0     C19454   5.418   7.107   1.563  1.0224  1.4752 -1.1329
  145MOL0     C19455   5.270   7.058   1.611 -0.8921 -0.2470 -0.2199
  145MOL0     C19456   5.217   6.920   1.553 -0.0642 -0.5208  0.0885
  145MOL0     N19457   5.205   6.911   1.404  0.1507  0.0621  0.0085
  145MOL0     C19458   5.174   7.007   1.311 -0.7152  0.1249  0.2938
  145MOL0     C19459   5.147   6.940   1.198 -0.1197  0.0865 -0.4723
  145MOL0     C19460   5.120   6.991   1.066 -0.8039  0.2479  0.1219
  145MOL0     C19461   4.978   6.959   1.020  0.8461 -0.3038 -0.4172
  145MOL0     C19462   4.874   7.041   1.098  0.6208  0.5133  0.0623
  145MOL0     C19463   4.730   7.017   1.050 -0.0208  0.2624 -0.7090
  145MOL0     O19464   4.702   6.880   1.068  0.5405  0.5204  0.0080
  145MOL0     C19465   4.571   6.839   1.076  0.2679 -0.5743  0.3594
  145MOL0     C19466   4.462   6.899   1.006  0.2266 -0.4383 -0.4000
  145MOL0     C19467   4.333   6.852   1.011  0.8037  0.4315  1.2055
  145MOL0     C19468   4.235   6.908   0.907  0.1617  0.2073  0.1394
  145MOL0     C19469   4.303   6.763   1.116  1.4922 -0.0023  0.3362
  145MOL0     C19470   4.159   6.722   1.135 -0.4705 -0.2435 -0.2958
  145MOL0     O19471   4.064   6.795   1.079  0.3742 -0.2268 -0.1716
  145MOL0     C19472   3.934   6.795   1.121  0.5251  0.4373  1.6111
  145MOL0     C19473   3.862   6.678   1.160  0.0706  0.2666 -0.6542
  145MOL0     C19474   3.726   6.679   1.200 -0.1704 -0.5014 -0.4759
  145MOL0     C19475   3.651   6.798   1.200  0.3884 -0.2543 -0.0408
  145MOL0     O19476   3.523   6.783   1.242 -0.3738 -0.1466  0.1583
  145MOL0     C19477   3.436   6.895   1.233  0.1181  0.3880 -0.2789
  145MOL0     C19478   3.285   6.843   1.250  0.5365 -0.2074 -0.9486
  145MOL0     C19479   3.190   6.955   1.222 -0.1683 -0.7245  1.4019
  145MOL0     C19480   3.056   6.921   1.278 -0.0879 -0.7219  1.0556
  145MOL0     C19481   2.944   7.011   1.230  0.1921 -0.5812 -0.1915
  145MOL0     C19482   2.811   6.984   1.302 -0.8826 -0.2049  0.2624
  145MOL0     C19483   2.690   7.067   1.237  1.0916 -0.2740  0.1301
  145MOL0     C19484   2.553   7.057   1.309 -0.2163  0.2738 -0.5322
  145MOL0    Cl19485   2.474   6.898   1.259  0.0850 -0.8151 -0.0044
  145MOL0     C19486   3.719   6.912   1.153  0.1867 -0.0429 -0.4792
  145MOL0     C19487   3.855   6.914   1.112 -0.1659  0.1571 -0.0693
  145MOL0     O19488   4.145   6.631   1.218 -0.5029 -0.3905  0.1153
  145MOL0     C19489   4.406   6.702   1.190 -0.1232 -0.5583 -0.1993
  145MOL0     C19490   4.536   6.734   1.165 -0.6531  0.3636  0.3611
  145MOL0     N19491   5.164   6.812   1.220 -0.3804 -0.2138 -0.3058
  145MOL0     N19492   5.196   6.791   1.341 -0.5406  1.1017 -0.2066
  145MOL0     C19493   6.131   7.548   1.747  0.5851 -0.0879  0.4827
  145MOL0     C19494   6.247   7.618   1.768  0.1842  0.0830 -0.1191
  145MOL0     C19495   6.581   7.826   1.972  0.1771 -0.5522 -0.3654
  145MOL0     C19496   6.696   7.762   2.046  0.1760  0.4557  0.5750
  145MOL0     C19497   6.815   7.829   2.060 -0.7194  0.2424 -0.0721
  145MOL0     C19498   6.836   7.957   2.007  0.0398 -0.2607  0.7159
  145MOL0     O19499   6.955   8.033   2.007 -0.0066 -0.2569 -0.4054
  145MOL0     C19500   7.063   8.002   2.096 -0.0823  0.6800 -0.7795
  145MOL0     C19501   7.175   8.100   2.061  0.3058 -0.4782  0.5293
  145MOL0     C19502   7.148   8.253   2.095  1.0763 -0.2590  0.8258
  145MOL0     C19503   7.241   8.357   2.030  0.1059 -0.2645  0.4287
  145MOL0     C19504   7.178   8.493   2.006  0.2594  0.0217 -0.2606
  145MOL0     C19505   7.124   8.601   1.973 -0.3044 -0.5413 -1.0291
  145MOL0     C19506   6.730   8.020   1.947  0.0505 -0.1018  0.2314
  145MOL0     C19507   6.596   7.961   1.927 -0.4525 -0.3114 -0.6053
  145MOL0     H19508   6.141   7.886   1.946  1.0307 -0.4097  0.6726
  145MOL0     H19509   5.918   7.770   1.898 -0.4120 -1.9261  0.7244
  145MOL0     H19510   5.929   7.516   1.577  1.4241 -1.7189  0.3616
  145MOL0     H19511   5.852   7.366   1.655 -1.4060  0.1545 -1.9308
  145MOL0     H19512   5.683   7.601   1.691  2.3507 -0.0589  0.9194
  145MOL0     H19513   5.682   7.527   1.534  1.1152 -1.5542 -0.9736
  145MOL0     H19514   5.635   7.365   1.793 -3.9759  0.6426  1.6018
  145MOL0     H19515   5.513   7.454   1.700  0.0982 -0.3185 -1.4078
  145MOL0     H19516   5.571   7.315   1.509 -0.8896  0.1906 -0.2793
  145MOL0     H19517   5.665   7.210   1.623  1.7553  1.6114  1.9225
  145MOL0     H19518   5.468   7.180   1.761  4.2417  2.4528  0.9290
  145MOL0     H19519   5.372   7.295   1.665 -0.5510 -1.0359  1.5408
  145MOL0     H19520   5.412   7.145   1.460  0.0990 -0.9523 -2.0558
  145MOL0     H19521   5.493   7.027   1.565 -0.1100  0.3828 -1.1703
  145MOL0     H19522   5.267   7.044   1.719  1.7260  1.0874  0.0887
  145MOL0     H19523   5.206   7.140   1.577  0.6341  1.8491  1.6691
  145MOL0     H19524   5.114   6.910   1.588 -2.0998  0.4115 -4.7959
  145MOL0     H19525   5.292   6.846   1.581  1.8941  0.3952 -2.4210
  145MOL0     H19526   5.166   7.115   1.325  1.0229  0.1096  1.9692
  145MOL0     H19527   5.143   7.098   1.059  3.1263 -0.5129 -1.6764
  145MOL0     H19528   5.177   6.952   0.982 -0.7451  0.1983  0.1837
  145MOL0     H19529   4.972   6.851   1.035  3.0698 -0.6518 -1.5866
  145MOL0     H19530   4.958   6.978   0.914 -0.4380 -0.8690 -0.2948
  145MOL0     H19531   4.888   7.148   1.083 -1.0084  0.7158 -0.1703
  145MOL0     H19532   4.877   7.000   1.200 -1.0799 -3.4896 -1.2792
  145MOL0     H19533   4.726   7.049   0.945 -2.4184  0.7600 -0.5110
  145MOL0     H19534   4.658   7.084   1.097 -1.3406 -0.3372 -1.8130
  145MOL0     H19535   4.483   6.981   0.938  3.0850  0.0920  0.9859
  145MOL0     H19536   4.166   6.832   0.870 -0.4931  1.7036 -1.8830
  145MOL0     H19537   4.169   6.988   0.941 -0.4392 -1.0151  1.9925
  145MOL0     H19538   4.279   6.937   0.811  1.2137  0.0868  0.5725
  145MOL0     H19539   3.917   6.585   1.158  1.5108  0.9961  1.0689
  145MOL0     H19540   3.673   6.588   1.222 -0.2489 -0.7017 -1.4727
  145MOL0     H19541   3.453   6.970   1.310  3.1319  0.2557 -0.6888
  145MOL0     H19542   3.441   6.950   1.139  0.6773  2.2251  0.7728
  145MOL0     H19543   3.264   6.756   1.188  1.7392  0.8595 -2.9891
  145MOL0     H19544   3.263   6.822   1.355 -0.8250  2.9615 -0.4687
  145MOL0     H19545   3.173   6.972   1.115 -6.8902  0.3883  2.1978
  145MOL0     H19546   3.224   7.044   1.275 -1.3780  0.4469  0.2878
  145MOL0     H19547   3.026   6.818   1.256 -2.1057 -0.4774  2.3425
  145MOL0     H19548   3.055   6.934   1.387 -0.7013 -0.5472  1.0338
  145MOL0     H19549   2.928   6.979   1.127  2.1958 -0.1457 -0.6736
  145MOL0     H19550   2.978   7.114   1.245  1.2374 -1.1273  1.4597
  145MOL0     H19551   2.777   6.881   1.289 -0.3055 -0.6142  1.7051
  145MOL0     H19552   2.831   7.003   1.408  0.7435 -1.0889  0.1411
  145MOL0     H19553   2.674   7.016   1.141 -1.0122  3.1630 -1.5182
  145MOL0     H19554   2.722   7.171   1.224 -1.3275  0.5262  0.1425
  145MOL0     H19555   2.494   7.143   1.274  0.2881  0.3219 -1.2879
  145MOL0     H19556   2.577   7.068   1.415 -0.8751 -3.4468  0.1148
  145MOL0     H19557   3.666   7.006   1.138  1.2201  0.2981 -2.3878
  145MOL0     H19558   3.901   7.010   1.089 -2.5114  0.9567 -1.8728
  145MOL0     H19559   4.374   6.644   1.276  1.6323  0.4615  1.2050
  145MOL0     H19560   4.610   6.701   1.238 -0.8650  0.0554  0.4356
  145MOL0     H19561   6.140   7.451   1.700 -0.1331  0.1645 -0.1822
  145MOL0     H19562   6.339   7.577   1.729  0.5861  0.5326  0.3422
  145MOL0     H19563   6.686   7.662   2.087 -1.7185  1.2433  2.1889
  145MOL0     H19564   6.891   7.773   2.112  0.0645  1.5971  0.3093
  145MOL0     H19565   7.031   8.001   2.200  2.6871 -0.7831  0.1677
  145MOL0     H19566   7.089   7.898   2.073  0.0451  0.6360 -0.4426
  145MOL0     H19567   7.196   8.088   1.955 -2.0204  0.0031 -0.0395
  145MOL0     H19568   7.270   8.073   2.108  1.6220  0.9205 -1.1795
  145MOL0     H19569   7.149   8.261   2.204 -1.1824  2.6427  0.7769
  145MOL0     H19570   7.047   8.275   2.060  0.9007  0.0657  1.5250
  145MOL0     H19571   7.288   8.324   1.936  1.4450  1.8997  0.2717
  145MOL0     H19572   7.325   8.377   2.097 -0.0849  0.3791  0.4761
  145MOL0     H19573   7.084   8.697   1.948 -1.0677 -0.3420  0.8090
  145MOL0     H19574   6.751   8.121   1.914  0.3273 -0.3799 -0.4787
  145MOL0     H19575   6.519   8.024   1.885  0.2412  0.7306 -0.3481
  146MOL0     O19576   4.384   5.239  10.778 -0.1993 -0.3369  0.0280
  146MOL0     C19577   4.412   5.214  10.666  0.0820  0.2176  0.1144
  146MOL0     O19578   4.326   5.224  10.560 -0.3793 -0.1213  0.1912
  146MOL0     C19579   4.198   5.262  10.601 -0.0322 -0.6087  0.0529
  146MOL0     C19580   4.108   5.160  10.607 -0.4959 -0.4544 -0.2400
  146MOL0     C19581   3.973   5.190  10.644 -0.5754 -0.7220  0.6086
  146MOL0     C19582   3.928   5.325  10.656  0.4677  0.1373 -0.4529
  146MOL0     O19583   3.803   5.366  10.671  0.6980  0.1538 -0.6461
  146MOL0     C19584   3.713   5.274  10.729 -0.2824 -0.4677 -0.9796
  146MOL0     C19585   3.578   5.350  10.746  0.2163  0.9387 -0.3173
  146MOL0     C19586   3.482   5.259  10.822 -0.1925 -0.0669  0.2011
  146MOL0     C19587   3.388   5.341  10.917  0.0461  0.5243 -0.8055
  146MOL0     C19588   3.272   5.253  10.956 -0.2756  0.4352  0.1776
  146MOL0     C19589   3.175   5.343  11.039  0.5056  0.1121 -0.2057
  146MOL0     C19590   3.025   5.294  11.027 -1.0423  0.7751 -0.1832
  146MOL0     C19591   2.993   5.156  11.089  0.1876 -0.2976  0.5064
  146MOL0     N19592   2.849   5.114  11.073  0.0888 -0.3316  0.4304
  146MOL0     C19593   2.730   5.179  11.083  0.1325  0.1571  0.0274
  146MOL0     C19594   2.641   5.112  11.009  0.3964  0.8970 -0.0682
  146MOL0     C19595   2.496   5.165  10.997  0.3051  0.2641  0.8219
  146MOL0     C19596   2.396   5.062  11.043 -0.5086  0.2021  0.0560
  146MOL0     C19597   2.421   5.025  11.202  0.3740  0.1764 -0.6994
  146MOL0     C19598   2.396   5.146  11.296 -0.2852 -0.3190  0.3773
  146MOL0     O19599   2.267   5.203  11.264 -0.8186  0.7435  0.1583
  146MOL0     C19600   2.149   5.161  11.322 -0.1481  0.1448 -0.5233
  146MOL0     C19601   2.033   5.228  11.297  0.2721 -0.4718  0.3915
  146MOL0     C19602   1.913   5.193  11.350  0.2645 -0.1815 -0.3158
  146MOL0     C19603   1.801   5.291  11.309 -0.5499 -0.6453 -0.6912
  146MOL0     C19604   1.903   5.072  11.433  0.9471 -0.4435  0.1347
  146MOL0     C19605   1.769   5.017  11.480  0.5560  0.6056 -0.4257
  146MOL0     O19606   1.651   5.083  11.445  0.2617 -0.9047 -0.2348
  146MOL0     C19607   1.534   5.047  11.498 -0.1987  0.2941  0.0123
  146MOL0     C19608   1.448   5.116  11.584 -0.1595  0.2082  0.2200
  146MOL0     C19609   1.325   5.059  11.619 -0.3072 -0.8633 -0.1934
  146MOL0     C19610   1.287   4.938  11.575 -0.3846  0.4695 -0.1897
  146MOL0     O19611   1.176   4.891  11.626 -0.3539  0.5171  0.1731
  146MOL0     C19612   1.164   4.754  11.668  0.1134  0.0274 -0.6695
  146MOL0     C19613   1.045   4.755  11.775 -0.0960  0.0883  0.1840
  146MOL0     C19614   0.917   4.690  11.720  0.7459  0.0870  0.5133
  146MOL0     C19615   0.786   4.696  11.805 -0.4061  0.2153  0.7204
  146MOL0     C19616   0.661   4.643  11.732  0.2795 -0.1848 -0.5039
  146MOL0     C19617   0.529   4.685  11.804 -0.4390 -0.0032  0.2968
  146MOL0     C19618   0.517   4.629  11.946 -0.1771 -0.1434  0.0737
  146MOL0     C19619   0.378   4.587  11.998 -0.1949 -0.4904  0.0946
  146MOL0    Cl19620   0.259   4.723  11.993  0.2138  0.2939 -0.1347
  146MOL0     C19621   1.366   4.864  11.499  0.1980 -0.5860 -0.3300
  146MOL0     C19622   1.488   4.918  11.456 -0.4746  0.3967  0.2693
  146MOL0     O19623   1.771   4.917  11.549  0.2807  0.2036  0.0355
  146MOL0     C19624   2.024   4.999  11.460 -0.3592  0.6811 -0.0425
  146MOL0     C19625   2.148   5.041  11.406  0.3509 -0.0443  0.5000
  146MOL0     N19626   2.687   4.989  10.970  0.4182 -1.2326 -0.3420
  146MOL0     N19627   2.814   4.999  11.001 -0.9195 -0.0758  0.0216
  146MOL0     C19628   4.022   5.428  10.647 -0.5068 -0.1955  0.1699
  146MOL0     C19629   4.163   5.391  10.625 -0.3609  0.6590  0.1510
  146MOL0     C19630   4.548   5.156  10.644 -0.2829 -0.0399  0.2550
  146MOL0     C19631   4.624   5.099  10.747 -0.0545  0.6802 -0.6719
  146MOL0     C19632   4.747   5.041  10.731  0.0804  0.2967 -0.1102
  146MOL0     C19633   4.790   5.035  10.597  0.2842 -0.2012  0.0346
  146MOL0     O19634   4.906   4.974  10.556 -0.1178  0.0361  0.0958
  146MOL0     C19635   4.983   4.901  10.651  0.3675  0.9540 -0.8910
  146MOL0     C19636   5.099   4.978  10.703  0.1040  0.6637  0.1992
  146MOL0     C19637   5.209   4.996  10.596 -0.0157  0.1609  0.0198
  146MOL0     C19638   5.338   5.062  10.662 -0.2461  0.1071  0.4626
  146MOL0     C19639   5.408   4.971  10.762 -0.3645 -0.5208 -0.6507
  146MOL0     C19640   5.459   4.894  10.839 -1.0417  0.0335 -0.4087
  146MOL0     C19641   4.727   5.094  10.488  0.0794 -0.3468 -0.0450
  146MOL0     C19642   4.600   5.148  10.509 -0.8096 -0.7452 -0.4011
  146MOL0     H19643   4.132   5.054  10.596 -0.4338 -0.2759 -1.9693
  146MOL0     H19644   3.900   5.109  10.640 -0.2555 -1.0650  1.5136
  146MOL0     H19645   3.695   5.181  10.675 -4.0078 -1.6959  1.9354
  146MOL0     H19646   3.746   5.240  10.828 -1.7468 -1.3014 -0.7574
  146MOL0     H19647   3.594   5.444  10.800  2.4761  0.4628 -0.0701
  146MOL0     H19648   3.541   5.387  10.649  3.5556  3.5064 -0.7935
  146MOL0     H19649   3.422   5.197  10.754 -1.5463  0.3065  1.0075
  146MOL0     H19650   3.537   5.180  10.872  0.6994  1.7480  2.2539
  146MOL0     H19651   3.440   5.371  11.009 -1.7138  2.1036 -0.2726
  146MOL0     H19652   3.358   5.429  10.861 -1.3441  0.6489  0.1055
  146MOL0     H19653   3.217   5.211  10.871 -1.7072  0.6871  0.9522
  146MOL0     H19654   3.316   5.176  11.021 -0.3258  1.3736  1.3519
  146MOL0     H19655   3.202   5.356  11.145 -0.2802  2.6241 -0.2482
  146MOL0     H19656   3.189   5.441  10.994 -0.6163 -0.4319 -1.7964
  146MOL0     H19657   2.952   5.354  11.082 -1.9940 -1.0912  0.6833
  146MOL0     H19658   2.996   5.289  10.921 -0.7266  0.8840 -0.2765
  146MOL0     H19659   3.016   5.163  11.196 -0.5252 -1.5095  0.7547
  146MOL0     H19660   3.059   5.079  11.048  1.5976 -0.0531  2.1850
  146MOL0     H19661   2.709   5.275  11.130  1.5061  0.7556 -0.5365
  146MOL0     H19662   2.479   5.262  11.043 -1.9511  0.6623 -0.6835
  146MOL0     H19663   2.474   5.188  10.892  0.3375 -0.4287  0.6569
  146MOL0     H19664   2.421   4.967  10.994 -0.0657  0.7025 -0.7110
  146MOL0     H19665   2.293   5.089  11.017 -1.3820  0.3762  3.3241
  146MOL0     H19666   2.516   4.978  11.231 -0.5491 -0.6200  1.2026
  146MOL0     H19667   2.350   4.945  11.223  0.2208  1.0543  2.6153
  146MOL0     H19668   2.474   5.217  11.266 -1.2800 -0.3914 -2.7934
  146MOL0     H19669   2.421   5.122  11.399  1.4455  1.5742  0.4509
  146MOL0     H19670   2.044   5.320  11.240  1.6424 -1.2538 -0.6468
  146MOL0     H19671   1.732   5.246  11.236  0.2907 -0.0873 -1.8639
  146MOL0     H19672   1.746   5.313  11.400  2.6006 -1.1669  1.5140
  146MOL0     H19673   1.844   5.388  11.283  0.0830  0.1816  2.9662
  146MOL0     H19674   1.478   5.218  11.607  0.4732  0.5183 -1.8003
  146MOL0     H19675   1.243   5.113  11.666 -1.6390 -1.9375 -1.2088
  146MOL0     H19676   1.146   4.692  11.579 -1.1051  1.5316 -1.5264
  146MOL0     H19677   1.254   4.722  11.721 -0.5961  0.5976  0.9276
  146MOL0     H19678   1.075   4.687  11.855  1.7262 -0.8855 -1.2424
  146MOL0     H19679   1.036   4.858  11.808  5.7921  1.1294 -0.3731
  146MOL0     H19680   0.943   4.584  11.710  1.9773  0.3198  1.0873
  146MOL0     H19681   0.893   4.724  11.619 -0.7778  1.9498  1.4352
  146MOL0     H19682   0.805   4.649  11.902  0.8233  0.8512  0.8086
  146MOL0     H19683   0.750   4.798  11.815 -2.7558 -0.1447 -2.5550
  146MOL0     H19684   0.679   4.535  11.728  0.5556 -0.1652  0.0588
  146MOL0     H19685   0.650   4.672  11.627  0.0490 -1.7259 -0.9310
  146MOL0     H19686   0.523   4.793  11.816 -0.3661  0.0164  0.1641
  146MOL0     H19687   0.450   4.653  11.736  1.1453 -0.1015 -1.6001
  146MOL0     H19688   0.555   4.709  12.009 -0.4157  1.5703 -1.8715
  146MOL0     H19689   0.584   4.542  11.953 -0.6448 -0.8639 -2.8364
  146MOL0     H19690   0.394   4.553  12.100 -2.3082  2.5208  1.5660
  146MOL0     H19691   0.343   4.504  11.936  2.0085 -1.5421  0.1569
  146MOL0     H19692   1.347   4.762  11.467 -0.3150 -1.2282  1.8010
  146MOL0     H19693   1.557   4.869  11.387  0.5272  3.9256 -1.4963
  146MOL0     H19694   2.015   4.910  11.521 -0.3802  0.9125  0.2948
  146MOL0     H19695   2.232   4.976  11.428  0.3102 -0.4755 -0.5564
  146MOL0     H19696   3.987   5.528  10.667  0.8656  0.3419 -0.0418
  146MOL0     H19697   4.235   5.468  10.600 -2.0155  2.2995  0.2017
  146MOL0     H19698   4.595   5.098  10.851  3.0995  1.4172  0.3092
  146MOL0     H19699   4.803   5.002  10.815 -0.7635  1.5979  1.1128
  146MOL0     H19700   4.930   4.851  10.732  2.0695  0.1464 -0.2170
  146MOL0     H19701   5.019   4.812  10.600  0.3099  0.0034  0.6588
  146MOL0     H19702   5.140   4.927  10.790  1.0712 -0.4317 -0.8578
  146MOL0     H19703   5.076   5.081  10.733 -3.3511  0.5010 -1.4193
  146MOL0     H19704   5.173   5.060  10.515  1.8221  0.9476 -0.2294
  146MOL0     H19705   5.247   4.901  10.556  1.7409  1.4762 -1.6643
  146MOL0     H19706   5.300   5.156  10.701 -0.7062  0.6859 -1.2766
  146MOL0     H19707   5.414   5.088  10.588  0.0029 -1.6923  0.0290
  146MOL0     H19708   5.507   4.847  10.922  2.3348  2.9464 -0.4648
  146MOL0     H19709   4.775   5.078  10.392  0.9621 -2.6807  0.7094
  146MOL0     H19710   4.545   5.185  10.423 -0.7372  0.6676  0.1415
  147MOL0     O19711   6.949  10.545   2.470  0.1487 -0.7484 -0.1557
  147MOL0     C19712   6.892  10.546   2.575  0.2277  0.0839 -0.3680
  147MOL0     O19713   6.940  10.498   2.702  0.2841 -0.0974  0.3396
  147MOL0     C19714   7.071  10.470   2.707 -0.2013 -0.1574  0.6141
  147MOL0     C19715   7.101  10.329   2.731 -0.4194 -0.0267 -0.0735
  147MOL0     C19716   7.236  10.290   2.736  0.5577  0.1040  0.6352
  147MOL0     C19717   7.335  10.391   2.718  0.7596  0.7719  0.1799
  147MOL0     O19718   7.464  10.365   2.730 -0.6195 -0.0511 -0.2936
  147MOL0     C19719   7.510  10.239   2.679  0.3114 -0.3718  0.3687
  147MOL0     C19720   7.664  10.242   2.659 -0.2527 -0.4283 -0.0523
  147MOL0     C19721   7.737  10.263   2.793 -0.2529  0.0168  1.0949
  147MOL0     C19722   7.728  10.160   2.911  0.7930 -0.7772 -0.5290
  147MOL0     C19723   7.822  10.041   2.870 -0.4141  0.8816  0.6946
  147MOL0     C19724   7.836   9.951   2.999  0.0878  0.0463  0.2394
  147MOL0     C19725   7.917   9.822   2.988  0.1592  0.4428  0.2297
  147MOL0     C19726   7.866   9.736   2.868  0.8328  0.1940 -0.7067
  147MOL0     N19727   7.721   9.730   2.856  0.2611  0.9278  1.4502
  147MOL0     C19728   7.624   9.680   2.939 -0.4841  0.4911 -0.4590
  147MOL0     C19729   7.507   9.686   2.874 -0.7881 -0.1751 -0.7647
  147MOL0     C19730   7.378   9.658   2.942 -0.5256  0.6715  0.1237
  147MOL0     C19731   7.284   9.773   2.931 -0.1251 -0.5833 -0.0654
  147MOL0     C19732   7.350   9.914   2.953 -1.0507 -0.0605  1.1300
  147MOL0     C19733   7.244  10.016   3.009 -1.1331  0.3530  0.2398
  147MOL0     O19734   7.122   9.995   2.942 -0.8978 -0.0314 -0.1238
  147MOL0     C19735   7.014  10.061   3.000  0.3625 -0.2582 -0.3058
  147MOL0     C19736   7.013  10.153   3.100  0.0981  0.3541 -0.8333
  147MOL0     C19737   6.900  10.205   3.164  0.1092  0.3052  0.8404
  147MOL0     C19738   6.916  10.283   3.286 -0.7922  0.4543 -0.4508
  147MOL0     C19739   6.771  10.159   3.117  0.4998 -0.8496  0.9379
  147MOL0     C19740   6.637  10.211   3.161 -0.0263 -0.4926  0.5013
  147MOL0     O19741   6.533  10.186   3.075 -0.1426  0.6533 -0.1344
  147MOL0     C19742   6.432  10.282   3.071  0.6918  0.5846  0.0089
  147MOL0     C19743   6.435  10.425   3.080  0.5052  0.9341 -0.2510
  147MOL0     C19744   6.321  10.500   3.062  0.4081 -0.9432 -0.5228
  147MOL0     C19745   6.194  10.439   3.050  0.6540 -1.1575  1.6935
  147MOL0     O19746   6.076  10.517   3.029  0.4195  0.5426  0.8667
  147MOL0     C19747   6.079  10.656   3.030 -0.1842 -0.5869  0.1184
  147MOL0     C19748   5.952  10.727   2.986  0.1364  0.3332 -0.2515
  147MOL0     C19749   5.845  10.690   3.080 -0.0148  0.3127 -0.2004
  147MOL0     C19750   5.715  10.727   3.016  0.7445  0.4376  0.2945
  147MOL0     C19751   5.599  10.666   3.100 -0.0875 -0.8505 -0.3899
  147MOL0     C19752   5.458  10.684   3.033  1.0167 -0.2527 -0.2516
  147MOL0     C19753   5.347  10.642   3.137  1.0006 -0.0889  0.9512
  147MOL0     C19754   5.208  10.665   3.076  0.5473  0.2103 -0.3054
  147MOL0    Cl19755   5.155  10.839   3.071  0.3288 -0.0039  0.2021
  147MOL0     C19756   6.184  10.296   3.041 -0.3481  0.2433 -0.1349
  147MOL0     C19757   6.307  10.227   3.051  0.9408 -0.7836  0.3728
  147MOL0     O19758   6.624  10.272   3.269 -0.4417 -1.1738  0.3043
  147MOL0     C19759   6.771  10.074   3.006  0.3092 -0.0007  0.0231
  147MOL0     C19760   6.887  10.031   2.943 -0.3633  0.2196 -0.2588
  147MOL0     N19761   7.537   9.736   2.748  0.8637 -0.4528 -0.3032
  147MOL0     N19762   7.660   9.760   2.736 -0.7556  0.1966 -0.2765
  147MOL0     C19763   7.305  10.529   2.703  0.3647  0.7423  0.6862
  147MOL0     C19764   7.175  10.562   2.692  0.4024  0.5061  0.7058
  147MOL0     C19765   6.750  10.589   2.580  0.5431 -1.0410 -0.4650
  147MOL0     C19766   6.698  10.668   2.473  0.1192 -0.2961  0.4715
  147MOL0     C19767   6.565  10.724   2.474 -0.5188 -0.2025  0.7249
  147MOL0     C19768   6.486  10.701   2.591 -0.3506  0.0822  0.2682
  147MOL0     O19769   6.355  10.748   2.600 -0.0975 -0.3040 -0.1972
  147MOL0     C19770   6.313  10.861   2.525  0.3878  0.8282 -0.4899
  147MOL0     C19771   6.173  10.896   2.568 -0.1186 -0.3871  0.2184
  147MOL0     C19772   6.191  10.962   2.702 -0.3633 -0.1569 -0.8292
  147MOL0     C19773   6.080  11.059   2.756 -0.7806 -0.5002 -0.1891
  147MOL0     C19774   5.938  11.028   2.720  0.5028  0.4746 -0.2347
  147MOL0     C19775   5.828  10.984   2.693 -0.1601  0.3673  0.9269
  147MOL0     C19776   6.538  10.628   2.696  0.5197 -0.5390 -0.0343
  147MOL0     C19777   6.666  10.571   2.695  0.7326 -0.5693 -0.2843
  147MOL0     H19778   7.019  10.258   2.735 -1.0222  0.6684  0.1169
  147MOL0     H19779   7.261  10.186   2.752 -0.9078 -0.1822  1.2466
  147MOL0     H19780   7.497  10.158   2.751  1.6139 -0.4488  0.5512
  147MOL0     H19781   7.470  10.210   2.581  2.9535 -3.1473 -0.0307
  147MOL0     H19782   7.697  10.145   2.621  1.5828  0.5641 -1.1486
  147MOL0     H19783   7.698  10.314   2.585  1.4339 -2.5682 -1.4834
  147MOL0     H19784   7.844  10.277   2.774 -0.1048 -1.2587  0.8790
  147MOL0     H19785   7.707  10.360   2.832 -0.3814  0.5607 -0.2859
  147MOL0     H19786   7.763  10.197   3.008 -1.0011  1.0429 -0.5035
  147MOL0     H19787   7.626  10.125   2.931  0.5502  0.1656 -0.0901
  147MOL0     H19788   7.785   9.985   2.784  0.1025  1.5233  0.0350
  147MOL0     H19789   7.921  10.079   2.841  1.1662 -2.7265  0.8202
  147MOL0     H19790   7.890  10.009   3.075  0.8416  1.1037 -1.0666
  147MOL0     H19791   7.736   9.926   3.036  0.7254 -1.2353  1.1411
  147MOL0     H19792   8.023   9.839   2.970  0.3680  0.3155  1.3201
  147MOL0     H19793   7.904   9.773   3.085 -1.4525 -0.2329 -0.2896
  147MOL0     H19794   7.897   9.633   2.882 -0.5991 -0.5249 -2.4058
  147MOL0     H19795   7.909   9.777   2.775  2.8695 -1.6948 -0.6774
  147MOL0     H19796   7.646   9.659   3.044 -1.8932  3.3532  0.5223
  147MOL0     H19797   7.352   9.567   2.887  1.3084  1.3666 -2.0460
  147MOL0     H19798   7.390   9.626   3.046 -0.1914 -0.5724 -0.2789
  147MOL0     H19799   7.204   9.759   3.004  0.4509  0.1835  0.7319
  147MOL0     H19800   7.236   9.778   2.833  1.0101 -2.3123 -0.7579
  147MOL0     H19801   7.402   9.948   2.864 -1.1231  0.1496  1.1665
  147MOL0     H19802   7.431   9.904   3.026  0.7184  0.5624 -0.6632
  147MOL0     H19803   7.290  10.114   2.994  2.6343 -1.2784 -0.0387
  147MOL0     H19804   7.236  10.003   3.118 -2.5467  0.9271  0.2334
  147MOL0     H19805   7.107  10.192   3.138  1.4718 -2.0793 -1.4859
  147MOL0     H19806   7.017  10.320   3.304  0.4595 -1.7493 -2.4387
  147MOL0     H19807   6.848  10.369   3.291 -1.8301 -0.4110  0.6728
  147MOL0     H19808   6.892  10.212   3.365 -0.4480  1.0290  0.1875
  147MOL0     H19809   6.534  10.465   3.094  1.2109 -0.3928 -1.1665
  147MOL0     H19810   6.323  10.608   3.054 -1.0159 -0.8098  0.5061
  147MOL0     H19811   6.103  10.695   3.129 -1.7214  1.9523 -0.4191
  147MOL0     H19812   6.163  10.686   2.966 -0.5207 -2.3507 -1.2380
  147MOL0     H19813   5.983  10.832   2.993  1.0831 -0.0737  2.5067
  147MOL0     H19814   5.927  10.706   2.881  2.3844  2.1089 -1.2355
  147MOL0     H19815   5.863  10.743   3.174 -1.0925 -1.9898  1.4039
  147MOL0     H19816   5.831  10.584   3.105 -0.4751  0.9907  2.8456
  147MOL0     H19817   5.705  10.836   3.014  1.0259  0.4923 -2.6671
  147MOL0     H19818   5.705  10.690   2.914 -1.9892 -0.8982  0.9512
  147MOL0     H19819   5.604  10.720   3.195  5.7065 -0.0393 -0.7973
  147MOL0     H19820   5.617  10.560   3.120  1.4126 -0.2468  1.8538
  147MOL0     H19821   5.445  10.789   3.004  1.8225 -0.0757  0.0137
  147MOL0     H19822   5.462  10.624   2.941 -1.3737  0.0466 -0.6119
  147MOL0     H19823   5.347  10.712   3.222 -0.5251  1.9764 -0.6574
  147MOL0     H19824   5.360  10.537   3.162 -0.9103 -1.0531 -1.7337
  147MOL0     H19825   5.122  10.625   3.130 -2.3369 -0.0384 -4.5388
  147MOL0     H19826   5.213  10.616   2.978 -0.6702  0.5692 -0.5583
  147MOL0     H19827   6.092  10.240   3.028 -0.2594  0.3740 -1.4597
  147MOL0     H19828   6.294  10.120   3.045 -0.0026 -0.6726  0.1939
  147MOL0     H19829   6.688  10.045   2.943 -0.2562 -0.6171  1.0256
  147MOL0     H19830   6.885   9.961   2.860  3.1377 -0.3094 -0.0535
  147MOL0     H19831   7.382  10.603   2.684  0.7714  0.7636  2.2411
  147MOL0     H19832   7.160  10.668   2.674 -0.4355  0.5452  1.5637
  147MOL0     H19833   6.762  10.666   2.385  3.0942  1.0249  2.4158
  147MOL0     H19834   6.510  10.767   2.390  1.4091  0.7507 -0.1101
  147MOL0     H19835   6.384  10.940   2.550 -1.3693  1.8007  1.7634
  147MOL0     H19836   6.306  10.846   2.416 -1.6500  0.2930 -0.3414
  147MOL0     H19837   6.109  10.808   2.583  2.1540 -1.6890  3.3934
  147MOL0     H19838   6.125  10.964   2.498  1.3729  0.6042  0.1164
  147MOL0     H19839   6.281  11.023   2.710 -0.4720 -0.0734 -0.1934
  147MOL0     H19840   6.208  10.885   2.777  2.8736  0.0418 -1.2124
  147MOL0     H19841   6.104  11.150   2.700 -0.5581  1.0560  2.2885
  147MOL0     H19842   6.076  11.093   2.860 -2.9789  4.4514 -1.5713
  147MOL0     H19843   5.731  10.951   2.661  0.7132 -2.3640  0.8532
  147MOL0     H19844   6.474  10.621   2.784  0.1482  1.3706 -0.1035
  147MOL0     H19845   6.697  10.514   2.783  0.1790  0.2289  0.4422
  148MOL0     O19846   1.243   7.473   4.281  0.1319 -0.7690 -0.1479
  148MOL0     C19847   1.347   7.396   4.283 -0.0313 -1.1757 -0.0721
  148MOL0     O19848   1.347   7.272   4.231  0.0855 -0.3626  0.0645
  148MOL0     C19849   1.229   7.209   4.205 -0.6208 -0.1739 -0.0213
  148MOL0     C19850   1.180   7.128   4.304 -0.0549 -0.1093  0.0695
  148MOL0     C19851   1.068   7.061   4.289  0.1527  0.3676  0.7045
  148MOL0     C19852   1.002   7.048   4.161 -0.1977 -0.4818  0.1559
  148MOL0     O19853   0.890   6.973   4.151  0.2001  0.9545 -0.3494
  148MOL0     C19854   0.762   7.036   4.129 -0.0947 -0.8206  0.6989
  148MOL0     C19855   0.654   6.935   4.142  0.9066 -0.1886 -1.0426
  148MOL0     C19856   0.519   7.007   4.111  0.7540  0.1968 -0.2509
  148MOL0     C19857   0.398   6.917   4.126 -0.9886 -0.6000 -0.3962
  148MOL0     C19858   0.262   6.977   4.097 -0.5192  0.0295 -0.4045
  148MOL0     C19859   0.152   6.867   4.102 -0.4444 -0.2977  0.1107
  148MOL0     C19860   0.039   6.919   4.011 -0.3993 -0.2121 -0.3270
  148MOL0     C19861  -0.071   6.817   3.991  0.3397 -0.1170 -0.1024
  148MOL0     N19862  -0.179   6.896   3.936 -0.0809  0.1956  0.3066
  148MOL0     C19863  -0.283   6.953   4.007  0.0005  0.5354  0.6888
  148MOL0     C19864  -0.380   6.972   3.912 -0.5033 -0.5551  0.2652
  148MOL0     C19865  -0.518   7.031   3.938 -0.6009  0.2706 -0.4039
  148MOL0     C19866  -0.589   6.932   4.033  0.3186  0.1073 -0.2617
  148MOL0     C19867  -0.719   7.001   4.092  0.0737  0.1860 -0.7416
  148MOL0     C19868  -0.783   6.922   4.204  0.4740 -0.8551  0.1398
  148MOL0     O19869  -0.816   6.790   4.173 -0.1700 -0.0962  0.2590
  148MOL0     C19870  -0.855   6.708   4.278  0.6517 -0.6004 -1.4134
  148MOL0     C19871  -0.891   6.748   4.409 -0.3319  0.4930  0.0467
  148MOL0     C19872  -0.925   6.660   4.508 -0.1701  0.0736 -0.7509
  148MOL0     C19873  -0.985   6.706   4.634  0.4498  0.2962 -0.6700
  148MOL0     C19874  -0.918   6.520   4.488 -0.3367 -0.0755  0.5405
  148MOL0     C19875  -0.929   6.411   4.592  0.4416 -0.5672 -0.4488
  148MOL0     O19876  -0.913   6.437   4.727  0.1179  0.2517 -0.3780
  148MOL0     C19877  -0.936   6.328   4.811 -0.2547 -1.2171 -0.3086
  148MOL0     C19878  -0.837   6.287   4.899 -0.1449 -0.0352 -0.5835
  148MOL0     C19879  -0.870   6.189   4.993 -0.0775  0.5021  0.1883
  148MOL0     C19880  -0.990   6.121   4.994  0.4405  0.6296 -0.3204
  148MOL0     O19881  -1.028   6.027   5.085 -0.3311 -0.4551  0.7100
  148MOL0     C19882  -0.947   5.967   5.192 -0.1698  0.2448 -0.6758
  148MOL0     C19883  -1.047   5.890   5.285  0.1203  0.3035  0.8062
  148MOL0     C19884  -1.159   5.987   5.334 -0.5666  0.5050  0.2542
  148MOL0     C19885  -1.293   5.956   5.280  0.4564  0.6951 -0.6109
  148MOL0     C19886  -1.406   6.048   5.329  0.1022 -0.1923 -0.4148
  148MOL0     C19887  -1.537   5.979   5.305  0.3776 -1.0463 -0.8134
  148MOL0     C19888  -1.576   5.991   5.159  0.0424  0.4559  0.5979
  148MOL0     C19889  -1.715   5.931   5.125  0.0606  0.1111  1.1235
  148MOL0    Cl19890  -1.721   5.955   4.941  0.0013 -0.0549  0.2357
  148MOL0     C19891  -1.081   6.154   4.898  0.2049 -0.4404 -0.4749
  148MOL0     C19892  -1.061   6.271   4.824 -0.3239 -0.1612  0.4100
  148MOL0     O19893  -0.952   6.303   4.540 -0.2805 -0.4138  0.3167
  148MOL0     C19894  -0.875   6.480   4.355  0.1448 -0.3167  0.2069
  148MOL0     C19895  -0.853   6.573   4.252 -0.6693  0.4636 -0.3855
  148MOL0     N19896  -0.338   6.938   3.787  0.5578  0.6837  0.0345
  148MOL0     N19897  -0.207   6.892   3.801  0.3541 -0.1489 -0.0011
  148MOL0     C19898   1.050   7.119   4.054 -0.8334 -0.4392  0.5130
  148MOL0     C19899   1.169   7.204   4.075 -0.3606  0.3375 -0.8663
  148MOL0     C19900   1.475   7.449   4.332 -0.6731 -0.4912 -0.1404
  148MOL0     C19901   1.490   7.592   4.339 -0.5043 -0.2022 -0.4129
  148MOL0     C19902   1.627   7.639   4.374  0.5002 -0.0494  0.0817
  148MOL0     C19903   1.728   7.553   4.398 -0.1263  0.5889 -0.0755
  148MOL0     O19904   1.856   7.588   4.426 -0.2258 -0.1116  0.0718
  148MOL0     C19905   1.885   7.723   4.471  0.0527  0.4356 -0.8004
  148MOL0     C19906   2.035   7.752   4.494 -0.6063  0.2551 -0.0106
  148MOL0     C19907   2.131   7.698   4.381  0.7660  0.1102 -0.3938
  148MOL0     C19908   2.110   7.772   4.244  0.3307 -0.0406 -0.6277
  148MOL0     C19909   2.229   7.741   4.156  0.3650 -1.0406  0.1818
  148MOL0     C19910   2.318   7.707   4.087 -0.3323 -0.2840  0.5735
  148MOL0     C19911   1.705   7.411   4.407  0.4822 -0.4064  0.7159
  148MOL0     C19912   1.586   7.368   4.366  0.1517 -0.0805 -0.4699
  148MOL0     H19913   1.233   7.125   4.399  1.1527  1.6412 -0.4937
  148MOL0     H19914   1.024   7.005   4.371 -2.0546  0.9384 -0.0128
  148MOL0     H19915   0.746   7.122   4.194 -0.0477  0.0809 -0.4342
  148MOL0     H19916   0.757   7.078   4.028  2.0079 -0.1463  0.8373
  148MOL0     H19917   0.678   6.853   4.074  1.0040 -3.2850  2.3936
  148MOL0     H19918   0.634   6.909   4.246 -1.3255  2.0331 -0.8129
  148MOL0     H19919   0.517   7.094   4.177  1.5273 -0.7124  1.0253
  148MOL0     H19920   0.516   7.048   4.010 -1.6306 -1.1096 -0.8011
  148MOL0     H19921   0.414   6.836   4.055  0.0157  1.1851 -2.3103
  148MOL0     H19922   0.400   6.870   4.225  0.1908  0.3035  0.0439
  148MOL0     H19923   0.235   7.058   4.166  2.1175  2.0575 -1.5800
  148MOL0     H19924   0.272   7.018   3.996  0.9936 -0.9381 -0.6797
  148MOL0     H19925   0.191   6.774   4.061 -0.6950  0.7185 -2.6590
  148MOL0     H19926   0.111   6.857   4.202  1.0386  0.8801  0.8900
  148MOL0     H19927  -0.003   7.006   4.062 -0.2497 -0.8570  0.9466
  148MOL0     H19928   0.083   6.956   3.918  2.0853  3.3394  2.0295
  148MOL0     H19929  -0.093   6.760   4.081 -0.3919 -1.6091 -1.1805
  148MOL0     H19930  -0.028   6.742   3.924 -0.2986 -2.1684  1.6810
  148MOL0     H19931  -0.300   6.988   4.108 -4.3346  1.4211 -0.1409
  148MOL0     H19932  -0.499   7.129   3.983  2.2252 -1.0920  1.6638
  148MOL0     H19933  -0.568   7.039   3.841  0.0723  1.5855 -0.6756
  148MOL0     H19934  -0.517   6.910   4.112  2.1508  0.3889 -1.7776
  148MOL0     H19935  -0.619   6.835   3.993  0.2717 -0.2726  0.6659
  148MOL0     H19936  -0.785   7.021   4.007  0.0276  0.3196 -0.6752
  148MOL0     H19937  -0.676   7.096   4.124  0.8971  0.2690 -2.0025
  148MOL0     H19938  -0.871   6.985   4.220  2.2209  1.3500  1.5774
  148MOL0     H19939  -0.716   6.931   4.290  1.5426 -1.5545 -0.5876
  148MOL0     H19940  -0.898   6.852   4.440 -1.1423  0.0720  1.4135
  148MOL0     H19941  -0.908   6.694   4.711 -1.5074  0.4841  1.4283
  148MOL0     H19942  -1.018   6.809   4.620 -0.2884  0.1562 -0.0028
  148MOL0     H19943  -1.075   6.647   4.653 -0.1260  1.3372 -0.1046
  148MOL0     H19944  -0.739   6.335   4.907 -0.5268  0.5185  1.3182
  148MOL0     H19945  -0.794   6.168   5.067  1.2999 -2.2899 -1.8695
  148MOL0     H19946  -0.882   5.889   5.153 -3.1133 -2.8465  0.1367
  148MOL0     H19947  -0.896   6.041   5.254 -1.1003 -0.5626  1.1218
  148MOL0     H19948  -1.087   5.804   5.230 -0.9446  0.0897  1.8812
  148MOL0     H19949  -1.000   5.842   5.371  1.2332 -2.7187 -1.3398
  148MOL0     H19950  -1.125   6.090   5.322 -0.3637  0.2764 -1.2808
  148MOL0     H19951  -1.163   5.962   5.441  1.5112  0.9079  0.4742
  148MOL0     H19952  -1.286   5.956   5.171 -2.9141  3.2001 -0.9985
  148MOL0     H19953  -1.317   5.855   5.313  0.8981  0.8502  0.2005
  148MOL0     H19954  -1.419   6.140   5.271  0.7276 -0.3934 -0.8745
  148MOL0     H19955  -1.404   6.073   5.435 -1.8120  0.1718 -0.4091
  148MOL0     H19956  -1.531   5.882   5.356 -1.1815  0.6417  2.9812
  148MOL0     H19957  -1.608   6.032   5.369  0.4692 -1.8108 -0.0683
  148MOL0     H19958  -1.497   5.938   5.106  0.3864 -0.3640  1.8911
  148MOL0     H19959  -1.580   6.096   5.129 -0.1741 -0.6437 -4.1466
  148MOL0     H19960  -1.792   5.996   5.166 -0.2899  0.7427 -0.4649
  148MOL0     H19961  -1.724   5.827   5.158  2.9802 -0.6043  0.0366
  148MOL0     H19962  -1.183   6.117   4.909 -0.3934  1.6714  1.9802
  148MOL0     H19963  -1.139   6.308   4.758  1.1204 -0.1555 -1.3557
  148MOL0     H19964  -0.864   6.375   4.330  2.4511 -0.2235  0.5906
  148MOL0     H19965  -0.808   6.533   4.161  0.8415 -0.3513  0.6853
  148MOL0     H19966   0.997   7.126   3.959  0.3766  0.7713 -0.1095
  148MOL0     H19967   1.215   7.275   4.007 -0.4340  1.4803  0.2560
  148MOL0     H19968   1.414   7.661   4.305 -0.1232 -0.2459 -1.3898
  148MOL0     H19969   1.657   7.743   4.362  4.7404 -0.9516  1.1945
  148MOL0     H19970   1.861   7.796   4.394  2.1202  0.2082 -1.7403
  148MOL0     H19971   1.835   7.750   4.565  2.8001  1.5386  0.4513
  148MOL0     H19972   2.062   7.715   4.593 -0.8428 -1.2494 -0.4814
  148MOL0     H19973   2.054   7.860   4.502  0.8454 -0.0899  2.2085
  148MOL0     H19974   2.107   7.593   4.361 -2.1199  0.3113  1.3416
  148MOL0     H19975   2.233   7.711   4.418 -0.5226 -1.6012  4.5339
  148MOL0     H19976   2.111   7.881   4.258 -1.1661 -0.2851  2.0765
  148MOL0     H19977   2.020   7.736   4.192  0.9161  0.0089 -1.6977
  148MOL0     H19978   2.395   7.688   4.016 -1.3025 -2.3453  0.0071
  148MOL0     H19979   1.787   7.344   4.432  1.7672  0.7577 -0.2175
  148MOL0     H19980   1.549   7.266   4.367  0.4921 -0.2010  0.3732
  149MOL0     O19981  10.667   1.564   9.510  0.5293  0.1110  0.0910
  149MOL0     C19982  10.772   1.494   9.521  0.4385 -0.1680  0.3594
  149MOL0     O19983  10.773   1.365   9.569  0.1721  0.1516  0.0761
  149MOL0     C19984  10.656   1.304   9.576 -0.1007 -0.1640 -0.6114
  149MOL0     C19985  10.632   1.191   9.497 -0.3220  0.5938  0.0059
  149MOL0     C19986  10.511   1.127   9.509 -0.5041  0.2300  0.7909
  149MOL0     C19987  10.410   1.164   9.613 -0.9365  0.3151  0.1487
  149MOL0     O19988  10.300   1.092   9.625 -1.0838  0.1014  0.1826
  149MOL0     C19989  10.203   1.148   9.716  1.0355  0.0912 -0.9376
  149MOL0     C19990  10.084   1.068   9.706  0.1770  0.7439  0.3223
  149MOL0     C19991   9.960   1.128   9.774  0.2039  0.4542  0.1804
  149MOL0     C19992   9.835   1.045   9.755 -1.0221 -0.3500  0.9406
  149MOL0     C19993   9.706   1.095   9.825 -0.4248  0.3683  0.5943
  149MOL0     C19994   9.651   1.226   9.774 -0.9682 -0.1643 -0.0686
  149MOL0     C19995   9.519   1.262   9.844  0.0505  0.1874 -0.2601
  149MOL0     C19996   9.468   1.406   9.804 -0.0145  0.4180 -0.2651
  149MOL0     N19997   9.351   1.447   9.886  0.7707  0.5734  0.7086
  149MOL0     C19998   9.339   1.458  10.018  0.3953  1.1331 -0.0316
  149MOL0     C19999   9.205   1.477  10.040  1.4579  0.3497  0.9660
  149MOL0     C20000   9.146   1.502  10.179  0.3458 -0.0568  0.0792
  149MOL0     C20001   9.009   1.428  10.203 -0.5342 -0.1787 -0.4323
  149MOL0     C20002   8.944   1.490  10.327  0.2896  0.0869 -0.5280
  149MOL0     C20003   8.812   1.421  10.358  0.1397  0.0409 -0.0687
  149MOL0     O20004   8.731   1.492  10.455  0.0847 -0.7420 -0.1551
  149MOL0     C20005   8.658   1.601  10.427  0.6722 -0.0880  0.3374
  149MOL0     C20006   8.582   1.650  10.534 -0.0697  1.1673 -0.0098
  149MOL0     C20007   8.504   1.768  10.512  0.8951 -0.4514  0.5777
  149MOL0     C20008   8.434   1.830  10.633 -0.6045 -0.7636  0.5425
  149MOL0     C20009   8.480   1.822  10.380  0.0140  0.2053  0.0559
  149MOL0     C20010   8.394   1.938  10.341  0.1941  0.2635  0.3176
  149MOL0     O20011   8.440   2.018  10.244  0.3556  0.5254  0.2691
  149MOL0     C20012   8.366   2.134  10.200 -0.1370 -0.0626  0.7002
  149MOL0     C20013   8.440   2.239  10.147  0.0094 -0.1200  0.3069
  149MOL0     C20014   8.384   2.360  10.102  0.1387  0.1664 -0.2595
  149MOL0     C20015   8.245   2.377  10.101 -0.2960 -0.2989  0.2933
  149MOL0     O20016   8.189   2.490  10.051  1.2167 -0.0170  0.1594
  149MOL0     C20017   8.098   2.568  10.131  1.5367 -0.0290  0.0912
  149MOL0     C20018   8.054   2.683  10.037 -0.3098 -0.0915 -0.2554
  149MOL0     C20019   7.943   2.769  10.107 -0.0918  0.3929  0.3096
  149MOL0     C20020   7.875   2.870  10.017  0.3309  0.2607 -0.0630
  149MOL0     C20021   7.744   2.933  10.066  0.0127  0.1479  0.8059
  149MOL0     C20022   7.698   3.034   9.970  0.7862  0.1687 -0.1014
  149MOL0     C20023   7.545   3.064  10.005 -0.0857  0.3100  0.0364
  149MOL0     C20024   7.501   3.200   9.941 -0.1606  0.2030  0.5288
  149MOL0    Cl20025   7.457   3.189   9.762 -0.3982 -0.2501 -0.2269
  149MOL0     C20026   8.167   2.277  10.160  0.5208  1.3953 -0.6738
  149MOL0     C20027   8.231   2.155  10.199  0.7229  0.3848  0.5398
  149MOL0     O20028   8.292   1.956  10.410 -0.2998 -0.0098  1.0738
  149MOL0     C20029   8.558   1.768  10.279  0.3403  0.3810 -0.1385
  149MOL0     C20030   8.639   1.657  10.306  0.1526 -0.2029  0.1707
  149MOL0     N20031   9.142   1.463   9.915  0.4751  0.1711 -0.6414
  149MOL0     N20032   9.230   1.454   9.823  0.1083 -0.4482  0.2795
  149MOL0     C20033  10.448   1.274   9.701  0.1727  0.4835  0.1099
  149MOL0     C20034  10.564   1.343   9.685 -0.5155 -0.1424  0.9155
  149MOL0     C20035  10.890   1.546   9.446  0.2889  0.3424  0.2183
  149MOL0     C20036  11.011   1.478   9.453  0.9717  0.9305  0.4956
  149MOL0     C20037  11.124   1.528   9.387 -0.2582  0.8579 -0.1709
  149MOL0     C20038  11.115   1.641   9.310 -0.1467  0.5849 -0.3334
  149MOL0     O20039  11.220   1.701   9.246 -0.7817 -0.4140  0.4543
  149MOL0     C20040  11.342   1.689   9.308  0.2761 -0.8093 -0.1327
  149MOL0     C20041  11.453   1.762   9.226 -0.0620  0.2437  0.3891
  149MOL0     C20042  11.406   1.806   9.084 -0.1746 -0.2214  0.0221
  149MOL0     C20043  11.510   1.898   9.013 -0.7930  0.4058 -0.2338
  149MOL0     C20044  11.644   1.843   8.999 -0.1257 -1.2747  0.4103
  149MOL0     C20045  11.758   1.802   9.008 -0.0895 -0.6398 -0.2934
  149MOL0     C20046  10.992   1.702   9.302  0.0638  0.3126  0.1330
  149MOL0     C20047  10.884   1.659   9.372 -0.3595 -1.0427  0.3599
  149MOL0     H20048  10.704   1.168   9.419 -1.5854 -0.3700 -0.9289
  149MOL0     H20049  10.480   1.060   9.429  1.1898  3.9216 -3.4055
  149MOL0     H20050  10.242   1.138   9.818  0.3978 -3.8812 -0.9018
  149MOL0     H20051  10.173   1.251   9.698 -2.9402 -0.9437 -1.0432
  149MOL0     H20052  10.069   1.043   9.601 -1.3830  0.5777  0.5606
  149MOL0     H20053  10.106   0.968   9.743  3.1751  0.9245 -0.7319
  149MOL0     H20054   9.980   1.135   9.881 -0.5471 -1.8719  0.5314
  149MOL0     H20055   9.943   1.228   9.731  2.8262 -0.0586 -2.3702
  149MOL0     H20056   9.816   1.060   9.649  1.9061  2.0229  0.6139
  149MOL0     H20057   9.854   0.945   9.794  0.2604 -0.2364  0.6490
  149MOL0     H20058   9.637   1.014   9.800 -0.1508  0.6359 -1.1715
  149MOL0     H20059   9.715   1.103   9.934 -2.2173 -0.2732  0.8247
  149MOL0     H20060   9.716   1.315   9.769 -2.9862  1.4894  1.2923
  149MOL0     H20061   9.624   1.206   9.670 -0.2079 -0.2869 -0.2457
  149MOL0     H20062   9.439   1.200   9.803 -0.0217 -0.7951  1.2836
  149MOL0     H20063   9.530   1.253   9.953 -1.2825  2.7442  0.1935
  149MOL0     H20064   9.439   1.396   9.699  0.7529 -0.3073 -0.4244
  149MOL0     H20065   9.540   1.488   9.810 -1.8027  2.1355 -1.1623
  149MOL0     H20066   9.411   1.452  10.099 -0.7655 -0.5828  0.9274
  149MOL0     H20067   9.204   1.463  10.262 -2.2424 -2.6029  0.8732
  149MOL0     H20068   9.131   1.610  10.192 -1.2268 -0.2744  0.3126
  149MOL0     H20069   9.037   1.325  10.229  1.7783  0.3714 -0.4741
  149MOL0     H20070   8.936   1.422  10.122 -2.4848 -1.8598  1.3225
  149MOL0     H20071   8.925   1.594  10.298  1.3819  0.0297 -1.5184
  149MOL0     H20072   9.015   1.477  10.408 -0.3510 -3.1718 -0.3465
  149MOL0     H20073   8.846   1.325  10.397 -1.1776 -1.1755 -1.7766
  149MOL0     H20074   8.753   1.399  10.269  0.7769  1.2857 -0.8329
  149MOL0     H20075   8.590   1.595  10.627 -1.1211  1.3367  0.1986
  149MOL0     H20076   8.464   1.935  10.634 -0.0939 -0.8894  2.5250
  149MOL0     H20077   8.329   1.804  10.616  0.0248 -3.5179  0.4030
  149MOL0     H20078   8.473   1.796  10.729  3.0216  3.3885  0.8847
  149MOL0     H20079   8.547   2.225  10.134 -0.0806 -4.7319  2.4229
  149MOL0     H20080   8.443   2.441  10.060  0.8515 -0.4728 -0.5090
  149MOL0     H20081   8.012   2.504  10.153  0.2874  0.1665 -3.5460
  149MOL0     H20082   8.134   2.612  10.224 -0.2125 -0.2697  0.9307
  149MOL0     H20083   8.138   2.751  10.019  0.4501 -1.4630 -2.2342
  149MOL0     H20084   8.033   2.643   9.938 -0.9210 -0.6665  0.1004
  149MOL0     H20085   7.981   2.807  10.202 -0.0547 -3.3741  1.9739
  149MOL0     H20086   7.866   2.695  10.132 -0.0426 -1.1046 -3.2710
  149MOL0     H20087   7.949   2.948   9.998  2.6100 -1.8124 -0.1304
  149MOL0     H20088   7.848   2.827   9.921 -0.2059  0.4043  0.0192
  149MOL0     H20089   7.754   2.969  10.169  0.9936 -1.1114  1.1863
  149MOL0     H20090   7.675   2.848  10.070  1.1062 -0.7608  0.9488
  149MOL0     H20091   7.752   3.127   9.988  0.6755 -0.3386  3.8519
  149MOL0     H20092   7.720   3.004   9.868 -1.7893 -0.6246 -0.4976
  149MOL0     H20093   7.527   3.059  10.112  0.0672 -1.5412  0.0052
  149MOL0     H20094   7.486   2.980   9.967 -0.5238 -0.1471  1.6640
  149MOL0     H20095   7.566   3.285   9.961 -0.2927 -0.0053  1.9805
  149MOL0     H20096   7.404   3.221   9.988  0.3415  1.9044  0.8759
  149MOL0     H20097   8.060   2.293  10.167 -0.1055 -1.7837 -1.3443
  149MOL0     H20098   8.172   2.078  10.249 -1.0958  0.9999 -0.5291
  149MOL0     H20099   8.546   1.813  10.180 -1.3898 -1.5142 -0.8548
  149MOL0     H20100   8.681   1.610  10.218  1.8570  1.3504  0.0960
  149MOL0     H20101  10.390   1.309   9.786 -0.9292 -0.3336 -0.2867
  149MOL0     H20102  10.582   1.421   9.757  0.4271  0.5563 -0.0432
  149MOL0     H20103  11.026   1.383   9.504  0.5392 -1.9102 -4.0942
  149MOL0     H20104  11.215   1.470   9.378 -1.3208 -0.6783 -1.2845
  149MOL0     H20105  11.341   1.744   9.403  0.4541  2.4297 -1.8639
  149MOL0     H20106  11.373   1.584   9.314 -0.3342 -1.1486 -2.1820
  149MOL0     H20107  11.535   1.690   9.220 -1.1175 -0.8892 -0.9268
  149MOL0     H20108  11.484   1.849   9.285 -2.3023  0.8509  0.7573
  149MOL0     H20109  11.315   1.867   9.080 -1.2869 -1.8439 -0.1894
  149MOL0     H20110  11.384   1.716   9.026  2.5775 -0.9518 -0.0404
  149MOL0     H20111  11.514   1.987   9.077 -2.6643 -0.9584  1.9291
  149MOL0     H20112  11.468   1.923   8.915  1.4206 -0.1784 -1.3824
  149MOL0     H20113  11.851   1.756   9.036 -0.4877 -2.3179 -1.5675
  149MOL0     H20114  10.984   1.789   9.238 -0.6276  0.1498 -0.0085
  149MOL0     H20115  10.789   1.703   9.347  0.0900 -0.4365 -0.3241
  150MOL0     O20116   6.318   3.879  11.115  0.2264  0.0775  0.1700
  150MOL0     C20117   6.298   3.987  11.161  0.2278 -0.3258  0.2880
  150MOL0     O20118   6.185   4.028  11.212  0.3643 -0.4408 -0.3944
  150MOL0     C20119   6.061   3.960  11.190 -0.3337 -0.1842 -0.0366
  150MOL0     C20120   5.959   4.035  11.248 -0.9413  0.1348  0.1293
  150MOL0     C20121   5.825   3.992  11.242  0.5692 -0.3975  0.9730
  150MOL0     C20122   5.783   3.870  11.185 -0.7492 -0.2815  0.5286
  150MOL0     O20123   5.649   3.831  11.190  0.4053  0.1777 -0.2526
  150MOL0     C20124   5.545   3.910  11.117 -0.3182 -0.0691  0.4909
  150MOL0     C20125   5.467   4.016  11.198 -0.4791 -0.1530 -0.0132
  150MOL0     C20126   5.433   3.971  11.338 -0.3164 -0.6907 -0.7309
  150MOL0     C20127   5.315   3.880  11.344  0.7694  0.1389 -0.2391
  150MOL0     C20128   5.174   3.943  11.328  0.5851  1.0670 -0.0360
  150MOL0     C20129   5.140   4.059  11.429  0.5117  0.3951 -0.7187
  150MOL0     C20130   4.993   4.106  11.412 -0.0156  0.5236  0.7260
  150MOL0     C20131   4.944   4.205  11.516 -0.1413 -0.2628 -0.1832
  150MOL0     N20132   4.952   4.144  11.650  0.0319 -0.2328 -0.7796
  150MOL0     C20133   4.863   4.067  11.725 -0.0053 -0.2569 -0.0229
  150MOL0     C20134   4.919   4.046  11.846 -0.7898 -0.4420 -0.0055
  150MOL0     C20135   4.873   3.968  11.958 -0.2953  0.9229  1.1572
  150MOL0     C20136   4.874   4.035  12.098 -0.8309 -0.8305 -0.0573
  150MOL0     C20137   4.807   4.175  12.090  0.3962  0.4532  0.3872
  150MOL0     C20138   4.661   4.166  12.061  0.5372  0.2566  0.2510
  150MOL0     O20139   4.594   4.055  12.119 -0.3304  0.2286 -0.3279
  150MOL0     C20140   4.466   4.030  12.069 -0.5181 -0.7262 -0.2808
  150MOL0     C20141   4.422   3.899  12.054 -0.3135  0.2115 -0.2614
  150MOL0     C20142   4.289   3.868  12.014 -0.1653  0.2775  0.2450
  150MOL0     C20143   4.268   3.713  11.999  0.2320 -0.4239 -0.1171
  150MOL0     C20144   4.209   3.970  11.960  0.0351  0.2274 -0.5033
  150MOL0     C20145   4.071   3.947  11.908 -0.0437  0.2888  0.5819
  150MOL0     O20146   4.002   4.047  11.855 -0.2725 -0.2491 -0.1788
  150MOL0     C20147   3.868   4.022  11.832 -0.6799 -0.6470 -1.0537
  150MOL0     C20148   3.777   4.004  11.931 -0.2255  0.4747 -0.9229
  150MOL0     C20149   3.637   4.001  11.901  0.0417  0.3402 -0.0255
  150MOL0     C20150   3.601   3.990  11.763 -0.1718 -0.2078  0.2137
  150MOL0     O20151   3.472   3.985  11.721  0.5851  0.4226 -0.3325
  150MOL0     C20152   3.378   3.938  11.827 -0.9282  0.0029  0.6327
  150MOL0     C20153   3.244   3.916  11.752  0.4235 -0.0018 -1.0767
  150MOL0     C20154   3.252   3.795  11.653 -0.0913 -0.7674 -0.4512
  150MOL0     C20155   3.110   3.776  11.589  0.8034 -0.0882 -0.3645
  150MOL0     C20156   3.096   3.644  11.505  0.1920  0.9487  0.5987
  150MOL0     C20157   2.969   3.639  11.415 -0.2448  0.1385 -0.4468
  150MOL0     C20158   2.843   3.604  11.492 -0.4404  0.0430 -0.5385
  150MOL0     C20159   2.725   3.588  11.402  0.2297  0.2495 -0.0112
  150MOL0    Cl20160   2.610   3.464  11.460  0.1683 -0.4552 -0.2314
  150MOL0     C20161   3.699   3.991  11.663  0.3876  0.5448  0.0675
  150MOL0     C20162   3.832   4.019  11.700  0.8030 -0.5742 -0.0446
  150MOL0     O20163   4.031   3.829  11.919 -0.2840  0.2774 -0.6517
  150MOL0     C20164   4.250   4.107  11.975  0.2663  0.2212 -0.4007
  150MOL0     C20165   4.383   4.122  12.018 -0.2305 -0.5643  1.1125
  150MOL0     N20166   5.036   4.115  11.852 -0.5311  0.3881  0.1632
  150MOL0     N20167   5.061   4.162  11.732 -0.2337 -0.1212  0.2808
  150MOL0     C20168   5.889   3.804  11.117 -0.5984 -0.3739 -0.1028
  150MOL0     C20169   6.024   3.849  11.120  0.2489  0.2854 -0.3361
  150MOL0     C20170   6.405   4.090  11.141  0.1068  0.4514  0.5884
  150MOL0     C20171   6.369   4.229  11.123  0.0415  0.1178 -0.5726
  150MOL0     C20172   6.473   4.318  11.122 -0.0957 -0.5758 -0.2069
  150MOL0     C20173   6.613   4.284  11.129  0.5259 -0.0468 -0.4910
  150MOL0     O20174   6.709   4.385  11.120 -0.1509 -0.3292 -0.5981
  150MOL0     C20175   6.748   4.422  10.982  0.0543 -0.1312 -0.5802
  150MOL0     C20176   6.731   4.567  10.957 -0.0905 -0.4162  1.0681
  150MOL0     C20177   6.584   4.616  10.946  0.0762 -0.7182 -0.0217
  150MOL0     C20178   6.574   4.751  10.863 -1.0763 -0.0478  0.7281
  150MOL0     C20179   6.441   4.805  10.836  0.1998  0.1937 -1.0921
  150MOL0     C20180   6.328   4.855  10.833  0.3456  0.2021  0.4245
  150MOL0     C20181   6.650   4.151  11.153  0.1807  0.5160  0.3377
  150MOL0     C20182   6.540   4.056  11.146 -0.2537  0.5023  0.0494
  150MOL0     H20183   5.985   4.132  11.289  1.7260  1.5003 -4.1501
  150MOL0     H20184   5.748   4.056  11.284 -0.4412 -2.0173  1.6719
  150MOL0     H20185   5.576   3.953  11.021  0.4256 -0.2740  0.6370
  150MOL0     H20186   5.467   3.836  11.094  0.1910 -0.2904 -0.6028
  150MOL0     H20187   5.543   4.095  11.204  2.6196 -2.7099 -2.2346
  150MOL0     H20188   5.381   4.042  11.135 -0.9774 -2.8302 -0.5396
  150MOL0     H20189   5.517   3.918  11.384  0.4013  1.3690  0.4350
  150MOL0     H20190   5.403   4.051  11.406 -1.4001 -1.6534 -0.0438
  150MOL0     H20191   5.323   3.792  11.279  0.2483  1.3105 -1.9548
  150MOL0     H20192   5.317   3.849  11.449 -1.5840 -0.6552 -0.3648
  150MOL0     H20193   5.165   3.988  11.228 -1.7912  0.5981 -0.0801
  150MOL0     H20194   5.101   3.863  11.343  1.7246 -0.5873 -2.5463
  150MOL0     H20195   5.146   4.025  11.533 -2.1020  0.3341 -0.5218
  150MOL0     H20196   5.211   4.139  11.406  3.5895 -2.5338 -2.5290
  150MOL0     H20197   4.975   4.165  11.322 -2.1724 -0.7985  0.2149
  150MOL0     H20198   4.922   4.023  11.406  1.8227 -1.1100  0.5261
  150MOL0     H20199   4.842   4.240  11.500 -0.4207 -0.6265  0.7403
  150MOL0     H20200   5.010   4.291  11.504  0.8152 -1.1933 -2.1161
  150MOL0     H20201   4.760   4.044  11.701 -1.3943  4.5793  0.1717
  150MOL0     H20202   4.770   3.933  11.945  0.3093 -2.3072  3.5870
  150MOL0     H20203   4.931   3.875  11.961 -0.1351  1.0433  2.0433
  150MOL0     H20204   4.981   4.050  12.117 -0.0749 -2.5635 -2.4685
  150MOL0     H20205   4.838   3.969  12.178  0.8569  0.5521  1.9685
  150MOL0     H20206   4.854   4.228  12.007 -1.2887 -1.2809 -1.8158
  150MOL0     H20207   4.825   4.232  12.181 -0.7768  0.1771  0.8149
  150MOL0     H20208   4.637   4.162  11.955  0.9444 -1.6340  0.1834
  150MOL0     H20209   4.617   4.256  12.105  0.9813  0.5416  0.1211
  150MOL0     H20210   4.496   3.824  12.080  0.5597  0.9887 -0.4439
  150MOL0     H20211   4.180   3.687  12.059  0.3194  0.9020  0.6184
  150MOL0     H20212   4.242   3.694  11.894 -1.8496  1.2178  0.0334
  150MOL0     H20213   4.357   3.658  12.033 -0.1936  0.0266  1.8176
  150MOL0     H20214   3.811   4.005  12.034  2.1994 -1.3518 -1.5907
  150MOL0     H20215   3.571   4.000  11.986  2.8877 -2.2106  2.3939
  150MOL0     H20216   3.416   3.852  11.881  0.3398 -0.6915 -1.2633
  150MOL0     H20217   3.363   4.022  11.896  1.2282  1.0858 -0.1266
  150MOL0     H20218   3.161   3.914  11.824 -0.7368 -1.1291 -2.3881
  150MOL0     H20219   3.217   4.002  11.690 -0.3854  1.9807  1.7863
  150MOL0     H20220   3.293   3.704  11.698 -0.3159  0.2329  1.8851
  150MOL0     H20221   3.315   3.819  11.566  0.2817 -2.3699 -0.6575
  150MOL0     H20222   3.035   3.777  11.669  0.1001 -1.7809 -0.9488
  150MOL0     H20223   3.074   3.868  11.542  1.6819  0.6136  0.2997
  150MOL0     H20224   3.110   3.552  11.563  1.8606  0.4503 -0.5104
  150MOL0     H20225   3.175   3.654  11.429 -1.3582 -0.5117 -1.3083
  150MOL0     H20226   2.964   3.741  11.377 -0.2264  0.3162  0.0243
  150MOL0     H20227   2.984   3.564  11.336  3.5593 -0.5323  0.7070
  150MOL0     H20228   2.830   3.677  11.573 -2.2353  0.1323 -0.8783
  150MOL0     H20229   2.850   3.509  11.545  0.2454  1.2644  1.6930
  150MOL0     H20230   2.761   3.570  11.300  0.6632  0.0716  0.1728
  150MOL0     H20231   2.680   3.687  11.384  2.2191  1.1013 -0.6113
  150MOL0     H20232   3.667   3.975  11.561 -1.5021  0.6450  0.6061
  150MOL0     H20233   3.907   4.045  11.626  0.4594 -2.4824 -1.1344
  150MOL0     H20234   4.191   4.191  11.941 -1.1628  0.0103  1.4329
  150MOL0     H20235   4.418   4.225  12.013 -0.3882 -0.5382  0.5097
  150MOL0     H20236   5.861   3.706  11.078  0.1773 -1.5126  2.0219
  150MOL0     H20237   6.103   3.801  11.062  0.8673  2.6300 -1.5628
  150MOL0     H20238   6.268   4.266  11.111  0.1858  0.8622  0.3539
  150MOL0     H20239   6.449   4.424  11.129  3.3890  0.4464 -1.5854
  150MOL0     H20240   6.852   4.389  10.973  0.6137  1.2803  0.3855
  150MOL0     H20241   6.694   4.373  10.901 -1.0113  0.7375 -0.4214
  150MOL0     H20242   6.783   4.580  10.861 -4.8507 -0.5628 -1.8469
  150MOL0     H20243   6.786   4.630  11.028  1.3095 -0.4750  0.0843
  150MOL0     H20244   6.550   4.616  11.050  0.3347  0.6182  0.0822
  150MOL0     H20245   6.533   4.533  10.897 -1.3302 -0.0408  0.2485
  150MOL0     H20246   6.614   4.725  10.765 -1.0623 -2.7118  1.3710
  150MOL0     H20247   6.635   4.833  10.903 -2.2831  0.7817  0.9247
  150MOL0     H20248   6.239   4.914  10.823  1.4658  1.7426 -1.1430
  150MOL0     H20249   6.753   4.118  11.161 -0.3618 -0.8974  2.1207
  150MOL0     H20250   6.570   3.953  11.164 -1.4530 -0.2688 -2.0239
  151MOL0     O20251   5.409   7.932   1.397 -0.0573 -0.3112  0.2136
  151MOL0     C20252   5.500   7.877   1.455 -1.0970 -0.1091  0.3510
  151MOL0     O20253   5.500   7.756   1.521 -0.2161  0.1926  0.5279
  151MOL0     C20254   5.381   7.684   1.514 -0.0811  1.2373  0.0100
  151MOL0     C20255   5.385   7.559   1.464  0.2379  0.2186 -0.1600
  151MOL0     C20256   5.272   7.474   1.475 -0.2261 -0.1796  0.2330
  151MOL0     C20257   5.163   7.512   1.558  0.2987 -0.2945  0.2264
  151MOL0     O20258   5.073   7.414   1.559 -0.2570 -0.2729  0.0909
  151MOL0     C20259   4.930   7.435   1.567 -0.0497 -0.5274  0.5908
  151MOL0     C20260   4.854   7.302   1.544 -0.6551 -0.7553 -0.8850
  151MOL0     C20261   4.827   7.236   1.684  0.2884  0.0595 -0.7871
  151MOL0     C20262   4.744   7.108   1.666  0.1689  0.3144  0.3823
  151MOL0     C20263   4.716   7.043   1.799 -0.0894  0.1512 -0.3533
  151MOL0     C20264   4.666   7.140   1.912 -0.4097  0.2022 -0.4922
  151MOL0     C20265   4.542   7.213   1.874  0.1191  0.6723 -0.7637
  151MOL0     C20266   4.427   7.128   1.856 -0.3566  1.2752  0.4150
  151MOL0     N20267   4.313   7.215   1.851 -0.2008  0.3279  0.1712
  151MOL0     C20268   4.291   7.324   1.773 -0.6834  0.3382  0.6694
  151MOL0     C20269   4.174   7.373   1.809 -0.7757  0.4027  0.3058
  151MOL0     C20270   4.117   7.498   1.750  0.8816 -0.0753 -0.0922
  151MOL0     C20271   4.019   7.484   1.636  0.4898  0.5216  0.6515
  151MOL0     C20272   4.089   7.446   1.497  0.2708 -0.0214 -0.3583
  151MOL0     C20273   4.001   7.465   1.383  0.4439 -0.8310  0.1925
  151MOL0     O20274   3.897   7.376   1.377 -0.3042 -0.3868 -0.2119
  151MOL0     C20275   3.765   7.414   1.399 -0.0778  0.9671  0.6494
  151MOL0     C20276   3.665   7.323   1.367 -0.4455 -0.1552  0.1391
  151MOL0     C20277   3.529   7.356   1.363 -0.1345 -0.1857 -0.5061
  151MOL0     C20278   3.435   7.252   1.314 -0.0881 -0.5354  0.1098
  151MOL0     C20279   3.491   7.486   1.405 -0.3094  0.6374 -0.6007
  151MOL0     C20280   3.348   7.535   1.415 -0.1040  0.8947  0.2803
  151MOL0     O20281   3.245   7.447   1.398 -0.0033 -0.6420  0.1075
  151MOL0     C20282   3.107   7.478   1.411 -0.8538  0.2884 -0.7006
  151MOL0     C20283   3.038   7.598   1.416 -0.0611  0.2676  0.0835
  151MOL0     C20284   2.898   7.613   1.439  0.6545  0.3294  0.7203
  151MOL0     C20285   2.823   7.497   1.447  0.2343  0.8076 -0.1947
  151MOL0     O20286   2.687   7.514   1.459  0.5678 -0.2186 -0.1727
  151MOL0     C20287   2.605   7.395   1.443  0.4981  0.6242 -0.2858
  151MOL0     C20288   2.457   7.432   1.467  0.4204  0.4512  0.2470
  151MOL0     C20289   2.352   7.322   1.451  0.5601 -0.2821  0.3292
  151MOL0     C20290   2.212   7.384   1.481 -0.5328 -0.1580  0.1826
  151MOL0     C20291   2.108   7.272   1.469 -0.5738 -0.8029 -0.4584
  151MOL0     C20292   1.969   7.314   1.524 -0.1485  0.4364  0.3026
  151MOL0     C20293   1.886   7.189   1.535  0.0820 -0.3571  0.0095
  151MOL0     C20294   1.744   7.223   1.589 -0.0151 -0.1409 -0.8062
  151MOL0    Cl20295   1.633   7.098   1.543 -0.0517  0.3009 -0.0662
  151MOL0     C20296   2.897   7.375   1.445  0.7392  0.0885 -0.0903
  151MOL0     C20297   3.030   7.370   1.431 -0.0299  0.5255  0.0055
  151MOL0     O20298   3.328   7.654   1.438 -0.0179  0.4802 -0.4601
  151MOL0     C20299   3.593   7.578   1.444 -0.5356  0.4309  0.3724
  151MOL0     C20300   3.727   7.539   1.442 -0.0578 -0.0663 -0.6956
  151MOL0     N20301   4.120   7.289   1.904 -0.7335  0.0083 -0.2178
  151MOL0     N20302   4.207   7.204   1.936 -0.6225 -0.4984  0.1094
  151MOL0     C20303   5.162   7.637   1.618 -0.3321 -0.6893  0.5876
  151MOL0     C20304   5.268   7.726   1.585 -0.2151 -0.1222  0.5408
  151MOL0     C20305   5.630   7.946   1.461  0.2768 -0.7453 -0.3111
  151MOL0     C20306   5.745   7.868   1.486  0.0322  1.0926 -0.1315
  151MOL0     C20307   5.873   7.927   1.459  0.6700 -0.1012  0.1344
  151MOL0     C20308   5.886   8.066   1.447  0.6011 -0.9449  0.5418
  151MOL0     O20309   6.014   8.123   1.432  1.1358  0.3621  0.6126
  151MOL0     C20310   6.036   8.263   1.423  0.1233  0.3549 -0.9628
  151MOL0     C20311   6.039   8.299   1.274  0.4906 -0.2484  0.0965
  151MOL0     C20312   6.093   8.439   1.245  0.8144 -0.2423  0.2010
  151MOL0     C20313   6.241   8.430   1.199 -0.0536  0.4461  0.0584
  151MOL0     C20314   6.344   8.404   1.296  0.3401 -0.2155 -0.5430
  151MOL0     C20315   6.440   8.377   1.372 -0.0623  0.2063  0.2104
  151MOL0     C20316   5.772   8.143   1.428  0.8540 -0.2324  0.2422
  151MOL0     C20317   5.646   8.080   1.428 -0.1650 -0.5349 -0.2220
  151MOL0     H20318   5.477   7.512   1.431 -0.6565 -1.7686  0.0050
  151MOL0     H20319   5.278   7.367   1.458 -1.5117 -0.1018 -0.8193
  151MOL0     H20320   4.902   7.476   1.664  0.3152 -2.9061  1.7714
  151MOL0     H20321   4.902   7.508   1.490 -0.8434 -0.2122  1.1588
  151MOL0     H20322   4.762   7.323   1.489 -0.9042  2.2086  0.4854
  151MOL0     H20323   4.924   7.246   1.481  1.7899  3.1239 -2.0422
  151MOL0     H20324   4.922   7.209   1.733 -0.7982 -0.7892  0.9467
  151MOL0     H20325   4.774   7.306   1.749 -1.1989 -2.2706  0.6377
  151MOL0     H20326   4.652   7.140   1.614  0.3177  1.7926  0.9811
  151MOL0     H20327   4.794   7.038   1.598 -3.8982 -1.2025 -1.3729
  151MOL0     H20328   4.646   6.960   1.789  0.3571 -0.2855  0.1047
  151MOL0     H20329   4.809   6.991   1.827  1.2302  3.2034  1.4594
  151MOL0     H20330   4.644   7.075   1.997  2.5631 -3.1455 -2.0371
  151MOL0     H20331   4.743   7.211   1.945 -2.4582  1.4204  2.0195
  151MOL0     H20332   4.522   7.270   1.966 -0.5476  0.0279 -0.4949
  151MOL0     H20333   4.560   7.279   1.789  1.9929 -1.1898 -1.8846
  151MOL0     H20334   4.426   7.044   1.925 -2.1439  0.9499  0.0417
  151MOL0     H20335   4.439   7.092   1.753  0.9407 -1.2273  1.3459
  151MOL0     H20336   4.363   7.361   1.701  2.2718  0.7992  3.6120
  151MOL0     H20337   4.053   7.537   1.830 -0.1910 -0.4223 -0.7530
  151MOL0     H20338   4.193   7.566   1.712 -1.4045  1.0058 -3.1204
  151MOL0     H20339   3.970   7.582   1.630 -1.1714 -0.3121 -0.0412
  151MOL0     H20340   3.947   7.404   1.655  1.1915 -0.9106 -2.2021
  151MOL0     H20341   4.123   7.342   1.494  0.2779  0.0008 -1.2114
  151MOL0     H20342   4.172   7.517   1.485  0.0266  0.1528 -1.0053
  151MOL0     H20343   4.058   7.442   1.293  0.9566  2.8288 -0.5823
  151MOL0     H20344   3.969   7.570   1.375  0.4959 -0.8719 -0.5636
  151MOL0     H20345   3.694   7.225   1.330 -1.1591 -1.2225  2.1942
  151MOL0     H20346   3.497   7.174   1.267  1.8164  1.0388 -0.1246
  151MOL0     H20347   3.386   7.206   1.400 -2.8890 -0.3266 -1.2713
  151MOL0     H20348   3.346   7.280   1.257 -0.1148  1.8081  1.2103
  151MOL0     H20349   3.090   7.691   1.397 -0.5315 -0.0287 -3.2796
  151MOL0     H20350   2.848   7.709   1.439 -0.2962 -0.1509  1.1015
  151MOL0     H20351   2.611   7.348   1.345 -1.4887 -0.1155 -0.0955
  151MOL0     H20352   2.633   7.324   1.522  2.0913 -0.3809 -1.6648
  151MOL0     H20353   2.451   7.467   1.570 -3.0469  0.3407  0.2193
  151MOL0     H20354   2.428   7.515   1.401  0.5378 -1.6367 -2.6084
  151MOL0     H20355   2.377   7.249   1.529  1.0197 -0.6146 -0.1238
  151MOL0     H20356   2.355   7.280   1.350  2.5821  1.0127 -0.2077
  151MOL0     H20357   2.209   7.434   1.579  3.2647 -0.5009  0.6282
  151MOL0     H20358   2.185   7.457   1.404 -1.4669  0.8325  1.3946
  151MOL0     H20359   2.140   7.189   1.533 -0.3054  0.0505  0.5398
  151MOL0     H20360   2.109   7.239   1.364  1.2131 -0.6900 -0.5129
  151MOL0     H20361   1.981   7.368   1.618 -0.1908 -0.7596  1.0168
  151MOL0     H20362   1.915   7.384   1.459 -1.3296  0.0349  0.8272
  151MOL0     H20363   1.941   7.122   1.602  2.1760  1.8388  0.6347
  151MOL0     H20364   1.867   7.147   1.435  0.3071 -1.7174  0.5146
  151MOL0     H20365   1.702   7.314   1.545  0.5202 -0.2336 -1.5257
  151MOL0     H20366   1.743   7.239   1.698 -0.6406  1.8806 -1.0616
  151MOL0     H20367   2.851   7.278   1.430 -1.4442  0.9464  0.6974
  151MOL0     H20368   3.069   7.269   1.423 -2.6984 -0.6546  0.8154
  151MOL0     H20369   3.576   7.680   1.474  2.8539  1.5836 -1.1361
  151MOL0     H20370   3.798   7.618   1.464 -0.9633  0.2933  1.1092
  151MOL0     H20371   5.086   7.663   1.690  0.1294  3.5252 -0.2248
  151MOL0     H20372   5.255   7.827   1.620 -1.0490  0.5130 -1.4573
  151MOL0     H20373   5.746   7.762   1.506  0.5578  0.9034 -1.0917
  151MOL0     H20374   5.967   7.873   1.455 -0.2865 -2.0512  2.0857
  151MOL0     H20375   5.966   8.316   1.488 -1.6757 -2.0966 -0.7298
  151MOL0     H20376   6.137   8.278   1.462  0.2099  1.2273 -1.5071
  151MOL0     H20377   5.941   8.301   1.226  2.0137 -0.8481 -3.2935
  151MOL0     H20378   6.090   8.218   1.223 -1.5744 -0.4211 -1.8338
  151MOL0     H20379   6.085   8.501   1.335  0.3197 -1.0906  0.7556
  151MOL0     H20380   6.030   8.472   1.163 -1.8013  2.0170  2.9178
  151MOL0     H20381   6.269   8.522   1.147 -2.5807  1.1764 -0.1526
  151MOL0     H20382   6.243   8.357   1.118 -1.5055 -0.3692  0.7162
  151MOL0     H20383   6.511   8.353   1.448  1.8739 -0.5700 -1.7178
  151MOL0     H20384   5.760   8.248   1.407 -1.2897 -0.4934 -0.1088
  151MOL0     H20385   5.553   8.132   1.409  1.4823  1.9589 -2.0004
  152MOL0     O20386   6.972   6.167   7.837 -0.0861  0.0207 -0.4746
  152MOL0     C20387   7.055   6.103   7.773  1.1048  0.3794 -0.0325
  152MOL0     O20388   7.053   5.975   7.746  0.3581  0.5352 -0.0053
  152MOL0     C20389   6.954   5.912   7.818  0.4716 -0.0679  0.3665
  152MOL0     C20390   7.002   5.848   7.933 -0.3187 -0.2473  0.0131
  152MOL0     C20391   6.904   5.796   8.015 -0.6367 -0.1554  0.2381
  152MOL0     C20392   6.774   5.786   7.974  0.0371  0.4715 -0.5505
  152MOL0     O20393   6.679   5.712   8.037 -0.6412  0.4852 -0.0109
  152MOL0     C20394   6.711   5.646   8.160 -0.6170  0.0211 -0.3957
  152MOL0     C20395   6.601   5.553   8.191  0.4617  0.4682 -0.2295
  152MOL0     C20396   6.465   5.625   8.213  0.3479 -0.0179 -0.3421
  152MOL0     C20397   6.360   5.531   8.251 -0.0365  0.6744 -0.1528
  152MOL0     C20398   6.232   5.602   8.305 -1.0088  1.2431 -0.9517
  152MOL0     C20399   6.107   5.507   8.320  0.0752  0.3012 -0.2063
  152MOL0     C20400   5.977   5.575   8.374  0.0674 -0.2572 -0.0201
  152MOL0     C20401   5.862   5.495   8.322  0.5724 -0.5301 -0.0627
  152MOL0     N20402   5.735   5.549   8.369 -0.2187  0.0764 -0.2273
  152MOL0     C20403   5.658   5.642   8.304  0.4033  0.0863 -0.1810
  152MOL0     C20404   5.563   5.681   8.394 -1.1255  0.0102  1.3040
  152MOL0     C20405   5.459   5.788   8.378 -0.1492  0.1145 -0.0405
  152MOL0     C20406   5.464   5.874   8.508  1.0652 -0.2605  1.2748
  152MOL0     C20407   5.377   6.005   8.480  0.0793  0.1888 -0.4930
  152MOL0     C20408   5.347   6.088   8.611 -0.1209  0.5401  0.1420
  152MOL0     O20409   5.261   6.020   8.705 -0.3753  0.0161  0.2546
  152MOL0     C20410   5.124   6.048   8.690  0.7675  0.1469 -0.5635
  152MOL0     C20411   5.062   6.126   8.591 -0.0543 -0.0665  0.4877
  152MOL0     C20412   4.926   6.145   8.581  0.3045  0.3960 -0.0024
  152MOL0     C20413   4.877   6.252   8.483  0.4341 -0.1559 -0.0575
  152MOL0     C20414   4.847   6.083   8.688  0.1067 -0.4693  0.4421
  152MOL0     C20415   4.702   6.102   8.701 -1.0666 -0.6356 -0.0150
  152MOL0     O20416   4.652   6.051   8.824 -0.5649 -0.1004  0.9063
  152MOL0     C20417   4.518   6.088   8.842 -0.7974  0.7319 -0.6994
  152MOL0     C20418   4.443   5.996   8.916  0.4464 -0.0831 -0.5651
  152MOL0     C20419   4.317   6.030   8.968  0.3809 -0.1496 -0.4790
  152MOL0     C20420   4.262   6.152   8.939  1.1864 -0.4608 -1.0269
  152MOL0     O20421   4.133   6.165   8.990  1.0651  0.3160  0.2285
  152MOL0     C20422   4.068   6.282   8.929 -0.3293 -0.2540 -0.0984
  152MOL0     C20423   3.926   6.325   8.981  0.1834  0.6810  0.1674
  152MOL0     C20424   3.823   6.207   8.957  0.0101  0.4788 -0.3080
  152MOL0     C20425   3.669   6.249   8.964  0.2172  0.3424  0.0059
  152MOL0     C20426   3.606   6.261   9.110 -0.5176  1.0070 -0.3092
  152MOL0     C20427   3.609   6.132   9.186  0.8824  0.4103  0.8356
  152MOL0     C20428   3.518   6.126   9.306  0.5467 -0.3867  0.4525
  152MOL0     C20429   3.493   5.983   9.362 -0.6021 -0.5391 -0.3469
  152MOL0    Cl20430   3.413   5.873   9.253  0.0381 -0.0938  0.0007
  152MOL0     C20431   4.334   6.250   8.865  0.5991 -0.3847 -0.9394
  152MOL0     C20432   4.454   6.214   8.812  0.1784  0.1433 -0.6341
  152MOL0     O20433   4.643   6.155   8.609  0.2013 -0.3392 -1.2794
  152MOL0     C20434   4.901   6.006   8.791 -0.4926 -0.1678 -0.5903
  152MOL0     C20435   5.041   5.986   8.790  0.2354 -1.0509  0.7934
  152MOL0     N20436   5.593   5.624   8.513  0.3948 -0.4298  0.6222
  152MOL0     N20437   5.699   5.553   8.505  0.0014 -0.2577 -0.8081
  152MOL0     C20438   6.735   5.840   7.857 -0.6889 -0.0019  0.5975
  152MOL0     C20439   6.828   5.903   7.775  0.6336 -0.5483  0.2594
  152MOL0     C20440   7.168   6.175   7.707 -0.1482 -0.3823  1.0706
  152MOL0     C20441   7.196   6.311   7.735 -0.3101 -0.0358  1.0277
  152MOL0     C20442   7.289   6.374   7.658  0.0150 -0.1699  0.1688
  152MOL0     C20443   7.378   6.312   7.568 -0.2456 -0.7239  1.0558
  152MOL0     O20444   7.491   6.386   7.525 -0.0685  0.0732  0.1314
  152MOL0     C20445   7.572   6.329   7.419 -0.3842 -0.2046  0.8303
  152MOL0     C20446   7.689   6.417   7.385  0.0444 -0.0162 -0.2171
  152MOL0     C20447   7.792   6.350   7.290  0.0680 -0.3470  0.4149
  152MOL0     C20448   7.870   6.450   7.193 -0.3706 -0.3781  0.2959
  152MOL0     C20449   7.945   6.544   7.268 -0.8703 -0.4435  1.0082
  152MOL0     C20450   8.015   6.614   7.348 -0.5288  0.9263  0.5971
  152MOL0     C20451   7.354   6.184   7.546 -0.1812  0.0931  0.6180
  152MOL0     C20452   7.251   6.113   7.614 -0.7072 -0.0995  0.1141
  152MOL0     H20453   7.103   5.850   7.973 -1.1902 -0.7026  2.3463
  152MOL0     H20454   6.938   5.741   8.103 -2.2792 -1.1363  0.3059
  152MOL0     H20455   6.805   5.592   8.152  0.3087  1.8145 -2.8379
  152MOL0     H20456   6.717   5.713   8.246  0.3924 -2.2723  1.4262
  152MOL0     H20457   6.590   5.476   8.115 -0.4109 -1.2066  1.5111
  152MOL0     H20458   6.612   5.496   8.284 -1.6370  0.0309 -0.2128
  152MOL0     H20459   6.482   5.707   8.283 -0.1807  1.3573 -1.7665
  152MOL0     H20460   6.442   5.676   8.119  0.4002  0.1026 -0.2894
  152MOL0     H20461   6.329   5.469   8.167 -0.0055 -0.7375  0.8384
  152MOL0     H20462   6.401   5.459   8.323  3.2122  3.2223  0.8133
  152MOL0     H20463   6.251   5.627   8.410  1.4032  1.3196 -1.3318
  152MOL0     H20464   6.210   5.689   8.242  2.1589  1.9178 -1.3360
  152MOL0     H20465   6.097   5.445   8.230 -0.0710  2.4502 -1.7435
  152MOL0     H20466   6.136   5.427   8.389  0.4389  0.0823 -0.6047
  152MOL0     H20467   5.979   5.581   8.484 -1.1782  1.8452 -0.0525
  152MOL0     H20468   5.980   5.677   8.334  1.1238 -1.2579 -2.6924
  152MOL0     H20469   5.878   5.398   8.370  1.2373  0.5628  2.0322
  152MOL0     H20470   5.860   5.503   8.213 -2.2850  0.4234 -0.0361
  152MOL0     H20471   5.654   5.659   8.197 -0.6138  1.5723  0.0627
  152MOL0     H20472   5.482   5.858   8.297 -0.8843 -0.5607 -0.8542
  152MOL0     H20473   5.363   5.737   8.365 -0.0721 -1.1569  3.3076
  152MOL0     H20474   5.565   5.909   8.534  0.1577  2.0971  1.8850
  152MOL0     H20475   5.419   5.811   8.585  0.8024 -1.8164 -0.0949
  152MOL0     H20476   5.285   5.958   8.443 -2.0091  2.2922  1.6286
  152MOL0     H20477   5.422   6.070   8.404  2.0245 -0.0448  0.3970
  152MOL0     H20478   5.317   6.191   8.590 -0.6923  0.9243  2.5979
  152MOL0     H20479   5.446   6.102   8.654 -0.7763  1.2072  1.4830
  152MOL0     H20480   5.130   6.180   8.526  2.4159 -1.9812  1.3649
  152MOL0     H20481   4.841   6.209   8.389  1.4884 -0.9691 -0.1054
  152MOL0     H20482   4.808   6.329   8.520  2.0225  0.4876  1.6807
  152MOL0     H20483   4.966   6.308   8.451  0.1653  1.1537  1.3779
  152MOL0     H20484   4.480   5.899   8.948  1.4179 -0.6493 -3.1543
  152MOL0     H20485   4.280   5.939   9.013 -0.3660  0.1003 -0.5875
  152MOL0     H20486   4.128   6.370   8.954 -2.7451  0.5729  3.5518
  152MOL0     H20487   4.083   6.267   8.822  1.1147  0.8958 -0.1022
  152MOL0     H20488   3.921   6.347   9.088  1.0888 -2.4963  0.9886
  152MOL0     H20489   3.877   6.402   8.921 -0.4811 -0.5507 -0.9407
  152MOL0     H20490   3.831   6.121   9.024 -0.4258  0.1783 -0.6351
  152MOL0     H20491   3.836   6.169   8.856 -2.9492  0.2034 -0.6764
  152MOL0     H20492   3.656   6.344   8.910 -2.3799  0.4706  0.6911
  152MOL0     H20493   3.605   6.172   8.919 -1.9598  0.7825  2.1415
  152MOL0     H20494   3.504   6.299   9.104 -0.4766  1.1078 -0.3817
  152MOL0     H20495   3.654   6.336   9.174 -2.9589  2.6451 -0.2761
  152MOL0     H20496   3.581   6.048   9.123  0.6608 -0.3196  1.8744
  152MOL0     H20497   3.708   6.122   9.233  1.4505  1.7590  0.0016
  152MOL0     H20498   3.424   6.169   9.271 -0.1328 -1.5163  0.8118
  152MOL0     H20499   3.563   6.190   9.382  0.3037 -2.4295  2.4459
  152MOL0     H20500   3.445   5.999   9.459  4.4547  1.9977  2.1369
  152MOL0     H20501   3.587   5.942   9.399 -0.1681 -0.2073 -1.0636
  152MOL0     H20502   4.286   6.335   8.816  3.1963  1.2048 -0.8968
  152MOL0     H20503   4.491   6.293   8.746 -2.5897  0.5129 -1.8944
  152MOL0     H20504   4.838   5.961   8.867 -2.3632  1.1102 -1.3134
  152MOL0     H20505   5.082   5.927   8.872  2.5733 -0.8257 -0.1638
  152MOL0     H20506   6.632   5.819   7.831  0.3498 -4.3851 -0.9320
  152MOL0     H20507   6.791   5.957   7.689  2.6774  0.4908 -0.0390
  152MOL0     H20508   7.141   6.372   7.806  0.7719  2.0024  0.2226
  152MOL0     H20509   7.311   6.477   7.685  0.8662 -0.6969  1.6433
  152MOL0     H20510   7.606   6.228   7.443 -2.9234 -1.0949  1.0686
  152MOL0     H20511   7.512   6.318   7.328  1.1305 -0.2099 -0.1879
  152MOL0     H20512   7.743   6.430   7.478  2.0866 -3.0374 -0.8579
  152MOL0     H20513   7.645   6.504   7.334  0.3303 -0.0705 -0.5591
  152MOL0     H20514   7.743   6.282   7.219 -1.3943  1.3700 -0.2874
  152MOL0     H20515   7.870   6.296   7.343  0.4914 -1.4395 -1.2315
  152MOL0     H20516   7.804   6.492   7.117 -1.4693 -2.1369  0.2396
  152MOL0     H20517   7.943   6.398   7.130 -0.0981 -0.5448  0.7428
  152MOL0     H20518   8.078   6.683   7.402  0.4613  1.0934 -0.7415
  152MOL0     H20519   7.418   6.127   7.480  1.3536  3.8741 -1.4343
  152MOL0     H20520   7.242   6.006   7.595 -0.5902 -0.0471 -0.2464
  153MOL0     O20521   7.256   6.805   8.527 -0.2565  0.2827 -0.0767
  153MOL0     C20522   7.241   6.923   8.569 -0.1590  0.4639  0.8370
  153MOL0     O20523   7.344   7.017   8.575  0.1976 -0.1696 -0.1187
  153MOL0     C20524   7.474   6.976   8.547  0.5786 -0.8036  0.2499
  153MOL0     C20525   7.553   7.054   8.463  0.1474 -0.3142 -0.2400
  153MOL0     C20526   7.676   7.008   8.421  0.1384  0.0636 -0.5455
  153MOL0     C20527   7.739   6.894   8.479  0.5344  0.7772 -0.1734
  153MOL0     O20528   7.868   6.865   8.458 -0.2935 -0.7828 -0.8855
  153MOL0     C20529   7.926   6.897   8.338 -0.2865 -0.2456  0.4260
  153MOL0     C20530   8.057   6.823   8.320  0.5938  0.2935 -0.0007
  153MOL0     C20531   8.170   6.902   8.395  0.6825  0.7494 -0.1479
  153MOL0     C20532   8.305   6.835   8.358 -0.8511  0.7947  0.2618
  153MOL0     C20533   8.418   6.871   8.461  0.0203 -0.0628  0.8352
  153MOL0     C20534   8.550   6.859   8.392 -0.4456  0.5450 -0.1696
  153MOL0     C20535   8.668   6.842   8.491 -0.2510 -0.2552 -0.2048
  153MOL0     C20536   8.705   6.967   8.578  0.3103  1.1351 -0.1477
  153MOL0     N20537   8.621   6.968   8.699 -0.7825 -0.3569 -0.4377
  153MOL0     C20538   8.629   6.876   8.796  0.1565 -0.0642 -0.2708
  153MOL0     C20539   8.527   6.897   8.883 -0.4024 -0.3713  0.2459
  153MOL0     C20540   8.484   6.804   8.994  0.8058 -0.3294  0.6684
  153MOL0     C20541   8.335   6.770   8.980 -1.2058  0.3871 -0.6635
  153MOL0     C20542   8.285   6.692   9.104 -0.2884  0.1262 -0.8385
  153MOL0     C20543   8.306   6.535   9.091  0.5821  0.7240  0.1440
  153MOL0     O20544   8.442   6.491   9.084  0.8250 -0.3143  0.7870
  153MOL0     C20545   8.490   6.375   9.026 -0.7923  0.8340 -0.0487
  153MOL0     C20546   8.627   6.364   8.998 -0.3696 -0.2464  1.1497
  153MOL0     C20547   8.680   6.255   8.917  0.3912 -0.8254 -0.9363
  153MOL0     C20548   8.826   6.265   8.878 -0.1313 -0.0873 -0.5679
  153MOL0     C20549   8.600   6.144   8.894  0.3197  0.6788 -0.4746
  153MOL0     C20550   8.646   6.018   8.840  0.7856 -0.2096 -0.5053
  153MOL0     O20551   8.550   5.915   8.820 -0.3245 -0.3109  0.0135
  153MOL0     C20552   8.584   5.787   8.795 -0.5869  0.0248  0.0728
  153MOL0     C20553   8.514   5.689   8.867 -0.2471 -0.8208  0.4864
  153MOL0     C20554   8.563   5.557   8.867  0.3099 -0.5374  0.6085
  153MOL0     C20555   8.674   5.517   8.788  0.1894 -0.6003 -0.6013
  153MOL0     O20556   8.691   5.380   8.787  0.0205  0.2165 -0.5594
  153MOL0     C20557   8.824   5.335   8.765 -0.5684 -0.0141 -0.1411
  153MOL0     C20558   8.842   5.297   8.619 -0.7433 -0.4861  0.5796
  153MOL0     C20559   8.982   5.246   8.585 -0.6635  0.4705  0.1617
  153MOL0     C20560   9.088   5.346   8.626  0.4010 -0.4527 -0.0859
  153MOL0     C20561   9.238   5.291   8.608  0.6336 -0.7395  0.3764
  153MOL0     C20562   9.274   5.188   8.718 -0.0195 -0.6943  0.1522
  153MOL0     C20563   9.421   5.154   8.711  0.3082  0.6360 -0.3260
  153MOL0     C20564   9.500   5.252   8.793  0.8272  1.3982 -0.2382
  153MOL0    Cl20565   9.480   5.193   8.965  0.1893 -0.4240  0.2547
  153MOL0     C20566   8.741   5.620   8.720 -0.4021 -0.7259  0.2744
  153MOL0     C20567   8.692   5.750   8.715 -0.0691  0.2180  0.5001
  153MOL0     O20568   8.766   5.998   8.825  0.0684  0.3357 -0.2777
  153MOL0     C20569   8.460   6.157   8.920  0.1531  0.2832  0.7552
  153MOL0     C20570   8.408   6.269   8.987  0.7017  0.3702  0.3953
  153MOL0     N20571   8.462   7.008   8.832  0.3648  0.0533  0.5109
  153MOL0     N20572   8.517   7.053   8.733 -0.4664  0.0806  0.2073
  153MOL0     C20573   7.665   6.815   8.563 -0.1041 -0.7071 -0.0033
  153MOL0     C20574   7.536   6.866   8.601 -0.4484  0.0846 -0.7646
  153MOL0     C20575   7.106   6.955   8.610  0.6549  0.4287  0.1582
  153MOL0     C20576   7.076   7.061   8.701 -0.2381  0.0534  0.5565
  153MOL0     C20577   6.944   7.095   8.737 -0.6182 -0.0425  0.9047
  153MOL0     C20578   6.834   7.030   8.670 -0.6132 -0.5634 -0.7348
  153MOL0     O20579   6.701   7.064   8.689 -0.3452 -0.4715  0.3632
  153MOL0     C20580   6.588   7.010   8.614  0.1495 -0.0044  0.7065
  153MOL0     C20581   6.457   7.064   8.666  0.6598 -0.5974  0.1530
  153MOL0     C20582   6.336   7.022   8.577 -0.9120 -0.4012 -0.9120
  153MOL0     C20583   6.200   7.059   8.646  0.0534 -0.0938  0.5311
  153MOL0     C20584   6.090   6.999   8.577 -0.8665  0.7561  0.5207
  153MOL0     C20585   6.013   6.944   8.502 -0.2394 -0.2699  0.0624
  153MOL0     C20586   6.870   6.916   8.591  0.4566 -0.1354  0.0963
  153MOL0     C20587   7.001   6.875   8.569  1.1736  0.0286 -0.6015
  153MOL0     H20588   7.507   7.143   8.422 -0.7738 -1.8672 -2.8514
  153MOL0     H20589   7.743   7.064   8.355  0.8051 -0.5819 -0.4294
  153MOL0     H20590   7.862   6.861   8.257 -2.6624  2.4997  0.9098
  153MOL0     H20591   7.945   7.001   8.310 -1.2439 -0.5487 -1.5828
  153MOL0     H20592   8.055   6.721   8.361  1.7568 -0.4127 -1.5961
  153MOL0     H20593   8.084   6.811   8.215  2.4692  0.1605  0.4607
  153MOL0     H20594   8.172   7.008   8.367  1.9997  1.0412  0.9320
  153MOL0     H20595   8.160   6.897   8.504 -2.7984 -0.6376 -0.4342
  153MOL0     H20596   8.311   6.726   8.366  0.8486  0.7659 -0.8934
  153MOL0     H20597   8.334   6.869   8.258 -0.3023 -0.7231 -0.1267
  153MOL0     H20598   8.411   6.973   8.500  0.0322 -0.0188  0.7231
  153MOL0     H20599   8.418   6.799   8.543 -0.6097 -0.2049  0.7114
  153MOL0     H20600   8.546   6.772   8.326 -2.0178 -0.4850  1.1939
  153MOL0     H20601   8.576   6.948   8.334  2.3774 -1.2214 -1.8254
  153MOL0     H20602   8.654   6.758   8.560 -0.6934  0.3503  0.4568
  153MOL0     H20603   8.759   6.824   8.432 -2.8188  0.4641 -4.8750
  153MOL0     H20604   8.709   7.055   8.512  3.7577  0.4913 -0.9850
  153MOL0     H20605   8.805   6.969   8.621  0.0730 -1.2593  0.6349
  153MOL0     H20606   8.704   6.798   8.795 -0.3688 -0.6460  1.8471
  153MOL0     H20607   8.544   6.713   9.003  0.7102 -0.4391  0.1927
  153MOL0     H20608   8.503   6.858   9.088  0.5576 -0.5514  0.8490
  153MOL0     H20609   8.319   6.715   8.887  1.8855 -1.3385 -0.3127
  153MOL0     H20610   8.285   6.867   8.971 -1.6457  0.2198 -0.0527
  153MOL0     H20611   8.177   6.690   9.117 -0.1658 -0.5692  0.1657
  153MOL0     H20612   8.327   6.727   9.199  1.7172 -4.1260  0.0743
  153MOL0     H20613   8.263   6.500   8.997  1.2114 -0.0742  0.1364
  153MOL0     H20614   8.261   6.482   9.176  2.3917 -1.4523 -0.1530
  153MOL0     H20615   8.692   6.444   9.034 -0.7109  1.2242 -1.2646
  153MOL0     H20616   8.904   6.223   8.942 -0.5638  1.4931  1.0765
  153MOL0     H20617   8.832   6.229   8.775 -0.5420  0.2134 -0.6983
  153MOL0     H20618   8.850   6.372   8.882 -2.7135  0.6386 -2.2069
  153MOL0     H20619   8.438   5.728   8.935  1.4067 -0.5777  2.2925
  153MOL0     H20620   8.501   5.484   8.918  0.5918 -2.3094 -1.4558
  153MOL0     H20621   8.883   5.421   8.794  1.2532 -1.4147  0.4911
  153MOL0     H20622   8.848   5.240   8.814  2.3518 -1.0716 -3.2226
  153MOL0     H20623   8.764   5.223   8.596 -3.2492  2.1126  0.0624
  153MOL0     H20624   8.821   5.391   8.566  1.0769 -0.2875  0.1577
  153MOL0     H20625   8.987   5.217   8.479 -0.4336 -1.0307  0.5650
  153MOL0     H20626   9.001   5.148   8.629  0.7133  0.0411 -1.2948
  153MOL0     H20627   9.073   5.438   8.569 -5.4168 -1.1783 -0.3743
  153MOL0     H20628   9.080   5.383   8.729  1.5273 -1.2876  0.3173
  153MOL0     H20629   9.311   5.372   8.603 -0.6978  0.4530 -0.5506
  153MOL0     H20630   9.238   5.241   8.511  0.0132 -1.7488  0.8805
  153MOL0     H20631   9.253   5.230   8.816  0.2616  3.6042 -1.4078
  153MOL0     H20632   9.219   5.094   8.714 -0.6247 -0.3264 -0.4292
  153MOL0     H20633   9.456   5.156   8.607  0.8778 -1.7498 -0.2412
  153MOL0     H20634   9.435   5.054   8.755  0.0805  1.7423  2.4791
  153MOL0     H20635   9.459   5.353   8.795 -1.1010  0.6873 -1.6623
  153MOL0     H20636   9.608   5.252   8.771  1.1206 -0.2251  0.9896
  153MOL0     H20637   8.831   5.587   8.667  0.2440  0.0860  0.8465
  153MOL0     H20638   8.735   5.829   8.654 -2.3021 -0.0372 -1.5887
  153MOL0     H20639   8.389   6.081   8.888  1.4713 -0.6230 -0.1326
  153MOL0     H20640   8.301   6.270   9.008  0.4819  0.3154 -0.6711
  153MOL0     H20641   7.708   6.726   8.607  1.3985 -0.1666 -0.3484
  153MOL0     H20642   7.487   6.807   8.679  1.1555  0.5462  0.6623
  153MOL0     H20643   7.161   7.119   8.734  0.2622 -0.8177  0.8199
  153MOL0     H20644   6.909   7.170   8.807 -0.7243  2.6322 -1.8268
  153MOL0     H20645   6.595   7.037   8.508 -0.7893 -1.3857  0.2636
  153MOL0     H20646   6.598   6.902   8.630 -1.4269  0.0416  2.3900
  153MOL0     H20647   6.454   7.173   8.676  0.8350 -0.2873 -2.4645
  153MOL0     H20648   6.439   7.025   8.766  0.3555  2.9591  1.6343
  153MOL0     H20649   6.344   6.914   8.558  1.3845 -0.9280  2.1390
  153MOL0     H20650   6.349   7.077   8.484  2.0773  0.5558 -0.0336
  153MOL0     H20651   6.175   7.166   8.649  1.7181  0.4262 -1.3405
  153MOL0     H20652   6.197   7.038   8.753  1.0618 -2.1431  0.2089
  153MOL0     H20653   5.943   6.886   8.444 -0.8456 -1.0054  1.4844
  153MOL0     H20654   6.790   6.872   8.532 -0.3481  0.7296  0.5059
  153MOL0     H20655   7.018   6.794   8.499  0.4730 -0.1888 -0.5320
  154MOL0     O20656   1.261   0.771  10.658 -0.1171  0.3835 -0.3213
  154MOL0     C20657   1.259   0.822  10.545 -0.7915  0.2881  0.0474
  154MOL0     O20658   1.173   0.785  10.447 -0.3136  0.5085 -0.1198
  154MOL0     C20659   1.063   0.701  10.465  0.0603  0.0477  0.2168
  154MOL0     C20660   1.047   0.606  10.567 -0.1616 -0.9572  0.3338
  154MOL0     C20661   0.936   0.524  10.574 -0.5970  0.7440 -0.3933
  154MOL0     C20662   0.841   0.523  10.474  0.1435 -0.0163 -0.3136
  154MOL0     O20663   0.729   0.449  10.478 -0.2012 -0.3522  0.4804
  154MOL0     C20664   0.692   0.356  10.578 -0.4712 -0.5372 -0.4862
  154MOL0     C20665   0.543   0.325  10.580 -0.8784  0.1987 -0.0054
  154MOL0     C20666   0.461   0.456  10.578 -0.1908 -0.5819  0.0678
  154MOL0     C20667   0.475   0.532  10.710  0.1085 -0.5977  0.3343
  154MOL0     C20668   0.365   0.639  10.730 -0.0370  0.2262  0.4533
  154MOL0     C20669   0.384   0.700  10.877 -0.0144 -1.1037  0.2755
  154MOL0     C20670   0.277   0.808  10.909 -0.6494  0.0064  0.0877
  154MOL0     C20671   0.143   0.761  10.956 -0.3396 -0.5308 -0.5730
  154MOL0     N20672   0.083   0.879  11.026 -0.3412 -0.2036  0.3114
  154MOL0     C20673   0.060   0.900  11.154  0.4309 -0.3737 -1.2259
  154MOL0     C20674  -0.036   0.994  11.170  0.3698 -0.7558 -0.3104
  154MOL0     C20675  -0.097   1.044  11.293 -0.5445 -0.3212  0.4139
  154MOL0     C20676  -0.257   1.013  11.291 -1.5836 -0.1093  0.3672
  154MOL0     C20677  -0.320   1.026  11.429  0.4292  0.1513  0.4940
  154MOL0     C20678  -0.463   0.978  11.425  0.3831 -0.4942  0.5886
  154MOL0     O20679  -0.525   1.012  11.558  0.3643 -1.0104  0.4737
  154MOL0     C20680  -0.657   0.990  11.577 -0.4593  0.5335 -0.2743
  154MOL0     C20681  -0.742   0.946  11.472 -0.3233  0.6064 -0.3093
  154MOL0     C20682  -0.879   0.924  11.488 -0.3572  0.6288  0.3230
  154MOL0     C20683  -0.947   0.885  11.369  0.7797  0.5960  1.1174
  154MOL0     C20684  -0.936   0.947  11.613 -0.3291 -0.4457  0.2913
  154MOL0     C20685  -1.080   0.936  11.651 -0.6463  0.9044  1.4192
  154MOL0     O20686  -1.120   1.022  11.748 -0.2669  0.1703 -0.2174
  154MOL0     C20687  -1.249   1.050  11.780 -0.5693  0.5885  0.3626
  154MOL0     C20688  -1.265   1.123  11.898  0.2077  0.7129  0.6114
  154MOL0     C20689  -1.391   1.168  11.938  0.1171 -0.0648 -0.2494
  154MOL0     C20690  -1.500   1.136  11.861  0.3639 -0.0989 -0.3865
  154MOL0     O20691  -1.628   1.181  11.881  0.3585 -0.3832  0.4855
  154MOL0     C20692  -1.649   1.291  11.963 -0.2069  0.0938  0.4171
  154MOL0     C20693  -1.687   1.261  12.107  0.1177  0.0567 -0.0136
  154MOL0     C20694  -1.783   1.139  12.097 -0.1652  0.2180 -0.5678
  154MOL0     C20695  -1.833   1.115  12.239 -0.7235  0.0118  0.2807
  154MOL0     C20696  -1.940   1.213  12.276 -0.3829 -0.4000  0.5558
  154MOL0     C20697  -1.994   1.197  12.419  0.2637 -0.1424  0.4716
  154MOL0     C20698  -2.104   1.298  12.448 -0.3593  0.5129  0.5984
  154MOL0     C20699  -2.248   1.242  12.404  0.8279  0.1911  0.3573
  154MOL0    Cl20700  -2.364   1.345  12.490 -0.4974 -0.2907  0.2473
  154MOL0     C20701  -1.486   1.052  11.752 -0.2364 -1.5569  0.7192
  154MOL0     C20702  -1.359   1.006  11.706  0.6757 -1.0328 -0.2036
  154MOL0     O20703  -1.139   0.836  11.609  0.4842  0.5446  0.4677
  154MOL0     C20704  -0.853   0.991  11.719  0.4584 -0.6887 -0.1967
  154MOL0     C20705  -0.712   0.999  11.703  0.2855 -0.0425  0.0761
  154MOL0     N20706  -0.071   1.038  11.043 -0.1208 -0.1422 -0.6249
  154MOL0     N20707  -0.006   0.968  10.964 -0.0753 -0.3842 -0.7579
  154MOL0     C20708   0.861   0.614  10.380 -0.3689 -0.0108 -0.4918
  154MOL0     C20709   0.960   0.712  10.375  0.3165 -0.0884 -0.1797
  154MOL0     C20710   1.375   0.906  10.500 -0.6362 -0.8389  0.0914
  154MOL0     C20711   1.480   0.929  10.580 -0.4240 -0.6383 -0.3465
  154MOL0     C20712   1.591   1.003  10.542 -0.3005 -1.1694  0.1416
  154MOL0     C20713   1.590   1.066  10.414 -0.7270 -0.5744  0.3588
  154MOL0     O20714   1.688   1.139  10.361 -1.0224 -0.6255  0.2831
  154MOL0     C20715   1.763   1.220  10.460  0.9453  0.6088  0.5906
  154MOL0     C20716   1.799   1.351  10.391  0.0789 -0.4560  0.5797
  154MOL0     C20717   1.918   1.416  10.467  0.0606  1.0704 -0.2628
  154MOL0     C20718   2.054   1.340  10.471  0.7318 -0.7788  0.3146
  154MOL0     C20719   2.099   1.316  10.335  0.3190  1.3604  0.8464
  154MOL0     C20720   2.143   1.291  10.218 -0.8862  0.7143  0.3539
  154MOL0     C20721   1.482   1.050  10.328 -0.0810  0.3498  0.1479
  154MOL0     C20722   1.381   0.961  10.371 -0.5185 -0.6495 -0.1325
  154MOL0     H20723   1.124   0.602  10.643  0.7335  3.9773 -0.0072
  154MOL0     H20724   0.935   0.447  10.651 -2.5135 -0.2448 -1.3260
  154MOL0     H20725   0.747   0.264  10.553  0.2135 -0.9014  2.0665
  154MOL0     H20726   0.729   0.386  10.676  1.1835 -0.0851 -1.2174
  154MOL0     H20727   0.521   0.274  10.486  3.4295  0.1053 -1.1898
  154MOL0     H20728   0.521   0.256  10.663  0.4018  0.0006  0.1992
  154MOL0     H20729   0.484   0.524  10.495  1.4441 -0.6497  0.4216
  154MOL0     H20730   0.357   0.423  10.571 -1.7011  3.2180  1.9711
  154MOL0     H20731   0.468   0.460  10.791  0.2468 -2.2575 -1.0725
  154MOL0     H20732   0.568   0.589  10.711  0.0968 -0.5531 -0.4909
  154MOL0     H20733   0.387   0.719  10.658  1.9204 -0.0316  0.7101
  154MOL0     H20734   0.260   0.610  10.731  0.1609 -1.2687  5.5365
  154MOL0     H20735   0.383   0.613  10.943  0.6812  0.0258  1.8326
  154MOL0     H20736   0.481   0.750  10.884  0.5605 -2.3180  1.4446
  154MOL0     H20737   0.317   0.869  10.991 -2.4817 -0.4271  1.3805
  154MOL0     H20738   0.267   0.871  10.820  0.8423  0.6078  0.3185
  154MOL0     H20739   0.163   0.680  11.027 -0.1257  0.9125  1.0815
  154MOL0     H20740   0.088   0.727  10.868 -0.4313  2.0939 -1.6122
  154MOL0     H20741   0.113   0.843  11.230 -0.1955 -1.0338 -1.2678
  154MOL0     H20742  -0.042   1.004  11.379 -0.4493 -1.9368 -0.3600
  154MOL0     H20743  -0.087   1.153  11.298 -1.4048  0.1027 -3.8328
  154MOL0     H20744  -0.267   0.913  11.248 -2.1492 -0.4825  1.3456
  154MOL0     H20745  -0.303   1.086  11.223  0.3561  2.0936  1.2622
  154MOL0     H20746  -0.302   1.123  11.476  1.6074 -0.3737  1.1739
  154MOL0     H20747  -0.266   0.961  11.498 -1.6828 -1.6063  0.5938
  154MOL0     H20748  -0.471   0.870  11.416 -0.3690 -0.2752 -2.6556
  154MOL0     H20749  -0.502   1.018  11.330 -0.7544 -1.0837  0.7958
  154MOL0     H20750  -0.705   0.916  11.375  2.1871  3.7025 -0.4510
  154MOL0     H20751  -1.050   0.922  11.372  0.8795  0.9520  0.2008
  154MOL0     H20752  -0.899   0.923  11.279 -1.0674  0.1143 -0.1356
  154MOL0     H20753  -0.952   0.776  11.358  0.2578  0.4599  2.4422
  154MOL0     H20754  -1.174   1.151  11.949  1.1113  2.3674 -1.7162
  154MOL0     H20755  -1.393   1.222  12.032 -1.3163 -0.8125  0.1697
  154MOL0     H20756  -1.568   1.365  11.962 -1.1344  1.3241  3.4567
  154MOL0     H20757  -1.733   1.347  11.922  0.1980  0.5992  0.2684
  154MOL0     H20758  -1.591   1.233  12.153  1.1261 -1.9296 -2.9955
  154MOL0     H20759  -1.734   1.345  12.158 -0.2730  1.4184 -2.4831
  154MOL0     H20760  -1.739   1.048  12.054 -1.0762 -1.2525  1.4614
  154MOL0     H20761  -1.879   1.156  12.046  0.2056  1.4834 -0.8742
  154MOL0     H20762  -1.875   1.014  12.238  1.5611 -1.0136 -1.6672
  154MOL0     H20763  -1.750   1.115  12.311  0.2888  1.2623 -0.8441
  154MOL0     H20764  -2.028   1.193  12.214 -0.9007  2.3844  0.2439
  154MOL0     H20765  -1.903   1.315  12.258 -0.6937 -0.6124 -1.5283
  154MOL0     H20766  -2.029   1.097  12.446  1.1126 -0.1459  1.6715
  154MOL0     H20767  -1.912   1.219  12.487 -0.1015  0.5753  0.6841
  154MOL0     H20768  -2.094   1.396  12.400 -0.1691  0.5853  0.7817
  154MOL0     H20769  -2.101   1.317  12.555  2.4163 -1.2211  0.9258
  154MOL0     H20770  -2.274   1.144  12.446 -4.6104  2.7520  4.2033
  154MOL0     H20771  -2.275   1.243  12.298  1.0369 -0.0620  0.2999
  154MOL0     H20772  -1.579   1.014  11.710 -0.4704  0.3963 -0.6743
  154MOL0     H20773  -1.367   0.938  11.623 -1.9810 -0.1535 -0.7693
  154MOL0     H20774  -0.889   1.021  11.817 -1.2897  2.6558 -1.6910
  154MOL0     H20775  -0.652   1.014  11.792 -0.3588 -1.3542  0.7566
  154MOL0     H20776   0.787   0.595  10.304 -1.7181 -0.7563  0.9497
  154MOL0     H20777   0.974   0.761  10.279 -1.4256 -0.3887 -0.6186
  154MOL0     H20778   1.495   0.879  10.676  0.6683  1.1793  0.4955
  154MOL0     H20779   1.678   1.011  10.607 -0.0032  0.2422 -0.4036
  154MOL0     H20780   1.692   1.250  10.538 -0.0154  2.8501 -1.0460
  154MOL0     H20781   1.851   1.162  10.491  0.0362 -1.6882 -0.8830
  154MOL0     H20782   1.705   1.407  10.382 -1.4025 -2.9631 -0.3600
  154MOL0     H20783   1.827   1.321  10.290  0.4123  1.8355 -0.0628
  154MOL0     H20784   1.883   1.414  10.571  1.6508 -1.0104  0.2876
  154MOL0     H20785   1.948   1.513  10.426  1.9504  0.1159 -1.2602
  154MOL0     H20786   2.046   1.247  10.528  1.3114  0.5867  2.7564
  154MOL0     H20787   2.125   1.397  10.530  0.7676 -1.6751  1.1788
  154MOL0     H20788   2.185   1.271  10.122 -0.7666  1.5596  0.2267
  154MOL0     H20789   1.479   1.091  10.228 -3.3000  0.5932  0.2360
  154MOL0     H20790   1.306   0.939  10.296 -3.2741 -1.0285  2.5581
  155MOL0     O20791   0.738   6.673   3.816  0.3607 -0.1734  0.1319
  155MOL0     C20792   0.823   6.627   3.739  0.1111 -0.0995  1.1336
  155MOL0     O20793   0.796   6.530   3.634 -0.3263 -0.6275  0.1246
  155MOL0     C20794   0.669   6.531   3.572  0.0571  0.7065 -0.6954
  155MOL0     C20795   0.595   6.410   3.547 -0.4071 -0.0301  0.6600
  155MOL0     C20796   0.475   6.403   3.475 -0.3484  0.0246  0.0842
  155MOL0     C20797   0.428   6.521   3.424  0.2685 -0.2495 -0.2169
  155MOL0     O20798   0.316   6.531   3.333 -0.7214  0.1392  0.3329
  155MOL0     C20799   0.229   6.424   3.311 -0.1366 -0.5924  0.4005
  155MOL0     C20800   0.104   6.460   3.226 -0.1441  0.4057 -0.6616
  155MOL0     C20801   0.069   6.605   3.220  0.0882  0.2802 -0.2379
  155MOL0     C20802   0.016   6.656   3.351 -0.0011  0.4731  0.0648
  155MOL0     C20803  -0.119   6.599   3.394 -1.0183  0.0195 -1.0435
  155MOL0     C20804  -0.180   6.697   3.499  0.4416 -0.5563 -0.9198
  155MOL0     C20805  -0.303   6.632   3.564 -0.4817 -0.3522 -0.0405
  155MOL0     C20806  -0.429   6.619   3.477  0.9251  1.1215  0.3331
  155MOL0     N20807  -0.477   6.750   3.425 -0.0269 -0.3141  0.5683
  155MOL0     C20808  -0.515   6.858   3.498 -1.0657 -0.2087 -0.1918
  155MOL0     C20809  -0.568   6.945   3.408  0.8446 -0.1873 -0.3783
  155MOL0     C20810  -0.619   7.078   3.457 -0.2710 -0.0085  0.3322
  155MOL0     C20811  -0.770   7.066   3.510  0.4295 -0.1084  0.6387
  155MOL0     C20812  -0.865   7.015   3.402 -0.1763 -0.2951 -0.5282
  155MOL0     C20813  -1.004   6.987   3.445  0.2833  0.0024  0.4382
  155MOL0     O20814  -1.048   7.103   3.518  0.0900  0.8710  0.8526
  155MOL0     C20815  -1.181   7.125   3.524  0.1225  0.9576  0.4311
  155MOL0     C20816  -1.277   7.031   3.547  0.2344  0.6631 -0.2651
  155MOL0     C20817  -1.417   7.058   3.563 -0.3268  0.3208 -0.1054
  155MOL0     C20818  -1.513   6.939   3.592 -0.1089 -0.0798  0.1594
  155MOL0     C20819  -1.452   7.196   3.547  0.6988 -0.1939  0.5815
  155MOL0     C20820  -1.597   7.241   3.530 -1.4772  1.3310 -0.2079
  155MOL0     O20821  -1.614   7.376   3.546  0.5593  0.0545  0.7047
  155MOL0     C20822  -1.738   7.434   3.566 -0.0166 -0.1527 -0.4387
  155MOL0     C20823  -1.858   7.364   3.596  0.9896 -0.3592  0.1705
  155MOL0     C20824  -1.978   7.444   3.608 -0.1583  0.6067 -0.3053
  155MOL0     C20825  -1.973   7.586   3.592  0.2825 -0.1148 -0.3576
  155MOL0     O20826  -2.082   7.674   3.596  0.1526  0.0349 -0.2105
  155MOL0     C20827  -2.204   7.639   3.528 -0.2639 -0.1609  0.7003
  155MOL0     C20828  -2.179   7.649   3.381 -0.0892 -0.5757  0.5545
  155MOL0     C20829  -2.312   7.627   3.307  0.3820  0.4614 -0.2670
  155MOL0     C20830  -2.286   7.662   3.161  0.2867 -0.6849  0.0125
  155MOL0     C20831  -2.409   7.631   3.069 -0.2734  0.4671 -0.2995
  155MOL0     C20832  -2.381   7.635   2.921  0.4488 -0.2440  1.3650
  155MOL0     C20833  -2.318   7.502   2.873 -0.0228 -0.3905 -0.4747
  155MOL0     C20834  -2.259   7.507   2.736  0.0784  0.7037  0.8224
  155MOL0    Cl20835  -2.112   7.601   2.744  0.0263  0.0826 -0.5709
  155MOL0     C20836  -1.850   7.648   3.568 -0.0052  1.1427  0.5588
  155MOL0     C20837  -1.732   7.572   3.554  0.5326 -0.3732  0.2495
  155MOL0     O20838  -1.679   7.150   3.510  0.1938  0.2153 -0.4801
  155MOL0     C20839  -1.357   7.299   3.522  0.3791  0.5849 -0.2197
  155MOL0     C20840  -1.226   7.257   3.516 -0.0671 -0.0805 -0.3097
  155MOL0     N20841  -0.545   6.895   3.278 -0.0073 -0.4601 -0.9289
  155MOL0     N20842  -0.501   6.776   3.294  0.2222 -0.5535  0.3752
  155MOL0     C20843   0.490   6.648   3.456  0.2430  0.8546 -0.2045
  155MOL0     C20844   0.608   6.652   3.537  1.3419 -0.5520  0.1178
  155MOL0     C20845   0.964   6.663   3.781 -0.3407 -0.0638  0.0874
  155MOL0     C20846   1.068   6.600   3.716  0.2346  0.4842 -0.2586
  155MOL0     C20847   1.203   6.617   3.753 -0.1355 -0.0633  0.1902
  155MOL0     C20848   1.240   6.703   3.861  0.8137  1.0107 -0.1086
  155MOL0     O20849   1.369   6.715   3.915  0.1107 -0.6420 -0.1419
  155MOL0     C20850   1.472   6.657   3.838  0.3893  0.2719  0.1889
  155MOL0     C20851   1.477   6.506   3.874  0.6874 -1.4250 -0.2259
  155MOL0     C20852   1.586   6.438   3.794 -0.6937  0.0862  0.8684
  155MOL0     C20853   1.727   6.502   3.794 -0.1053 -0.2622  0.0747
  155MOL0     C20854   1.768   6.527   3.938  0.7549 -1.3052  0.5458
  155MOL0     C20855   1.805   6.571   4.050 -0.3506 -0.3366  0.3409
  155MOL0     C20856   1.128   6.776   3.916 -0.7774  0.0474  0.3087
  155MOL0     C20857   0.996   6.755   3.884 -0.6056  0.5445  0.6486
  155MOL0     H20858   0.638   6.315   3.577  0.6844  0.6198  1.2219
  155MOL0     H20859   0.407   6.320   3.463 -1.8553  1.1710  0.3931
  155MOL0     H20860   0.282   6.346   3.256 -1.7119  0.1242 -2.3392
  155MOL0     H20861   0.191   6.393   3.409 -5.5833  0.5413 -1.0007
  155MOL0     H20862   0.122   6.422   3.125  3.8692 -1.8200  0.6861
  155MOL0     H20863   0.014   6.410   3.264  0.1777 -0.0751 -0.5364
  155MOL0     H20864   0.154   6.664   3.183  0.1628 -0.2720 -0.9676
  155MOL0     H20865  -0.004   6.626   3.142  0.4407 -2.2926 -1.3454
  155MOL0     H20866   0.090   6.646   3.431  2.8523  2.2916 -2.1271
  155MOL0     H20867   0.002   6.763   3.331 -1.4904 -0.0655 -2.1763
  155MOL0     H20868  -0.184   6.587   3.308 -0.6693  0.9577 -1.4538
  155MOL0     H20869  -0.095   6.511   3.454  1.1933 -0.3903 -2.4268
  155MOL0     H20870  -0.109   6.707   3.582  0.1562 -3.6604 -0.1861
  155MOL0     H20871  -0.197   6.795   3.455  1.3179 -0.5526 -1.2548
  155MOL0     H20872  -0.270   6.542   3.617 -0.2943  1.5976  3.4708
  155MOL0     H20873  -0.332   6.700   3.645  1.3477  1.0054 -0.4467
  155MOL0     H20874  -0.509   6.565   3.528  1.1139 -0.4669 -0.9663
  155MOL0     H20875  -0.406   6.561   3.387 -1.0902  0.8164 -0.0280
  155MOL0     H20876  -0.505   6.870   3.605  0.9304 -1.6405 -0.1642
  155MOL0     H20877  -0.546   7.117   3.527 -0.4457 -1.5896  1.4561
  155MOL0     H20878  -0.621   7.135   3.363 -0.1378 -1.0278 -0.3123
  155MOL0     H20879  -0.800   7.168   3.536  1.5926  0.5646 -0.5595
  155MOL0     H20880  -0.784   7.006   3.600 -1.2030 -0.4221  0.2261
  155MOL0     H20881  -0.823   6.924   3.358 -0.1957  0.9991 -3.4111
  155MOL0     H20882  -0.872   7.091   3.324  1.7173 -1.9675 -2.4723
  155MOL0     H20883  -1.000   6.898   3.509  0.5551 -2.4185 -2.7040
  155MOL0     H20884  -1.066   6.971   3.356  0.3216 -1.9933  0.7329
  155MOL0     H20885  -1.245   6.927   3.542 -0.6567  0.3555  0.3503
  155MOL0     H20886  -1.538   6.950   3.698 -1.9692 -4.3469  0.3642
  155MOL0     H20887  -1.602   6.927   3.531  1.7007 -1.7511 -2.3128
  155MOL0     H20888  -1.463   6.843   3.578 -2.2348 -1.3636  0.8780
  155MOL0     H20889  -1.880   7.259   3.607  0.0423 -0.2132 -0.1842
  155MOL0     H20890  -2.076   7.399   3.614  1.3715 -3.3815 -1.5305
  155MOL0     H20891  -2.235   7.537   3.554  2.0125 -0.5402  2.2295
  155MOL0     H20892  -2.285   7.708   3.555  1.6623  1.6910  2.1056
  155MOL0     H20893  -2.152   7.754   3.366  0.9004 -0.8903 -0.0038
  155MOL0     H20894  -2.100   7.582   3.347  1.8825  1.5624  0.6578
  155MOL0     H20895  -2.395   7.690   3.339 -1.6403 -0.9523 -2.4421
  155MOL0     H20896  -2.336   7.521   3.325 -1.4005  1.0705  1.2509
  155MOL0     H20897  -2.268   7.770   3.165 -2.5728 -0.1808  2.2321
  155MOL0     H20898  -2.194   7.612   3.130  1.4759  1.3542  0.0828
  155MOL0     H20899  -2.491   7.699   3.096  0.8831  1.2375  1.4786
  155MOL0     H20900  -2.438   7.527   3.082  1.4514  0.2196  2.1749
  155MOL0     H20901  -2.473   7.660   2.866 -0.7641 -0.9194  3.0194
  155MOL0     H20902  -2.305   7.713   2.910 -0.2779  0.4994  1.5509
  155MOL0     H20903  -2.398   7.428   2.866  2.1345 -2.9513  0.1070
  155MOL0     H20904  -2.241   7.467   2.943 -1.0238  0.2353  0.9935
  155MOL0     H20905  -2.335   7.551   2.672 -0.2911  1.8111  1.9786
  155MOL0     H20906  -2.236   7.406   2.702  0.3038  1.0613 -0.1327
  155MOL0     H20907  -1.835   7.755   3.576 -2.0143  1.5706 -0.7155
  155MOL0     H20908  -1.639   7.624   3.537 -0.2641  1.6627  1.6958
  155MOL0     H20909  -1.381   7.401   3.494 -1.0735  0.5998  1.0010
  155MOL0     H20910  -1.150   7.330   3.492 -2.3795  2.5243 -0.1852
  155MOL0     H20911   0.456   6.739   3.407  1.1964  1.4128  0.1374
  155MOL0     H20912   0.642   6.753   3.557  0.8278 -0.6763  1.7168
  155MOL0     H20913   1.055   6.532   3.633  1.5066 -1.9097  1.3915
  155MOL0     H20914   1.275   6.558   3.699  0.4831 -0.3598  1.2992
  155MOL0     H20915   1.460   6.680   3.731  0.6023 -0.5876 -0.0329
  155MOL0     H20916   1.563   6.704   3.875  1.2945  0.1180 -1.6910
  155MOL0     H20917   1.376   6.464   3.867 -1.1615  2.4608  0.3093
  155MOL0     H20918   1.509   6.507   3.978  1.4158 -0.9760 -0.4493
  155MOL0     H20919   1.561   6.417   3.690  0.6476  0.2813  0.4934
  155MOL0     H20920   1.591   6.338   3.838  0.9478  0.9408  2.7657
  155MOL0     H20921   1.719   6.602   3.750 -1.0077 -0.5312 -0.3930
  155MOL0     H20922   1.802   6.441   3.742 -1.3233 -2.5955  0.9253
  155MOL0     H20923   1.855   6.594   4.142  1.0558 -0.3763 -0.3699
  155MOL0     H20924   1.147   6.825   4.010 -1.0146 -2.1828  1.5871
  155MOL0     H20925   0.915   6.804   3.937  0.1454 -0.0060  2.3580
  156MOL0     O20926   5.427   6.448   4.626 -1.0791  0.4726  0.2188
  156MOL0     C20927   5.505   6.372   4.566  0.3327  0.0882 -0.5158
  156MOL0     O20928   5.472   6.249   4.517  0.4908  0.0335 -0.0466
  156MOL0     C20929   5.343   6.198   4.528  0.1290  0.2923 -0.1515
  156MOL0     C20930   5.232   6.272   4.480  0.3965 -0.8178  0.2186
  156MOL0     C20931   5.105   6.224   4.495  0.0856 -0.5003  1.0541
  156MOL0     C20932   5.083   6.095   4.536 -0.7062 -0.9148  0.4276
  156MOL0     O20933   4.950   6.055   4.519  0.3669  0.9824  0.0277
  156MOL0     C20934   4.930   5.914   4.514  0.4623  0.3953 -0.1256
  156MOL0     C20935   4.809   5.865   4.431 -0.4336  0.2453  0.3146
  156MOL0     C20936   4.803   5.944   4.298 -0.5740 -0.1268  0.5050
  156MOL0     C20937   4.698   5.889   4.205  0.4600 -0.5851  0.1119
  156MOL0     C20938   4.561   5.976   4.223  0.0518  0.4012  0.4405
  156MOL0     C20939   4.547   6.084   4.114  0.6051  0.0343 -0.4694
  156MOL0     C20940   4.410   6.158   4.134 -0.4134 -0.0375 -0.1499
  156MOL0     C20941   4.292   6.074   4.126 -1.0363 -0.1403 -0.2703
  156MOL0     N20942   4.271   6.001   3.995  0.0453 -0.8025 -0.3941
  156MOL0     C20943   4.254   6.063   3.878  0.1109 -0.3198  0.5903
  156MOL0     C20944   4.225   5.961   3.789 -0.1398 -0.3216 -0.3970
  156MOL0     C20945   4.186   5.975   3.644  0.0850 -0.3218  0.0685
  156MOL0     C20946   4.034   6.014   3.642 -0.5397  0.3325  0.4348
  156MOL0     C20947   3.944   5.896   3.647  0.8125  0.9669  0.3856
  156MOL0     C20948   3.793   5.923   3.636  0.4550  0.1944 -0.1153
  156MOL0     O20949   3.765   6.005   3.525 -0.4755 -0.1106  0.0236
  156MOL0     C20950   3.639   6.010   3.469  0.0109 -0.2554 -0.5408
  156MOL0     C20951   3.626   6.082   3.351  0.7491 -0.3634 -0.6015
  156MOL0     C20952   3.502   6.099   3.294 -0.6942  0.0964 -0.2714
  156MOL0     C20953   3.505   6.180   3.167  0.2834 -0.2371  0.6099
  156MOL0     C20954   3.381   6.043   3.352 -0.5620 -0.4104  0.6490
  156MOL0     C20955   3.245   6.057   3.290  0.0913  0.3317 -0.3171
  156MOL0     O20956   3.173   6.172   3.320  0.2108 -0.0666  0.7701
  156MOL0     C20957   3.048   6.191   3.265 -0.8513  1.3637  0.0466
  156MOL0     C20958   2.937   6.102   3.285 -0.2476  0.0977 -0.5536
  156MOL0     C20959   2.814   6.126   3.223 -0.2366 -0.3486  0.7956
  156MOL0     C20960   2.793   6.237   3.136 -0.6859 -0.8518 -0.5211
  156MOL0     O20961   2.681   6.277   3.075 -0.5512 -0.9301 -0.1022
  156MOL0     C20962   2.563   6.218   3.122 -0.0170  0.4486 -0.4765
  156MOL0     C20963   2.443   6.301   3.078 -0.2024  0.0975  0.6126
  156MOL0     C20964   2.315   6.226   3.114 -0.3022 -0.3756  0.4596
  156MOL0     C20965   2.196   6.321   3.079 -0.0952 -0.4745  0.1625
  156MOL0     C20966   2.056   6.250   3.091 -0.7005 -0.2802 -0.6888
  156MOL0     C20967   1.947   6.347   3.069 -0.9755  0.0751  0.5788
  156MOL0     C20968   1.817   6.277   3.046  0.5568  0.0993 -0.3544
  156MOL0     C20969   1.694   6.370   3.043  0.9153  0.0571  0.6230
  156MOL0    Cl20970   1.661   6.432   2.870  0.0279  0.4279  0.4376
  156MOL0     C20971   2.906   6.317   3.110  0.5921 -0.6260 -0.4557
  156MOL0     C20972   3.031   6.295   3.167 -1.0768  0.2144  0.3407
  156MOL0     O20973   3.215   5.967   3.212  0.4818 -0.2301  0.0097
  156MOL0     C20974   3.398   5.973   3.471  0.0337 -0.0464  0.4386
  156MOL0     C20975   3.527   5.957   3.525  0.6964  0.6389  0.1899
  156MOL0     N20976   4.223   5.843   3.860  0.3596  0.3716 -0.4726
  156MOL0     N20977   4.255   5.873   3.984 -0.0183 -0.0463 -0.2836
  156MOL0     C20978   5.190   6.015   4.580  0.4337 -0.7483 -0.2419
  156MOL0     C20979   5.319   6.067   4.576 -0.2520 -1.0054  0.1589
  156MOL0     C20980   5.648   6.414   4.538 -0.1880  0.9284  0.4108
  156MOL0     C20981   5.744   6.312   4.528 -0.0424  0.0768  0.6523
  156MOL0     C20982   5.880   6.349   4.505  0.0668  0.6665 -0.5477
  156MOL0     C20983   5.915   6.480   4.492  0.2167 -0.6338  0.1098
  156MOL0     O20984   6.043   6.531   4.475 -0.3404 -0.3070 -0.3728
  156MOL0     C20985   6.149   6.441   4.459  0.3957 -0.0386  0.2452
  156MOL0     C20986   6.262   6.531   4.382 -0.7097  0.6816  0.3102
  156MOL0     C20987   6.362   6.614   4.470 -0.5494  0.0519 -0.3847
  156MOL0     C20988   6.441   6.703   4.376  0.4406  0.9990  0.0055
  156MOL0     C20989   6.544   6.775   4.449 -0.2028 -0.0947  0.3729
  156MOL0     C20990   6.639   6.837   4.486 -0.2164  0.0541 -0.2464
  156MOL0     C20991   5.811   6.577   4.506 -0.2309 -0.0915 -0.4784
  156MOL0     C20992   5.681   6.544   4.531 -0.1041  0.3227 -0.6706
  156MOL0     H20993   5.242   6.371   4.437 -0.2460 -1.6964 -2.0534
  156MOL0     H20994   5.028   6.288   4.454  0.2351 -1.9367 -1.6962
  156MOL0     H20995   5.018   5.865   4.473  0.2624  1.4105 -1.8508
  156MOL0     H20996   4.910   5.886   4.618 -0.8654 -2.7575 -1.1146
  156MOL0     H20997   4.822   5.761   4.402  1.3908  0.5750 -0.2005
  156MOL0     H20998   4.723   5.879   4.496 -0.6822  2.3095 -0.3794
  156MOL0     H20999   4.777   6.048   4.320 -0.0321 -0.1936  1.5268
  156MOL0     H21000   4.897   5.940   4.241 -0.8921 -1.8363  0.0561
  156MOL0     H21001   4.726   5.885   4.099  2.0994  0.6746  0.4636
  156MOL0     H21002   4.670   5.785   4.227  0.9336 -0.4458  1.4634
  156MOL0     H21003   4.475   5.909   4.210 -0.0412  0.6680 -0.3480
  156MOL0     H21004   4.553   6.013   4.326 -2.7878 -0.0700  0.4520
  156MOL0     H21005   4.622   6.162   4.122  0.3627  0.2367 -0.1627
  156MOL0     H21006   4.552   6.035   4.016  1.3484  0.7295 -0.7825
  156MOL0     H21007   4.405   6.226   4.219  0.6781  1.4602 -1.2260
  156MOL0     H21008   4.405   6.225   4.047 -2.0520 -0.1699 -0.1813
  156MOL0     H21009   4.200   6.133   4.133  0.6583  2.7732 -0.9976
  156MOL0     H21010   4.292   6.001   4.208  4.3878 -0.4773 -0.2466
  156MOL0     H21011   4.239   6.166   3.845 -2.3537 -0.1652  1.8672
  156MOL0     H21012   4.237   6.064   3.604  3.0330 -0.9849  2.0558
  156MOL0     H21013   4.208   5.892   3.577  0.5390  0.7480 -1.1507
  156MOL0     H21014   4.021   6.061   3.544 -0.3677 -2.1411 -0.8597
  156MOL0     H21015   4.005   6.094   3.710  1.6165  1.0383  0.5907
  156MOL0     H21016   3.965   5.861   3.749  0.9056  3.0296  1.1065
  156MOL0     H21017   3.978   5.830   3.566 -0.4329  2.2194 -1.2167
  156MOL0     H21018   3.745   5.963   3.726 -0.1996  0.0121 -0.3761
  156MOL0     H21019   3.748   5.825   3.618  0.9447  0.0760 -0.7445
  156MOL0     H21020   3.718   6.117   3.306 -0.8698  2.3932 -2.0465
  156MOL0     H21021   3.413   6.237   3.148  0.5625 -0.5698 -2.1763
  156MOL0     H21022   3.581   6.259   3.165 -1.3357  1.4175  1.2497
  156MOL0     H21023   3.506   6.099   3.094 -4.3787 -3.2911  3.3855
  156MOL0     H21024   2.953   6.011   3.341 -0.9492  0.1018 -0.3420
  156MOL0     H21025   2.734   6.057   3.250 -1.1979  0.0418 -0.9120
  156MOL0     H21026   2.561   6.117   3.081  2.8052  0.3774 -0.6855
  156MOL0     H21027   2.562   6.215   3.231 -1.2078 -3.0874 -0.4790
  156MOL0     H21028   2.449   6.396   3.132 -0.8599  0.5188 -0.0301
  156MOL0     H21029   2.446   6.332   2.973  2.1089  3.0067  1.4331
  156MOL0     H21030   2.315   6.182   3.214  2.4738  0.8987  1.1297
  156MOL0     H21031   2.315   6.142   3.044  4.7228  0.6794 -1.1937
  156MOL0     H21032   2.220   6.412   3.135  1.4723 -1.3277  0.9500
  156MOL0     H21033   2.199   6.340   2.972 -0.9749 -0.2112  0.1809
  156MOL0     H21034   2.046   6.210   3.192  0.2697 -0.3695 -0.6205
  156MOL0     H21035   2.060   6.163   3.025  0.5276 -0.8456  0.0775
  156MOL0     H21036   1.934   6.411   3.157 -1.5111 -0.3519  0.8166
  156MOL0     H21037   1.968   6.409   2.981  0.3433 -0.1176  0.7378
  156MOL0     H21038   1.805   6.197   3.120  0.6908  1.8832  1.6634
  156MOL0     H21039   1.822   6.223   2.951  1.3406 -1.2405  0.4143
  156MOL0     H21040   1.702   6.454   3.112  0.7241  3.5250 -3.1689
  156MOL0     H21041   1.606   6.311   3.068  0.8644 -1.0564 -1.8594
  156MOL0     H21042   2.892   6.402   3.044  0.4215 -0.2243  0.0878
  156MOL0     H21043   3.110   6.366   3.143 -2.1140  0.7240 -1.8419
  156MOL0     H21044   3.318   5.927   3.528  0.9376 -0.0150  1.7730
  156MOL0     H21045   3.542   5.895   3.613  3.7487  0.8522 -0.0614
  156MOL0     H21046   5.173   5.911   4.603  2.3935 -1.4382 -1.6140
  156MOL0     H21047   5.404   6.007   4.608 -0.0156 -1.4846 -1.2932
  156MOL0     H21048   5.715   6.207   4.532  3.4857 -1.3013 -3.2079
  156MOL0     H21049   5.961   6.277   4.508  0.9332  1.5427 -1.7643
  156MOL0     H21050   6.177   6.409   4.560 -3.3482 -0.3266  1.3248
  156MOL0     H21051   6.136   6.355   4.393  1.7865  0.1753 -0.3616
  156MOL0     H21052   6.203   6.600   4.320 -1.0385 -1.5955 -2.1002
  156MOL0     H21053   6.304   6.462   4.308 -1.6524  0.7145 -0.2746
  156MOL0     H21054   6.427   6.543   4.522 -0.6140 -0.5811 -1.1378
  156MOL0     H21055   6.318   6.681   4.544  1.1772  1.7690 -0.8506
  156MOL0     H21056   6.376   6.765   4.314 -1.6763 -0.5497  0.5858
  156MOL0     H21057   6.482   6.632   4.305 -3.0580  1.0842 -2.3118
  156MOL0     H21058   6.724   6.895   4.515 -1.8253  3.2587 -1.4688
  156MOL0     H21059   5.827   6.683   4.489 -0.0476 -0.2800 -1.5575
  156MOL0     H21060   5.608   6.624   4.526 -2.4986 -1.6383  0.4787
  157MOL0     O21061  10.490   3.035  10.038 -0.4449  0.8373 -0.0732
  157MOL0     C21062  10.615   3.033  10.008  0.5181 -0.6518  0.0617
  157MOL0     O21063  10.671   3.004   9.879  0.4537 -0.6793 -0.3212
  157MOL0     C21064  10.588   2.971   9.778  0.2234  1.4660  0.1867
  157MOL0     C21065  10.638   2.858   9.702  1.0573  0.0630 -1.2274
  157MOL0     C21066  10.555   2.805   9.605 -0.2985 -0.7056 -0.5662
  157MOL0     C21067  10.426   2.855   9.577 -0.6632  0.4560  0.1543
  157MOL0     O21068  10.367   2.797   9.467  0.1918  0.5354 -0.0236
  157MOL0     C21069  10.230   2.831   9.438 -0.1751  1.1103 -0.6477
  157MOL0     C21070  10.174   2.722   9.347 -0.4863 -0.6083 -0.1318
  157MOL0     C21071  10.033   2.739   9.301  0.8247 -1.0967 -0.4617
  157MOL0     C21072   9.976   2.611   9.230  0.1350  0.4699 -0.2319
  157MOL0     C21073   9.826   2.616   9.201 -1.2903 -0.1179 -0.1549
  157MOL0     C21074   9.752   2.633   9.329  0.1644 -0.1753 -0.4565
  157MOL0     C21075   9.612   2.603   9.298 -0.5190  0.0670  0.8770
  157MOL0     C21076   9.564   2.462   9.336  0.9297 -0.8065 -0.3783
  157MOL0     N21077   9.423   2.447   9.293 -0.4100  0.8906 -0.5081
  157MOL0     C21078   9.320   2.469   9.375  0.1579  0.0860  0.2113
  157MOL0     C21079   9.209   2.429   9.306 -0.3793 -0.5171 -0.2860
  157MOL0     C21080   9.066   2.431   9.373  0.0937  1.3529 -0.1439
  157MOL0     C21081   9.015   2.285   9.378 -0.0000 -0.1037  0.4038
  157MOL0     C21082   8.870   2.276   9.427 -0.2634 -0.4234  0.4069
  157MOL0     C21083   8.773   2.343   9.332  0.1968  0.5188 -0.0054
  157MOL0     O21084   8.650   2.295   9.377  0.0207  0.2453  0.4370
  157MOL0     C21085   8.537   2.331   9.312  0.7141 -0.2237  0.2278
  157MOL0     C21086   8.532   2.429   9.207  0.5593  0.2182 -0.1469
  157MOL0     C21087   8.410   2.467   9.148 -0.3706  1.2789 -0.7250
  157MOL0     C21088   8.405   2.578   9.043  0.9883  0.0577 -0.1872
  157MOL0     C21089   8.296   2.402   9.193  0.7483  0.1551 -0.6109
  157MOL0     C21090   8.172   2.439   9.134 -0.4294  1.3206 -0.4037
  157MOL0     O21091   8.093   2.520   9.213  0.9435  0.3000  0.4856
  157MOL0     C21092   7.971   2.556   9.163 -0.0638 -0.7422 -0.2314
  157MOL0     C21093   7.953   2.695   9.147  0.0323 -0.4905  0.4867
  157MOL0     C21094   7.825   2.737   9.108 -0.4254 -0.0298 -0.0043
  157MOL0     C21095   7.722   2.641   9.094  1.0698 -0.2496 -0.4009
  157MOL0     O21096   7.598   2.689   9.056 -0.3792 -0.0487 -0.4925
  157MOL0     C21097   7.528   2.606   8.968 -0.1361 -0.7373  0.0296
  157MOL0     C21098   7.417   2.692   8.912  0.5743 -0.6241 -0.2431
  157MOL0     C21099   7.449   2.823   8.850 -0.3343  0.3052  0.2622
  157MOL0     C21100   7.315   2.905   8.845 -0.2629 -0.5034  0.2409
  157MOL0     C21101   7.332   3.029   8.756  0.1779 -0.0192  0.2846
  157MOL0     C21102   7.236   3.141   8.799  0.3396 -0.4504 -0.8517
  157MOL0     C21103   7.096   3.117   8.749  0.3371  0.1352 -0.8994
  157MOL0     C21104   7.005   3.202   8.831 -0.0068 -0.2120  0.6286
  157MOL0    Cl21105   6.865   3.229   8.719 -0.3629 -0.2839 -0.4963
  157MOL0     C21106   7.745   2.508   9.117  0.1958  0.7242 -0.3798
  157MOL0     C21107   7.873   2.455   9.151  0.3234 -0.9874  0.0649
  157MOL0     O21108   8.147   2.403   9.022 -0.1284 -0.4213 -0.0827
  157MOL0     C21109   8.297   2.312   9.298 -0.1504  0.1515  0.1958
  157MOL0     C21110   8.414   2.279   9.360 -0.3393 -0.3710 -0.1892
  157MOL0     N21111   9.246   2.383   9.183  0.6311  0.3190 -0.3857
  157MOL0     N21112   9.374   2.391   9.176  0.1631  0.0658  0.5192
  157MOL0     C21113  10.395   2.983   9.628  0.1356 -0.4524 -0.1599
  157MOL0     C21114  10.484   3.039   9.726  0.4381  0.4039  0.7217
  157MOL0     C21115  10.710   3.053  10.119  0.4752  0.6913 -0.0394
  157MOL0     C21116  10.846   3.074  10.088  0.4286  0.0206 -0.5851
  157MOL0     C21117  10.937   3.088  10.184 -0.7760 -0.1295  0.0842
  157MOL0     C21118  10.898   3.092  10.320  0.0765 -0.6353  0.3782
  157MOL0     O21119  11.006   3.106  10.405 -0.6238 -0.1049 -0.9665
  157MOL0     C21120  10.977   3.117  10.547  0.5160  0.0577 -0.3285
  157MOL0     C21121  11.099   3.158  10.621 -0.0706 -1.3766 -0.1328
  157MOL0     C21122  11.123   3.310  10.617  0.3249 -0.0733 -0.1635
  157MOL0     C21123  11.247   3.345  10.541 -0.2760  0.5191  0.1886
  157MOL0     C21124  11.218   3.363  10.395 -0.1157  0.2778  0.1261
  157MOL0     C21125  11.186   3.373  10.280 -0.4875  0.4425 -0.2598
  157MOL0     C21126  10.759   3.071  10.358 -0.7461  0.6543 -0.6976
  157MOL0     C21127  10.670   3.050  10.248  0.0068  0.3448 -0.0075
  157MOL0     H21128  10.737   2.818   9.722  1.4732  2.3250  2.0328
  157MOL0     H21129  10.588   2.715   9.553  0.2429 -0.0078 -1.4756
  157MOL0     H21130  10.160   2.830   9.522 -0.2207  0.5849 -0.6880
  157MOL0     H21131  10.229   2.929   9.390  0.6229  1.2986 -0.2941
  157MOL0     H21132  10.242   2.717   9.262 -0.7857  2.3793 -0.6235
  157MOL0     H21133  10.177   2.623   9.396  2.4889 -0.4328  0.2281
  157MOL0     H21134   9.976   2.756   9.393  0.2100  2.1292 -1.3044
  157MOL0     H21135  10.019   2.827   9.237  1.0482  1.0688  2.2596
  157MOL0     H21136  10.027   2.584   9.137 -0.1413 -1.2008  0.0663
  157MOL0     H21137   9.995   2.527   9.298  1.4873  0.9830  0.0514
  157MOL0     H21138   9.823   2.709   9.143  2.2172 -0.7103 -1.4931
  157MOL0     H21139   9.795   2.528   9.144 -1.4098 -2.4676  3.2062
  157MOL0     H21140   9.791   2.573   9.411 -1.3785 -0.6790 -0.0657
  157MOL0     H21141   9.755   2.738   9.359  1.8889 -0.2252 -0.3581
  157MOL0     H21142   9.554   2.684   9.344 -1.0318  0.3857 -0.2952
  157MOL0     H21143   9.585   2.612   9.192  0.0666 -4.0490  0.2425
  157MOL0     H21144   9.573   2.452   9.444 -1.3306 -1.3711 -0.2109
  157MOL0     H21145   9.626   2.384   9.290  0.3865 -1.1225 -0.5790
  157MOL0     H21146   9.322   2.494   9.481  1.2588 -0.3829  0.3057
  157MOL0     H21147   9.070   2.454   9.480 -1.7813 -1.3363  0.5954
  157MOL0     H21148   8.991   2.501   9.336 -2.8585 -0.7962  1.3692
  157MOL0     H21149   9.088   2.228   9.436  1.2635  0.4171 -0.6283
  157MOL0     H21150   9.019   2.244   9.276 -1.3005  1.7257 -0.4356
  157MOL0     H21151   8.866   2.317   9.528  0.5046  0.4072  0.1136
  157MOL0     H21152   8.852   2.169   9.440 -0.9804 -0.2401  0.9616
  157MOL0     H21153   8.786   2.315   9.227  0.9571  0.4878  0.0919
  157MOL0     H21154   8.775   2.452   9.330  1.2287  0.5314  0.7922
  157MOL0     H21155   8.622   2.481   9.179  1.5850  0.0277  2.4754
  157MOL0     H21156   8.353   2.660   9.094 -0.6897 -1.9120  1.4775
  157MOL0     H21157   8.509   2.604   9.019  0.9202  1.9078  1.3038
  157MOL0     H21158   8.351   2.566   8.949  2.8124  3.8170 -1.9450
  157MOL0     H21159   8.038   2.761   9.161 -1.2358  1.0210  1.3698
  157MOL0     H21160   7.801   2.842   9.098  0.7403  0.3548  0.9937
  157MOL0     H21161   7.586   2.590   8.876 -0.7770 -3.1845 -0.0140
  157MOL0     H21162   7.490   2.510   9.001 -0.9692  0.3522  2.4533
  157MOL0     H21163   7.366   2.633   8.835 -1.5638  1.1461 -0.3040
  157MOL0     H21164   7.342   2.701   8.992  0.5570 -1.7694 -0.1169
  157MOL0     H21165   7.510   2.808   8.760 -0.6338  1.2525 -0.1094
  157MOL0     H21166   7.516   2.878   8.917 -2.1822  1.5189  1.1825
  157MOL0     H21167   7.241   2.835   8.805 -2.0086 -0.3613  2.9591
  157MOL0     H21168   7.297   2.944   8.945 -0.0433 -1.1666  0.5386
  157MOL0     H21169   7.320   3.007   8.650  0.4633 -1.8336  0.6015
  157MOL0     H21170   7.435   3.067   8.766 -0.0101  0.3661  0.7990
  157MOL0     H21171   7.240   3.139   8.908 -1.8320 -3.4389 -0.7120
  157MOL0     H21172   7.281   3.232   8.759 -1.0974  2.0931  2.7975
  157MOL0     H21173   7.071   3.010   8.755 -1.3061  0.5862  2.1959
  157MOL0     H21174   7.092   3.144   8.643 -1.1172  1.0608 -0.6354
  157MOL0     H21175   7.056   3.296   8.855 -0.6758  0.7363 -1.4366
  157MOL0     H21176   6.985   3.161   8.931  1.4670 -1.0304  0.6070
  157MOL0     H21177   7.671   2.429   9.112 -2.2591  2.9188 -1.1164
  157MOL0     H21178   7.892   2.349   9.166 -2.7776 -1.2171  4.2642
  157MOL0     H21179   8.203   2.267   9.325 -0.8590  0.4710 -1.6313
  157MOL0     H21180   8.429   2.209   9.441 -0.3908  0.6753  0.7534
  157MOL0     H21181  10.312   3.039   9.585  0.2681  0.5152  0.7849
  157MOL0     H21182  10.459   3.132   9.775  0.4728  1.5067 -1.2553
  157MOL0     H21183  10.891   3.080   9.989  1.0431  0.3069 -0.2897
  157MOL0     H21184  11.040   3.095  10.153 -1.4350  2.4246 -1.8243
  157MOL0     H21185  10.898   3.192  10.557 -1.1843 -1.2369 -2.8618
  157MOL0     H21186  10.940   3.025  10.594  0.7985  0.2024  0.1816
  157MOL0     H21187  11.187   3.114  10.573 -0.8032 -1.8205 -1.0885
  157MOL0     H21188  11.084   3.112  10.719  0.8596 -1.0858  0.1537
  157MOL0     H21189  11.124   3.347  10.720 -0.7043 -0.6133  0.0512
  157MOL0     H21190  11.037   3.367  10.582  0.4847 -0.1673 -0.7175
  157MOL0     H21191  11.317   3.262  10.537 -2.0980 -1.0695 -0.4270
  157MOL0     H21192  11.285   3.434  10.591 -3.4623  1.5719  1.0099
  157MOL0     H21193  11.137   3.381  10.185 -0.6387  3.8394 -0.0139
  157MOL0     H21194  10.716   3.058  10.457 -0.5269 -0.7540 -0.7590
  157MOL0     H21195  10.573   3.012  10.275  0.2743  0.7956  1.6850
  158MOL0     O21196   1.495  10.629   8.213  0.1172  0.1012 -0.4464
  158MOL0     C21197   1.488  10.751   8.194 -0.1301  0.4570  0.2068
  158MOL0     O21198   1.371  10.815   8.157  0.0556 -0.2179 -0.1718
  158MOL0     C21199   1.248  10.773   8.195  0.7904  0.2036  1.0790
  158MOL0     C21200   1.152  10.840   8.126  0.8507 -0.3394 -0.4839
  158MOL0     C21201   1.015  10.820   8.160  0.8927  0.5525 -0.5524
  158MOL0     C21202   0.978  10.726   8.261  0.2292  0.5760 -0.4298
  158MOL0     O21203   0.844  10.700   8.292  0.4961  0.2977 -0.7308
  158MOL0     C21204   0.743  10.733   8.196  1.2769  0.6430  0.6714
  158MOL0     C21205   0.600  10.694   8.235 -0.9746  0.0349 -0.3074
  158MOL0     C21206   0.500  10.738   8.135  0.0491  0.2902 -0.9136
  158MOL0     C21207   0.357  10.708   8.189 -0.0694 -0.0494  0.1576
  158MOL0     C21208   0.265  10.675   8.068 -0.1718  1.1225 -0.1539
  158MOL0     C21209   0.262  10.776   7.955 -0.2762 -0.5358 -0.1962
  158MOL0     C21210   0.198  10.725   7.831  0.8836  0.2359 -0.2414
  158MOL0     C21211   0.194  10.828   7.714  0.0972 -0.0363 -0.1325
  158MOL0     N21212   0.141  10.959   7.746 -0.0792  0.0643  0.0764
  158MOL0     C21213   0.008  10.991   7.731 -0.3927 -0.0973  0.6862
  158MOL0     C21214  -0.006  11.115   7.784  0.1572  0.5158 -0.1550
  158MOL0     C21215  -0.127  11.199   7.814 -0.6730 -0.4415 -0.1220
  158MOL0     C21216  -0.246  11.128   7.893  0.3013  0.8242  0.1515
  158MOL0     C21217  -0.371  11.226   7.899  0.3019  0.3502 -0.4097
  158MOL0     C21218  -0.465  11.173   8.005 -0.5545  0.1276 -0.2935
  158MOL0     O21219  -0.550  11.283   8.052 -0.0939  0.3408 -0.3129
  158MOL0     C21220  -0.689  11.258   8.077  0.1529  0.6264  0.2757
  158MOL0     C21221  -0.782  11.359   8.091  0.0838 -0.1242 -0.0190
  158MOL0     C21222  -0.923  11.344   8.108 -0.2430 -0.2188  0.0813
  158MOL0     C21223  -1.010  11.466   8.096 -0.8089  0.5630 -0.3652
  158MOL0     C21224  -0.962  11.207   8.142 -0.8482 -0.4817 -1.0908
  158MOL0     C21225  -1.102  11.178   8.172  1.0096  0.3726  0.1450
  158MOL0     O21226  -1.133  11.055   8.226  0.3590 -0.0208  0.1033
  158MOL0     C21227  -1.264  11.015   8.234 -0.3829 -0.1908 -0.7524
  158MOL0     C21228  -1.321  10.981   8.361  0.2379 -0.4220  0.9911
  158MOL0     C21229  -1.451  10.950   8.382 -0.1047  0.2228  0.5077
  158MOL0     C21230  -1.543  10.952   8.275  0.2898  0.5029  0.0578
  158MOL0     O21231  -1.677  10.957   8.276 -0.2284 -0.4160  0.9170
  158MOL0     C21232  -1.741  10.857   8.354 -0.9910  0.8045 -0.1839
  158MOL0     C21233  -1.894  10.869   8.333 -0.4860  0.3909 -0.2181
  158MOL0     C21234  -1.962  10.758   8.405 -0.3959 -0.1969  0.5660
  158MOL0     C21235  -2.113  10.769   8.388  0.1704  0.0328 -0.3533
  158MOL0     C21236  -2.179  10.641   8.440  0.6178 -0.6112  0.3176
  158MOL0     C21237  -2.334  10.638   8.416 -1.2090  0.3278 -0.2944
  158MOL0     C21238  -2.394  10.508   8.457  0.8720  0.4130  0.6338
  158MOL0     C21239  -2.545  10.498   8.429  0.0687 -0.1471  0.2410
  158MOL0    Cl21240  -2.650  10.555   8.554 -0.4115  0.0878  0.1681
  158MOL0     C21241  -1.486  10.969   8.147  0.0951  0.0761 -0.3078
  158MOL0     C21242  -1.349  10.992   8.121 -0.4014  0.2020 -0.7656
  158MOL0     O21243  -1.185  11.266   8.144  0.8818  0.5682 -0.4196
  158MOL0     C21244  -0.861  11.104   8.148  0.1122 -0.4435  0.3577
  158MOL0     C21245  -0.731  11.128   8.118  0.0888 -0.5105 -0.0986
  158MOL0     N21246   0.121  11.162   7.809  0.1326 -0.1482 -0.6536
  158MOL0     N21247   0.206  11.069   7.797  0.4743  0.9168 -0.4978
  158MOL0     C21248   1.079  10.663   8.334 -1.0002 -0.1790  0.0973
  158MOL0     C21249   1.213  10.694   8.303  0.5219 -0.4845 -0.4318
  158MOL0     C21250   1.619  10.820   8.208 -0.1571 -0.1894  0.6547
  158MOL0     C21251   1.633  10.957   8.177  0.0792  1.0625 -0.0440
  158MOL0     C21252   1.754  11.028   8.197  0.2299  0.6355  0.5948
  158MOL0     C21253   1.871  10.967   8.231  0.1887  0.1548  0.0719
  158MOL0     O21254   1.980  11.043   8.248 -0.6687  0.0044  0.2096
  158MOL0     C21255   2.111  11.004   8.183  0.6999 -0.5279 -0.2197
  158MOL0     C21256   2.210  11.115   8.167 -0.1494 -0.3870 -0.4968
  158MOL0     C21257   2.145  11.239   8.090 -0.8031  0.0438  0.5598
  158MOL0     C21258   2.263  11.344   8.065  0.6601  1.0230  0.1085
  158MOL0     C21259   2.373  11.299   7.982 -0.1511  0.2898 -0.8284
  158MOL0     C21260   2.470  11.263   7.921 -0.2134  0.2690  0.3711
  158MOL0     C21261   1.866  10.827   8.258 -1.0262 -0.3390 -0.7450
  158MOL0     C21262   1.744  10.757   8.252  0.8844  0.7935 -0.5211
  158MOL0     H21263   1.178  10.911   8.049 -2.9701  0.3578 -1.2973
  158MOL0     H21264   0.944  10.883   8.108 -0.6759 -2.4665 -2.3846
  158MOL0     H21265   0.750  10.840   8.174 -0.3082  0.0209 -3.9473
  158MOL0     H21266   0.762  10.681   8.101 -0.7597  1.7349 -0.4017
  158MOL0     H21267   0.591  10.587   8.254 -2.3204  0.2906  0.7188
  158MOL0     H21268   0.580  10.735   8.335  0.7924  0.5965 -0.1566
  158MOL0     H21269   0.511  10.846   8.118  1.0281  0.2117 -0.8527
  158MOL0     H21270   0.529  10.689   8.042  0.4000 -0.7840 -0.2525
  158MOL0     H21271   0.356  10.622   8.256 -1.3735 -2.4452 -2.7042
  158MOL0     H21272   0.321  10.791   8.251 -0.0753  0.2741 -0.2664
  158MOL0     H21273   0.315  10.583   8.038  1.3538  1.5651  0.9137
  158MOL0     H21274   0.161  10.645   8.087  0.0037  1.0662  0.7711
  158MOL0     H21275   0.206  10.861   7.995  1.9115  2.1678 -2.3868
  158MOL0     H21276   0.365  10.807   7.932 -0.7251  1.6526  0.4893
  158MOL0     H21277   0.256  10.636   7.802 -1.2611 -0.5167 -2.6403
  158MOL0     H21278   0.096  10.692   7.851  0.4898  0.6404 -1.4493
  158MOL0     H21279   0.128  10.771   7.648 -2.8790  0.4582  2.1913
  158MOL0     H21280   0.289  10.849   7.663 -0.6968  2.7517 -0.6148
  158MOL0     H21281  -0.076  10.928   7.704  0.0056  0.5196 -2.3218
  158MOL0     H21282  -0.091  11.288   7.866  1.1269 -0.2376 -1.6239
  158MOL0     H21283  -0.163  11.227   7.715  0.2642 -3.3752 -1.3866
  158MOL0     H21284  -0.215  11.089   7.990 -0.7583 -2.5424 -0.7064
  158MOL0     H21285  -0.277  11.041   7.834  2.3224  0.1332  0.0548
  158MOL0     H21286  -0.425  11.230   7.804 -0.5932 -0.4600  0.0343
  158MOL0     H21287  -0.344  11.327   7.931  0.1831  0.9506 -2.1400
  158MOL0     H21288  -0.412  11.132   8.092 -0.3146 -1.4570 -1.1477
  158MOL0     H21289  -0.508  11.087   7.953  2.8589 -1.1374 -1.3374
  158MOL0     H21290  -0.741  11.459   8.075  1.1247 -0.8347 -2.2130
  158MOL0     H21291  -1.070  11.468   8.005 -0.6467  1.9691 -0.4613
  158MOL0     H21292  -1.062  11.488   8.190  2.2356  1.9080  1.1463
  158MOL0     H21293  -0.948  11.555   8.088  0.5737 -0.2212  1.0550
  158MOL0     H21294  -1.256  10.974   8.448 -0.5300  3.9177  2.1786
  158MOL0     H21295  -1.483  10.933   8.485  2.8121 -0.1526  1.4602
  158MOL0     H21296  -1.707  10.758   8.322  0.9265  1.0657  0.9222
  158MOL0     H21297  -1.713  10.867   8.459  1.1529 -2.0209 -0.3608
  158MOL0     H21298  -1.926  10.967   8.371 -0.0439  1.3477 -2.1814
  158MOL0     H21299  -1.907  10.862   8.225 -0.9304  1.2107 -0.2253
  158MOL0     H21300  -1.938  10.761   8.512 -2.7128 -0.2882  1.1497
  158MOL0     H21301  -1.924  10.663   8.368  1.9323  0.6362  0.6614
  158MOL0     H21302  -2.158  10.857   8.435  1.4561  0.6599 -0.2614
  158MOL0     H21303  -2.143  10.784   8.284  2.0709 -3.2154 -1.4885
  158MOL0     H21304  -2.153  10.634   8.546 -0.2508 -1.2844  0.5009
  158MOL0     H21305  -2.132  10.558   8.385  0.8798 -0.6533  0.6072
  158MOL0     H21306  -2.386  10.716   8.474  0.4029 -0.4525  2.3722
  158MOL0     H21307  -2.342  10.665   8.310  4.0609  0.4499 -0.8965
  158MOL0     H21308  -2.374  10.490   8.563 -1.7197 -1.5960  0.8879
  158MOL0     H21309  -2.344  10.448   8.380 -1.4064  0.8245 -1.2856
  158MOL0     H21310  -2.583  10.396   8.411 -0.9572  0.1281  0.7471
  158MOL0     H21311  -2.562  10.563   8.343 -0.2683 -0.0664  0.3643
  158MOL0     H21312  -1.549  10.979   8.059  1.6059  0.1647 -1.4305
  158MOL0     H21313  -1.299  11.022   8.029  0.9149  1.3270  0.2642
  158MOL0     H21314  -0.895  11.006   8.180 -0.0424 -1.1324 -1.7805
  158MOL0     H21315  -0.661  11.045   8.125  0.1308 -0.4612  0.0844
  158MOL0     H21316   1.059  10.590   8.412  2.6911 -0.3087  1.0854
  158MOL0     H21317   1.299  10.659   8.360 -0.1884 -1.3469  0.1465
  158MOL0     H21318   1.545  11.015   8.149 -1.2246 -0.7289  0.2394
  158MOL0     H21319   1.749  11.133   8.171 -1.0971  0.7437  1.2103
  158MOL0     H21320   2.154  10.929   8.250  2.2558  1.8496  1.5928
  158MOL0     H21321   2.096  10.955   8.086  0.0768  3.4853 -2.3540
  158MOL0     H21322   2.296  11.072   8.115  0.9506  0.3315  0.6431
  158MOL0     H21323   2.248  11.136   8.268 -2.7517 -0.4088  0.5471
  158MOL0     H21324   2.086  11.300   8.158  0.0026  0.5761  0.7905
  158MOL0     H21325   2.096  11.211   7.996  1.3373  1.1353 -0.9841
  158MOL0     H21326   2.299  11.374   8.164 -2.1661 -1.7487  2.2058
  158MOL0     H21327   2.223  11.435   8.019 -2.4624 -0.9399 -1.4410
  158MOL0     H21328   2.546  11.227   7.855  0.0562 -1.5278  1.5960
  158MOL0     H21329   1.959  10.781   8.292  0.1647  1.2656 -1.7077
  158MOL0     H21330   1.735  10.654   8.285  2.2561  1.0616  0.7952
  159MOL0     O21331   0.940   2.271   7.879 -0.7633  0.0367  0.3317
  159MOL0     C21332   0.998   2.378   7.874  0.0043 -0.0910 -0.6274
  159MOL0     O21333   0.955   2.488   7.935 -0.5111  0.7162 -0.3826
  159MOL0     C21334   0.820   2.498   7.947  0.3170  0.1013 -0.2477
  159MOL0     C21335   0.729   2.524   7.838 -0.4918 -1.3541  0.3488
  159MOL0     C21336   0.595   2.543   7.860 -0.3092  0.2883 -0.0130
  159MOL0     C21337   0.545   2.538   7.992  0.5388 -0.5400  0.6586
  159MOL0     O21338   0.409   2.548   7.998  0.4971  0.0743 -0.4625
  159MOL0     C21339   0.343   2.549   8.122  0.9437 -0.5234 -0.5441
  159MOL0     C21340   0.194   2.563   8.096  0.0651 -0.9862  0.1450
  159MOL0     C21341   0.127   2.590   8.226 -0.0709  0.1781 -0.6739
  159MOL0     C21342   0.132   2.474   8.332 -0.3278  0.0262  0.0687
  159MOL0     C21343   0.034   2.489   8.454  0.0601  0.0621  0.4287
  159MOL0     C21344   0.078   2.624   8.522 -0.2771 -0.7177  0.7187
  159MOL0     C21345   0.022   2.659   8.665  0.6818 -0.1008  0.2563
  159MOL0     C21346  -0.129   2.690   8.652 -0.0501 -0.2142  0.0746
  159MOL0     N21347  -0.193   2.643   8.780  0.6299 -0.2503  0.5729
  159MOL0     C21348  -0.188   2.516   8.824 -0.5177 -0.0968 -0.7381
  159MOL0     C21349  -0.266   2.507   8.934  0.0977 -0.2989  0.5981
  159MOL0     C21350  -0.297   2.390   9.017 -0.3166  0.1619 -0.1378
  159MOL0     C21351  -0.409   2.303   8.970 -0.3095  0.8446  0.3797
  159MOL0     C21352  -0.554   2.358   8.977 -0.2784 -0.2794  0.4994
  159MOL0     C21353  -0.658   2.253   8.952 -0.4994 -0.2341  0.6586
  159MOL0     O21354  -0.637   2.202   8.815 -0.1992 -0.0723 -0.7934
  159MOL0     C21355  -0.708   2.097   8.768 -0.5388  0.0532  0.6519
  159MOL0     C21356  -0.667   2.046   8.647  0.0477 -0.8032  0.6269
  159MOL0     C21357  -0.733   1.934   8.583 -0.2423 -0.5062  0.3218
  159MOL0     C21358  -0.664   1.871   8.468  0.5334 -0.7417  0.6236
  159MOL0     C21359  -0.843   1.874   8.644 -0.5631 -0.5624 -1.0819
  159MOL0     C21360  -0.915   1.761   8.590 -0.5598 -0.4959  0.0691
  159MOL0     O21361  -0.940   1.759   8.454  0.2114 -0.4234 -0.9154
  159MOL0     C21362  -1.045   1.684   8.399  0.0272 -0.0123  0.7488
  159MOL0     C21363  -1.163   1.666   8.474 -0.0908 -0.4168  0.4452
  159MOL0     C21364  -1.265   1.591   8.416  0.0262 -0.0322  0.2610
  159MOL0     C21365  -1.257   1.547   8.281  0.4829  0.0474  0.0862
  159MOL0     O21366  -1.360   1.479   8.228 -0.5666 -0.1753  0.2270
  159MOL0     C21367  -1.430   1.545   8.124 -1.0878 -0.8201 -0.4630
  159MOL0     C21368  -1.570   1.483   8.109  0.4659  0.6534  1.0617
  159MOL0     C21369  -1.662   1.550   8.208  0.4897 -0.0694  0.5914
  159MOL0     C21370  -1.778   1.462   8.233  0.1480  0.8574  0.4803
  159MOL0     C21371  -1.881   1.522   8.334 -0.6744 -0.0782 -0.1974
  159MOL0     C21372  -1.986   1.425   8.363  0.3036  0.1811  0.5636
  159MOL0     C21373  -2.088   1.481   8.466  0.3695 -0.7473 -0.0647
  159MOL0     C21374  -2.203   1.383   8.514 -0.5909 -0.4330  0.6032
  159MOL0    Cl21375  -2.303   1.357   8.370  0.2344  0.5687 -0.1572
  159MOL0     C21376  -1.141   1.574   8.206 -0.5239  0.4949 -0.3739
  159MOL0     C21377  -1.040   1.647   8.267 -0.3254 -0.2069 -0.0240
  159MOL0     O21378  -0.933   1.666   8.668  0.1141  0.4353 -0.3939
  159MOL0     C21379  -0.889   1.936   8.765  0.1612  0.1540 -0.2400
  159MOL0     C21380  -0.822   2.041   8.823  1.0579 -0.7381 -0.3790
  159MOL0     N21381  -0.323   2.633   8.950 -0.3714  0.2612 -0.2237
  159MOL0     N21382  -0.278   2.712   8.856  0.2466 -0.4284 -0.2268
  159MOL0     C21383   0.634   2.509   8.096  0.4938  0.8630  0.3823
  159MOL0     C21384   0.769   2.487   8.075 -0.2340 -0.5866 -0.1102
  159MOL0     C21385   1.139   2.389   7.824  0.1590  0.1324 -0.0091
  159MOL0     C21386   1.227   2.275   7.827  0.1168  0.2842  0.8905
  159MOL0     C21387   1.355   2.285   7.772  0.8586  1.3829 -0.1404
  159MOL0     C21388   1.400   2.398   7.713  0.0680 -0.0337 -0.0507
  159MOL0     O21389   1.522   2.395   7.661  0.1496  0.4152 -0.1800
  159MOL0     C21390   1.627   2.470   7.728  0.2504 -0.1896  0.1600
  159MOL0     C21391   1.740   2.529   7.637 -0.2213 -0.3460  0.8150
  159MOL0     C21392   1.692   2.611   7.518  0.1786  0.0531 -0.6288
  159MOL0     C21393   1.674   2.538   7.382 -0.8659 -0.0294  0.6557
  159MOL0     C21394   1.609   2.628   7.285 -0.5364  0.3261  0.2734
  159MOL0     C21395   1.548   2.705   7.214 -0.9919  0.0025 -0.4833
  159MOL0     C21396   1.315   2.505   7.694 -0.1727  0.4842 -0.2808
  159MOL0     C21397   1.184   2.508   7.758 -0.0865 -0.3945  0.3847
  159MOL0     H21398   0.776   2.545   7.742 -1.5007  1.8190  0.4408
  159MOL0     H21399   0.542   2.558   7.766  0.5523 -2.0945 -0.9755
  159MOL0     H21400   0.362   2.455   8.174 -1.4580  0.0595  1.5845
  159MOL0     H21401   0.390   2.621   8.191  3.7365 -1.7517 -1.0135
  159MOL0     H21402   0.170   2.648   8.032 -3.1041 -1.2465  0.7970
  159MOL0     H21403   0.159   2.467   8.056  0.1818 -1.9672  2.2604
  159MOL0     H21404   0.153   2.684   8.277 -0.5872 -0.9249  1.7838
  159MOL0     H21405   0.026   2.607   8.188  0.7880  1.9614 -2.3304
  159MOL0     H21406   0.115   2.376   8.287 -0.0629 -0.8963  1.8847
  159MOL0     H21407   0.234   2.475   8.370  0.5732 -1.1754 -2.1772
  159MOL0     H21408  -0.065   2.489   8.408  0.6835 -3.2398 -1.2201
  159MOL0     H21409   0.037   2.408   8.527 -0.8391 -3.1438 -2.8162
  159MOL0     H21410   0.186   2.630   8.533  0.1055 -2.0297 -1.7495
  159MOL0     H21411   0.059   2.705   8.452  1.6105  0.0759  1.0787
  159MOL0     H21412   0.043   2.579   8.736 -1.1714 -1.8298 -1.0278
  159MOL0     H21413   0.070   2.751   8.701 -1.4608  1.9371 -1.7602
  159MOL0     H21414  -0.181   2.647   8.566 -1.6937  1.0322  0.3846
  159MOL0     H21415  -0.139   2.795   8.620 -4.0027 -0.9485 -1.5858
  159MOL0     H21416  -0.138   2.434   8.773 -0.0139 -0.9477  1.0277
  159MOL0     H21417  -0.211   2.322   9.012 -0.3268 -0.0902  2.1446
  159MOL0     H21418  -0.306   2.428   9.119 -3.9289  0.4088 -0.4339
  159MOL0     H21419  -0.404   2.213   9.031  1.6957 -0.2515 -1.2422
  159MOL0     H21420  -0.388   2.288   8.863 -0.2445  0.5692  0.4306
  159MOL0     H21421  -0.548   2.431   8.896 -0.3501  2.2871  2.6725
  159MOL0     H21422  -0.578   2.410   9.071  0.5755 -1.5389  1.4567
  159MOL0     H21423  -0.757   2.299   8.963  0.4197  2.1574 -0.3421
  159MOL0     H21424  -0.647   2.175   9.028  2.6866 -1.4005 -0.7892
  159MOL0     H21425  -0.585   2.098   8.598 -0.7526 -0.1964 -0.0967
  159MOL0     H21426  -0.557   1.893   8.472  0.2475  1.7157 -1.7060
  159MOL0     H21427  -0.676   1.763   8.466 -0.4510 -0.7058  2.4097
  159MOL0     H21428  -0.696   1.908   8.370 -0.2741 -1.8992  0.4367
  159MOL0     H21429  -1.162   1.702   8.576 -0.1210 -0.3812  0.4329
  159MOL0     H21430  -1.355   1.569   8.473 -0.8515 -2.4113 -1.8722
  159MOL0     H21431  -1.426   1.653   8.143  2.0778 -0.2635 -3.2973
  159MOL0     H21432  -1.366   1.517   8.040 -3.1988 -4.7968 -0.9765
  159MOL0     H21433  -1.618   1.502   8.012  2.2190 -0.2751 -0.0324
  159MOL0     H21434  -1.558   1.376   8.127  1.3357  0.6650  0.5987
  159MOL0     H21435  -1.694   1.646   8.167 -0.5598 -1.5778 -2.3716
  159MOL0     H21436  -1.613   1.564   8.305 -0.1544  0.2879  0.8737
  159MOL0     H21437  -1.827   1.432   8.140  1.3742 -0.5479  0.2482
  159MOL0     H21438  -1.739   1.372   8.281  1.6829  1.0213 -0.3671
  159MOL0     H21439  -1.925   1.610   8.286 -1.5622 -1.9056 -3.0054
  159MOL0     H21440  -1.832   1.536   8.430  1.7166 -1.0092 -1.1905
  159MOL0     H21441  -2.033   1.405   8.266  3.4213  0.7800 -1.2287
  159MOL0     H21442  -1.936   1.339   8.409 -0.4435 -0.6497 -0.1501
  159MOL0     H21443  -2.140   1.567   8.424 -0.3593 -0.5384  1.1989
  159MOL0     H21444  -2.025   1.507   8.552  1.4818 -2.4230 -0.3234
  159MOL0     H21445  -2.263   1.445   8.582  0.6621 -0.5325  1.8292
  159MOL0     H21446  -2.156   1.288   8.543  1.6474  0.6163  0.5781
  159MOL0     H21447  -1.122   1.527   8.110 -1.0175 -2.4728  0.8738
  159MOL0     H21448  -0.947   1.662   8.213  1.2030  0.9862  2.7369
  159MOL0     H21449  -0.983   1.899   8.804 -0.8090  1.7160 -0.9708
  159MOL0     H21450  -0.844   2.074   8.924  0.1868 -0.4236 -0.6603
  159MOL0     H21451   0.603   2.493   8.199 -0.2075  0.0932  0.0618
  159MOL0     H21452   0.825   2.453   8.161 -1.6882 -2.3975  0.1855
  159MOL0     H21453   1.183   2.186   7.870 -2.1600  1.1135  0.4424
  159MOL0     H21454   1.423   2.201   7.783 -0.5124 -0.3169 -3.2097
  159MOL0     H21455   1.596   2.558   7.787 -1.2699 -0.1394 -0.6621
  159MOL0     H21456   1.665   2.393   7.795 -0.2393 -2.6672 -2.2360
  159MOL0     H21457   1.811   2.452   7.606  0.2353  1.4142 -3.0892
  159MOL0     H21458   1.802   2.602   7.690 -2.2943  2.4856 -0.3797
  159MOL0     H21459   1.764   2.693   7.506  2.0903 -0.8743  3.0255
  159MOL0     H21460   1.599   2.650   7.561  1.5115  1.0545  1.5680
  159MOL0     H21461   1.617   2.445   7.390  1.2921 -1.6162 -1.0805
  159MOL0     H21462   1.770   2.510   7.339 -1.1061  0.9908 -0.5864
  159MOL0     H21463   1.496   2.769   7.146 -2.2618 -1.1869 -0.6589
  159MOL0     H21464   1.351   2.596   7.647 -0.0636  0.9843  0.7400
  159MOL0     H21465   1.118   2.593   7.743 -1.2704 -1.6807 -2.4975
  160MOL0     O21466   2.999   6.990   9.205 -1.0276 -0.6010 -0.1890
  160MOL0     C21467   3.035   6.991   9.087 -0.0077 -0.2731 -0.0306
  160MOL0     O21468   2.947   6.984   8.981 -0.5127  1.1475 -0.2859
  160MOL0     C21469   2.811   6.979   9.017 -0.2907 -0.4467 -0.6035
  160MOL0     C21470   2.733   6.875   8.959 -0.3341  0.2836  0.4223
  160MOL0     C21471   2.590   6.875   8.979 -0.5231  0.4345  0.9356
  160MOL0     C21472   2.526   6.978   9.043  0.3597 -0.5353  0.6100
  160MOL0     O21473   2.392   6.957   9.070 -0.4393 -0.2904 -0.3756
  160MOL0     C21474   2.319   7.061   9.008  0.1737 -0.5232  0.4389
  160MOL0     C21475   2.201   7.083   9.102  0.5884 -0.1046  0.5192
  160MOL0     C21476   2.101   7.178   9.052 -0.6091  0.7495 -0.2259
  160MOL0     C21477   1.997   7.228   9.160  0.1373  0.8970 -0.0956
  160MOL0     C21478   1.920   7.344   9.117 -0.2230 -0.6893  0.4208
  160MOL0     C21479   1.807   7.370   9.225 -0.0206  0.7272 -0.5036
  160MOL0     C21480   1.709   7.460   9.169  0.6379  0.5453  0.2904
  160MOL0     C21481   1.603   7.479   9.284 -0.2148 -0.0968  0.8152
  160MOL0     N21482   1.506   7.581   9.238 -0.0259  0.1184 -0.5585
  160MOL0     C21483   1.526   7.716   9.202  0.3599  0.2914 -0.0972
  160MOL0     C21484   1.404   7.774   9.171 -0.3632 -0.1532  0.7482
  160MOL0     C21485   1.388   7.910   9.124 -0.4778 -0.0283 -0.0810
  160MOL0     C21486   1.306   7.989   9.232  0.0664 -0.0654  0.1913
  160MOL0     C21487   1.238   8.112   9.167  1.2283  0.6540  0.2698
  160MOL0     C21488   1.159   8.191   9.266 -0.0984 -0.0150 -0.1024
  160MOL0     O21489   1.069   8.108   9.333 -0.5201 -0.7318  0.6561
  160MOL0     C21490   0.955   8.106   9.258  0.0956  0.0177  1.0409
  160MOL0     C21491   0.866   8.216   9.219 -0.9934  1.1188  0.5477
  160MOL0     C21492   0.767   8.193   9.125 -1.4459  0.2641  0.1020
  160MOL0     C21493   0.688   8.316   9.083 -0.3063 -0.3309  0.5492
  160MOL0     C21494   0.740   8.062   9.078 -0.8812 -0.2996  0.5260
  160MOL0     C21495   0.640   8.021   8.984  0.0486  0.7312 -0.0586
  160MOL0     O21496   0.639   7.891   8.950  0.3225  0.1612 -0.7045
  160MOL0     C21497   0.545   7.853   8.857 -0.0410 -0.0981  0.2045
  160MOL0     C21498   0.404   7.832   8.887 -0.2213  0.3051 -0.5312
  160MOL0     C21499   0.316   7.795   8.784 -0.3971  0.9186  0.2833
  160MOL0     C21500   0.350   7.781   8.654  0.8068  1.1796  0.5743
  160MOL0     O21501   0.251   7.731   8.560 -0.0119  0.7212 -0.0107
  160MOL0     C21502   0.278   7.728   8.420 -0.0449  0.1409  0.9376
  160MOL0     C21503   0.150   7.708   8.346 -0.4348 -0.5866  0.4587
  160MOL0     C21504   0.041   7.815   8.366  0.5665 -1.1140  0.4163
  160MOL0     C21505   0.090   7.959   8.344 -0.3420  0.1907 -0.6473
  160MOL0     C21506  -0.003   8.047   8.436  0.5842  0.0821  1.0527
  160MOL0     C21507  -0.135   8.084   8.370  0.6126 -0.0419  0.0987
  160MOL0     C21508  -0.211   8.198   8.434 -0.3526  0.2027 -0.3505
  160MOL0     C21509  -0.349   8.207   8.376  0.7660  0.7523 -0.3523
  160MOL0    Cl21510  -0.461   8.063   8.411 -0.3567  0.1498 -0.4772
  160MOL0     C21511   0.488   7.784   8.627  0.1752  0.0885  1.3175
  160MOL0     C21512   0.582   7.825   8.725 -0.1685 -0.3111 -0.1955
  160MOL0     O21513   0.553   8.100   8.959  0.9605  0.7156 -0.2696
  160MOL0     C21514   0.821   7.961   9.132 -0.1284 -0.5489 -0.8681
  160MOL0     C21515   0.929   7.979   9.215 -0.2922  0.2144  0.0829
  160MOL0     N21516   1.320   7.676   9.211  0.2679 -0.4675 -0.1609
  160MOL0     N21517   1.376   7.568   9.246  0.0786  0.4135 -0.4616
  160MOL0     C21518   2.607   7.077   9.103  0.2875  0.0407  0.0821
  160MOL0     C21519   2.745   7.077   9.096  0.3563  0.2752  1.0022
  160MOL0     C21520   3.180   7.009   9.061 -0.6108  0.6655 -0.4785
  160MOL0     C21521   3.291   7.004   9.153  0.5134 -0.7798  0.1398
  160MOL0     C21522   3.419   7.037   9.106 -0.1620  0.6229 -0.0303
  160MOL0     C21523   3.449   7.053   8.974  1.1458 -0.5209 -0.6363
  160MOL0     O21524   3.572   7.085   8.946  0.7592  0.0679 -0.0998
  160MOL0     C21525   3.586   7.192   8.853 -0.4522  1.0721 -0.5469
  160MOL0     C21526   3.725   7.257   8.862  1.0616 -0.4920  0.1229
  160MOL0     C21527   3.834   7.190   8.775  0.1712  0.2452 -0.2731
  160MOL0     C21528   3.948   7.283   8.732  0.3360 -0.3310 -0.3079
  160MOL0     C21529   4.037   7.212   8.647 -0.7638 -0.1341 -0.0253
  160MOL0     C21530   4.107   7.152   8.566  0.4409 -0.3666  0.1642
  160MOL0     C21531   3.344   7.043   8.878  0.0114  0.7521 -0.6941
  160MOL0     C21532   3.215   7.023   8.921 -0.5677 -0.4179 -0.1051
  160MOL0     H21533   2.780   6.794   8.904 -0.9589 -0.1226  0.4825
  160MOL0     H21534   2.530   6.789   8.953 -0.9310  0.4019  1.9391
  160MOL0     H21535   2.372   7.157   9.001  0.1957 -0.5257  0.5633
  160MOL0     H21536   2.291   7.020   8.911 -2.8499  0.7362  0.6632
  160MOL0     H21537   2.154   6.988   9.129 -2.0289  1.6700  2.7717
  160MOL0     H21538   2.240   7.124   9.196  0.7155 -1.8643  1.2671
  160MOL0     H21539   2.141   7.271   9.012  3.0144 -1.0423 -1.2271
  160MOL0     H21540   2.045   7.138   8.967  0.5178  2.6734 -1.9693
  160MOL0     H21541   1.924   7.149   9.178  2.4718 -2.1341 -2.8696
  160MOL0     H21542   2.048   7.256   9.253 -1.2863  1.3547  0.5847
  160MOL0     H21543   1.994   7.424   9.114 -1.1068  0.1276 -0.1584
  160MOL0     H21544   1.873   7.318   9.021 -1.0010 -0.3098  0.6969
  160MOL0     H21545   1.762   7.279   9.265  2.9301 -0.9838 -0.7652
  160MOL0     H21546   1.861   7.427   9.302 -0.2739  3.7592 -2.4155
  160MOL0     H21547   1.758   7.550   9.131  1.3167  0.7168  1.5413
  160MOL0     H21548   1.655   7.411   9.087  0.0557  1.7126 -0.0388
  160MOL0     H21549   1.652   7.510   9.377  2.3808 -0.6491 -0.2902
  160MOL0     H21550   1.546   7.388   9.304 -1.7461  0.1635 -1.8544
  160MOL0     H21551   1.623   7.765   9.195  0.7443 -0.4747 -0.2735
  160MOL0     H21552   1.485   7.958   9.111 -0.6487  0.4320  0.3244
  160MOL0     H21553   1.325   7.904   9.035  2.0607  2.2944 -2.1971
  160MOL0     H21554   1.378   8.032   9.302  1.0902  1.6022 -1.7418
  160MOL0     H21555   1.245   7.920   9.291  1.2451  0.6681  2.3808
  160MOL0     H21556   1.171   8.067   9.092  0.7876  1.0481  0.4161
  160MOL0     H21557   1.304   8.179   9.110  0.1812 -0.5121 -2.4891
  160MOL0     H21558   1.113   8.274   9.212  0.8259  0.6733  0.1378
  160MOL0     H21559   1.223   8.231   9.346  1.6349 -2.1272 -0.3217
  160MOL0     H21560   0.877   8.318   9.253  0.4344  1.0829  0.2580
  160MOL0     H21561   0.732   8.410   9.117  1.4556 -1.4093  1.3531
  160MOL0     H21562   0.702   8.325   8.975  1.1693 -3.0083  0.4421
  160MOL0     H21563   0.585   8.296   9.114 -0.9746 -2.4307 -2.5476
  160MOL0     H21564   0.376   7.851   8.991 -2.1163 -3.0292 -0.3117
  160MOL0     H21565   0.214   7.791   8.821 -0.2319  2.8009  1.0558
  160MOL0     H21566   0.329   7.815   8.378 -0.4458 -0.0562  0.0166
  160MOL0     H21567   0.338   7.637   8.404 -1.5989 -0.5137 -1.7607
  160MOL0     H21568   0.165   7.696   8.239 -2.0982 -1.6107  0.3103
  160MOL0     H21569   0.104   7.615   8.381  0.3928 -1.1157  0.1589
  160MOL0     H21570   0.003   7.791   8.466  0.0563 -0.1602  0.4567
  160MOL0     H21571  -0.039   7.798   8.294  2.1923 -2.2845 -1.2021
  160MOL0     H21572   0.186   7.977   8.392 -1.1096  1.3390  0.5634
  160MOL0     H21573   0.105   7.989   8.240 -0.0184 -1.1088 -0.9913
  160MOL0     H21574   0.063   8.131   8.464 -1.1096  1.2974  1.5568
  160MOL0     H21575  -0.038   7.998   8.527  1.1115  1.1849  1.8762
  160MOL0     H21576  -0.117   8.108   8.264  0.1146  3.2524  0.6563
  160MOL0     H21577  -0.195   7.993   8.374 -2.5862  1.8384 -1.1819
  160MOL0     H21578  -0.156   8.287   8.403  0.2042  0.7248  1.9459
  160MOL0     H21579  -0.221   8.183   8.542 -5.0216 -0.8435 -0.7289
  160MOL0     H21580  -0.335   8.216   8.268 -2.3909 -1.7415 -1.0971
  160MOL0     H21581  -0.405   8.295   8.408 -0.1472  0.0929 -0.0903
  160MOL0     H21582   0.524   7.768   8.526 -2.1051  1.6616  0.1889
  160MOL0     H21583   0.687   7.845   8.707 -0.3990 -0.2576 -1.6347
  160MOL0     H21584   0.796   7.857   9.114 -0.1021 -0.5092 -1.1456
  160MOL0     H21585   0.989   7.905   9.267  0.1432 -1.1226 -2.2091
  160MOL0     H21586   2.545   7.154   9.148 -3.2608 -1.2160 -2.2196
  160MOL0     H21587   2.789   7.165   9.143  2.4113 -1.6858  3.0143
  160MOL0     H21588   3.277   6.978   9.257  0.8030  0.3064  0.4621
  160MOL0     H21589   3.500   7.026   9.178 -0.3104 -0.0107  0.0501
  160MOL0     H21590   3.581   7.152   8.751  0.6758  1.3608 -0.7216
  160MOL0     H21591   3.511   7.272   8.860 -0.9082  0.7597 -1.6491
  160MOL0     H21592   3.762   7.252   8.965  1.3773 -1.8730 -0.0382
  160MOL0     H21593   3.709   7.361   8.831 -3.9592 -1.0248  0.0652
  160MOL0     H21594   3.790   7.134   8.691 -1.1072 -0.4594  0.8093
  160MOL0     H21595   3.874   7.110   8.839 -2.1839 -0.0624  0.9471
  160MOL0     H21596   3.991   7.330   8.821  0.4240  1.0068 -1.0428
  160MOL0     H21597   3.905   7.366   8.676  1.8384  0.0150 -0.9842
  160MOL0     H21598   4.170   7.100   8.497 -0.5481  1.6651 -2.4655
  160MOL0     H21599   3.364   7.054   8.771 -1.2175  2.3952 -0.7847
  160MOL0     H21600   3.140   7.022   8.843 -0.7434  1.6092 -0.0078
  161MOL0     O21601   9.360  10.381  11.269  0.1812 -0.1649  0.3058
  161MOL0     C21602   9.375  10.422  11.154 -0.3046  0.4510 -0.8285
  161MOL0     O21603   9.312  10.534  11.096 -0.5740  0.1480 -0.0128
  161MOL0     C21604   9.236  10.624  11.165  0.6168 -0.7794  0.0981
  161MOL0     C21605   9.135  10.694  11.103 -0.2721 -0.0352  0.4087
  161MOL0     C21606   9.048  10.790  11.159 -0.2492 -0.2814  0.2307
  161MOL0     C21607   9.052  10.812  11.293  0.6131  0.1292  0.2620
  161MOL0     O21608   8.960  10.906  11.335  0.0801  0.9360  0.1474
  161MOL0     C21609   8.986  10.956  11.470 -0.0035 -0.2650  0.5047
  161MOL0     C21610   8.885  11.065  11.513 -0.0987 -0.2302 -0.0721
  161MOL0     C21611   8.737  11.024  11.496  0.1236 -0.5764  0.0977
  161MOL0     C21612   8.647  11.123  11.568 -0.1367  0.1441 -0.2945
  161MOL0     C21613   8.492  11.107  11.557  0.2494 -0.3119  0.6518
  161MOL0     C21614   8.418  11.202  11.658 -0.2962  0.0902 -0.4546
  161MOL0     C21615   8.264  11.186  11.643  0.6336  0.3897  0.7388
  161MOL0     C21616   8.193  11.296  11.721 -0.1471 -0.1715 -0.1940
  161MOL0     N21617   8.051  11.303  11.675 -0.2143  0.4741 -0.2391
  161MOL0     C21618   7.964  11.201  11.660  0.3237  0.1273 -0.2939
  161MOL0     C21619   7.855  11.260  11.600 -0.4167 -0.4941  0.6660
  161MOL0     C21620   7.739  11.190  11.536  0.1577  0.0105 -0.3762
  161MOL0     C21621   7.603  11.189  11.612  0.4445  0.1121 -0.6284
  161MOL0     C21622   7.627  11.170  11.769 -0.2420 -0.4838 -0.0595
  161MOL0     C21623   7.487  11.162  11.847  0.5927 -0.4744  0.7606
  161MOL0     O21624   7.495  11.181  11.991  0.0242  0.1186 -0.0286
  161MOL0     C21625   7.369  11.205  12.044 -0.2780 -0.5828  0.9096
  161MOL0     C21626   7.336  11.335  12.085 -0.0323 -0.5327  0.1000
  161MOL0     C21627   7.198  11.378  12.112 -0.9209  0.3917 -0.3434
  161MOL0     C21628   7.173  11.526  12.141 -0.0610 -0.0075  0.0911
  161MOL0     C21629   7.103  11.274  12.128 -0.3992 -1.0110 -0.1006
  161MOL0     C21630   6.966  11.309  12.165 -0.5437 -0.0944  0.2507
  161MOL0     O21631   6.891  11.209  12.221  0.0174 -0.0902  0.2105
  161MOL0     C21632   6.758  11.230  12.268 -0.1721 -0.4280 -0.3641
  161MOL0     C21633   6.671  11.334  12.233 -0.6320 -0.4709 -0.5003
  161MOL0     C21634   6.536  11.335  12.277 -0.3279 -0.8540  0.9518
  161MOL0     C21635   6.502  11.247  12.377 -0.2045  0.1768 -0.2054
  161MOL0     O21636   6.383  11.279  12.438 -0.0439  0.2358 -0.0699
  161MOL0     C21637   6.297  11.165  12.468 -0.1443 -1.1897  0.2264
  161MOL0     C21638   6.173  11.222  12.529  0.3410 -0.1019 -0.5903
  161MOL0     C21639   6.090  11.308  12.429  0.5654 -0.5269 -0.5369
  161MOL0     C21640   5.950  11.317  12.490  0.7276 -0.0868  0.1102
  161MOL0     C21641   5.883  11.174  12.492  0.1719  0.4166  0.3604
  161MOL0     C21642   5.731  11.174  12.523 -0.0189 -0.3505 -0.3128
  161MOL0     C21643   5.703  11.211  12.674  1.3116 -0.6667 -0.6617
  161MOL0     C21644   5.556  11.193  12.713 -0.1261 -0.7026  0.2079
  161MOL0    Cl21645   5.568  11.221  12.887  0.2050 -0.5389  0.4312
  161MOL0     C21646   6.589  11.144  12.419 -0.6696 -0.9857 -1.0003
  161MOL0     C21647   6.717  11.134  12.359  0.3017  0.2370 -0.4210
  161MOL0     O21648   6.917  11.414  12.126 -0.4919 -0.2678 -0.3009
  161MOL0     C21649   7.139  11.140  12.095  0.7738 -0.5394 -0.0210
  161MOL0     C21650   7.265  11.114  12.051 -0.2172  0.5948 -0.3538
  161MOL0     N21651   7.878  11.393  11.584 -0.2364  0.7358  0.0951
  161MOL0     N21652   7.988  11.421  11.646 -0.8657 -0.2929  0.0624
  161MOL0     C21653   9.150  10.741  11.368  0.3035  0.6176  0.5754
  161MOL0     C21654   9.242  10.655  11.307  0.0684  0.2560 -0.6755
  161MOL0     C21655   9.477  10.363  11.077 -0.2553 -0.1535  0.2537
  161MOL0     C21656   9.496  10.380  10.935 -0.0816  0.3263  0.2345
  161MOL0     C21657   9.590  10.305  10.861  1.3666  0.3794 -0.2205
  161MOL0     C21658   9.672  10.222  10.926 -0.0084 -0.6140  0.4019
  161MOL0     O21659   9.766  10.144  10.864 -0.1601 -0.2898  0.2810
  161MOL0     C21660   9.825  10.179  10.737 -1.2681 -0.6783  0.0851
  161MOL0     C21661   9.902  10.315  10.752 -0.9373 -1.0836  0.1476
  161MOL0     C21662  10.026  10.330  10.841 -0.7745  0.3057  0.0351
  161MOL0     C21663  10.140  10.231  10.817  0.3829  0.0715 -0.1063
  161MOL0     C21664  10.205  10.244  10.688  0.7273 -0.0053 -0.2233
  161MOL0     C21665  10.249  10.241  10.572  0.3164  0.0019 -0.2729
  161MOL0     C21666   9.662  10.200  11.065 -0.2647 -1.1657  0.9507
  161MOL0     C21667   9.569  10.272  11.146 -0.3364 -0.8430 -0.3944
  161MOL0     H21668   9.135  10.679  10.996  1.3171  0.5678  0.2897
  161MOL0     H21669   8.981  10.839  11.089  1.9863  0.5765 -1.4312
  161MOL0     H21670   8.974  10.874  11.542 -0.4557  0.7627  1.6405
  161MOL0     H21671   9.089  10.990  11.485 -0.1753  1.0473 -1.0535
  161MOL0     H21672   8.897  11.091  11.618  2.9111  3.3200 -1.0747
  161MOL0     H21673   8.905  11.154  11.453  2.1912 -0.6430 -0.0101
  161MOL0     H21674   8.706  11.022  11.391 -0.5310 -0.6008  0.2836
  161MOL0     H21675   8.720  10.925  11.541  0.9412 -0.0640  1.5586
  161MOL0     H21676   8.668  11.115  11.675  0.0375  2.1038 -0.1490
  161MOL0     H21677   8.672  11.224  11.534  1.3737 -0.4538 -1.0417
  161MOL0     H21678   8.468  11.144  11.457  4.0730  0.5135 -0.1295
  161MOL0     H21679   8.464  11.002  11.565 -0.0961 -0.3677 -0.9088
  161MOL0     H21680   8.449  11.171  11.758 -2.6697  0.1351  0.3640
  161MOL0     H21681   8.463  11.301  11.644  0.6482  0.1768  2.5500
  161MOL0     H21682   8.234  11.210  11.540 -1.2426 -0.4231  1.0624
  161MOL0     H21683   8.229  11.088  11.678 -0.8588  0.3918 -0.6483
  161MOL0     H21684   8.252  11.384  11.696 -0.0908  0.3315  1.5677
  161MOL0     H21685   8.194  11.276  11.829  0.4550  0.0735 -0.1494
  161MOL0     H21686   7.999  11.099  11.679 -0.2841 -0.0813 -0.2827
  161MOL0     H21687   7.722  11.233  11.436 -0.6974 -0.5515 -0.4807
  161MOL0     H21688   7.770  11.090  11.504  3.0642 -0.2084  2.5870
  161MOL0     H21689   7.536  11.106  11.587 -0.5369  0.6564  0.1040
  161MOL0     H21690   7.553  11.285  11.593 -1.7636 -0.8715 -0.1248
  161MOL0     H21691   7.678  11.253  11.820 -1.7838  1.0449 -0.9210
  161MOL0     H21692   7.688  11.082  11.789  0.0270 -0.3177 -0.1340
  161MOL0     H21693   7.430  11.070  11.830 -2.8201  1.2808  1.6988
  161MOL0     H21694   7.425  11.232  11.790 -0.4833 -1.4010  0.7457
  161MOL0     H21695   7.414  11.410  12.083  0.0035 -0.5704  0.1121
  161MOL0     H21696   7.267  11.580  12.154  0.4800 -1.0659  0.7267
  161MOL0     H21697   7.104  11.569  12.068 -3.4911 -1.8965  1.9552
  161MOL0     H21698   7.135  11.536  12.243  0.6487  1.1339  0.2493
  161MOL0     H21699   6.706  11.414  12.168  2.6690 -1.3047  0.0564
  161MOL0     H21700   6.472  11.420  12.255 -0.7245 -0.2757  3.9959
  161MOL0     H21701   6.282  11.109  12.376  0.3492 -1.0418  0.0566
  161MOL0     H21702   6.355  11.113  12.545  1.9051  1.5529  0.7066
  161MOL0     H21703   6.109  11.150  12.580  2.0613 -1.2185  0.0976
  161MOL0     H21704   6.202  11.280  12.617  1.4494 -0.7020 -0.5342
  161MOL0     H21705   6.087  11.243  12.340  0.5127  1.8402 -2.3499
  161MOL0     H21706   6.124  11.408  12.400  4.8601 -2.7590 -4.6990
  161MOL0     H21707   5.936  11.368  12.586 -2.5209 -1.2386  0.3759
  161MOL0     H21708   5.888  11.374  12.420  0.0774 -0.7097  0.1603
  161MOL0     H21709   5.923  11.107  12.569  3.1333  1.9787  0.3355
  161MOL0     H21710   5.903  11.138  12.390 -0.5288  2.2024 -0.4466
  161MOL0     H21711   5.672  11.232  12.452 -1.0458 -1.0103 -0.0187
  161MOL0     H21712   5.693  11.073  12.504 -1.1964 -0.0019  0.1122
  161MOL0     H21713   5.733  11.314  12.696 -2.2972  0.1972  0.9653
  161MOL0     H21714   5.764  11.142  12.734  0.5022 -0.0336  0.9647
  161MOL0     H21715   5.511  11.098  12.681 -1.1796  0.0547 -0.6014
  161MOL0     H21716   5.496  11.273  12.670  0.4830 -0.1294  0.3997
  161MOL0     H21717   6.566  11.084  12.506  1.1629  0.4756  0.5912
  161MOL0     H21718   6.783  11.056  12.393 -1.2881 -1.2040 -0.4973
  161MOL0     H21719   7.068  11.062  12.069  0.5068  0.0854 -1.2463
  161MOL0     H21720   7.276  11.011  12.017  2.9125  0.5601  0.4207
  161MOL0     H21721   9.157  10.764  11.474 -2.4545  0.0948  0.9405
  161MOL0     H21722   9.321  10.611  11.367  2.1275  2.2752 -1.7196
  161MOL0     H21723   9.431  10.454  10.889  1.3986  2.0103  0.7335
  161MOL0     H21724   9.585  10.315  10.753 -1.5021  1.1886 -0.1166
  161MOL0     H21725   9.896  10.100  10.709 -0.1999  0.0380  0.6976
  161MOL0     H21726   9.745  10.191  10.664  0.9042 -0.7881 -2.4644
  161MOL0     H21727   9.821  10.383  10.782  1.1062  1.0800  1.0349
  161MOL0     H21728   9.935  10.344  10.652 -0.2177  0.7189  0.8690
  161MOL0     H21729   9.994  10.327  10.945  0.0863 -0.9650  0.2946
  161MOL0     H21730  10.067  10.426  10.808 -1.3641  1.0493  1.3890
  161MOL0     H21731  10.099  10.130  10.820  1.9179 -0.5944  3.0024
  161MOL0     H21732  10.215  10.245  10.895  1.5034  1.2941 -1.3455
  161MOL0     H21733  10.306  10.221  10.483  1.2947 -1.4481  0.6378
  161MOL0     H21734   9.723  10.128  11.118 -0.2894  0.2650  2.9998
  161MOL0     H21735   9.573  10.262  11.254  0.8475 -1.5847 -0.4894
  162MOL0     O21736   8.300   7.785   5.367 -0.6167 -0.1235 -0.3637
  162MOL0     C21737   8.380   7.706   5.312  0.2904 -0.1888 -0.1385
  162MOL0     O21738   8.374   7.570   5.319 -0.6250  0.5291  0.4425
  162MOL0     C21739   8.272   7.505   5.391 -0.6021 -0.1689  0.3211
  162MOL0     C21740   8.280   7.370   5.367  1.0042 -0.5291 -0.5673
  162MOL0     C21741   8.188   7.281   5.418  0.7907  0.3025 -0.0856
  162MOL0     C21742   8.085   7.329   5.495 -0.8175 -0.2267  0.5308
  162MOL0     O21743   7.994   7.238   5.528  0.0992 -0.6619  0.5933
  162MOL0     C21744   7.857   7.278   5.495  0.3002 -0.4205 -0.8281
  162MOL0     C21745   7.786   7.152   5.467  0.1490  0.8054 -0.1899
  162MOL0     C21746   7.632   7.156   5.467 -0.1514  0.2658  0.7760
  162MOL0     C21747   7.574   7.028   5.521  0.3844  0.6995 -0.6954
  162MOL0     C21748   7.418   7.038   5.534  0.1028 -0.4006  0.0773
  162MOL0     C21749   7.340   7.022   5.397  1.3775 -0.2031  0.1245
  162MOL0     C21750   7.189   7.000   5.412  1.1058 -0.0482  0.6601
  162MOL0     C21751   7.107   7.006   5.283 -0.6493 -0.3139 -0.5027
  162MOL0     N21752   6.964   6.980   5.306  0.0067 -0.6293 -0.7966
  162MOL0     C21753   6.849   7.043   5.249  0.3668  0.3018  0.3057
  162MOL0     C21754   6.745   6.967   5.289  1.1058 -0.1621  0.0335
  162MOL0     C21755   6.599   7.001   5.274 -0.6927  1.4001 -1.3841
  162MOL0     C21756   6.564   7.079   5.396  0.0828 -0.2078 -0.5659
  162MOL0     C21757   6.416   7.128   5.392  0.0892 -0.3755  0.4850
  162MOL0     C21758   6.330   7.012   5.450 -0.4174 -1.1269 -0.2159
  162MOL0     O21759   6.227   6.974   5.359 -0.0024 -1.0765 -0.1717
  162MOL0     C21760   6.129   7.066   5.329 -0.3987  0.6532  0.2095
  162MOL0     C21761   6.121   7.204   5.351  0.5503 -0.7082 -0.6498
  162MOL0     C21762   6.005   7.278   5.321 -0.4108 -0.4048  0.4882
  162MOL0     C21763   6.008   7.427   5.362  0.0026  0.1066  0.3958
  162MOL0     C21764   5.901   7.216   5.251  0.1238  0.2886 -0.3069
  162MOL0     C21765   5.781   7.291   5.204 -0.1776 -0.1785  0.1959
  162MOL0     O21766   5.666   7.232   5.238  0.1456 -0.2968  0.2653
  162MOL0     C21767   5.562   7.307   5.209 -0.0242  0.4144  0.1201
  162MOL0     C21768   5.535   7.439   5.262  0.2285  0.0617  0.3883
  162MOL0     C21769   5.433   7.521   5.214 -0.3919 -0.4431 -0.1465
  162MOL0     C21770   5.342   7.469   5.112  0.2226  0.6838 -0.1101
  162MOL0     O21771   5.225   7.528   5.060 -0.2166  0.9751 -0.6150
  162MOL0     C21772   5.213   7.672   5.079  0.3913  0.3241 -0.5324
  162MOL0     C21773   5.091   7.725   5.003  0.2043 -1.2564 -0.3799
  162MOL0     C21774   4.966   7.647   5.028  0.1591  0.4736 -0.2157
  162MOL0     C21775   4.846   7.729   4.991 -0.4433 -0.2356  0.3754
  162MOL0     C21776   4.725   7.697   5.069  0.3293  0.5916 -0.7538
  162MOL0     C21777   4.645   7.830   5.071  0.0489 -0.0997 -0.3189
  162MOL0     C21778   4.581   7.867   4.931  0.4704 -0.1625 -0.4425
  162MOL0     C21779   4.504   7.999   4.950  0.1520  0.4779  0.0736
  162MOL0    Cl21780   4.391   8.025   5.097 -0.0682  0.2957  0.1263
  162MOL0     C21781   5.365   7.334   5.076  0.0059  0.1076  0.6237
  162MOL0     C21782   5.469   7.256   5.119 -0.3246 -0.1987  1.0482
  162MOL0     O21783   5.796   7.397   5.144  0.3851 -0.1373  0.2666
  162MOL0     C21784   5.909   7.077   5.234 -0.0380 -0.8606  0.0712
  162MOL0     C21785   6.021   7.002   5.270 -0.5690  0.1162 -0.5462
  162MOL0     N21786   6.790   6.860   5.367 -0.7449  0.0813  0.0423
  162MOL0     N21787   6.918   6.875   5.381 -0.0142  0.0058 -0.0755
  162MOL0     C21788   8.082   7.465   5.537  0.7127 -0.7180  0.1098
  162MOL0     C21789   8.165   7.559   5.477  1.2501 -0.1085  0.6215
  162MOL0     C21790   8.477   7.762   5.214  0.6297  0.2397 -0.7990
  162MOL0     C21791   8.563   7.672   5.153  0.4917 -0.6423  0.1592
  162MOL0     C21792   8.655   7.710   5.060 -0.6928 -0.3650  0.8161
  162MOL0     C21793   8.667   7.840   5.024 -0.9599 -0.1493  0.0480
  162MOL0     O21794   8.748   7.876   4.926 -0.8756 -0.1238 -0.1762
  162MOL0     C21795   8.879   7.831   4.952 -0.3174  0.6852  0.7061
  162MOL0     C21796   8.974   7.918   4.867  0.0109 -0.5597 -0.0289
  162MOL0     C21797   9.104   7.832   4.857 -0.8171 -0.1511 -0.2880
  162MOL0     C21798   9.220   7.926   4.817  0.6851  0.0985  0.1296
  162MOL0     C21799   9.205   7.999   4.694  0.0180 -0.5012  0.9314
  162MOL0     C21800   9.189   8.054   4.588  0.2468 -0.5881  0.6490
  162MOL0     C21801   8.573   7.939   5.070  0.6635  0.4367 -0.6946
  162MOL0     C21802   8.484   7.897   5.172  0.3285  0.1125  0.3688
  162MOL0     H21803   8.364   7.335   5.309  1.7087 -0.2374  0.2491
  162MOL0     H21804   8.187   7.177   5.389 -3.0457  0.6034 -1.5579
  162MOL0     H21805   7.800   7.338   5.567 -1.8148 -0.2336 -2.5650
  162MOL0     H21806   7.863   7.343   5.408  0.5050  0.0611 -0.4616
  162MOL0     H21807   7.817   7.126   5.366  2.1880 -0.7814  0.7484
  162MOL0     H21808   7.820   7.078   5.540  2.5245  2.0393  0.0681
  162MOL0     H21809   7.591   7.248   5.512  1.1565  2.1959 -1.7237
  162MOL0     H21810   7.594   7.173   5.366 -3.5279  0.3947  1.9377
  162MOL0     H21811   7.600   6.933   5.472 -1.2874  0.3260 -0.9433
  162MOL0     H21812   7.615   7.012   5.621 -2.4535 -1.1976  0.3047
  162MOL0     H21813   7.382   6.952   5.591 -0.1218 -0.1660  0.2904
  162MOL0     H21814   7.395   7.139   5.571 -1.6702 -0.1056 -1.5901
  162MOL0     H21815   7.356   7.106   5.329 -3.1924  0.9431  0.1243
  162MOL0     H21816   7.381   6.936   5.343  2.6818  0.2572  0.3438
  162MOL0     H21817   7.164   6.899   5.447 -2.6545  0.2643 -0.6915
  162MOL0     H21818   7.139   7.056   5.491 -0.5323 -3.1389  2.0317
  162MOL0     H21819   7.149   6.931   5.215 -2.2436 -2.0203  0.3097
  162MOL0     H21820   7.130   7.102   5.234 -1.9669  0.8260  1.0175
  162MOL0     H21821   6.838   7.139   5.200  0.8613  1.0073  1.5603
  162MOL0     H21822   6.589   7.061   5.183 -2.5630  0.2893 -1.9662
  162MOL0     H21823   6.527   6.919   5.270 -0.9771  1.4901  0.7221
  162MOL0     H21824   6.633   7.163   5.407  0.6965 -0.7427 -0.3173
  162MOL0     H21825   6.574   7.023   5.490  2.0952 -0.6529 -1.0063
  162MOL0     H21826   6.386   7.158   5.291  0.3972  3.2694  1.3294
  162MOL0     H21827   6.417   7.215   5.458  1.5884  1.2783 -1.5934
  162MOL0     H21828   6.293   7.024   5.553  1.6969 -2.8503  0.8282
  162MOL0     H21829   6.392   6.922   5.446  0.8338 -0.3342  0.7360
  162MOL0     H21830   6.196   7.258   5.409  0.8127 -0.3245 -1.3368
  162MOL0     H21831   6.004   7.486   5.270  1.3184  0.0911  0.3178
  162MOL0     H21832   5.919   7.447   5.422 -2.0066 -2.4212 -1.4757
  162MOL0     H21833   6.096   7.457   5.419 -1.0217  2.9080  0.7051
  162MOL0     H21834   5.598   7.469   5.345  2.2446  0.5607 -1.2331
  162MOL0     H21835   5.437   7.625   5.246  4.0096 -0.0708 -1.2495
  162MOL0     H21836   5.206   7.678   5.188  2.8780 -1.9116 -0.1425
  162MOL0     H21837   5.301   7.733   5.055  0.7714  1.6200  3.3297
  162MOL0     H21838   5.079   7.827   5.041 -0.6653 -2.3645  2.6441
  162MOL0     H21839   5.114   7.724   4.896 -0.8195  0.0122 -0.6360
  162MOL0     H21840   4.957   7.616   5.133  0.3757 -1.9332 -0.8590
  162MOL0     H21841   4.966   7.551   4.976 -1.4263 -1.1577  2.5070
  162MOL0     H21842   4.866   7.837   4.988  1.1001 -0.5176 -0.3555
  162MOL0     H21843   4.819   7.707   4.887  0.5815  3.4516 -0.8488
  162MOL0     H21844   4.759   7.651   5.162 -2.4089 -0.9189 -0.3866
  162MOL0     H21845   4.670   7.620   5.014 -1.6176  1.3632  0.0275
  162MOL0     H21846   4.562   7.818   5.142  0.5571 -1.9934  0.0174
  162MOL0     H21847   4.709   7.909   5.112 -1.4125  1.5522 -1.0764
  162MOL0     H21848   4.504   7.791   4.915 -1.9741  1.9375  0.4652
  162MOL0     H21849   4.647   7.882   4.846  0.2211  3.8849 -0.1352
  162MOL0     H21850   4.441   8.017   4.862 -3.0215 -0.2739  2.0161
  162MOL0     H21851   4.573   8.083   4.956  0.4850  0.2165 -0.0798
  162MOL0     H21852   5.305   7.293   4.995  0.5290  4.1949 -2.1235
  162MOL0     H21853   5.492   7.158   5.080  2.7197  0.5034  0.8414
  162MOL0     H21854   5.822   7.032   5.187  0.1650  0.4215 -1.6217
  162MOL0     H21855   6.016   6.894   5.258  0.3556  0.1578 -1.3730
  162MOL0     H21856   8.009   7.504   5.607  0.3064 -0.1804 -0.5973
  162MOL0     H21857   8.158   7.658   5.521  1.1343  0.1649 -0.0002
  162MOL0     H21858   8.560   7.566   5.174  0.8718 -0.6721  0.0623
  162MOL0     H21859   8.725   7.639   5.017 -1.3055 -0.0081 -0.8370
  162MOL0     H21860   8.913   7.828   5.056  3.2983 -1.1969 -0.3736
  162MOL0     H21861   8.891   7.728   4.917  2.0908  1.0396  0.2837
  162MOL0     H21862   9.002   8.015   4.907  0.9348 -0.5316 -0.7068
  162MOL0     H21863   8.923   7.950   4.775 -3.2358  2.4068  2.5376
  162MOL0     H21864   9.102   7.748   4.786  1.0368 -0.6926  0.2496
  162MOL0     H21865   9.109   7.790   4.958  2.1101  1.5555  0.3767
  162MOL0     H21866   9.317   7.874   4.819  0.9388  0.5816  1.1247
  162MOL0     H21867   9.223   7.998   4.899 -2.9923 -2.5934  2.9925
  162MOL0     H21868   9.185   8.104   4.493 -1.1164 -2.2386 -0.2083
  162MOL0     H21869   8.568   8.046   5.052  2.4548  0.1844 -3.1318
  162MOL0     H21870   8.408   7.963   5.214 -0.0355 -0.4543  0.6097
  163MOL0     O21871  11.115   0.644   8.143 -0.4383 -0.3476  0.0513
  163MOL0     C21872  11.128   0.522   8.150  0.0300 -0.4760 -0.9302
  163MOL0     O21873  11.030   0.436   8.200  0.2097  0.2228  0.7978
  163MOL0     C21874  10.902   0.478   8.246 -0.1797 -0.0817 -0.0715
  163MOL0     C21875  10.865   0.605   8.285 -0.4657  0.1828  0.4925
  163MOL0     C21876  10.730   0.635   8.310 -0.2738 -0.2957 -0.1316
  163MOL0     C21877  10.633   0.538   8.301  0.4972  0.9627  0.4165
  163MOL0     O21878  10.508   0.577   8.331  0.1374 -0.7332 -0.3008
  163MOL0     C21879  10.407   0.502   8.284 -0.8878  0.4909  0.3324
  163MOL0     C21880  10.276   0.576   8.306  0.4957  0.3783 -0.0257
  163MOL0     C21881  10.149   0.501   8.267 -0.7884  0.1283  0.9521
  163MOL0     C21882  10.027   0.564   8.329  0.0584  0.5618 -0.0649
  163MOL0     C21883   9.911   0.497   8.262  0.2966 -0.1956  0.8970
  163MOL0     C21884   9.780   0.552   8.320  0.1952 -0.3834 -0.4779
  163MOL0     C21885   9.648   0.493   8.274 -0.2621  0.0578 -1.1364
  163MOL0     C21886   9.614   0.532   8.134  1.1758  0.3153 -0.7273
  163MOL0     N21887   9.486   0.480   8.101  0.5165  0.4685  0.2150
  163MOL0     C21888   9.363   0.531   8.137  0.6943 -0.6333 -0.0165
  163MOL0     C21889   9.278   0.441   8.091  0.8545  0.5383  0.5043
  163MOL0     C21890   9.129   0.450   8.124 -0.6182  0.2999 -0.4845
  163MOL0     C21891   9.073   0.312   8.152 -0.7432 -0.1970 -0.2125
  163MOL0     C21892   9.145   0.224   8.250 -0.3065 -0.3364 -1.2055
  163MOL0     C21893   9.056   0.126   8.319  0.5675 -0.1713  0.4204
  163MOL0     O21894   8.966   0.065   8.225  1.0909 -0.0645 -0.0642
  163MOL0     C21895   8.835   0.049   8.263  0.4801 -0.9483 -0.1926
  163MOL0     C21896   8.789   0.020   8.392  0.6674 -0.8360 -0.7148
  163MOL0     C21897   8.657  -0.017   8.417 -0.5931 -0.7862 -0.4873
  163MOL0     C21898   8.638  -0.044   8.563  0.4566 -0.0504 -0.0929
  163MOL0     C21899   8.566  -0.009   8.303 -0.8539 -0.7001 -0.6294
  163MOL0     C21900   8.419  -0.046   8.318 -1.0096 -0.4721  0.3241
  163MOL0     O21901   8.364  -0.048   8.438 -0.1315 -0.3206 -0.3120
  163MOL0     C21902   8.238  -0.095   8.459 -0.6396 -0.1275  0.2407
  163MOL0     C21903   8.156  -0.010   8.536  0.3004  0.8039  0.2179
  163MOL0     C21904   8.020  -0.038   8.566  1.0125  0.1713 -0.1322
  163MOL0     C21905   7.965  -0.153   8.508 -0.2861  0.5687 -0.6415
  163MOL0     O21906   7.837  -0.196   8.517 -0.3043 -0.0613  0.4362
  163MOL0     C21907   7.781  -0.156   8.637 -0.2332 -0.5364  0.0530
  163MOL0     C21908   7.657  -0.236   8.669  0.7240 -0.0638 -0.7539
  163MOL0     C21909   7.544  -0.212   8.566 -0.4248 -0.2479 -0.0793
  163MOL0     C21910   7.536  -0.325   8.467  0.0720 -0.0886  0.0066
  163MOL0     C21911   7.419  -0.321   8.373 -0.1173 -0.3692  0.5232
  163MOL0     C21912   7.417  -0.191   8.283  0.7299 -1.0108 -0.6661
  163MOL0     C21913   7.308  -0.202   8.177  0.2500  0.1957 -1.1149
  163MOL0     C21914   7.305  -0.081   8.083 -0.0369  0.2232 -0.1406
  163MOL0    Cl21915   7.256   0.064   8.185  0.1667 -0.1083  0.2428
  163MOL0     C21916   8.041  -0.233   8.424 -0.6269  0.5940 -0.3278
  163MOL0     C21917   8.181  -0.213   8.414 -0.4117  0.3507  0.8981
  163MOL0     O21918   8.362  -0.081   8.219 -0.3993  0.5233 -0.1021
  163MOL0     C21919   8.614   0.027   8.174 -0.2025 -0.7903 -0.0263
  163MOL0     C21920   8.744   0.058   8.154 -0.8267 -0.2736 -0.7407
  163MOL0     N21921   9.346   0.339   8.023 -0.0240 -0.0800  0.7752
  163MOL0     N21922   9.472   0.370   8.031  0.4878  0.9686 -0.0335
  163MOL0     C21923  10.672   0.403   8.274 -0.4358  0.2402 -0.7745
  163MOL0     C21924  10.804   0.381   8.241  0.5655  0.8545  0.3961
  163MOL0     C21925  11.261   0.472   8.108  0.4662 -0.7728 -0.2836
  163MOL0     C21926  11.374   0.548   8.102 -0.1370  0.1802  0.3522
  163MOL0     C21927  11.491   0.493   8.065 -0.8645  0.3636 -0.1217
  163MOL0     C21928  11.503   0.360   8.016  0.1540 -0.5719  0.7958
  163MOL0     O21929  11.629   0.324   7.971  0.4758  0.3109  0.5466
  163MOL0     C21930  11.646   0.178   7.961 -0.4173 -0.2458  0.4457
  163MOL0     C21931  11.796   0.154   7.954 -0.1527 -0.4119  0.1489
  163MOL0     C21932  11.855   0.210   7.821 -0.5131 -0.2300  0.8238
  163MOL0     C21933  12.013   0.217   7.829 -0.3280  0.0515 -0.5396
  163MOL0     C21934  12.076   0.239   7.694  0.5544  0.5428 -0.7840
  163MOL0     C21935  12.148   0.254   7.600 -0.4170  1.5811 -0.3422
  163MOL0     C21936  11.386   0.286   8.026 -0.4544 -0.4440  0.5811
  163MOL0     C21937  11.265   0.332   8.074 -0.6107 -0.3366  0.1317
  163MOL0     H21938  10.938   0.684   8.304  0.0506 -0.2261  0.2395
  163MOL0     H21939  10.700   0.738   8.327  2.1587  0.6879 -1.2624
  163MOL0     H21940  10.428   0.479   8.179 -1.6597  1.2993 -0.0146
  163MOL0     H21941  10.407   0.407   8.338 -0.7605 -0.0751 -0.6336
  163MOL0     H21942  10.262   0.602   8.411  0.8371 -1.3216  0.4678
  163MOL0     H21943  10.276   0.668   8.247 -4.2807 -0.4252 -1.7777
  163MOL0     H21944  10.145   0.496   8.158  1.5108 -0.4304  0.8530
  163MOL0     H21945  10.143   0.394   8.288  0.3583 -0.1588 -0.1447
  163MOL0     H21946  10.031   0.548   8.437 -0.0438  1.6763  0.1204
  163MOL0     H21947  10.022   0.671   8.307  0.1209  1.6849  4.4674
  163MOL0     H21948   9.912   0.529   8.158 -3.3680  0.9538  1.0698
  163MOL0     H21949   9.904   0.388   8.273 -1.0746 -0.3841 -1.3372
  163MOL0     H21950   9.786   0.551   8.429  1.2810 -2.0545 -0.5232
  163MOL0     H21951   9.766   0.659   8.299 -1.3688 -0.6328 -0.8305
  163MOL0     H21952   9.653   0.384   8.287  2.5924  0.2817  0.3685
  163MOL0     H21953   9.561   0.525   8.331 -1.2576 -0.3439 -2.3711
  163MOL0     H21954   9.686   0.486   8.065 -0.2850 -3.2621 -0.0799
  163MOL0     H21955   9.625   0.640   8.128  0.5052  0.3958 -0.5453
  163MOL0     H21956   9.341   0.623   8.189  0.2593  0.0429 -1.3651
  163MOL0     H21957   9.119   0.511   8.214 -0.0609  0.2292 -0.3728
  163MOL0     H21958   9.075   0.508   8.048 -1.6303 -1.3509 -1.0811
  163MOL0     H21959   9.064   0.261   8.056  1.1497 -0.2597 -0.3902
  163MOL0     H21960   8.972   0.333   8.187  0.2774  0.4049  2.5852
  163MOL0     H21961   9.195   0.286   8.324 -0.3709  0.2091 -1.6128
  163MOL0     H21962   9.220   0.167   8.193  0.2022  0.4570 -1.3377
  163MOL0     H21963   9.002   0.179   8.397  0.0280  2.7080 -1.7565
  163MOL0     H21964   9.127   0.052   8.357 -0.0147 -1.1589 -0.3430
  163MOL0     H21965   8.861   0.028   8.473 -0.0023  2.8710 -0.3123
  163MOL0     H21966   8.724  -0.075   8.624 -0.6242  2.5699  3.0056
  163MOL0     H21967   8.612   0.053   8.604 -0.5442 -0.2985 -0.1212
  163MOL0     H21968   8.554  -0.114   8.567  1.3378 -1.0892  2.1006
  163MOL0     H21969   8.201   0.082   8.573  4.4313 -0.0700 -2.0873
  163MOL0     H21970   7.960   0.038   8.615 -3.7858 -2.0260 -1.9386
  163MOL0     H21971   7.849  -0.171   8.722 -0.4481  0.9296  0.5074
  163MOL0     H21972   7.747  -0.053   8.638  0.3486 -0.3191 -1.1440
  163MOL0     H21973   7.688  -0.340   8.674 -1.7494 -0.8183  3.0754
  163MOL0     H21974   7.627  -0.208   8.771  0.1491  1.7598 -1.3778
  163MOL0     H21975   7.576  -0.123   8.509  0.9919  0.3989  1.6306
  163MOL0     H21976   7.449  -0.194   8.616  1.4610  0.5837  3.5555
  163MOL0     H21977   7.634  -0.332   8.418  0.1268  3.5235 -0.6874
  163MOL0     H21978   7.515  -0.412   8.530  2.8459 -1.5514 -0.8871
  163MOL0     H21979   7.331  -0.335   8.437 -0.8888  0.6350 -0.2989
  163MOL0     H21980   7.432  -0.409   8.309 -2.6834  0.1607 -0.8642
  163MOL0     H21981   7.395  -0.120   8.363  4.3797 -1.6913  1.1636
  163MOL0     H21982   7.515  -0.165   8.243  1.9707 -2.5338  1.1764
  163MOL0     H21983   7.213  -0.197   8.231  1.0152  3.2392  0.1980
  163MOL0     H21984   7.320  -0.301   8.133 -0.8724 -0.3455 -0.2587
  163MOL0     H21985   7.243  -0.100   7.995  3.5207 -0.4741 -2.7247
  163MOL0     H21986   7.408  -0.083   8.047  0.3485  0.0347  0.9336
  163MOL0     H21987   7.991  -0.324   8.392  0.3020  0.7081 -2.2184
  163MOL0     H21988   8.249  -0.280   8.363 -2.3176 -1.5074  0.6894
  163MOL0     H21989   8.541   0.038   8.094 -2.4247  2.0195  2.1703
  163MOL0     H21990   8.771   0.083   8.052 -1.3152  0.6961 -0.6377
  163MOL0     H21991  10.610   0.315   8.284 -0.2733  0.1828 -0.2110
  163MOL0     H21992  10.829   0.283   8.201  1.9719  0.7013  1.5774
  163MOL0     H21993  11.377   0.653   8.130  1.2465  0.3487 -0.3298
  163MOL0     H21994  11.579   0.556   8.067 -0.3225 -0.3914  1.4409
  163MOL0     H21995  11.605   0.137   8.054  0.2333 -0.2003  0.7578
  163MOL0     H21996  11.596   0.127   7.878  0.4323  0.3463 -0.4614
  163MOL0     H21997  11.804   0.045   7.958 -0.2458 -0.4009  0.6967
  163MOL0     H21998  11.846   0.204   8.038 -1.5746  0.8418  0.2950
  163MOL0     H21999  11.826   0.314   7.803  0.2161  0.3210  2.5754
  163MOL0     H22000  11.830   0.145   7.737 -0.2251 -0.0080  0.5610
  163MOL0     H22001  12.041   0.116   7.860 -4.0806 -1.2597 -0.8963
  163MOL0     H22002  12.048   0.292   7.901 -1.3001  1.1979 -1.2341
  163MOL0     H22003  12.217   0.264   7.518  1.9809  2.2312  1.6398
  163MOL0     H22004  11.383   0.180   8.005 -0.5405 -0.3892  0.3125
  163MOL0     H22005  11.186   0.257   8.081  1.4192 -2.4712  1.7712
  164MOL0     O22006   8.399   4.920   8.049 -0.0788  0.0795  0.1912
  164MOL0     C22007   8.426   4.985   8.149  0.2728  0.6962 -0.8530
  164MOL0     O22008   8.547   5.029   8.189 -0.1780 -0.1530  0.7904
  164MOL0     C22009   8.664   4.991   8.119 -1.1006  0.4698 -0.3671
  164MOL0     C22010   8.785   4.977   8.191  0.0916 -0.9258  0.1781
  164MOL0     C22011   8.911   4.932   8.135 -0.9730  1.0131  0.9843
  164MOL0     C22012   8.913   4.908   7.997 -0.0928 -0.4452  0.1728
  164MOL0     O22013   9.021   4.862   7.927  0.2705  0.6695  0.2707
  164MOL0     C22014   9.151   4.896   7.973 -1.3324 -0.0719 -0.1699
  164MOL0     C22015   9.241   4.864   7.862 -0.3958 -0.2242  0.4018
  164MOL0     C22016   9.381   4.890   7.902 -0.5377 -0.1161 -0.6335
  164MOL0     C22017   9.425   5.037   7.874  0.8006 -0.2762  0.3424
  164MOL0     C22018   9.574   5.056   7.918  0.2971  0.3342  0.4772
  164MOL0     C22019   9.652   5.188   7.858  0.0597  0.6555 -0.6067
  164MOL0     C22020   9.570   5.314   7.883 -0.3367 -0.5844 -0.5168
  164MOL0     C22021   9.605   5.422   7.780 -0.3415  0.7916 -0.0766
  164MOL0     N22022   9.565   5.560   7.819  0.6945 -0.0790  0.8043
  164MOL0     C22023   9.431   5.591   7.826 -0.0292  1.3292 -0.6819
  164MOL0     C22024   9.437   5.717   7.877 -0.0889  0.3241 -0.2512
  164MOL0     C22025   9.312   5.805   7.922  0.3534  1.1530  0.0343
  164MOL0     C22026   9.219   5.733   8.024  0.0261 -0.5921 -0.1113
  164MOL0     C22027   9.286   5.655   8.139 -0.0709 -0.5192 -0.1242
  164MOL0     C22028   9.177   5.572   8.206 -0.5648 -0.3803  0.1025
  164MOL0     O22029   9.069   5.657   8.275 -0.7111  0.2839  1.0314
  164MOL0     C22030   8.936   5.620   8.283  0.2798  0.1232 -1.0378
  164MOL0     C22031   8.886   5.490   8.272 -1.1016  0.1033  0.3140
  164MOL0     C22032   8.757   5.448   8.304  0.3040  0.0927  0.5718
  164MOL0     C22033   8.727   5.298   8.274 -0.0754  0.2394 -0.1431
  164MOL0     C22034   8.666   5.543   8.355 -0.5789 -0.0110  0.0591
  164MOL0     C22035   8.532   5.501   8.392  0.6554  0.0728  0.5608
  164MOL0     O22036   8.437   5.576   8.323 -0.3490  0.2961 -0.2017
  164MOL0     C22037   8.311   5.554   8.365  0.4024  0.7833 -0.5242
  164MOL0     C22038   8.241   5.651   8.436 -0.0697 -0.6787 -0.0853
  164MOL0     C22039   8.110   5.641   8.482  0.3325  0.1147 -0.1527
  164MOL0     C22040   8.033   5.530   8.442  0.5410  0.5447  0.7999
  164MOL0     O22041   7.892   5.520   8.461 -0.6749 -0.8517 -0.1797
  164MOL0     C22042   7.819   5.634   8.501  0.3472 -0.4938 -0.3671
  164MOL0     C22043   7.671   5.608   8.475  0.3023  0.1085 -0.8651
  164MOL0     C22044   7.618   5.477   8.546  0.1781  0.1665 -0.3560
  164MOL0     C22045   7.466   5.471   8.517 -0.1841 -0.0907  0.4932
  164MOL0     C22046   7.399   5.364   8.612 -0.2747  0.5207  0.5806
  164MOL0     C22047   7.250   5.374   8.613  0.2075  0.7458 -0.0481
  164MOL0     C22048   7.179   5.297   8.724  0.3726  0.4373  0.6879
  164MOL0     C22049   7.028   5.303   8.721  0.0886 -0.0561  0.3155
  164MOL0    Cl22050   6.969   5.265   8.881  0.1121 -0.5317 -0.4177
  164MOL0     C22051   8.105   5.420   8.386 -0.1623 -0.5100  0.6493
  164MOL0     C22052   8.236   5.433   8.347 -1.0020 -0.5186  0.3205
  164MOL0     O22053   8.515   5.408   8.472 -0.2678  0.3263 -0.1789
  164MOL0     C22054   8.708   5.676   8.361  0.7212  0.7632 -0.1644
  164MOL0     C22055   8.838   5.716   8.328  0.1852  0.6207 -0.2193
  164MOL0     N22056   9.565   5.761   7.894  0.4471 -0.4808 -0.5124
  164MOL0     N22057   9.644   5.667   7.856 -0.6571  0.1479 -0.4384
  164MOL0     C22058   8.793   4.914   7.921 -0.4586 -0.3335 -0.4369
  164MOL0     C22059   8.670   4.961   7.985 -0.5764  0.9957 -1.1779
  164MOL0     C22060   8.313   4.996   8.243  0.4101 -0.5982 -0.6193
  164MOL0     C22061   8.330   5.073   8.365  0.9280  1.6706  0.6452
  164MOL0     C22062   8.228   5.082   8.458  0.5844  0.2990 -0.4045
  164MOL0     C22063   8.107   5.021   8.433  0.5785 -0.2446 -0.7193
  164MOL0     O22064   7.998   5.027   8.521 -0.2151  0.8207 -0.8531
  164MOL0     C22065   8.032   5.071   8.657  0.0463 -0.8304  0.0717
  164MOL0     C22066   7.920   5.067   8.756 -0.2128  0.3062  0.1283
  164MOL0     C22067   7.791   5.137   8.702 -0.3433 -0.1217  0.0240
  164MOL0     C22068   7.683   5.154   8.818  0.4201  0.0798  0.3955
  164MOL0     C22069   7.729   5.255   8.909 -0.3702 -0.6649 -0.2679
  164MOL0     C22070   7.783   5.327   8.985  0.1887 -0.9466  0.3307
  164MOL0     C22071   8.085   4.944   8.321 -0.4034 -0.1873 -0.9968
  164MOL0     C22072   8.191   4.934   8.232 -0.1121  0.3988  0.8584
  164MOL0     H22073   8.782   5.006   8.296  4.1278 -4.0910  1.4628
  164MOL0     H22074   9.003   4.917   8.190  0.0218 -2.4689 -1.3492
  164MOL0     H22075   9.165   5.003   7.988  0.3723 -0.2190 -0.5385
  164MOL0     H22076   9.186   4.845   8.063  0.1448 -0.3601 -0.8866
  164MOL0     H22077   9.232   4.759   7.832  0.4660 -0.4091  0.7645
  164MOL0     H22078   9.214   4.930   7.779  1.6661  1.4198  0.9545
  164MOL0     H22079   9.397   4.871   8.008 -0.3889 -0.5041 -0.7208
  164MOL0     H22080   9.451   4.829   7.843  2.0008  1.7944  0.2318
  164MOL0     H22081   9.419   5.063   7.768  1.7717 -0.0264  0.3352
  164MOL0     H22082   9.361   5.101   7.936 -1.0855 -1.6323 -0.1452
  164MOL0     H22083   9.576   5.049   8.027  0.0169 -0.8343  0.4218
  164MOL0     H22084   9.632   4.965   7.902  1.2811  0.7396  1.6243
  164MOL0     H22085   9.749   5.202   7.907 -1.0062 -0.8110  2.1543
  164MOL0     H22086   9.661   5.177   7.749  0.1134  1.3827 -0.6796
  164MOL0     H22087   9.463   5.295   7.872 -0.2596 -3.5604  2.5124
  164MOL0     H22088   9.584   5.350   7.985  2.7723 -2.2456 -0.2331
  164MOL0     H22089   9.558   5.393   7.685  0.3635 -3.0693  0.5935
  164MOL0     H22090   9.713   5.422   7.764 -0.3689 -3.7781 -1.7286
  164MOL0     H22091   9.343   5.529   7.813 -0.4665 -0.1962  5.8828
  164MOL0     H22092   9.341   5.902   7.964 -1.4278  1.4564  0.6632
  164MOL0     H22093   9.248   5.828   7.837 -2.1947  1.8531  2.0225
  164MOL0     H22094   9.160   5.666   7.962 -1.7122  1.3995 -0.7413
  164MOL0     H22095   9.143   5.802   8.063  1.1996  1.5002 -1.3924
  164MOL0     H22096   9.324   5.732   8.207 -2.4578  0.7756 -0.1591
  164MOL0     H22097   9.377   5.599   8.114  0.5253 -1.6953  3.9101
  164MOL0     H22098   9.206   5.498   8.281 -1.8024 -0.1971  0.7820
  164MOL0     H22099   9.131   5.516   8.124 -1.8733 -0.6007  0.9493
  164MOL0     H22100   8.958   5.421   8.226  0.2765  2.0545 -0.6004
  164MOL0     H22101   8.700   5.247   8.367  0.6555 -0.7643 -0.4643
  164MOL0     H22102   8.648   5.284   8.200 -1.0831 -1.6802  1.2217
  164MOL0     H22103   8.818   5.250   8.235  0.5872  1.9639 -0.8285
  164MOL0     H22104   8.296   5.743   8.452  0.5271 -0.9721 -0.3983
  164MOL0     H22105   8.063   5.725   8.532  0.8128  1.9554 -2.5547
  164MOL0     H22106   7.826   5.662   8.607 -0.1038  1.1507 -0.7430
  164MOL0     H22107   7.847   5.719   8.439  0.9755  0.8982  1.7011
  164MOL0     H22108   7.613   5.688   8.522  1.1479  0.3444 -0.2051
  164MOL0     H22109   7.645   5.599   8.369  1.2392 -1.3111 -1.0128
  164MOL0     H22110   7.647   5.467   8.651 -1.4288 -1.7392 -0.0264
  164MOL0     H22111   7.661   5.390   8.494  3.6203 -1.6784  4.7481
  164MOL0     H22112   7.422   5.570   8.533 -1.7801 -0.5935 -0.5363
  164MOL0     H22113   7.452   5.448   8.411 -0.6903 -0.8209  0.7105
  164MOL0     H22114   7.440   5.376   8.713  0.2785  0.4649  0.3658
  164MOL0     H22115   7.429   5.262   8.588  1.4576  0.5962  2.1470
  164MOL0     H22116   7.227   5.481   8.623  2.7595  1.4438 -0.9108
  164MOL0     H22117   7.211   5.336   8.518  1.1468  1.5946 -0.8042
  164MOL0     H22118   7.216   5.350   8.812 -0.5228  2.3258  0.0063
  164MOL0     H22119   7.200   5.190   8.723  1.1673  0.4820 -3.0330
  164MOL0     H22120   6.986   5.238   8.643  0.5827  0.4420 -0.3741
  164MOL0     H22121   7.015   5.407   8.689 -0.2946  0.3184  1.6130
  164MOL0     H22122   8.060   5.324   8.363  3.5125 -1.8058 -2.1871
  164MOL0     H22123   8.284   5.350   8.295 -2.0302 -0.7891 -0.2259
  164MOL0     H22124   8.635   5.746   8.402  0.1935 -0.6421  1.3726
  164MOL0     H22125   8.870   5.817   8.350 -0.5429  0.8690 -0.2637
  164MOL0     H22126   8.797   4.889   7.816  0.1784 -1.6863 -0.1132
  164MOL0     H22127   8.585   4.976   7.920 -0.1510  1.8320 -1.5540
  164MOL0     H22128   8.424   5.112   8.401  1.0356  2.4183 -0.3935
  164MOL0     H22129   8.257   5.130   8.551 -0.3572  0.1319 -0.0180
  164MOL0     H22130   8.124   5.022   8.692  2.1335  2.2307 -0.6927
  164MOL0     H22131   8.054   5.177   8.642 -0.1046 -0.3762  2.5740
  164MOL0     H22132   7.954   5.132   8.837 -1.3793  3.2338 -1.5491
  164MOL0     H22133   7.905   4.961   8.779 -0.2203  0.2157 -0.2768
  164MOL0     H22134   7.733   5.088   8.624 -0.6731 -2.4367  1.6229
  164MOL0     H22135   7.823   5.234   8.664  1.2441 -0.8989 -0.7345
  164MOL0     H22136   7.665   5.062   8.874  2.0331  1.1988  2.9156
  164MOL0     H22137   7.592   5.192   8.770 -1.1271 -3.1522  0.5044
  164MOL0     H22138   7.823   5.387   9.065 -1.9700 -0.7128  1.2903
  164MOL0     H22139   7.993   4.893   8.294  0.3312 -2.4129  0.4831
  164MOL0     H22140   8.177   4.877   8.140 -1.3473 -1.6035  2.1982
  165MOL0     O22141  11.125   6.076   7.566  0.4957  0.2190 -0.4683
  165MOL0     C22142  11.177   6.179   7.584 -0.3886 -0.4374 -0.0886
  165MOL0     O22143  11.133   6.277   7.674  0.4256 -0.4575 -0.1488
  165MOL0     C22144  11.006   6.266   7.732 -0.1829 -0.6488 -0.1822
  165MOL0     C22145  10.890   6.259   7.653  0.1144  0.4968 -0.2123
  165MOL0     C22146  10.764   6.242   7.707  0.1077 -0.0252 -0.3014
  165MOL0     C22147  10.753   6.224   7.848  0.5399  0.7735  0.4193
  165MOL0     O22148  10.620   6.204   7.889 -0.0953 -0.0418  0.1522
  165MOL0     C22149  10.602   6.165   8.025 -0.4736  0.3611 -0.0696
  165MOL0     C22150  10.463   6.113   8.063  0.1137  0.9604 -0.1491
  165MOL0     C22151  10.432   5.983   7.984 -0.1081 -0.9367  0.2604
  165MOL0     C22152  10.337   5.891   8.053  0.2865 -0.1865  0.2637
  165MOL0     C22153  10.302   5.760   7.982 -0.0339 -0.2955  0.0794
  165MOL0     C22154  10.222   5.787   7.856  0.1692 -0.0772  0.2150
  165MOL0     C22155  10.184   5.656   7.785 -0.0754 -0.1328 -0.8616
  165MOL0     C22156  10.036   5.635   7.763 -0.6872  0.6411  0.2753
  165MOL0     N22157  10.026   5.502   7.718  1.0322 -0.4357 -0.4374
  165MOL0     C22158  10.067   5.456   7.595  0.4387 -0.0152 -0.0771
  165MOL0     C22159  10.007   5.336   7.589  0.5250 -0.3863  0.2482
  165MOL0     C22160  10.002   5.242   7.472 -0.8245  0.8456  0.7231
  165MOL0     C22161   9.882   5.137   7.481 -0.7518  0.0097  0.0947
  165MOL0     C22162   9.766   5.221   7.448  0.8173  0.4085 -0.3544
  165MOL0     C22163   9.637   5.146   7.429 -0.6060 -0.8459 -0.2511
  165MOL0     O22164   9.535   5.234   7.483  0.1144 -0.3139 -0.5426
  165MOL0     C22165   9.404   5.193   7.469  0.3520 -0.2787 -0.1504
  165MOL0     C22166   9.299   5.262   7.543 -0.2885  0.1151  1.2353
  165MOL0     C22167   9.160   5.232   7.521  0.0634  0.3574 -0.0342
  165MOL0     C22168   9.050   5.325   7.573  0.9428 -0.8925  0.4213
  165MOL0     C22169   9.133   5.116   7.449 -0.3039  0.4414  0.7027
  165MOL0     C22170   8.996   5.074   7.436  1.0078  0.0553 -0.1357
  165MOL0     O22171   8.972   5.038   7.309  0.5197 -0.3466 -0.2966
  165MOL0     C22172   8.844   4.995   7.273 -0.1021  0.2477  0.0427
  165MOL0     C22173   8.727   5.072   7.305  0.0691  0.2209  0.4826
  165MOL0     C22174   8.602   5.026   7.257 -0.1964 -0.3154 -0.6356
  165MOL0     C22175   8.584   4.902   7.191  0.2245 -0.1897 -1.3671
  165MOL0     O22176   8.469   4.858   7.131 -0.3411 -0.8328  0.1855
  165MOL0     C22177   8.360   4.951   7.120 -0.3839  0.1527  0.1374
  165MOL0     C22178   8.227   4.897   7.046 -0.0250 -0.4863  1.1230
  165MOL0     C22179   8.186   4.769   7.120  0.6337 -1.0774 -0.1315
  165MOL0     C22180   8.036   4.750   7.139 -0.7437  0.0584 -0.6605
  165MOL0     C22181   8.008   4.666   7.256 -0.1266 -0.3094  0.2182
  165MOL0     C22182   7.867   4.646   7.286  0.2326 -0.2400  0.5061
  165MOL0     C22183   7.843   4.599   7.427  0.2839  0.3188  0.0315
  165MOL0     C22184   7.692   4.561   7.447  0.2583 -0.4983 -0.1260
  165MOL0    Cl22185   7.644   4.411   7.351 -0.4366 -0.0419  0.7823
  165MOL0     C22186   8.702   4.819   7.183 -0.6675  0.2963 -0.6017
  165MOL0     C22187   8.831   4.863   7.217  0.5602 -0.0911 -0.0759
  165MOL0     O22188   8.922   5.060   7.529  0.4001  0.4293 -0.1733
  165MOL0     C22189   9.233   5.043   7.381 -0.5994 -0.7108  0.1024
  165MOL0     C22190   9.363   5.089   7.388 -0.2078  0.4196  0.5224
  165MOL0     N22191   9.959   5.297   7.711  0.0519 -0.1731  0.7699
  165MOL0     N22192   9.966   5.401   7.785  0.6876  0.5043 -0.2546
  165MOL0     C22193  10.867   6.229   7.937  0.1415  0.0299 -0.7474
  165MOL0     C22194  10.987   6.251   7.869  0.4118 -0.6787  0.6125
  165MOL0     C22195  11.312   6.213   7.520  0.0898  0.6286  0.0665
  165MOL0     C22196  11.370   6.119   7.432  0.6477 -0.6674  0.1516
  165MOL0     C22197  11.499   6.141   7.380  0.0108  0.8663  0.9118
  165MOL0     C22198  11.568   6.257   7.414  0.0137  0.4683 -0.5406
  165MOL0     O22199  11.690   6.283   7.359 -0.1087 -0.1962  0.4322
  165MOL0     C22200  11.686   6.274   7.217  0.2995 -0.3279  0.6430
  165MOL0     C22201  11.794   6.359   7.170  0.5906 -0.9278  0.3688
  165MOL0     C22202  11.803   6.362   7.020 -0.8225 -0.3224  0.3981
  165MOL0     C22203  11.815   6.499   6.960 -0.8338  0.5263  0.0182
  165MOL0     C22204  11.816   6.497   6.808  0.0362 -0.2288  0.1123
  165MOL0     C22205  11.834   6.491   6.685  0.6305  0.5034 -0.3630
  165MOL0     C22206  11.519   6.348   7.506 -0.6653 -0.1662  0.2157
  165MOL0     C22207  11.388   6.324   7.557  0.8825 -0.2371 -0.0110
  165MOL0     H22208  10.897   6.249   7.545 -3.4859 -0.8857 -0.4507
  165MOL0     H22209  10.680   6.244   7.639  2.9354  0.7354 -4.1075
  165MOL0     H22210  10.681   6.091   8.041 -1.0246 -0.4548 -1.0192
  165MOL0     H22211  10.619   6.248   8.094 -1.0717 -0.4567  1.1084
  165MOL0     H22212  10.454   6.089   8.170 -1.6452 -1.7126 -0.7930
  165MOL0     H22213  10.383   6.185   8.046 -2.0001 -1.0531  0.7229
  165MOL0     H22214  10.384   6.018   7.893 -0.8471 -0.9094  0.6531
  165MOL0     H22215  10.524   5.935   7.952  0.1132  0.1883 -0.8514
  165MOL0     H22216  10.370   5.869   8.155 -3.0067  1.8784  1.9524
  165MOL0     H22217  10.249   5.946   8.087  1.5229  1.1174  1.5003
  165MOL0     H22218  10.384   5.689   7.972 -1.1193 -1.5888  0.1883
  165MOL0     H22219  10.232   5.702   8.043 -0.6051  0.8827  0.5962
  165MOL0     H22220  10.128   5.840   7.874 -2.0248 -3.5978  0.1356
  165MOL0     H22221  10.286   5.839   7.784  2.0545 -2.9519 -0.3879
  165MOL0     H22222  10.239   5.664   7.691 -1.8713  0.3969 -1.9376
  165MOL0     H22223  10.214   5.571   7.847 -0.4945  0.5369  0.2808
  165MOL0     H22224  10.000   5.712   7.694  0.7115  1.0548 -0.0171
  165MOL0     H22225   9.974   5.639   7.853 -0.0495  0.7183  0.7185
  165MOL0     H22226  10.129   5.507   7.521  0.2012 -2.3893 -2.0003
  165MOL0     H22227  10.011   5.292   7.375  0.8577 -2.5445 -1.0588
  165MOL0     H22228  10.094   5.183   7.471 -0.9215  0.6900 -0.7364
  165MOL0     H22229   9.876   5.096   7.582  1.8216  1.1079  0.7831
  165MOL0     H22230   9.903   5.064   7.403  3.5938  0.7321  0.3211
  165MOL0     H22231   9.789   5.278   7.357 -0.0960 -0.8069 -1.3818
  165MOL0     H22232   9.755   5.285   7.536  0.6319 -2.8165  2.1361
  165MOL0     H22233   9.627   5.057   7.492  2.0394 -1.3796 -0.4655
  165MOL0     H22234   9.630   5.114   7.325  1.0462  2.3316 -1.4721
  165MOL0     H22235   9.321   5.342   7.614  2.1130  0.3185  0.3492
  165MOL0     H22236   9.038   5.407   7.501  0.3663 -1.6622 -0.3848
  165MOL0     H22237   8.951   5.287   7.600 -0.8983  1.4552 -2.3906
  165MOL0     H22238   9.093   5.375   7.660  0.0128 -1.5554  1.2883
  165MOL0     H22239   8.736   5.168   7.355  0.3925  0.3251  0.2272
  165MOL0     H22240   8.521   5.096   7.271  0.9110  1.4063 -2.3789
  165MOL0     H22241   8.328   4.975   7.222  0.8486 -1.7082  1.0010
  165MOL0     H22242   8.395   5.046   7.077  1.9684 -0.3971  0.7427
  165MOL0     H22243   8.157   4.979   7.028  0.1091 -1.1057 -3.1984
  165MOL0     H22244   8.249   4.869   6.943 -0.5277  0.7163  0.6658
  165MOL0     H22245   8.236   4.771   7.218 -1.8311 -0.1150  1.2024
  165MOL0     H22246   8.222   4.683   7.064 -1.2528 -2.5878  0.8218
  165MOL0     H22247   7.986   4.847   7.142 -2.3794 -0.7179 -1.4154
  165MOL0     H22248   7.987   4.704   7.053 -0.2570 -1.6714 -0.0481
  165MOL0     H22249   8.052   4.712   7.345 -1.1841 -1.3155  1.2839
  165MOL0     H22250   8.034   4.560   7.245 -2.2716 -0.8760  0.1640
  165MOL0     H22251   7.815   4.742   7.277 -0.6838 -0.8597 -1.2203
  165MOL0     H22252   7.828   4.571   7.217  0.6956 -0.3195  0.3294
  165MOL0     H22253   7.868   4.674   7.502 -1.3817  0.8922  0.0305
  165MOL0     H22254   7.899   4.509   7.456  0.4465  0.8289  1.3887
  165MOL0     H22255   7.622   4.644   7.432 -1.5789 -1.5348  2.1371
  165MOL0     H22256   7.679   4.538   7.553 -0.0133 -3.9097 -0.7807
  165MOL0     H22257   8.683   4.722   7.139 -0.2676  0.0075 -0.1330
  165MOL0     H22258   8.914   4.802   7.183  0.5995  0.0037 -0.1523
  165MOL0     H22259   9.214   4.953   7.324  2.9647 -0.5181 -1.6484
  165MOL0     H22260   9.430   5.035   7.323 -1.4695  1.3989 -1.6928
  165MOL0     H22261  10.864   6.221   8.045  0.5419 -3.1720 -0.8924
  165MOL0     H22262  11.077   6.243   7.928 -0.0070  2.1907  1.7830
  165MOL0     H22263  11.312   6.030   7.410  1.8860 -1.3284 -0.5953
  165MOL0     H22264  11.553   6.070   7.318 -0.3972 -1.0807  2.6921
  165MOL0     H22265  11.703   6.169   7.192  1.5169 -0.9154  3.5237
  165MOL0     H22266  11.587   6.302   7.180  0.3725  1.1872  1.5126
  165MOL0     H22267  11.891   6.329   7.211 -0.1845 -2.2770  1.2872
  165MOL0     H22268  11.779   6.463   7.202 -2.4404 -1.5736  1.3553
  165MOL0     H22269  11.717   6.314   6.972 -1.2712  3.1228 -2.6439
  165MOL0     H22270  11.887   6.300   6.987 -1.5697  0.0333 -2.3613
  165MOL0     H22271  11.908   6.545   6.995 -0.7190 -0.5875  1.2803
  165MOL0     H22272  11.730   6.563   6.985 -2.6269 -1.8846  0.5667
  165MOL0     H22273  11.868   6.477   6.584 -0.0277 -2.4794 -0.2521
  165MOL0     H22274  11.581   6.420   7.559 -2.6486 -0.2789  2.8719
  165MOL0     H22275  11.344   6.402   7.618 -0.2908 -0.0925 -1.0145
  166MOL0     O22276   6.536   5.997   4.545  0.2147  0.0245  0.2092
  166MOL0     C22277   6.627   5.914   4.566  0.1111  0.3442  1.0918
  166MOL0     O22278   6.626   5.822   4.668  0.5913 -0.0154  0.2200
  166MOL0     C22279   6.498   5.772   4.702 -0.3712  0.3624 -0.1119
  166MOL0     C22280   6.433   5.690   4.612 -0.5234 -0.1276 -0.2258
  166MOL0     C22281   6.307   5.651   4.650  0.1694 -0.7168 -0.2542
  166MOL0     C22282   6.244   5.693   4.767  0.8453 -0.1833 -0.0532
  166MOL0     O22283   6.110   5.668   4.789  0.4997  0.1904 -0.4090
  166MOL0     C22284   6.061   5.657   4.924 -0.2003  0.1214  0.3684
  166MOL0     C22285   5.918   5.611   4.922  0.1702 -0.0939 -0.1016
  166MOL0     C22286   5.841   5.664   5.039  0.6896  0.9725  0.0220
  166MOL0     C22287   5.700   5.618   5.018  0.2406 -0.0729 -0.0374
  166MOL0     C22288   5.610   5.655   5.140 -0.2089 -0.5648 -1.2733
  166MOL0     C22289   5.474   5.577   5.128  0.9201  0.1294 -0.9530
  166MOL0     C22290   5.374   5.618   5.232  0.4772 -0.9549 -0.4199
  166MOL0     C22291   5.302   5.748   5.197 -0.6231 -0.1029 -0.5557
  166MOL0     N22292   5.216   5.739   5.078 -0.0788 -0.0484 -0.2287
  166MOL0     C22293   5.094   5.675   5.075 -0.3801  0.0295 -0.4321
  166MOL0     C22294   5.053   5.688   4.949 -0.2001  0.4986 -0.3443
  166MOL0     C22295   4.920   5.643   4.880  0.1325  0.8986  0.2908
  166MOL0     C22296   4.952   5.562   4.747 -0.5234  0.0506  0.8181
  166MOL0     C22297   4.817   5.525   4.678 -1.4796 -0.2955 -0.4555
  166MOL0     C22298   4.827   5.437   4.562 -0.2912  0.4842 -0.2087
  166MOL0     O22299   4.717   5.484   4.470 -0.1087 -0.2630 -0.1793
  166MOL0     C22300   4.584   5.478   4.506  0.3831 -0.1687 -0.2626
  166MOL0     C22301   4.499   5.552   4.422 -0.1965  1.1360  0.3222
  166MOL0     C22302   4.369   5.567   4.450 -0.0744 -0.3444  0.4125
  166MOL0     C22303   4.291   5.640   4.334  0.5235 -0.3730 -0.4582
  166MOL0     C22304   4.317   5.496   4.559  0.3522 -0.1376  0.2301
  166MOL0     C22305   4.165   5.497   4.585 -0.5965 -0.0369 -0.9748
  166MOL0     O22306   4.118   5.404   4.673  0.0426 -0.1209  0.6604
  166MOL0     C22307   3.985   5.406   4.693  0.2100  0.3495  0.4070
  166MOL0     C22308   3.893   5.351   4.605  0.4399  0.1254  0.5028
  166MOL0     C22309   3.758   5.361   4.628  1.0338  0.0338  0.1998
  166MOL0     C22310   3.710   5.405   4.754 -0.9172  0.3854  0.3233
  166MOL0     O22311   3.586   5.411   4.798 -0.1564  0.3476 -0.3914
  166MOL0     C22312   3.513   5.285   4.782  0.1174 -1.1042  0.5507
  166MOL0     C22313   3.405   5.299   4.886  0.1266 -0.7697 -0.1841
  166MOL0     C22314   3.329   5.170   4.919 -0.3830  0.4449 -0.5291
  166MOL0     C22315   3.235   5.167   5.045 -0.4306 -0.8542 -0.3249
  166MOL0     C22316   3.176   5.035   5.081 -0.1496 -0.4167 -0.1084
  166MOL0     C22317   3.086   4.984   4.966  0.5510  0.6776  0.2086
  166MOL0     C22318   3.011   4.855   4.992  0.3601  0.2120  0.6328
  166MOL0     C22319   2.897   4.866   5.089 -0.5615 -0.3336  0.4253
  166MOL0    Cl22320   2.842   4.699   5.130  0.1979  0.0979 -0.1342
  166MOL0     C22321   3.809   5.462   4.838  0.3976  1.2764 -0.2486
  166MOL0     C22322   3.949   5.475   4.808 -0.3141  0.0047 -0.1306
  166MOL0     O22323   4.097   5.587   4.535  0.0506 -0.5910  0.9012
  166MOL0     C22324   4.396   5.419   4.640  0.1827 -0.0743  0.3231
  166MOL0     C22325   4.530   5.408   4.613  0.0430  0.1408  0.8479
  166MOL0     N22326   5.149   5.747   4.872  0.5996  0.3294 -0.6046
  166MOL0     N22327   5.245   5.782   4.958 -0.2816 -0.1386  0.0728
  166MOL0     C22328   6.317   5.766   4.859 -0.5846 -0.4389 -0.4140
  166MOL0     C22329   6.454   5.799   4.835  0.0433 -0.6410  0.6109
  166MOL0     C22330   6.756   5.954   4.516  0.4733  0.0455  0.4843
  166MOL0     C22331   6.784   6.082   4.458 -0.1860 -0.2647 -0.7029
  166MOL0     C22332   6.916   6.118   4.420  0.4192  0.1171  0.5956
  166MOL0     C22333   7.025   6.032   4.434 -0.1395  0.2199 -0.3781
  166MOL0     O22334   7.157   6.066   4.408  1.2613 -0.4423  0.1312
  166MOL0     C22335   7.184   6.208   4.379 -0.8122  0.6018  0.1172
  166MOL0     C22336   7.337   6.195   4.347  0.3268 -0.2152  0.5478
  166MOL0     C22337   7.381   6.295   4.234 -0.1568 -0.3279 -0.2485
  166MOL0     C22338   7.517   6.262   4.175  0.1013 -0.0313 -0.3530
  166MOL0     C22339   7.520   6.320   4.042 -0.5788  0.0390  0.0419
  166MOL0     C22340   7.512   6.355   3.923 -0.3857  0.0063  0.5084
  166MOL0     C22341   6.998   5.911   4.500  0.3191  0.5460  0.8674
  166MOL0     C22342   6.868   5.870   4.537  0.4625 -0.4820  0.4926
  166MOL0     H22343   6.479   5.671   4.516  0.4081  3.4116 -0.6031
  166MOL0     H22344   6.245   5.591   4.584 -2.4816  1.7260 -0.2224
  166MOL0     H22345   6.127   5.592   4.981 -0.7409  0.4864  1.4385
  166MOL0     H22346   6.063   5.753   4.977 -2.9390 -0.8448  2.5278
  166MOL0     H22347   5.865   5.635   4.829  0.6829 -0.9588 -0.6379
  166MOL0     H22348   5.923   5.501   4.924 -2.7409 -0.4440 -3.1483
  166MOL0     H22349   5.885   5.620   5.129 -0.6669 -3.9732 -1.4171
  166MOL0     H22350   5.860   5.772   5.039 -0.1363  1.1838  2.4358
  166MOL0     H22351   5.649   5.650   4.928  1.0102  2.0586  0.2283
  166MOL0     H22352   5.697   5.509   5.013  0.3046 -0.2166  2.1015
  166MOL0     H22353   5.644   5.645   5.244 -2.9348  0.8043 -0.1494
  166MOL0     H22354   5.604   5.764   5.132 -0.7805 -0.5374 -0.5605
  166MOL0     H22355   5.422   5.571   5.032 -0.3713  3.2202 -0.5743
  166MOL0     H22356   5.507   5.475   5.150  3.3949  1.2583  1.1410
  166MOL0     H22357   5.304   5.535   5.247 -0.3428  0.1474  2.5852
  166MOL0     H22358   5.421   5.640   5.329  0.3268 -2.7007  0.0831
  166MOL0     H22359   5.386   5.809   5.163 -1.2858 -0.1280 -2.3739
  166MOL0     H22360   5.236   5.785   5.276 -1.9646 -0.0076 -1.6761
  166MOL0     H22361   5.034   5.626   5.151  0.3090  1.9849  1.4822
  166MOL0     H22362   4.870   5.578   4.952  2.6183 -1.8013 -0.2563
  166MOL0     H22363   4.856   5.729   4.857  0.9289  1.7549  1.2429
  166MOL0     H22364   5.015   5.477   4.776 -1.8060 -0.4306  2.3399
  166MOL0     H22365   5.004   5.625   4.674  1.9846 -1.7916  0.8786
  166MOL0     H22366   4.769   5.617   4.645 -1.2213  0.7611  1.8848
  166MOL0     H22367   4.759   5.481   4.760 -1.6065  1.6121  0.5436
  166MOL0     H22368   4.829   5.330   4.583 -0.1296 -0.0898 -2.8087
  166MOL0     H22369   4.924   5.457   4.515  1.3951 -0.7181  2.4824
  166MOL0     H22370   4.555   5.596   4.340 -0.1171  0.9031  0.2515
  166MOL0     H22371   4.227   5.559   4.295  0.1929 -0.8282  0.9626
  166MOL0     H22372   4.239   5.731   4.366 -1.8831 -1.2032 -1.7234
  166MOL0     H22373   4.360   5.668   4.255  0.0995 -1.4881 -1.2669
  166MOL0     H22374   3.949   5.318   4.518  1.5169  0.9470  0.8648
  166MOL0     H22375   3.686   5.311   4.565 -1.0216  0.5521  2.0035
  166MOL0     H22376   3.490   5.286   4.675  1.7096  1.3823  0.1497
  166MOL0     H22377   3.581   5.202   4.805  0.2329 -1.6295 -1.4820
  166MOL0     H22378   3.446   5.334   4.981  1.6336 -0.6742 -0.8566
  166MOL0     H22379   3.337   5.370   4.837  0.9115 -0.5110 -0.9216
  166MOL0     H22380   3.406   5.093   4.911  1.5033  2.3979 -3.2981
  166MOL0     H22381   3.266   5.148   4.832 -0.8822  1.1582 -0.3633
  166MOL0     H22382   3.303   5.187   5.129 -0.4165  1.4116 -0.8245
  166MOL0     H22383   3.168   5.253   5.038 -2.0649 -2.1178 -0.7618
  166MOL0     H22384   3.117   5.054   5.171 -0.8457  2.6544 -1.1210
  166MOL0     H22385   3.260   4.966   5.096 -0.1091  0.1774  2.9862
  166MOL0     H22386   3.012   5.064   4.951 -1.1016 -0.7396  0.5617
  166MOL0     H22387   3.154   4.967   4.882 -0.6046 -0.0979 -0.6038
  166MOL0     H22388   3.082   4.775   5.015 -0.1989 -0.2589  0.7288
  166MOL0     H22389   2.967   4.825   4.896  0.5656  1.6897  0.0576
  166MOL0     H22390   2.815   4.926   5.047  0.2308 -0.2079 -1.0098
  166MOL0     H22391   2.933   4.908   5.184 -0.9742 -2.2997  1.5072
  166MOL0     H22392   3.779   5.498   4.936  1.5233 -1.3093  1.1635
  166MOL0     H22393   4.017   5.528   4.873 -0.4702  0.4448 -0.3265
  166MOL0     H22394   4.354   5.365   4.724 -3.3141  1.1405 -0.4857
  166MOL0     H22395   4.593   5.360   4.687  0.5618 -1.3897 -0.5418
  166MOL0     H22396   6.283   5.802   4.955 -0.5718  1.6343 -1.1251
  166MOL0     H22397   6.518   5.847   4.907  2.5406 -0.3513 -1.6541
  166MOL0     H22398   6.705   6.157   4.449 -1.5148 -1.7152 -1.6000
  166MOL0     H22399   6.919   6.217   4.377  0.9404  0.4038  1.2655
  166MOL0     H22400   7.114   6.244   4.303  0.9398 -1.7679 -2.8158
  166MOL0     H22401   7.188   6.274   4.466  1.2268 -0.4583  0.8749
  166MOL0     H22402   7.363   6.096   4.308  0.6478  0.5012 -1.1482
  166MOL0     H22403   7.395   6.213   4.438  0.4280  3.9430 -0.1326
  166MOL0     H22404   7.388   6.395   4.279 -3.1399 -0.7282  1.3316
  166MOL0     H22405   7.303   6.283   4.158 -0.2901 -0.1789 -0.1343
  166MOL0     H22406   7.527   6.156   4.149  0.2887 -0.2046  0.3835
  166MOL0     H22407   7.592   6.292   4.249 -0.3331  2.1492 -0.7515
  166MOL0     H22408   7.509   6.374   3.818  1.7645  0.6226  0.5213
  166MOL0     H22409   7.077   5.839   4.518 -0.1621 -0.3901 -0.5261
  166MOL0     H22410   6.844   5.770   4.573 -0.7749  0.5491  2.7437
  167MOL0     O22411   1.688  11.110  10.821  0.4297 -0.1465 -0.3382
  167MOL0     C22412   1.710  11.232  10.801 -0.4171 -0.6059  0.1174
  167MOL0     O22413   1.632  11.328  10.845  0.1939 -0.1159  0.2005
  167MOL0     C22414   1.554  11.313  10.960  0.2515 -0.4801  0.7472
  167MOL0     C22415   1.603  11.262  11.078  0.4305 -0.6286  0.4916
  167MOL0     C22416   1.522  11.258  11.194  0.0967  1.2865  0.0495
  167MOL0     C22417   1.394  11.305  11.193 -0.4827  0.9278 -0.4090
  167MOL0     O22418   1.316  11.320  11.305 -0.4702 -0.2221  0.5633
  167MOL0     C22419   1.307  11.213  11.400 -0.4486 -0.0786  0.2103
  167MOL0     C22420   1.234  11.258  11.518  0.0920 -0.4155  0.3289
  167MOL0     C22421   1.151  11.152  11.583  0.2390  0.4938 -0.2890
  167MOL0     C22422   1.074  11.214  11.703  0.7405  0.4018 -0.1117
  167MOL0     C22423   0.974  11.110  11.766  0.2115  0.1470 -0.4558
  167MOL0     C22424   0.895  11.035  11.667  0.4530  0.6889  0.3445
  167MOL0     C22425   0.801  10.938  11.735 -0.1692  0.2475  0.2523
  167MOL0     C22426   0.674  11.005  11.782 -0.7811  0.0742  0.0633
  167MOL0     N22427   0.564  10.912  11.803 -0.1256 -0.2468 -0.1418
  167MOL0     C22428   0.491  10.926  11.911 -1.0302  0.1481 -0.2031
  167MOL0     C22429   0.388  10.839  11.904 -0.7927 -0.2464  0.0049
  167MOL0     C22430   0.283  10.834  12.009  0.5998  0.7392 -0.3493
  167MOL0     C22431   0.165  10.913  11.964 -0.3347  1.1375  0.3418
  167MOL0     C22432   0.044  10.874  12.052  0.1268  0.1364  0.1052
  167MOL0     C22433  -0.097  10.925  12.015 -0.9696  0.9787 -0.5336
  167MOL0     O22434  -0.162  10.965  12.147 -0.2748  0.2824  1.0506
  167MOL0     C22435  -0.296  10.997  12.133 -0.1497  0.2988 -0.0884
  167MOL0     C22436  -0.363  11.070  12.227  0.2401 -0.1215 -0.6467
  167MOL0     C22437  -0.504  11.093  12.233 -0.3931  0.0871  0.3651
  167MOL0     C22438  -0.559  11.181  12.338 -0.1639 -0.3004 -0.5998
  167MOL0     C22439  -0.577  11.046  12.129 -0.6555  0.0714  0.2370
  167MOL0     C22440  -0.727  11.056  12.111  0.6463 -0.9775  0.2859
  167MOL0     O22441  -0.799  11.024  12.226  0.1013  0.3350  0.0054
  167MOL0     C22442  -0.936  11.045  12.222 -0.7574  0.0571 -1.2674
  167MOL0     C22443  -1.030  10.957  12.165 -0.7860 -0.1310  0.6666
  167MOL0     C22444  -1.159  10.988  12.158  0.3214  0.5027 -0.3532
  167MOL0     C22445  -1.207  11.113  12.194 -0.4955  0.0384 -0.1508
  167MOL0     O22446  -1.345  11.132  12.201 -0.5469  0.0235 -0.6391
  167MOL0     C22447  -1.405  11.257  12.214  0.5632  0.2106 -0.5755
  167MOL0     C22448  -1.555  11.229  12.266 -0.7810  0.3737 -0.2901
  167MOL0     C22449  -1.575  11.240  12.418 -0.2301 -0.5193  0.0505
  167MOL0     C22450  -1.697  11.188  12.478  0.6805  0.4619 -0.0580
  167MOL0     C22451  -1.825  11.271  12.459  0.3038  0.6274 -0.7266
  167MOL0     C22452  -1.944  11.179  12.483  0.7845  0.2284 -0.0661
  167MOL0     C22453  -2.064  11.253  12.432 -0.1847  0.3225 -0.4680
  167MOL0     C22454  -2.174  11.153  12.404 -0.6793  0.2593  0.4425
  167MOL0    Cl22455  -2.329  11.216  12.347  0.2019  0.3674  0.2154
  167MOL0     C22456  -1.114  11.206  12.243 -0.0636 -0.5270  0.0163
  167MOL0     C22457  -0.981  11.168  12.270 -0.0050 -0.1490 -0.3764
  167MOL0     O22458  -0.770  11.088  12.003  0.0469 -0.1421 -0.1966
  167MOL0     C22459  -0.517  10.973  12.026  0.4289  0.1919  1.1302
  167MOL0     C22460  -0.379  10.949  12.025  0.4793 -0.1212 -1.5184
  167MOL0     N22461   0.393  10.772  11.780 -0.5970 -0.1400 -0.0115
  167MOL0     N22462   0.500  10.821  11.719 -0.2100  0.0054 -0.3483
  167MOL0     C22463   1.348  11.367  11.078  0.1385 -0.1730 -0.0592
  167MOL0     C22464   1.417  11.360  10.955 -0.7692 -0.6598  0.1714
  167MOL0     C22465   1.809  11.274  10.700  0.8356 -0.2392  0.1440
  167MOL0     C22466   1.850  11.410  10.682  0.0300 -0.2343  0.2551
  167MOL0     C22467   1.945  11.444  10.583  0.3858  0.6195  0.1587
  167MOL0     C22468   2.009  11.355  10.502 -0.4877  0.3094  0.1092
  167MOL0     O22469   2.104  11.391  10.407  0.2619  0.5411 -0.3199
  167MOL0     C22470   2.141  11.528  10.394  0.1599 -0.5650 -0.1005
  167MOL0     C22471   2.257  11.541  10.298 -0.1139 -0.0476 -0.0547
  167MOL0     C22472   2.313  11.684  10.269  0.4187  0.8752  0.1793
  167MOL0     C22473   2.228  11.807  10.243  0.1555  0.1694 -0.3561
  167MOL0     C22474   2.113  11.784  10.151  0.0307 -0.2553 -0.3217
  167MOL0     C22475   2.009  11.775  10.086  0.0892 -0.8655 -0.4271
  167MOL0     C22476   1.963  11.224  10.514 -0.5144  0.5524  0.1556
  167MOL0     C22477   1.864  11.183  10.610 -0.4710  0.5260  0.9733
  167MOL0     H22478   1.709  11.238  11.081  0.6153  0.1935  0.6992
  167MOL0     H22479   1.566  11.234  11.290  0.5076  0.9136 -0.2291
  167MOL0     H22480   1.246  11.134  11.356 -1.2615  0.8826 -0.4598
  167MOL0     H22481   1.405  11.178  11.432  0.1568 -0.0968 -1.5975
  167MOL0     H22482   1.315  11.285  11.587 -1.5606  0.8726  1.8519
  167MOL0     H22483   1.175  11.347  11.495 -2.1459 -1.7362  0.6100
  167MOL0     H22484   1.085  11.109  11.507 -0.9023 -1.3723  1.6401
  167MOL0     H22485   1.211  11.066  11.612  1.2636  0.9570 -0.9986
  167MOL0     H22486   1.126  11.269  11.783  0.0543 -0.3404  0.8694
  167MOL0     H22487   1.010  11.295  11.667  1.0997  1.6572  1.9165
  167MOL0     H22488   1.036  11.037  11.820 -0.2024 -0.4526 -0.7782
  167MOL0     H22489   0.905  11.148  11.841 -0.1785  1.0840 -1.2790
  167MOL0     H22490   0.855  11.097  11.586 -2.6183 -0.2196  1.0498
  167MOL0     H22491   0.976  10.976  11.624  0.6232  0.6983  0.6466
  167MOL0     H22492   0.766  10.866  11.660  1.2994  1.8794 -2.1591
  167MOL0     H22493   0.851  10.887  11.817  0.5831  4.6149  2.8091
  167MOL0     H22494   0.648  11.082  11.707 -2.0327 -3.1919 -3.1780
  167MOL0     H22495   0.709  11.048  11.876  3.6533 -2.5639 -0.1275
  167MOL0     H22496   0.502  10.986  12.000 -0.3639  0.4140 -0.4605
  167MOL0     H22497   0.247  10.732  12.025  0.2807  1.3630  4.3442
  167MOL0     H22498   0.318  10.869  12.107  1.5899  0.9363 -0.7679
  167MOL0     H22499   0.147  10.886  11.860 -0.7805  3.4372 -0.2331
  167MOL0     H22500   0.191  11.019  11.976 -2.0570  1.9176 -1.9782
  167MOL0     H22501   0.075  10.914  12.149 -0.5024  0.3784  0.2101
  167MOL0     H22502   0.033  10.766  12.069 -1.3167  0.0367 -1.2165
  167MOL0     H22503  -0.143  10.841  11.962  1.8159 -1.4591  0.6223
  167MOL0     H22504  -0.100  11.004  11.939 -2.4237  0.9031 -0.5753
  167MOL0     H22505  -0.297  11.109  12.303  1.0299  0.0198 -1.3879
  167MOL0     H22506  -0.587  11.124  12.427 -2.6231  0.4706 -0.8140
  167MOL0     H22507  -0.492  11.264  12.360 -3.0538  2.6408 -1.9961
  167MOL0     H22508  -0.655  11.226  12.314  0.7127  1.1355 -1.5669
  167MOL0     H22509  -1.018  10.855  12.131 -3.1055  0.8034 -3.8974
  167MOL0     H22510  -1.225  10.919  12.108  1.5150  1.7643 -4.0120
  167MOL0     H22511  -1.357  11.329  12.281 -0.9768 -0.0825  0.9327
  167MOL0     H22512  -1.397  11.287  12.109 -0.0074 -0.8747 -0.9435
  167MOL0     H22513  -1.624  11.294  12.211  0.6694  1.4902 -0.8437
  167MOL0     H22514  -1.585  11.126  12.243 -1.0141  0.1364  0.9568
  167MOL0     H22515  -1.575  11.347  12.445 -2.4155  0.0000 -1.7373
  167MOL0     H22516  -1.492  11.185  12.463 -0.0649 -1.1486 -1.0028
  167MOL0     H22517  -1.711  11.086  12.443  0.6813 -0.1155  1.5190
  167MOL0     H22518  -1.677  11.185  12.586 -0.2570 -4.0445  0.1903
  167MOL0     H22519  -1.831  11.314  12.359 -0.0677  2.0699 -0.1041
  167MOL0     H22520  -1.836  11.355  12.528  0.2867 -0.2485  0.3820
  167MOL0     H22521  -1.937  11.088  12.422 -2.7067 -0.4809  0.3699
  167MOL0     H22522  -1.951  11.165  12.591  2.3723 -2.0632 -0.1785
  167MOL0     H22523  -2.042  11.296  12.335  3.3610  0.1283  0.1350
  167MOL0     H22524  -2.105  11.324  12.505 -3.4364  0.0274 -1.8107
  167MOL0     H22525  -2.200  11.100  12.496  1.8587  0.8558  1.5903
  167MOL0     H22526  -2.139  11.081  12.329 -0.7231  0.6962 -0.0011
  167MOL0     H22527  -1.149  11.306  12.270  0.7332 -0.0815 -0.5696
  167MOL0     H22528  -0.914  11.237  12.320 -0.8312 -0.3018  0.9880
  167MOL0     H22529  -0.575  10.934  11.944  2.8103 -3.5194  0.9486
  167MOL0     H22530  -0.344  10.891  11.940  1.9280 -0.6875 -0.5909
  167MOL0     H22531   1.248  11.410  11.078 -0.6230 -1.8574  0.9473
  167MOL0     H22532   1.371  11.376  10.858  0.7840  0.4664 -0.4217
  167MOL0     H22533   1.806  11.487  10.744  1.8669 -2.1782  4.3518
  167MOL0     H22534   1.962  11.551  10.583  0.4644  0.7541  3.8881
  167MOL0     H22535   2.056  11.586  10.356  0.0347 -2.0122 -2.2203
  167MOL0     H22536   2.175  11.574  10.487 -1.7153  0.7185  0.0082
  167MOL0     H22537   2.223  11.495  10.205 -1.1757 -1.2711  0.8958
  167MOL0     H22538   2.338  11.487  10.348 -0.1698 -0.9388 -0.9092
  167MOL0     H22539   2.379  11.680  10.181  1.4839 -0.5099  1.0030
  167MOL0     H22540   2.382  11.719  10.346  3.4381  2.6526 -3.0127
  167MOL0     H22541   2.285  11.890  10.202 -2.1350  0.6596 -2.8098
  167MOL0     H22542   2.183  11.835  10.339  0.0533 -2.0611  0.3051
  167MOL0     H22543   1.920  11.767  10.026  0.8343 -0.6273 -1.6102
  167MOL0     H22544   2.000  11.133  10.467 -1.2369 -1.5957  3.4108
  167MOL0     H22545   1.834  11.078  10.606  0.5492  0.2756 -1.8748
  168MOL0     O22546   7.223   3.211  10.401  0.6160  0.1993 -0.3180
  168MOL0     C22547   7.190   3.108  10.337 -0.5392  0.1691 -0.1381
  168MOL0     O22548   7.068   3.080  10.285 -0.4562 -0.7964  0.2083
  168MOL0     C22549   6.966   3.167  10.306 -0.3007  0.3132  0.4338
  168MOL0     C22550   6.941   3.276  10.223  0.4251  0.0911 -0.0113
  168MOL0     C22551   6.821   3.345  10.254 -0.3567 -0.4404 -0.2199
  168MOL0     C22552   6.729   3.312  10.353 -0.1847  0.6128 -0.2298
  168MOL0     O22553   6.596   3.337  10.363 -0.3351  0.3470 -0.2075
  168MOL0     C22554   6.537   3.434  10.285  0.5372 -0.9915  0.2693
  168MOL0     C22555   6.412   3.497  10.361 -0.3228 -0.2067 -0.0628
  168MOL0     C22556   6.300   3.399  10.399 -0.2857  0.4425  0.3426
  168MOL0     C22557   6.187   3.466  10.470  0.2645  0.3381 -0.5935
  168MOL0     C22558   6.058   3.394  10.438 -0.1993  0.5764 -0.4727
  168MOL0     C22559   5.987   3.430  10.306  0.1556  0.7098 -1.0198
  168MOL0     C22560   5.848   3.349  10.302  0.1086 -0.5502  0.8943
  168MOL0     C22561   5.780   3.350  10.165 -0.3219  0.5405 -0.0137
  168MOL0     N22562   5.651   3.289  10.196  0.4848  0.1853 -0.7029
  168MOL0     C22563   5.528   3.347  10.175  0.0800  0.2748 -0.4430
  168MOL0     C22564   5.434   3.256  10.217 -0.0356  0.3661 -0.6769
  168MOL0     C22565   5.289   3.289  10.220 -0.3838  1.1128 -0.4431
  168MOL0     C22566   5.219   3.183  10.131  0.4543  0.1277 -0.8998
  168MOL0     C22567   5.241   3.197   9.981  0.3901 -0.3676 -0.3863
  168MOL0     C22568   5.202   3.328   9.919 -0.1593 -0.6731 -0.9730
  168MOL0     O22569   5.068   3.364   9.944 -0.5455 -0.0444 -0.5414
  168MOL0     C22570   4.961   3.294   9.892  1.0032  0.7074  0.4792
  168MOL0     C22571   4.981   3.199   9.790 -0.2537  1.0657 -0.6858
  168MOL0     C22572   4.869   3.127   9.733  0.8901  0.2757 -0.7885
  168MOL0     C22573   4.885   3.022   9.627 -0.6067  0.6137  0.4473
  168MOL0     C22574   4.736   3.164   9.774  0.3693  0.2170 -0.1193
  168MOL0     C22575   4.613   3.101   9.722 -0.3805 -0.3742 -0.1777
  168MOL0     O22576   4.530   3.055   9.821  0.4318  0.2886 -0.3583
  168MOL0     C22577   4.406   2.999   9.782  0.1296 -0.7113 -0.0029
  168MOL0     C22578   4.390   2.868   9.743 -0.6263  0.5343 -0.2629
  168MOL0     C22579   4.261   2.812   9.712  0.4858 -0.0687 -0.4074
  168MOL0     C22580   4.148   2.892   9.740  0.0258 -0.2697  0.6034
  168MOL0     O22581   4.017   2.858   9.712  0.7507  0.4358  0.3051
  168MOL0     C22582   3.986   2.741   9.629  0.3757  0.1097  0.0741
  168MOL0     C22583   3.844   2.715   9.587 -0.3428 -1.1258 -0.4985
  168MOL0     C22584   3.766   2.846   9.606 -0.3979  0.0809 -0.2709
  168MOL0     C22585   3.624   2.835   9.565  0.4069  0.6210 -0.1702
  168MOL0     C22586   3.581   2.841   9.423  0.4408 -0.1156  0.0727
  168MOL0     C22587   3.460   2.752   9.383  0.7253  0.2858  0.0323
  168MOL0     C22588   3.333   2.788   9.461 -0.2522  0.1866 -0.9314
  168MOL0     C22589   3.209   2.741   9.385 -0.5294 -0.5331  0.3456
  168MOL0    Cl22590   3.227   2.561   9.393  0.3304  0.0497 -0.3554
  168MOL0     C22591   4.174   3.026   9.772 -0.1569 -0.9355 -0.0834
  168MOL0     C22592   4.302   3.077   9.802 -0.2044 -0.1648 -0.7249
  168MOL0     O22593   4.599   3.078   9.604  0.6555 -0.1536 -0.1096
  168MOL0     C22594   4.715   3.263   9.877  0.1215  0.2229  0.0580
  168MOL0     C22595   4.827   3.323   9.932 -0.4776 -0.4118 -0.1316
  168MOL0     N22596   5.501   3.144  10.264 -0.5013  0.5681  0.3516
  168MOL0     N22597   5.631   3.168  10.257  0.1477  0.4424 -0.1128
  168MOL0     C22598   6.773   3.215  10.441 -0.8130 -0.5331 -0.9047
  168MOL0     C22599   6.895   3.145  10.429  0.0637  0.0097  0.5124
  168MOL0     C22600   7.297   3.002  10.323  0.2307 -0.4041 -0.0704
  168MOL0     C22601   7.411   3.018  10.395  1.3010  0.1117 -0.3600
  168MOL0     C22602   7.510   2.919  10.396  0.5664  0.3761  0.2745
  168MOL0     C22603   7.499   2.805  10.318  0.1301  0.5536 -0.2435
  168MOL0     O22604   7.590   2.702  10.304 -0.0579  0.3544 -0.5058
  168MOL0     C22605   7.676   2.681  10.424  0.6442  0.4087  1.2641
  168MOL0     C22606   7.759   2.553  10.394 -0.1013 -0.3578 -0.4094
  168MOL0     C22607   7.668   2.431  10.374 -0.0275 -0.1650  0.3455
  168MOL0     C22608   7.730   2.346  10.271  0.1457  0.9840  0.0125
  168MOL0     C22609   7.838   2.269  10.336 -1.3683  0.6794  0.0707
  168MOL0     C22610   7.926   2.193  10.377 -0.8484  0.1391  0.4824
  168MOL0     C22611   7.386   2.797  10.231 -0.2062  0.2656  0.3068
  168MOL0     C22612   7.287   2.893  10.235 -0.2052 -0.0246  0.5437
  168MOL0     H22613   6.998   3.298  10.134  3.6585 -4.7832  0.4718
  168MOL0     H22614   6.802   3.425  10.184  3.0278 -0.3077 -1.1676
  168MOL0     H22615   6.606   3.515  10.262 -1.8070  1.4107  1.2113
  168MOL0     H22616   6.497   3.403  10.188 -1.6476  1.3918  0.3058
  168MOL0     H22617   6.464   3.548  10.443 -0.2433 -1.4693  0.6949
  168MOL0     H22618   6.357   3.567  10.298 -2.8814 -0.3517  1.8684
  168MOL0     H22619   6.259   3.353  10.308 -0.0498  1.0589 -0.0833
  168MOL0     H22620   6.340   3.319  10.462 -0.5823 -0.2492 -0.3284
  168MOL0     H22621   6.204   3.455  10.578 -0.7929 -0.6074 -0.5066
  168MOL0     H22622   6.166   3.572  10.449 -4.4189 -0.5724 -1.5303
  168MOL0     H22623   6.078   3.287  10.433  2.1686  0.9729 -0.4000
  168MOL0     H22624   5.991   3.420  10.520 -0.3519  0.8392 -0.6747
  168MOL0     H22625   5.964   3.537  10.301  0.2768  0.6980 -2.2483
  168MOL0     H22626   6.046   3.400  10.218  1.5770 -0.6884  0.3529
  168MOL0     H22627   5.868   3.252  10.348  1.7902  0.8297  3.2859
  168MOL0     H22628   5.782   3.405  10.370  0.6350 -0.1289  1.0660
  168MOL0     H22629   5.842   3.286  10.102 -0.6752  0.8008 -0.6349
  168MOL0     H22630   5.767   3.451  10.125 -0.8618  0.4890  0.0233
  168MOL0     H22631   5.512   3.445  10.132 -0.4973 -0.2481 -1.4420
  168MOL0     H22632   5.242   3.278  10.319 -0.4601 -0.5559 -0.6351
  168MOL0     H22633   5.271   3.392  10.187 -0.9687  0.9927 -0.5163
  168MOL0     H22634   5.113   3.197  10.151  0.2843 -1.5303 -0.4811
  168MOL0     H22635   5.237   3.079  10.160 -1.1446  0.8302  3.2127
  168MOL0     H22636   5.179   3.120   9.934  1.9903 -2.3998  0.6502
  168MOL0     H22637   5.345   3.179   9.950  0.5030 -2.7929  1.1551
  168MOL0     H22638   5.226   3.315   9.813  0.6001  0.2919 -0.9300
  168MOL0     H22639   5.267   3.403   9.963  0.3785 -0.7021 -1.7072
  168MOL0     H22640   5.079   3.169   9.753  0.4663  1.3112  0.9409
  168MOL0     H22641   4.859   3.062   9.529 -2.1664  2.2542  1.4719
  168MOL0     H22642   4.990   2.991   9.626 -0.5612  0.7218 -1.1269
  168MOL0     H22643   4.814   2.943   9.652 -0.6092  0.1486 -0.9787
  168MOL0     H22644   4.485   2.821   9.724 -0.0910  1.4824  0.0009
  168MOL0     H22645   4.257   2.707   9.684  0.8173 -0.4504  0.9101
  168MOL0     H22646   4.036   2.754   9.533 -0.3035  0.5057 -0.2379
  168MOL0     H22647   4.031   2.651   9.672  2.0748 -0.5334 -2.8335
  168MOL0     H22648   3.841   2.673   9.486 -0.7111  1.4937 -1.6637
  168MOL0     H22649   3.801   2.641   9.655 -1.4979 -0.4419 -0.4544
  168MOL0     H22650   3.819   2.924   9.552  3.1024 -1.5146  0.5661
  168MOL0     H22651   3.771   2.859   9.714  0.6059 -0.0677 -0.2856
  168MOL0     H22652   3.584   2.743   9.608  2.0316  0.6052  1.4463
  168MOL0     H22653   3.573   2.919   9.614 -1.5119  0.7479 -2.2441
  168MOL0     H22654   3.669   2.809   9.365  0.4847 -0.9112  0.5562
  168MOL0     H22655   3.555   2.945   9.404  0.7686 -0.3732 -2.0304
  168MOL0     H22656   3.433   2.759   9.277  0.2923  0.9884  0.1784
  168MOL0     H22657   3.477   2.648   9.411 -0.3904  1.3192  5.7028
  168MOL0     H22658   3.321   2.890   9.498 -3.8656 -0.8200  1.1655
  168MOL0     H22659   3.343   2.727   9.551  1.5100 -0.9600 -1.8621
  168MOL0     H22660   3.220   2.783   9.285 -1.7832 -1.6206 -0.2802
  168MOL0     H22661   3.119   2.780   9.433 -0.5699  1.8064 -1.4887
  168MOL0     H22662   4.095   3.100   9.780 -1.2073 -2.1988  3.3161
  168MOL0     H22663   4.325   3.175   9.843  0.8950 -0.1761 -1.2607
  168MOL0     H22664   4.609   3.285   9.891  0.8891  2.5425  3.4089
  168MOL0     H22665   4.821   3.399  10.009  1.8598 -0.5075  0.2192
  168MOL0     H22666   6.715   3.184  10.528  2.5097 -2.1375  0.9543
  168MOL0     H22667   6.912   3.062  10.497 -2.2489 -1.0484 -0.1220
  168MOL0     H22668   7.431   3.104  10.459  0.0399 -0.4819  0.8855
  168MOL0     H22669   7.597   2.932  10.460  0.1412  0.8728  0.7570
  168MOL0     H22670   7.737   2.770  10.439 -0.3720  1.2724  0.5269
  168MOL0     H22671   7.609   2.667  10.510 -1.8988 -0.8536 -0.7624
  168MOL0     H22672   7.834   2.539  10.473  0.4745  0.1832 -0.8471
  168MOL0     H22673   7.823   2.571  10.307  1.1564 -3.3616 -0.2209
  168MOL0     H22674   7.572   2.474  10.343  0.3440  0.4832  0.0763
  168MOL0     H22675   7.652   2.365  10.460  0.2667  0.6603  1.0445
  168MOL0     H22676   7.763   2.404  10.185  0.5112  0.2953 -0.3157
  168MOL0     H22677   7.660   2.274  10.227  0.2785 -0.3265  1.7981
  168MOL0     H22678   8.000   2.127  10.419 -0.7566 -2.7412 -3.6037
  168MOL0     H22679   7.385   2.713  10.163  0.1822 -1.8454  2.7559
  168MOL0     H22680   7.193   2.875  10.184  0.1335  0.1288 -0.1435
  169MOL0     O22681   5.675   0.477   2.665 -0.2378 -0.2657  0.0641
  169MOL0     C22682   5.670   0.356   2.695  0.3761  0.1518 -0.8006
  169MOL0     O22683   5.556   0.284   2.721 -0.6370  0.1147 -0.8996
  169MOL0     C22684   5.423   0.333   2.699 -0.9257 -0.0226  0.1718
  169MOL0     C22685   5.372   0.432   2.782  0.2882  0.9165 -0.3810
  169MOL0     C22686   5.245   0.485   2.754  0.2701 -0.2378  0.1017
  169MOL0     C22687   5.163   0.425   2.651  0.4518  0.1963 -0.4734
  169MOL0     O22688   5.039   0.479   2.635  0.0008  0.2040 -0.7541
  169MOL0     C22689   4.934   0.400   2.586 -0.1039  0.3038 -0.1027
  169MOL0     C22690   4.884   0.314   2.706  0.0206  0.0219 -0.7137
  169MOL0     C22691   4.753   0.244   2.681 -0.8033 -0.8663  0.5724
  169MOL0     C22692   4.635   0.346   2.700  0.0038 -0.4134  0.1535
  169MOL0     C22693   4.494   0.284   2.665 -0.0958  0.0472 -0.5886
  169MOL0     C22694   4.385   0.386   2.664 -0.6760  0.1090  0.0623
  169MOL0     C22695   4.254   0.316   2.664 -0.2011 -0.7002  0.7051
  169MOL0     C22696   4.136   0.408   2.698  0.2190 -1.1242 -0.1521
  169MOL0     N22697   4.020   0.319   2.707  0.4861 -0.4826  0.6533
  169MOL0     C22698   3.965   0.298   2.823  0.6616  0.3369 -1.1339
  169MOL0     C22699   3.868   0.208   2.799  0.9041 -0.2247  0.3588
  169MOL0     C22700   3.765   0.180   2.910  0.2759 -0.1191 -0.0671
  169MOL0     C22701   3.619   0.210   2.868 -0.2489 -0.0208 -0.6238
  169MOL0     C22702   3.570   0.098   2.772  0.4251  0.2844  0.5124
  169MOL0     C22703   3.426   0.123   2.724  0.4032 -0.1956  0.2582
  169MOL0     O22704   3.330   0.129   2.832 -0.3793 -0.1311 -0.4540
  169MOL0     C22705   3.198   0.100   2.798  0.1470 -0.0348 -0.7213
  169MOL0     C22706   3.146   0.028   2.691 -0.0380 -0.4094 -0.8673
  169MOL0     C22707   3.011  -0.001   2.680 -0.1343  0.1908 -0.2215
  169MOL0     C22708   2.971  -0.093   2.569 -0.0723 -0.9417 -0.7940
  169MOL0     C22709   2.917   0.046   2.775 -0.1121 -0.0209  0.4804
  169MOL0     C22710   2.775   0.018   2.767  0.0655  0.4968  0.4605
  169MOL0     O22711   2.739  -0.107   2.736  0.9420 -0.2140 -0.1653
  169MOL0     C22712   2.607  -0.146   2.763  0.4276  0.2831 -0.3915
  169MOL0     C22713   2.523  -0.169   2.653  0.2122 -0.2963  0.1700
  169MOL0     C22714   2.387  -0.190   2.670 -0.4533 -0.0483  0.2568
  169MOL0     C22715   2.329  -0.197   2.801  0.8962 -0.7386  0.7711
  169MOL0     O22716   2.192  -0.213   2.815  0.1470 -0.2150  0.0439
  169MOL0     C22717   2.103  -0.183   2.709 -1.1093 -0.3536  0.2879
  169MOL0     C22718   1.959  -0.186   2.751  0.1440 -1.0784  0.3886
  169MOL0     C22719   1.895  -0.320   2.729  0.3682 -0.1079  0.1611
  169MOL0     C22720   1.767  -0.341   2.809 -0.2498 -0.1852  0.1073
  169MOL0     C22721   1.739  -0.494   2.836 -0.0124  0.0371 -0.2698
  169MOL0     C22722   1.691  -0.562   2.708  0.3895  1.0116 -0.0418
  169MOL0     C22723   1.638  -0.705   2.716 -0.2698 -0.2911  0.3131
  169MOL0     C22724   1.490  -0.716   2.769 -0.1118 -0.4521  0.1893
  169MOL0    Cl22725   1.372  -0.656   2.657 -0.0583  0.0322  0.2345
  169MOL0     C22726   2.410  -0.173   2.913  0.1131  0.5442  0.4121
  169MOL0     C22727   2.545  -0.139   2.895  0.5019 -0.2933  0.0678
  169MOL0     O22728   2.696   0.111   2.799 -0.5499 -0.2366 -0.3904
  169MOL0     C22729   2.963   0.138   2.866 -0.3827  0.2034  0.0068
  169MOL0     C22730   3.101   0.167   2.876 -0.7505  0.4072 -1.0456
  169MOL0     N22731   3.863   0.177   2.662 -0.3737 -1.0631 -0.1234
  169MOL0     N22732   3.958   0.243   2.617 -0.1458 -0.4924 -0.4331
  169MOL0     C22733   5.224   0.337   2.564  0.3965 -0.4157  0.6392
  169MOL0     C22734   5.345   0.278   2.594 -0.7649 -0.3539  1.0070
  169MOL0     C22735   5.797   0.292   2.710 -0.1996 -0.5745  0.9746
  169MOL0     C22736   5.914   0.370   2.710  0.2656 -0.3483  1.3227
  169MOL0     C22737   6.045   0.311   2.708 -0.4296  0.6033  0.5496
  169MOL0     C22738   6.055   0.175   2.716 -0.6147  0.0948  0.1808
  169MOL0     O22739   6.173   0.106   2.704 -0.3026 -0.6944  0.3939
  169MOL0     C22740   6.233   0.044   2.823  0.4107 -0.7904  0.8500
  169MOL0     C22741   6.337   0.133   2.888 -0.3777  0.5037 -0.0607
  169MOL0     C22742   6.440   0.052   2.979  0.5232 -0.5999  0.3207
  169MOL0     C22743   6.561  -0.010   2.893  1.0679 -0.1002  0.1184
  169MOL0     C22744   6.645   0.090   2.841  0.6493 -0.5530  0.0780
  169MOL0     C22745   6.713   0.165   2.774  0.1732 -0.2229  0.1630
  169MOL0     C22746   5.937   0.103   2.733 -0.3446 -0.1956  0.2852
  169MOL0     C22747   5.810   0.155   2.727  0.4111 -0.1710  0.3071
  169MOL0     H22748   5.435   0.463   2.865  1.5384  1.9028 -1.6380
  169MOL0     H22749   5.213   0.568   2.815 -0.0719  1.4210 -2.2143
  169MOL0     H22750   4.857   0.473   2.561  1.3181  1.2086 -2.0798
  169MOL0     H22751   4.961   0.347   2.495  0.3886  1.5533 -0.7046
  169MOL0     H22752   4.964   0.242   2.728  0.7511  1.5575  2.1474
  169MOL0     H22753   4.872   0.375   2.796 -1.9030  0.6984 -1.3694
  169MOL0     H22754   4.746   0.213   2.576  4.0235 -1.7700  0.3156
  169MOL0     H22755   4.763   0.154   2.742 -0.1525 -1.0887  0.1502
  169MOL0     H22756   4.633   0.381   2.804  0.2311 -0.2024  0.0872
  169MOL0     H22757   4.665   0.434   2.643 -1.7874  1.5047  2.0210
  169MOL0     H22758   4.507   0.249   2.562  2.6208 -0.2695 -0.2117
  169MOL0     H22759   4.474   0.201   2.734  0.3014  1.7436  1.7164
  169MOL0     H22760   4.387   0.440   2.759  2.0005 -0.9308  0.6845
  169MOL0     H22761   4.387   0.464   2.588 -3.0971 -0.6888 -0.9254
  169MOL0     H22762   4.240   0.280   2.562  1.1574 -2.3240  1.0524
  169MOL0     H22763   4.266   0.241   2.742 -3.5156 -0.8297  1.2093
  169MOL0     H22764   4.115   0.471   2.611  1.7791 -3.6669 -2.5408
  169MOL0     H22765   4.154   0.463   2.790 -1.9417  0.1283 -0.4149
  169MOL0     H22766   3.985   0.360   2.909 -0.8412 -1.3992  0.5378
  169MOL0     H22767   3.766   0.071   2.917 -2.1102 -0.1614  0.7824
  169MOL0     H22768   3.792   0.234   3.001 -1.2425  2.7493 -1.1703
  169MOL0     H22769   3.615   0.301   2.808  2.0955 -1.0851 -2.5783
  169MOL0     H22770   3.554   0.215   2.956  1.7607 -1.2178  1.0318
  169MOL0     H22771   3.571   0.002   2.826  0.4400  1.9865  3.7856
  169MOL0     H22772   3.635   0.076   2.687 -1.1947  0.6033 -0.8789
  169MOL0     H22773   3.404   0.046   2.649 -3.3241  3.1634 -2.4952
  169MOL0     H22774   3.419   0.214   2.665 -1.7585  0.8045  1.9135
  169MOL0     H22775   3.215  -0.025   2.626 -0.7608 -2.1308 -0.3005
  169MOL0     H22776   2.871  -0.076   2.529  1.3022  1.7127 -3.5098
  169MOL0     H22777   3.033  -0.082   2.480  0.1059 -2.2942 -0.8551
  169MOL0     H22778   2.981  -0.196   2.606  2.3358 -0.2772  0.6291
  169MOL0     H22779   2.565  -0.166   2.553 -0.4631 -0.2006 -0.1202
  169MOL0     H22780   2.333  -0.201   2.577  1.6281 -1.4666 -0.8560
  169MOL0     H22781   2.128  -0.085   2.667 -0.1171  0.1251  1.9006
  169MOL0     H22782   2.118  -0.254   2.627  0.3324 -1.2889  1.3214
  169MOL0     H22783   1.944  -0.155   2.855  0.0505  0.5063 -0.0725
  169MOL0     H22784   1.905  -0.117   2.686  1.0325 -0.9192 -0.2094
  169MOL0     H22785   1.969  -0.394   2.761  1.4599 -0.3372 -2.5665
  169MOL0     H22786   1.864  -0.338   2.625 -1.7654  2.4476  0.2360
  169MOL0     H22787   1.771  -0.287   2.904 -5.9264  2.2927 -0.6275
  169MOL0     H22788   1.678  -0.301   2.758  0.0740 -0.4117 -0.6397
  169MOL0     H22789   1.661  -0.505   2.912  0.2036 -2.6638 -0.3415
  169MOL0     H22790   1.826  -0.545   2.878 -2.4040 -2.9477  1.4272
  169MOL0     H22791   1.609  -0.505   2.661 -0.8011 -0.4827  0.1445
  169MOL0     H22792   1.777  -0.559   2.641  0.4358 -0.3846 -0.0665
  169MOL0     H22793   1.694  -0.767   2.785  0.4033 -0.6889 -0.5746
  169MOL0     H22794   1.629  -0.747   2.615 -1.5564  1.1035 -0.2038
  169MOL0     H22795   1.479  -0.663   2.865  2.1847 -0.2480  0.3877
  169MOL0     H22796   1.475  -0.820   2.799 -1.3916  0.4307  2.9737
  169MOL0     H22797   2.368  -0.191   3.012 -0.3909 -1.3633 -0.0958
  169MOL0     H22798   2.604  -0.115   2.983 -1.4566 -0.4111  1.4925
  169MOL0     H22799   2.900   0.193   2.935  1.5244  3.8902 -0.8683
  169MOL0     H22800   3.135   0.241   2.947  0.1429  2.9429 -3.9144
  169MOL0     H22801   5.174   0.305   2.473  0.0395  0.3259  0.5659
  169MOL0     H22802   5.411   0.214   2.536 -0.6557  0.9645 -0.3661
  169MOL0     H22803   5.901   0.478   2.701 -2.7257 -0.6792  0.7143
  169MOL0     H22804   6.140   0.362   2.699  3.0529 -5.1458 -0.4306
  169MOL0     H22805   6.159   0.027   2.901 -1.4009  0.1376 -0.5756
  169MOL0     H22806   6.276  -0.052   2.791  0.4048 -0.6890  0.5335
  169MOL0     H22807   6.298   0.212   2.953  0.7489  0.7705  0.3209
  169MOL0     H22808   6.405   0.180   2.817  1.0383 -1.2886  0.0458
  169MOL0     H22809   6.380  -0.025   3.027 -0.5459 -0.1004 -0.1961
  169MOL0     H22810   6.479   0.123   3.052 -1.9256  2.2469 -0.9242
  169MOL0     H22811   6.519  -0.067   2.810  1.0193  0.7146 -0.4248
  169MOL0     H22812   6.621  -0.078   2.953  0.5205 -0.3026  0.4475
  169MOL0     H22813   6.773   0.229   2.713 -0.5466  0.2540 -0.0681
  169MOL0     H22814   5.962  -0.003   2.740  0.7379 -0.0186 -0.5936
  169MOL0     H22815   5.722   0.094   2.745 -0.1630  0.2682 -0.8686
  170MOL0     O22816  10.773   3.703   4.549 -0.3318 -0.0583  0.5463
  170MOL0     C22817  10.805   3.741   4.662  0.3674  0.3507  0.5134
  170MOL0     O22818  10.722   3.722   4.778 -0.7006  0.2774 -0.0199
  170MOL0     C22819  10.601   3.664   4.758  0.7593  0.4009 -0.5042
  170MOL0     C22820  10.486   3.741   4.726 -0.4778 -0.2630  0.3557
  170MOL0     C22821  10.364   3.681   4.701 -0.0366 -0.1321 -0.5884
  170MOL0     C22822  10.363   3.541   4.718  0.5783  0.5641  1.0438
  170MOL0     O22823  10.240   3.494   4.702 -0.3748  0.3047 -0.3622
  170MOL0     C22824  10.203   3.371   4.771  0.5152  0.1878  0.2978
  170MOL0     C22825  10.054   3.376   4.799 -0.3293 -0.6978  0.2880
  170MOL0     C22826   9.974   3.365   4.665 -0.6292  1.5602 -0.4127
  170MOL0     C22827   9.840   3.304   4.682  0.0043 -0.5207  0.1508
  170MOL0     C22828   9.734   3.392   4.613  0.5934 -0.0779 -1.0359
  170MOL0     C22829   9.743   3.378   4.463  0.5249 -0.3521  0.3534
  170MOL0     C22830   9.636   3.453   4.393  0.5501  0.0315 -0.4262
  170MOL0     C22831   9.649   3.433   4.240 -0.1399 -0.0470  0.0357
  170MOL0     N22832   9.530   3.495   4.173 -0.1607  0.8747  0.4974
  170MOL0     C22833   9.488   3.461   4.050 -0.6365  0.7903  0.3541
  170MOL0     C22834   9.375   3.542   4.033  0.1065 -0.0568 -0.5856
  170MOL0     C22835   9.296   3.529   3.906  0.3066  0.7695 -0.2181
  170MOL0     C22836   9.140   3.557   3.935  0.6288 -0.7847 -0.7003
  170MOL0     C22837   9.066   3.444   4.002 -0.0414  0.1618  0.2808
  170MOL0     C22838   8.914   3.467   4.010  0.0772  0.0181  0.2313
  170MOL0     O22839   8.855   3.336   4.023  0.0874  0.5896  0.5991
  170MOL0     C22840   8.716   3.329   4.017  0.4800 -0.2172 -0.7933
  170MOL0     C22841   8.621   3.437   4.045  0.3328 -0.1263 -0.3014
  170MOL0     C22842   8.483   3.418   4.059 -0.2153  0.2467 -0.2107
  170MOL0     C22843   8.390   3.540   4.058 -0.0628 -0.0699 -0.3907
  170MOL0     C22844   8.440   3.288   4.052  1.2866  0.7828  0.0617
  170MOL0     C22845   8.295   3.249   4.062 -0.0839 -0.2786 -0.2244
  170MOL0     O22846   8.197   3.324   4.004 -0.2118 -0.0612 -0.8033
  170MOL0     C22847   8.066   3.307   4.043  0.5088  0.6106 -0.2570
  170MOL0     C22848   8.007   3.170   4.039 -0.3797  0.3268  0.2168
  170MOL0     C22849   7.867   3.155   4.047  0.2633 -0.4765 -0.6095
  170MOL0     C22850   7.777   3.266   4.044  0.6589  0.5358  0.0405
  170MOL0     O22851   7.642   3.240   4.056 -0.0548  0.6513 -0.3310
  170MOL0     C22852   7.566   3.343   4.124 -0.7758  0.5011  0.7516
  170MOL0     C22853   7.417   3.298   4.120  0.0728  0.3443  0.6087
  170MOL0     C22854   7.396   3.169   4.201 -0.4436 -0.6736 -0.4215
  170MOL0     C22855   7.256   3.116   4.166 -0.0836  0.1656 -0.3021
  170MOL0     C22856   7.211   2.988   4.225  0.4688 -0.5200 -0.3053
  170MOL0     C22857   7.183   2.981   4.374  0.3906 -0.5463  0.8135
  170MOL0     C22858   7.314   2.959   4.460 -0.1206  0.0623 -0.3401
  170MOL0     C22859   7.287   2.875   4.588 -0.8661  0.0224 -0.0646
  170MOL0    Cl22860   7.444   2.863   4.680 -0.2762 -0.5740 -0.3340
  170MOL0     C22861   7.839   3.394   4.045 -0.1144 -0.6461  0.0781
  170MOL0     C22862   7.974   3.407   4.041 -0.8348 -0.2663 -0.5238
  170MOL0     O22863   8.290   3.131   4.092  0.8057 -0.2278 -0.5162
  170MOL0     C22864   8.536   3.179   4.024 -0.3896  0.0736  0.3498
  170MOL0     C22865   8.673   3.200   4.013 -0.2783  0.0526 -0.6360
  170MOL0     N22866   9.353   3.623   4.145 -1.3238 -0.2335 -0.5029
  170MOL0     N22867   9.450   3.589   4.230  0.0591  0.0198 -0.0490
  170MOL0     C22868  10.484   3.468   4.732 -0.0733 -0.4302 -0.8714
  170MOL0     C22869  10.601   3.529   4.748 -0.9162 -0.4072  0.0572
  170MOL0     C22870  10.934   3.805   4.677 -0.3749 -0.1484 -0.4829
  170MOL0     C22871  10.987   3.822   4.813  0.1287  0.4307  0.6968
  170MOL0     C22872  11.102   3.894   4.824 -0.2551 -0.0863 -0.3423
  170MOL0     C22873  11.167   3.949   4.723 -0.0049 -0.4386  0.5361
  170MOL0     O22874  11.276   4.027   4.754 -1.1772  0.3065 -0.1145
  170MOL0     C22875  11.345   4.090   4.648 -0.3739  0.5200 -0.6327
  170MOL0     C22876  11.455   4.181   4.708  0.2599  0.1746 -0.3784
  170MOL0     C22877  11.579   4.094   4.750  0.0410 -0.0519 -0.1266
  170MOL0     C22878  11.689   4.183   4.801 -0.2688 -0.1992  0.3300
  170MOL0     C22879  11.824   4.127   4.810  0.7099 -0.8102 -0.0453
  170MOL0     C22880  11.926   4.063   4.818 -0.5555  0.1634 -0.4264
  170MOL0     C22881  11.125   3.915   4.591 -0.1944 -0.3715 -0.5938
  170MOL0     C22882  11.004   3.849   4.568 -0.8615  0.0246  0.4848
  170MOL0     H22883  10.489   3.849   4.722  1.5058 -0.2700  0.6672
  170MOL0     H22884  10.280   3.743   4.673  0.4821 -0.2099 -2.4170
  170MOL0     H22885  10.233   3.284   4.712  0.4518 -0.5591  1.3436
  170MOL0     H22886  10.248   3.365   4.871 -0.4864 -1.7133  0.6694
  170MOL0     H22887  10.037   3.283   4.854  4.1549 -0.8633  1.7518
  170MOL0     H22888  10.014   3.457   4.861  1.1973 -1.1957  2.0006
  170MOL0     H22889   9.974   3.466   4.623 -1.9028  1.2191 -1.3040
  170MOL0     H22890  10.030   3.301   4.597  0.6689  2.6141 -0.3733
  170MOL0     H22891   9.861   3.203   4.646  0.5912 -0.2858 -0.1938
  170MOL0     H22892   9.809   3.300   4.787  2.0049 -0.2066  0.8134
  170MOL0     H22893   9.639   3.367   4.661  1.7900  1.2007  2.2946
  170MOL0     H22894   9.759   3.494   4.642 -1.6297  0.5082 -1.0746
  170MOL0     H22895   9.839   3.415   4.427  0.3224  0.8067  0.9619
  170MOL0     H22896   9.730   3.272   4.439  1.7547 -0.4997  0.2666
  170MOL0     H22897   9.535   3.420   4.416  0.3755  0.9813  0.2520
  170MOL0     H22898   9.638   3.560   4.416 -2.4337  0.1600 -0.3838
  170MOL0     H22899   9.657   3.330   4.207  0.1257  0.7975 -2.7433
  170MOL0     H22900   9.745   3.479   4.217 -0.0514  0.7727  1.8428
  170MOL0     H22901   9.530   3.392   3.977 -2.3359  0.1432 -0.0581
  170MOL0     H22902   9.340   3.597   3.832 -0.4475  0.0722 -1.3366
  170MOL0     H22903   9.309   3.426   3.870 -0.6818  0.1776  1.0487
  170MOL0     H22904   9.095   3.583   3.839  1.5961 -3.2009 -1.8621
  170MOL0     H22905   9.128   3.635   4.012  0.4520 -2.5721  1.1635
  170MOL0     H22906   9.100   3.421   4.104  0.0865 -3.7680 -0.4888
  170MOL0     H22907   9.090   3.349   3.954 -2.1707  0.9099 -2.5260
  170MOL0     H22908   8.879   3.523   3.923  0.5078  1.0489  0.7129
  170MOL0     H22909   8.897   3.533   4.095 -0.2850  0.4041 -0.1381
  170MOL0     H22910   8.655   3.539   4.058  0.2305 -0.1713  0.3521
  170MOL0     H22911   8.445   3.634   4.053  1.6123 -0.9700  0.2859
  170MOL0     H22912   8.335   3.543   3.964  1.4604 -0.8022 -1.3559
  170MOL0     H22913   8.317   3.560   4.137 -0.6758  2.1706 -1.4495
  170MOL0     H22914   8.071   3.085   4.020  1.0836  1.4520 -0.0557
  170MOL0     H22915   7.814   3.060   4.053  1.1350 -1.0666 -1.9105
  170MOL0     H22916   7.599   3.350   4.228 -0.0550 -1.3978  0.6896
  170MOL0     H22917   7.589   3.434   4.067  0.4483  1.5289  2.7393
  170MOL0     H22918   7.357   3.383   4.155 -0.1356  1.7094 -2.6519
  170MOL0     H22919   7.387   3.283   4.016 -1.1400 -1.8324  1.2239
  170MOL0     H22920   7.397   3.183   4.309  0.0318 -0.1490 -0.4904
  170MOL0     H22921   7.485   3.108   4.182 -0.1745  0.0657 -1.6223
  170MOL0     H22922   7.178   3.190   4.185 -2.1858 -1.8505 -0.5622
  170MOL0     H22923   7.259   3.097   4.058  1.5821 -3.9263  0.2821
  170MOL0     H22924   7.276   2.904   4.198 -2.1865 -2.2508 -1.7897
  170MOL0     H22925   7.116   2.960   4.180  0.5184  0.3627 -0.9865
  170MOL0     H22926   7.123   3.057   4.424  1.4608 -0.0081  1.3288
  170MOL0     H22927   7.127   2.889   4.396  1.1914 -1.6994 -1.6474
  170MOL0     H22928   7.350   3.056   4.498  0.1252  0.6989 -2.1127
  170MOL0     H22929   7.391   2.910   4.401 -2.3972 -2.2663 -1.5383
  170MOL0     H22930   7.257   2.772   4.567  1.8773 -1.6067  3.0976
  170MOL0     H22931   7.203   2.919   4.642 -0.5314  1.9966 -1.0583
  170MOL0     H22932   7.779   3.484   4.056 -0.6034 -1.0185  0.5647
  170MOL0     H22933   8.006   3.511   4.038 -1.8367  0.0511 -0.6640
  170MOL0     H22934   8.508   3.074   4.027  1.7219 -0.4959  1.5891
  170MOL0     H22935   8.749   3.124   3.999 -1.3119 -1.1086 -0.0621
  170MOL0     H22936  10.476   3.360   4.732 -1.7821 -0.3309 -0.0791
  170MOL0     H22937  10.692   3.474   4.769 -1.2349 -0.4362  1.4178
  170MOL0     H22938  10.949   3.771   4.901 -2.8575 -1.9252 -1.7194
  170MOL0     H22939  11.137   3.912   4.925 -0.5430 -0.5271 -0.1625
  170MOL0     H22940  11.388   4.013   4.584 -1.3361  0.8563 -1.7243
  170MOL0     H22941  11.282   4.153   4.584 -0.5345 -0.7938 -1.8147
  170MOL0     H22942  11.413   4.231   4.795  2.4919  3.1985 -0.8887
  170MOL0     H22943  11.475   4.251   4.626  1.5637 -1.0028 -1.1227
  170MOL0     H22944  11.622   4.045   4.663 -2.7722 -1.2720 -0.9373
  170MOL0     H22945  11.564   4.014   4.824 -0.2086 -0.1274 -0.2560
  170MOL0     H22946  11.650   4.213   4.899 -1.4446 -0.1622 -0.1380
  170MOL0     H22947  11.697   4.273   4.741  1.3651 -1.5392 -1.5983
  170MOL0     H22948  12.004   3.989   4.821 -1.1987 -0.5147  0.2166
  170MOL0     H22949  11.178   3.944   4.501  1.0785 -2.2242 -0.5041
  170MOL0     H22950  10.977   3.836   4.464  1.4834 -3.3428  0.1579
  171MOL0     O22951   2.872   9.256   8.855 -0.8944 -0.2308 -0.2272
  171MOL0     C22952   2.888   9.229   8.736  0.1335 -0.0920 -0.0565
  171MOL0     O22953   2.782   9.212   8.648 -0.4112 -0.2769  0.4038
  171MOL0     C22954   2.660   9.253   8.678  1.2805 -0.6289 -0.3915
  171MOL0     C22955   2.553   9.162   8.636 -0.6643 -0.0847 -0.1890
  171MOL0     C22956   2.414   9.195   8.655 -0.3708 -0.5383 -1.1079
  171MOL0     C22957   2.392   9.331   8.698  0.3681 -0.5210  0.4496
  171MOL0     O22958   2.263   9.374   8.708  0.6765  0.4484 -0.8670
  171MOL0     C22959   2.241   9.441   8.832  0.3084 -0.2096 -0.6485
  171MOL0     C22960   2.091   9.456   8.856  0.3348 -0.7877 -0.5451
  171MOL0     C22961   2.012   9.500   8.729  0.2548 -0.2788  0.4326
  171MOL0     C22962   2.057   9.639   8.670 -0.4504  0.1633 -0.0335
  171MOL0     C22963   1.991   9.668   8.536 -0.5540  0.6501  0.3670
  171MOL0     C22964   2.015   9.551   8.440  0.4789  0.2330  1.0554
  171MOL0     C22965   1.981   9.580   8.296 -0.1567 -0.9519  0.0693
  171MOL0     C22966   1.832   9.597   8.262  0.0373  0.6862  1.0432
  171MOL0     N22967   1.815   9.560   8.116 -0.0750  0.7587  0.0159
  171MOL0     C22968   1.752   9.649   8.034  0.6588 -0.2634  0.3792
  171MOL0     C22969   1.734   9.581   7.912  0.8734  0.5754  0.8323
  171MOL0     C22970   1.671   9.635   7.792  0.0548  0.2345  0.3070
  171MOL0     C22971   1.526   9.652   7.824  1.0353  0.8284  0.2835
  171MOL0     C22972   1.448   9.519   7.817  0.7559 -0.0850  0.1062
  171MOL0     C22973   1.298   9.544   7.824 -1.2695  0.3199 -0.2021
  171MOL0     O22974   1.231   9.424   7.847 -0.2672 -0.3370 -0.0002
  171MOL0     C22975   1.093   9.438   7.850 -0.5863  1.6498  0.5911
  171MOL0     C22976   1.023   9.555   7.831 -0.0076  0.6729 -0.5372
  171MOL0     C22977   0.884   9.551   7.841 -0.1702 -0.5847  1.0003
  171MOL0     C22978   0.808   9.674   7.818  0.1193  0.5361  0.2768
  171MOL0     C22979   0.811   9.435   7.880  0.0724  0.8250  0.0923
  171MOL0     C22980   0.656   9.420   7.901  0.1564  0.0895  0.0070
  171MOL0     O22981   0.599   9.297   7.901  0.1128  0.4052 -0.3975
  171MOL0     C22982   0.464   9.291   7.907  0.7171 -0.3907  0.2990
  171MOL0     C22983   0.396   9.302   7.791  0.0349  0.2477 -0.8064
  171MOL0     C22984   0.260   9.313   7.792 -0.4615 -0.1927 -0.0575
  171MOL0     C22985   0.192   9.301   7.913 -0.1336 -0.1960 -0.0162
  171MOL0     O22986   0.054   9.320   7.927 -0.5323  0.0589  0.2048
  171MOL0     C22987  -0.017   9.411   7.844 -0.4255  0.4546 -0.0170
  171MOL0     C22988  -0.144   9.339   7.790 -1.0165  0.5696  0.1381
  171MOL0     C22989  -0.272   9.419   7.823 -0.1744  0.7335  0.7095
  171MOL0     C22990  -0.394   9.357   7.755 -0.6128 -0.7442 -0.6002
  171MOL0     C22991  -0.526   9.436   7.767  1.1285  0.8707  0.2612
  171MOL0     C22992  -0.648   9.378   7.691  0.2731 -0.8792 -0.4920
  171MOL0     C22993  -0.772   9.460   7.734  0.2169 -0.2648  0.0544
  171MOL0     C22994  -0.896   9.422   7.647  0.1964 -0.3136 -0.1006
  171MOL0    Cl22995  -1.039   9.467   7.734  0.5716 -0.3559 -0.3704
  171MOL0     C22996   0.265   9.276   8.032 -0.1835  0.2238 -0.2174
  171MOL0     C22997   0.398   9.269   8.027  0.2216  0.1856 -0.4827
  171MOL0     O22998   0.594   9.526   7.926 -0.5758 -0.0530  0.0347
  171MOL0     C22999   0.891   9.322   7.884  0.3584  0.8583  0.7586
  171MOL0     C23000   1.031   9.314   7.871 -0.0175 -0.1913 -0.3567
  171MOL0     N23001   1.775   9.449   7.940 -0.4325  0.0730 -0.1697
  171MOL0     N23002   1.820   9.435   8.066  0.3586  0.1329 -0.7101
  171MOL0     C23003   2.493   9.425   8.713 -0.6524  1.2709  0.0926
  171MOL0     C23004   2.625   9.386   8.708  0.0998  0.3437 -0.2169
  171MOL0     C23005   3.037   9.187   8.702  1.6630 -0.0794  0.1638
  171MOL0     C23006   3.061   9.114   8.589  0.2347 -0.0416  0.3751
  171MOL0     C23007   3.188   9.056   8.563 -0.0192 -0.2067  0.7113
  171MOL0     C23008   3.301   9.091   8.637 -0.5290  0.4162  0.1448
  171MOL0     O23009   3.421   9.032   8.602  0.6076  0.6505 -1.1799
  171MOL0     C23010   3.543   9.065   8.683 -0.2178  0.7524 -0.1553
  171MOL0     C23011   3.590   9.194   8.624  0.8343  0.3240 -1.0077
  171MOL0     C23012   3.726   9.229   8.664  0.7185 -0.6266  0.0369
  171MOL0     C23013   3.840   9.183   8.571 -0.1989  0.1833  0.8785
  171MOL0     C23014   3.974   9.208   8.632  0.7291 -0.7789  0.5549
  171MOL0     C23015   4.077   9.243   8.675  0.3275  0.1107  0.2083
  171MOL0     C23016   3.279   9.184   8.747  0.0632  0.6578 -0.2530
  171MOL0     C23017   3.144   9.221   8.776 -0.5011 -1.1137 -0.6479
  171MOL0     H23018   2.592   9.069   8.598 -1.2341 -1.1329  1.6333
  171MOL0     H23019   2.331   9.130   8.629 -1.8873  0.7861  0.1401
  171MOL0     H23020   2.296   9.405   8.920 -0.4829  2.4498  1.0557
  171MOL0     H23021   2.268   9.547   8.823  0.0163 -0.1298 -0.6065
  171MOL0     H23022   2.045   9.374   8.911 -0.6136  2.4100  3.9945
  171MOL0     H23023   2.068   9.546   8.914 -1.3268 -1.6644  0.1944
  171MOL0     H23024   2.021   9.418   8.658 -4.1313  0.1118 -0.9294
  171MOL0     H23025   1.904   9.502   8.746 -0.0663  0.6519 -1.3717
  171MOL0     H23026   2.035   9.724   8.736 -0.6088 -1.0862  1.5908
  171MOL0     H23027   2.164   9.642   8.646 -0.2656 -0.1891  0.7161
  171MOL0     H23028   1.883   9.684   8.540 -0.5848  0.7784 -0.7346
  171MOL0     H23029   2.036   9.759   8.496  4.9707 -1.3989  1.0014
  171MOL0     H23030   2.122   9.528   8.446  1.1494  3.0785  1.4166
  171MOL0     H23031   1.952   9.466   8.467 -1.1013  0.9269 -0.2425
  171MOL0     H23032   2.039   9.667   8.265 -2.7113  2.4899  3.9558
  171MOL0     H23033   2.015   9.493   8.239  1.8584  0.8320 -1.6231
  171MOL0     H23034   1.802   9.702   8.268 -1.6776  0.6419 -3.0977
  171MOL0     H23035   1.778   9.531   8.330  0.2866 -0.2020  0.3894
  171MOL0     H23036   1.718   9.751   8.049 -3.6393 -1.7805  2.7404
  171MOL0     H23037   1.718   9.731   7.770 -0.4335 -0.1583 -2.8696
  171MOL0     H23038   1.680   9.581   7.697  3.5623  2.4999 -0.8059
  171MOL0     H23039   1.488   9.719   7.746 -1.1024  0.5151  1.0172
  171MOL0     H23040   1.501   9.708   7.914 -1.7418  0.8941 -0.4483
  171MOL0     H23041   1.475   9.459   7.905  0.2551 -0.8944 -0.2844
  171MOL0     H23042   1.464   9.461   7.726  0.6041 -0.6259  0.4196
  171MOL0     H23043   1.260   9.588   7.731  1.3733 -0.7984 -1.8964
  171MOL0     H23044   1.278   9.628   7.892 -1.3723 -0.9026  1.3381
  171MOL0     H23045   1.053   9.659   7.818  1.6638  0.1736 -0.8395
  171MOL0     H23046   0.795   9.727   7.913 -1.0344 -1.7887  1.5182
  171MOL0     H23047   0.845   9.745   7.743 -3.0261  1.8505 -0.2178
  171MOL0     H23048   0.712   9.645   7.773 -2.8585  5.7058  2.2860
  171MOL0     H23049   0.440   9.310   7.692 -0.1477  3.3891 -0.7452
  171MOL0     H23050   0.202   9.329   7.702  0.2520 -2.2622 -0.9368
  171MOL0     H23051  -0.044   9.494   7.909  2.6028  1.2788  0.3341
  171MOL0     H23052   0.045   9.453   7.764 -0.2965  2.9151  1.3056
  171MOL0     H23053  -0.127   9.311   7.686  1.0761 -2.4246  1.1341
  171MOL0     H23054  -0.151   9.236   7.828  0.8738 -0.8811 -3.0542
  171MOL0     H23055  -0.265   9.523   7.789 -1.5607  0.2180 -1.3316
  171MOL0     H23056  -0.303   9.419   7.928 -1.7874  0.3138  0.2534
  171MOL0     H23057  -0.374   9.347   7.648  1.9629 -1.3898 -0.1451
  171MOL0     H23058  -0.405   9.254   7.790 -0.9520 -0.5733 -0.2016
  171MOL0     H23059  -0.517   9.540   7.736 -4.6121  1.7656  0.4858
  171MOL0     H23060  -0.546   9.444   7.874  1.8838  1.7073  0.3497
  171MOL0     H23061  -0.624   9.393   7.585 -0.0079  1.8506 -0.2417
  171MOL0     H23062  -0.657   9.271   7.710  0.4835 -0.5486  1.7809
  171MOL0     H23063  -0.754   9.565   7.711  0.5242 -0.5928 -1.3148
  171MOL0     H23064  -0.796   9.443   7.839  2.0042  1.6216  0.8436
  171MOL0     H23065  -0.893   9.314   7.631  0.0693 -0.0653 -2.0771
  171MOL0     H23066  -0.889   9.481   7.555 -0.6714 -0.6581 -0.4018
  171MOL0     H23067   0.213   9.266   8.126  0.4824 -1.7440 -0.0123
  171MOL0     H23068   0.453   9.248   8.118 -0.8095  0.8285  0.3081
  171MOL0     H23069   0.834   9.233   7.905  0.3596  0.0720 -2.0836
  171MOL0     H23070   1.088   9.222   7.885 -1.5691 -1.1383  0.0892
  171MOL0     H23071   2.460   9.526   8.737  0.9887  2.0549 -0.7917
  171MOL0     H23072   2.709   9.451   8.730  0.4055  1.2833 -3.5765
  171MOL0     H23073   2.973   9.098   8.527  2.9109 -0.7552 -3.6712
  171MOL0     H23074   3.206   8.978   8.490  2.5035 -1.2710  2.3034
  171MOL0     H23075   3.527   9.082   8.790 -1.9081  3.0981 -0.6798
  171MOL0     H23076   3.618   8.986   8.678 -2.7272 -1.9730  1.8605
  171MOL0     H23077   3.510   9.266   8.644 -1.4306 -2.1090 -0.7080
  171MOL0     H23078   3.591   9.188   8.515 -0.2379 -1.1628 -0.9803
  171MOL0     H23079   3.737   9.206   8.770 -1.1187  1.6276  0.8093
  171MOL0     H23080   3.739   9.337   8.649 -0.7084 -0.3320  0.7251
  171MOL0     H23081   3.825   9.232   8.474  0.3770 -0.4954  0.4392
  171MOL0     H23082   3.835   9.074   8.561 -0.3742 -0.0146  2.8352
  171MOL0     H23083   4.154   9.295   8.728 -1.7565 -0.0978  3.7610
  171MOL0     H23084   3.359   9.207   8.817 -1.0007  1.3033  0.8031
  171MOL0     H23085   3.126   9.278   8.867  1.1008 -0.5934 -0.6186
  172MOL0     O23086   9.635   4.028   7.669 -0.6327  0.2424  0.2834
  172MOL0     C23087   9.605   3.976   7.777  0.3194 -0.0184 -0.2605
  172MOL0     O23088   9.475   3.975   7.822 -0.2379  0.4970  0.0986
  172MOL0     C23089   9.379   4.010   7.733  0.1304  0.0452 -0.7494
  172MOL0     C23090   9.326   4.140   7.740  0.6942 -0.0667 -0.1780
  172MOL0     C23091   9.220   4.175   7.660 -0.4740  0.0367  0.4515
  172MOL0     C23092   9.176   4.076   7.557  0.3767  0.1823 -0.0370
  172MOL0     O23093   9.059   4.075   7.478 -0.4812  0.0752 -0.0598
  172MOL0     C23094   8.992   4.204   7.480  0.0320  0.2062 -0.7380
  172MOL0     C23095   8.906   4.191   7.358 -0.3779  0.3005 -0.1351
  172MOL0     C23096   8.790   4.291   7.367 -0.6646  0.3115  0.6858
  172MOL0     C23097   8.735   4.312   7.232  0.3620  1.1232 -0.2233
  172MOL0     C23098   8.605   4.397   7.208  0.9714 -0.0354 -0.0066
  172MOL0     C23099   8.581   4.417   7.059 -0.4588 -0.8338 -0.4366
  172MOL0     C23100   8.467   4.522   7.050 -0.1545 -0.0520  0.0182
  172MOL0     C23101   8.409   4.508   6.909  0.3359 -0.8036 -0.4232
  172MOL0     N23102   8.309   4.406   6.906 -0.2488 -0.1429 -0.2568
  172MOL0     C23103   8.216   4.375   7.005  0.4777 -0.0321 -0.1575
  172MOL0     C23104   8.130   4.290   6.935  0.3309  0.6860  0.0024
  172MOL0     C23105   8.000   4.245   6.982  0.6545 -0.3336 -0.3900
  172MOL0     C23106   8.002   4.157   7.108 -0.3805  0.7250 -0.4313
  172MOL0     C23107   8.095   4.025   7.090 -0.0386 -0.5342  0.5096
  172MOL0     C23108   8.048   3.911   7.174  0.5565 -0.2248  0.2106
  172MOL0     O23109   8.044   3.960   7.310 -0.0771 -0.7279  0.1777
  172MOL0     C23110   7.924   3.933   7.390 -1.0514 -0.2614  0.4132
  172MOL0     C23111   7.810   4.016   7.372 -0.4593  0.4922 -0.4665
  172MOL0     C23112   7.700   4.000   7.449  0.1317  0.9167  0.2213
  172MOL0     C23113   7.581   4.084   7.415  0.0867 -0.1697 -0.7088
  172MOL0     C23114   7.702   3.909   7.558  0.9907  0.2067 -0.7221
  172MOL0     C23115   7.579   3.882   7.637  0.1402 -0.7836  0.6104
  172MOL0     O23116   7.527   3.764   7.601 -0.1831 -0.3038  0.0675
  172MOL0     C23117   7.419   3.728   7.669  0.4475  0.7685 -0.2131
  172MOL0     C23118   7.439   3.637   7.775  0.2679 -0.2932  0.1224
  172MOL0     C23119   7.327   3.571   7.831 -0.3505  0.2451  0.5711
  172MOL0     C23120   7.190   3.603   7.790 -0.8073 -0.3945 -0.2849
  172MOL0     O23121   7.093   3.554   7.856  0.2467  0.2823 -0.1328
  172MOL0     C23122   7.108   3.538   8.001  0.5788 -0.9697 -0.6462
  172MOL0     C23123   6.974   3.593   8.069  0.3081  0.5406  0.6644
  172MOL0     C23124   6.847   3.584   7.983  0.2128 -0.4940 -1.5182
  172MOL0     C23125   6.741   3.643   8.078  1.0679 -0.6920  0.2169
  172MOL0     C23126   6.593   3.614   8.029  0.0591  0.4856 -0.0478
  172MOL0     C23127   6.503   3.741   8.041 -0.3309  1.3350 -0.4685
  172MOL0     C23128   6.360   3.722   8.010  0.1864 -0.1025  0.2307
  172MOL0     C23129   6.289   3.853   8.046 -0.3186 -0.2182 -0.1700
  172MOL0    Cl23130   6.267   3.887   8.222 -0.3210 -0.4253 -0.7416
  172MOL0     C23131   7.176   3.694   7.677 -0.4520 -0.6430  0.9170
  172MOL0     C23132   7.288   3.752   7.613  0.6554 -0.2993 -0.1246
  172MOL0     O23133   7.519   3.966   7.708  0.0695  0.2152 -0.7906
  172MOL0     C23134   7.816   3.823   7.578  0.6841  0.0799  0.3563
  172MOL0     C23135   7.927   3.843   7.489  0.8379 -0.5083 -0.1245
  172MOL0     N23136   8.186   4.270   6.812  0.0145  0.0031 -0.2956
  172MOL0     N23137   8.299   4.327   6.796  0.4103 -0.1883  0.0173
  172MOL0     C23138   9.238   3.956   7.547 -0.5629 -1.4994  0.4013
  172MOL0     C23139   9.342   3.927   7.629  0.1967 -0.0921 -0.4352
  172MOL0     C23140   9.704   3.948   7.876  0.3716 -0.1036  0.0970
  172MOL0     C23141   9.836   3.939   7.844 -0.8805  0.3256  0.4870
  172MOL0     C23142   9.938   3.884   7.925  0.7419  0.0651 -0.1992
  172MOL0     C23143   9.902   3.842   8.053  0.4554 -0.4445 -0.0494
  172MOL0     O23144  10.000   3.793   8.131  0.1116 -0.1328 -0.4532
  172MOL0     C23145   9.970   3.694   8.234 -0.5936 -0.0023  0.0763
  172MOL0     C23146  10.088   3.619   8.301 -0.0168 -0.0209 -0.0713
  172MOL0     C23147  10.188   3.713   8.377 -1.0774  0.2264 -0.3585
  172MOL0     C23148  10.320   3.643   8.423 -0.3327 -0.0213  1.1635
  172MOL0     C23149  10.426   3.740   8.467 -0.5836  0.8492  0.8694
  172MOL0     C23150  10.506   3.811   8.520 -1.2667 -0.0264 -0.8368
  172MOL0     C23151   9.769   3.860   8.098 -0.4894  1.0203 -0.5317
  172MOL0     C23152   9.674   3.911   8.013  0.2530  0.6051 -0.3605
  172MOL0     H23153   9.381   4.205   7.807 -1.4956  2.3178 -0.5553
  172MOL0     H23154   9.162   4.265   7.644 -2.2745 -1.5670 -3.2699
  172MOL0     H23155   8.945   4.207   7.579  1.7333  1.0306  0.1007
  172MOL0     H23156   9.048   4.297   7.465  1.0345 -0.0534  1.0649
  172MOL0     H23157   8.974   4.202   7.274  1.2716 -2.1271  0.7832
  172MOL0     H23158   8.870   4.088   7.347  0.4414  0.0832 -0.8289
  172MOL0     H23159   8.712   4.260   7.437  2.1004  1.6469  4.7335
  172MOL0     H23160   8.831   4.384   7.407 -0.6915  0.3995  0.5108
  172MOL0     H23161   8.813   4.369   7.180  6.4400 -3.8693  2.1391
  172MOL0     H23162   8.727   4.215   7.184 -0.7389  1.1863 -0.1940
  172MOL0     H23163   8.524   4.354   7.267  0.0583  0.3318 -0.9552
  172MOL0     H23164   8.621   4.498   7.249  0.5087  1.1804 -2.6239
  172MOL0     H23165   8.661   4.466   7.002 -1.3558  0.5575 -0.5461
  172MOL0     H23166   8.566   4.320   7.012 -1.3151 -1.4547  1.0341
  172MOL0     H23167   8.400   4.527   7.137  0.0890  1.3455  0.1432
  172MOL0     H23168   8.519   4.618   7.053  0.4359 -0.3405  3.5215
  172MOL0     H23169   8.495   4.484   6.845  0.0551  1.2202 -1.6456
  172MOL0     H23170   8.375   4.608   6.879  2.4200  0.4201  1.0302
  172MOL0     H23171   8.206   4.420   7.103 -0.9650 -1.4022  0.3703
  172MOL0     H23172   7.946   4.339   7.001  2.0847  0.5918 -0.7881
  172MOL0     H23173   7.949   4.188   6.904  1.4035 -0.3799 -0.8563
  172MOL0     H23174   7.898   4.124   7.111 -0.5846  1.2654 -1.3087
  172MOL0     H23175   8.038   4.216   7.193  2.1500 -0.9022 -0.2502
  172MOL0     H23176   8.198   4.053   7.117  0.9619 -1.8020 -1.7699
  172MOL0     H23177   8.099   3.986   6.988  1.8098 -1.1957  0.7957
  172MOL0     H23178   8.108   3.819   7.168  1.8579  0.6298 -0.4929
  172MOL0     H23179   7.947   3.885   7.142  1.1411  1.0131 -3.1523
  172MOL0     H23180   7.796   4.084   7.288 -2.0377 -2.4128 -2.7885
  172MOL0     H23181   7.595   4.128   7.316 -0.1055  1.1043 -0.1807
  172MOL0     H23182   7.488   4.026   7.417 -1.9643  2.9313 -0.6606
  172MOL0     H23183   7.569   4.172   7.479  1.2410 -0.9245  0.5988
  172MOL0     H23184   7.542   3.636   7.810  0.3742  0.1482 -0.1681
  172MOL0     H23185   7.348   3.498   7.909  0.2291 -0.0023  0.1858
  172MOL0     H23186   7.119   3.433   8.030 -2.4633 -0.4748  3.1583
  172MOL0     H23187   7.189   3.592   8.049  0.8404 -0.9291 -1.1319
  172MOL0     H23188   6.957   3.548   8.168 -2.9358 -1.6817 -0.7141
  172MOL0     H23189   6.990   3.700   8.079  0.0981  0.5459  0.9661
  172MOL0     H23190   6.823   3.480   7.960 -2.7214  0.1817 -1.8847
  172MOL0     H23191   6.861   3.649   7.896 -2.0814 -0.0570 -1.6034
  172MOL0     H23192   6.761   3.602   8.178 -0.2457 -0.4926  0.5823
  172MOL0     H23193   6.754   3.752   8.081 -0.6648 -0.4582  0.2659
  172MOL0     H23194   6.558   3.525   8.082 -0.8609  0.2556 -1.0263
  172MOL0     H23195   6.597   3.587   7.923  1.5805  0.3729  0.0073
  172MOL0     H23196   6.517   3.765   8.147  0.9120 -0.4735 -0.1597
  172MOL0     H23197   6.537   3.825   7.981 -1.9044  2.7772  0.5827
  172MOL0     H23198   6.318   3.643   8.073  2.1129  0.8319  2.8463
  172MOL0     H23199   6.362   3.710   7.901 -0.5533  1.9868 -0.0536
  172MOL0     H23200   6.189   3.862   8.003 -0.5898  0.0941  0.5196
  172MOL0     H23201   6.345   3.935   7.999  0.9592 -1.9246 -1.7591
  172MOL0     H23202   7.076   3.726   7.651 -0.9573 -2.0252  1.0475
  172MOL0     H23203   7.274   3.813   7.524 -0.5548 -0.1350  0.1717
  172MOL0     H23204   7.810   3.746   7.654  2.7347 -1.8543 -1.2913
  172MOL0     H23205   8.021   3.792   7.508 -0.9876 -3.6500  1.2136
  172MOL0     H23206   9.199   3.887   7.473 -1.7749  1.8009 -2.2958
  172MOL0     H23207   9.398   3.834   7.632  1.7541  0.7673  3.3643
  172MOL0     H23208   9.869   3.952   7.741  0.4083 -0.7341  0.7450
  172MOL0     H23209  10.042   3.891   7.895  1.3121  0.3952  1.6776
  172MOL0     H23210   9.929   3.749   8.319 -1.8312 -0.9909  0.1507
  172MOL0     H23211   9.895   3.620   8.205 -0.7006  0.6221 -1.3728
  172MOL0     H23212  10.134   3.565   8.218 -0.6897 -4.3536  2.0773
  172MOL0     H23213  10.053   3.547   8.376  0.7609 -0.8727 -0.5196
  172MOL0     H23214  10.142   3.742   8.472  1.3621  1.0717  0.6254
  172MOL0     H23215  10.212   3.803   8.320  0.6494 -0.0476 -0.1035
  172MOL0     H23216  10.365   3.587   8.339  0.4006  1.0982  0.7918
  172MOL0     H23217  10.293   3.571   8.500 -0.4368 -2.8290 -1.2911
  172MOL0     H23218  10.573   3.881   8.566  0.2687 -1.2329 -1.1349
  172MOL0     H23219   9.738   3.838   8.200 -1.5810 -0.1841 -1.0883
  172MOL0     H23220   9.571   3.920   8.048 -0.2169 -2.8267 -0.4407
  173MOL0     O23221   2.769   7.686   2.275 -0.7584  0.0955  0.3694
  173MOL0     C23222   2.804   7.571   2.283  0.0275  0.4595  0.2321
  173MOL0     O23223   2.724   7.462   2.310  0.5018  0.3115  0.1941
  173MOL0     C23224   2.593   7.485   2.323 -1.3424 -0.2751 -0.5209
  173MOL0     C23225   2.539   7.450   2.452 -0.2451 -0.0039  1.0503
  173MOL0     C23226   2.404   7.473   2.479  0.6093  0.0542 -0.5022
  173MOL0     C23227   2.324   7.533   2.377 -0.2861 -0.0664  0.4757
  173MOL0     O23228   2.195   7.574   2.388  0.7025  0.0646  0.3296
  173MOL0     C23229   2.130   7.526   2.512 -0.0356 -0.6193 -0.5915
  173MOL0     C23230   1.981   7.573   2.524  0.5456 -1.2320  0.5958
  173MOL0     C23231   1.881   7.472   2.455 -0.7411 -0.0130  0.0430
  173MOL0     C23232   1.735   7.514   2.470 -0.6323 -0.1290 -0.3481
  173MOL0     C23233   1.651   7.393   2.464  0.2418  0.4196 -0.1666
  173MOL0     C23234   1.501   7.433   2.491  0.1855  0.5820 -0.7625
  173MOL0     C23235   1.437   7.488   2.364 -0.3439  0.1486 -0.0372
  173MOL0     C23236   1.288   7.514   2.391 -0.0103 -0.6766  0.3533
  173MOL0     N23237   1.195   7.530   2.275  1.0868  0.4013  0.6671
  173MOL0     C23238   1.121   7.419   2.231 -0.1763 -0.0507  0.8277
  173MOL0     C23239   1.011   7.472   2.168 -0.0708  0.5648  0.5223
  173MOL0     C23240   0.910   7.404   2.075  0.1107 -0.8529  0.1311
  173MOL0     C23241   0.766   7.447   2.113 -0.0846 -0.2041  0.4582
  173MOL0     C23242   0.702   7.359   2.221  0.0952  0.8007  1.0243
  173MOL0     C23243   0.553   7.366   2.216 -0.6237 -0.7272  0.8009
  173MOL0     O23244   0.509   7.505   2.210  0.2449 -0.5129  0.3270
  173MOL0     C23245   0.377   7.543   2.218  1.1181  0.3974 -0.6740
  173MOL0     C23246   0.361   7.682   2.205 -0.1301 -0.2757  0.1214
  173MOL0     C23247   0.240   7.751   2.214  0.0673 -0.5756  0.1175
  173MOL0     C23248   0.242   7.902   2.200  0.5652  0.3900 -0.3107
  173MOL0     C23249   0.125   7.678   2.233  1.1399 -0.2431  1.5268
  173MOL0     C23250  -0.013   7.730   2.223 -0.7122  1.0723  0.0882
  173MOL0     O23251  -0.100   7.652   2.295 -0.2924  0.1179 -0.0588
  173MOL0     C23252  -0.237   7.671   2.288  0.3526  0.2304  0.3941
  173MOL0     C23253  -0.305   7.784   2.228 -0.8376  0.7371  0.0188
  173MOL0     C23254  -0.438   7.807   2.254  0.4715 -0.7827  0.3138
  173MOL0     C23255  -0.522   7.711   2.323 -0.1330 -0.3656  0.3866
  173MOL0     O23256  -0.657   7.711   2.347 -0.2185 -0.1116  0.1401
  173MOL0     C23257  -0.727   7.812   2.268 -0.5504 -0.1856 -0.0646
  173MOL0     C23258  -0.870   7.803   2.311  0.5677 -0.5669 -0.0772
  173MOL0     C23259  -0.943   7.663   2.306 -0.2242 -0.0280 -0.2096
  173MOL0     C23260  -1.092   7.685   2.309  0.0411 -0.2082 -0.2433
  173MOL0     C23261  -1.162   7.550   2.340 -0.3694 -0.0084  0.2726
  173MOL0     C23262  -1.313   7.561   2.343 -0.2094 -0.7405  0.3801
  173MOL0     C23263  -1.376   7.424   2.361  0.0202 -0.2761  0.3351
  173MOL0     C23264  -1.514   7.427   2.425  0.5142  0.6799 -0.4360
  173MOL0    Cl23265  -1.523   7.466   2.596  0.1210 -0.3747 -0.1440
  173MOL0     C23266  -0.461   7.600   2.371 -0.0062 -0.1572 -0.3583
  173MOL0     C23267  -0.320   7.575   2.358 -0.6674 -0.7623  0.6329
  173MOL0     O23268  -0.036   7.812   2.138 -0.0777  0.5961  0.1385
  173MOL0     C23269   0.141   7.543   2.245  0.1854 -0.1819  0.0951
  173MOL0     C23270   0.262   7.475   2.247  0.1055  1.1140  0.6222
  173MOL0     N23271   1.012   7.611   2.189  0.1135  0.3217  0.3037
  173MOL0     N23272   1.117   7.639   2.257  0.3513  0.8497  0.6402
  173MOL0     C23273   2.381   7.549   2.251 -0.4568  0.1099 -0.6838
  173MOL0     C23274   2.513   7.538   2.228 -0.0684 -0.2420 -0.1679
  173MOL0     C23275   2.938   7.537   2.259 -1.0431  0.7742 -0.2233
  173MOL0     C23276   3.041   7.632   2.266  0.2104  0.7432 -0.1506
  173MOL0     C23277   3.178   7.594   2.260 -0.2421 -0.5414  0.0203
  173MOL0     C23278   3.216   7.461   2.259 -0.1087  0.6506  0.5395
  173MOL0     O23279   3.348   7.438   2.248 -0.2317  0.4762  0.0507
  173MOL0     C23280   3.398   7.316   2.204  0.2150 -0.0260 -0.1054
  173MOL0     C23281   3.513   7.336   2.107 -0.2527 -0.1678 -0.2355
  173MOL0     C23282   3.583   7.201   2.072  0.3055  0.0354  0.4761
  173MOL0     C23283   3.728   7.228   2.033 -0.6537 -0.1176  0.6117
  173MOL0     C23284   3.728   7.320   1.911  0.0177 -0.3352  0.0389
  173MOL0     C23285   3.730   7.407   1.828  0.8031  0.1446 -0.1553
  173MOL0     C23286   3.115   7.364   2.256  0.2027 -0.0823  0.6705
  173MOL0     C23287   2.979   7.400   2.249  1.2059 -0.1336  0.0818
  173MOL0     H23288   2.592   7.409   2.537  0.0637  1.4168  1.5808
  173MOL0     H23289   2.374   7.449   2.581  3.0472 -1.9602 -0.1693
  173MOL0     H23290   2.128   7.416   2.508  0.3259 -0.6654  0.1749
  173MOL0     H23291   2.188   7.555   2.601 -0.9418  1.6303 -0.6732
  173MOL0     H23292   1.955   7.605   2.625  1.7392 -0.0344  0.5589
  173MOL0     H23293   1.977   7.667   2.468  0.7146  2.0470  5.5343
  173MOL0     H23294   1.908   7.460   2.349 -0.7668 -1.6216  0.1890
  173MOL0     H23295   1.886   7.384   2.519  1.4199  0.6273  0.8533
  173MOL0     H23296   1.722   7.556   2.570 -0.1884  0.8235 -0.6816
  173MOL0     H23297   1.703   7.598   2.408  0.4926  1.5285  1.2451
  173MOL0     H23298   1.659   7.333   2.373  1.6698  1.6715 -0.9105
  173MOL0     H23299   1.684   7.333   2.550 -1.3382  0.7697  0.7347
  173MOL0     H23300   1.459   7.337   2.521  1.3539 -0.9004 -3.4875
  173MOL0     H23301   1.487   7.507   2.570  0.6326 -1.0248  0.8954
  173MOL0     H23302   1.479   7.584   2.333  2.0630 -2.0790 -4.5289
  173MOL0     H23303   1.454   7.415   2.286 -0.0047  0.2972 -0.1044
  173MOL0     H23304   1.275   7.607   2.446 -2.4599 -0.0251 -1.1483
  173MOL0     H23305   1.240   7.446   2.462 -2.4727  1.0089  0.4337
  173MOL0     H23306   1.146   7.313   2.238  0.0643 -0.1571 -1.0851
  173MOL0     H23307   0.941   7.426   1.973  2.3124 -2.2906  0.4258
  173MOL0     H23308   0.919   7.298   2.103 -3.8429 -1.0805  1.1021
  173MOL0     H23309   0.711   7.430   2.019  1.4918  0.6251 -0.6635
  173MOL0     H23310   0.767   7.553   2.139 -1.7489 -0.1801  0.5088
  173MOL0     H23311   0.733   7.394   2.320 -1.0958  1.5691  1.1427
  173MOL0     H23312   0.731   7.255   2.204 -1.6671  0.6904 -2.0086
  173MOL0     H23313   0.509   7.317   2.304  0.2774 -0.1089  1.6146
  173MOL0     H23314   0.513   7.312   2.129  0.8786 -1.2705  0.4159
  173MOL0     H23315   0.451   7.738   2.184 -1.5505  1.9622 -0.3994
  173MOL0     H23316   0.165   7.942   2.267 -0.0820  2.8133 -2.3424
  173MOL0     H23317   0.340   7.942   2.228  1.9156 -2.5003 -0.5983
  173MOL0     H23318   0.214   7.925   2.097 -3.1078 -3.3335 -0.4044
  173MOL0     H23319  -0.251   7.860   2.173  0.7550 -3.0383 -4.2672
  173MOL0     H23320  -0.481   7.890   2.199 -1.9340 -0.7445  2.0796
  173MOL0     H23321  -0.684   7.911   2.283  0.3127 -0.4319 -0.7695
  173MOL0     H23322  -0.720   7.791   2.160 -1.0099  4.6055 -1.2385
  173MOL0     H23323  -0.871   7.837   2.415  2.5262 -1.7411  0.3954
  173MOL0     H23324  -0.931   7.867   2.248 -0.3570  0.3011  1.6335
  173MOL0     H23325  -0.912   7.607   2.394 -0.9542  0.7500  0.5580
  173MOL0     H23326  -0.907   7.605   2.221  1.2811 -3.2816  2.4113
  173MOL0     H23327  -1.112   7.764   2.383  0.8611  0.8010 -1.0782
  173MOL0     H23328  -1.128   7.722   2.213  0.3183 -2.6556 -1.3744
  173MOL0     H23329  -1.121   7.502   2.430 -2.5070  0.4666  1.5790
  173MOL0     H23330  -1.135   7.485   2.257 -2.6698 -0.5306 -0.1354
  173MOL0     H23331  -1.353   7.629   2.419 -0.6647  0.0522 -0.5527
  173MOL0     H23332  -1.350   7.611   2.254  1.2901 -0.8443 -0.3330
  173MOL0     H23333  -1.316   7.359   2.426 -2.2741 -1.0482  1.8003
  173MOL0     H23334  -1.377   7.371   2.266  2.9875  0.8093 -0.4251
  173MOL0     H23335  -1.556   7.327   2.407 -1.3228  1.2450  0.4571
  173MOL0     H23336  -1.572   7.502   2.371  0.6664  1.7484  0.8418
  173MOL0     H23337  -0.518   7.517   2.412  0.9784 -1.1768 -0.9881
  173MOL0     H23338  -0.283   7.493   2.419 -1.1709  0.9995  3.4706
  173MOL0     H23339   0.049   7.487   2.241 -0.6361  1.1810 -0.7023
  173MOL0     H23340   0.255   7.367   2.260  2.5421  0.7409 -0.6021
  173MOL0     H23341   2.324   7.590   2.168  1.5971  2.3889 -1.0581
  173MOL0     H23342   2.554   7.567   2.132  1.1113 -1.3194 -0.0089
  173MOL0     H23343   3.023   7.739   2.272  1.9887  0.9837  2.7567
  173MOL0     H23344   3.253   7.672   2.272 -0.5228  0.0015 -1.4950
  173MOL0     H23345   3.422   7.257   2.294 -2.3967  2.0688  2.1549
  173MOL0     H23346   3.320   7.269   2.144  0.6932  1.0204 -1.5924
  173MOL0     H23347   3.581   7.405   2.157 -2.8368  0.7663  2.2808
  173MOL0     H23348   3.477   7.390   2.019 -0.2913 -3.6843 -2.5932
  173MOL0     H23349   3.528   7.139   2.001  0.4527 -1.4805  1.6245
  173MOL0     H23350   3.599   7.149   2.167  2.8803  0.3789  0.3032
  173MOL0     H23351   3.773   7.129   2.016 -1.1464 -0.0984 -0.9628
  173MOL0     H23352   3.779   7.275   2.117  0.1441  0.4362 -0.1640
  173MOL0     H23353   3.727   7.490   1.761 -1.0132 -0.6913 -1.1710
  173MOL0     H23354   3.138   7.258   2.260 -2.0039 -0.7245 -1.4697
  173MOL0     H23355   2.910   7.318   2.259  1.9703 -0.6235  1.7308
  174MOL0     O23356   7.179   6.520   0.205 -0.2137  0.2290 -0.9811
  174MOL0     C23357   7.278   6.581   0.172 -0.3987 -0.0954  0.1273
  174MOL0     O23358   7.304   6.626   0.049 -0.2115 -0.1502  0.0002
  174MOL0     C23359   7.197   6.630  -0.042 -0.4965 -0.0385 -0.0814
  174MOL0     C23360   7.085   6.541  -0.056 -0.7324 -0.0465 -0.2314
  174MOL0     C23361   6.989   6.555  -0.152  0.8780  0.0454 -0.5715
  174MOL0     C23362   7.004   6.652  -0.249 -0.0206  0.2684 -0.4452
  174MOL0     O23363   6.906   6.644  -0.345  0.2424  0.3505  0.0521
  174MOL0     C23364   6.919   6.707  -0.474 -0.3384  1.1407 -0.1907
  174MOL0     C23365   6.828   6.638  -0.579  0.1413  0.5479  0.0858
  174MOL0     C23366   6.821   6.483  -0.575  0.4637 -0.0534 -0.4090
  174MOL0     C23367   6.948   6.405  -0.583 -0.8220 -0.2827  0.6124
  174MOL0     C23368   6.930   6.251  -0.592  0.1663  0.3258  1.1412
  174MOL0     C23369   6.840   6.181  -0.489  0.1500 -0.0463 -0.1406
  174MOL0     C23370   6.886   6.198  -0.343  0.1174 -0.4566  0.4576
  174MOL0     C23371   6.810   6.104  -0.256  0.0762  0.3229 -0.3735
  174MOL0     N23372   6.849   6.112  -0.118  0.2073  0.0647  1.0905
  174MOL0     C23373   6.972   6.106  -0.069  0.5873 -0.2059 -0.1008
  174MOL0     C23374   6.954   6.078   0.060  0.0132  0.4255  0.0557
  174MOL0     C23375   7.068   6.050   0.148 -0.2927  0.4914 -0.6723
  174MOL0     C23376   7.124   6.167   0.224 -0.0970 -0.3320  0.0997
  174MOL0     C23377   7.017   6.254   0.306  0.5526 -1.1601 -0.0929
  174MOL0     C23378   6.941   6.164   0.411 -0.1121 -0.9945  0.0626
  174MOL0     O23379   6.856   6.257   0.478  0.4604 -0.3347 -0.5131
  174MOL0     C23380   6.732   6.215   0.516  0.6952  0.4929  0.0810
  174MOL0     C23381   6.637   6.312   0.558 -0.7163  0.2599 -0.5166
  174MOL0     C23382   6.520   6.279   0.633 -0.2510 -0.0526  0.0451
  174MOL0     C23383   6.439   6.399   0.672  0.6643 -0.4398 -1.1203
  174MOL0     C23384   6.493   6.143   0.667  0.3149 -0.4308 -0.0934
  174MOL0     C23385   6.367   6.101   0.736  0.3247  0.2615 -0.0366
  174MOL0     O23386   6.259   6.195   0.750  0.2535  0.0742 -0.0058
  174MOL0     C23387   6.144   6.136   0.801 -0.0532  0.2028 -0.0860
  174MOL0     C23388   6.050   6.074   0.714 -0.3372  0.3284 -0.2316
  174MOL0     C23389   5.939   5.997   0.761 -0.7245 -0.2675 -1.0377
  174MOL0     C23390   5.914   6.003   0.896  0.4925 -0.0826 -0.6011
  174MOL0     O23391   5.811   5.950   0.960 -0.1392  0.1935  0.4682
  174MOL0     C23392   5.694   5.933   0.878  0.4622  0.5249 -0.0110
  174MOL0     C23393   5.573   5.890   0.962  0.8968  0.9617  0.0928
  174MOL0     C23394   5.446   5.895   0.877  0.3789  0.0342  0.2442
  174MOL0     C23395   5.354   5.786   0.941 -1.1120 -1.1229 -0.0659
  174MOL0     C23396   5.221   5.757   0.887  0.4277 -0.5864 -0.2113
  174MOL0     C23397   5.123   5.870   0.906 -0.1403  0.0251  0.3055
  174MOL0     C23398   5.075   5.891   1.049  0.2208 -0.7556  0.2826
  174MOL0     C23399   4.931   5.950   1.051  0.1182  0.2664 -0.2373
  174MOL0    Cl23400   4.806   5.825   1.013 -0.2368 -0.4355 -0.0364
  174MOL0     C23401   5.998   6.068   0.983 -0.4762  0.1008 -0.6716
  174MOL0     C23402   6.116   6.131   0.938 -0.1218 -0.5035  0.0726
  174MOL0     O23403   6.351   5.979   0.764  0.1123  0.0686  0.6914
  174MOL0     C23404   6.589   6.046   0.621  0.6600 -0.3860  0.2369
  174MOL0     C23405   6.699   6.081   0.546  0.3062 -0.0811 -0.0361
  174MOL0     N23406   6.819   6.080   0.086 -0.4624  0.3863 -0.3619
  174MOL0     N23407   6.756   6.100  -0.024  0.1665  0.4237 -0.0417
  174MOL0     C23408   7.112   6.736  -0.247 -0.5054  0.4461  0.3841
  174MOL0     C23409   7.209   6.717  -0.151  0.4242 -0.3551 -0.1854
  174MOL0     C23410   7.377   6.622   0.278 -0.5532  0.1413  0.2514
  174MOL0     C23411   7.507   6.666   0.235 -0.1146  1.2159  0.3263
  174MOL0     C23412   7.610   6.689   0.323 -0.6286  0.7369  0.5160
  174MOL0     C23413   7.584   6.685   0.459 -0.2841 -0.3357 -0.5239
  174MOL0     O23414   7.675   6.715   0.565  0.0759  0.5303  0.2514
  174MOL0     C23415   7.795   6.773   0.537 -0.3527  0.4653  0.1028
  174MOL0     C23416   7.903   6.670   0.573 -0.0136 -0.1422 -0.9256
  174MOL0     C23417   7.881   6.608   0.720  0.5711 -0.3148  0.4509
  174MOL0     C23418   7.964   6.493   0.743 -1.5618  0.2859  0.5271
  174MOL0     C23419   8.110   6.533   0.748 -0.1166  0.4758 -0.7827
  174MOL0     C23420   8.223   6.568   0.769 -0.4666  0.1714  0.4344
  174MOL0     C23421   7.452   6.665   0.505 -0.2480  0.6057  0.4168
  174MOL0     C23422   7.355   6.628   0.416 -0.1193  0.0650 -0.1546
  174MOL0     H23423   7.068   6.457   0.010 -0.8644  0.8593  0.9318
  174MOL0     H23424   6.905   6.487  -0.152 -0.5298  1.7097  0.0206
  174MOL0     H23425   6.890   6.811  -0.454 -0.8706  1.1843 -1.1414
  174MOL0     H23426   7.023   6.707  -0.508  0.0739 -0.3489  0.9481
  174MOL0     H23427   6.732   6.681  -0.551 -0.5920  0.5142 -2.1951
  174MOL0     H23428   6.848   6.671  -0.681  0.9792  2.3214  0.7871
  174MOL0     H23429   6.761   6.451  -0.489  1.3351 -0.8572 -0.0818
  174MOL0     H23430   6.750   6.461  -0.654  0.8368 -2.0456 -0.2265
  174MOL0     H23431   7.006   6.435  -0.670  0.2050 -1.5717  0.8266
  174MOL0     H23432   7.007   6.429  -0.494  1.3725 -0.4615 -0.7353
  174MOL0     H23433   6.887   6.240  -0.692 -2.5858  2.2344  1.9978
  174MOL0     H23434   7.029   6.206  -0.605  0.4488  0.9837  0.9876
  174MOL0     H23435   6.737   6.216  -0.503  0.1603 -0.6599 -2.1008
  174MOL0     H23436   6.836   6.074  -0.512 -0.1855  0.0570 -0.5783
  174MOL0     H23437   6.993   6.175  -0.348  0.0617 -0.4952 -1.2058
  174MOL0     H23438   6.874   6.298  -0.300  0.9169  0.0386 -0.4144
  174MOL0     H23439   6.822   5.999  -0.282 -2.2584  0.3430 -1.7508
  174MOL0     H23440   6.705   6.126  -0.274  0.0651  0.3377 -0.2939
  174MOL0     H23441   7.065   6.124  -0.122 -0.2316  2.2162 -0.8673
  174MOL0     H23442   7.040   5.973   0.220 -0.7201  1.8070  0.6225
  174MOL0     H23443   7.141   5.997   0.087  1.0537 -1.8962  2.7535
  174MOL0     H23444   7.187   6.224   0.156  2.0957  1.0561  3.0498
  174MOL0     H23445   7.195   6.133   0.300 -0.0566  2.5236  1.4850
  174MOL0     H23446   6.949   6.314   0.246 -0.5221 -0.1142  2.0693
  174MOL0     H23447   7.074   6.323   0.369  0.0942 -0.0527 -0.8626
  174MOL0     H23448   7.013   6.121   0.482 -1.0189 -2.4238  0.1681
  174MOL0     H23449   6.888   6.078   0.368  0.4680 -1.3563  0.0561
  174MOL0     H23450   6.657   6.417   0.539  1.1883 -0.0224 -0.2615
  174MOL0     H23451   6.423   6.403   0.780  0.4020 -0.7917 -1.1460
  174MOL0     H23452   6.498   6.489   0.652 -0.8205  0.6209 -0.9888
  174MOL0     H23453   6.350   6.404   0.608 -0.2219 -2.0348 -0.0710
  174MOL0     H23454   6.071   6.075   0.607  2.5942 -1.0641  0.2382
  174MOL0     H23455   5.878   5.948   0.686 -0.4760 -1.2117 -0.6335
  174MOL0     H23456   5.668   6.029   0.833  1.0795  1.4375  1.4740
  174MOL0     H23457   5.714   5.858   0.801  0.0093 -0.3571  0.7093
  174MOL0     H23458   5.589   5.794   1.012 -1.9527  0.3696 -0.0001
  174MOL0     H23459   5.562   5.964   1.042  1.9726  3.8959 -2.2660
  174MOL0     H23460   5.473   5.868   0.774  1.4647  2.1064 -0.0562
  174MOL0     H23461   5.402   5.995   0.879 -0.6481 -0.3666 -0.6453
  174MOL0     H23462   5.413   5.694   0.940 -1.1018 -1.1095 -0.7110
  174MOL0     H23463   5.343   5.802   1.049  1.4494 -0.5786  0.1726
  174MOL0     H23464   5.185   5.669   0.942  1.8879  0.4846  2.6219
  174MOL0     H23465   5.237   5.728   0.783  0.8452  1.5798 -0.7868
  174MOL0     H23466   5.173   5.961   0.871  1.2872 -0.4212  1.0662
  174MOL0     H23467   5.040   5.840   0.843 -0.5320 -2.5225  1.8824
  174MOL0     H23468   5.142   5.961   1.100 -0.6103  1.9293 -2.0296
  174MOL0     H23469   5.083   5.798   1.106  2.9876  0.3707  1.9511
  174MOL0     H23470   4.912   6.028   0.977 -0.2003  1.5996  1.2118
  174MOL0     H23471   4.906   5.988   1.150 -0.8141  0.0274 -0.3686
  174MOL0     H23472   5.976   6.063   1.089  1.0761  0.2027 -0.3157
  174MOL0     H23473   6.192   6.168   1.005 -1.0293  1.4072  0.0924
  174MOL0     H23474   6.603   5.946   0.662 -1.4249 -0.2669  1.3746
  174MOL0     H23475   6.757   5.995   0.515 -2.2960 -1.7304 -0.7280
  174MOL0     H23476   7.128   6.801  -0.333  3.4400 -0.0221  0.5901
  174MOL0     H23477   7.297   6.781  -0.147  0.6966 -0.6573 -1.3056
  174MOL0     H23478   7.543   6.655   0.134  0.7038  1.0466  0.6302
  174MOL0     H23479   7.714   6.705   0.293  0.1104 -1.9688  1.3558
  174MOL0     H23480   7.817   6.810   0.437  3.0823 -0.4767  0.4016
  174MOL0     H23481   7.801   6.856   0.608 -3.4332 -0.3731  1.5615
  174MOL0     H23482   7.994   6.731   0.569 -0.1191  0.1028  0.1665
  174MOL0     H23483   7.893   6.590   0.499 -4.2893 -2.0033  1.3484
  174MOL0     H23484   7.777   6.574   0.725  0.8544 -1.1821  0.5951
  174MOL0     H23485   7.888   6.695   0.787 -2.6176  1.9916 -1.9030
  174MOL0     H23486   7.962   6.416   0.665  0.0978  0.5279  0.2028
  174MOL0     H23487   7.936   6.452   0.840  2.4613 -2.0867  0.9231
  174MOL0     H23488   8.326   6.593   0.787 -0.0969  0.5729 -1.9222
  174MOL0     H23489   7.424   6.682   0.608  0.5936 -0.8859  0.9141
  174MOL0     H23490   7.255   6.619   0.457  0.4246 -1.5887  0.9069
  175MOL0     O23491   5.947   7.348  10.702  0.2957  0.3660 -0.2556
  175MOL0     C23492   5.929   7.267  10.784 -0.0341 -0.2206  0.1774
  175MOL0     O23493   5.821   7.176  10.782 -0.1755 -0.0439 -0.5950
  175MOL0     C23494   5.713   7.193  10.693 -0.1343  0.7451 -0.2236
  175MOL0     C23495   5.732   7.223  10.552  0.1699 -0.5257 -0.5810
  175MOL0     C23496   5.623   7.245  10.465 -0.4464  0.5567  0.4338
  175MOL0     C23497   5.493   7.229  10.505 -0.1483  1.0914 -0.3739
  175MOL0     O23498   5.381   7.249  10.433 -0.7619  0.3767 -0.0992
  175MOL0     C23499   5.367   7.168  10.315  0.1744  0.1508  0.4722
  175MOL0     C23500   5.230   7.184  10.253  0.4410 -0.8826 -0.1690
  175MOL0     C23501   5.128   7.120  10.340  0.0034 -0.1213 -0.2156
  175MOL0     C23502   4.994   7.180  10.292 -0.0989  0.4328  0.8557
  175MOL0     C23503   4.874   7.157  10.389  0.0927  0.1617 -0.4517
  175MOL0     C23504   4.738   7.211  10.333  0.1661  0.2816 -0.0064
  175MOL0     C23505   4.719   7.356  10.356 -1.4123 -0.4080 -0.0658
  175MOL0     C23506   4.587   7.415  10.311 -1.0655  0.9079 -0.5326
  175MOL0     N23507   4.479   7.376  10.402 -0.1511 -0.1632  0.3587
  175MOL0     C23508   4.406   7.448  10.489  0.1578  0.0857 -1.4400
  175MOL0     C23509   4.314   7.363  10.547  0.4895 -0.8427 -0.3597
  175MOL0     C23510   4.230   7.402  10.667  0.4577  0.5017  0.8795
  175MOL0     C23511   4.105   7.476  10.606 -0.1476  0.1665  0.7083
  175MOL0     C23512   4.129   7.622  10.569 -1.1968  0.5970 -0.5249
  175MOL0     C23513   3.998   7.696  10.535 -0.1609  0.5412  0.4160
  175MOL0     O23514   3.913   7.702  10.652 -0.2075 -0.2035  0.2450
  175MOL0     C23515   3.792   7.756  10.624  0.4214  0.4958  1.1681
  175MOL0     C23516   3.756   7.887  10.651  0.6670 -0.1173 -0.4549
  175MOL0     C23517   3.633   7.947  10.625  0.7904  0.0458 -0.2499
  175MOL0     C23518   3.627   8.096  10.659 -0.2323 -0.7032 -0.2367
  175MOL0     C23519   3.529   7.865  10.575 -0.4058  0.1123  0.4172
  175MOL0     C23520   3.394   7.916  10.531  0.1844  1.1855 -0.2982
  175MOL0     O23521   3.310   7.829  10.463  0.2107 -0.6247  0.4824
  175MOL0     C23522   3.175   7.864  10.442 -0.1052 -0.3732  0.2780
  175MOL0     C23523   3.109   7.808  10.334 -1.0726  0.5571 -0.1205
  175MOL0     C23524   2.976   7.835  10.309  0.4624  0.1505  0.2215
  175MOL0     C23525   2.893   7.882  10.413  0.1713 -0.3802 -0.2172
  175MOL0     O23526   2.757   7.906  10.404  0.0835 -0.8121 -0.3974
  175MOL0     C23527   2.667   7.828  10.329  0.0448 -0.1210  0.2230
  175MOL0     C23528   2.544   7.913  10.306 -0.4035 -0.2298 -0.0500
  175MOL0     C23529   2.440   7.839  10.218 -1.2350  0.0402 -0.0798
  175MOL0     C23530   2.334   7.756  10.300 -0.3083 -0.0245  0.0791
  175MOL0     C23531   2.273   7.644  10.211  0.0624  0.5831  0.2997
  175MOL0     C23532   2.354   7.519  10.236  0.0521 -0.8694 -0.2495
  175MOL0     C23533   2.302   7.407  10.146 -0.5816 -0.2917 -0.1430
  175MOL0     C23534   2.389   7.273  10.162 -0.1965  1.1117 -0.5923
  175MOL0    Cl23535   2.388   7.230  10.336 -0.2410 -0.4613  0.1385
  175MOL0     C23536   2.957   7.924  10.525 -0.4244  0.0708 -0.5273
  175MOL0     C23537   3.097   7.933  10.537 -0.1569  0.4199  1.2085
  175MOL0     O23538   3.374   8.030  10.556 -0.3213  0.0774  0.3978
  175MOL0     C23539   3.553   7.730  10.562  0.3383 -0.4042 -0.0725
  175MOL0     C23540   3.685   7.674  10.583 -0.0299 -0.1663  0.1128
  175MOL0     N23541   4.335   7.239  10.495  0.5822 -0.0024 -0.1298
  175MOL0     N23542   4.428   7.251  10.404 -0.1581  0.1773  0.5172
  175MOL0     C23543   5.481   7.187  10.645  0.8121  0.1288  0.6149
  175MOL0     C23544   5.584   7.170  10.733  0.6253 -0.1971  0.0828
  175MOL0     C23545   6.027   7.245  10.894  0.2492 -0.4948 -0.0648
  175MOL0     C23546   6.021   7.128  10.975  0.2507 -0.9178  0.1308
  175MOL0     C23547   6.128   7.105  11.063  0.5297 -0.0483 -0.5603
  175MOL0     C23548   6.233   7.196  11.080 -0.8521  0.0210 -0.0739
  175MOL0     O23549   6.321   7.178  11.192  0.8506  0.8929 -0.1310
  175MOL0     C23550   6.302   7.260  11.304 -0.4075 -0.1576  0.0804
  175MOL0     C23551   6.411   7.240  11.415  0.2862  0.3304  0.7022
  175MOL0     C23552   6.371   7.314  11.549  0.1330  0.5644 -0.3030
  175MOL0     C23553   6.438   7.242  11.663 -0.0854 -0.1085 -0.7765
  175MOL0     C23554   6.368   7.283  11.785 -0.2337 -0.1579 -0.2837
  175MOL0     C23555   6.320   7.309  11.893  0.3539 -0.1145  0.7808
  175MOL0     C23556   6.229   7.315  11.005 -0.1527  0.0960 -0.7321
  175MOL0     C23557   6.134   7.337  10.909  0.4059 -0.1544  0.3088
  175MOL0     H23558   5.834   7.231  10.514  0.1827  1.8388 -0.2393
  175MOL0     H23559   5.645   7.281  10.365  0.7092  1.7301  1.0792
  175MOL0     H23560   5.447   7.183  10.241 -0.0063  1.6308  0.5416
  175MOL0     H23561   5.368   7.063  10.345 -3.0816 -0.6556 -1.7221
  175MOL0     H23562   5.227   7.292  10.241  0.8030 -0.6571  1.4954
  175MOL0     H23563   5.224   7.129  10.158 -2.1518 -0.4100 -0.3373
  175MOL0     H23564   5.142   7.011  10.335  1.9826 -0.0110  1.5545
  175MOL0     H23565   5.137   7.153  10.444  2.1057  1.0037 -0.6905
  175MOL0     H23566   5.022   7.286  10.285  2.3602 -0.1579  0.6771
  175MOL0     H23567   4.974   7.131  10.197  0.0554 -1.4715  1.7670
  175MOL0     H23568   4.863   7.048  10.381  1.7626 -0.0476 -0.2936
  175MOL0     H23569   4.896   7.182  10.493 -2.4188 -0.0605  0.1906
  175MOL0     H23570   4.720   7.181  10.229 -2.4446  1.2857  0.0961
  175MOL0     H23571   4.655   7.170  10.390 -0.6347  1.5358 -0.2344
  175MOL0     H23572   4.731   7.372  10.464  0.1631 -2.6838  0.1646
  175MOL0     H23573   4.796   7.418  10.308  1.8470 -1.7068  2.9583
  175MOL0     H23574   4.566   7.388  10.207 -0.9103 -2.3760  0.2007
  175MOL0     H23575   4.598   7.524  10.311  1.1410  0.7214 -0.8235
  175MOL0     H23576   4.412   7.556  10.498 -3.0855  0.3768 -1.6513
  175MOL0     H23577   4.188   7.319  10.725  0.0724  0.6822  0.8654
  175MOL0     H23578   4.274   7.464  10.746 -2.0334  3.2497  0.3061
  175MOL0     H23579   4.024   7.470  10.679 -0.1761 -2.4688  0.5430
  175MOL0     H23580   4.074   7.426  10.514  1.2388 -1.7954  1.2314
  175MOL0     H23581   4.201   7.610  10.488 -0.8820 -1.4728  0.0026
  175MOL0     H23582   4.177   7.678  10.651 -0.0008  1.4942 -1.7927
  175MOL0     H23583   3.937   7.648  10.459 -1.1848  2.0743  0.2175
  175MOL0     H23584   4.020   7.799  10.505  1.1289  0.0740 -0.3300
  175MOL0     H23585   3.826   7.953  10.701 -1.0047  2.4372 -1.2857
  175MOL0     H23586   3.720   8.150  10.679 -1.5599  1.2963  0.8920
  175MOL0     H23587   3.577   8.141  10.573 -1.1902  1.9364  1.5603
  175MOL0     H23588   3.569   8.106  10.752  1.3063 -2.6449  1.0148
  175MOL0     H23589   3.170   7.766  10.254  0.2982  2.3505 -0.0704
  175MOL0     H23590   2.947   7.797  10.212  1.5577 -1.8872  0.6502
  175MOL0     H23591   2.717   7.807  10.234 -0.2732 -2.1690  0.4628
  175MOL0     H23592   2.633   7.738  10.380 -1.0861  1.2152  1.9820
  175MOL0     H23593   2.511   7.936  10.408  2.2288  3.9152  0.1414
  175MOL0     H23594   2.568   8.012  10.264 -1.5437  0.3778  0.6718
  175MOL0     H23595   2.500   7.772  10.156 -0.4525  2.5024 -2.1784
  175MOL0     H23596   2.408   7.913  10.144  1.4356  1.3604 -0.0194
  175MOL0     H23597   2.391   7.718  10.384  0.7859  0.8915 -0.2277
  175MOL0     H23598   2.251   7.815  10.340 -1.8520 -3.2429  2.0271
  175MOL0     H23599   2.274   7.663  10.103  0.6815 -3.3992 -0.5600
  175MOL0     H23600   2.170   7.624  10.242  0.2985 -1.2873 -0.0180
  175MOL0     H23601   2.461   7.532  10.217 -0.0664  1.6754  0.4771
  175MOL0     H23602   2.341   7.495  10.341  1.0083  0.2218  0.1431
  175MOL0     H23603   2.299   7.436  10.040 -2.0871 -1.0785 -0.3456
  175MOL0     H23604   2.196   7.389  10.167 -0.8301  0.4643 -0.6723
  175MOL0     H23605   2.490   7.281  10.120  0.4111  0.4814  0.6647
  175MOL0     H23606   2.345   7.189  10.109  2.2129 -0.7015  0.0761
  175MOL0     H23607   2.904   7.968  10.608  0.5158  2.1454 -0.9651
  175MOL0     H23608   3.149   7.964  10.627  3.5424 -3.5585  0.7748
  175MOL0     H23609   3.474   7.664  10.527 -1.1777  0.8195  0.9416
  175MOL0     H23610   3.707   7.569  10.564 -0.8396 -0.2067 -0.6819
  175MOL0     H23611   5.378   7.163  10.668  1.1743 -0.5244  1.6316
  175MOL0     H23612   5.564   7.152  10.839  3.8313  1.1506  1.0423
  175MOL0     H23613   5.944   7.052  10.966  1.1660 -1.7646 -0.8061
  175MOL0     H23614   6.118   7.020  11.129 -1.6059 -0.2912 -1.0958
  175MOL0     H23615   6.299   7.363  11.266 -0.4006  0.0624  0.6561
  175MOL0     H23616   6.204   7.239  11.348  0.0013  0.4328  1.3338
  175MOL0     H23617   6.502   7.285  11.374 -0.2761  1.5651  0.7506
  175MOL0     H23618   6.430   7.135  11.436 -1.1223  0.3069  2.1076
  175MOL0     H23619   6.265   7.317  11.577 -0.0571 -0.1589 -0.9178
  175MOL0     H23620   6.404   7.417  11.536 -2.6184  1.3475 -2.0975
  175MOL0     H23621   6.547   7.250  11.665 -0.1834  1.6499 -0.9002
  175MOL0     H23622   6.412   7.136  11.652  4.6491 -1.6301  0.3002
  175MOL0     H23623   6.286   7.341  11.989  3.1651  0.6889  1.6034
  175MOL0     H23624   6.297   7.399  11.015  2.6758 -1.9971 -0.8513
  175MOL0     H23625   6.139   7.420  10.839 -0.2953 -1.6761 -1.6358
  176MOL0     O23626   2.254  10.417   4.666  0.3119 -0.5220 -0.0039
  176MOL0     C23627   2.275  10.306   4.716  0.2784 -0.4828  0.0182
  176MOL0     O23628   2.177  10.206   4.737 -0.6658  0.9963  0.4031
  176MOL0     C23629   2.048  10.233   4.716  0.7910  0.8318  1.0624
  176MOL0     C23630   1.979  10.357   4.722 -0.6443 -0.2946 -0.7454
  176MOL0     C23631   1.842  10.371   4.726 -0.0838  0.8024  0.8935
  176MOL0     C23632   1.764  10.262   4.686  0.1988 -0.0713 -0.2309
  176MOL0     O23633   1.629  10.272   4.653 -0.2344 -0.3473  0.0228
  176MOL0     C23634   1.556  10.386   4.686  0.6468  0.0609  0.5370
  176MOL0     C23635   1.566  10.486   4.569 -0.1879  0.3784 -0.4937
  176MOL0     C23636   1.479  10.610   4.574 -0.8262 -0.3067  0.4338
  176MOL0     C23637   1.446  10.665   4.438 -0.0888  0.2723  0.1379
  176MOL0     C23638   1.337  10.771   4.445  0.6044 -0.9014 -0.1507
  176MOL0     C23639   1.196  10.709   4.480 -0.2101 -0.7511 -0.2570
  176MOL0     C23640   1.080  10.801   4.442 -0.4231  0.6468 -0.3464
  176MOL0     C23641   1.065  10.915   4.542 -0.0772 -0.6983 -0.4503
  176MOL0     N23642   1.046  10.866   4.679 -0.0108 -0.2262 -0.0944
  176MOL0     C23643   1.135  10.892   4.780  0.3356 -0.1303  0.0780
  176MOL0     C23644   1.090  10.821   4.889 -0.5289  0.2640  0.8029
  176MOL0     C23645   1.151  10.797   5.021  0.3109 -0.4543  0.5215
  176MOL0     C23646   1.151  10.651   5.075 -0.0613  0.2886 -0.0417
  176MOL0     C23647   1.216  10.556   4.991  0.2127 -0.0076  0.0863
  176MOL0     C23648   1.368  10.568   4.988 -0.0613  0.3170  0.4336
  176MOL0     O23649   1.420  10.463   5.069  0.3692  0.0312  0.2911
  176MOL0     C23650   1.551  10.467   5.102 -0.3488  0.0212  0.2871
  176MOL0     C23651   1.594  10.353   5.178  0.0626 -0.1510 -0.8074
  176MOL0     C23652   1.729  10.322   5.202  0.5307  0.2110  0.2382
  176MOL0     C23653   1.744  10.186   5.269 -0.2122 -0.5646  0.6657
  176MOL0     C23654   1.829  10.416   5.167  0.4488  0.6727 -0.4846
  176MOL0     C23655   1.975  10.394   5.176 -0.6145 -0.2383 -0.1624
  176MOL0     O23656   2.051  10.477   5.100  0.1498  0.5825 -0.4202
  176MOL0     C23657   2.184  10.457   5.114  0.2755  0.1987  1.3597
  176MOL0     C23658   2.272  10.561   5.148  0.2610 -0.3008 -0.1519
  176MOL0     C23659   2.405  10.534   5.179  0.4692  0.7929 -0.9629
  176MOL0     C23660   2.458  10.408   5.161 -0.0957 -0.1280 -0.3583
  176MOL0     O23661   2.584  10.388   5.212 -0.4874 -0.4575  0.1726
  176MOL0     C23662   2.618  10.254   5.244 -0.7245 -0.3794 -0.0357
  176MOL0     C23663   2.742  10.267   5.333 -0.2897  1.1620 -0.1275
  176MOL0     C23664   2.833  10.155   5.306 -0.3341  0.5995 -0.0953
  176MOL0     C23665   2.795  10.035   5.396  0.8279  0.0283 -0.9319
  176MOL0     C23666   2.888   9.904   5.377  1.1572  0.4088 -0.4804
  176MOL0     C23667   3.028   9.915   5.430 -0.3076 -0.3796  0.0577
  176MOL0     C23668   3.109   9.787   5.398 -0.4319  0.2060  0.0390
  176MOL0     C23669   3.252   9.797   5.448 -0.6232 -0.7561 -0.9132
  176MOL0    Cl23670   3.338   9.639   5.490  0.2205  0.1268 -0.0146
  176MOL0     C23671   2.381  10.311   5.103 -0.0974  0.5489 -0.1828
  176MOL0     C23672   2.245  10.336   5.085 -0.1313  0.3775 -0.0117
  176MOL0     O23673   2.021  10.306   5.252 -0.6351 -0.2728  0.1830
  176MOL0     C23674   1.783  10.531   5.102  0.0175  0.2301 -0.0070
  176MOL0     C23675   1.649  10.557   5.070  0.7314  0.4116 -0.1755
  176MOL0     N23676   0.970  10.767   4.858 -0.2087 -0.2379  0.0152
  176MOL0     N23677   0.940  10.799   4.733 -0.0727 -0.1477 -0.7825
  176MOL0     C23678   1.832  10.139   4.655  0.2860  0.2629  0.2921
  176MOL0     C23679   1.963  10.131   4.666  0.0821 -0.1817 -0.0773
  176MOL0     C23680   2.414  10.273   4.764 -0.6389 -0.4534  0.0308
  176MOL0     C23681   2.507  10.374   4.769  0.8021 -0.4787 -0.9061
  176MOL0     C23682   2.637  10.345   4.816  0.1108  0.8838  0.0421
  176MOL0     C23683   2.673  10.215   4.861  0.2242  0.3995  0.9108
  176MOL0     O23684   2.801  10.182   4.906 -0.1899  0.0401  1.1843
  176MOL0     C23685   2.908  10.274   4.904 -0.0741  0.7931  0.4137
  176MOL0     C23686   3.030  10.189   4.949  1.0065 -0.4129  0.4504
  176MOL0     C23687   3.069  10.088   4.842  0.1804  0.0876  0.7697
  176MOL0     C23688   3.218  10.046   4.843 -0.7110  0.0720  0.2425
  176MOL0     C23689   3.266  10.008   4.973  1.1785  0.0159  0.3609
  176MOL0     C23690   3.298   9.976   5.084 -0.3954 -0.1588 -0.2775
  176MOL0     C23691   2.576  10.118   4.839  0.0984 -0.8330  0.0530
  176MOL0     C23692   2.449  10.145   4.797  0.0862 -0.3990 -0.2542
  176MOL0     H23693   2.037  10.440   4.763 -0.2315 -0.3197 -1.2720
  176MOL0     H23694   1.810  10.471   4.753 -0.4517  1.2420 -1.0170
  176MOL0     H23695   1.453  10.351   4.678  0.8864 -0.4448 -0.6191
  176MOL0     H23696   1.574  10.430   4.785 -0.8380 -0.0827  0.8803
  176MOL0     H23697   1.668  10.524   4.569 -0.1561  0.2924 -0.3364
  176MOL0     H23698   1.552  10.426   4.478  0.0126  1.6803 -1.4153
  176MOL0     H23699   1.384  10.595   4.626 -1.9941  0.9995 -1.1907
  176MOL0     H23700   1.545  10.685   4.620 -0.0235  0.9812 -2.5400
  176MOL0     H23701   1.535  10.718   4.402 -0.4500  0.5506 -0.3531
  176MOL0     H23702   1.409  10.589   4.368 -2.7565  0.4706  1.2244
  176MOL0     H23703   1.356  10.855   4.512 -1.2092 -0.7188  0.1852
  176MOL0     H23704   1.334  10.818   4.346 -0.2648  0.1870  0.3646
  176MOL0     H23705   1.178  10.617   4.423 -0.6157 -1.5531  1.1077
  176MOL0     H23706   1.191  10.671   4.583 -2.2230 -1.6058 -0.6246
  176MOL0     H23707   1.081  10.834   4.338  4.5449  0.3784 -0.6132
  176MOL0     H23708   0.986  10.747   4.453 -0.7527  0.9883 -1.3562
  176MOL0     H23709   0.970  10.963   4.516 -1.3550 -2.2235  1.1835
  176MOL0     H23710   1.146  10.987   4.532 -0.8606  0.5060  1.3520
  176MOL0     H23711   1.238  10.927   4.777  0.9529 -1.8441 -2.1487
  176MOL0     H23712   1.256  10.825   5.030 -0.5379  2.3736  3.6735
  176MOL0     H23713   1.099  10.870   5.084 -0.4397 -1.8123  1.5365
  176MOL0     H23714   1.051  10.608   5.079 -0.1998  0.6345  0.3443
  176MOL0     H23715   1.189  10.657   5.178  1.0192 -0.4344 -0.3819
  176MOL0     H23716   1.174  10.566   4.890 -4.1172  1.9008  1.7843
  176MOL0     H23717   1.185  10.454   5.016  1.7582 -0.9334 -1.5125
  176MOL0     H23718   1.412  10.661   5.025  2.5443 -0.3201 -0.7975
  176MOL0     H23719   1.413  10.560   4.888  1.0281 -2.8168  1.0402
  176MOL0     H23720   1.521  10.288   5.225  0.1060  1.0972  1.1092
  176MOL0     H23721   1.817  10.132   5.208  0.6319  2.3000 -1.0861
  176MOL0     H23722   1.770  10.201   5.374  0.1951  1.7968  0.2910
  176MOL0     H23723   1.648  10.134   5.257 -0.2413 -0.2208 -0.7511
  176MOL0     H23724   2.237  10.663   5.155  1.1787  0.1696 -1.9264
  176MOL0     H23725   2.466  10.616   5.216  0.5547  0.2852  0.0574
  176MOL0     H23726   2.534  10.201   5.290 -0.6305 -1.1117 -0.6886
  176MOL0     H23727   2.634  10.211   5.145  1.4039 -1.4109  0.7151
  176MOL0     H23728   2.793  10.361   5.311  1.2595  0.2329 -0.6931
  176MOL0     H23729   2.705  10.264   5.436 -4.1659 -3.7345 -1.2462
  176MOL0     H23730   2.935  10.190   5.325  0.1837 -0.5467 -0.6638
  176MOL0     H23731   2.819  10.123   5.202  1.8677 -1.7494  0.2306
  176MOL0     H23732   2.777  10.054   5.503 -3.7850  0.6426 -1.6152
  176MOL0     H23733   2.696   9.998   5.370  0.3584  1.0767 -0.6800
  176MOL0     H23734   2.895   9.878   5.271  1.6672  2.2958 -0.9558
  176MOL0     H23735   2.837   9.826   5.433  1.5595  1.5193  1.5423
  176MOL0     H23736   3.080  10.006   5.397 -3.4310  2.0667  1.3614
  176MOL0     H23737   3.021   9.931   5.538 -4.9307  0.5650 -0.1982
  176MOL0     H23738   3.110   9.770   5.290 -0.9484 -0.6995  0.1645
  176MOL0     H23739   3.066   9.699   5.448  2.3829 -1.1039  0.3758
  176MOL0     H23740   3.261   9.860   5.536 -0.4411 -0.3603 -1.2112
  176MOL0     H23741   3.315   9.849   5.375 -0.0313  0.0223  0.1303
  176MOL0     H23742   2.416  10.210   5.087  0.9756  1.1685 -2.1690
  176MOL0     H23743   2.175  10.265   5.043  0.8609 -0.4896 -0.2291
  176MOL0     H23744   1.851  10.606   5.065  2.5035 -1.1514  1.4805
  176MOL0     H23745   1.629  10.642   5.005  4.1517  1.7199  0.2883
  176MOL0     H23746   1.764  10.069   4.608 -2.6104  1.2423  2.6946
  176MOL0     H23747   2.012  10.035   4.654  0.0936 -0.4849  2.0677
  176MOL0     H23748   2.468  10.473   4.750 -1.7298 -0.9462  1.1539
  176MOL0     H23749   2.703  10.431   4.824  0.6932  0.7022 -2.1528
  176MOL0     H23750   2.920  10.324   4.808 -1.2592  1.7857  0.7731
  176MOL0     H23751   2.887  10.354   4.976  0.8079  0.3261  1.2312
  176MOL0     H23752   3.010  10.129   5.038 -0.5433 -1.1097 -0.3312
  176MOL0     H23753   3.112  10.258   4.972  0.8285  0.1648 -0.6061
  176MOL0     H23754   3.042  10.127   4.743  1.3278  0.1016  0.4568
  176MOL0     H23755   3.014   9.994   4.854 -1.2180  0.4907 -1.6639
  176MOL0     H23756   3.277  10.127   4.799  0.7062  0.8214  3.2756
  176MOL0     H23757   3.233   9.973   4.762  2.5031  0.2660  0.5480
  176MOL0     H23758   3.330   9.947   5.182 -1.7098  1.6344  0.7461
  176MOL0     H23759   2.595  10.022   4.886 -1.8555 -0.0228  2.7127
  176MOL0     H23760   2.387  10.060   4.769  1.0219 -1.4813  0.8303
  177MOL0     O23761   7.382   0.955   4.759  0.4680  0.7240  0.1120
  177MOL0     C23762   7.410   1.026   4.663  0.3221 -0.1375  0.3375
  177MOL0     O23763   7.315   1.099   4.597  0.3477  0.0496  0.1020
  177MOL0     C23764   7.196   1.135   4.655  0.0755 -0.4074 -0.4582
  177MOL0     C23765   7.186   1.225   4.765 -0.4702 -0.1404 -0.0542
  177MOL0     C23766   7.053   1.265   4.808  0.5061 -0.7714 -0.4901
  177MOL0     C23767   6.938   1.226   4.738  0.1452  1.1337 -0.0935
  177MOL0     O23768   6.815   1.275   4.767  0.3797  0.2827  0.0131
  177MOL0     C23769   6.702   1.189   4.750  0.2447  0.1985 -0.3754
  177MOL0     C23770   6.582   1.263   4.805 -0.5910 -0.2750 -0.3253
  177MOL0     C23771   6.446   1.191   4.788 -0.4382  0.0179 -0.0761
  177MOL0     C23772   6.334   1.284   4.834  0.3718 -0.4901 -0.2694
  177MOL0     C23773   6.195   1.223   4.799  0.3909 -0.0155 -0.7023
  177MOL0     C23774   6.081   1.326   4.829 -0.1235 -0.4819 -0.0265
  177MOL0     C23775   5.948   1.266   4.875  0.0068  0.1001 -0.3263
  177MOL0     C23776   5.827   1.367   4.858  0.6837 -0.6846 -0.5647
  177MOL0     N23777   5.702   1.329   4.925  1.1129 -0.7604  0.3764
  177MOL0     C23778   5.574   1.344   4.872 -0.2064  0.0503 -1.2963
  177MOL0     C23779   5.490   1.344   4.980 -0.3101  0.4641 -0.0352
  177MOL0     C23780   5.345   1.359   4.977  0.3696 -0.6524 -0.6629
  177MOL0     C23781   5.267   1.231   4.928 -0.6866  0.8561 -1.2622
  177MOL0     C23782   5.115   1.251   4.937 -0.3207  0.3764 -0.2727
  177MOL0     C23783   5.041   1.126   4.905  0.3890  0.0140  1.4776
  177MOL0     O23784   4.905   1.160   4.885 -0.2847 -0.7582  0.5904
  177MOL0     C23785   4.839   1.062   4.812  0.2766 -0.4259  0.5174
  177MOL0     C23786   4.728   1.114   4.746 -0.9515  0.1137 -0.5800
  177MOL0     C23787   4.637   1.028   4.676  0.1768 -0.1471  0.0381
  177MOL0     C23788   4.500   1.089   4.636 -0.0251 -0.1302  0.3300
  177MOL0     C23789   4.660   0.889   4.671 -0.0916  0.4484 -0.3430
  177MOL0     C23790   4.574   0.787   4.604 -0.2133 -0.0128  0.0438
  177MOL0     O23791   4.609   0.652   4.624 -0.4740  0.1262  0.2427
  177MOL0     C23792   4.535   0.570   4.551 -0.7362  0.1898 -0.2925
  177MOL0     C23793   4.561   0.537   4.411  0.4746  0.8282  0.4670
  177MOL0     C23794   4.472   0.447   4.349  0.0915  0.0680 -0.4681
  177MOL0     C23795   4.377   0.376   4.407 -0.0510  0.4609 -0.0962
  177MOL0     O23796   4.303   0.287   4.330  0.0667 -0.0965 -0.3388
  177MOL0     C23797   4.223   0.182   4.391 -0.2591 -0.6969 -0.1836
  177MOL0     C23798   4.077   0.213   4.414 -0.5018 -0.0268  0.9005
  177MOL0     C23799   4.013   0.110   4.503 -0.0083  0.1590 -0.5172
  177MOL0     C23800   3.861   0.140   4.510  0.7937  1.1710 -0.3451
  177MOL0     C23801   3.778   0.020   4.563 -0.6425  0.0531 -0.3084
  177MOL0     C23802   3.776  -0.096   4.469  0.0199  0.2066  1.4271
  177MOL0     C23803   3.672  -0.198   4.530 -0.6702 -0.5305 -0.7186
  177MOL0     C23804   3.691  -0.344   4.475  0.0794 -0.4622  0.0733
  177MOL0    Cl23805   3.582  -0.464   4.567 -0.1786 -0.1917 -0.3768
  177MOL0     C23806   4.354   0.405   4.545  0.2529 -0.4024  0.0550
  177MOL0     C23807   4.429   0.504   4.619 -0.5035 -1.2153 -0.0293
  177MOL0     O23808   4.492   0.835   4.522  0.3475  0.2677 -0.8457
  177MOL0     C23809   4.772   0.847   4.744  0.0619  0.6064  0.1069
  177MOL0     C23810   4.857   0.921   4.812  0.1205 -0.6499 -0.6089
  177MOL0     N23811   5.567   1.317   5.095  0.6663  0.2599 -0.8768
  177MOL0     N23812   5.688   1.315   5.060 -0.7731 -0.5688  0.1757
  177MOL0     C23813   6.952   1.136   4.632 -0.1858  0.2029 -0.5084
  177MOL0     C23814   7.080   1.096   4.590  0.1394 -0.2214  0.6626
  177MOL0     C23815   7.546   1.009   4.606 -0.2073  0.5602 -0.3515
  177MOL0     C23816   7.590   1.091   4.498 -0.4977  0.6820  0.4807
  177MOL0     C23817   7.731   1.087   4.453  0.4231 -0.0177 -0.2335
  177MOL0     C23818   7.826   1.015   4.514  0.3534  0.2476 -0.0261
  177MOL0     O23819   7.945   1.026   4.453  0.0756 -0.0936 -0.4142
  177MOL0     C23820   8.058   0.947   4.508 -0.7261  0.5691 -1.0018
  177MOL0     C23821   8.174   0.961   4.408  0.3599  0.1022 -0.2576
  177MOL0     C23822   8.266   0.837   4.429 -0.3975  0.6029 -0.2350
  177MOL0     C23823   8.396   0.855   4.349  0.5266 -0.7500 -0.3590
  177MOL0     C23824   8.472   0.732   4.321  0.6928 -0.5773 -0.1927
  177MOL0     C23825   8.496   0.618   4.282  0.6484 -0.9682 -0.9990
  177MOL0     C23826   7.775   0.930   4.618 -0.4051  0.0896 -0.4942
  177MOL0     C23827   7.643   0.923   4.669  0.7473  0.1962  0.3039
  177MOL0     H23828   7.273   1.276   4.803 -1.2514 -0.1591  1.8618
  177MOL0     H23829   7.038   1.341   4.884 -0.0671  1.8381 -3.0192
  177MOL0     H23830   6.681   1.137   4.656 -1.8634 -1.6427  1.0340
  177MOL0     H23831   6.715   1.103   4.817 -2.8425 -2.4257 -2.7946
  177MOL0     H23832   6.600   1.271   4.912  2.5456 -0.3912 -0.7733
  177MOL0     H23833   6.586   1.366   4.767  0.2628  2.4150  5.9095
  177MOL0     H23834   6.427   1.172   4.682  0.4425  0.6627 -0.3588
  177MOL0     H23835   6.443   1.097   4.843  2.1581 -0.0493  0.0461
  177MOL0     H23836   6.340   1.312   4.940 -1.4010  2.1692 -0.7840
  177MOL0     H23837   6.339   1.367   4.764  0.8468  0.6215  1.0381
  177MOL0     H23838   6.193   1.197   4.692  1.2790 -0.3159 -0.6573
  177MOL0     H23839   6.184   1.128   4.853  1.7702 -0.3658 -0.9857
  177MOL0     H23840   6.111   1.403   4.902  0.6246 -1.7750  1.0792
  177MOL0     H23841   6.071   1.383   4.736 -0.0794 -1.5903 -0.7176
  177MOL0     H23842   5.922   1.173   4.823  0.2137 -1.7689  2.6585
  177MOL0     H23843   5.961   1.240   4.980 -0.9947 -0.8100 -0.4067
  177MOL0     H23844   5.806   1.368   4.750  1.1437 -3.3235 -0.7677
  177MOL0     H23845   5.853   1.467   4.891  1.0429  0.0933 -2.9849
  177MOL0     H23846   5.546   1.350   4.767 -0.6294  0.6338 -1.1505
  177MOL0     H23847   5.308   1.398   5.073  4.3586  0.4091  0.6122
  177MOL0     H23848   5.317   1.444   4.914  4.0876  0.7918 -0.6132
  177MOL0     H23849   5.277   1.145   4.994 -1.4503  0.3083 -1.8345
  177MOL0     H23850   5.305   1.200   4.830  0.0594  0.7846 -0.9518
  177MOL0     H23851   5.094   1.329   4.863 -1.4955  0.0770 -0.2855
  177MOL0     H23852   5.093   1.288   5.037  2.0137  0.3176  0.3264
  177MOL0     H23853   5.065   1.047   4.977  0.0812 -3.0944 -1.5748
  177MOL0     H23854   5.088   1.076   4.821  1.8520  0.8323  1.7770
  177MOL0     H23855   4.709   1.218   4.770 -1.4837 -0.5472  2.3162
  177MOL0     H23856   4.498   1.181   4.695 -1.3504  0.0406  0.0308
  177MOL0     H23857   4.508   1.108   4.529  1.2643  0.9326  0.5852
  177MOL0     H23858   4.410   1.033   4.661  2.0256 -3.1398  1.6541
  177MOL0     H23859   4.629   0.590   4.346 -1.5631  3.3527  0.2287
  177MOL0     H23860   4.489   0.432   4.243  0.4046 -2.7226 -0.0904
  177MOL0     H23861   4.222   0.095   4.325  0.6684  0.4853 -1.8222
  177MOL0     H23862   4.263   0.149   4.487 -1.4286 -0.4682  0.3997
  177MOL0     H23863   4.079   0.309   4.466 -3.6445  0.7683 -0.2590
  177MOL0     H23864   4.016   0.233   4.326  0.4169 -0.3788  0.1558
  177MOL0     H23865   4.057   0.111   4.603 -0.2537  0.6079 -0.4128
  177MOL0     H23866   4.038   0.011   4.465 -1.7889 -0.4386 -0.1902
  177MOL0     H23867   3.843   0.226   4.576  2.3565 -0.0967  1.8267
  177MOL0     H23868   3.822   0.177   4.414 -2.9809 -0.3083  0.4522
  177MOL0     H23869   3.677   0.058   4.582 -1.3870 -0.9608 -1.9870
  177MOL0     H23870   3.815  -0.003   4.663 -1.6672  0.8553  0.2784
  177MOL0     H23871   3.744  -0.059   4.372 -1.4399  0.2811  1.9102
  177MOL0     H23872   3.874  -0.143   4.457 -1.4411 -3.3289  2.1618
  177MOL0     H23873   3.568  -0.167   4.516 -0.7117  0.2614  1.0487
  177MOL0     H23874   3.675  -0.202   4.640 -0.3900  1.5235 -0.6083
  177MOL0     H23875   3.797  -0.371   4.480  0.2495  0.2030  0.2363
  177MOL0     H23876   3.661  -0.347   4.370  0.5847 -0.3078 -0.0799
  177MOL0     H23877   4.279   0.349   4.599  1.5961 -0.8032  1.5737
  177MOL0     H23878   4.421   0.525   4.725  2.6776 -2.3838  0.5462
  177MOL0     H23879   4.796   0.742   4.733  2.0926  1.1787 -1.6106
  177MOL0     H23880   4.935   0.873   4.870  0.8291  2.6727  1.4554
  177MOL0     H23881   6.864   1.110   4.574 -0.2839 -2.8224  0.8307
  177MOL0     H23882   7.101   1.047   4.495 -1.7690  1.2314 -0.5936
  177MOL0     H23883   7.518   1.164   4.463 -0.5112  1.3142  1.7480
  177MOL0     H23884   7.760   1.156   4.374 -0.8214 -0.1576 -0.8485
  177MOL0     H23885   8.079   0.965   4.614 -1.9076 -0.7430 -0.5153
  177MOL0     H23886   8.023   0.844   4.511 -0.7891  0.6007 -0.5722
  177MOL0     H23887   8.236   1.051   4.419  0.4820  0.2110 -1.6451
  177MOL0     H23888   8.137   0.957   4.305  0.1899 -0.6218 -0.1688
  177MOL0     H23889   8.209   0.754   4.388 -1.7774 -0.1452  2.9177
  177MOL0     H23890   8.288   0.817   4.535 -0.6845 -2.1044 -0.6195
  177MOL0     H23891   8.460   0.926   4.402  2.4008 -3.3641  1.1287
  177MOL0     H23892   8.358   0.897   4.255  1.7680  1.9237  0.2495
  177MOL0     H23893   8.512   0.520   4.243  1.4543 -0.2626 -2.5074
  177MOL0     H23894   7.847   0.862   4.661 -0.8823  0.1410  0.4112
  177MOL0     H23895   7.616   0.856   4.750 -0.2938 -0.6468 -0.7056
  178MOL0     O23896   4.046   6.415   2.591 -0.3031  0.2932  0.9908
  178MOL0     C23897   4.090   6.501   2.518  0.2153  0.4941  0.0540
  178MOL0     O23898   4.010   6.590   2.458  0.4168 -0.1730  0.4726
  178MOL0     C23899   3.876   6.578   2.477 -0.4188  0.7297 -0.4474
  178MOL0     C23900   3.823   6.682   2.550  0.3829  0.0661 -0.7543
  178MOL0     C23901   3.682   6.692   2.574 -0.0883  0.4004 -1.1451
  178MOL0     C23902   3.599   6.588   2.523 -0.3666 -0.0705 -0.4654
  178MOL0     O23903   3.459   6.596   2.544 -0.9121  0.6385 -0.3187
  178MOL0     C23904   3.370   6.506   2.463 -0.0093 -0.6579 -0.0442
  178MOL0     C23905   3.216   6.549   2.474 -0.0015 -0.0997  0.3434
  178MOL0     C23906   3.145   6.475   2.573 -0.3297  0.3747  0.0078
  178MOL0     C23907   2.991   6.475   2.559  0.1558 -0.4036  0.1102
  178MOL0     C23908   2.935   6.446   2.694  0.2508 -0.1982  0.2686
  178MOL0     C23909   2.797   6.387   2.690 -0.2742 -0.5042 -0.8136
  178MOL0     C23910   2.686   6.489   2.688 -0.0661  1.1109  0.2742
  178MOL0     C23911   2.643   6.530   2.831 -0.3037  0.2231  0.2248
  178MOL0     N23912   2.514   6.599   2.831  0.0136  0.3842 -0.3834
  178MOL0     C23913   2.398   6.560   2.771 -0.8205 -1.1136  0.5762
  178MOL0     C23914   2.301   6.653   2.797  0.4545 -1.2180 -0.0477
  178MOL0     C23915   2.167   6.655   2.713 -0.2321  0.2242 -0.9931
  178MOL0     C23916   2.051   6.734   2.781 -0.0919  0.8930  0.2124
  178MOL0     C23917   1.927   6.719   2.680 -0.2635 -0.5511 -1.0384
  178MOL0     C23918   1.811   6.808   2.726 -0.7914  0.3782  0.3049
  178MOL0     O23919   1.706   6.793   2.626 -0.5227  0.0366  0.4130
  178MOL0     C23920   1.586   6.851   2.660 -0.0926  0.0455  0.3245
  178MOL0     C23921   1.487   6.773   2.727 -0.4412 -1.4206 -0.1834
  178MOL0     C23922   1.355   6.827   2.742 -0.6639  0.5311 -0.0877
  178MOL0     C23923   1.257   6.730   2.820 -0.7654 -0.9087  0.1239
  178MOL0     C23924   1.326   6.953   2.699  0.7976 -0.2414  0.2493
  178MOL0     C23925   1.190   7.014   2.696 -0.4367  0.7153  0.7155
  178MOL0     O23926   1.080   6.922   2.690 -0.3011  0.0625  0.0685
  178MOL0     C23927   0.961   6.994   2.680 -0.9221 -0.2128 -0.3227
  178MOL0     C23928   0.924   7.045   2.557  0.2069  0.1063  0.3097
  178MOL0     C23929   0.800   7.110   2.540 -0.5292  0.5246  0.3273
  178MOL0     C23930   0.714   7.128   2.646  0.1774  0.1378 -0.7756
  178MOL0     O23931   0.597   7.189   2.627  0.3623  0.5232  0.3954
  178MOL0     C23932   0.551   7.272   2.738 -0.2012  0.2602  0.2033
  178MOL0     C23933   0.421   7.340   2.713 -0.1129  0.3835 -1.0697
  178MOL0     C23934   0.453   7.461   2.628 -0.3541 -0.0323 -1.0986
  178MOL0     C23935   0.327   7.534   2.579 -0.1340 -0.0082  0.3751
  178MOL0     C23936   0.239   7.608   2.682 -0.4365  0.3124  0.9761
  178MOL0     C23937   0.217   7.754   2.629  0.0998  0.3854 -0.3017
  178MOL0     C23938   0.353   7.838   2.635  0.7308  0.3048  0.2802
  178MOL0     C23939   0.325   7.982   2.594 -1.4185  0.9828 -0.5320
  178MOL0    Cl23940   0.474   8.065   2.582  0.1592  0.2185  0.2439
  178MOL0     C23941   0.754   7.076   2.773 -0.5536  0.0288 -0.2204
  178MOL0     C23942   0.879   7.014   2.784  0.5387  0.2355  0.2727
  178MOL0     O23943   1.179   7.135   2.682  0.0109  0.6795 -0.2923
  178MOL0     C23944   1.428   7.028   2.638 -0.3856 -0.0518  0.1015
  178MOL0     C23945   1.560   6.978   2.617  0.4629  1.1601 -0.1061
  178MOL0     N23946   2.364   6.745   2.881  0.1238  0.8974  0.2436
  178MOL0     N23947   2.489   6.710   2.898  0.2491 -0.3587 -0.0012
  178MOL0     C23948   3.658   6.488   2.439 -0.5941  0.3860 -0.4447
  178MOL0     C23949   3.797   6.479   2.427  0.6529 -0.2911 -0.1084
  178MOL0     C23950   4.232   6.520   2.514  1.1906 -0.4347 -0.0487
  178MOL0     C23951   4.337   6.440   2.571  0.3097  0.7632 -0.1817
  178MOL0     C23952   4.468   6.481   2.588 -0.0324 -0.5810  0.1094
  178MOL0     C23953   4.504   6.603   2.535 -0.3332  0.7047  0.1034
  178MOL0     O23954   4.630   6.637   2.573 -0.1183 -0.1449 -0.4495
  178MOL0     C23955   4.660   6.777   2.568  0.5892  0.4391  0.1964
  178MOL0     C23956   4.798   6.781   2.631 -0.0951  0.0233 -0.2443
  178MOL0     C23957   4.916   6.718   2.566 -0.2924  1.0267  0.8828
  178MOL0     C23958   5.042   6.711   2.654  0.1929  0.3908  0.6894
  178MOL0     C23959   5.148   6.648   2.576 -0.6317  0.3305  0.5755
  178MOL0     C23960   5.228   6.609   2.492 -0.3171 -0.4785  0.2360
  178MOL0     C23961   4.416   6.678   2.460 -0.1482  0.5257  0.9550
  178MOL0     C23962   4.277   6.637   2.453  0.6421 -0.6711 -0.8402
  178MOL0     H23963   3.894   6.752   2.592  1.3953 -1.7748  0.7560
  178MOL0     H23964   3.643   6.765   2.645 -1.6507 -2.0517  0.6897
  178MOL0     H23965   3.399   6.523   2.359 -0.3330 -3.6291 -0.7118
  178MOL0     H23966   3.370   6.398   2.479 -0.9819 -0.5334  0.9412
  178MOL0     H23967   3.205   6.654   2.502  1.9781  0.5521 -1.0748
  178MOL0     H23968   3.167   6.523   2.379 -2.1900  1.0922  1.0761
  178MOL0     H23969   3.168   6.368   2.570 -1.7892  0.0593 -0.7199
  178MOL0     H23970   3.164   6.505   2.676  0.6085 -0.1959  0.0150
  178MOL0     H23971   2.957   6.577   2.536 -0.0700 -0.1295  1.5853
  178MOL0     H23972   2.957   6.411   2.477  3.1724 -0.9666 -0.8323
  178MOL0     H23973   2.995   6.362   2.731  1.3033  0.4657  0.0909
  178MOL0     H23974   2.947   6.531   2.762 -1.2240 -0.2851  0.6797
  178MOL0     H23975   2.777   6.324   2.603 -0.8914 -0.0003 -1.0459
  178MOL0     H23976   2.791   6.325   2.780 -0.7843  2.2014  1.1562
  178MOL0     H23977   2.707   6.581   2.633 -0.8228  0.8862 -0.4128
  178MOL0     H23978   2.601   6.440   2.638  0.1842 -0.8311  1.6325
  178MOL0     H23979   2.721   6.595   2.871 -0.4467  1.1810 -0.9908
  178MOL0     H23980   2.636   6.441   2.894 -1.2001  0.8784  1.0598
  178MOL0     H23981   2.387   6.491   2.688 -2.0897 -1.1600  0.7585
  178MOL0     H23982   2.190   6.705   2.619 -0.8021 -0.6844 -1.6313
  178MOL0     H23983   2.141   6.555   2.679 -1.1500  0.9728 -2.6116
  178MOL0     H23984   2.086   6.837   2.786  3.1399 -0.1108  0.5916
  178MOL0     H23985   2.028   6.711   2.885  0.4491  0.6206  0.2737
  178MOL0     H23986   1.897   6.614   2.673  2.5438 -1.4931 -0.0642
  178MOL0     H23987   1.937   6.747   2.575 -0.9748  6.1698  0.2058
  178MOL0     H23988   1.849   6.910   2.731  0.4386 -0.1125  1.5482
  178MOL0     H23989   1.773   6.789   2.826  3.2107 -1.2631  1.6952
  178MOL0     H23990   1.510   6.670   2.752  1.8236 -1.1262 -0.8055
  178MOL0     H23991   1.188   6.796   2.874 -1.4795 -0.7200 -0.9858
  178MOL0     H23992   1.202   6.670   2.747 -0.5304 -1.1335  0.1313
  178MOL0     H23993   1.317   6.673   2.892  0.3274  0.7418  0.5529
  178MOL0     H23994   0.996   7.042   2.476 -0.2901 -0.9054 -0.1140
  178MOL0     H23995   0.786   7.150   2.439  0.3306 -0.0246 -0.0171
  178MOL0     H23996   0.523   7.216   2.827 -0.7385  2.1182  1.2631
  178MOL0     H23997   0.630   7.344   2.761 -0.7851  2.0233 -2.7929
  178MOL0     H23998   0.354   7.268   2.667  2.0481 -0.6070 -2.8326
  178MOL0     H23999   0.381   7.378   2.807 -0.7103 -0.4045 -1.0000
  178MOL0     H24000   0.512   7.435   2.540  1.8302  1.4955 -0.1689
  178MOL0     H24001   0.509   7.538   2.682 -2.3655  0.9931 -0.3599
  178MOL0     H24002   0.354   7.610   2.505  1.2926 -1.0748 -0.2410
  178MOL0     H24003   0.263   7.459   2.532 -1.4116  1.1378  0.2094
  178MOL0     H24004   0.285   7.623   2.779  0.8601 -2.1034  0.8305
  178MOL0     H24005   0.141   7.560   2.687 -0.3495 -0.3114 -1.7014
  178MOL0     H24006   0.168   7.734   2.534  2.0255 -3.8239 -0.6135
  178MOL0     H24007   0.143   7.795   2.699  0.6116  1.5114 -0.4007
  178MOL0     H24008   0.429   7.785   2.576 -0.6155 -2.1344  0.5847
  178MOL0     H24009   0.396   7.839   2.736  1.3763  2.5341  0.0327
  178MOL0     H24010   0.279   8.025   2.684  0.4757  0.2074  0.8702
  178MOL0     H24011   0.268   7.987   2.500 -1.1253  1.5544 -0.6828
  178MOL0     H24012   0.690   7.084   2.860 -1.2112 -0.0937 -0.6862
  178MOL0     H24013   0.904   6.976   2.883  1.5769  2.3431  0.8856
  178MOL0     H24014   1.417   7.132   2.609  1.6500 -0.1827 -1.3812
  178MOL0     H24015   1.634   7.031   2.557  1.2921 -0.0273 -0.1771
  178MOL0     H24016   3.600   6.404   2.402 -0.2296 -0.2077  0.3121
  178MOL0     H24017   3.838   6.390   2.379  2.2378  2.1012 -3.5780
  178MOL0     H24018   4.308   6.346   2.616 -0.4656  0.6603 -0.8638
  178MOL0     H24019   4.531   6.419   2.651  0.8459 -0.5347 -0.6937
  178MOL0     H24020   4.657   6.820   2.468 -0.9712  0.4300  0.2120
  178MOL0     H24021   4.585   6.828   2.629  0.6863 -1.5358  2.1483
  178MOL0     H24022   4.783   6.729   2.726 -1.3420 -2.3391 -1.6390
  178MOL0     H24023   4.826   6.886   2.642  0.4728 -0.1316 -0.1446
  178MOL0     H24024   4.941   6.765   2.470  1.2730 -0.9845  0.2348
  178MOL0     H24025   4.887   6.617   2.533 -2.4855  2.3538 -1.7066
  178MOL0     H24026   5.012   6.658   2.745 -3.0748  2.9614  1.2975
  178MOL0     H24027   5.067   6.814   2.683 -1.5245  1.1429 -0.3706
  178MOL0     H24028   5.307   6.568   2.432  0.3584 -0.5444  1.1452
  178MOL0     H24029   4.448   6.775   2.422 -0.4470  0.8293  1.4631
  178MOL0     H24030   4.208   6.704   2.402 -2.8152 -1.3429  2.4832
  179MOL0     O24031  10.552   7.953   4.746  0.0090 -0.5056 -0.4037
  179MOL0     C24032  10.557   7.906   4.636  0.7983 -0.7640 -0.0847
  179MOL0     O24033  10.457   7.880   4.554 -0.3626 -0.5475  0.1026
  179MOL0     C24034  10.329   7.921   4.586 -0.5252 -0.1805 -0.4387
  179MOL0     C24035  10.227   7.821   4.585 -0.1693 -0.4085 -0.1514
  179MOL0     C24036  10.096   7.859   4.602 -0.1281  1.2155 -0.2765
  179MOL0     C24037  10.063   7.997   4.626  0.2358  0.6200  0.2767
  179MOL0     O24038   9.942   8.049   4.657  0.2825  0.3869  0.0263
  179MOL0     C24039   9.830   7.968   4.620 -1.8385  0.3706  0.0799
  179MOL0     C24040   9.699   8.039   4.645  0.4834  0.7261  0.0203
  179MOL0     C24041   9.668   8.089   4.795 -0.1375 -1.2753 -0.2242
  179MOL0     C24042   9.616   8.232   4.804 -0.6662 -0.1626  1.2893
  179MOL0     C24043   9.471   8.249   4.769  0.1455  0.5471 -0.1294
  179MOL0     C24044   9.419   8.395   4.797 -0.3180 -0.9147 -0.0234
  179MOL0     C24045   9.283   8.424   4.732 -0.0737 -0.9440 -0.2663
  179MOL0     C24046   9.295   8.431   4.584 -0.0478  0.3763  0.2624
  179MOL0     N24047   9.185   8.504   4.508  0.3027  0.9414 -0.1327
  179MOL0     C24048   9.072   8.444   4.446 -0.5137 -0.3340  0.4698
  179MOL0     C24049   8.982   8.533   4.417  0.0447 -0.2844 -0.8447
  179MOL0     C24050   8.847   8.520   4.352 -0.9507  0.2190 -0.0781
  179MOL0     C24051   8.734   8.507   4.461 -0.6389  0.5809  0.1000
  179MOL0     C24052   8.594   8.488   4.395 -0.0467  0.9211 -0.6105
  179MOL0     C24053   8.545   8.601   4.293 -0.1440 -0.6481 -0.4705
  179MOL0     O24054   8.486   8.710   4.373 -0.3052  0.3268 -0.0724
  179MOL0     C24055   8.351   8.720   4.377  0.2841 -0.5604  0.2415
  179MOL0     C24056   8.299   8.836   4.431  0.1126 -0.3871  0.8094
  179MOL0     C24057   8.160   8.864   4.438 -0.1776  0.6486  1.1621
  179MOL0     C24058   8.113   8.987   4.506 -0.2104 -0.2409 -0.2403
  179MOL0     C24059   8.068   8.771   4.380 -0.5584 -0.5431  0.7193
  179MOL0     C24060   7.924   8.783   4.387  0.6442  0.1216  0.0781
  179MOL0     O24061   7.875   8.908   4.404 -0.4808  0.5282  0.7123
  179MOL0     C24062   7.743   8.916   4.430 -0.2146  0.5257  0.2550
  179MOL0     C24063   7.646   8.877   4.336  0.6011  0.7822 -0.3138
  179MOL0     C24064   7.514   8.906   4.354 -0.0471  0.7125  1.5772
  179MOL0     C24065   7.467   8.972   4.465 -0.4035 -0.0572 -0.9460
  179MOL0     O24066   7.329   8.979   4.473  0.7931  0.1470  0.4257
  179MOL0     C24067   7.262   8.959   4.599 -0.3637 -0.4543 -0.8544
  179MOL0     C24068   7.111   8.934   4.571 -0.7210 -0.6943  0.4953
  179MOL0     C24069   7.054   8.907   4.703 -0.3082  0.1627 -0.0630
  179MOL0     C24070   6.901   8.892   4.687 -0.8988 -0.9462 -0.1608
  179MOL0     C24071   6.844   8.833   4.819  0.2008  0.0566  0.1926
  179MOL0     C24072   6.845   8.681   4.815 -0.3267 -0.2158 -0.2443
  179MOL0     C24073   6.734   8.628   4.720  0.5261 -0.0785  0.6074
  179MOL0     C24074   6.747   8.474   4.725  0.7447  0.4176  0.4714
  179MOL0    Cl24075   6.724   8.428   4.898  0.2881 -0.5603 -0.2420
  179MOL0     C24076   7.557   8.998   4.567 -1.0237 -0.4366 -0.0411
  179MOL0     C24077   7.695   8.975   4.546  0.4487  0.4937 -0.5366
  179MOL0     O24078   7.862   8.679   4.385 -0.4687  0.6123  0.3777
  179MOL0     C24079   8.125   8.654   4.323  0.2049 -0.3016 -0.0956
  179MOL0     C24080   8.261   8.629   4.324  0.6404 -0.7896 -0.0513
  179MOL0     N24081   9.043   8.651   4.462  0.4931  0.2118 -0.0994
  179MOL0     N24082   9.162   8.640   4.506 -0.5169  0.6248  0.1904
  179MOL0     C24083  10.159   8.095   4.605 -0.6333 -0.5821 -0.5083
  179MOL0     C24084  10.292   8.051   4.605  0.4380 -0.5018 -0.1973
  179MOL0     C24085  10.695   7.910   4.578  0.2784  0.6579 -0.4141
  179MOL0     C24086  10.802   7.961   4.653 -0.8059  0.5358 -0.3077
  179MOL0     C24087  10.929   7.970   4.598 -0.5547 -0.5782 -0.5038
  179MOL0     C24088  10.956   7.941   4.462  0.4216  0.2047 -0.4085
  179MOL0     O24089  11.084   7.956   4.415  0.3752  0.1271  0.2463
  179MOL0     C24090  11.118   7.947   4.278  0.3426  0.0311  0.3496
  179MOL0     C24091  11.083   8.072   4.198  0.1144 -0.4538 -0.1507
  179MOL0     C24092  11.179   8.078   4.069 -0.1253 -0.5859  0.3355
  179MOL0     C24093  11.118   8.163   3.958  0.3788 -1.2809 -0.5543
  179MOL0     C24094  11.039   8.080   3.872 -0.1956 -0.5284  0.3891
  179MOL0     C24095  10.982   8.011   3.787  0.3337  0.3132  0.1135
  179MOL0     C24096  10.851   7.880   4.391 -0.8554  0.4521 -1.3199
  179MOL0     C24097  10.726   7.868   4.446 -1.5519 -0.2110 -0.0766
  179MOL0     H24098  10.253   7.718   4.562 -1.1334 -0.3906 -1.4509
  179MOL0     H24099  10.018   7.784   4.598  0.0209  1.0785 -0.7007
  179MOL0     H24100   9.848   7.946   4.515  0.7862  0.1441  0.5140
  179MOL0     H24101   9.834   7.871   4.670  0.0404 -0.3070 -1.2643
  179MOL0     H24102   9.706   8.127   4.581  1.1316  1.3335  0.8912
  179MOL0     H24103   9.624   7.972   4.602  2.7823 -1.8276 -0.2976
  179MOL0     H24104   9.595   8.016   4.831  0.7641 -3.5755 -2.6919
  179MOL0     H24105   9.759   8.074   4.854  1.5160 -0.1759 -2.3766
  179MOL0     H24106   9.637   8.268   4.905  3.8107  1.1058  0.1582
  179MOL0     H24107   9.668   8.302   4.738 -1.6514 -0.1461  0.5062
  179MOL0     H24108   9.444   8.218   4.667  0.0103  1.4306 -0.3795
  179MOL0     H24109   9.418   8.182   4.837 -0.1853  0.0780 -0.8340
  179MOL0     H24110   9.404   8.417   4.904 -0.8948 -0.1104 -0.2560
  179MOL0     H24111   9.497   8.465   4.766  0.7331 -2.1817 -0.2928
  179MOL0     H24112   9.206   8.356   4.769 -2.9530  2.6809  0.9928
  179MOL0     H24113   9.249   8.521   4.769 -1.2993 -1.1779 -0.7367
  179MOL0     H24114   9.296   8.328   4.546  0.2349  0.5733 -0.2881
  179MOL0     H24115   9.390   8.470   4.546  0.0169 -1.1130 -1.2403
  179MOL0     H24116   9.055   8.340   4.418  0.7279  0.3542 -3.5715
  179MOL0     H24117   8.829   8.612   4.296 -1.2610  2.3063  3.1696
  179MOL0     H24118   8.853   8.434   4.286 -0.2453  1.9232 -2.3733
  179MOL0     H24119   8.734   8.593   4.530  2.3318  1.8537 -1.3066
  179MOL0     H24120   8.767   8.421   4.519  2.2460  1.2465 -0.4161
  179MOL0     H24121   8.513   8.466   4.464 -1.6929  2.0257 -2.1096
  179MOL0     H24122   8.593   8.398   4.333  0.7982  0.2581  0.3032
  179MOL0     H24123   8.489   8.560   4.209 -0.2748 -2.6179  0.5108
  179MOL0     H24124   8.636   8.642   4.247 -1.0143  3.0174  0.7199
  179MOL0     H24125   8.369   8.906   4.475  0.2776 -0.7024  1.0487
  179MOL0     H24126   8.070   9.057   4.434 -0.0686  1.4051  1.1901
  179MOL0     H24127   8.040   8.964   4.585  0.5198 -0.9190  0.2474
  179MOL0     H24128   8.193   9.033   4.564  0.2276 -1.6035  0.2735
  179MOL0     H24129   7.677   8.843   4.237  0.8987 -1.0589  0.3662
  179MOL0     H24130   7.454   8.887   4.266  1.7588  1.1794  0.2059
  179MOL0     H24131   7.307   8.867   4.639 -1.1403 -0.5894 -0.2754
  179MOL0     H24132   7.274   9.040   4.671 -1.1735 -0.2028 -0.9967
  179MOL0     H24133   7.069   9.020   4.519 -0.1182 -0.1774  0.8436
  179MOL0     H24134   7.101   8.842   4.513  0.2259 -0.3329 -0.2781
  179MOL0     H24135   7.084   8.981   4.778  0.8205  1.0284 -1.3258
  179MOL0     H24136   7.091   8.811   4.741 -1.4352  0.1880  1.1759
  179MOL0     H24137   6.863   8.992   4.667  2.4248  0.1870 -1.4412
  179MOL0     H24138   6.878   8.837   4.596  1.0661 -0.4912 -0.9824
  179MOL0     H24139   6.737   8.853   4.827 -0.2278 -2.2878  1.0636
  179MOL0     H24140   6.896   8.883   4.902 -0.6338  1.9199 -0.3467
  179MOL0     H24141   6.946   8.646   4.792  0.3189  1.3954 -0.0066
  179MOL0     H24142   6.836   8.652   4.920 -3.9144  1.3751  0.0269
  179MOL0     H24143   6.748   8.664   4.618 -0.0425  2.5142  1.3860
  179MOL0     H24144   6.633   8.660   4.747  0.6851  0.8657  0.1108
  179MOL0     H24145   6.834   8.434   4.671 -0.3508 -0.6571 -0.5553
  179MOL0     H24146   6.655   8.446   4.674  0.8063  0.8770  0.1033
  179MOL0     H24147   7.527   9.039   4.663  3.6455  0.1172  1.4423
  179MOL0     H24148   7.772   8.990   4.621  1.5839  0.6994 -1.7015
  179MOL0     H24149   8.065   8.574   4.281  1.5193 -0.6081 -1.4793
  179MOL0     H24150   8.298   8.543   4.268  1.0843 -0.9651  0.5054
  179MOL0     H24151  10.127   8.199   4.606 -2.0692 -0.9668 -1.9097
  179MOL0     H24152  10.373   8.122   4.600  0.9770 -1.1980 -2.1474
  179MOL0     H24153  10.797   7.989   4.757 -1.2445 -1.8071  0.3636
  179MOL0     H24154  11.019   8.003   4.649 -0.7036  2.1450 -1.8139
  179MOL0     H24155  11.223   7.920   4.270 -0.7410 -4.7407 -0.7625
  179MOL0     H24156  11.072   7.857   4.234 -0.6311  0.5701  0.2334
  179MOL0     H24157  11.099   8.155   4.268  0.2357 -2.4012  2.2380
  179MOL0     H24158  10.978   8.056   4.172  0.2111 -0.6511 -0.4246
  179MOL0     H24159  11.214   7.978   4.041  4.3970  0.3102  2.0172
  179MOL0     H24160  11.266   8.138   4.096  0.4684 -1.5439  0.5961
  179MOL0     H24161  11.190   8.228   3.908  0.3183  1.0450  2.1124
  179MOL0     H24162  11.053   8.235   4.010  1.7173 -0.4204 -0.0185
  179MOL0     H24163  10.956   7.935   3.716  3.6281 -2.9241  1.9692
  179MOL0     H24164  10.858   7.846   4.288 -2.7643  1.2041 -1.7492
  179MOL0     H24165  10.640   7.828   4.394 -1.9639  0.0729  0.3714
  180MOL0     O24166   4.222   6.424   3.847 -0.6439  0.5341 -1.0877
  180MOL0     C24167   4.263   6.493   3.751 -0.3475  0.8440 -0.3919
  180MOL0     O24168   4.178   6.534   3.650 -0.3154  0.3707 -0.0117
  180MOL0     C24169   4.054   6.481   3.656 -0.5611 -0.1378  1.2234
  180MOL0     C24170   4.007   6.394   3.557  0.4465 -0.3090 -0.8507
  180MOL0     C24171   3.878   6.341   3.552 -0.3509  0.1642 -0.9937
  180MOL0     C24172   3.784   6.385   3.649  1.0527  0.8726  1.2625
  180MOL0     O24173   3.658   6.333   3.627 -0.1459 -0.2973 -0.6423
  180MOL0     C24174   3.539   6.394   3.680  0.7720  0.0558 -1.0866
  180MOL0     C24175   3.421   6.414   3.585 -0.1006  0.2569 -0.5544
  180MOL0     C24176   3.466   6.506   3.470 -0.5412 -0.1172 -0.3900
  180MOL0     C24177   3.367   6.525   3.358 -0.0442 -0.0764  0.9299
  180MOL0     C24178   3.416   6.625   3.252  0.1710  0.6999  0.1583
  180MOL0     C24179   3.306   6.660   3.152 -0.2293 -0.0463  1.0866
  180MOL0     C24180   3.350   6.748   3.034  0.4004  0.5907 -0.7090
  180MOL0     C24181   3.268   6.718   2.907  0.0502  0.1928 -0.0176
  180MOL0     N24182   3.129   6.759   2.929  0.5395 -0.3789 -0.1716
  180MOL0     C24183   3.086   6.889   2.956  0.8823 -0.8018 -0.0659
  180MOL0     C24184   2.950   6.881   2.981 -0.4513 -0.2614  0.3156
  180MOL0     C24185   2.863   7.000   3.004  0.2008 -0.2885 -0.0687
  180MOL0     C24186   2.715   6.972   3.001  0.5413  0.5820  0.4453
  180MOL0     C24187   2.635   7.109   3.005 -0.4162 -0.4376 -0.0648
  180MOL0     C24188   2.491   7.076   2.976 -0.4200 -0.0930 -0.0932
  180MOL0     O24189   2.409   7.191   2.965  0.1285  0.5887  0.1340
  180MOL0     C24190   2.275   7.176   2.938 -0.4338 -0.1174  0.0200
  180MOL0     C24191   2.207   7.295   2.891 -0.1438  0.3424  0.2437
  180MOL0     C24192   2.068   7.312   2.898 -0.3060  0.6891  0.0987
  180MOL0     C24193   2.025   7.448   2.855 -0.2927 -0.3719 -0.6067
  180MOL0     C24194   1.991   7.201   2.926  0.9403  0.6369  0.2172
  180MOL0     C24195   1.841   7.214   2.927 -1.1008  0.1702  0.7629
  180MOL0     O24196   1.794   7.336   2.912 -0.2249  0.3992 -0.0837
  180MOL0     C24197   1.669   7.380   2.911  1.0017  0.3857  0.1294
  180MOL0     C24198   1.637   7.513   2.947  0.0882 -0.6280  0.5721
  180MOL0     C24199   1.505   7.558   2.926  0.7850 -0.5835 -0.2733
  180MOL0     C24200   1.405   7.479   2.875 -0.3623 -0.4442  0.0023
  180MOL0     O24201   1.277   7.528   2.861 -0.4061 -0.0077  0.0521
  180MOL0     C24202   1.181   7.476   2.764  0.6470 -0.0474 -0.2928
  180MOL0     C24203   1.056   7.567   2.747 -0.6160  0.2117 -0.3683
  180MOL0     C24204   0.959   7.506   2.643  1.2825 -0.2198 -0.1159
  180MOL0     C24205   0.825   7.578   2.648  0.2897  0.3197 -1.2147
  180MOL0     C24206   0.843   7.716   2.590 -0.6686 -0.0295 -1.1051
  180MOL0     C24207   0.710   7.763   2.533 -0.6403  0.3766  0.8838
  180MOL0     C24208   0.715   7.733   2.378 -0.4425 -0.9808  0.2829
  180MOL0     C24209   0.778   7.839   2.288  0.2328  0.3928 -0.2353
  180MOL0    Cl24210   0.665   7.972   2.282  0.2024  0.4350  0.1036
  180MOL0     C24211   1.440   7.345   2.841 -0.0673 -0.5294 -0.1424
  180MOL0     C24212   1.568   7.296   2.853  0.1575 -0.4616  0.0268
  180MOL0     O24213   1.775   7.109   2.938 -0.0044  0.2249  0.1103
  180MOL0     C24214   2.054   7.077   2.964 -0.9443  0.2868  0.3299
  180MOL0     C24215   2.195   7.068   2.983 -0.3300 -0.7371  0.3165
  180MOL0     N24216   2.910   6.742   2.964 -0.2614 -0.7430 -0.0033
  180MOL0     N24217   3.018   6.675   2.942 -0.0454 -0.7136 -0.4842
  180MOL0     C24218   3.834   6.459   3.758  0.4152  0.1650  0.3113
  180MOL0     C24219   3.967   6.522   3.759  0.0182  0.4324  0.4550
  180MOL0     C24220   4.397   6.558   3.757  0.3339  0.6091 -0.4073
  180MOL0     C24221   4.487   6.529   3.864  0.8149 -0.4703 -0.8738
  180MOL0     C24222   4.604   6.608   3.869  0.6077  0.3929  0.2740
  180MOL0     C24223   4.641   6.694   3.763  0.5373  0.6277 -0.1369
  180MOL0     O24224   4.752   6.771   3.765 -0.6107  0.6976 -0.6608
  180MOL0     C24225   4.838   6.769   3.876  0.3417 -0.3276 -0.2639
  180MOL0     C24226   4.925   6.880   3.861  0.2955 -1.4750  0.4663
  180MOL0     C24227   5.055   6.859   3.925  0.3776 -0.1879  0.3056
  180MOL0     C24228   5.153   6.973   3.896 -0.4102 -0.0033 -0.3532
  180MOL0     C24229   5.209   7.032   4.021  0.0301 -0.8665  0.7305
  180MOL0     C24230   5.261   7.087   4.113  0.4347 -1.1131 -0.3277
  180MOL0     C24231   4.555   6.710   3.651  0.3977 -0.4958 -0.2492
  180MOL0     C24232   4.432   6.640   3.653  0.0320 -0.9112 -1.0931
  180MOL0     H24233   4.074   6.341   3.491 -0.8257 -2.3601 -0.5843
  180MOL0     H24234   3.839   6.282   3.470  1.9479 -0.1334 -1.9379
  180MOL0     H24235   3.495   6.329   3.756  0.5195  2.3759  0.9030
  180MOL0     H24236   3.572   6.479   3.741  1.3023  0.2147 -1.5827
  180MOL0     H24237   3.407   6.312   3.547  2.2756  0.0652 -1.1228
  180MOL0     H24238   3.330   6.449   3.633  0.1495  2.0154 -1.2890
  180MOL0     H24239   3.479   6.605   3.513 -1.3660  0.9269 -2.4059
  180MOL0     H24240   3.559   6.469   3.426 -1.8347 -2.1559 -1.6255
  180MOL0     H24241   3.344   6.428   3.315  3.7338 -0.9557  0.6249
  180MOL0     H24242   3.271   6.565   3.395  0.2920  0.1397  1.5888
  180MOL0     H24243   3.454   6.716   3.298 -1.4547  1.7982 -0.6017
  180MOL0     H24244   3.494   6.575   3.193 -0.0214 -0.5980  0.9642
  180MOL0     H24245   3.262   6.567   3.115  0.0439 -0.1060  0.9074
  180MOL0     H24246   3.223   6.713   3.202  0.3595  3.2549 -1.1236
  180MOL0     H24247   3.348   6.853   3.065  2.7573  0.1097  1.3578
  180MOL0     H24248   3.453   6.725   3.008 -0.1693 -0.5378 -2.0939
  180MOL0     H24249   3.273   6.611   2.887  1.2124 -0.2714  2.3712
  180MOL0     H24250   3.313   6.767   2.820 -2.8251  1.2803 -1.0048
  180MOL0     H24251   3.152   6.975   2.955  2.6158 -2.0668 -0.0004
  180MOL0     H24252   2.897   7.042   3.099 -0.4104 -1.9395  0.9238
  180MOL0     H24253   2.883   7.076   2.928 -1.2308  1.3302  1.1185
  180MOL0     H24254   2.683   6.930   3.097  1.4477  0.5946  0.7599
  180MOL0     H24255   2.684   6.907   2.918 -2.5526  3.9429 -1.2865
  180MOL0     H24256   2.665   7.168   2.918  0.0943 -3.7248 -2.3123
  180MOL0     H24257   2.646   7.165   3.098 -0.6727  0.3033 -0.4709
  180MOL0     H24258   2.460   7.000   3.047  0.3114  0.4697  0.8535
  180MOL0     H24259   2.496   7.028   2.878 -0.0488 -0.1329 -0.0590
  180MOL0     H24260   2.276   7.376   2.870  1.7647  0.1775  4.6778
  180MOL0     H24261   1.969   7.437   2.762  1.3481  1.3197 -1.8489
  180MOL0     H24262   1.977   7.507   2.933  1.9613  0.6460  0.0923
  180MOL0     H24263   2.112   7.507   2.825  2.6456 -2.2139  3.3520
  180MOL0     H24264   1.718   7.581   2.969  0.7119 -0.8211 -1.0208
  180MOL0     H24265   1.484   7.658   2.960  0.0207 -1.1505  0.9605
  180MOL0     H24266   1.239   7.484   2.672  0.4117 -0.4652 -0.4803
  180MOL0     H24267   1.134   7.378   2.780  0.3121  0.4303  2.0778
  180MOL0     H24268   1.015   7.570   2.848 -0.8451 -0.0538 -0.4520
  180MOL0     H24269   1.102   7.661   2.715  3.8393 -1.7104 -0.3279
  180MOL0     H24270   0.938   7.401   2.664 -1.2560  0.5285  1.5501
  180MOL0     H24271   0.988   7.525   2.540 -1.4938  1.5758 -0.6822
  180MOL0     H24272   0.741   7.524   2.603 -0.8077 -0.8822  2.0233
  180MOL0     H24273   0.789   7.593   2.750  0.5104 -2.0360 -0.7322
  180MOL0     H24274   0.923   7.731   2.517  0.7114 -0.9633  0.1616
  180MOL0     H24275   0.876   7.783   2.670 -0.2976 -0.5845 -0.7848
  180MOL0     H24276   0.619   7.720   2.576 -1.1705 -0.8983 -1.3230
  180MOL0     H24277   0.705   7.872   2.541  1.9999  0.5652  0.9235
  180MOL0     H24278   0.616   7.708   2.338 -0.1028  1.9437 -2.8175
  180MOL0     H24279   0.785   7.651   2.361 -1.3457 -1.6790 -0.1532
  180MOL0     H24280   0.778   7.783   2.193  1.4708  0.1634 -0.1147
  180MOL0     H24281   0.884   7.855   2.311  0.4241 -0.5142 -0.4173
  180MOL0     H24282   1.365   7.284   2.792 -0.5235 -0.7863  0.8545
  180MOL0     H24283   1.589   7.199   2.810 -0.5083 -0.4529 -0.3160
  180MOL0     H24284   1.990   6.990   2.972 -1.3738  0.5397 -0.2020
  180MOL0     H24285   2.230   6.969   3.012 -0.1388 -0.7997 -0.1190
  180MOL0     H24286   3.765   6.491   3.834  2.0335  1.4637  1.2896
  180MOL0     H24287   4.005   6.596   3.829  0.6824  2.3614 -1.8232
  180MOL0     H24288   4.447   6.466   3.943  0.0351 -0.9076 -1.6062
  180MOL0     H24289   4.676   6.603   3.950  2.0676 -0.8900 -1.0406
  180MOL0     H24290   4.792   6.767   3.976 -3.1290 -0.8202 -1.7059
  180MOL0     H24291   4.897   6.677   3.878  0.9472  0.0404 -1.1171
  180MOL0     H24292   4.882   6.971   3.904 -0.5126 -0.0625 -2.9863
  180MOL0     H24293   4.942   6.899   3.754  0.7172 -2.7088  0.3043
  180MOL0     H24294   5.090   6.756   3.909  0.0903 -0.3977  1.0162
  180MOL0     H24295   5.031   6.866   4.031 -2.4129  1.6536 -0.3440
  180MOL0     H24296   5.103   7.059   3.851 -1.0297 -0.2021 -0.0517
  180MOL0     H24297   5.238   6.943   3.834 -1.0881 -1.3357 -0.6764
  180MOL0     H24298   5.325   7.131   4.188 -0.0559  1.7046 -1.4116
  180MOL0     H24299   4.577   6.773   3.566  1.6811 -2.8377 -1.7518
  180MOL0     H24300   4.374   6.653   3.562  0.5708  3.6655 -1.0082
  181MOL0     O24301  10.604   0.312   7.236  1.0836 -0.1212 -0.4580
  181MOL0     C24302  10.613   0.248   7.343  0.6314 -0.6093  0.5755
  181MOL0     O24303  10.509   0.218   7.424  0.5577  0.1064 -0.2954
  181MOL0     C24304  10.382   0.201   7.379  1.0489  0.2817 -0.9384
  181MOL0     C24305  10.309   0.295   7.310  0.5938  0.5794  0.3085
  181MOL0     C24306  10.179   0.273   7.260  0.1965  0.1221 -0.1286
  181MOL0     C24307  10.118   0.140   7.280  0.2446  0.5147  0.3242
  181MOL0     O24308   9.994   0.099   7.242 -0.5487 -0.1612 -0.0238
  181MOL0     C24309   9.989   0.088   7.097 -0.6286 -0.6051  0.1847
  181MOL0     C24310   9.835   0.063   7.062  0.3469 -0.0786 -0.8931
  181MOL0     C24311   9.798   0.070   6.915 -0.3251  0.1985 -0.6826
  181MOL0     C24312   9.732   0.204   6.884 -0.2119  0.8344  0.2656
  181MOL0     C24313   9.589   0.196   6.926  0.7672 -0.5027 -0.5951
  181MOL0     C24314   9.496   0.204   6.804 -0.5131 -0.1779  0.5198
  181MOL0     C24315   9.344   0.247   6.836 -0.3501 -0.3735  0.0548
  181MOL0     C24316   9.248   0.210   6.726 -0.7049  0.0780 -0.4576
  181MOL0     N24317   9.115   0.217   6.787  0.1242  0.4016  0.2105
  181MOL0     C24318   9.034   0.330   6.805 -0.1502 -0.4016 -0.2658
  181MOL0     C24319   8.913   0.286   6.844  0.0242 -1.0241  0.0129
  181MOL0     C24320   8.815   0.377   6.909 -0.1677  0.2493  0.0702
  181MOL0     C24321   8.686   0.301   6.931 -0.8038 -0.0948 -0.4220
  181MOL0     C24322   8.694   0.190   7.048 -0.7365 -0.2770  0.2939
  181MOL0     C24323   8.555   0.162   7.108  0.8992 -0.7637  0.4418
  181MOL0     O24324   8.483   0.077   7.021 -0.0264 -0.3518  0.6369
  181MOL0     C24325   8.349   0.085   7.042 -0.1653  0.0652  0.2620
  181MOL0     C24326   8.280   0.132   6.931  0.3593 -0.1515  0.0325
  181MOL0     C24327   8.140   0.133   6.926 -0.0117  0.2864  0.4490
  181MOL0     C24328   8.073   0.175   6.795 -0.5326 -0.1745 -0.0982
  181MOL0     C24329   8.067   0.093   7.039  1.0857 -0.1839 -0.0631
  181MOL0     C24330   7.915   0.096   7.071 -0.2879  0.1397  0.7489
  181MOL0     O24331   7.869   0.025   7.182  0.0306 -0.3014  0.1709
  181MOL0     C24332   7.733   0.019   7.197  0.0468 -0.2300  0.6760
  181MOL0     C24333   7.676   0.082   7.305  0.1178  0.1713  0.4363
  181MOL0     C24334   7.539   0.074   7.326 -0.4697 -0.0564  0.2270
  181MOL0     C24335   7.453   0.015   7.242  0.2710  0.4231  0.6512
  181MOL0     O24336   7.315   0.007   7.254  0.8963  0.7554  0.4662
  181MOL0     C24337   7.245   0.063   7.365  0.1483  0.7720  0.3805
  181MOL0     C24338   7.231  -0.043   7.482 -0.1523 -0.0386 -0.5817
  181MOL0     C24339   7.105  -0.123   7.475 -0.4565 -0.5299 -0.6831
  181MOL0     C24340   6.986  -0.041   7.539 -0.8952 -0.0918  0.0558
  181MOL0     C24341   6.924  -0.115   7.657  1.0648  0.3194  0.5073
  181MOL0     C24342   6.835  -0.018   7.736 -0.1819 -0.3913 -0.4360
  181MOL0     C24343   6.759  -0.100   7.841  0.5157  0.6165 -0.0007
  181MOL0     C24344   6.735  -0.030   7.982  0.1057  0.5237  0.0056
  181MOL0    Cl24345   6.895  -0.034   8.056  0.2627  0.2316 -0.5689
  181MOL0     C24346   7.508  -0.043   7.129 -0.2827 -0.3928  0.4363
  181MOL0     C24347   7.645  -0.042   7.102 -0.1851  0.7831 -0.1455
  181MOL0     O24348   7.851   0.153   6.986  0.3993  0.1225 -0.5178
  181MOL0     C24349   8.140   0.067   7.155 -0.4702  0.4675  0.3528
  181MOL0     C24350   8.279   0.054   7.157 -0.0085 -0.4694  0.0896
  181MOL0     N24351   8.925   0.146   6.843  1.1599 -0.0369 -0.3261
  181MOL0     N24352   9.039   0.103   6.812 -0.2216  0.2325  0.0662
  181MOL0     C24353  10.194   0.039   7.349 -0.0868 -0.2082  0.2632
  181MOL0     C24354  10.315   0.074   7.403 -0.0742  0.0804  0.5824
  181MOL0     C24355  10.752   0.224   7.392  0.3708 -0.0452 -1.0440
  181MOL0     C24356  10.868   0.285   7.344 -0.0853  0.4071  0.2343
  181MOL0     C24357  10.989   0.251   7.397  0.0373 -0.1337  1.2259
  181MOL0     C24358  11.004   0.173   7.513  0.2665 -0.0866  0.8968
  181MOL0     O24359  11.122   0.150   7.579  0.1781 -0.1948  1.3231
  181MOL0     C24360  11.243   0.173   7.503 -0.5561  0.2071  0.2337
  181MOL0     C24361  11.356   0.137   7.607  0.3590  0.0385 -0.1408
  181MOL0     C24362  11.497   0.181   7.569  0.0102 -0.7350  0.1152
  181MOL0     C24363  11.550   0.103   7.447  0.0196 -0.6349  0.5940
  181MOL0     C24364  11.680   0.157   7.401  0.5855  0.0815  0.3084
  181MOL0     C24365  11.786   0.206   7.379 -0.2021 -0.0072 -0.5538
  181MOL0     C24366  10.887   0.137   7.571 -0.5260 -0.6954  0.5525
  181MOL0     C24367  10.763   0.161   7.513 -0.3393  0.6906  0.8560
  181MOL0     H24368  10.338   0.399   7.299  0.5975  0.6123  0.6108
  181MOL0     H24369  10.134   0.357   7.207  2.6851  0.8043 -1.3137
  181MOL0     H24370  10.042   0.169   7.046  1.3813 -1.1191  1.3574
  181MOL0     H24371  10.051   0.005   7.061 -1.1393 -0.9908  0.1855
  181MOL0     H24372   9.797  -0.027   7.112 -2.4711  3.0691  3.3629
  181MOL0     H24373   9.785   0.145   7.114  0.0438  0.0849 -1.4359
  181MOL0     H24374   9.886   0.072   6.849  2.0633  1.0298  2.3145
  181MOL0     H24375   9.737  -0.014   6.881 -0.3503  0.4262 -1.2076
  181MOL0     H24376   9.782   0.286   6.938  0.7866 -1.0089  2.3021
  181MOL0     H24377   9.753   0.234   6.781  2.3663  0.1729  0.5285
  181MOL0     H24378   9.564   0.112   6.990  2.4613 -0.8378 -0.3331
  181MOL0     H24379   9.575   0.285   6.987 -2.7510 -2.2926  1.5194
  181MOL0     H24380   9.537   0.259   6.720 -0.6357 -1.7571 -0.6207
  181MOL0     H24381   9.493   0.104   6.759  3.1106 -0.8580  1.5143
  181MOL0     H24382   9.314   0.203   6.932 -1.5312  3.4018  1.5826
  181MOL0     H24383   9.338   0.354   6.854 -2.7050 -0.1634 -1.5223
  181MOL0     H24384   9.267   0.108   6.692 -0.1607 -0.4668  1.3464
  181MOL0     H24385   9.265   0.272   6.638  2.2029  0.0013 -0.0478
  181MOL0     H24386   9.055   0.437   6.807 -3.5126  0.4856  4.2785
  181MOL0     H24387   8.867   0.398   7.003  1.7982  0.2797 -0.9821
  181MOL0     H24388   8.814   0.466   6.845 -1.0003 -0.3191 -0.7460
  181MOL0     H24389   8.668   0.249   6.836  0.5125 -1.4133  0.0128
  181MOL0     H24390   8.605   0.373   6.948 -0.2196  1.1946 -2.6973
  181MOL0     H24391   8.765   0.228   7.122 -2.9049 -1.4934  3.2051
  181MOL0     H24392   8.740   0.101   7.006  0.5782 -0.4902  2.0833
  181MOL0     H24393   8.505   0.258   7.125 -0.9279 -1.4014 -1.0176
  181MOL0     H24394   8.554   0.114   7.207 -1.4643 -3.6351 -0.8325
  181MOL0     H24395   8.332   0.153   6.838  2.0054 -2.1548  0.4278
  181MOL0     H24396   7.993   0.103   6.777  0.5473 -0.9292 -2.2320
  181MOL0     H24397   8.033   0.274   6.819  1.7368  0.8348 -0.1626
  181MOL0     H24398   8.150   0.193   6.720  0.8695  0.0242  1.3318
  181MOL0     H24399   7.735   0.134   7.380 -0.0340 -0.9343  1.3526
  181MOL0     H24400   7.500   0.138   7.405 -2.0270  0.8600 -1.2121
  181MOL0     H24401   7.270   0.169   7.375  1.0068  0.7608 -1.3089
  181MOL0     H24402   7.142   0.061   7.327 -0.1718 -0.9736  1.2222
  181MOL0     H24403   7.321  -0.102   7.463  0.6466  1.3644 -1.3270
  181MOL0     H24404   7.248   0.008   7.577  2.2424  1.7871 -1.8830
  181MOL0     H24405   7.119  -0.213   7.534 -3.8442 -0.1359  0.9422
  181MOL0     H24406   7.092  -0.164   7.374  1.6099  0.7365 -1.5406
  181MOL0     H24407   7.019   0.058   7.572 -0.3295 -0.5887  1.0468
  181MOL0     H24408   6.898  -0.018   7.477 -1.2845  0.1735  0.6904
  181MOL0     H24409   6.999  -0.161   7.723  1.7670 -1.1482 -1.2224
  181MOL0     H24410   6.859  -0.197   7.626 -0.2908  0.7145  2.1647
  181MOL0     H24411   6.892   0.060   7.787  0.5013 -2.0839  1.5423
  181MOL0     H24412   6.756   0.026   7.675 -0.0185 -0.0733 -0.4214
  181MOL0     H24413   6.806  -0.197   7.857  2.1567  1.3660 -0.0154
  181MOL0     H24414   6.663  -0.128   7.798  1.3646 -1.6305 -0.5614
  181MOL0     H24415   6.664  -0.086   8.044 -0.7814 -0.0612 -1.4882
  181MOL0     H24416   6.704   0.075   7.979  2.2079  1.2443  1.1587
  181MOL0     H24417   7.446  -0.104   7.064  1.3832 -1.4192 -0.2781
  181MOL0     H24418   7.697  -0.087   7.018  1.1884 -1.2759  1.6768
  181MOL0     H24419   8.090   0.051   7.251 -0.2650 -0.7811  0.2690
  181MOL0     H24420   8.333   0.036   7.250  0.1061  1.6630  0.4876
  181MOL0     H24421  10.147  -0.052   7.385  1.0231 -0.1339  2.0032
  181MOL0     H24422  10.373   0.001   7.458 -3.1259 -1.5571  1.8783
  181MOL0     H24423  10.880   0.346   7.255  1.5352 -0.5052 -0.2205
  181MOL0     H24424  11.081   0.284   7.350  1.4511 -3.2842  1.4921
  181MOL0     H24425  11.254   0.114   7.411  3.0443  0.9783  0.0138
  181MOL0     H24426  11.254   0.279   7.478 -0.5799  0.2710  0.4912
  181MOL0     H24427  11.358   0.028   7.610 -0.6680 -0.0983 -2.5945
  181MOL0     H24428  11.328   0.180   7.704  2.3344  0.0058  0.4931
  181MOL0     H24429  11.555   0.143   7.653 -1.2572 -4.1979 -0.4094
  181MOL0     H24430  11.501   0.290   7.563  2.9386 -0.8388 -1.3505
  181MOL0     H24431  11.479   0.109   7.364  3.6098  1.3060 -2.6490
  181MOL0     H24432  11.557  -0.000   7.483 -2.7427  0.0456  3.5717
  181MOL0     H24433  11.884   0.233   7.347  1.8968 -6.1388 -0.6606
  181MOL0     H24434  10.900   0.082   7.664  1.3579 -2.3805 -0.6425
  181MOL0     H24435  10.676   0.132   7.571  0.0030 -1.2548  0.4776
  182MOL0     O24436  10.391   8.531  10.877 -0.6138 -0.0049 -0.6340
  182MOL0     C24437  10.423   8.549  10.759 -0.5362  0.0014  0.0242
  182MOL0     O24438  10.362   8.632  10.663  0.6629  0.5597 -0.4184
  182MOL0     C24439  10.279   8.726  10.716 -0.3668 -0.0340  0.2351
  182MOL0     C24440  10.321   8.817  10.820  0.2103 -0.0964  0.8020
  182MOL0     C24441  10.229   8.914  10.873 -0.0276  0.5694  0.7729
  182MOL0     C24442  10.095   8.922  10.812 -0.6514  0.4030 -0.2909
  182MOL0     O24443   9.998   9.011  10.862 -0.9778 -0.4789 -0.6236
  182MOL0     C24444  10.043   9.129  10.930 -0.1712  0.2052  1.3933
  182MOL0     C24445   9.933   9.229  10.952  0.0110  0.0147  0.7751
  182MOL0     C24446   9.807   9.203  11.028 -0.2500  0.2311  0.8373
  182MOL0     C24447   9.830   9.249  11.169 -0.3454 -0.4956  0.8981
  182MOL0     C24448   9.716   9.210  11.271  0.2551  0.3103  0.0916
  182MOL0     C24449   9.695   9.064  11.302 -0.6183  0.7027  0.8162
  182MOL0     C24450   9.612   9.041  11.422 -0.0683  0.0482  0.4668
  182MOL0     C24451   9.462   9.020  11.391 -1.3061  0.1281  0.3956
  182MOL0     N24452   9.408   8.891  11.432  0.3089  0.3622  0.4449
  182MOL0     C24453   9.422   8.772  11.359 -0.9771  0.5261 -0.4232
  182MOL0     C24454   9.322   8.699  11.399 -0.4012 -0.5748 -0.5232
  182MOL0     C24455   9.306   8.561  11.345  0.1684 -0.2505 -0.0868
  182MOL0     C24456   9.167   8.510  11.365 -0.1986  0.0242  0.4425
  182MOL0     C24457   9.069   8.557  11.258  0.7015  0.3640  0.6367
  182MOL0     C24458   9.011   8.703  11.267 -0.9769 -0.3918  0.1725
  182MOL0     O24459   8.953   8.738  11.145  0.7204  0.0037  0.5029
  182MOL0     C24460   8.842   8.814  11.141  0.5404 -0.0926 -0.1719
  182MOL0     C24461   8.818   8.922  11.232 -0.5611 -0.2029  0.6388
  182MOL0     C24462   8.708   9.004  11.229 -0.1820  0.1310  0.0854
  182MOL0     C24463   8.697   9.114  11.327  0.3519 -0.1887 -0.4191
  182MOL0     C24464   8.605   8.971  11.133 -0.2012  0.2093  0.3187
  182MOL0     C24465   8.484   9.052  11.112 -0.3013  0.9948  0.0902
  182MOL0     O24466   8.398   9.009  11.012 -0.4253 -0.3904 -0.2710
  182MOL0     C24467   8.284   9.060  10.973  0.1547 -0.2435  0.4834
  182MOL0     C24468   8.173   9.000  11.024  0.3263 -0.1862  0.0650
  182MOL0     C24469   8.046   9.043  10.982  0.2674 -0.1512 -0.2530
  182MOL0     C24470   8.031   9.136  10.873 -0.1121  0.6124  0.5007
  182MOL0     O24471   7.914   9.155  10.810 -0.8700 -0.1092  0.1854
  182MOL0     C24472   7.877   9.295  10.816 -0.0626  0.3373  0.1901
  182MOL0     C24473   7.729   9.299  10.807  0.9299 -1.1532  0.7416
  182MOL0     C24474   7.649   9.204  10.900 -0.0825  0.1615  0.3509
  182MOL0     C24475   7.504   9.213  10.868  0.0814  0.1770 -0.0732
  182MOL0     C24476   7.437   9.340  10.919 -0.5559  0.5074 -0.1401
  182MOL0     C24477   7.381   9.321  11.060  0.6799 -0.1411  0.2827
  182MOL0     C24478   7.260   9.228  11.056 -0.6324 -0.1720 -0.4918
  182MOL0     C24479   7.138   9.284  11.122  0.0153  0.4004  0.4386
  182MOL0    Cl24480   7.003   9.167  11.108 -0.2789  0.2768  0.0144
  182MOL0     C24481   8.148   9.187  10.814 -0.0955  0.3973  0.6283
  182MOL0     C24482   8.272   9.149  10.864  1.0964 -0.1387 -0.0116
  182MOL0     O24483   8.471   9.156  11.174 -0.0449  0.8599 -0.3649
  182MOL0     C24484   8.619   8.863  11.042  0.0871  0.6310 -0.1293
  182MOL0     C24485   8.742   8.797  11.041 -0.1357  0.1013 -0.4803
  182MOL0     N24486   9.256   8.765  11.501 -0.0990 -0.3198  0.2034
  182MOL0     N24487   9.306   8.879  11.521 -0.0936 -0.1026  0.3065
  182MOL0     C24488  10.056   8.831  10.712 -0.9917 -0.5382 -0.8029
  182MOL0     C24489  10.144   8.726  10.669  0.5388  0.0550 -0.7995
  182MOL0     C24490  10.536   8.462  10.713 -0.2958  0.2051 -0.1911
  182MOL0     C24491  10.566   8.334  10.763  0.5309  0.0850 -0.3141
  182MOL0     C24492  10.691   8.275  10.734  0.0981  0.5466  0.0187
  182MOL0     C24493  10.771   8.326  10.631  0.3175 -0.3839  0.0423
  182MOL0     O24494  10.889   8.272  10.580 -0.0132  0.5754  0.0238
  182MOL0     C24495  10.931   8.147  10.632  0.4916  0.5670  0.2987
  182MOL0     C24496  11.037   8.084  10.540 -0.0446 -1.1952 -0.9412
  182MOL0     C24497  10.991   8.078  10.404  0.3020  0.1568  0.1801
  182MOL0     C24498  11.097   8.019  10.308  0.5905 -0.5625 -0.4248
  182MOL0     C24499  11.235   8.073  10.309  0.0715 -0.7362  0.9133
  182MOL0     C24500  11.354   8.094  10.322 -0.6892  0.2112 -0.3767
  182MOL0     C24501  10.734   8.451  10.573 -0.0216  0.1989 -0.2226
  182MOL0     C24502  10.625   8.523  10.624  1.3126  0.0680  0.0661
  182MOL0     H24503  10.420   8.812  10.864 -0.7391  1.8268  3.3385
  182MOL0     H24504  10.253   8.974  10.960 -2.1646 -0.3995  2.1312
  182MOL0     H24505  10.086   9.097  11.026  0.1780 -0.3959  1.0407
  182MOL0     H24506  10.114   9.181  10.865 -2.1531 -0.0344 -1.1258
  182MOL0     H24507   9.973   9.324  10.990 -2.7600  1.3186  0.7004
  182MOL0     H24508   9.902   9.243  10.848  2.2628 -0.1864  0.0252
  182MOL0     H24509   9.723   9.260  10.987  1.2569  0.6296 -1.9289
  182MOL0     H24510   9.784   9.096  11.027  0.4718  0.0344 -1.9450
  182MOL0     H24511   9.929   9.222  11.208 -0.5622 -1.3736  0.8686
  182MOL0     H24512   9.822   9.358  11.165 -0.6894 -0.5604 -2.0949
  182MOL0     H24513   9.727   9.268  11.363  0.2886  0.1337  0.1995
  182MOL0     H24514   9.623   9.241  11.221  1.5179  0.3177 -2.4431
  182MOL0     H24515   9.666   9.001  11.217 -2.0247  0.0451  1.7522
  182MOL0     H24516   9.797   9.036  11.328 -0.0776  2.0401  0.2433
  182MOL0     H24517   9.651   8.953  11.475  2.2820 -0.0061 -1.2205
  182MOL0     H24518   9.635   9.128  11.485  1.4416  0.3136 -0.4291
  182MOL0     H24519   9.467   9.030  11.282  2.2518  0.9115  0.5216
  182MOL0     H24520   9.407   9.101  11.440 -2.3215 -1.1720  1.5239
  182MOL0     H24521   9.495   8.741  11.284 -2.6542 -1.1628 -1.4395
  182MOL0     H24522   9.345   8.553  11.243 -0.6924 -1.6280 -0.3347
  182MOL0     H24523   9.368   8.502  11.413  0.6534  1.3883  0.9403
  182MOL0     H24524   9.127   8.552  11.458 -1.0117  2.8179 -1.0432
  182MOL0     H24525   9.162   8.401  11.366 -1.8295 -0.0097 -2.1384
  182MOL0     H24526   8.986   8.485  11.256  1.0977 -0.1489  1.5352
  182MOL0     H24527   9.114   8.545  11.159 -2.4715  0.4438 -0.9305
  182MOL0     H24528   9.103   8.762  11.278 -0.0890 -1.8418  0.8552
  182MOL0     H24529   8.946   8.720  11.353  1.5788 -0.8694  2.3362
  182MOL0     H24530   8.892   8.948  11.307  0.3986 -0.4806 -0.2008
  182MOL0     H24531   8.702   9.206  11.268  1.2297 -0.8539 -1.4151
  182MOL0     H24532   8.600   9.112  11.378  0.6811 -0.7521  0.1937
  182MOL0     H24533   8.777   9.119  11.401 -0.7427  1.4698  0.7141
  182MOL0     H24534   8.194   8.941  11.112 -0.7625  1.5589  1.5727
  182MOL0     H24535   7.966   8.993  11.035 -0.7124  0.3593 -1.2121
  182MOL0     H24536   7.903   9.351  10.906  1.5630 -1.3894  0.8597
  182MOL0     H24537   7.926   9.348  10.734  0.2858 -0.6765 -0.2823
  182MOL0     H24538   7.698   9.404  10.813  0.2192 -1.3466  0.5950
  182MOL0     H24539   7.699   9.281  10.703  2.3757 -2.3253  0.5060
  182MOL0     H24540   7.665   9.224  11.007 -4.1502  2.1219  0.7595
  182MOL0     H24541   7.674   9.103  10.868 -0.6420  0.2930 -0.5201
  182MOL0     H24542   7.500   9.206  10.759 -1.4084  0.1937 -0.0479
  182MOL0     H24543   7.454   9.125  10.910 -0.8317 -0.6676 -2.7239
  182MOL0     H24544   7.361   9.361  10.843 -0.5596 -1.7789 -0.8280
  182MOL0     H24545   7.509   9.422  10.912  0.8478 -0.5835  0.9682
  182MOL0     H24546   7.458   9.282  11.127  2.9050  1.5560 -1.1555
  182MOL0     H24547   7.350   9.423  11.084  2.5409  0.6020 -0.2676
  182MOL0     H24548   7.285   9.131  11.100 -1.6559  0.1596  0.8834
  182MOL0     H24549   7.236   9.212  10.950 -0.6500 -1.3765 -0.3184
  182MOL0     H24550   7.118   9.380  11.074  3.7923  0.7063 -0.9396
  182MOL0     H24551   7.171   9.308  11.223  0.7368 -1.7862  0.7833
  182MOL0     H24552   8.147   9.248  10.725  1.1356  0.5507  0.6922
  182MOL0     H24553   8.370   9.175  10.826  1.0504  1.6129  0.9700
  182MOL0     H24554   8.540   8.843  10.970 -1.3714  2.6395  0.8181
  182MOL0     H24555   8.751   8.719  10.966 -2.5109 -0.1256 -0.6141
  182MOL0     H24556   9.956   8.839  10.669 -0.0731  0.9039 -2.8547
  182MOL0     H24557  10.112   8.657  10.591 -2.6550  0.7974 -0.2852
  182MOL0     H24558  10.513   8.280  10.841 -0.0149  1.2804  0.1657
  182MOL0     H24559  10.721   8.183  10.784 -1.1457  1.4687  2.6347
  182MOL0     H24560  10.961   8.145  10.737  2.3203  1.5647 -0.1679
  182MOL0     H24561  10.848   8.075  10.633  0.0286  1.0564  2.7348
  182MOL0     H24562  11.063   7.987  10.583  1.1319 -0.1799  0.7457
  182MOL0     H24563  11.131   8.140  10.548 -1.1968  0.5580  1.5623
  182MOL0     H24564  10.954   8.176  10.370 -0.9552  0.1947  1.5372
  182MOL0     H24565  10.906   8.010  10.410 -0.6856  1.2432  7.1196
  182MOL0     H24566  11.062   8.018  10.205  2.3218 -2.3960 -1.0574
  182MOL0     H24567  11.084   7.913  10.329 -1.1526 -0.2502  0.1974
  182MOL0     H24568  11.457   8.124  10.315 -0.5466 -0.3468 -0.7319
  182MOL0     H24569  10.792   8.491  10.491  3.2481 -1.7532  0.9550
  182MOL0     H24570  10.589   8.621  10.593 -1.7557 -0.3834  1.7633
  183MOL0     O24571   9.898   1.270   3.667 -0.3618  0.0414  0.4883
  183MOL0     C24572   9.857   1.250   3.551 -0.4077 -0.2266 -0.2952
  183MOL0     O24573   9.723   1.233   3.512 -0.2359 -0.1763 -0.3407
  183MOL0     C24574   9.621   1.233   3.604  0.4925  0.0640 -0.3145
  183MOL0     C24575   9.614   1.306   3.722 -0.0325 -0.3989 -0.1564
  183MOL0     C24576   9.505   1.289   3.806  0.5494 -0.2160  0.3146
  183MOL0     C24577   9.394   1.209   3.777  0.0544 -0.5173 -0.5652
  183MOL0     O24578   9.285   1.206   3.864  0.6670  0.0666 -0.0774
  183MOL0     C24579   9.222   1.330   3.895 -0.4341  0.4554 -0.7346
  183MOL0     C24580   9.103   1.360   3.807 -0.6616 -0.4445  0.6700
  183MOL0     C24581   8.992   1.248   3.802 -0.5805 -0.0228 -0.0764
  183MOL0     C24582   8.867   1.300   3.740  0.4006 -0.5328 -0.2922
  183MOL0     C24583   8.767   1.191   3.723  0.7939 -0.1451 -0.0931
  183MOL0     C24584   8.653   1.258   3.651  0.0332 -0.2734 -1.0222
  183MOL0     C24585   8.519   1.196   3.693 -0.0191 -0.4921 -0.7364
  183MOL0     C24586   8.482   1.053   3.656 -0.5367 -0.2019  0.3595
  183MOL0     N24587   8.357   1.012   3.723  0.4970  0.0037 -0.5128
  183MOL0     C24588   8.339   0.987   3.855 -0.4660 -0.1092 -0.4047
  183MOL0     C24589   8.203   0.952   3.863 -0.5094  0.5056 -0.2701
  183MOL0     C24590   8.131   0.927   3.987 -0.7250 -0.2078  0.4798
  183MOL0     C24591   8.083   0.780   3.996  0.2584  0.4852  0.0036
  183MOL0     C24592   8.008   0.736   4.127  0.1316 -0.4819 -0.2815
  183MOL0     C24593   7.875   0.815   4.147  0.4969 -0.4194  0.4659
  183MOL0     O24594   7.784   0.763   4.050  0.0822 -0.5546  0.0309
  183MOL0     C24595   7.652   0.795   4.061 -0.2181  0.2095  0.5406
  183MOL0     C24596   7.587   0.857   4.172 -0.3460 -0.2859  0.6561
  183MOL0     C24597   7.443   0.879   4.179 -0.3134 -0.7527  0.5020
  183MOL0     C24598   7.392   0.932   4.310  0.0084 -0.4415  0.5759
  183MOL0     C24599   7.364   0.854   4.060 -0.2687  0.0204 -0.0775
  183MOL0     C24600   7.232   0.889   4.040  0.2580 -0.5178  1.1442
  183MOL0     O24601   7.195   0.908   3.908  1.0506 -0.7466  0.0404
  183MOL0     C24602   7.064   0.909   3.866 -0.1643  0.1235  0.2035
  183MOL0     C24603   6.949   0.845   3.914  0.7116 -0.0822 -0.8861
  183MOL0     C24604   6.826   0.860   3.852  0.0279  0.7795  0.5000
  183MOL0     C24605   6.816   0.940   3.739 -0.1140  0.2401  0.2805
  183MOL0     O24606   6.705   0.949   3.672 -0.1846  0.5887  0.8039
  183MOL0     C24607   6.580   0.895   3.717  0.3956 -0.0725 -0.4121
  183MOL0     C24608   6.525   0.981   3.827 -0.1220  0.2486  0.0834
  183MOL0     C24609   6.412   0.907   3.897 -0.2125  0.7356 -0.4033
  183MOL0     C24610   6.282   0.916   3.822 -0.8616 -0.4639  0.5238
  183MOL0     C24611   6.179   0.844   3.902  0.2714 -0.1387 -0.0743
  183MOL0     C24612   6.036   0.852   3.834  0.1013  0.1023 -0.2573
  183MOL0     C24613   5.962   0.723   3.876  0.1666  0.4862 -0.6586
  183MOL0     C24614   5.823   0.719   3.832 -0.0500  0.0926 -0.7456
  183MOL0    Cl24615   5.722   0.825   3.934  0.5328 -0.5653  0.2519
  183MOL0     C24616   6.924   1.004   3.692 -0.6624  0.2436  0.1984
  183MOL0     C24617   7.055   0.992   3.755 -0.0558 -0.0315 -0.1347
  183MOL0     O24618   7.154   0.904   4.137 -0.2360  0.2350  1.1105
  183MOL0     C24619   7.434   0.800   3.951  0.3168  0.2625 -0.7909
  183MOL0     C24620   7.569   0.767   3.953 -0.2926  0.7827  0.2474
  183MOL0     N24621   8.139   0.968   3.738 -0.1277 -0.3198  0.8139
  183MOL0     N24622   8.239   0.983   3.655 -0.8047 -0.0352 -1.5662
  183MOL0     C24623   9.398   1.144   3.655 -0.0266  0.1997 -0.3654
  183MOL0     C24624   9.514   1.152   3.571  0.1657 -0.2048 -0.2078
  183MOL0     C24625   9.950   1.249   3.436  0.2741  0.3016 -0.0235
  183MOL0     C24626   9.906   1.260   3.293  0.0510 -0.0238  0.6526
  183MOL0     C24627   9.995   1.255   3.182  0.4705 -0.1858 -0.6470
  183MOL0     C24628  10.131   1.233   3.214 -0.1408 -0.6271 -0.4720
  183MOL0     O24629  10.221   1.234   3.104  0.6228  0.0836 -0.3278
  183MOL0     C24630  10.361   1.212   3.126  0.6002  0.3257  0.0884
  183MOL0     C24631  10.448   1.260   3.009 -0.3239  0.3858 -0.5046
  183MOL0     C24632  10.449   1.411   2.984 -0.7000 -0.3993  0.1195
  183MOL0     C24633  10.515   1.496   3.096  1.0059 -0.6155  0.0280
  183MOL0     C24634  10.504   1.641   3.047 -0.0725  0.6740  0.4772
  183MOL0     C24635  10.488   1.753   3.018  0.0024  0.1770 -0.7785
  183MOL0     C24636  10.176   1.223   3.349  0.3659 -0.7152  0.0561
  183MOL0     C24637  10.088   1.237   3.453  0.0524 -0.5230 -0.4438
  183MOL0     H24638   9.691   1.366   3.769 -0.8684  1.9543 -1.6092
  183MOL0     H24639   9.513   1.344   3.900 -0.7463  2.2365 -0.9076
  183MOL0     H24640   9.182   1.326   3.997 -0.6898  2.8328 -0.6784
  183MOL0     H24641   9.293   1.414   3.895  2.7493 -1.7916  3.4958
  183MOL0     H24642   9.056   1.451   3.846 -2.3331 -1.3833  0.9082
  183MOL0     H24643   9.140   1.387   3.707 -0.4479  2.6599  1.4797
  183MOL0     H24644   9.027   1.171   3.732 -3.2522  0.4287 -2.0760
  183MOL0     H24645   8.965   1.205   3.899  2.1890 -0.6060  0.5224
  183MOL0     H24646   8.829   1.373   3.812 -1.5367 -1.8544  0.1131
  183MOL0     H24647   8.896   1.357   3.652  1.8469  0.2600  0.6590
  183MOL0     H24648   8.810   1.104   3.672 -0.0415 -0.1522 -0.7986
  183MOL0     H24649   8.730   1.161   3.822  0.0782 -0.5361 -0.4711
  183MOL0     H24650   8.646   1.365   3.677 -0.9178 -0.7788  0.9978
  183MOL0     H24651   8.678   1.253   3.544 -0.0861 -1.2452 -1.0123
  183MOL0     H24652   8.495   1.226   3.795  0.0806 -0.1485 -0.8131
  183MOL0     H24653   8.443   1.248   3.633  0.5924 -0.4957 -1.5272
  183MOL0     H24654   8.567   0.992   3.687 -0.2526 -0.0778 -0.1498
  183MOL0     H24655   8.465   1.046   3.548 -5.2032 -2.6799  1.0099
  183MOL0     H24656   8.410   0.980   3.937  1.3802 -1.6340 -2.0388
  183MOL0     H24657   8.198   0.947   4.072  1.3466  1.0564 -1.3362
  183MOL0     H24658   8.043   0.989   3.969 -2.6589 -2.6495  0.9451
  183MOL0     H24659   8.172   0.719   3.978 -0.7355 -0.5758 -1.6507
  183MOL0     H24660   8.020   0.763   3.908 -0.1338  1.9446 -0.0224
  183MOL0     H24661   8.081   0.756   4.206  2.1990  2.1126 -2.6686
  183MOL0     H24662   7.982   0.630   4.113 -0.8995 -1.6152  6.5903
  183MOL0     H24663   7.901   0.921   4.140  2.4566 -0.8913  0.1304
  183MOL0     H24664   7.841   0.787   4.247 -0.5338 -0.5964  0.0809
  183MOL0     H24665   7.651   0.897   4.250  0.3717  1.0603 -0.5807
  183MOL0     H24666   7.301   0.876   4.331 -0.6740 -0.1888 -1.5101
  183MOL0     H24667   7.456   0.909   4.396 -2.2985  1.3687  2.9039
  183MOL0     H24668   7.360   1.037   4.311  0.9615 -0.0512 -2.1287
  183MOL0     H24669   6.960   0.798   4.012  3.4836  2.5727  0.2268
  183MOL0     H24670   6.741   0.814   3.901  1.2967 -0.6892  1.4124
  183MOL0     H24671   6.516   0.883   3.630  0.0467 -0.3246 -0.1200
  183MOL0     H24672   6.595   0.793   3.754  0.5629  0.2182  0.3478
  183MOL0     H24673   6.608   1.001   3.896  1.2616 -0.5964 -1.2575
  183MOL0     H24674   6.484   1.078   3.797  1.9001  1.3031  0.5354
  183MOL0     H24675   6.409   0.951   3.997  2.3444 -0.6919  0.4051
  183MOL0     H24676   6.436   0.802   3.914 -0.4465  0.9380  1.3342
  183MOL0     H24677   6.259   1.022   3.811  2.5943  0.3391 -0.4314
  183MOL0     H24678   6.290   0.867   3.724 -0.5306 -0.2577  0.4450
  183MOL0     H24679   6.177   0.909   3.991  5.4231  0.5489 -0.1144
  183MOL0     H24680   6.221   0.749   3.935 -0.4721  0.1499  1.8573
  183MOL0     H24681   5.972   0.939   3.852 -2.4989 -1.8966  0.7464
  183MOL0     H24682   6.055   0.838   3.727 -0.8640 -1.0827 -0.2899
  183MOL0     H24683   5.953   0.708   3.985 -1.4012 -1.4324 -0.9907
  183MOL0     H24684   6.022   0.644   3.829 -0.5093  0.8518 -2.1786
  183MOL0     H24685   5.782   0.617   3.825  1.9460 -0.6321 -4.0992
  183MOL0     H24686   5.821   0.763   3.732 -0.0789  1.7847 -0.0224
  183MOL0     H24687   6.921   1.062   3.600 -1.4938  1.3031  0.8552
  183MOL0     H24688   7.142   1.050   3.725  1.3752 -2.4663 -1.0017
  183MOL0     H24689   7.378   0.752   3.871 -2.5992  2.3027 -0.1390
  183MOL0     H24690   7.614   0.722   3.865  1.7292  1.6062  0.8104
  183MOL0     H24691   9.319   1.074   3.631  0.0788  0.7673 -2.5587
  183MOL0     H24692   9.516   1.087   3.484  2.1408 -0.8346  0.2502
  183MOL0     H24693   9.803   1.291   3.279  0.6836  1.8264 -0.3241
  183MOL0     H24694   9.953   1.278   3.085 -1.1067 -0.2342 -0.0077
  183MOL0     H24695  10.395   1.261   3.217 -1.9133 -0.0590  1.3421
  183MOL0     H24696  10.365   1.103   3.134 -1.7273 -0.0577 -2.1895
  183MOL0     H24697  10.401   1.211   2.923 -1.7601  2.1111 -0.7676
  183MOL0     H24698  10.553   1.234   3.019 -0.7712 -0.6587  2.4937
  183MOL0     H24699  10.345   1.445   2.985 -1.7268 -3.1008  2.5637
  183MOL0     H24700  10.495   1.440   2.889 -1.5489 -2.0116 -0.8296
  183MOL0     H24701  10.622   1.477   3.096  1.2214  0.5261 -0.1336
  183MOL0     H24702  10.474   1.485   3.197 -0.8773  1.1829 -0.4496
  183MOL0     H24703  10.467   1.855   2.993 -1.6822  0.3984  1.3033
  183MOL0     H24704  10.280   1.207   3.374  0.8498  0.8800 -0.8065
  183MOL0     H24705  10.124   1.226   3.554 -0.7081  2.9405  0.3408
  184MOL0     O24706   6.569  10.953   8.676  0.0936 -0.1008 -0.8250
  184MOL0     C24707   6.583  10.849   8.612  0.4439  0.0322  0.2276
  184MOL0     O24708   6.482  10.788   8.538  0.1496  0.2655 -0.1920
  184MOL0     C24709   6.358  10.852   8.518 -0.3060  0.5937  0.6430
  184MOL0     C24710   6.356  10.963   8.438  0.3890 -0.4664  0.1274
  184MOL0     C24711   6.239  11.036   8.423  0.1626 -0.1077 -0.6036
  184MOL0     C24712   6.123  10.988   8.490  1.2472 -0.2896 -0.5158
  184MOL0     O24713   5.997  11.050   8.491 -0.2292 -0.1569  0.7902
  184MOL0     C24714   5.984  11.166   8.405 -0.5646  0.3993 -0.5316
  184MOL0     C24715   5.841  11.209   8.405  0.0287  1.6926 -0.2638
  184MOL0     C24716   5.827  11.354   8.368 -0.0989  0.3657  0.3764
  184MOL0     C24717   5.773  11.372   8.225  0.2808 -0.8174 -0.2544
  184MOL0     C24718   5.787  11.517   8.176 -0.2375 -0.0336 -0.4230
  184MOL0     C24719   5.733  11.526   8.031 -0.7919 -0.6038 -0.2067
  184MOL0     C24720   5.749  11.670   7.993 -0.1739 -0.6230  1.5446
  184MOL0     C24721   5.892  11.714   7.959  0.4816 -0.8970  0.2574
  184MOL0     N24722   5.874  11.830   7.866 -0.2433  0.8711 -0.4526
  184MOL0     C24723   5.830  11.810   7.743  0.2049 -0.3527  0.4772
  184MOL0     C24724   5.787  11.936   7.713 -0.7177  0.7651  0.1863
  184MOL0     C24725   5.698  11.971   7.591 -0.7920 -0.2736 -0.2377
  184MOL0     C24726   5.554  11.934   7.621  0.6746  0.2511 -0.3294
  184MOL0     C24727   5.467  11.953   7.500 -0.1731  0.3331  0.0347
  184MOL0     C24728   5.330  11.969   7.555  0.3004 -0.5819  0.8230
  184MOL0     O24729   5.241  11.976   7.444 -0.1004  1.1043  0.1724
  184MOL0     C24730   5.111  12.015   7.457 -0.3421  0.0555 -0.4517
  184MOL0     C24731   5.047  12.032   7.578 -0.2459  0.5357 -0.4668
  184MOL0     C24732   4.911  12.055   7.586 -0.4884 -0.6138 -0.4133
  184MOL0     C24733   4.848  12.069   7.722  0.5263 -0.7038  0.6401
  184MOL0     C24734   4.833  12.078   7.469 -0.5703 -1.0880 -0.6037
  184MOL0     C24735   4.684  12.097   7.469  0.3243  0.4793 -0.2372
  184MOL0     O24736   4.625  12.157   7.362 -0.4712 -0.9150 -0.7704
  184MOL0     C24737   4.492  12.189   7.362  0.2028 -0.0320  0.9392
  184MOL0     C24738   4.412  12.217   7.476  0.2476 -0.0038  0.5125
  184MOL0     C24739   4.278  12.244   7.460 -0.2170  0.4113  1.1080
  184MOL0     C24740   4.220  12.257   7.330 -0.4699  0.2592 -0.7091
  184MOL0     O24741   4.087  12.279   7.321  0.3708 -0.1721 -0.3189
  184MOL0     C24742   4.018  12.232   7.199 -0.2414 -0.5174  0.2451
  184MOL0     C24743   3.871  12.205   7.239  0.4545 -0.2120 -0.1115
  184MOL0     C24744   3.788  12.164   7.117 -0.4646 -0.5362  0.5857
  184MOL0     C24745   3.708  12.280   7.060  0.0970  0.0867  0.3282
  184MOL0     C24746   3.672  12.271   6.905  1.1799  0.6061  0.5457
  184MOL0     C24747   3.555  12.176   6.878  0.3887 -0.3123 -0.0555
  184MOL0     C24748   3.566  12.103   6.750  0.0911  0.1860  0.0363
  184MOL0     C24749   3.564  12.203   6.624  0.2997 -1.1626  0.1214
  184MOL0    Cl24750   3.397  12.274   6.622 -0.3207  0.4214 -0.5253
  184MOL0     C24751   4.299  12.236   7.210 -0.1801  0.7177 -0.0868
  184MOL0     C24752   4.430  12.196   7.230  0.2259  0.2457  0.8017
  184MOL0     O24753   4.619  12.040   7.560 -0.5946 -0.7405  0.5161
  184MOL0     C24754   4.902  12.082   7.350 -0.0576 -0.2685 -0.2438
  184MOL0     C24755   5.038  12.048   7.342 -1.0526  0.7468  1.1491
  184MOL0     N24756   5.824  12.023   7.813  0.1279  0.2579  0.5239
  184MOL0     N24757   5.886  11.960   7.906  0.8341  0.9557 -0.0110
  184MOL0     C24758   6.133  10.876   8.577  0.6420 -0.8276  0.6038
  184MOL0     C24759   6.253  10.802   8.590  0.3238 -0.0361 -0.7529
  184MOL0     C24760   6.706  10.770   8.614  0.1842 -0.1765 -0.3075
  184MOL0     C24761   6.699  10.645   8.555 -0.5664  0.4083 -0.1459
  184MOL0     C24762   6.820  10.567   8.558  0.5871 -0.0428  0.7296
  184MOL0     C24763   6.932  10.601   8.624 -0.2474  0.0021 -0.3179
  184MOL0     O24764   7.061  10.540   8.618 -0.1909 -0.8177 -0.5565
  184MOL0     C24765   7.065  10.405   8.566  0.3581 -0.1652 -0.6967
  184MOL0     C24766   7.210  10.355   8.577 -0.9692  0.2769  0.3638
  184MOL0     C24767   7.237  10.211   8.514 -0.9547  0.2658  0.3752
  184MOL0     C24768   7.393  10.169   8.487  0.2840 -0.4243 -0.0962
  184MOL0     C24769   7.386  10.027   8.447 -0.6414  0.4706 -0.1842
  184MOL0     C24770   7.389   9.911   8.398 -0.0483  0.2225 -0.3509
  184MOL0     C24771   6.925  10.712   8.708  0.4499 -0.7982  0.1366
  184MOL0     C24772   6.817  10.805   8.688 -0.0626  0.0842 -0.5555
  184MOL0     H24773   6.437  10.996   8.375  0.4508  0.5611  0.7190
  184MOL0     H24774   6.236  11.131   8.371  1.8958  0.9799  1.1147
  184MOL0     H24775   6.026  11.253   8.455 -0.4493 -0.8767  1.7325
  184MOL0     H24776   6.005  11.144   8.300 -2.9693 -0.8553 -0.8265
  184MOL0     H24777   5.775  11.141   8.350 -0.3104  1.0388  0.9156
  184MOL0     H24778   5.811  11.195   8.509 -2.0689 -1.6787 -1.1415
  184MOL0     H24779   5.770  11.412   8.441 -0.5692  1.4981 -0.8376
  184MOL0     H24780   5.923  11.406   8.374 -0.2906  0.8361 -0.5357
  184MOL0     H24781   5.843  11.312   8.166 -0.7787 -0.4455 -1.9597
  184MOL0     H24782   5.676  11.325   8.209 -0.0634 -0.4894  0.7841
  184MOL0     H24783   5.728  11.570   8.251 -3.1343 -2.4875 -0.7476
  184MOL0     H24784   5.888  11.552   8.195 -0.2496  0.6485 -1.4929
  184MOL0     H24785   5.796  11.464   7.967 -0.5000  1.0891 -1.6390
  184MOL0     H24786   5.626  11.504   8.028 -1.3068  1.7026 -3.4670
  184MOL0     H24787   5.694  11.670   7.899 -2.3986 -0.8344  2.7737
  184MOL0     H24788   5.689  11.741   8.051 -1.2343 -2.3800  2.7080
  184MOL0     H24789   5.941  11.638   7.898 -0.8350 -1.5274 -0.0518
  184MOL0     H24790   5.959  11.736   8.043  0.4235 -4.3141  1.3565
  184MOL0     H24791   5.823  11.719   7.684  3.5102 -2.0128  2.3551
  184MOL0     H24792   5.717  12.078   7.574  0.0023 -0.2050  0.9228
  184MOL0     H24793   5.731  11.916   7.503 -3.1417 -1.0369 -0.7083
  184MOL0     H24794   5.526  11.990   7.711 -0.0504  1.0330 -1.0213
  184MOL0     H24795   5.547  11.826   7.634  0.1613 -0.9658 -7.2753
  184MOL0     H24796   5.482  11.866   7.435  0.3858 -0.6759  1.4749
  184MOL0     H24797   5.507  12.036   7.441 -0.1727  0.7399  0.6107
  184MOL0     H24798   5.313  12.061   7.612 -1.8041  0.0630 -0.7105
  184MOL0     H24799   5.301  11.886   7.620 -1.3061 -0.2464  0.5797
  184MOL0     H24800   5.094  11.996   7.669 -1.4176  1.2729  0.4500
  184MOL0     H24801   4.929  12.064   7.795  1.1750  2.0008  0.1826
  184MOL0     H24802   4.813  12.171   7.739  0.5088 -0.2644 -1.7101
  184MOL0     H24803   4.765  11.999   7.739  0.1343 -1.0405 -2.1739
  184MOL0     H24804   4.437  12.239   7.579  0.5367  1.3974  0.1655
  184MOL0     H24805   4.213  12.253   7.547  0.2635 -2.7769  1.9460
  184MOL0     H24806   4.021  12.307   7.118  0.1720 -0.3187  0.4424
  184MOL0     H24807   4.058  12.138   7.161 -1.2109 -0.2925 -1.4456
  184MOL0     H24808   3.876  12.116   7.303  2.2313 -0.8897 -1.0889
  184MOL0     H24809   3.826  12.291   7.288  1.5704  1.5325 -1.9848
  184MOL0     H24810   3.725  12.080   7.148  0.1576 -1.4554 -0.5499
  184MOL0     H24811   3.853  12.121   7.040 -1.5812 -0.7248 -0.2682
  184MOL0     H24812   3.623  12.300   7.126 -0.2409 -1.2320  0.3091
  184MOL0     H24813   3.772  12.368   7.068  2.4243 -1.5664  0.7827
  184MOL0     H24814   3.762  12.241   6.850  1.5357 -1.6160  2.1884
  184MOL0     H24815   3.640  12.372   6.879  0.3172  1.2775  3.7109
  184MOL0     H24816   3.554  12.093   6.949 -1.5497  0.7578  1.2755
  184MOL0     H24817   3.461  12.229   6.899  1.1174  0.8718  0.2936
  184MOL0     H24818   3.471  12.050   6.741 -0.1759  0.8439 -1.2207
  184MOL0     H24819   3.650  12.033   6.750  0.1054  0.1273  2.2720
  184MOL0     H24820   3.569  12.150   6.528  1.0135  1.1247 -1.1941
  184MOL0     H24821   3.650  12.270   6.626 -0.5602  0.0082 -0.7126
  184MOL0     H24822   4.268  12.240   7.105  0.2734 -1.3913 -0.3479
  184MOL0     H24823   4.488  12.185   7.140 -0.1119 -0.4253  0.6631
  184MOL0     H24824   4.858  12.109   7.255  1.2558  2.8231 -0.0915
  184MOL0     H24825   5.088  12.053   7.246 -3.6526  2.1290 -0.2358
  184MOL0     H24826   6.050  10.839   8.635 -0.0099 -0.3783 -0.0271
  184MOL0     H24827   6.264  10.720   8.660 -1.3745  0.6392  0.3795
  184MOL0     H24828   6.615  10.606   8.497 -1.6340  1.5509  0.5729
  184MOL0     H24829   6.807  10.477   8.498 -0.5504  1.3607 -1.2454
  184MOL0     H24830   6.986  10.353   8.621 -1.2287  1.0995 -1.6668
  184MOL0     H24831   7.036  10.407   8.460 -0.5256 -2.6126 -0.5766
  184MOL0     H24832   7.249  10.356   8.679 -1.5395  3.2466  0.6379
  184MOL0     H24833   7.276  10.430   8.532 -0.1537  1.8490  3.8563
  184MOL0     H24834   7.183  10.213   8.419 -1.0925 -0.7454  0.4215
  184MOL0     H24835   7.195  10.132   8.578 -0.8163  0.0001  0.1344
  184MOL0     H24836   7.452  10.184   8.578 -2.2354  4.1979  1.1227
  184MOL0     H24837   7.442  10.229   8.409  2.1668 -0.8732  0.6892
  184MOL0     H24838   7.394   9.818   8.345  1.2323 -0.6927  1.2737
  184MOL0     H24839   7.005  10.755   8.769 -2.6883  1.6559  2.8892
  184MOL0     H24840   6.820  10.903   8.735 -2.3922 -0.1743  0.2851
  185MOL0     O24841   1.115   0.277   0.605 -0.0653 -0.0357  0.3710
  185MOL0     C24842   1.074   0.311   0.494 -0.2545 -1.0762  0.4610
  185MOL0     O24843   0.937   0.341   0.459 -0.3981  0.0154 -1.0032
  185MOL0     C24844   0.837   0.337   0.556  0.2766  0.3806  0.0213
  185MOL0     C24845   0.741   0.440   0.552  0.1711  0.0205  0.1253
  185MOL0     C24846   0.642   0.447   0.655 -0.9709 -0.0285  0.1826
  185MOL0     C24847   0.629   0.328   0.736  0.3116  0.6255  0.0479
  185MOL0     O24848   0.522   0.305   0.817  0.3291 -0.2092  0.5857
  185MOL0     C24849   0.411   0.390   0.812 -0.4011  0.1639 -0.5771
  185MOL0     C24850   0.308   0.345   0.918  0.4529 -0.0152  0.0994
  185MOL0     C24851   0.172   0.403   0.894 -0.3291 -0.1999  0.2747
  185MOL0     C24852   0.070   0.328   0.975 -0.2139  0.2422 -0.5319
  185MOL0     C24853  -0.020   0.427   1.045 -0.1352 -0.2556 -1.1431
  185MOL0     C24854  -0.151   0.355   1.086  0.0519 -0.1739  0.6366
  185MOL0     C24855  -0.249   0.446   1.145  0.8484 -0.3154 -0.1570
  185MOL0     C24856  -0.384   0.375   1.160  0.5999  0.0717 -0.4892
  185MOL0     N24857  -0.489   0.465   1.216  0.3493 -0.6123 -0.0011
  185MOL0     C24858  -0.465   0.559   1.313  0.2083  0.7547 -0.7614
  185MOL0     C24859  -0.589   0.621   1.339 -0.0081 -0.5420  0.2690
  185MOL0     C24860  -0.604   0.733   1.437  0.1982 -0.1781  0.8331
  185MOL0     C24861  -0.741   0.730   1.502  0.2902  0.5970 -0.1043
  185MOL0     C24862  -0.755   0.850   1.593 -0.7540 -0.3313 -0.4265
  185MOL0     C24863  -0.887   0.917   1.584  0.3059 -0.3305 -0.1006
  185MOL0     O24864  -0.920   0.962   1.450 -0.4788  0.0044 -0.4341
  185MOL0     C24865  -1.044   1.007   1.438  0.4423 -0.1350 -0.0558
  185MOL0     C24866  -1.136   0.933   1.366  0.8065 -0.5415  0.5715
  185MOL0     C24867  -1.270   0.970   1.365 -0.2899  0.0932 -0.5630
  185MOL0     C24868  -1.365   0.870   1.303 -0.7064  1.0962  0.3324
  185MOL0     C24869  -1.316   1.087   1.420 -0.6345 -0.2877  0.6578
  185MOL0     C24870  -1.458   1.128   1.428 -0.2593  0.0226 -0.7520
  185MOL0     O24871  -1.548   1.015   1.457 -0.3767 -0.7452  0.1179
  185MOL0     C24872  -1.678   1.010   1.469  1.4038 -0.3531 -0.0412
  185MOL0     C24873  -1.771   1.112   1.436 -0.1340  1.1903  0.2413
  185MOL0     C24874  -1.911   1.093   1.431 -0.7430  0.1925 -0.7918
  185MOL0     C24875  -1.962   0.965   1.472 -1.2176  0.2108  0.3643
  185MOL0     O24876  -2.096   0.928   1.468 -1.1465  0.4850  0.0993
  185MOL0     C24877  -2.188   1.028   1.439  0.8751 -0.5360  0.3934
  185MOL0     C24878  -2.314   0.978   1.494  0.1150  0.1767 -0.7101
  185MOL0     C24879  -2.410   1.088   1.478  0.7343  0.0207  0.3213
  185MOL0     C24880  -2.550   1.038   1.518  0.4237  0.4239 -1.0082
  185MOL0     C24881  -2.647   1.160   1.514 -0.3285 -0.1223  0.1970
  185MOL0     C24882  -2.789   1.119   1.536 -0.2919 -0.6002  0.2456
  185MOL0     C24883  -2.878   1.235   1.515 -0.3554 -0.2193  0.2908
  185MOL0     C24884  -3.024   1.204   1.537  0.3389 -0.1320 -0.2107
  185MOL0    Cl24885  -3.105   1.350   1.505  0.1290  0.1533  0.0667
  185MOL0     C24886  -1.870   0.870   1.510 -0.7993 -0.1788 -0.5888
  185MOL0     C24887  -1.731   0.886   1.513  0.0392  0.0999  1.0145
  185MOL0     O24888  -1.491   1.250   1.434  0.3463  0.3255 -0.0212
  185MOL0     C24889  -1.219   1.173   1.477 -0.3236  0.1054  1.1072
  185MOL0     C24890  -1.086   1.136   1.487  0.7296  0.7912 -1.0044
  185MOL0     N24891  -0.681   0.570   1.249 -0.3229  0.4037  0.4503
  185MOL0     N24892  -0.617   0.484   1.180  0.7491  0.0922 -0.2073
  185MOL0     C24893   0.714   0.220   0.729 -0.4260 -0.2643  1.1003
  185MOL0     C24894   0.824   0.223   0.641 -0.1699 -0.1756 -0.0729
  185MOL0     C24895   1.173   0.313   0.379 -0.3472  0.1653 -0.6026
  185MOL0     C24896   1.133   0.347   0.249 -0.4287  0.4638 -0.0292
  185MOL0     C24897   1.232   0.365   0.148  0.8303  0.8224  0.4176
  185MOL0     C24898   1.362   0.329   0.171 -0.5579  0.2368  0.0389
  185MOL0     O24899   1.448   0.334   0.063  0.3990 -0.0124 -0.0447
  185MOL0     C24900   1.560   0.254   0.071  0.6116 -0.0490  0.0731
  185MOL0     C24901   1.614   0.234  -0.068 -0.7886 -0.5751 -0.6352
  185MOL0     C24902   1.688   0.357  -0.126  0.3448 -0.2946  0.2899
  185MOL0     C24903   1.723   0.332  -0.267 -0.1087 -0.0201  0.2491
  185MOL0     C24904   1.825   0.233  -0.291 -0.3118 -0.8108 -0.6433
  185MOL0     C24905   1.915   0.151  -0.299  0.0796 -0.0544 -0.0243
  185MOL0     C24906   1.390   0.283   0.301 -0.8038  0.2799  1.1547
  185MOL0     C24907   1.305   0.278   0.406  1.1157  0.2066  0.3918
  185MOL0     H24908   0.755   0.514   0.474  2.7181 -2.2718 -1.7855
  185MOL0     H24909   0.572   0.527   0.672 -2.2435 -0.5168 -2.3335
  185MOL0     H24910   0.435   0.494   0.834  3.4872 -1.3450  3.9222
  185MOL0     H24911   0.363   0.389   0.713  2.7190  0.7506 -2.2314
  185MOL0     H24912   0.317   0.236   0.922  0.3753 -0.0526 -0.6992
  185MOL0     H24913   0.347   0.378   1.015  2.4844 -2.9786  0.4412
  185MOL0     H24914   0.166   0.506   0.929  0.7795 -0.4500  1.2341
  185MOL0     H24915   0.146   0.395   0.788 -0.8196  0.3636  0.3443
  185MOL0     H24916   0.014   0.258   0.912  0.2278 -1.5212  0.9475
  185MOL0     H24917   0.123   0.263   1.045 -1.3023 -0.5218 -0.3994
  185MOL0     H24918   0.031   0.472   1.131 -2.3026 -0.0537  0.0974
  185MOL0     H24919  -0.045   0.512   0.981 -2.4352  0.7754  0.9504
  185MOL0     H24920  -0.190   0.326   0.988  2.2447  2.1790 -1.0746
  185MOL0     H24921  -0.135   0.263   1.143 -0.8194 -2.4979 -2.5855
  185MOL0     H24922  -0.204   0.473   1.240  0.3096 -0.8504  0.2595
  185MOL0     H24923  -0.250   0.535   1.081 -1.9736 -1.3540 -1.7302
  185MOL0     H24924  -0.356   0.289   1.221  0.0242 -0.7609 -1.3574
  185MOL0     H24925  -0.425   0.346   1.062  0.6468  2.4658 -1.2742
  185MOL0     H24926  -0.373   0.585   1.364  0.0792  0.1964 -0.2424
  185MOL0     H24927  -0.527   0.717   1.513 -1.2092 -1.7211  2.0235
  185MOL0     H24928  -0.587   0.833   1.396  1.0648 -0.4959  0.4117
  185MOL0     H24929  -0.760   0.639   1.560 -2.5303  1.9356  1.2956
  185MOL0     H24930  -0.821   0.737   1.427  0.1490 -2.4290 -0.3795
  185MOL0     H24931  -0.686   0.927   1.558 -0.9361  1.6637  3.1272
  185MOL0     H24932  -0.716   0.827   1.693  2.3328  1.8102 -1.0051
  185MOL0     H24933  -0.878   1.012   1.637  1.6735  0.3656 -1.4954
  185MOL0     H24934  -0.971   0.857   1.621  0.7085  0.6369  2.6380
  185MOL0     H24935  -1.103   0.835   1.334 -2.8896 -1.2316 -1.6030
  185MOL0     H24936  -1.435   0.829   1.376 -2.3160  1.4985 -0.9349
  185MOL0     H24937  -1.430   0.916   1.228 -0.2980 -0.7087 -1.2460
  185MOL0     H24938  -1.310   0.799   1.240 -0.2240 -0.8368  2.8013
  185MOL0     H24939  -1.730   1.208   1.406 -1.2323  1.9977  1.2639
  185MOL0     H24940  -1.976   1.178   1.413 -0.8524 -0.1351 -2.0991
  185MOL0     H24941  -2.167   1.124   1.486  0.1782 -0.5340  0.7077
  185MOL0     H24942  -2.197   1.040   1.331  0.6586 -0.8249  0.3777
  185MOL0     H24943  -2.349   0.889   1.441  1.2184 -2.9531  3.2705
  185MOL0     H24944  -2.300   0.955   1.600 -1.0678 -0.3676 -0.6492
  185MOL0     H24945  -2.418   1.121   1.374 -0.4208  0.3971  0.5181
  185MOL0     H24946  -2.376   1.172   1.540  0.2817  1.0047 -0.7283
  185MOL0     H24947  -2.568   0.961   1.442 -0.8482  0.5193 -0.8291
  185MOL0     H24948  -2.546   0.982   1.612  0.0661 -2.4693 -2.5832
  185MOL0     H24949  -2.636   1.211   1.418  4.3325  1.3039  1.2513
  185MOL0     H24950  -2.612   1.228   1.592 -0.9567  1.1129 -0.5553
  185MOL0     H24951  -2.808   1.033   1.470  1.6031 -1.7514  1.1272
  185MOL0     H24952  -2.800   1.076   1.636  1.0698 -1.8166 -0.0993
  185MOL0     H24953  -2.861   1.255   1.409  1.7269 -0.3039  0.5808
  185MOL0     H24954  -2.848   1.324   1.572 -1.6169 -0.2340  1.0226
  185MOL0     H24955  -3.049   1.165   1.636 -1.8002 -0.0942 -0.6885
  185MOL0     H24956  -3.068   1.128   1.472  1.1415 -1.5847  0.8948
  185MOL0     H24957  -1.913   0.782   1.556 -2.6290  2.4947  3.3739
  185MOL0     H24958  -1.661   0.805   1.533 -1.0041 -0.3891  3.0316
  185MOL0     H24959  -1.253   1.265   1.525 -1.1010  0.4336 -0.0346
  185MOL0     H24960  -1.007   1.201   1.525  1.0490  0.4180 -1.0242
  185MOL0     H24961   0.707   0.128   0.787  1.9365 -1.4466 -0.3009
  185MOL0     H24962   0.901   0.147   0.629  0.4121  0.0940  1.7138
  185MOL0     H24963   1.038   0.390   0.220 -1.5527 -0.8821  1.4066
  185MOL0     H24964   1.208   0.386   0.044 -0.5011  1.9303  0.9144
  185MOL0     H24965   1.629   0.315   0.131 -0.5236 -2.0658  3.7803
  185MOL0     H24966   1.529   0.156   0.110  1.4627  0.3276  1.8131
  185MOL0     H24967   1.537   0.204  -0.140 -0.0282 -1.4937 -1.0805
  185MOL0     H24968   1.682   0.148  -0.067  1.2408  0.9517  0.6782
  185MOL0     H24969   1.778   0.385  -0.071  0.8403  2.7368 -1.8393
  185MOL0     H24970   1.605   0.428  -0.129 -0.2719 -1.0336 -1.6257
  185MOL0     H24971   1.779   0.415  -0.312  1.5494 -0.6648  1.0192
  185MOL0     H24972   1.628   0.322  -0.320  0.3952  1.4870 -1.0172
  185MOL0     H24973   2.001   0.087  -0.307 -0.4303 -0.4645 -3.3791
  185MOL0     H24974   1.494   0.257   0.317 -0.3580  0.6311 -0.8728
  185MOL0     H24975   1.337   0.247   0.505 -0.5207  2.4960  1.7590
  186MOL0     O24976   8.159   3.860   2.057 -0.4413 -0.0345 -0.0215
  186MOL0     C24977   8.177   3.738   2.063  0.5797 -0.1803 -0.1006
  186MOL0     O24978   8.083   3.636   2.084 -0.4180 -0.6241  0.3909
  186MOL0     C24979   7.940   3.655   2.079  0.3313  0.2973 -0.7639
  186MOL0     C24980   7.873   3.772   2.138 -0.3591 -0.5700  0.4994
  186MOL0     C24981   7.735   3.787   2.126  0.3145  0.1392  0.0271
  186MOL0     C24982   7.662   3.693   2.050 -0.6823  0.3536 -0.3451
  186MOL0     O24983   7.526   3.693   2.022  0.7565  0.6024  0.6022
  186MOL0     C24984   7.456   3.816   2.067  0.4349 -0.5464  0.0089
  186MOL0     C24985   7.326   3.810   1.977 -0.8385  0.8471  0.1714
  186MOL0     C24986   7.224   3.915   2.025  0.5807  0.0772 -0.6805
  186MOL0     C24987   7.107   3.929   1.927 -1.0455  0.0651 -0.2989
  186MOL0     C24988   6.990   4.016   1.989 -0.5339  0.4653  0.5490
  186MOL0     C24989   6.861   4.032   1.900  0.1309 -0.2401  0.7593
  186MOL0     C24990   6.863   4.144   1.795  0.6995 -0.0087 -0.1365
  186MOL0     C24991   6.743   4.142   1.704  0.1724  1.3154  0.1895
  186MOL0     N24992   6.609   4.164   1.770 -0.0478  0.1514 -0.3277
  186MOL0     C24993   6.524   4.071   1.835  0.2626 -0.8376 -0.0685
  186MOL0     C24994   6.405   4.141   1.860  0.0488  0.2394  1.1042
  186MOL0     C24995   6.283   4.077   1.915 -0.3110 -0.0040 -1.2629
  186MOL0     C24996   6.154   4.077   1.825  0.0416  0.8533 -0.5590
  186MOL0     C24997   6.181   4.007   1.696 -0.0865  0.5937 -0.0715
  186MOL0     C24998   6.062   3.988   1.596 -0.1122  0.8639 -0.3348
  186MOL0     O24999   5.964   3.892   1.648 -0.5316  0.3419  1.2104
  186MOL0     C25000   5.834   3.927   1.621 -1.0153 -0.2394 -0.5151
  186MOL0     C25001   5.781   3.938   1.490  0.4367  0.9793 -0.1948
  186MOL0     C25002   5.648   3.965   1.476  0.4316  0.5240  0.2359
  186MOL0     C25003   5.601   3.941   1.333  0.0022 -1.3209 -0.1152
  186MOL0     C25004   5.567   4.000   1.586 -0.1817  0.7853  0.2046
  186MOL0     C25005   5.439   4.059   1.564  0.2857  0.3737 -0.3985
  186MOL0     O25006   5.336   4.032   1.652 -0.6753  0.5037  0.3795
  186MOL0     C25007   5.207   4.020   1.606 -0.3214  0.4131  0.0476
  186MOL0     C25008   5.106   4.042   1.702 -0.2172  0.2869 -1.3484
  186MOL0     C25009   4.972   4.023   1.669  0.4815 -0.4219 -0.5990
  186MOL0     C25010   4.930   3.989   1.543 -0.1899 -0.7480 -0.0300
  186MOL0     O25011   4.803   3.952   1.504 -0.1155  0.5349 -0.5987
  186MOL0     C25012   4.711   4.063   1.504 -0.3055  0.1859 -0.6214
  186MOL0     C25013   4.576   4.006   1.556  0.0609 -0.9290  0.2756
  186MOL0     C25014   4.521   4.072   1.690  0.6149 -0.3842  0.0300
  186MOL0     C25015   4.387   4.012   1.738  0.3165  0.4612 -0.5624
  186MOL0     C25016   4.260   4.057   1.667  0.0761 -1.6301  0.1661
  186MOL0     C25017   4.126   4.027   1.744  0.4862  0.1199 -0.2457
  186MOL0     C25018   4.002   4.094   1.679  0.1616  0.0795 -1.7833
  186MOL0     C25019   3.878   4.091   1.770 -0.2859  0.1432  0.0307
  186MOL0    Cl25020   3.870   3.929   1.842  0.0430  0.1308  0.0603
  186MOL0     C25021   5.028   3.971   1.445  0.0866  0.8311 -0.3223
  186MOL0     C25022   5.163   3.981   1.479 -1.0959  0.2963 -0.0308
  186MOL0     O25023   5.425   4.126   1.460  0.3226 -0.5417 -0.1905
  186MOL0     C25024   5.617   3.992   1.713 -0.5000 -0.1384  0.1621
  186MOL0     C25025   5.753   3.966   1.725 -0.7053 -0.1947 -0.1962
  186MOL0     N25026   6.431   4.277   1.836 -0.8982  0.3346  0.2080
  186MOL0     N25027   6.548   4.284   1.782  0.2117 -0.3800 -0.8389
  186MOL0     C25028   7.728   3.585   1.989  0.4312 -0.4310  0.5238
  186MOL0     C25029   7.863   3.566   2.004  0.8001 -0.6979  0.5396
  186MOL0     C25030   8.310   3.696   2.043 -0.6895  0.5225  0.1917
  186MOL0     C25031   8.350   3.559   2.070 -0.1448  0.9640 -0.2588
  186MOL0     C25032   8.478   3.522   2.047 -0.1760  0.0903  0.1402
  186MOL0     C25033   8.569   3.600   1.988 -0.0794  0.7198 -0.1384
  186MOL0     O25034   8.693   3.546   1.951  0.0891  0.1251  0.5875
  186MOL0     C25035   8.769   3.472   2.050  0.2692  0.5343  0.2182
  186MOL0     C25036   8.912   3.532   2.041 -0.9991 -0.3989  0.5487
  186MOL0     C25037   8.980   3.499   1.902  0.4840  0.9252  0.0366
  186MOL0     C25038   9.114   3.561   1.887 -0.9451  0.5375 -0.2544
  186MOL0     C25039   9.202   3.542   2.000 -0.0890  0.3275 -0.3423
  186MOL0     C25040   9.260   3.535   2.109 -0.3989  0.5930 -0.2152
  186MOL0     C25041   8.536   3.724   1.952  0.6081 -0.1056 -0.5251
  186MOL0     C25042   8.409   3.781   1.987  0.6603  0.1253 -0.2027
  186MOL0     H25043   7.920   3.850   2.196  0.4882 -2.6049  2.6948
  186MOL0     H25044   7.694   3.869   2.184 -1.2846 -0.1046 -0.7125
  186MOL0     H25045   7.444   3.813   2.176  2.4396 -3.1440  0.2255
  186MOL0     H25046   7.517   3.903   2.041  2.0802 -2.4216 -2.9189
  186MOL0     H25047   7.342   3.823   1.870 -0.5292 -2.4006 -0.2754
  186MOL0     H25048   7.275   3.713   1.974 -0.0967  0.4368  0.5577
  186MOL0     H25049   7.189   3.893   2.126  1.0319 -0.4454 -0.6330
  186MOL0     H25050   7.259   4.018   2.042 -0.1308  0.0488  1.1950
  186MOL0     H25051   7.147   3.980   1.839 -0.8369 -1.6789 -1.2487
  186MOL0     H25052   7.080   3.828   1.896  3.3447 -1.0966 -1.0096
  186MOL0     H25053   6.951   3.956   2.071  0.9844 -0.9191  0.3010
  186MOL0     H25054   7.027   4.114   2.022  0.9887 -0.2756  1.1224
  186MOL0     H25055   6.835   3.940   1.846  0.2701 -0.4602  1.0713
  186MOL0     H25056   6.781   4.064   1.968 -0.1264 -3.2981  2.0793
  186MOL0     H25057   6.865   4.244   1.839 -1.9970  1.0475 -2.0984
  186MOL0     H25058   6.952   4.136   1.732  0.6174  1.2613 -0.4421
  186MOL0     H25059   6.740   4.045   1.653 -1.7809  1.0140  0.7603
  186MOL0     H25060   6.768   4.212   1.624 -0.9786 -0.0206 -1.4263
  186MOL0     H25061   6.538   3.964   1.845 -0.9895 -0.9179  1.2621
  186MOL0     H25062   6.298   3.981   1.966 -0.0820  0.6202 -0.1182
  186MOL0     H25063   6.279   4.138   2.006 -2.0169 -1.0033 -0.6210
  186MOL0     H25064   6.131   4.184   1.818  2.9369  1.8398  2.4152
  186MOL0     H25065   6.069   4.022   1.865 -0.1207  1.3510 -0.2055
  186MOL0     H25066   6.221   3.909   1.724 -1.1480  0.5182  1.2866
  186MOL0     H25067   6.260   4.058   1.639 -0.3289 -2.2246 -3.2376
  186MOL0     H25068   6.089   3.965   1.493 -0.7265  0.3597 -0.3883
  186MOL0     H25069   6.021   4.090   1.595  1.2164  1.4398  0.6326
  186MOL0     H25070   5.848   3.928   1.404  0.6534  2.3356 -0.2209
  186MOL0     H25071   5.499   3.902   1.338 -0.1891 -0.7168  0.9760
  186MOL0     H25072   5.580   4.033   1.277 -0.4171 -0.2529  1.7080
  186MOL0     H25073   5.662   3.870   1.276  0.5174 -3.2397  2.6153
  186MOL0     H25074   5.132   4.058   1.806 -0.6700 -2.6285 -0.7017
  186MOL0     H25075   4.899   4.025   1.750  2.1056  1.5147  0.9427
  186MOL0     H25076   4.734   4.133   1.585  1.1039 -0.8814 -0.0570
  186MOL0     H25077   4.699   4.117   1.410  0.3939 -0.1769 -0.9264
  186MOL0     H25078   4.505   4.018   1.474 -3.3504 -1.0486  2.9804
  186MOL0     H25079   4.578   3.898   1.568  0.2803 -1.0826 -1.0222
  186MOL0     H25080   4.512   4.181   1.682 -1.6796 -0.0177  4.3248
  186MOL0     H25081   4.594   4.060   1.771 -1.7788  0.0586  2.4064
  186MOL0     H25082   4.392   3.903   1.740 -0.1989  0.4343 -0.4970
  186MOL0     H25083   4.377   4.034   1.845  2.2286 -2.1853  0.2411
  186MOL0     H25084   4.252   4.022   1.563  2.2945  1.5089 -1.2265
  186MOL0     H25085   4.252   4.166   1.668  3.2898 -1.2785 -0.2682
  186MOL0     H25086   4.111   3.919   1.746 -5.4231  0.6093  1.8440
  186MOL0     H25087   4.123   4.061   1.848 -1.0687 -1.6195  0.3223
  186MOL0     H25088   3.983   4.038   1.587  0.3062 -0.6576 -1.3660
  186MOL0     H25089   4.025   4.194   1.641 -1.2453  1.4276  0.6697
  186MOL0     H25090   3.788   4.117   1.714  0.6297  0.6148 -1.2785
  186MOL0     H25091   3.891   4.164   1.851 -1.2467  0.9438 -0.5152
  186MOL0     H25092   5.000   3.924   1.351  0.0699  1.0855 -0.4464
  186MOL0     H25093   5.227   3.955   1.396 -1.6418 -0.2591 -0.2812
  186MOL0     H25094   5.566   4.019   1.805  0.9012 -0.0953  0.9580
  186MOL0     H25095   5.797   3.956   1.824 -1.4975  2.1952  0.4615
  186MOL0     H25096   7.671   3.512   1.932 -0.7132  0.4163  0.5407
  186MOL0     H25097   7.889   3.470   1.961  0.1513 -0.4711 -0.3792
  186MOL0     H25098   8.283   3.476   2.090  0.6916 -0.5605 -3.2974
  186MOL0     H25099   8.512   3.421   2.065  1.0863  0.1866 -1.4507
  186MOL0     H25100   8.738   3.483   2.154 -1.8692  0.4589 -0.3499
  186MOL0     H25101   8.767   3.368   2.015  0.4032  0.1460  1.3403
  186MOL0     H25102   8.971   3.490   2.123 -2.4493 -0.1686  1.7501
  186MOL0     H25103   8.896   3.641   2.047 -1.6052 -0.3085 -1.6504
  186MOL0     H25104   8.911   3.534   1.825  0.7409  2.6913  0.5689
  186MOL0     H25105   8.993   3.392   1.886 -0.7345  0.2989  2.6861
  186MOL0     H25106   9.105   3.668   1.869  0.3319  1.0476  1.7545
  186MOL0     H25107   9.151   3.506   1.800 -2.1485  0.5236 -0.7764
  186MOL0     H25108   9.310   3.539   2.203  0.3361  2.8978 -0.6574
  186MOL0     H25109   8.615   3.783   1.907  1.0359 -0.3319 -0.0766
  186MOL0     H25110   8.406   3.888   1.967  1.0600  0.3201  0.7039
  187MOL0     O25111   0.402   4.221  11.264  0.3494  0.2339 -0.1319
  187MOL0     C25112   0.460   4.121  11.303  0.0159  0.2034 -0.9211
  187MOL0     O25113   0.408   3.996  11.305  0.0138 -0.1459 -0.0593
  187MOL0     C25114   0.280   3.972  11.274  0.2625 -0.0187 -0.0643
  187MOL0     C25115   0.188   3.944  11.376  0.5068  0.8434  0.5357
  187MOL0     C25116   0.054   3.932  11.342 -0.0649  0.2584  0.1285
  187MOL0     C25117   0.007   3.957  11.208  0.0289 -0.0994  0.1782
  187MOL0     O25118  -0.130   3.964  11.193  0.1943 -0.0998 -0.5224
  187MOL0     C25119  -0.174   3.979  11.064  0.8642  0.6541 -0.5340
  187MOL0     C25120  -0.323   3.956  11.074  0.4109 -0.4666  0.2664
  187MOL0     C25121  -0.361   3.806  11.084 -0.0690 -0.1461  0.8321
  187MOL0     C25122  -0.511   3.799  11.037 -1.1729  0.8175  0.1887
  187MOL0     C25123  -0.565   3.655  11.024 -0.2765 -0.5480 -0.9013
  187MOL0     C25124  -0.486   3.561  10.930 -0.3038 -0.4302  0.2604
  187MOL0     C25125  -0.560   3.429  10.887  0.1113 -0.6430  0.1235
  187MOL0     C25126  -0.668   3.456  10.773  0.2700 -0.2443  0.1431
  187MOL0     N25127  -0.738   3.333  10.743 -0.0107 -0.2391  0.1765
  187MOL0     C25128  -0.810   3.256  10.831  0.1889  0.4874  0.3936
  187MOL0     C25129  -0.866   3.145  10.764 -0.5261 -0.2889 -0.1073
  187MOL0     C25130  -0.938   3.027  10.817  0.4743  0.6854  0.2406
  187MOL0     C25131  -1.094   3.034  10.793  0.1432 -0.4126  0.1999
  187MOL0     C25132  -1.170   2.900  10.794  1.1254  0.0254  0.9833
  187MOL0     C25133  -1.325   2.918  10.795  0.7349 -0.9478  0.1595
  187MOL0     O25134  -1.380   2.925  10.661 -1.0256 -0.1937  0.6243
  187MOL0     C25135  -1.501   2.988  10.637 -0.5509  0.2426  0.2055
  187MOL0     C25136  -1.516   3.053  10.524 -0.3945 -0.1353  0.9019
  187MOL0     C25137  -1.636   3.111  10.484 -1.0179  0.8331 -0.8028
  187MOL0     C25138  -1.642   3.143  10.339 -0.1378  0.1089  0.4233
  187MOL0     C25139  -1.745   3.122  10.569  0.5147  0.7903  0.2010
  187MOL0     C25140  -1.876   3.195  10.538 -0.6146 -0.6533 -0.0043
  187MOL0     O25141  -1.890   3.270  10.422  0.6407 -0.0618 -0.3957
  187MOL0     C25142  -2.001   3.349  10.395  0.8546  0.8632  0.0576
  187MOL0     C25143  -2.069   3.425  10.495 -0.5826 -0.1686  0.1915
  187MOL0     C25144  -2.167   3.511  10.456  0.5530  0.0634 -0.9943
  187MOL0     C25145  -2.212   3.526  10.328 -0.3363 -0.0043  0.6444
  187MOL0     O25146  -2.313   3.610  10.297  0.6989  0.0306  0.5889
  187MOL0     C25147  -2.438   3.555  10.238 -0.6395 -0.1306 -0.3923
  187MOL0     C25148  -2.546   3.657  10.218 -0.1377  0.5550 -0.3553
  187MOL0     C25149  -2.584   3.723  10.349 -0.8744 -0.8039  0.1683
  187MOL0     C25150  -2.725   3.774  10.327  0.5635  0.3360 -0.1574
  187MOL0     C25151  -2.765   3.846  10.453 -0.6854  0.2700 -0.1209
  187MOL0     C25152  -2.897   3.918  10.443 -0.3171 -0.1816  0.1712
  187MOL0     C25153  -3.004   3.810  10.406  0.1987  0.1148 -0.3480
  187MOL0     C25154  -3.141   3.880  10.391  0.4825  0.3016  0.3957
  187MOL0    Cl25155  -3.189   3.972  10.535  0.4057 -0.0998 -0.3220
  187MOL0     C25156  -2.139   3.448  10.222 -0.1234 -0.3987 -0.9134
  187MOL0     C25157  -2.034   3.370  10.262  1.1389 -0.3881  0.4337
  187MOL0     O25158  -1.955   3.209  10.633 -0.4465 -0.5519 -0.2527
  187MOL0     C25159  -1.734   3.055  10.690  0.4852 -0.5845  0.1855
  187MOL0     C25160  -1.611   2.988  10.730  0.0271  0.8679 -0.0169
  187MOL0     N25161  -0.850   3.173  10.631  0.5416 -1.7562  0.2124
  187MOL0     N25162  -0.774   3.279  10.619  0.1380 -0.0234 -0.6913
  187MOL0     C25163   0.105   3.977  11.101 -0.4538 -0.2932 -0.5283
  187MOL0     C25164   0.237   3.985  11.136  0.6918  0.1641 -0.6983
  187MOL0     C25165   0.600   4.122  11.349 -0.9730  0.2932  0.1752
  187MOL0     C25166   0.670   4.025  11.425  0.6573 -0.2046 -0.2060
  187MOL0     C25167   0.804   4.042  11.456  0.0950 -0.0731  0.5684
  187MOL0     C25168   0.872   4.150  11.412 -0.4143  0.6864 -1.3421
  187MOL0     O25169   1.010   4.148  11.456  0.0209  0.4899  0.0660
  187MOL0     C25170   1.097   4.253  11.410 -0.4130 -0.2540 -0.1028
  187MOL0     C25171   1.225   4.266  11.490  0.1612 -0.4338 -0.0839
  187MOL0     C25172   1.330   4.365  11.423  0.2479 -0.0438 -1.2872
  187MOL0     C25173   1.427   4.403  11.533 -0.8861 -0.2293 -0.6127
  187MOL0     C25174   1.532   4.499  11.490  1.3111  0.1844  0.1631
  187MOL0     C25175   1.614   4.584  11.475  0.2019 -0.1295  0.7613
  187MOL0     C25176   0.810   4.238  11.326  0.6365 -0.4291 -0.5043
  187MOL0     C25177   0.677   4.222  11.294 -0.4801  0.4824 -0.5173
  187MOL0     H25178   0.224   3.927  11.477  0.5069 -2.6355  0.0823
  187MOL0     H25179  -0.013   3.939  11.427  0.1875 -1.2645  0.4787
  187MOL0     H25180  -0.159   4.082  11.031  1.2312  1.8252  2.8982
  187MOL0     H25181  -0.135   3.902  10.996 -0.9411 -0.8200  0.0108
  187MOL0     H25182  -0.370   4.004  11.160  0.6498 -1.5237  1.0103
  187MOL0     H25183  -0.352   4.008  10.983  1.3807 -1.6197 -0.7341
  187MOL0     H25184  -0.290   3.752  11.022  3.1291  3.0371  1.3625
  187MOL0     H25185  -0.359   3.777  11.189 -1.1130 -1.1103  0.6084
  187MOL0     H25186  -0.580   3.857  11.099  0.2226 -0.3746  3.0013
  187MOL0     H25187  -0.520   3.852  10.942 -2.1495 -0.2738 -0.3657
  187MOL0     H25188  -0.553   3.601  11.118 -2.4950 -0.0827 -0.2971
  187MOL0     H25189  -0.673   3.655  11.005 -0.7378 -0.1323  1.5173
  187MOL0     H25190  -0.447   3.617  10.845 -2.8652 -0.6217 -1.1328
  187MOL0     H25191  -0.396   3.524  10.979  0.4922  0.3348 -0.5833
  187MOL0     H25192  -0.488   3.354  10.853  0.2676 -0.9523  1.1035
  187MOL0     H25193  -0.601   3.382  10.977  4.4232 -1.5335  1.9042
  187MOL0     H25194  -0.627   3.501  10.682 -0.3022 -1.8864 -0.9865
  187MOL0     H25195  -0.731   3.535  10.814  1.5847  0.4077  0.9605
  187MOL0     H25196  -0.823   3.274  10.937 -1.1240  1.4296  0.0931
  187MOL0     H25197  -0.910   2.944  10.752 -2.5976 -0.1042 -0.2276
  187MOL0     H25198  -0.916   3.002  10.921 -1.0647 -1.4760  0.1122
  187MOL0     H25199  -1.117   3.075  10.694 -1.9917 -2.2312 -0.1414
  187MOL0     H25200  -1.136   3.098  10.870  2.9626  1.6722  0.1623
  187MOL0     H25201  -1.145   2.839  10.881  2.5948 -1.0972 -0.1758
  187MOL0     H25202  -1.144   2.843  10.704 -0.9518 -0.5061  0.6602
  187MOL0     H25203  -1.339   3.012  10.849  1.5607 -1.2201  0.8667
  187MOL0     H25204  -1.385   2.846  10.853 -1.7426  0.7645 -0.1483
  187MOL0     H25205  -1.439   3.045  10.447 -0.3912  1.3533  0.7258
  187MOL0     H25206  -1.554   3.119  10.279 -2.2649 -1.6685 -2.2421
  187MOL0     H25207  -1.708   3.074  10.286  3.2482 -1.2187 -2.4967
  187MOL0     H25208  -1.668   3.245  10.309  0.0690  0.1081  0.2394
  187MOL0     H25209  -2.040   3.412  10.599 -0.3329 -2.3154 -0.1024
  187MOL0     H25210  -2.194   3.571  10.542  3.1662 -0.9814  0.6608
  187MOL0     H25211  -2.412   3.518  10.138 -2.3624  1.1976 -1.3758
  187MOL0     H25212  -2.471   3.475  10.304  1.2725 -1.0896 -0.5048
  187MOL0     H25213  -2.509   3.732  10.148 -2.0836  2.6551  0.7000
  187MOL0     H25214  -2.635   3.607  10.178 -1.9238  1.9037  1.6628
  187MOL0     H25215  -2.509   3.803  10.360  0.8024 -1.1411 -5.4584
  187MOL0     H25216  -2.574   3.671  10.444  0.5258  2.2100  1.8359
  187MOL0     H25217  -2.737   3.847  10.246 -0.5612  0.5991  0.2329
  187MOL0     H25218  -2.781   3.681  10.320 -2.8901  2.3277 -1.0928
  187MOL0     H25219  -2.686   3.913  10.490 -0.0973 -2.2540  3.7918
  187MOL0     H25220  -2.782   3.767  10.527 -4.2079  2.2815  1.4842
  187MOL0     H25221  -2.916   3.957  10.543  0.3081 -1.0083  0.6254
  187MOL0     H25222  -2.897   4.001  10.371 -0.2496  1.3466  1.8720
  187MOL0     H25223  -3.012   3.736  10.487 -0.9927  1.6522  1.0097
  187MOL0     H25224  -2.972   3.755  10.318  0.9772 -4.1637  2.3215
  187MOL0     H25225  -3.215   3.802  10.371 -1.7450  1.9964  1.6468
  187MOL0     H25226  -3.125   3.938  10.300  1.3246 -1.8194 -0.8847
  187MOL0     H25227  -2.161   3.464  10.117  0.3515  0.7823 -0.8439
  187MOL0     H25228  -1.992   3.311  10.180 -0.2850  1.0821 -1.4351
  187MOL0     H25229  -1.807   3.071  10.769  0.7341  5.2586 -0.3600
  187MOL0     H25230  -1.602   2.951  10.831 -2.4961 -0.1363 -0.0716
  187MOL0     H25231   0.087   3.997  10.996 -0.1826 -2.6416 -1.0800
  187MOL0     H25232   0.314   4.013  11.065  1.7686  0.7350  0.6620
  187MOL0     H25233   0.612   3.940  11.461 -1.0231  0.6338 -0.8527
  187MOL0     H25234   0.853   3.973  11.524 -0.1605  1.6323  2.5842
  187MOL0     H25235   1.118   4.234  11.305 -0.7046  0.3698 -0.2834
  187MOL0     H25236   1.045   4.349  11.403 -0.1297 -0.1823 -1.4064
  187MOL0     H25237   1.266   4.167  11.509 -0.7817 -0.4822  2.0114
  187MOL0     H25238   1.196   4.303  11.589 -3.6989  0.5631 -1.3997
  187MOL0     H25239   1.269   4.447  11.384 -2.4017 -0.3515  1.7748
  187MOL0     H25240   1.380   4.319  11.337  4.0664 -0.3659  0.8727
  187MOL0     H25241   1.474   4.308  11.560  2.0491  1.2832 -0.0108
  187MOL0     H25242   1.361   4.438  11.612 -1.4425 -2.5258  0.0229
  187MOL0     H25243   1.690   4.659  11.475 -1.2012  1.3693 -0.1782
  187MOL0     H25244   0.865   4.325  11.289 -0.2101  0.4301  0.2288
  187MOL0     H25245   0.633   4.277  11.212 -0.9558 -1.4875 -1.6497
  188MOL0     O25246   9.822   7.980   3.545 -0.1826 -0.0343  0.1646
  188MOL0     C25247   9.806   7.897   3.457  0.9277  0.2117 -0.4841
  188MOL0     O25248   9.686   7.880   3.389 -0.4625  0.2639 -0.6307
  188MOL0     C25249   9.584   7.980   3.401 -0.1361  0.0891  0.5388
  188MOL0     C25250   9.449   7.935   3.395 -0.2593 -0.6628  1.4391
  188MOL0     C25251   9.338   8.016   3.414 -0.4437  0.8016  0.7879
  188MOL0     C25252   9.356   8.155   3.437  0.4698 -0.2771 -0.0917
  188MOL0     O25253   9.238   8.223   3.464  0.5613  0.0787 -0.2121
  188MOL0     C25254   9.240   8.364   3.488 -0.7821 -0.3341 -0.0316
  188MOL0     C25255   9.275   8.457   3.363  0.1541 -0.2792 -0.8505
  188MOL0     C25256   9.179   8.420   3.249  0.6025 -0.2826 -0.2703
  188MOL0     C25257   9.175   8.533   3.153 -0.0001 -0.9758 -1.6206
  188MOL0     C25258   9.078   8.515   3.048  0.9166  0.1350 -0.2130
  188MOL0     C25259   8.937   8.535   3.106 -0.7401 -0.7639  0.2746
  188MOL0     C25260   8.828   8.525   3.000 -0.1574  0.7309 -0.0977
  188MOL0     C25261   8.691   8.556   3.054  0.0270 -0.2413 -0.0393
  188MOL0     N25262   8.581   8.479   2.997  0.4717 -0.3684 -0.0362
  188MOL0     C25263   8.512   8.514   2.888  0.1777  0.5197  0.1487
  188MOL0     C25264   8.403   8.435   2.887  0.2959 -0.0047  1.2416
  188MOL0     C25265   8.293   8.420   2.780  1.1768 -0.6306 -0.2295
  188MOL0     C25266   8.147   8.433   2.829 -0.9297  0.4419  0.5004
  188MOL0     C25267   8.097   8.581   2.838  0.1040 -0.4678 -0.2351
  188MOL0     C25268   8.173   8.670   2.931 -0.2204 -0.1778  0.3378
  188MOL0     O25269   8.179   8.630   3.068 -0.5214 -0.0078 -0.1113
  188MOL0     C25270   8.246   8.722   3.145 -0.0603  0.1052  0.6690
  188MOL0     C25271   8.209   8.853   3.172  0.2750 -0.4687  0.2002
  188MOL0     C25272   8.299   8.942   3.251  0.8635  0.0597 -0.7109
  188MOL0     C25273   8.247   9.082   3.278 -0.3249  0.4593 -0.9253
  188MOL0     C25274   8.422   8.894   3.297  0.1984 -0.4879  0.6206
  188MOL0     C25275   8.521   8.973   3.369  0.2580 -0.4812 -0.1796
  188MOL0     O25276   8.644   8.920   3.369 -0.2470  0.1470  1.0516
  188MOL0     C25277   8.741   9.001   3.426  0.0185 -0.0925 -0.3640
  188MOL0     C25278   8.789   8.976   3.549 -0.1799  0.2293 -0.1435
  188MOL0     C25279   8.905   9.041   3.591 -0.1680 -0.0688  0.6673
  188MOL0     C25280   8.976   9.141   3.511 -0.0859  0.2992  1.3931
  188MOL0     O25281   9.089   9.210   3.544 -0.8316 -0.1518  0.9459
  188MOL0     C25282   9.166   9.158   3.650 -0.0761 -0.0509 -0.1217
  188MOL0     C25283   9.309   9.223   3.649 -0.0841  0.1071  0.0192
  188MOL0     C25284   9.374   9.221   3.508  0.3156  0.4990 -0.0303
  188MOL0     C25285   9.393   9.083   3.448  1.0826 -0.7592  0.1862
  188MOL0     C25286   9.460   9.088   3.313  0.4113  0.4538  0.1525
  188MOL0     C25287   9.491   8.949   3.260 -0.2174  0.3086 -0.7294
  188MOL0     C25288   9.543   8.960   3.123 -0.6413 -0.0260  0.7671
  188MOL0     C25289   9.604   8.830   3.091 -0.6427 -0.2556  0.0390
  188MOL0    Cl25290   9.477   8.709   3.077 -0.3233 -0.2729  0.1420
  188MOL0     C25291   8.913   9.168   3.387 -0.6514 -0.4419  0.0510
  188MOL0     C25292   8.808   9.089   3.345  0.2291 -0.2498 -0.5917
  188MOL0     O25293   8.491   9.079   3.428  1.3237  0.4116  0.1468
  188MOL0     C25294   8.439   8.756   3.275 -0.1293 -0.2338 -0.9795
  188MOL0     C25295   8.351   8.675   3.214  0.1425  0.5064  0.3422
  188MOL0     N25296   8.411   8.348   2.996 -0.3444 -0.0460  0.2910
  188MOL0     N25297   8.515   8.373   3.058 -0.1441 -0.0708  0.1061
  188MOL0     C25298   9.489   8.201   3.440  0.3995 -0.8256  0.2581
  188MOL0     C25299   9.600   8.122   3.410 -0.1470  0.1524 -0.4623
  188MOL0     C25300   9.919   7.807   3.421  0.7558 -0.4654 -0.6213
  188MOL0     C25301  10.028   7.797   3.506 -1.3322  0.5382  0.2207
  188MOL0     C25302  10.138   7.719   3.485  0.4956  0.2255  0.3238
  188MOL0     C25303  10.144   7.642   3.371 -0.2310 -0.3159  0.1070
  188MOL0     O25304  10.248   7.553   3.364 -0.1008  0.5439  0.2083
  188MOL0     C25305  10.253   7.466   3.252 -0.3152  0.3864  0.0101
  188MOL0     C25306  10.368   7.366   3.269  1.5882  0.2983 -0.1077
  188MOL0     C25307  10.513   7.418   3.245  0.0520  0.0519 -0.6115
  188MOL0     C25308  10.523   7.500   3.115  0.3439  0.6168 -0.8987
  188MOL0     C25309  10.668   7.526   3.081 -0.4037 -0.4284  0.2211
  188MOL0     C25310  10.785   7.560   3.067  0.2700  0.1440  0.8778
  188MOL0     C25311  10.035   7.650   3.280  0.0851 -0.6828 -0.6087
  188MOL0     C25312   9.925   7.732   3.304  0.4342  0.6726  0.0285
  188MOL0     H25313   9.439   7.828   3.387  1.9629 -0.8493  0.5998
  188MOL0     H25314   9.239   7.973   3.408 -0.6707  1.4994 -0.9655
  188MOL0     H25315   9.139   8.393   3.515 -0.8059 -0.0925 -0.3780
  188MOL0     H25316   9.303   8.384   3.576  1.9177 -2.3188 -1.3458
  188MOL0     H25317   9.270   8.563   3.389  2.1222 -0.8441  2.4163
  188MOL0     H25318   9.377   8.444   3.324  1.9373  3.4179  1.8910
  188MOL0     H25319   9.202   8.329   3.194  0.2281  0.5665 -1.9033
  188MOL0     H25320   9.079   8.412   3.295 -0.5939 -0.1863 -2.6892
  188MOL0     H25321   9.159   8.632   3.198 -0.0686 -2.0742  0.9273
  188MOL0     H25322   9.275   8.536   3.107 -0.5361 -2.0301 -2.8897
  188MOL0     H25323   9.103   8.600   2.983  1.0473  0.4874  0.2907
  188MOL0     H25324   9.094   8.419   2.999 -1.9268  0.7634 -2.7193
  188MOL0     H25325   8.921   8.452   3.176  2.8813 -1.0397  0.9763
  188MOL0     H25326   8.941   8.631   3.159  2.6664  0.7835 -2.3969
  188MOL0     H25327   8.844   8.599   2.921 -4.0995  0.5118 -1.2760
  188MOL0     H25328   8.832   8.420   2.968  1.3062 -0.3825  3.2119
  188MOL0     H25329   8.665   8.662   3.057 -1.8165 -0.5810 -1.8027
  188MOL0     H25330   8.695   8.529   3.160  1.0902  0.5265  0.1332
  188MOL0     H25331   8.514   8.602   2.824 -6.0998 -0.8695 -2.6786
  188MOL0     H25332   8.306   8.494   2.700  5.1324 -0.3548  0.4949
  188MOL0     H25333   8.294   8.320   2.738 -2.3638 -1.2635  0.8388
  188MOL0     H25334   8.135   8.373   2.920 -0.1759 -0.8788 -0.2470
  188MOL0     H25335   8.074   8.393   2.758  0.7757  1.9208 -2.2294
  188MOL0     H25336   7.991   8.578   2.863 -0.0492 -0.8606 -0.8977
  188MOL0     H25337   8.095   8.632   2.742 -0.3975 -0.6801 -0.3428
  188MOL0     H25338   8.118   8.764   2.926  0.6110  0.3500  0.9576
  188MOL0     H25339   8.275   8.682   2.896  0.4969 -3.0528  1.1799
  188MOL0     H25340   8.116   8.893   3.131 -0.0586 -1.9908 -0.6022
  188MOL0     H25341   8.228   9.106   3.383  0.4369  2.0743 -1.1223
  188MOL0     H25342   8.317   9.153   3.233  2.7570 -1.2186  0.9277
  188MOL0     H25343   8.144   9.096   3.244 -1.9640 -0.7861  2.9598
  188MOL0     H25344   8.742   8.902   3.613  3.0591 -2.1046 -0.2045
  188MOL0     H25345   8.950   9.034   3.689  1.7802  2.1976  0.0249
  188MOL0     H25346   9.124   9.186   3.746 -1.4472 -0.9008 -0.4495
  188MOL0     H25347   9.170   9.049   3.639 -0.6564 -0.1239  0.3842
  188MOL0     H25348   9.306   9.331   3.669 -2.0513  0.6039 -2.3932
  188MOL0     H25349   9.370   9.174   3.726 -2.0494 -1.0428  0.9160
  188MOL0     H25350   9.464   9.282   3.503  0.8087 -0.1861  0.2723
  188MOL0     H25351   9.303   9.264   3.437  1.2956  0.9472 -0.7573
  188MOL0     H25352   9.451   9.023   3.519  0.0569 -1.1041  0.7605
  188MOL0     H25353   9.300   9.026   3.440  2.2066 -2.5137 -1.1165
  188MOL0     H25354   9.555   9.142   3.312  2.3808 -2.5306 -4.1634
  188MOL0     H25355   9.392   9.131   3.238  1.0565  1.1766 -0.0330
  188MOL0     H25356   9.566   8.907   3.327 -1.5991  0.0239  0.6878
  188MOL0     H25357   9.402   8.887   3.268  0.1476 -0.1835 -0.4288
  188MOL0     H25358   9.624   9.034   3.120  1.0890 -1.8411 -1.6110
  188MOL0     H25359   9.468   8.985   3.047  0.3196 -0.2932 -0.2956
  188MOL0     H25360   9.682   8.794   3.159  1.5553  3.8277  0.0112
  188MOL0     H25361   9.658   8.836   2.995  1.5600 -3.2234  0.9322
  188MOL0     H25362   8.954   9.248   3.326 -1.7693 -0.3607 -0.6190
  188MOL0     H25363   8.756   9.099   3.250 -2.5812 -2.6184  0.5583
  188MOL0     H25364   8.536   8.716   3.301 -0.5298 -0.0771  0.8874
  188MOL0     H25365   8.375   8.569   3.217  1.4103  0.7906  1.1978
  188MOL0     H25366   9.508   8.298   3.486  1.0320 -0.1778 -1.3042
  188MOL0     H25367   9.698   8.158   3.438 -0.6201  0.7577  0.4574
  188MOL0     H25368  10.028   7.851   3.600 -1.1516 -1.6865  1.5927
  188MOL0     H25369  10.214   7.722   3.563  2.4243  0.0515 -1.4467
  188MOL0     H25370  10.161   7.406   3.253  2.1268 -3.7801 -1.5898
  188MOL0     H25371  10.251   7.529   3.162 -1.6644  3.0378  1.7636
  188MOL0     H25372  10.355   7.286   3.196  0.8904  2.4666 -2.5201
  188MOL0     H25373  10.351   7.310   3.362 -0.8979  0.0052 -0.6606
  188MOL0     H25374  10.583   7.335   3.244 -1.8094 -1.6265  0.4300
  188MOL0     H25375  10.537   7.472   3.337 -0.7413 -0.3356 -0.1613
  188MOL0     H25376  10.477   7.599   3.125 -3.3829 -1.0534  0.2427
  188MOL0     H25377  10.477   7.449   3.029 -0.7087  0.2682 -0.1474
  188MOL0     H25378  10.885   7.594   3.050 -0.4953  3.8111  2.4834
  188MOL0     H25379  10.037   7.592   3.188 -2.0773  0.0124 -1.1454
  188MOL0     H25380   9.845   7.751   3.233 -0.1369  1.8314  0.9443
  189MOL0     O25381   5.810   1.289   0.772 -0.3113 -0.5027 -1.3497
  189MOL0     C25382   5.846   1.183   0.725 -0.3288  0.5697 -1.3182
  189MOL0     O25383   5.766   1.085   0.675 -0.7437  0.6901 -0.2326
  189MOL0     C25384   5.633   1.095   0.702 -0.6426 -0.4063 -0.5736
  189MOL0     C25385   5.534   1.120   0.608  1.1513  0.0639 -0.1614
  189MOL0     C25386   5.398   1.133   0.639  0.0978  0.1392 -0.1362
  189MOL0     C25387   5.348   1.116   0.768 -0.3795  0.0569  0.1580
  189MOL0     O25388   5.218   1.123   0.805  0.0624 -0.1458  0.4851
  189MOL0     C25389   5.120   1.083   0.706 -0.2573  0.1655 -0.0747
  189MOL0     C25390   4.987   1.077   0.759  0.3167 -0.3480 -0.9128
  189MOL0     C25391   4.885   1.051   0.652 -0.4053 -0.1930 -0.0782
  189MOL0     C25392   4.757   0.995   0.713  0.5264 -0.5180  0.2266
  189MOL0     C25393   4.639   0.978   0.608  0.0461  0.1881 -0.6349
  189MOL0     C25394   4.556   0.848   0.606 -0.2817  1.0274  0.0456
  189MOL0     C25395   4.461   0.847   0.736 -0.2788 -0.1524  0.4123
  189MOL0     C25396   4.344   0.950   0.724 -0.2451 -0.1583 -0.2173
  189MOL0     N25397   4.223   0.910   0.794  0.3011  0.1710 -0.0163
  189MOL0     C25398   4.101   0.896   0.732  0.4087  0.6536  1.2219
  189MOL0     C25399   4.016   0.872   0.833 -0.4975  0.5850  0.6144
  189MOL0     C25400   3.865   0.849   0.827  0.4577  0.0273  0.1217
  189MOL0     C25401   3.787   0.972   0.872  0.4152 -0.6512 -0.8350
  189MOL0     C25402   3.635   0.960   0.848 -0.2348  0.2936 -0.3177
  189MOL0     C25403   3.556   1.062   0.934 -0.3939  0.3683 -0.2371
  189MOL0     O25404   3.411   1.047   0.914  0.1691  0.0255 -0.2047
  189MOL0     C25405   3.356   1.160   0.866  0.6434 -0.3658 -0.2238
  189MOL0     C25406   3.388   1.201   0.732  0.6811 -0.3350  0.1803
  189MOL0     C25407   3.327   1.319   0.680 -0.1316 -0.4772  0.5904
  189MOL0     C25408   3.379   1.351   0.545  0.1976 -0.0476 -0.0957
  189MOL0     C25409   3.245   1.397   0.761  0.6387  0.6507 -0.9704
  189MOL0     C25410   3.179   1.515   0.717  0.5912  0.7795  0.3966
  189MOL0     O25411   3.185   1.617   0.805 -0.0521 -0.2059  0.1577
  189MOL0     C25412   3.073   1.690   0.817  0.3194  0.0636 -0.4607
  189MOL0     C25413   3.081   1.825   0.813 -0.0198 -0.3762  0.4288
  189MOL0     C25414   2.965   1.905   0.829  0.3065  0.9521  0.0571
  189MOL0     C25415   2.840   1.849   0.852 -0.5035  0.2748 -0.2619
  189MOL0     O25416   2.733   1.920   0.877 -0.4291 -0.1199  0.0556
  189MOL0     C25417   2.733   2.064   0.878  0.1467 -0.3832  0.1693
  189MOL0     C25418   2.607   2.122   0.931  0.6735 -0.1291 -0.2397
  189MOL0     C25419   2.491   2.105   0.842  0.5007 -0.4509  0.1751
  189MOL0     C25420   2.359   2.114   0.926  0.0582 -0.6570  0.9371
  189MOL0     C25421   2.241   2.143   0.828 -0.0567 -0.5289 -0.0452
  189MOL0     C25422   2.111   2.141   0.890  0.2955 -0.0990 -0.8356
  189MOL0     C25423   1.994   2.172   0.794 -0.1567  0.8673 -1.0633
  189MOL0     C25424   1.862   2.105   0.846  0.3150  0.4171 -0.0112
  189MOL0    Cl25425   1.772   2.059   0.701 -0.2116 -0.2521 -0.0732
  189MOL0     C25426   2.825   1.713   0.860 -0.8088  0.1559 -0.5820
  189MOL0     C25427   2.947   1.630   0.852  1.5514 -0.3005 -0.4160
  189MOL0     O25428   3.122   1.516   0.602  0.7732 -0.4872  0.1335
  189MOL0     C25429   3.220   1.352   0.893 -0.3436  1.5229 -0.4651
  189MOL0     C25430   3.263   1.228   0.938 -0.2259 -0.4857 -0.1683
  189MOL0     N25431   4.081   0.869   0.953  0.8158  0.8875  0.0171
  189MOL0     N25432   4.211   0.885   0.927  0.6059  0.5463  0.1147
  189MOL0     C25433   5.445   1.084   0.869 -0.0912 -0.1464 -0.0032
  189MOL0     C25434   5.582   1.073   0.833 -0.6704 -0.1141  0.0221
  189MOL0     C25435   5.994   1.160   0.720  0.1340 -0.7110 -0.3376
  189MOL0     C25436   6.082   1.263   0.768  0.0603  0.2172  0.1410
  189MOL0     C25437   6.221   1.238   0.773 -0.3737 -0.3027  0.0967
  189MOL0     C25438   6.279   1.125   0.714  0.1682 -0.1223  0.6769
  189MOL0     O25439   6.415   1.127   0.703  0.0162  1.4033  0.9433
  189MOL0     C25440   6.478   1.002   0.673 -0.4941 -0.3069  0.0282
  189MOL0     C25441   6.635   1.022   0.669 -0.0727 -0.1164  0.3462
  189MOL0     C25442   6.705   1.056   0.807  0.1612  0.1927 -0.2655
  189MOL0     C25443   6.855   1.050   0.796  0.1101 -0.5295 -0.6598
  189MOL0     C25444   6.922   1.016   0.924 -0.3063 -0.4167 -0.4782
  189MOL0     C25445   6.961   0.977   1.030 -0.1035 -0.8012  0.1170
  189MOL0     C25446   6.185   1.023   0.668  0.6213  0.7725  0.0165
  189MOL0     C25447   6.052   1.040   0.681  1.0337  0.1245 -0.3401
  189MOL0     H25448   5.563   1.117   0.503 -1.5369  1.5625 -1.0349
  189MOL0     H25449   5.333   1.152   0.554 -0.3860  1.5436  0.5194
  189MOL0     H25450   5.120   1.154   0.623 -1.5482  0.2712  0.0002
  189MOL0     H25451   5.149   0.986   0.665  0.2358  0.5344 -0.6223
  189MOL0     H25452   4.979   0.997   0.833  1.9843 -1.5159 -1.9248
  189MOL0     H25453   4.972   1.175   0.804  4.2083  0.6079 -1.3329
  189MOL0     H25454   4.863   1.143   0.597 -1.7318 -0.6739 -0.3947
  189MOL0     H25455   4.925   0.973   0.587  0.7193  1.1090 -1.0007
  189MOL0     H25456   4.778   0.905   0.772  1.2224 -0.7475 -0.3553
  189MOL0     H25457   4.716   1.062   0.790 -0.8019 -0.6494 -0.3466
  189MOL0     H25458   4.573   1.064   0.619  0.5255  0.3289  1.7908
  189MOL0     H25459   4.679   0.986   0.507 -2.4008  3.0131 -1.5204
  189MOL0     H25460   4.501   0.846   0.511  0.1959 -1.1817 -0.2443
  189MOL0     H25461   4.627   0.765   0.616 -0.0316  1.2701  0.2887
  189MOL0     H25462   4.417   0.747   0.744  0.7884 -0.6090  0.7290
  189MOL0     H25463   4.520   0.852   0.827  4.4386 -1.0002 -2.2730
  189MOL0     H25464   4.310   0.967   0.622  1.8702 -0.0893 -0.9722
  189MOL0     H25465   4.386   1.050   0.742 -1.7479  0.9013 -2.3052
  189MOL0     H25466   4.073   0.897   0.627  1.0560  0.5978  1.0447
  189MOL0     H25467   3.847   0.816   0.725 -2.7017  0.3717  0.4834
  189MOL0     H25468   3.845   0.764   0.894 -1.1919 -0.9505 -1.5401
  189MOL0     H25469   3.822   1.062   0.820 -0.3500  1.0283  1.3621
  189MOL0     H25470   3.800   0.982   0.980 -3.9587  0.4409 -0.2010
  189MOL0     H25471   3.603   0.860   0.878 -0.7957  0.4400 -0.4098
  189MOL0     H25472   3.595   0.971   0.747  0.0534 -3.8271 -1.0562
  189MOL0     H25473   3.591   1.160   0.900  0.9920  0.2920  0.8504
  189MOL0     H25474   3.577   1.043   1.040  0.7616 -0.0558 -0.5281
  189MOL0     H25475   3.458   1.142   0.674  1.8264  0.8318  0.3229
  189MOL0     H25476   3.325   1.438   0.507 -3.3078 -2.2870 -0.7496
  189MOL0     H25477   3.487   1.367   0.558  0.8857 -2.3720 -2.0720
  189MOL0     H25478   3.375   1.272   0.469 -0.7333  0.7380 -0.8996
  189MOL0     H25479   3.174   1.881   0.804 -0.7279  1.4919  3.1865
  189MOL0     H25480   2.977   2.013   0.828  1.2437  0.8579 -0.8763
  189MOL0     H25481   2.795   2.098   0.961 -1.0168  2.1804  0.0939
  189MOL0     H25482   2.750   2.107   0.779  0.6113 -2.2023 -0.5859
  189MOL0     H25483   2.584   2.081   1.030 -1.6695  3.0448  0.7291
  189MOL0     H25484   2.623   2.230   0.932 -2.4642  0.4572  0.4408
  189MOL0     H25485   2.496   2.008   0.793 -0.0096 -0.3617 -0.0645
  189MOL0     H25486   2.496   2.179   0.762  0.6342 -0.3682  0.2600
  189MOL0     H25487   2.338   2.026   0.986 -0.9578  0.6314  2.5472
  189MOL0     H25488   2.375   2.202   0.989  2.3705  0.8635 -1.5243
  189MOL0     H25489   2.232   2.071   0.746 -3.3143  1.5039 -1.7180
  189MOL0     H25490   2.254   2.234   0.768  0.2441  0.4736  1.4820
  189MOL0     H25491   2.098   2.038   0.925 -0.8657  0.0029 -0.9452
  189MOL0     H25492   2.113   2.196   0.984  0.2859 -0.8504 -0.3876
  189MOL0     H25493   2.017   2.123   0.699 -0.7789 -1.4738 -0.0935
  189MOL0     H25494   1.988   2.279   0.772  1.0523  1.0278 -0.7327
  189MOL0     H25495   1.804   2.176   0.906 -3.3370 -0.6885 -1.9412
  189MOL0     H25496   1.879   2.015   0.905  0.2401  1.6669  2.0503
  189MOL0     H25497   2.728   1.664   0.868 -0.4360 -0.7605 -1.3986
  189MOL0     H25498   2.935   1.525   0.874  2.0011  0.0028  1.4749
  189MOL0     H25499   3.151   1.406   0.958 -0.9390 -1.1255  1.2830
  189MOL0     H25500   3.219   1.198   1.033 -1.4329 -1.5370 -1.0211
  189MOL0     H25501   5.414   1.087   0.973  0.3961  1.1575  0.1178
  189MOL0     H25502   5.655   1.058   0.912 -1.1884  0.9325  0.7334
  189MOL0     H25503   6.043   1.362   0.789  0.7984  1.0349 -2.0912
  189MOL0     H25504   6.288   1.311   0.817  0.1927 -2.5108  3.2222
  189MOL0     H25505   6.456   0.929   0.752  0.3736  2.3624  2.9784
  189MOL0     H25506   6.444   0.962   0.578 -1.5527  0.8976 -0.1233
  189MOL0     H25507   6.653   1.100   0.595 -1.2770 -0.3920 -0.2574
  189MOL0     H25508   6.670   0.923   0.639 -3.2063 -0.4960 -2.6546
  189MOL0     H25509   6.663   0.984   0.877 -4.3302  1.0270 -1.7559
  189MOL0     H25510   6.683   1.155   0.848  3.5185  0.4666  1.1427
  189MOL0     H25511   6.890   1.149   0.765 -2.2167  0.8843  0.8553
  189MOL0     H25512   6.882   0.973   0.724 -2.6938 -0.1614 -2.2419
  189MOL0     H25513   7.003   0.932   1.117  1.2618 -0.2505 -0.2444
  189MOL0     H25514   6.215   0.924   0.635  1.1841  0.8471  0.2992
  189MOL0     H25515   5.979   0.964   0.655  1.8858 -0.2332 -1.7600
  190MOL0     O25516  10.159   2.410   6.046  0.0231 -0.2715  0.3618
  190MOL0     C25517  10.209   2.519   6.075 -0.8217  1.1967  0.5383
  190MOL0     O25518  10.142   2.641   6.075 -0.0580  0.5453 -0.2583
  190MOL0     C25519  10.003   2.643   6.057  0.2549 -0.0161  0.0203
  190MOL0     C25520   9.938   2.573   5.954 -0.4656  0.3188 -0.9951
  190MOL0     C25521   9.810   2.592   5.920 -0.0904  0.2017  0.3598
  190MOL0     C25522   9.731   2.686   5.988 -0.4255 -1.2596  0.7117
  190MOL0     O25523   9.597   2.705   5.953 -0.8192  0.7555 -0.6320
  190MOL0     C25524   9.544   2.838   5.963 -0.4336  0.0125 -0.1292
  190MOL0     C25525   9.405   2.845   5.910 -0.2038  0.3221  0.1354
  190MOL0     C25526   9.306   2.752   5.983  0.3371 -0.4747 -0.1505
  190MOL0     C25527   9.163   2.809   5.973  0.1525  0.2411 -0.6263
  190MOL0     C25528   9.057   2.725   6.038  0.1601 -0.3947  0.0912
  190MOL0     C25529   8.921   2.778   6.004 -0.3060  0.7947 -0.0587
  190MOL0     C25530   8.818   2.686   6.070 -0.2380  0.4337 -0.2014
  190MOL0     C25531   8.675   2.741   6.074  0.3043  0.6692  0.3824
  190MOL0     N25532   8.621   2.771   5.941  0.4465  0.4662  0.4925
  190MOL0     C25533   8.584   2.892   5.887 -0.0672 -0.0934 -0.4644
  190MOL0     C25534   8.508   2.871   5.785 -0.5458 -0.2366 -0.0678
  190MOL0     C25535   8.452   2.974   5.696 -0.8580 -0.3354  0.5545
  190MOL0     C25536   8.310   3.012   5.742  0.0269  1.0049  0.3727
  190MOL0     C25537   8.298   3.103   5.866 -0.6157  1.0756 -0.1870
  190MOL0     C25538   8.158   3.173   5.880  0.6826  0.2110 -0.2288
  190MOL0     O25539   8.054   3.073   5.876  0.8665 -0.7369 -0.1082
  190MOL0     C25540   7.924   3.109   5.866 -0.4891  0.0031 -0.7591
  190MOL0     C25541   7.865   3.231   5.845 -0.2992  0.2854  0.2817
  190MOL0     C25542   7.727   3.255   5.856  1.3096  1.1820  0.8648
  190MOL0     C25543   7.682   3.400   5.858  0.1670  0.8092  1.0137
  190MOL0     C25544   7.638   3.148   5.860  0.3548  0.0265 -0.1798
  190MOL0     C25545   7.492   3.152   5.897  0.3729  0.2702  0.2554
  190MOL0     O25546   7.422   3.269   5.882 -0.2078  0.3863 -0.2040
  190MOL0     C25547   7.291   3.250   5.859 -0.1162 -0.0087 -0.2788
  190MOL0     C25548   7.188   3.293   5.950 -0.2332  0.6395 -0.1150
  190MOL0     C25549   7.052   3.281   5.917 -0.3878  0.0407  0.1465
  190MOL0     C25550   7.013   3.223   5.792  0.4383 -1.2752 -0.2961
  190MOL0     O25551   6.882   3.215   5.753  0.0675 -0.0186  1.0871
  190MOL0     C25552   6.789   3.273   5.839 -0.0533  0.3936 -0.1243
  190MOL0     C25553   6.663   3.253   5.760  0.2886  0.1130 -0.5275
  190MOL0     C25554   6.539   3.305   5.845 -0.5851 -0.3718  0.1370
  190MOL0     C25555   6.412   3.292   5.756  0.3807 -0.4096 -0.1811
  190MOL0     C25556   6.353   3.146   5.774 -1.6325 -0.2090  0.8634
  190MOL0     C25557   6.239   3.137   5.673 -0.3501  0.2333  0.2979
  190MOL0     C25558   6.151   3.020   5.697  0.1248 -0.6932  0.8633
  190MOL0     C25559   6.011   3.063   5.639 -0.1421  0.0780 -0.7226
  190MOL0    Cl25560   5.918   2.922   5.604  0.2289  0.0990  0.2989
  190MOL0     C25561   7.114   3.173   5.703 -0.4694 -0.3764  0.1902
  190MOL0     C25562   7.250   3.184   5.738 -0.7974 -0.1709 -0.1821
  190MOL0     O25563   7.441   3.050   5.937 -0.0351 -0.1706  0.3773
  190MOL0     C25564   7.702   3.017   5.867  0.0534  0.1860 -0.5355
  190MOL0     C25565   7.837   3.001   5.862  0.1446  0.0334  0.0997
  190MOL0     N25566   8.507   2.738   5.759 -0.5359 -0.6585  0.1528
  190MOL0     N25567   8.573   2.682   5.848 -0.0037  0.4378 -0.4189
  190MOL0     C25568   9.789   2.748   6.096 -0.3138 -0.2894 -0.1288
  190MOL0     C25569   9.924   2.730   6.134 -0.1821  0.0326 -0.0398
  190MOL0     C25570  10.353   2.519   6.130 -0.1751 -0.7307  0.1699
  190MOL0     C25571  10.409   2.404   6.161  0.3639 -0.3395  0.1967
  190MOL0     C25572  10.534   2.401   6.230  0.2554 -0.8968  0.2070
  190MOL0     C25573  10.603   2.511   6.271  0.4198 -0.2816 -0.2142
  190MOL0     O25574  10.722   2.498   6.337  0.4560  0.4757 -0.2140
  190MOL0     C25575  10.825   2.598   6.332 -0.2431  0.3554  0.4635
  190MOL0     C25576  10.913   2.585   6.208 -0.4872  0.1138  0.1033
  190MOL0     C25577  10.990   2.449   6.212  0.2794 -0.2006 -0.3027
  190MOL0     C25578  11.115   2.445   6.307 -0.6033 -0.6970 -0.2494
  190MOL0     C25579  11.213   2.555   6.288  0.2908 -0.6223  0.7865
  190MOL0     C25580  11.297   2.638   6.274  0.4077 -0.4276 -0.6566
  190MOL0     C25581  10.542   2.635   6.239 -0.0736 -0.1493  0.7784
  190MOL0     C25582  10.419   2.639   6.179 -0.7348  0.5071 -0.0419
  190MOL0     H25583   9.971   2.490   5.893 -0.4691 -1.1046  0.8692
  190MOL0     H25584   9.773   2.536   5.835 -1.3903 -1.3537  1.8862
  190MOL0     H25585   9.552   2.877   6.065  1.8490 -2.8518  0.9141
  190MOL0     H25586   9.606   2.900   5.898  0.8207 -1.3383 -0.2638
  190MOL0     H25587   9.366   2.945   5.929  0.8174  0.5472  1.1426
  190MOL0     H25588   9.403   2.805   5.808 -0.2700 -0.0856  0.2919
  190MOL0     H25589   9.305   2.657   5.928 -0.1251  0.3996 -1.7082
  190MOL0     H25590   9.334   2.733   6.087  0.4916 -0.2027 -0.1425
  190MOL0     H25591   9.167   2.905   6.026  0.2159  0.5334 -1.1464
  190MOL0     H25592   9.128   2.829   5.871 -1.9109 -0.1301 -0.0544
  190MOL0     H25593   9.069   2.625   5.996 -0.6826 -0.0328 -1.0512
  190MOL0     H25594   9.086   2.721   6.143  3.9292 -1.5851 -0.8294
  190MOL0     H25595   8.919   2.882   6.037  1.6705  0.5873  0.8253
  190MOL0     H25596   8.910   2.773   5.895 -0.5090  1.5228 -0.0735
  190MOL0     H25597   8.817   2.592   6.015  0.3565  0.1845  0.1941
  190MOL0     H25598   8.851   2.662   6.172 -0.8633  0.8185  0.1005
  190MOL0     H25599   8.669   2.834   6.132 -0.1879  1.5700 -1.0474
  190MOL0     H25600   8.609   2.666   6.120  0.8169  1.2331  2.1425
  190MOL0     H25601   8.600   2.995   5.914 -0.6857  0.9693 -3.7447
  190MOL0     H25602   8.517   3.062   5.708 -1.1830 -0.2987  2.3023
  190MOL0     H25603   8.457   2.939   5.592  0.2536  1.0872  0.0850
  190MOL0     H25604   8.255   2.918   5.749 -0.5919  1.0653 -2.6812
  190MOL0     H25605   8.252   3.064   5.666 -2.8392  1.2172  2.5413
  190MOL0     H25606   8.374   3.181   5.859 -0.4006  0.9195  0.3444
  190MOL0     H25607   8.318   3.043   5.955  1.8903 -0.3502 -1.6079
  190MOL0     H25608   8.157   3.241   5.795  2.5153  0.2536 -0.2643
  190MOL0     H25609   8.155   3.226   5.975 -3.9646  0.1730 -0.1357
  190MOL0     H25610   7.932   3.312   5.820  0.1942 -0.5299 -1.2104
  190MOL0     H25611   7.630   3.430   5.766 -4.1803  3.2524  3.9261
  190MOL0     H25612   7.607   3.412   5.937 -3.3686 -0.3687 -1.8729
  190MOL0     H25613   7.770   3.465   5.862 -0.0993  1.6501 -2.6926
  190MOL0     H25614   7.226   3.354   6.031  2.8355 -1.5564  0.2677
  190MOL0     H25615   6.989   3.327   5.993 -1.6752 -1.3714 -0.0099
  190MOL0     H25616   6.792   3.232   5.941 -1.3893  3.8001  1.4264
  190MOL0     H25617   6.812   3.379   5.844  1.0023  0.2649 -1.5179
  190MOL0     H25618   6.675   3.307   5.666  2.0221 -0.8859 -0.9180
  190MOL0     H25619   6.657   3.145   5.746  0.2833  0.1203 -0.5816
  190MOL0     H25620   6.568   3.405   5.879  1.8936 -0.3623 -1.6770
  190MOL0     H25621   6.519   3.241   5.932  1.2349  1.4346  2.0070
  190MOL0     H25622   6.340   3.364   5.796  1.0684  0.8178 -1.0930
  190MOL0     H25623   6.430   3.333   5.656 -3.6277 -1.1507 -1.3902
  190MOL0     H25624   6.313   3.146   5.876 -1.4636 -1.3173  0.9425
  190MOL0     H25625   6.420   3.061   5.758 -2.2929 -0.9337  1.8569
  190MOL0     H25626   6.177   3.223   5.699 -1.8034 -0.8867  0.6601
  190MOL0     H25627   6.277   3.143   5.570 -3.9468 -0.6410 -1.2350
  190MOL0     H25628   6.144   2.986   5.801 -0.0238  1.4709  1.6183
  190MOL0     H25629   6.185   2.936   5.635 -1.2456  0.8888 -2.2430
  190MOL0     H25630   6.016   3.120   5.546 -3.0879 -1.3692 -1.8951
  190MOL0     H25631   5.969   3.138   5.706  0.7778  2.4376 -2.6503
  190MOL0     H25632   7.092   3.115   5.614  3.2919 -2.0457  0.1494
  190MOL0     H25633   7.321   3.142   5.667 -0.1046  0.6079  0.0397
  190MOL0     H25634   7.640   2.929   5.880 -1.5526  1.5762  2.4501
  190MOL0     H25635   7.878   2.901   5.872  1.8762  0.6932  0.0156
  190MOL0     H25636   9.737   2.821   6.155 -0.3826 -0.1854 -0.3180
  190MOL0     H25637   9.965   2.786   6.218 -1.6771 -0.1503  0.8616
  190MOL0     H25638  10.356   2.311   6.143  0.8493 -0.7584  0.9022
  190MOL0     H25639  10.573   2.301   6.248 -0.2777 -0.8345  1.9275
  190MOL0     H25640  10.799   2.704   6.342  0.0866  0.4169  0.6850
  190MOL0     H25641  10.888   2.571   6.418 -0.3919 -1.5858  0.0194
  190MOL0     H25642  10.981   2.671   6.202 -0.2277 -0.1663 -1.4632
  190MOL0     H25643  10.850   2.589   6.119 -1.9949  0.5092  1.1514
  190MOL0     H25644  11.030   2.430   6.112  0.8223  0.5537 -0.2289
  190MOL0     H25645  10.922   2.365   6.230 -1.0083  0.8763  0.0659
  190MOL0     H25646  11.163   2.349   6.286  0.5244 -0.6155  1.7114
  190MOL0     H25647  11.077   2.445   6.409  2.1866 -0.1415  0.8793
  190MOL0     H25648  11.377   2.708   6.260  0.4544 -0.7453 -2.1548
  190MOL0     H25649  10.588   2.730   6.263  0.7810 -0.2203 -0.4693
  190MOL0     H25650  10.366   2.732   6.163 -0.1866  1.4533  3.1075
  191MOL0     O25651  10.106   8.962   7.996 -0.1951  0.1960  0.2190
  191MOL0     C25652  10.160   9.060   7.948 -0.5194 -0.3979 -0.0663
  191MOL0     O25653  10.107   9.177   7.914 -0.2670 -0.3285 -0.3933
  191MOL0     C25654   9.975   9.194   7.899  0.5306  0.0962 -0.9994
  191MOL0     C25655   9.934   9.232   7.778  0.8784  0.1530  0.5633
  191MOL0     C25656   9.800   9.263   7.740  0.0285  0.2657 -0.1754
  191MOL0     C25657   9.700   9.224   7.840  0.0370 -0.5234  0.7150
  191MOL0     O25658   9.573   9.229   7.797  0.4826  0.0157 -0.9589
  191MOL0     C25659   9.482   9.138   7.870 -0.3763  0.1417  0.5465
  191MOL0     C25660   9.340   9.173   7.820  1.1841  0.3890  0.3608
  191MOL0     C25661   9.259   9.051   7.820  0.1336  0.5010 -0.2673
  191MOL0     C25662   9.117   9.088   7.774 -0.3134  0.9168  0.4825
  191MOL0     C25663   9.008   8.977   7.755 -0.4099  0.8609  0.4573
  191MOL0     C25664   8.871   9.040   7.755 -1.2928 -0.2988  0.1375
  191MOL0     C25665   8.776   8.922   7.728 -0.7995 -0.2467 -0.0982
  191MOL0     C25666   8.636   8.968   7.769 -0.5635 -0.6177 -0.4604
  191MOL0     N25667   8.542   8.854   7.762  0.2922 -0.2591  0.6142
  191MOL0     C25668   8.552   8.728   7.809 -0.5276  0.1593 -1.1429
  191MOL0     C25669   8.451   8.652   7.766  0.4843 -0.4575  0.4817
  191MOL0     C25670   8.425   8.506   7.784  0.8734 -0.7802 -0.9217
  191MOL0     C25671   8.331   8.466   7.671 -0.7259  0.6215 -0.1310
  191MOL0     C25672   8.290   8.319   7.684 -0.0874  0.7938  0.5760
  191MOL0     C25673   8.206   8.268   7.563 -0.6431 -0.5321 -0.1217
  191MOL0     O25674   8.164   8.144   7.608 -0.6400  0.3094  0.9125
  191MOL0     C25675   8.072   8.083   7.534  0.5009 -0.1803 -1.1365
  191MOL0     C25676   8.027   8.128   7.409 -0.9179  0.5382  0.3547
  191MOL0     C25677   7.940   8.053   7.329  0.2191 -0.0953 -0.0687
  191MOL0     C25678   7.901   8.119   7.191 -0.2882  0.7069 -0.8145
  191MOL0     C25679   7.897   7.919   7.378  0.2448  0.0940 -0.1934
  191MOL0     C25680   7.803   7.827   7.316  0.3873 -0.7399  1.1151
  191MOL0     O25681   7.693   7.878   7.263 -0.3220  0.2130  0.2763
  191MOL0     C25682   7.599   7.780   7.230 -0.9120  0.1662 -0.0185
  191MOL0     C25683   7.492   7.762   7.311  0.2580  0.1087 -0.2637
  191MOL0     C25684   7.399   7.656   7.290 -0.0936  0.4815 -0.4084
  191MOL0     C25685   7.414   7.566   7.179  1.2471 -1.1041  0.0234
  191MOL0     O25686   7.321   7.472   7.150  0.6234  0.1277  0.1632
  191MOL0     C25687   7.303   7.426   7.013 -0.9567  0.4218  0.5605
  191MOL0     C25688   7.176   7.346   7.005 -0.0358 -0.5100  0.0775
  191MOL0     C25689   7.058   7.448   7.013  0.4744 -1.1265  0.3594
  191MOL0     C25690   6.989   7.498   6.888  0.1023  0.1075 -0.3708
  191MOL0     C25691   7.055   7.621   6.821  1.6094 -0.0022 -0.1191
  191MOL0     C25692   7.015   7.755   6.890  0.8051 -0.2730 -0.4546
  191MOL0     C25693   7.069   7.881   6.824  0.5703  0.2280 -0.2029
  191MOL0     C25694   7.215   7.896   6.852 -0.4258  0.1141 -0.2430
  191MOL0    Cl25695   7.309   7.793   6.740 -0.3704 -0.1625 -0.0361
  191MOL0     C25696   7.527   7.584   7.097 -0.0785 -1.1405  0.6801
  191MOL0     C25697   7.612   7.696   7.122  0.0336 -0.3285 -0.3595
  191MOL0     O25698   7.829   7.707   7.319 -0.4880  0.0089 -0.0939
  191MOL0     C25699   7.948   7.871   7.506 -0.5692 -0.8569  1.0701
  191MOL0     C25700   8.032   7.956   7.572 -0.1321  0.2462 -0.2317
  191MOL0     N25701   8.371   8.741   7.699 -0.0710  0.3214 -0.2216
  191MOL0     N25702   8.425   8.857   7.695  0.5394 -0.1890  0.3118
  191MOL0     C25703   9.745   9.183   7.969 -0.3743  0.4414  0.0496
  191MOL0     C25704   9.881   9.177   8.001 -0.1595 -0.0405  0.8210
  191MOL0     C25705  10.313   9.056   7.961  0.8658 -0.1333 -0.0801
  191MOL0     C25706  10.383   8.936   7.962 -0.7790  0.2669  0.3870
  191MOL0     C25707  10.522   8.928   7.969  0.1235  0.1509  0.0880
  191MOL0     C25708  10.593   9.049   7.982  0.5150  0.4116  1.1035
  191MOL0     O25709  10.723   9.066   7.999  0.0315  0.1002  0.2141
  191MOL0     C25710  10.793   8.946   8.032 -0.4116  0.6861 -0.4924
  191MOL0     C25711  10.934   8.985   8.080  0.7996 -0.6143 -0.2789
  191MOL0     C25712  11.010   8.866   8.123 -0.1007 -0.4628  0.3680
  191MOL0     C25713  11.153   8.889   8.126 -0.4927  0.6691 -0.1088
  191MOL0     C25714  11.236   8.783   8.192  0.4664  0.1289  0.6239
  191MOL0     C25715  11.265   8.671   8.231  0.4942  0.7066  0.3387
  191MOL0     C25716  10.527   9.172   7.975  0.1665  0.3090 -0.1751
  191MOL0     C25717  10.390   9.175   7.960 -0.4986 -0.1129 -0.1027
  191MOL0     H25718  10.008   9.246   7.700 -1.0402 -2.4594 -1.9891
  191MOL0     H25719   9.769   9.286   7.639 -1.3720 -0.0620  0.1560
  191MOL0     H25720   9.512   9.036   7.847  3.4382  1.0547  0.8482
  191MOL0     H25721   9.483   9.151   7.978  0.6487  2.0472  0.3550
  191MOL0     H25722   9.284   9.247   7.879 -0.4643 -0.4095 -0.1406
  191MOL0     H25723   9.348   9.227   7.725 -1.7710  1.5924  0.6975
  191MOL0     H25724   9.304   8.988   7.743  2.9507  2.9595 -0.8307
  191MOL0     H25725   9.254   8.991   7.911 -0.1436  0.1597 -0.5048
  191MOL0     H25726   9.076   9.158   7.846 -2.1157 -1.6225  2.0754
  191MOL0     H25727   9.127   9.138   7.677 -1.0458 -2.4898 -1.5503
  191MOL0     H25728   9.028   8.920   7.664  2.1804  2.2364  0.0708
  191MOL0     H25729   9.020   8.912   7.842 -0.2024  3.4594  2.4952
  191MOL0     H25730   8.857   9.081   7.855 -1.1144 -0.8092  0.3779
  191MOL0     H25731   8.862   9.126   7.688 -1.0384 -0.0272  0.4460
  191MOL0     H25732   8.793   8.877   7.630  0.4360 -0.5048  0.2172
  191MOL0     H25733   8.810   8.851   7.804 -2.5212 -1.5597 -0.4943
  191MOL0     H25734   8.602   9.048   7.702  1.6408  0.1863 -0.7003
  191MOL0     H25735   8.636   8.999   7.874  1.7889  0.8294 -0.8094
  191MOL0     H25736   8.629   8.692   7.877 -0.3687 -1.3816 -2.0878
  191MOL0     H25737   8.526   8.465   7.771  1.8597  0.5317  1.6928
  191MOL0     H25738   8.392   8.494   7.888  3.6503  0.6359  0.2414
  191MOL0     H25739   8.389   8.476   7.579 -1.0312 -2.5762 -0.8085
  191MOL0     H25740   8.239   8.523   7.667 -3.7903 -3.8022 -0.3056
  191MOL0     H25741   8.217   8.320   7.766 -1.2510 -0.0488 -0.4085
  191MOL0     H25742   8.366   8.241   7.693 -1.9406 -0.9382  2.1680
  191MOL0     H25743   8.270   8.242   7.478  0.8036 -0.9908  1.0746
  191MOL0     H25744   8.125   8.336   7.534 -0.8362 -0.3097  0.9237
  191MOL0     H25745   8.050   8.222   7.360  2.3692 -1.8075 -3.1401
  191MOL0     H25746   7.808   8.176   7.196  1.4320  3.5558  2.2166
  191MOL0     H25747   7.977   8.188   7.154 -0.6316  2.3099  1.2611
  191MOL0     H25748   7.893   8.031   7.127  2.2877  0.0749 -0.3811
  191MOL0     H25749   7.465   7.835   7.387  3.3785  0.7345  0.3754
  191MOL0     H25750   7.314   7.642   7.356  1.6189  0.0027  1.8393
  191MOL0     H25751   7.290   7.506   6.939 -0.1268 -0.1398 -0.2195
  191MOL0     H25752   7.380   7.354   6.984 -2.4018 -3.1957  4.7060
  191MOL0     H25753   7.171   7.285   6.914  0.4920 -0.6768  0.1597
  191MOL0     H25754   7.175   7.269   7.083 -0.0778 -1.8205 -1.1774
  191MOL0     H25755   7.078   7.534   7.078  1.3507 -1.0124 -0.0524
  191MOL0     H25756   6.974   7.393   7.056  0.5785 -2.7359 -1.3836
  191MOL0     H25757   6.996   7.414   6.818  0.6971 -0.1843  0.0307
  191MOL0     H25758   6.888   7.525   6.920  0.2176 -0.0300  0.1243
  191MOL0     H25759   7.014   7.625   6.720  1.3843 -0.6796 -0.0633
  191MOL0     H25760   7.163   7.611   6.805  1.7735  1.1193  0.2035
  191MOL0     H25761   6.906   7.757   6.895  0.8419 -0.3811  0.5528
  191MOL0     H25762   7.047   7.750   6.995 -1.3544  1.1330  0.3483
  191MOL0     H25763   7.012   7.969   6.855  1.4102  1.3659 -1.7612
  191MOL0     H25764   7.067   7.883   6.715  2.5928  0.2060 -0.2901
  191MOL0     H25765   7.222   7.879   6.959  1.0000  1.6637 -0.0408
  191MOL0     H25766   7.251   7.996   6.826  0.2868  0.0105  0.3346
  191MOL0     H25767   7.546   7.541   6.999  0.4770  0.4712  0.0500
  191MOL0     H25768   7.701   7.712   7.062 -2.3633  3.1352 -3.4734
  191MOL0     H25769   7.916   7.777   7.549  0.3002 -2.2590 -1.1796
  191MOL0     H25770   8.076   7.915   7.663  0.2492 -2.0143 -1.3637
  191MOL0     H25771   9.677   9.159   8.050 -1.1101 -0.1336 -0.7289
  191MOL0     H25772   9.932   9.150   8.093 -0.5282 -1.7358  0.5707
  191MOL0     H25773  10.336   8.838   7.955  1.3122 -0.8735  1.2540
  191MOL0     H25774  10.584   8.840   7.955 -1.4710 -1.1664  0.9762
  191MOL0     H25775  10.745   8.896   8.116  0.1325  3.8823  1.9229
  191MOL0     H25776  10.798   8.887   7.940  0.3250  0.6925 -0.4679
  191MOL0     H25777  10.921   9.052   8.165  0.3474 -2.6269  1.3198
  191MOL0     H25778  10.986   9.027   7.993  0.2116 -4.4603 -2.7362
  191MOL0     H25779  10.993   8.786   8.051 -1.7240  2.4414 -2.7463
  191MOL0     H25780  10.979   8.839   8.225  0.9478  0.4705  0.9638
  191MOL0     H25781  11.180   8.986   8.170  2.4154 -1.1950  2.6855
  191MOL0     H25782  11.194   8.896   8.026 -1.0335  0.2719 -0.3640
  191MOL0     H25783  11.306   8.577   8.263  2.5538  1.7157  0.8414
  191MOL0     H25784  10.583   9.265   7.975  1.5250 -0.4793  0.4620
  191MOL0     H25785  10.348   9.274   7.941  0.6727  0.4992  0.3873
  192MOL0     O25786   0.763   1.905   2.776 -0.5432  0.2376  0.4326
  192MOL0     C25787   0.767   1.928   2.899 -0.8028  0.5501  0.6940
  192MOL0     O25788   0.671   1.971   2.982 -0.1399 -0.6876  0.3760
  192MOL0     C25789   0.549   2.009   2.944  0.1880  0.6262  0.4305
  192MOL0     C25790   0.482   2.118   3.015 -0.0396  0.3798  0.8532
  192MOL0     C25791   0.348   2.153   2.982 -0.2309  0.2921  0.1162
  192MOL0     C25792   0.281   2.094   2.876  0.5312  0.1106 -0.7605
  192MOL0     O25793   0.150   2.130   2.849 -0.4323 -0.6868 -0.1864
  192MOL0     C25794   0.039   2.067   2.924 -0.0591  0.5770  0.0604
  192MOL0     C25795  -0.097   2.120   2.881  0.1265 -0.2539  0.2998
  192MOL0     C25796  -0.210   2.022   2.930  0.0743 -0.5753  0.6967
  192MOL0     C25797  -0.351   2.089   2.936  1.5679 -0.2946 -0.4834
  192MOL0     C25798  -0.378   2.164   3.073 -0.1460  1.0015  0.2929
  192MOL0     C25799  -0.438   2.069   3.172  0.0946  0.9276  0.1322
  192MOL0     C25800  -0.498   2.151   3.293 -0.2494  0.3959 -0.2143
  192MOL0     C25801  -0.564   2.067   3.397 -0.2967 -0.9094  0.2719
  192MOL0     N25802  -0.714   2.084   3.396 -0.2980 -0.6611 -0.1274
  192MOL0     C25803  -0.807   1.992   3.364  0.1113  0.3206  0.5706
  192MOL0     C25804  -0.926   2.060   3.365 -0.5853 -0.4754  0.2841
  192MOL0     C25805  -1.060   2.001   3.341  0.5119  0.1582  0.4559
  192MOL0     C25806  -1.071   1.941   3.195  0.3309 -0.4477  0.0619
  192MOL0     C25807  -1.042   2.048   3.087  0.9623 -0.3020  0.2500
  192MOL0     C25808  -1.104   2.186   3.108  0.5445 -0.4395  0.1508
  192MOL0     O25809  -1.056   2.270   2.996 -0.1869 -0.0308  0.1873
  192MOL0     C25810  -0.981   2.389   3.006  0.4338 -0.3613  0.2623
  192MOL0     C25811  -0.993   2.482   2.895  1.1991 -0.4631 -0.3374
  192MOL0     C25812  -0.943   2.610   2.902 -0.6432  0.1745  0.0535
  192MOL0     C25813  -0.973   2.703   2.783 -0.1263  0.6210  0.4882
  192MOL0     C25814  -0.851   2.633   3.008 -0.8313  0.2885  0.8603
  192MOL0     C25815  -0.777   2.766   3.019 -0.1399  0.3863 -0.2691
  192MOL0     O25816  -0.693   2.765   3.122 -0.1533 -0.5699  0.1480
  192MOL0     C25817  -0.624   2.883   3.155 -0.0909  0.1381  0.0983
  192MOL0     C25818  -0.485   2.884   3.189  0.2247  0.6497 -0.3012
  192MOL0     C25819  -0.421   2.997   3.244  0.1389  0.1422 -0.5409
  192MOL0     C25820  -0.487   3.121   3.258 -0.7716 -0.0147  0.4970
  192MOL0     O25821  -0.432   3.235   3.313 -0.2990  0.2754  0.4934
  192MOL0     C25822  -0.331   3.213   3.408 -0.4495  0.5844 -0.2297
  192MOL0     C25823  -0.194   3.239   3.340  0.5477  0.2819 -0.4283
  192MOL0     C25824  -0.082   3.199   3.448 -0.2646 -1.1513  0.3703
  192MOL0     C25825   0.059   3.232   3.400  0.9672  0.3325 -0.3285
  192MOL0     C25826   0.173   3.181   3.490  0.5150  0.4021  0.9594
  192MOL0     C25827   0.299   3.179   3.399 -0.5717  0.1325 -0.7770
  192MOL0     C25828   0.424   3.147   3.494  0.5133 -0.1380  0.0689
  192MOL0     C25829   0.556   3.125   3.419 -0.3942 -0.3605 -0.5186
  192MOL0    Cl25830   0.573   3.263   3.305  0.2362 -0.3095 -0.2486
  192MOL0     C25831  -0.625   3.122   3.222 -0.3355  0.3058  0.1521
  192MOL0     C25832  -0.687   3.009   3.168  1.2605  0.0845 -0.0026
  192MOL0     O25833  -0.778   2.851   2.933 -0.4272  0.4623  0.2926
  192MOL0     C25834  -0.817   2.532   3.098  0.1824 -0.5527 -0.2492
  192MOL0     C25835  -0.901   2.425   3.109  0.2608 -0.8837 -0.4107
  192MOL0     N25836  -0.903   2.186   3.422  0.5985 -0.2499  0.2352
  192MOL0     N25837  -0.778   2.193   3.446  0.0895  0.1558 -0.3136
  192MOL0     C25838   0.350   1.994   2.801 -0.3944  0.1114  0.3908
  192MOL0     C25839   0.481   1.951   2.839  0.0278  0.7082  0.1935
  192MOL0     C25840   0.893   1.897   2.972 -0.3801  0.1809 -0.4540
  192MOL0     C25841   0.899   1.874   3.109  0.2011 -0.1467  0.4461
  192MOL0     C25842   1.026   1.878   3.169  0.1820 -0.5604  0.7886
  192MOL0     C25843   1.147   1.888   3.104  0.2168 -0.7939  1.0102
  192MOL0     O25844   1.265   1.893   3.185  0.2384  0.2883 -0.3551
  192MOL0     C25845   1.389   1.886   3.121  0.3724 -0.2662  0.5152
  192MOL0     C25846   1.486   1.888   3.233  0.3807 -0.2839  0.5554
  192MOL0     C25847   1.628   1.851   3.194  0.4067  0.2368  0.3396
  192MOL0     C25848   1.700   1.948   3.101 -0.0705  0.2852 -0.3070
  192MOL0     C25849   1.842   1.910   3.086  0.5590  0.0237 -0.3402
  192MOL0     C25850   1.958   1.888   3.089  0.4658  1.0171 -0.7378
  192MOL0     C25851   1.145   1.894   2.961 -0.9540  0.9364  0.1033
  192MOL0     C25852   1.019   1.910   2.899  1.0449  0.4896  0.1560
  192MOL0     H25853   0.530   2.169   3.098 -2.5835  1.3891  1.8058
  192MOL0     H25854   0.293   2.214   3.052 -0.4826  2.6372 -2.0065
  192MOL0     H25855   0.027   1.960   2.905  0.8615  0.4965 -0.1166
  192MOL0     H25856   0.052   2.093   3.029  2.0102  1.3179 -0.3448
  192MOL0     H25857  -0.113   2.221   2.921 -0.9548 -0.5510  0.6549
  192MOL0     H25858  -0.097   2.129   2.772  2.4469 -1.9119  0.1048
  192MOL0     H25859  -0.228   1.940   2.860 -1.6434 -0.9097  1.4679
  192MOL0     H25860  -0.175   1.977   3.023  1.1753 -1.6571 -0.2066
  192MOL0     H25861  -0.354   2.170   2.863  3.5377  1.1163  0.9223
  192MOL0     H25862  -0.433   2.023   2.904  0.2005  1.0559  0.1156
  192MOL0     H25863  -0.285   2.204   3.116 -0.0700  1.7713 -0.5471
  192MOL0     H25864  -0.448   2.246   3.059 -0.9540 -0.1569 -3.6199
  192MOL0     H25865  -0.521   2.013   3.129  0.8404  1.1124 -1.6394
  192MOL0     H25866  -0.357   2.003   3.206  0.0100  0.2066 -1.0138
  192MOL0     H25867  -0.417   2.215   3.330  0.9182  2.0394 -4.9005
  192MOL0     H25868  -0.571   2.218   3.247 -0.8390  0.2159  0.4479
  192MOL0     H25869  -0.520   2.093   3.494 -0.8563  0.7866  0.1087
  192MOL0     H25870  -0.530   1.967   3.367 -0.3165 -0.9604  0.4168
  192MOL0     H25871  -0.793   1.890   3.331 -2.8118  0.5417 -1.8259
  192MOL0     H25872  -1.099   1.936   3.421 -2.2093  0.3209 -0.6233
  192MOL0     H25873  -1.137   2.078   3.342  0.4677  0.1667  2.9362
  192MOL0     H25874  -1.169   1.894   3.184  0.9272 -1.3834 -1.6662
  192MOL0     H25875  -1.001   1.858   3.183 -1.1565 -1.9994  1.4576
  192MOL0     H25876  -1.075   2.006   2.991 -0.9318  0.8825  0.3289
  192MOL0     H25877  -0.935   2.070   3.077  0.6422  0.2755 -3.0063
  192MOL0     H25878  -1.070   2.235   3.201  2.0848  1.2931 -1.2413
  192MOL0     H25879  -1.213   2.183   3.105  0.4149  0.7917  1.8405
  192MOL0     H25880  -1.052   2.459   2.807 -0.4122  2.4798 -0.1690
  192MOL0     H25881  -1.028   2.794   2.808  0.1367  1.7781 -2.7100
  192MOL0     H25882  -0.886   2.736   2.727 -0.8978 -0.7421 -1.6228
  192MOL0     H25883  -1.050   2.658   2.720  0.8872 -0.5431  0.0415
  192MOL0     H25884  -0.427   2.793   3.178 -0.4398 -0.1693  2.2808
  192MOL0     H25885  -0.314   2.993   3.264 -0.2519  0.2642  1.9607
  192MOL0     H25886  -0.335   3.280   3.494  3.7543  0.1969  0.4597
  192MOL0     H25887  -0.329   3.111   3.449  0.6813  0.8342  0.3822
  192MOL0     H25888  -0.186   3.185   3.244 -0.1738 -0.0977 -0.2818
  192MOL0     H25889  -0.181   3.345   3.317 -0.8643  0.9034  1.3882
  192MOL0     H25890  -0.085   3.092   3.468  1.8650 -0.7800  3.2240
  192MOL0     H25891  -0.108   3.253   3.539 -0.5236 -1.1689  0.3079
  192MOL0     H25892   0.073   3.183   3.303 -0.1310 -2.7813  0.9689
  192MOL0     H25893   0.070   3.340   3.388  1.0892  0.4021  0.3693
  192MOL0     H25894   0.153   3.079   3.524 -0.3963 -0.0021 -0.7115
  192MOL0     H25895   0.187   3.240   3.581  1.2708 -3.7088  3.7865
  192MOL0     H25896   0.289   3.100   3.324 -0.5700 -0.1446 -0.4853
  192MOL0     H25897   0.309   3.280   3.357  2.1606 -0.0770 -0.8091
  192MOL0     H25898   0.406   3.054   3.549  0.4928  0.5528  1.2765
  192MOL0     H25899   0.452   3.223   3.568  2.6102 -0.6954 -0.0921
  192MOL0     H25900   0.562   3.024   3.376  2.8306 -0.5876  0.1857
  192MOL0     H25901   0.632   3.131   3.497 -1.4240 -0.9210  0.5511
  192MOL0     H25902  -0.683   3.209   3.249 -3.3171 -1.4861 -0.0255
  192MOL0     H25903  -0.788   3.014   3.130  1.6184 -2.3756 -1.5009
  192MOL0     H25904  -0.747   2.546   3.180  0.9916  2.2352 -1.3130
  192MOL0     H25905  -0.904   2.364   3.198  1.6311  0.1865  0.4053
  192MOL0     H25906   0.301   1.931   2.727 -0.8115  0.9201 -0.0275
  192MOL0     H25907   0.518   1.865   2.784 -3.5682  0.4082 -2.0592
  192MOL0     H25908   0.807   1.854   3.163  0.5905 -1.3941  0.6867
  192MOL0     H25909   1.034   1.852   3.274  2.2273 -1.1831  0.5195
  192MOL0     H25910   1.408   1.797   3.060  1.3162 -1.0523  1.9163
  192MOL0     H25911   1.392   1.972   3.052 -2.5612 -1.7310 -1.6402
  192MOL0     H25912   1.457   1.816   3.310  0.8101 -0.2221  0.7782
  192MOL0     H25913   1.487   1.989   3.276 -2.1112  1.6710 -3.3984
  192MOL0     H25914   1.635   1.753   3.148  1.1217  0.7366 -0.6623
  192MOL0     H25915   1.694   1.860   3.281 -0.1099 -2.7847  1.1572
  192MOL0     H25916   1.706   2.054   3.125 -2.0129  1.0584 -2.8051
  192MOL0     H25917   1.667   1.938   2.997  1.7510  2.1657 -1.1387
  192MOL0     H25918   2.061   1.859   3.093 -0.0063 -0.6532  1.9003
  192MOL0     H25919   1.235   1.881   2.901 -2.0619 -2.4597 -1.0905
  192MOL0     H25920   1.020   1.925   2.792 -0.1733 -0.6539 -0.0326
  193MOL0     O25921   6.012   3.756   5.823 -0.6455  0.8538  0.3242
  193MOL0     C25922   6.104   3.691   5.765 -0.4849  0.7028 -0.2790
  193MOL0     O25923   6.086   3.605   5.662  0.2492 -0.0672  0.3294
  193MOL0     C25924   5.961   3.562   5.611 -0.9188 -0.0235  0.7495
  193MOL0     C25925   5.968   3.446   5.530 -0.6671  0.6200  0.0934
  193MOL0     C25926   5.845   3.399   5.474 -0.4928  0.4157 -1.0121
  193MOL0     C25927   5.722   3.461   5.492  0.5093  0.1432  0.4424
  193MOL0     O25928   5.604   3.415   5.433 -0.1594  0.4843  0.0483
  193MOL0     C25929   5.631   3.393   5.293  0.2795  0.3499 -0.3657
  193MOL0     C25930   5.524   3.456   5.204 -0.0262  0.3108 -0.2458
  193MOL0     C25931   5.509   3.614   5.221 -0.1839  0.0635 -0.3334
  193MOL0     C25932   5.407   3.667   5.113  0.2386  1.1304  0.4096
  193MOL0     C25933   5.267   3.603   5.127 -0.2333 -0.6327 -0.3072
  193MOL0     C25934   5.205   3.653   5.255 -0.6321 -0.0762 -0.0593
  193MOL0     C25935   5.052   3.643   5.246 -0.8303 -0.8620 -0.3063
  193MOL0     C25936   5.003   3.761   5.157  0.9502  1.1666  0.1968
  193MOL0     N25937   4.855   3.760   5.167 -0.1837 -0.2050 -0.0833
  193MOL0     C25938   4.773   3.648   5.181 -1.0567 -0.4179  0.7275
  193MOL0     C25939   4.652   3.693   5.202  0.1544 -0.3399 -0.4680
  193MOL0     C25940   4.537   3.601   5.223 -0.0009 -0.1685  1.0244
  193MOL0     C25941   4.405   3.671   5.215  0.3190 -0.5977 -0.1962
  193MOL0     C25942   4.285   3.582   5.231  0.2641 -0.2540 -0.2547
  193MOL0     C25943   4.154   3.658   5.208 -0.2898 -1.3995  0.1294
  193MOL0     O25944   4.029   3.583   5.220 -0.3828  0.0166  0.0947
  193MOL0     C25945   3.918   3.649   5.173 -0.2884  0.6520  0.4812
  193MOL0     C25946   3.834   3.569   5.102 -0.0598 -0.7435  1.2699
  193MOL0     C25947   3.708   3.620   5.050 -0.1817  0.2647 -0.2298
  193MOL0     C25948   3.613   3.532   4.973  0.0156 -0.9010  0.4867
  193MOL0     C25949   3.672   3.757   5.067  0.6486  1.2276  0.1488
  193MOL0     C25950   3.553   3.821   5.006 -0.5077 -1.0332 -0.9436
  193MOL0     O25951   3.474   3.751   4.920  0.0176 -0.3292 -0.0378
  193MOL0     C25952   3.348   3.797   4.880 -0.1498  0.1999  0.3808
  193MOL0     C25953   3.243   3.796   4.973 -0.4682 -0.5005  0.8308
  193MOL0     C25954   3.125   3.867   4.957 -0.2947  0.1118 -0.5987
  193MOL0     C25955   3.089   3.919   4.832  0.2230  0.2296 -0.7124
  193MOL0     O25956   2.983   3.996   4.806  1.1028  0.6117 -0.9123
  193MOL0     C25957   2.858   3.932   4.843 -0.4618 -1.3048  0.2361
  193MOL0     C25958   2.800   3.833   4.736 -0.5116 -0.9102  0.1768
  193MOL0     C25959   2.775   3.884   4.592  0.0204  0.2209  0.4294
  193MOL0     C25960   2.703   3.777   4.498  0.2190 -0.3787 -0.7325
  193MOL0     C25961   2.648   3.847   4.371 -0.2051  0.0876  0.2003
  193MOL0     C25962   2.604   3.731   4.287 -0.3989 -0.2208  0.3404
  193MOL0     C25963   2.522   3.770   4.166 -0.3272 -0.7204  0.5429
  193MOL0     C25964   2.472   3.638   4.097  0.6266 -0.8046 -0.2672
  193MOL0    Cl25965   2.419   3.672   3.928 -0.1387 -0.1485 -0.3630
  193MOL0     C25966   3.191   3.913   4.736 -0.3272 -0.3859  1.2468
  193MOL0     C25967   3.321   3.862   4.758  0.2649  0.7138 -0.0275
  193MOL0     O25968   3.534   3.935   5.040  0.2513 -0.6434 -0.3201
  193MOL0     C25969   3.753   3.829   5.158 -0.3727  0.5095 -0.3719
  193MOL0     C25970   3.878   3.779   5.205 -0.2989  0.4696  0.4300
  193MOL0     N25971   4.652   3.834   5.191  0.2973 -0.1394  0.1496
  193MOL0     N25972   4.775   3.874   5.180 -0.2264  0.5216 -0.0282
  193MOL0     C25973   5.721   3.573   5.574 -0.4815  0.0052 -0.6768
  193MOL0     C25974   5.838   3.633   5.625 -0.3257 -0.2505  0.5735
  193MOL0     C25975   6.247   3.708   5.816 -0.6563  0.4577 -0.3144
  193MOL0     C25976   6.360   3.670   5.729 -0.6541  0.8682 -1.2088
  193MOL0     C25977   6.487   3.687   5.788  0.3904  0.5972 -0.6989
  193MOL0     C25978   6.508   3.712   5.930  0.4634  0.1305  0.0250
  193MOL0     O25979   6.632   3.723   5.994 -0.0907 -0.0268  0.0011
  193MOL0     C25980   6.741   3.654   5.936 -0.7586 -0.8959  0.8338
  193MOL0     C25981   6.863   3.718   6.015 -0.9077  0.0370  0.3626
  193MOL0     C25982   6.995   3.672   5.945 -0.6988  0.4174  0.1556
  193MOL0     C25983   7.116   3.676   6.032 -0.3913 -1.2762  0.9464
  193MOL0     C25984   7.233   3.630   5.959 -0.2645  0.4478  0.2254
  193MOL0     C25985   7.332   3.592   5.910  0.4903 -0.0582  0.8201
  193MOL0     C25986   6.402   3.741   6.006  1.0071  0.1203  0.1513
  193MOL0     C25987   6.268   3.744   5.946 -0.9493 -0.0033 -0.0121
  193MOL0     H25988   6.054   3.380   5.518 -3.4334 -3.0655 -1.5841
  193MOL0     H25989   5.836   3.297   5.438 -1.2142  0.0952 -0.0018
  193MOL0     H25990   5.724   3.435   5.253  1.1843 -0.6980  0.5905
  193MOL0     H25991   5.644   3.288   5.267 -2.2925 -0.1176 -0.0073
  193MOL0     H25992   5.569   3.445   5.105  2.6586 -0.6970  1.0069
  193MOL0     H25993   5.431   3.399   5.205  0.2763 -0.1811  0.3636
  193MOL0     H25994   5.490   3.644   5.324  5.1374  0.3887  0.8358
  193MOL0     H25995   5.608   3.655   5.201  0.5715  0.4020  3.4687
  193MOL0     H25996   5.405   3.776   5.119 -2.2139  1.2783 -1.6261
  193MOL0     H25997   5.443   3.638   5.013  3.3013 -1.0542  1.9855
  193MOL0     H25998   5.200   3.637   5.047 -1.0901 -0.4687  0.4521
  193MOL0     H25999   5.276   3.494   5.129 -0.3554 -0.6426  1.1866
  193MOL0     H26000   5.256   3.604   5.339  2.0803  1.1856 -0.8698
  193MOL0     H26001   5.220   3.761   5.265  0.6245 -0.2344 -0.1056
  193MOL0     H26002   5.017   3.545   5.213  0.5983 -1.3271 -0.4852
  193MOL0     H26003   5.013   3.656   5.347  0.1170  0.7902 -0.1095
  193MOL0     H26004   5.021   3.734   5.052 -0.0255 -3.3445  0.9576
  193MOL0     H26005   5.045   3.858   5.184 -1.2309  1.6082  2.3011
  193MOL0     H26006   4.804   3.544   5.173 -1.6800 -0.4956 -1.0216
  193MOL0     H26007   4.542   3.518   5.151 -1.4724 -1.5666  2.4465
  193MOL0     H26008   4.542   3.558   5.323 -0.5964  1.8430  1.9661
  193MOL0     H26009   4.381   3.722   5.121 -4.2704  0.2872  1.1911
  193MOL0     H26010   4.398   3.752   5.287 -1.1159  0.1431 -1.1002
  193MOL0     H26011   4.281   3.545   5.334  0.3442  0.7371  0.1105
  193MOL0     H26012   4.296   3.492   5.169 -0.6545 -1.1231  0.7822
  193MOL0     H26013   4.168   3.694   5.106  0.1587 -0.7740  0.3994
  193MOL0     H26014   4.159   3.742   5.278  0.8730 -0.5024 -0.9740
  193MOL0     H26015   3.867   3.468   5.080  0.6297 -0.5883  1.5647
  193MOL0     H26016   3.514   3.520   5.018 -0.7253 -0.9264 -1.0763
  193MOL0     H26017   3.602   3.570   4.871  1.6029  0.6647  0.8372
  193MOL0     H26018   3.651   3.430   4.972  1.2545 -0.4760  1.3797
  193MOL0     H26019   3.274   3.752   5.067 -1.2737 -1.6641  0.5653
  193MOL0     H26020   3.067   3.874   5.048 -0.7185  0.7257 -0.9057
  193MOL0     H26021   2.851   3.884   4.941 -0.8704 -1.1351  0.2940
  193MOL0     H26022   2.785   4.014   4.845 -1.0321 -1.7522 -0.9501
  193MOL0     H26023   2.866   3.747   4.727 -0.0497 -0.7949  1.9722
  193MOL0     H26024   2.706   3.809   4.785  0.9581 -2.1049  2.6091
  193MOL0     H26025   2.865   3.916   4.539  0.2948 -0.2756  0.5901
  193MOL0     H26026   2.716   3.976   4.604 -1.0247 -0.3400 -0.1892
  193MOL0     H26027   2.774   3.701   4.462  0.6468  0.1594 -1.0418
  193MOL0     H26028   2.620   3.732   4.552 -0.4711  2.3762  0.6888
  193MOL0     H26029   2.723   3.905   4.318  1.5175  0.1791  2.6092
  193MOL0     H26030   2.566   3.911   4.405 -0.2685  0.2052 -0.1760
  193MOL0     H26031   2.693   3.679   4.253 -1.2899 -1.1444 -0.6756
  193MOL0     H26032   2.544   3.661   4.346 -1.4484  1.0428  0.8252
  193MOL0     H26033   2.581   3.829   4.096 -0.6620  0.3408  1.1252
  193MOL0     H26034   2.444   3.838   4.202 -0.4801 -0.1302 -0.8471
  193MOL0     H26035   2.405   3.583   4.162 -0.4497  2.0320  1.2143
  193MOL0     H26036   2.565   3.582   4.083  0.8774 -0.3016 -0.6542
  193MOL0     H26037   3.156   3.969   4.650 -0.9035 -0.5974  1.3395
  193MOL0     H26038   3.390   3.855   4.674 -1.0106 -1.2150 -0.9861
  193MOL0     H26039   3.742   3.935   5.181  1.1880  0.5027  0.5371
  193MOL0     H26040   3.946   3.836   5.268  0.0852  1.3682 -0.7520
  193MOL0     H26041   5.624   3.621   5.578 -0.0602  0.9930 -1.7084
  193MOL0     H26042   5.826   3.722   5.685 -0.6404  0.1635 -0.1037
  193MOL0     H26043   6.352   3.634   5.627  3.0071 -1.8077 -0.7486
  193MOL0     H26044   6.568   3.655   5.722  1.2762 -2.4340  1.6113
  193MOL0     H26045   6.736   3.547   5.958  2.4674 -1.3431 -0.0638
  193MOL0     H26046   6.753   3.678   5.830 -1.0329 -0.6610  0.8566
  193MOL0     H26047   6.870   3.677   6.116 -0.8130 -1.7306 -0.3287
  193MOL0     H26048   6.849   3.827   6.020 -0.7619  0.0345  0.8943
  193MOL0     H26049   7.015   3.717   5.847  1.6911 -0.0175  0.3733
  193MOL0     H26050   6.974   3.565   5.934 -1.4070 -0.0178  4.3153
  193MOL0     H26051   7.107   3.631   6.131 -0.3916  0.0147  1.5501
  193MOL0     H26052   7.143   3.781   6.047 -3.1402 -0.1949 -0.8351
  193MOL0     H26053   7.416   3.550   5.857 -0.0316 -3.2409  2.2736
  193MOL0     H26054   6.407   3.749   6.114 -2.2078  0.6167  0.3556
  193MOL0     H26055   6.191   3.769   6.018 -0.4156 -1.1186  0.9744
  194MOL0     O26056   5.870   4.923   1.725 -0.7491 -1.3015 -0.1831
  194MOL0     C26057   5.888   4.876   1.613 -0.4292 -0.8590 -0.3301
  194MOL0     O26058   5.804   4.871   1.513  0.3584  0.6526  0.2241
  194MOL0     C26059   5.674   4.922   1.532  0.0534 -0.8123  0.3119
  194MOL0     C26060   5.563   4.849   1.488  0.1233 -0.3312  0.1317
  194MOL0     C26061   5.436   4.897   1.501  0.5217  0.7066 -0.2723
  194MOL0     C26062   5.415   5.031   1.547 -0.8098  0.8927 -0.3038
  194MOL0     O26063   5.292   5.091   1.571 -0.2169 -1.0292  0.6180
  194MOL0     C26064   5.172   5.011   1.552 -0.6648  0.2422  0.7678
  194MOL0     C26065   5.051   5.092   1.565 -0.6062 -0.1093  0.5465
  194MOL0     C26066   4.928   5.003   1.535  0.7891 -0.0348  0.1166
  194MOL0     C26067   4.804   5.087   1.518 -0.4314 -0.8747  0.3435
  194MOL0     C26068   4.785   5.148   1.384  0.4789  0.1813  1.1252
  194MOL0     C26069   4.642   5.213   1.356 -0.0177 -0.2277 -0.5722
  194MOL0     C26070   4.614   5.252   1.212 -0.2544 -0.3429 -1.0581
  194MOL0     C26071   4.514   5.372   1.204 -0.2375 -0.3714  0.5850
  194MOL0     N26072   4.379   5.323   1.181 -0.9913 -0.0171  0.3371
  194MOL0     C26073   4.289   5.385   1.091 -0.9810  0.1348 -0.0540
  194MOL0     C26074   4.168   5.340   1.119 -0.0683  0.5777  0.4972
  194MOL0     C26075   4.038   5.375   1.051 -0.8464 -0.7407  0.1056
  194MOL0     C26076   3.926   5.287   1.106  0.4853 -0.2480  0.1080
  194MOL0     C26077   3.924   5.153   1.035 -0.3541  0.1039  0.5900
  194MOL0     C26078   3.801   5.074   1.081 -0.5850 -1.1140  0.0605
  194MOL0     O26079   3.696   5.147   1.017 -0.4093  0.3482 -0.0774
  194MOL0     C26080   3.567   5.135   1.048 -0.0523  0.9417  0.5933
  194MOL0     C26081   3.513   5.037   1.133  0.8150  0.7707  0.6763
  194MOL0     C26082   3.376   5.012   1.145  0.1357  0.1073  0.0345
  194MOL0     C26083   3.333   4.909   1.250  0.0074  0.7449  0.4051
  194MOL0     C26084   3.286   5.102   1.082  0.9128  0.5496 -0.1913
  194MOL0     C26085   3.137   5.104   1.093  0.9312  0.1543 -0.7923
  194MOL0     O26086   3.072   5.202   1.019  0.1711 -0.0033  0.4881
  194MOL0     C26087   2.935   5.199   1.036  0.2413 -0.2198  0.0205
  194MOL0     C26088   2.884   5.279   1.138  0.7184 -0.2997 -0.0910
  194MOL0     C26089   2.750   5.267   1.170  0.8205 -1.3295  0.0955
  194MOL0     C26090   2.662   5.189   1.096 -1.1132  0.0685  0.7780
  194MOL0     O26091   2.531   5.201   1.126 -0.3180  0.2630 -0.6050
  194MOL0     C26092   2.457   5.084   1.096 -0.0347  0.2489  0.2134
  194MOL0     C26093   2.310   5.112   1.139 -0.4304 -0.3413 -0.2814
  194MOL0     C26094   2.286   5.132   1.301 -0.6540 -0.1088  0.7438
  194MOL0     C26095   2.136   5.151   1.329 -0.3479  0.8419  0.3304
  194MOL0     C26096   2.111   5.191   1.475  0.0955  0.2477 -0.4493
  194MOL0     C26097   1.979   5.136   1.522  0.6099 -0.7473 -0.1177
  194MOL0     C26098   1.945   5.182   1.660  0.0932  0.2773 -0.9797
  194MOL0     C26099   1.807   5.137   1.700 -1.3844 -0.8134 -0.6822
  194MOL0    Cl26100   1.673   5.203   1.585  0.0707 -0.2683 -0.0786
  194MOL0     C26101   2.714   5.106   0.990  0.4669  0.2661 -0.0803
  194MOL0     C26102   2.854   5.101   0.965 -0.7099  0.4568 -0.3688
  194MOL0     O26103   3.084   5.021   1.166  0.6130 -0.0271  0.4151
  194MOL0     C26104   3.335   5.204   0.999 -0.2612  0.6498  0.0981
  194MOL0     C26105   3.475   5.214   0.982 -0.1456  0.1893 -0.1583
  194MOL0     N26106   4.186   5.242   1.215  0.4311 -0.9347 -0.0868
  194MOL0     N26107   4.316   5.229   1.244  1.0668 -0.4833  0.0455
  194MOL0     C26108   5.527   5.109   1.581  0.3282 -0.5048 -0.7069
  194MOL0     C26109   5.656   5.056   1.579 -1.1664  0.0864  0.0889
  194MOL0     C26110   6.027   4.826   1.592 -0.5961 -0.6737  0.6301
  194MOL0     C26111   6.138   4.893   1.647  0.8484  0.4019  0.1593
  194MOL0     C26112   6.261   4.836   1.621 -0.2298 -0.1709  0.8959
  194MOL0     C26113   6.287   4.722   1.546  0.7557 -0.0174  0.2097
  194MOL0     O26114   6.409   4.676   1.527  0.6608 -0.6082  0.3625
  194MOL0     C26115   6.441   4.541   1.540 -0.1729 -0.1036 -0.1083
  194MOL0     C26116   6.486   4.494   1.403  0.7888  0.2300 -0.3389
  194MOL0     C26117   6.566   4.373   1.419 -0.6492  0.6383 -0.3140
  194MOL0     C26118   6.602   4.324   1.279  0.2377 -0.4128 -0.6539
  194MOL0     C26119   6.673   4.191   1.283  0.3345  0.4518 -0.0032
  194MOL0     C26120   6.731   4.076   1.285 -0.5605 -0.4082  0.2725
  194MOL0     C26121   6.171   4.648   1.510 -0.5567  0.0611 -1.0754
  194MOL0     C26122   6.040   4.699   1.536 -0.0351  0.3871 -0.6058
  194MOL0     H26123   5.572   4.751   1.444 -1.2195 -1.0199  1.3176
  194MOL0     H26124   5.349   4.836   1.480 -1.4095  2.0742  2.9452
  194MOL0     H26125   5.189   4.949   1.464 -0.7672  0.2494  0.7430
  194MOL0     H26126   5.161   4.938   1.633 -1.0699 -0.5260  0.0376
  194MOL0     H26127   5.047   5.122   1.671  1.6900  0.2682  0.5760
  194MOL0     H26128   5.067   5.176   1.497 -0.4991 -1.2374 -0.8417
  194MOL0     H26129   4.938   4.941   1.445  1.2556  1.7151 -1.0969
  194MOL0     H26130   4.896   4.933   1.613 -2.6508 -1.4827 -2.3143
  194MOL0     H26131   4.718   5.020   1.531  0.4717 -1.8707  1.3457
  194MOL0     H26132   4.801   5.164   1.596 -2.9911  1.7559 -2.1203
  194MOL0     H26133   4.857   5.228   1.366  1.4422 -0.1690  3.1023
  194MOL0     H26134   4.813   5.072   1.312  1.6761  1.9078 -0.3006
  194MOL0     H26135   4.558   5.153   1.393 -0.7786 -0.3601 -2.4124
  194MOL0     H26136   4.635   5.304   1.416  0.7794  0.7295 -1.8808
  194MOL0     H26137   4.712   5.283   1.172  0.2297  0.2846  0.5433
  194MOL0     H26138   4.581   5.167   1.152 -1.7662 -1.0667  0.7356
  194MOL0     H26139   4.536   5.420   1.108  4.0211 -1.3472  0.8437
  194MOL0     H26140   4.521   5.447   1.283 -1.7726 -0.2191  0.5955
  194MOL0     H26141   4.315   5.469   1.028 -1.8310  0.9769  0.6976
  194MOL0     H26142   4.014   5.478   1.077  2.4299 -0.6158  3.6137
  194MOL0     H26143   4.026   5.366   0.943 -1.1462 -0.6039  0.1266
  194MOL0     H26144   3.830   5.338   1.098  0.3585 -0.4821  0.1269
  194MOL0     H26145   3.947   5.280   1.213  0.7122  2.4831  0.3085
  194MOL0     H26146   4.016   5.103   1.066  2.2988  2.0920 -3.3085
  194MOL0     H26147   3.936   5.168   0.928 -1.4546  0.6735  0.5335
  194MOL0     H26148   3.791   5.086   1.189 -0.2146 -2.1241  0.2222
  194MOL0     H26149   3.797   4.972   1.040  1.7209 -1.5119  0.6806
  194MOL0     H26150   3.580   4.968   1.183  2.0666 -0.9173 -3.0130
  194MOL0     H26151   3.422   4.863   1.293 -0.0246  1.8122  1.6911
  194MOL0     H26152   3.280   4.941   1.341 -1.3063 -1.9455  0.7157
  194MOL0     H26153   3.264   4.836   1.206  0.2583  2.0066 -2.2302
  194MOL0     H26154   2.945   5.346   1.198  0.4846 -0.3196  0.1722
  194MOL0     H26155   2.718   5.329   1.253  3.3515  0.3771 -0.0850
  194MOL0     H26156   2.468   5.059   0.990 -4.1568 -2.4858  0.2025
  194MOL0     H26157   2.494   4.990   1.139  1.7469  0.1499 -1.3803
  194MOL0     H26158   2.282   5.209   1.097  1.6979  1.4209  2.0333
  194MOL0     H26159   2.238   5.037   1.104  0.2476 -0.7339 -0.8463
  194MOL0     H26160   2.349   5.217   1.330  1.1216 -0.9031 -0.6245
  194MOL0     H26161   2.319   5.044   1.356 -0.5106 -0.4324  0.1452
  194MOL0     H26162   2.107   5.230   1.259 -1.0242  0.8953  0.6638
  194MOL0     H26163   2.077   5.063   1.303  1.0868 -1.1898  3.3342
  194MOL0     H26164   2.116   5.300   1.485  0.6258  0.2706 -0.8835
  194MOL0     H26165   2.196   5.151   1.532  0.6655  1.5076 -0.3893
  194MOL0     H26166   1.911   5.191   1.456  2.0248 -0.0932 -1.0895
  194MOL0     H26167   1.975   5.027   1.515 -2.3450 -0.8134  1.4731
  194MOL0     H26168   1.950   5.291   1.665  0.8810  0.2044  2.1579
  194MOL0     H26169   2.015   5.126   1.723 -2.8076 -1.1751  1.1733
  194MOL0     H26170   1.792   5.179   1.800 -1.7307 -0.6621 -0.7966
  194MOL0     H26171   1.814   5.028   1.700  0.3125 -0.9354  3.7669
  194MOL0     H26172   2.657   5.036   0.929 -2.1759  1.5460  0.8154
  194MOL0     H26173   2.901   5.047   0.884 -1.1883 -1.0004  0.2804
  194MOL0     H26174   3.269   5.272   0.945 -1.9680  0.0134  1.2835
  194MOL0     H26175   3.500   5.303   0.925 -4.5300  0.7850 -1.5914
  194MOL0     H26176   5.511   5.209   1.621  2.0484 -1.1315  1.7705
  194MOL0     H26177   5.737   5.129   1.582 -1.0425  0.4794 -4.5147
  194MOL0     H26178   6.132   4.974   1.720 -0.0280 -0.8213  1.4956
  194MOL0     H26179   6.351   4.884   1.660 -0.9865  1.8389  0.2996
  194MOL0     H26180   6.532   4.545   1.600  0.9094 -0.7430 -1.6452
  194MOL0     H26181   6.363   4.483   1.590 -0.0976  0.6282  0.8861
  194MOL0     H26182   6.549   4.571   1.357  1.5470 -1.0036 -1.4138
  194MOL0     H26183   6.400   4.483   1.337 -0.2332 -1.0848  1.1413
  194MOL0     H26184   6.514   4.288   1.462 -0.4267  0.5013 -0.3170
  194MOL0     H26185   6.656   4.398   1.477  0.9475  0.9460 -2.7710
  194MOL0     H26186   6.653   4.410   1.234  0.3393  0.4203  0.9625
  194MOL0     H26187   6.506   4.317   1.227  0.2908 -0.3141 -0.7655
  194MOL0     H26188   6.785   3.986   1.264  0.0948 -0.3601  1.6815
  194MOL0     H26189   6.184   4.546   1.474 -0.6950  0.2650 -1.7091
  194MOL0     H26190   5.951   4.649   1.501 -0.1757 -1.4915  2.1614
  195MOL0     O26191   4.380   0.514   5.170 -0.5905  0.9183  0.4375
  195MOL0     C26192   4.426   0.485   5.058  0.2340 -0.0958 -0.7150
  195MOL0     O26193   4.350   0.427   4.961  0.3228 -0.4321 -0.1635
  195MOL0     C26194   4.213   0.419   4.969  0.5434 -0.4234 -0.1885
  195MOL0     C26195   4.141   0.327   4.885 -0.1006 -0.4350 -1.6136
  195MOL0     C26196   4.001   0.324   4.880 -0.4280 -0.3531 -0.1418
  195MOL0     C26197   3.925   0.417   4.953  0.2520 -0.0829  1.1012
  195MOL0     O26198   3.787   0.414   4.940  0.2332 -0.3007 -0.0838
  195MOL0     C26199   3.746   0.394   4.804 -0.7143 -0.3060  0.4006
  195MOL0     C26200   3.637   0.497   4.785 -1.1184  0.0009 -0.2359
  195MOL0     C26201   3.592   0.485   4.639  0.0861 -0.2447  0.2542
  195MOL0     C26202   3.515   0.352   4.619 -0.4513 -0.0810  0.2381
  195MOL0     C26203   3.428   0.362   4.495  0.7086  0.0257  0.2227
  195MOL0     C26204   3.349   0.234   4.485 -0.0561  0.4518  0.8928
  195MOL0     C26205   3.222   0.263   4.396 -0.7702 -0.0870  0.0822
  195MOL0     C26206   3.137   0.135   4.384  0.5864  0.4678  0.1125
  195MOL0     N26207   3.028   0.148   4.283 -0.5758 -0.3715  0.5151
  195MOL0     C26208   2.946   0.258   4.266 -0.5446  0.6161 -0.3321
  195MOL0     C26209   2.884   0.247   4.150  0.2849 -1.9890 -1.0074
  195MOL0     C26210   2.790   0.355   4.090 -0.3703  0.5011 -0.1335
  195MOL0     C26211   2.649   0.342   4.125 -0.0110  0.0281 -0.2277
  195MOL0     C26212   2.593   0.383   4.260  0.4717 -0.2447 -0.5532
  195MOL0     C26213   2.612   0.528   4.288  0.4543 -0.1250 -0.4177
  195MOL0     O26214   2.534   0.554   4.403 -0.2562  0.0358  0.1936
  195MOL0     C26215   2.402   0.596   4.383 -0.3226  0.2349  0.2930
  195MOL0     C26216   2.339   0.592   4.263  0.3523 -0.5646 -0.1872
  195MOL0     C26217   2.200   0.628   4.251  0.4454 -0.4974 -0.5876
  195MOL0     C26218   2.133   0.627   4.117 -0.1460  0.3024 -0.5262
  195MOL0     C26219   2.127   0.651   4.374 -0.3749  0.0235  0.0660
  195MOL0     C26220   1.986   0.682   4.385  0.1194 -0.1668 -0.5880
  195MOL0     O26221   1.937   0.715   4.508 -0.2760  0.9543  0.4489
  195MOL0     C26222   1.815   0.768   4.511 -1.1752  0.0510 -1.2521
  195MOL0     C26223   1.699   0.693   4.503 -0.6333  0.1373  0.2415
  195MOL0     C26224   1.570   0.747   4.528 -0.2498  0.2429 -0.2382
  195MOL0     C26225   1.567   0.884   4.579 -0.2344  0.3317 -0.7378
  195MOL0     O26226   1.442   0.921   4.620 -0.3845  0.1867  0.4909
  195MOL0     C26227   1.403   1.057   4.652  0.1917 -0.4215  0.8189
  195MOL0     C26228   1.267   1.062   4.719  0.5014 -0.2191 -0.3589
  195MOL0     C26229   1.161   1.024   4.614  0.4152 -0.5813 -0.4425
  195MOL0     C26230   1.123   1.147   4.518 -0.2125 -0.5879  0.1344
  195MOL0     C26231   0.980   1.150   4.494  0.6972  0.2614 -0.7920
  195MOL0     C26232   0.944   1.264   4.398 -0.4173 -0.9286 -0.2586
  195MOL0     C26233   0.919   1.209   4.263 -0.0543 -0.6406  1.1241
  195MOL0     C26234   0.871   1.314   4.157  0.2568  0.2031 -0.4702
  195MOL0    Cl26235   0.728   1.412   4.221 -0.1712  0.5376 -0.0835
  195MOL0     C26236   1.686   0.954   4.588  0.3400 -0.9484  0.0256
  195MOL0     C26237   1.808   0.895   4.557 -1.0081  0.8996  0.4333
  195MOL0     O26238   1.914   0.663   4.282 -0.5649 -0.3373 -0.4431
  195MOL0     C26239   2.204   0.667   4.495  1.0478  0.6035  0.4886
  195MOL0     C26240   2.340   0.638   4.499 -0.7800 -0.3051 -0.0678
  195MOL0     N26241   2.926   0.127   4.092  0.0115 -0.7382  0.4508
  195MOL0     N26242   3.009   0.071   4.172 -0.8167  0.0428 -0.1835
  195MOL0     C26243   3.994   0.513   5.029  0.2110  0.3950 -0.1978
  195MOL0     C26244   4.134   0.507   5.037  0.0361  0.2431 -0.6462
  195MOL0     C26245   4.563   0.519   5.038 -0.2562 -0.0673  0.2582
  195MOL0     C26246   4.638   0.599   5.125  0.0839  0.2285  0.6550
  195MOL0     C26247   4.770   0.630   5.097 -0.6578 -0.2639 -0.3292
  195MOL0     C26248   4.837   0.570   4.990 -0.7414 -0.0511  0.4641
  195MOL0     O26249   4.967   0.604   4.963 -0.4418  0.6759 -0.1278
  195MOL0     C26250   5.040   0.681   5.059  0.0467  0.1427  0.0333
  195MOL0     C26251   5.088   0.596   5.186  0.4049 -1.2290  0.5759
  195MOL0     C26252   5.165   0.471   5.142 -0.9512  0.1502 -0.3285
  195MOL0     C26253   5.309   0.509   5.095 -0.0460  0.2911  0.0154
  195MOL0     C26254   5.396   0.395   5.119  0.9944  0.0244  0.9826
  195MOL0     C26255   5.459   0.300   5.158 -0.9950 -0.4740  0.9784
  195MOL0     C26256   4.763   0.507   4.896  0.4175 -0.6775 -0.1723
  195MOL0     C26257   4.629   0.471   4.927  0.2234 -0.4302  0.2927
  195MOL0     H26258   4.187   0.254   4.818  2.2827 -1.2396  0.7404
  195MOL0     H26259   3.960   0.258   4.804  0.5360  1.1357 -2.0246
  195MOL0     H26260   3.820   0.423   4.729 -0.4471  1.3160  1.2640
  195MOL0     H26261   3.708   0.292   4.789  0.2931 -0.6746  0.2787
  195MOL0     H26262   3.553   0.463   4.847 -1.1406 -2.0691 -1.2888
  195MOL0     H26263   3.673   0.595   4.815  1.1175 -1.3999  2.1164
  195MOL0     H26264   3.527   0.571   4.620 -0.6117  0.3620  4.5173
  195MOL0     H26265   3.667   0.486   4.559  1.4240 -1.6564  1.4130
  195MOL0     H26266   3.583   0.270   4.597  1.9627  2.1850 -1.3706
  195MOL0     H26267   3.449   0.321   4.701 -1.9902  1.6584 -0.2729
  195MOL0     H26268   3.369   0.454   4.505  1.1778  0.3357  0.1854
  195MOL0     H26269   3.494   0.373   4.409  2.0009 -3.3984  0.6412
  195MOL0     H26270   3.416   0.151   4.459 -1.6300 -0.9998  1.3023
  195MOL0     H26271   3.309   0.213   4.585 -2.2811 -1.3357 -0.2690
  195MOL0     H26272   3.159   0.338   4.444 -1.3722 -0.5107 -0.0220
  195MOL0     H26273   3.250   0.293   4.295 -1.4787 -1.6385 -0.6193
  195MOL0     H26274   3.094   0.091   4.475  0.0139 -1.6373 -1.1269
  195MOL0     H26275   3.200   0.056   4.343 -1.1228 -2.2355  2.3615
  195MOL0     H26276   2.942   0.338   4.340 -1.7040 -0.7013  1.0915
  195MOL0     H26277   2.826   0.458   4.106  1.6796 -0.2077  0.1235
  195MOL0     H26278   2.795   0.341   3.982 -1.1606 -2.4087  0.1387
  195MOL0     H26279   2.627   0.236   4.114 -0.8991  0.1707  0.0608
  195MOL0     H26280   2.581   0.396   4.058 -0.9237  2.5978  2.5374
  195MOL0     H26281   2.653   0.321   4.327 -0.0932 -1.2454 -0.9477
  195MOL0     H26282   2.489   0.349   4.250  0.3081  0.9052 -4.3567
  195MOL0     H26283   2.599   0.599   4.205 -2.4704  1.6872  1.4122
  195MOL0     H26284   2.717   0.535   4.315  1.0501  3.1780 -2.9267
  195MOL0     H26285   2.395   0.570   4.173  0.5065 -2.5694  0.3371
  195MOL0     H26286   2.213   0.602   4.046  1.1031 -0.6613  1.1336
  195MOL0     H26287   2.061   0.545   4.115 -0.1266  0.2748 -0.1775
  195MOL0     H26288   2.085   0.722   4.092  2.1521  1.9562  0.9751
  195MOL0     H26289   1.723   0.592   4.473  1.0434  0.3373  0.8303
  195MOL0     H26290   1.487   0.678   4.524  1.5947 -2.0280 -1.2440
  195MOL0     H26291   1.474   1.088   4.729  3.6901 -2.6861 -1.1705
  195MOL0     H26292   1.409   1.128   4.569 -0.5290  0.1009  1.2021
  195MOL0     H26293   1.261   0.995   4.806 -2.1611 -0.5818 -0.7548
  195MOL0     H26294   1.238   1.164   4.746 -0.0991 -0.1367 -1.2704
  195MOL0     H26295   1.076   0.995   4.677  0.2958  1.5641  0.4584
  195MOL0     H26296   1.182   0.930   4.562  0.7997  0.6228 -2.6207
  195MOL0     H26297   1.158   1.243   4.556 -0.6573 -0.7040  0.8608
  195MOL0     H26298   1.168   1.131   4.420 -2.7806 -2.8018 -0.8200
  195MOL0     H26299   0.933   1.187   4.586  2.2557 -1.1410  0.6271
  195MOL0     H26300   0.950   1.050   4.461  1.8213 -0.1439 -0.6084
  195MOL0     H26301   0.850   1.310   4.430 -0.6848 -0.7736 -1.2466
  195MOL0     H26302   1.029   1.333   4.395  0.1970 -1.5967  0.9314
  195MOL0     H26303   0.843   1.131   4.258 -0.7326  0.0792 -0.3102
  195MOL0     H26304   1.009   1.156   4.228  0.9167  0.8394  1.2915
  195MOL0     H26305   0.849   1.259   4.065  2.1212  0.0359 -0.8508
  195MOL0     H26306   0.949   1.388   4.142 -2.0853  3.3071  1.4381
  195MOL0     H26307   1.683   1.052   4.636  1.7632 -0.3785 -0.9942
  195MOL0     H26308   1.900   0.950   4.575 -0.5865  0.1575  0.6027
  195MOL0     H26309   2.162   0.714   4.584 -2.1951  3.2093 -2.1282
  195MOL0     H26310   2.393   0.645   4.594 -0.9998 -0.0855  0.0382
  195MOL0     H26311   3.939   0.595   5.074  2.0186  1.7409 -0.3174
  195MOL0     H26312   4.178   0.584   5.099  1.5909 -2.6173  2.0728
  195MOL0     H26313   4.589   0.645   5.210 -0.0780  2.4123 -0.5484
  195MOL0     H26314   4.809   0.697   5.172 -0.1618  0.9039 -1.5845
  195MOL0     H26315   5.130   0.720   5.009  0.6718 -4.3535 -2.8644
  195MOL0     H26316   4.983   0.768   5.095 -1.7031 -1.0535  0.2723
  195MOL0     H26317   4.996   0.557   5.231 -0.4805  0.0421 -0.0814
  195MOL0     H26318   5.146   0.662   5.251 -0.9793  1.2231 -0.5551
  195MOL0     H26319   5.103   0.418   5.069 -1.2101  0.5171 -0.3757
  195MOL0     H26320   5.174   0.401   5.226  0.3388 -0.5897 -1.0354
  195MOL0     H26321   5.341   0.591   5.160  1.3574 -1.7758  2.1146
  195MOL0     H26322   5.314   0.538   4.990  1.8149 -0.1178 -0.0530
  195MOL0     H26323   5.536   0.230   5.182  3.0020  2.5764 -1.5905
  195MOL0     H26324   4.804   0.469   4.803  3.9291  0.3745  0.7883
  195MOL0     H26325   4.573   0.408   4.859  0.9516  0.7813 -1.5464
  196MOL0     O26326   4.052   1.331   2.181  0.2591 -0.3740  0.4444
  196MOL0     C26327   4.149   1.371   2.244  0.0603  0.2662  0.1927
  196MOL0     O26328   4.137   1.452   2.354 -0.0279  0.7680 -0.4877
  196MOL0     C26329   4.016   1.496   2.401  0.6215  0.1194 -0.9149
  196MOL0     C26330   3.906   1.412   2.425 -0.0358  0.2824  1.1327
  196MOL0     C26331   3.800   1.459   2.496 -0.2822 -0.3307 -0.0874
  196MOL0     C26332   3.787   1.594   2.533 -0.5008 -0.1822  0.2058
  196MOL0     O26333   3.674   1.653   2.597 -0.6573  0.3934  0.6722
  196MOL0     C26334   3.542   1.597   2.580 -0.0795  1.0197 -0.7175
  196MOL0     C26335   3.485   1.517   2.693 -0.0354  0.5903  0.6071
  196MOL0     C26336   3.354   1.443   2.648  0.8599  0.4731 -0.5873
  196MOL0     C26337   3.303   1.368   2.771  0.0141  0.0229  0.5871
  196MOL0     C26338   3.164   1.318   2.748 -0.6958 -0.5225  1.0096
  196MOL0     C26339   3.119   1.232   2.856 -0.4834  0.8712 -0.6289
  196MOL0     C26340   2.993   1.153   2.819 -0.2323 -0.1123  0.3725
  196MOL0     C26341   3.014   1.037   2.725  0.2063  0.2015 -0.2912
  196MOL0     N26342   2.902   0.941   2.713 -0.5877 -0.7051  0.8018
  196MOL0     C26343   2.855   0.873   2.603  0.0555 -0.1797 -0.0269
  196MOL0     C26344   2.752   0.801   2.646  0.1887  0.8106 -0.1000
  196MOL0     C26345   2.661   0.712   2.557 -0.0761  0.0054  0.3204
  196MOL0     C26346   2.722   0.588   2.507 -0.3138 -0.4399 -0.2736
  196MOL0     C26347   2.646   0.520   2.396  0.2197  0.6127 -0.2311
  196MOL0     C26348   2.494   0.498   2.430 -0.3655  0.0830 -0.0713
  196MOL0     O26349   2.483   0.417   2.556 -0.5134  0.2819  0.0694
  196MOL0     C26350   2.357   0.369   2.603 -0.1683 -0.2318  0.0647
  196MOL0     C26351   2.363   0.293   2.714 -0.8574  1.0600  0.0327
  196MOL0     C26352   2.250   0.248   2.782  0.4243  0.6432 -0.1186
  196MOL0     C26353   2.267   0.170   2.913  0.1724  0.6127  0.1932
  196MOL0     C26354   2.122   0.273   2.729 -0.3706  0.0480  0.0118
  196MOL0     C26355   1.987   0.223   2.780 -0.1961 -0.2913  0.6632
  196MOL0     O26356   1.887   0.216   2.689  0.5883  0.1253 -0.4844
  196MOL0     C26357   1.751   0.184   2.734 -0.2647 -0.5160  0.2744
  196MOL0     C26358   1.676   0.089   2.664 -0.0054  0.5588 -0.2780
  196MOL0     C26359   1.544   0.065   2.691 -0.2008  0.3435 -0.1675
  196MOL0     C26360   1.478   0.143   2.789 -0.9280  0.1602  0.6028
  196MOL0     O26361   1.351   0.117   2.813 -0.6397  0.6294  0.2360
  196MOL0     C26362   1.302   0.111   2.946  0.7209 -0.4320  0.2745
  196MOL0     C26363   1.173   0.042   2.962 -0.6967 -0.1211 -0.1911
  196MOL0     C26364   1.064   0.137   2.914  0.8004  0.7010 -0.0187
  196MOL0     C26365   0.913   0.089   2.928  0.0577  0.2363 -0.4671
  196MOL0     C26366   0.809   0.199   2.926  0.4262 -0.3079 -0.8652
  196MOL0     C26367   0.829   0.295   2.806 -0.3250  1.1441  0.0621
  196MOL0     C26368   0.721   0.400   2.788  0.2484  0.4731  0.0487
  196MOL0     C26369   0.588   0.337   2.733 -0.0792  0.1214  0.7024
  196MOL0    Cl26370   0.589   0.321   2.566 -0.4227 -0.4728 -0.0806
  196MOL0     C26371   1.548   0.236   2.865  0.4122 -0.1680  0.3686
  196MOL0     C26372   1.680   0.252   2.837 -0.0227  0.4909 -0.0118
  196MOL0     O26373   1.969   0.199   2.894 -0.4364 -0.1998 -1.9065
  196MOL0     C26374   2.114   0.353   2.610 -0.0451  0.2193 -1.1637
  196MOL0     C26375   2.234   0.407   2.551 -0.1816  0.0579 -0.3034
  196MOL0     N26376   2.743   0.821   2.779  0.4216  0.3293  0.5835
  196MOL0     N26377   2.825   0.913   2.817  0.6221 -0.6643 -0.3159
  196MOL0     C26378   3.896   1.679   2.507  0.7253 -0.4421  0.3499
  196MOL0     C26379   4.009   1.631   2.454 -0.7914  0.5577  0.5261
  196MOL0     C26380   4.277   1.355   2.179  0.0456 -0.1632 -0.3031
  196MOL0     C26381   4.399   1.371   2.247 -0.1692 -0.4583  0.4756
  196MOL0     C26382   4.524   1.351   2.178 -0.6189 -0.7431 -0.2291
  196MOL0     C26383   4.528   1.307   2.049  0.3691 -0.0770  0.2168
  196MOL0     O26384   4.645   1.274   1.985  0.1638 -0.8153  0.0574
  196MOL0     C26385   4.753   1.364   2.000  0.3031 -0.0068  0.1985
  196MOL0     C26386   4.874   1.340   1.910  0.4684 -0.8406  0.1683
  196MOL0     C26387   4.844   1.317   1.764 -0.0765  0.5068 -0.8290
  196MOL0     C26388   4.813   1.438   1.689  0.2836  0.0932 -0.4068
  196MOL0     C26389   4.671   1.462   1.674 -0.0927 -0.3966  0.8565
  196MOL0     C26390   4.557   1.481   1.641  0.3830  0.1129 -0.4878
  196MOL0     C26391   4.406   1.277   1.988 -0.3614 -0.1654  0.6072
  196MOL0     C26392   4.284   1.312   2.046 -0.4444  0.9416 -0.0660
  196MOL0     H26393   3.912   1.310   2.390 -4.6444 -0.2184  1.1705
  196MOL0     H26394   3.715   1.393   2.514 -1.9576  1.4397 -1.0928
  196MOL0     H26395   3.468   1.677   2.563 -0.5139  0.3911 -1.9620
  196MOL0     H26396   3.540   1.531   2.493  0.1304 -1.4279  1.0436
  196MOL0     H26397   3.564   1.445   2.718 -0.2468 -0.1218 -0.6650
  196MOL0     H26398   3.476   1.580   2.781 -1.7221 -0.8536  1.5116
  196MOL0     H26399   3.278   1.509   2.605 -0.7125 -0.8010  0.1304
  196MOL0     H26400   3.377   1.356   2.586  0.0708  0.6306 -1.1318
  196MOL0     H26401   3.367   1.285   2.804 -1.2211 -1.6791 -1.1412
  196MOL0     H26402   3.296   1.442   2.851 -2.0359  2.0414 -1.3382
  196MOL0     H26403   3.089   1.397   2.740 -0.0140 -0.0090 -0.8894
  196MOL0     H26404   3.176   1.265   2.652 -0.3609  0.9249  0.2241
  196MOL0     H26405   3.201   1.170   2.895  0.5461  1.2507 -2.1267
  196MOL0     H26406   3.095   1.299   2.940  1.7228  2.7932 -1.4144
  196MOL0     H26407   2.943   1.112   2.907 -2.4929 -1.3093 -1.3541
  196MOL0     H26408   2.913   1.216   2.778 -1.4601 -1.3420  0.7976
  196MOL0     H26409   3.104   0.982   2.756  0.2669  2.1239  3.3664
  196MOL0     H26410   3.024   1.090   2.630 -2.5663  1.5666  0.1068
  196MOL0     H26411   2.892   0.886   2.501 -1.5723  0.1971 -0.5994
  196MOL0     H26412   2.569   0.687   2.611 -1.2395 -0.6583 -1.8484
  196MOL0     H26413   2.629   0.779   2.477  2.2889 -0.5817 -1.2132
  196MOL0     H26414   2.740   0.529   2.597  1.4687  1.2124  0.5432
  196MOL0     H26415   2.818   0.616   2.462 -0.4530 -2.0402 -1.6620
  196MOL0     H26416   2.687   0.423   2.366 -0.7501  0.1922 -0.2406
  196MOL0     H26417   2.646   0.583   2.307  1.0775 -0.7274 -1.2199
  196MOL0     H26418   2.455   0.432   2.351  1.2001 -0.2074 -0.6472
  196MOL0     H26419   2.443   0.595   2.426 -1.4127 -0.4789 -2.1249
  196MOL0     H26420   2.465   0.271   2.745 -0.4221  2.1158 -0.5818
  196MOL0     H26421   2.214   0.217   2.996  0.1816 -0.0237  0.5728
  196MOL0     H26422   2.235   0.065   2.907 -0.7303  0.9123 -0.3843
  196MOL0     H26423   2.374   0.162   2.937 -0.0968 -2.5640  0.8985
  196MOL0     H26424   1.718   0.019   2.592 -1.5261  1.5476 -2.2263
  196MOL0     H26425   1.500  -0.018   2.636 -0.1140  0.0901  0.1381
  196MOL0     H26426   1.372   0.058   3.012  1.5522 -0.1664 -0.3687
  196MOL0     H26427   1.295   0.215   2.980  3.9928  0.0572 -0.2063
  196MOL0     H26428   1.177  -0.046   2.898 -1.6184 -0.1415 -0.2314
  196MOL0     H26429   1.155   0.011   3.065  1.4974 -1.7808 -0.2416
  196MOL0     H26430   1.072   0.170   2.810 -0.5216  2.5697  0.4220
  196MOL0     H26431   1.076   0.223   2.980  1.6838  0.9702 -0.5142
  196MOL0     H26432   0.889   0.019   2.847  2.6498 -2.6055  0.9984
  196MOL0     H26433   0.903   0.022   3.014 -1.1791  0.0524 -0.7340
  196MOL0     H26434   0.815   0.258   3.018 -0.7505 -1.8019  0.2152
  196MOL0     H26435   0.718   0.139   2.929 -0.5633  1.1608 -0.2043
  196MOL0     H26436   0.927   0.344   2.811  0.5884 -0.3826 -1.6965
  196MOL0     H26437   0.837   0.220   2.727  1.4805 -2.0960  3.0031
  196MOL0     H26438   0.746   0.481   2.718 -0.4084  0.1101 -0.6172
  196MOL0     H26439   0.710   0.446   2.886 -1.4479 -1.7283  0.9618
  196MOL0     H26440   0.495   0.387   2.762 -3.0818 -3.0923 -2.3229
  196MOL0     H26441   0.590   0.237   2.779  0.2066  0.1275  0.7003
  196MOL0     H26442   1.496   0.293   2.941  0.1031 -1.9373  1.5529
  196MOL0     H26443   1.746   0.314   2.897 -0.2162  1.7447 -1.0337
  196MOL0     H26444   2.014   0.370   2.571 -0.5040  1.2848  0.3867
  196MOL0     H26445   2.226   0.467   2.461 -1.0873  1.8147  0.8872
  196MOL0     H26446   3.893   1.787   2.522  1.8408  0.2977 -3.5677
  196MOL0     H26447   4.105   1.680   2.444  0.4336 -1.1593  2.8734
  196MOL0     H26448   4.399   1.411   2.347  0.3796 -0.9053  0.6630
  196MOL0     H26449   4.619   1.364   2.229  0.2726 -1.1035 -1.7190
  196MOL0     H26450   4.715   1.465   1.984  0.0155  0.0411  1.1231
  196MOL0     H26451   4.799   1.368   2.100  0.0904  2.9592  0.2721
  196MOL0     H26452   4.927   1.250   1.942  3.7595  0.0006 -2.3674
  196MOL0     H26453   4.947   1.420   1.925  0.1682 -1.0182  3.1085
  196MOL0     H26454   4.772   1.235   1.754 -0.0852  0.3535  0.3986
  196MOL0     H26455   4.941   1.282   1.728  1.2266  2.8857  0.1619
  196MOL0     H26456   4.867   1.420   1.596  0.3473 -1.9366 -0.0203
  196MOL0     H26457   4.843   1.531   1.738 -2.0925  1.3802 -1.2212
  196MOL0     H26458   4.460   1.498   1.598  0.5020 -1.7512 -1.5604
  196MOL0     H26459   4.411   1.252   1.883 -1.8945  1.2001  0.1656
  196MOL0     H26460   4.202   1.294   1.978  0.2508  1.1450 -0.9765
  197MOL0     O26461   8.991   2.324   7.164 -0.3881  0.1414  0.9607
  197MOL0     C26462   9.026   2.221   7.124 -0.0629  0.6326  0.6419
  197MOL0     O26463   8.950   2.145   7.042 -0.6573 -0.4187  0.1114
  197MOL0     C26464   8.821   2.185   7.016 -0.0380 -0.0316  1.1362
  197MOL0     C26465   8.722   2.184   7.112  0.2742  0.1333 -0.7620
  197MOL0     C26466   8.589   2.218   7.080 -0.0163 -0.8183 -1.2637
  197MOL0     C26467   8.555   2.258   6.951 -0.3954 -0.4561 -0.4209
  197MOL0     O26468   8.435   2.297   6.911  1.0326  0.0618 -0.2043
  197MOL0     C26469   8.318   2.255   6.989  0.3073  0.3762 -0.1964
  197MOL0     C26470   8.205   2.343   6.921  0.3657  0.3889  0.1510
  197MOL0     C26471   8.072   2.303   6.980 -1.1155  0.6764  0.2943
  197MOL0     C26472   7.961   2.386   6.910 -0.7969  0.7262 -0.1265
  197MOL0     C26473   7.819   2.350   6.958 -1.0589 -0.1181  0.0833
  197MOL0     C26474   7.786   2.203   6.982 -1.1040 -0.9413 -0.5712
  197MOL0     C26475   7.640   2.173   6.978  0.2252 -0.4679  0.0595
  197MOL0     C26476   7.545   2.239   7.083 -0.2758  0.6034 -0.0569
  197MOL0     N26477   7.403   2.190   7.093 -0.0188 -0.1326 -0.3089
  197MOL0     C26478   7.325   2.163   6.985 -0.1637  0.4710 -0.9226
  197MOL0     C26479   7.225   2.080   7.025  0.1338 -0.5222  0.3271
  197MOL0     C26480   7.107   2.040   6.951  0.3520 -0.0135  0.3985
  197MOL0     C26481   6.973   2.121   6.958 -1.0312  0.4500 -0.0951
  197MOL0     C26482   6.879   2.088   6.840  0.1604 -0.3249  0.2482
  197MOL0     C26483   6.763   2.189   6.826  0.6626 -0.4039  0.0125
  197MOL0     O26484   6.678   2.150   6.719  0.2487  0.6012 -0.2137
  197MOL0     C26485   6.545   2.174   6.733  0.6882  0.4859 -0.8777
  197MOL0     C26486   6.463   2.104   6.642 -0.2060 -0.1729 -0.3426
  197MOL0     C26487   6.327   2.095   6.659 -1.0220 -0.3352  1.1266
  197MOL0     C26488   6.253   2.012   6.562  0.7310 -0.2336 -0.7998
  197MOL0     C26489   6.253   2.163   6.764  1.2072  0.1548 -0.0434
  197MOL0     C26490   6.105   2.160   6.788  0.5487  0.3178 -0.3324
  197MOL0     O26491   6.071   2.232   6.901 -0.4641 -1.0254  0.5687
  197MOL0     C26492   5.944   2.238   6.955 -0.7007  0.1358  0.4850
  197MOL0     C26493   5.888   2.113   7.001 -0.4450  0.5050  0.2377
  197MOL0     C26494   5.759   2.109   7.053 -0.1547 -0.0548  0.8103
  197MOL0     C26495   5.679   2.229   7.041  0.0129  0.4640 -0.2027
  197MOL0     O26496   5.541   2.235   7.067  0.3057 -0.3009  0.3543
  197MOL0     C26497   5.467   2.116   7.023 -0.0884  0.3154 -0.1306
  197MOL0     C26498   5.484   2.100   6.876 -0.1054 -0.4718  0.5252
  197MOL0     C26499   5.378   1.987   6.841 -0.4554 -1.4852 -0.8193
  197MOL0     C26500   5.383   1.970   6.691 -0.8284 -0.7835  0.3416
  197MOL0     C26501   5.325   1.843   6.641  0.0091  0.2656 -0.0444
  197MOL0     C26502   5.171   1.836   6.651  0.3040  0.1469  0.1304
  197MOL0     C26503   5.112   1.711   6.602 -0.0953 -0.4423  0.3467
  197MOL0     C26504   4.971   1.730   6.553  0.1823 -0.3612 -0.4287
  197MOL0    Cl26505   4.898   1.589   6.491 -0.3544 -0.0369  0.3503
  197MOL0     C26506   5.738   2.343   6.981  0.0050 -0.0703 -0.2000
  197MOL0     C26507   5.868   2.351   6.942 -0.9259  0.8100 -0.4418
  197MOL0     O26508   6.025   2.104   6.716  0.5148 -0.0876  1.0944
  197MOL0     C26509   6.337   2.237   6.851  0.2761  0.4144 -0.6218
  197MOL0     C26510   6.476   2.254   6.830 -0.6464  0.0359 -0.1538
  197MOL0     N26511   7.243   2.073   7.164 -0.4228 -0.4443  0.4082
  197MOL0     N26512   7.348   2.139   7.211  0.2417  0.2631  0.0862
  197MOL0     C26513   8.660   2.267   6.855 -0.0333 -0.0485  0.0087
  197MOL0     C26514   8.786   2.218   6.880  0.1018 -0.0885 -0.5677
  197MOL0     C26515   9.166   2.184   7.152 -0.3377  0.1459 -0.5144
  197MOL0     C26516   9.217   2.056   7.125  0.6343  0.7152  0.0214
  197MOL0     C26517   9.341   2.006   7.164  0.7987 -0.1147 -0.4237
  197MOL0     C26518   9.424   2.087   7.240  0.2353  0.3539  0.1066
  197MOL0     O26519   9.547   2.037   7.291  0.5945 -0.5556 -0.2589
  197MOL0     C26520   9.657   2.130   7.299  0.1665  0.3990 -0.2203
  197MOL0     C26521   9.692   2.181   7.161 -0.7730 -0.6495  0.4132
  197MOL0     C26522   9.826   2.269   7.170 -0.7633  0.6188  0.6032
  197MOL0     C26523   9.803   2.419   7.190 -0.4671  0.4828  0.2038
  197MOL0     C26524   9.927   2.503   7.204  0.7416 -0.2334 -0.0244
  197MOL0     C26525  10.022   2.574   7.212  0.3272 -0.0731 -0.4664
  197MOL0     C26526   9.379   2.213   7.275  0.6933  0.1039  0.0582
  197MOL0     C26527   9.258   2.261   7.234  0.4788  0.7520  0.0977
  197MOL0     H26528   8.749   2.167   7.215 -1.3840  2.5720  0.1726
  197MOL0     H26529   8.515   2.202   7.159  2.6699 -2.4427  1.1359
  197MOL0     H26530   8.311   2.146   6.976 -1.1420  0.6783 -2.6335
  197MOL0     H26531   8.321   2.288   7.093  1.1292 -0.8898  0.2036
  197MOL0     H26532   8.218   2.450   6.942 -0.8149  0.7867 -0.9597
  197MOL0     H26533   8.211   2.330   6.813  0.4607 -0.3238  0.2400
  197MOL0     H26534   8.052   2.200   6.948  0.2057  1.2608 -2.8380
  197MOL0     H26535   8.070   2.318   7.088 -0.8449  2.5332  0.0801
  197MOL0     H26536   7.983   2.490   6.937  0.4713  0.7022 -0.9937
  197MOL0     H26537   7.962   2.378   6.801 -1.3756 -0.5569 -0.0456
  197MOL0     H26538   7.810   2.404   7.052  1.9340  3.3222 -1.3553
  197MOL0     H26539   7.748   2.403   6.893 -2.4637 -1.8792  0.1347
  197MOL0     H26540   7.834   2.139   6.907  3.2453  1.5159 -0.2404
  197MOL0     H26541   7.833   2.177   7.078 -2.4682 -0.8610  0.1308
  197MOL0     H26542   7.587   2.194   6.884 -0.9011  0.4397  0.8658
  197MOL0     H26543   7.624   2.066   6.992 -4.5555 -0.5468 -3.3835
  197MOL0     H26544   7.546   2.346   7.059  0.5886  0.4102 -0.9302
  197MOL0     H26545   7.590   2.232   7.183 -1.8893  0.3090  0.6796
  197MOL0     H26546   7.340   2.205   6.886 -0.2278  0.2564 -1.0239
  197MOL0     H26547   7.143   2.043   6.848  0.4697 -0.0112  0.4404
  197MOL0     H26548   7.077   1.939   6.982  0.2770 -0.4391 -0.9995
  197MOL0     H26549   6.997   2.227   6.941 -2.7504  0.7768 -0.7569
  197MOL0     H26550   6.922   2.110   7.054 -0.8038 -1.4082 -0.1534
  197MOL0     H26551   6.833   1.993   6.867 -0.3809 -0.4380 -1.0054
  197MOL0     H26552   6.931   2.078   6.744 -1.4172 -1.9686 -0.4745
  197MOL0     H26553   6.805   2.287   6.800 -2.1664  0.3714 -2.1704
  197MOL0     H26554   6.707   2.198   6.920 -0.3474  1.9679 -0.7394
  197MOL0     H26555   6.527   2.052   6.571  0.7668  2.8310 -1.8593
  197MOL0     H26556   6.309   1.924   6.529  0.1642 -1.4963  1.3980
  197MOL0     H26557   6.167   1.965   6.610 -0.1490  1.4522 -0.6418
  197MOL0     H26558   6.212   2.071   6.480 -2.4957 -0.5274  0.4868
  197MOL0     H26559   5.948   2.024   7.016  1.2303  1.3467 -1.0945
  197MOL0     H26560   5.715   2.018   7.096  0.3916 -0.2077  1.0479
  197MOL0     H26561   5.486   2.026   7.084 -0.3900  0.3361  0.0003
  197MOL0     H26562   5.365   2.145   7.053 -0.0284  0.1756  0.2218
  197MOL0     H26563   5.456   2.185   6.812  0.7044  1.2483  2.3413
  197MOL0     H26564   5.586   2.063   6.862 -0.3089 -1.1676  0.8269
  197MOL0     H26565   5.282   2.014   6.885 -0.2199 -2.8234  0.5983
  197MOL0     H26566   5.412   1.892   6.883 -1.5413 -1.1198  0.9907
  197MOL0     H26567   5.318   2.048   6.650  1.4857  0.7869 -0.5475
  197MOL0     H26568   5.488   1.980   6.662 -0.7084  2.0099  1.4567
  197MOL0     H26569   5.372   1.759   6.694  0.4633  0.7390  0.3152
  197MOL0     H26570   5.364   1.827   6.540  1.9680  2.0898  0.3502
  197MOL0     H26571   5.123   1.846   6.748 -2.7261  2.7959 -1.4672
  197MOL0     H26572   5.133   1.922   6.596  1.6220  2.4434  2.5702
  197MOL0     H26573   5.108   1.641   6.686 -1.7321 -1.1010 -0.2400
  197MOL0     H26574   5.175   1.675   6.520  0.8303  2.4535 -0.3253
  197MOL0     H26575   4.968   1.806   6.475 -0.5640 -0.7283 -0.7729
  197MOL0     H26576   4.906   1.766   6.634  1.2456 -0.1254  0.3455
  197MOL0     H26577   5.669   2.427   6.971  0.7387  0.3247 -2.4817
  197MOL0     H26578   5.907   2.439   6.892 -1.6780  1.5742  0.2817
  197MOL0     H26579   6.282   2.286   6.931 -1.6335 -3.6622  0.8003
  197MOL0     H26580   6.530   2.312   6.904 -0.1383 -0.0442 -0.4546
  197MOL0     H26581   8.648   2.300   6.752  1.7331 -0.2022 -0.2687
  197MOL0     H26582   8.859   2.207   6.800  3.0844 -0.1721  1.9702
  197MOL0     H26583   9.152   1.986   7.073 -0.3721 -0.0325  2.1740
  197MOL0     H26584   9.382   1.907   7.147  1.9562  0.5829 -1.9202
  197MOL0     H26585   9.638   2.205   7.376 -0.8744 -1.8565  1.8745
  197MOL0     H26586   9.743   2.075   7.339 -0.8953 -1.2174 -0.0475
  197MOL0     H26587   9.606   2.239   7.127  0.3632  1.1349  0.4721
  197MOL0     H26588   9.702   2.092   7.098  0.6787  0.1107 -0.4921
  197MOL0     H26589   9.878   2.240   7.078  1.8507  2.3857  1.4011
  197MOL0     H26590   9.894   2.243   7.252  1.0241  1.2107 -0.6281
  197MOL0     H26591   9.749   2.434   7.284 -0.9652 -1.0425  0.1837
  197MOL0     H26592   9.756   2.452   7.097  0.1439 -0.8121 -0.5968
  197MOL0     H26593  10.119   2.620   7.210  1.9446 -3.1203  1.0825
  197MOL0     H26594   9.438   2.280   7.337  1.7671 -0.6745 -0.0986
  197MOL0     H26595   9.228   2.361   7.265  0.4547  0.0011  2.7818
  198MOL0     O26596   5.085   0.978   5.679  0.0798 -0.0455  0.3256
  198MOL0     C26597   5.141   1.054   5.765 -0.0060 -1.1360 -0.3333
  198MOL0     O26598   5.089   1.168   5.813  0.1029 -0.1005  1.1704
  198MOL0     C26599   4.961   1.193   5.766  0.4226  0.2553  0.4511
  198MOL0     C26600   4.946   1.303   5.674 -0.1415  0.5131  0.2766
  198MOL0     C26601   4.827   1.331   5.624 -0.0226 -0.2608  0.7200
  198MOL0     C26602   4.717   1.260   5.667 -0.7969  0.5826 -0.6884
  198MOL0     O26603   4.604   1.309   5.618  0.5338 -0.0543 -0.3421
  198MOL0     C26604   4.474   1.279   5.680 -0.1826 -0.1975 -0.4431
  198MOL0     C26605   4.465   1.381   5.798 -0.3618  0.5384  0.2259
  198MOL0     C26606   4.482   1.531   5.745  0.3005  0.4969  0.4746
  198MOL0     C26607   4.462   1.621   5.866 -0.0547  0.3488 -0.2585
  198MOL0     C26608   4.486   1.770   5.839  0.9866  0.1241 -1.8088
  198MOL0     C26609   4.364   1.830   5.769  0.1958 -0.1231  0.7396
  198MOL0     C26610   4.381   1.974   5.705 -0.2192  1.1752  0.4890
  198MOL0     C26611   4.244   2.036   5.664  0.7529 -0.1262  0.1778
  198MOL0     N26612   4.162   1.955   5.565  0.7994  0.5572 -0.2844
  198MOL0     C26613   4.083   1.852   5.602 -0.2957  0.7312  0.1046
  198MOL0     C26614   4.034   1.802   5.485  0.1345  0.4188  0.7281
  198MOL0     C26615   3.922   1.697   5.470 -0.9211 -0.6995 -1.0248
  198MOL0     C26616   3.820   1.754   5.362 -0.8844 -0.1476 -0.1536
  198MOL0     C26617   3.694   1.675   5.382  0.5413 -0.3486  0.7715
  198MOL0     C26618   3.593   1.715   5.279  0.8210  0.0395 -0.1702
  198MOL0     O26619   3.493   1.613   5.278 -0.2072 -0.2935  0.4889
  198MOL0     C26620   3.377   1.623   5.201  0.1396 -0.5909 -0.1965
  198MOL0     C26621   3.349   1.744   5.127 -0.7129 -0.1968 -0.3425
  198MOL0     C26622   3.245   1.745   5.039  0.6524 -0.4485  0.0459
  198MOL0     C26623   3.211   1.877   4.963  0.6517 -0.3732  0.5760
  198MOL0     C26624   3.152   1.632   5.038 -0.1117 -0.0210 -0.3307
  198MOL0     C26625   3.021   1.642   4.969  0.3403 -0.1186 -0.2219
  198MOL0     O26626   2.927   1.547   5.009 -0.0770 -0.8828  0.3338
  198MOL0     C26627   2.813   1.524   4.938  0.1854 -0.6040  0.0210
  198MOL0     C26628   2.708   1.617   4.934 -0.0988 -0.7998 -0.6218
  198MOL0     C26629   2.581   1.585   4.889  0.6373  0.8598  0.0057
  198MOL0     C26630   2.561   1.455   4.842  0.3761 -0.5123 -0.3560
  198MOL0     O26631   2.439   1.422   4.792 -0.0067 -0.0982 -0.2439
  198MOL0     C26632   2.331   1.506   4.742 -0.3159 -0.3003  0.0643
  198MOL0     C26633   2.203   1.418   4.753 -0.3748  0.5758 -1.2187
  198MOL0     C26634   2.086   1.473   4.678  0.1662 -0.2224  0.5871
  198MOL0     C26635   1.966   1.386   4.677 -0.0529 -0.2111 -0.6712
  198MOL0     C26636   1.837   1.463   4.650 -0.4074  0.5320 -0.0751
  198MOL0     C26637   1.721   1.361   4.645  0.2070  0.0186  0.0425
  198MOL0     C26638   1.579   1.424   4.615 -0.6803 -0.5008 -0.3916
  198MOL0     C26639   1.513   1.506   4.726  0.0460  1.0271 -0.0627
  198MOL0    Cl26640   1.346   1.458   4.748 -0.2716  0.2359 -0.0317
  198MOL0     C26641   2.665   1.360   4.838  0.2747 -0.1433  0.9644
  198MOL0     C26642   2.790   1.393   4.886 -0.4823 -0.4025  0.1468
  198MOL0     O26643   2.990   1.730   4.887 -0.0821 -0.5267 -0.6201
  198MOL0     C26644   3.173   1.520   5.121 -0.4945 -0.2848  0.0937
  198MOL0     C26645   3.291   1.523   5.208  0.8724 -0.3667  0.9333
  198MOL0     N26646   4.082   1.878   5.380 -0.4277 -0.9462 -0.5532
  198MOL0     N26647   4.167   1.966   5.435  0.3847  0.2119 -0.0830
  198MOL0     C26648   4.723   1.150   5.751  0.7458  0.1335  0.4227
  198MOL0     C26649   4.850   1.113   5.800  0.0981 -0.3928  0.2305
  198MOL0     C26650   5.263   1.014   5.833  1.2147 -0.1879 -0.2362
  198MOL0     C26651   5.347   1.115   5.878 -0.8363  0.3149  0.0469
  198MOL0     C26652   5.471   1.088   5.935  0.3153  0.7256 -0.2446
  198MOL0     C26653   5.513   0.952   5.956  0.6253  0.0552  0.2093
  198MOL0     O26654   5.630   0.921   6.017  0.4030 -0.2069 -0.2118
  198MOL0     C26655   5.734   1.013   6.063  0.4443  0.3053  0.4840
  198MOL0     C26656   5.717   1.076   6.202  0.0969  0.1714 -0.2067
  198MOL0     C26657   5.845   1.153   6.227 -0.6943  0.5552 -0.6492
  198MOL0     C26658   5.964   1.067   6.278 -0.5833 -0.0745 -0.8221
  198MOL0     C26659   6.081   1.147   6.308 -0.6408  0.2108 -0.1962
  198MOL0     C26660   6.186   1.197   6.322  0.0484  0.3272 -0.3572
  198MOL0     C26661   5.428   0.852   5.911 -0.0565  0.0879  0.6506
  198MOL0     C26662   5.299   0.879   5.847 -0.0855 -0.7044  0.1412
  198MOL0     H26663   5.033   1.352   5.631  1.8485  0.7335  4.0291
  198MOL0     H26664   4.826   1.406   5.545  2.0713 -0.3246  0.5697
  198MOL0     H26665   4.402   1.302   5.601 -0.5344 -0.7983 -0.3029
  198MOL0     H26666   4.440   1.177   5.700 -0.6275 -0.4711 -2.3799
  198MOL0     H26667   4.370   1.362   5.848 -1.2482  2.3504 -0.6531
  198MOL0     H26668   4.535   1.364   5.880 -0.7197  0.9411  0.6214
  198MOL0     H26669   4.578   1.539   5.693 -0.6963  3.5730 -1.1347
  198MOL0     H26670   4.414   1.551   5.661 -0.4357  2.8618  1.5519
  198MOL0     H26671   4.358   1.608   5.899 -0.3036  0.7306 -0.8845
  198MOL0     H26672   4.521   1.603   5.957  1.5961  2.6154 -0.8166
  198MOL0     H26673   4.501   1.813   5.938  2.7399 -2.1261 -1.0080
  198MOL0     H26674   4.578   1.788   5.784  2.1743 -1.7277 -0.5362
  198MOL0     H26675   4.336   1.764   5.687 -1.2007  1.1076  0.1929
  198MOL0     H26676   4.284   1.831   5.843  0.0458  2.4291  0.6243
  198MOL0     H26677   4.435   2.041   5.773 -0.5413  1.7003  0.2332
  198MOL0     H26678   4.456   1.983   5.626  1.6115  2.8219  2.2853
  198MOL0     H26679   4.247   2.141   5.632 -1.6383 -0.1665 -0.3676
  198MOL0     H26680   4.181   2.047   5.752  0.6825  1.6597 -0.0613
  198MOL0     H26681   4.043   1.823   5.699 -4.0481 -0.9861 -1.7484
  198MOL0     H26682   3.972   1.605   5.436  0.5621 -0.4125  0.3034
  198MOL0     H26683   3.871   1.690   5.566  0.5485  0.3364 -0.1390
  198MOL0     H26684   3.877   1.758   5.269  2.5233 -1.0081  1.6981
  198MOL0     H26685   3.788   1.850   5.404 -0.5660 -1.8790  4.7009
  198MOL0     H26686   3.656   1.680   5.484 -1.7589  2.7042 -0.0857
  198MOL0     H26687   3.715   1.572   5.353  0.0152 -0.4498  0.7409
  198MOL0     H26688   3.631   1.722   5.177 -0.6021 -1.3607 -0.8407
  198MOL0     H26689   3.551   1.812   5.308  0.3535 -0.5353  1.2093
  198MOL0     H26690   3.419   1.828   5.124 -1.1806  0.4032  2.5486
  198MOL0     H26691   3.188   1.864   4.857 -0.5298 -0.9869  0.8875
  198MOL0     H26692   3.127   1.924   5.015 -0.5770 -0.4936 -1.2212
  198MOL0     H26693   3.288   1.953   4.980 -0.8331  1.3036  0.0787
  198MOL0     H26694   2.707   1.715   4.980 -2.6697  0.8536 -3.7767
  198MOL0     H26695   2.506   1.663   4.891  1.0399  1.2442  0.4068
  198MOL0     H26696   2.315   1.592   4.808 -0.8919 -0.4513  0.1243
  198MOL0     H26697   2.351   1.547   4.643  0.5171 -0.3061  0.2205
  198MOL0     H26698   2.215   1.313   4.723  0.1436  0.3727 -0.3263
  198MOL0     H26699   2.164   1.420   4.854 -1.0798 -0.0456 -1.4714
  198MOL0     H26700   2.112   1.496   4.575 -0.1151  1.7679  0.9148
  198MOL0     H26701   2.065   1.576   4.711 -0.1222 -0.3751  0.8890
  198MOL0     H26702   1.974   1.308   4.601 -2.3741 -1.0748 -0.1343
  198MOL0     H26703   1.956   1.345   4.779  0.5434  0.0060 -0.5231
  198MOL0     H26704   1.837   1.514   4.554 -2.4454 -2.5384 -1.8632
  198MOL0     H26705   1.814   1.541   4.723  2.1996 -1.1531  2.8368
  198MOL0     H26706   1.744   1.288   4.567  0.1138 -0.6944  0.6683
  198MOL0     H26707   1.719   1.308   4.741 -0.6423  2.7873  1.6857
  198MOL0     H26708   1.518   1.338   4.587 -0.6536 -1.6036  2.6019
  198MOL0     H26709   1.589   1.488   4.527  2.3668 -2.4431 -1.6302
  198MOL0     H26710   1.514   1.613   4.706  1.2243  1.0544  0.0822
  198MOL0     H26711   1.565   1.480   4.819  1.9293 -0.2807 -1.4231
  198MOL0     H26712   2.649   1.265   4.788  1.5034  0.0034  0.2582
  198MOL0     H26713   2.868   1.317   4.888  1.9620  1.7403 -3.2630
  198MOL0     H26714   3.108   1.434   5.117  2.3647 -2.5490 -1.6379
  198MOL0     H26715   3.310   1.442   5.277  0.3328 -1.2014  0.1346
  198MOL0     H26716   4.644   1.093   5.799 -3.0846  3.7593 -0.9900
  198MOL0     H26717   4.867   1.024   5.859 -0.5226 -0.3003  0.5483
  198MOL0     H26718   5.326   1.220   5.858  0.5978  0.3021 -1.8040
  198MOL0     H26719   5.539   1.170   5.951  0.8613 -0.1763  2.5015
  198MOL0     H26720   5.827   0.957   6.051  0.9464  1.7002 -3.3272
  198MOL0     H26721   5.738   1.097   5.994  0.0424  1.9265  2.3480
  198MOL0     H26722   5.702   0.998   6.277 -1.8451 -1.0198 -1.7162
  198MOL0     H26723   5.625   1.135   6.204 -0.4102 -0.5983  1.9705
  198MOL0     H26724   5.833   1.232   6.301 -0.6623  0.7035 -0.8014
  198MOL0     H26725   5.874   1.207   6.137 -1.0313 -0.7474 -1.5742
  198MOL0     H26726   5.994   0.981   6.217 -1.3926 -1.3754  0.5372
  198MOL0     H26727   5.929   1.020   6.370  0.4219 -0.6691 -0.7263
  198MOL0     H26728   6.291   1.218   6.331 -0.3177  1.5623  1.7454
  198MOL0     H26729   5.456   0.748   5.923  0.8385  0.4155  1.5454
  198MOL0     H26730   5.248   0.800   5.792  0.4750 -1.9470  1.3266
  199MOL0     O26731   6.764   8.336   5.958  0.2956  0.5614 -0.8187
  199MOL0     C26732   6.758   8.457   5.973  0.0877  0.0171 -0.4615
  199MOL0     O26733   6.673   8.537   5.909 -0.0414 -0.0108  0.4261
  199MOL0     C26734   6.584   8.484   5.827 -0.2776  0.2546  0.6375
  199MOL0     C26735   6.476   8.411   5.879  0.1356 -0.2379  0.2440
  199MOL0     C26736   6.368   8.372   5.797  0.2368  0.3285  0.7523
  199MOL0     C26737   6.383   8.409   5.661  0.4061 -0.0808 -0.3529
  199MOL0     O26738   6.281   8.380   5.564  0.1000 -0.0298 -0.0054
  199MOL0     C26739   6.136   8.380   5.605  0.2565 -0.3489 -0.5255
  199MOL0     C26740   6.056   8.336   5.487 -0.5543 -0.1779 -0.2054
  199MOL0     C26741   6.024   8.451   5.383  0.6300  0.1516  0.3237
  199MOL0     C26742   5.889   8.520   5.412  0.0195  1.1846  0.2403
  199MOL0     C26743   5.849   8.634   5.319  0.3498 -0.7134 -0.1968
  199MOL0     C26744   5.731   8.714   5.376 -0.4478  0.7882 -0.7280
  199MOL0     C26745   5.678   8.832   5.287 -0.5884  0.7289 -1.1989
  199MOL0     C26746   5.554   8.907   5.330  0.4506  0.2072  0.0195
  199MOL0     N26747   5.431   8.838   5.306 -0.1459 -0.2475  0.9320
  199MOL0     C26748   5.399   8.789   5.184  0.6023  1.1473  0.4406
  199MOL0     C26749   5.277   8.737   5.205  0.6582  0.1542 -0.0818
  199MOL0     C26750   5.195   8.658   5.103 -0.6722 -0.2474 -0.6743
  199MOL0     C26751   5.165   8.515   5.145 -0.3354 -0.4723 -0.2210
  199MOL0     C26752   5.054   8.439   5.077  0.4126 -0.6411 -0.0073
  199MOL0     C26753   4.922   8.510   5.078  0.2963  0.6183 -0.2189
  199MOL0     O26754   4.825   8.414   5.021 -1.0365  0.2318 -0.1251
  199MOL0     C26755   4.693   8.454   5.029 -0.1383 -0.7939  0.2801
  199MOL0     C26756   4.657   8.580   5.085  0.2909  0.6274  0.3724
  199MOL0     C26757   4.517   8.600   5.090  0.5365 -0.5904  0.1655
  199MOL0     C26758   4.484   8.733   5.149  0.8815 -0.6743  0.2894
  199MOL0     C26759   4.417   8.501   5.062 -0.0713  0.9999 -0.4133
  199MOL0     C26760   4.270   8.527   5.076 -0.5361  0.1524  1.2213
  199MOL0     O26761   4.199   8.446   4.995  0.2478  0.0862 -0.9217
  199MOL0     C26762   4.066   8.420   5.024  0.2097  0.2239 -0.7188
  199MOL0     C26763   4.020   8.289   5.017 -0.6247 -1.1827  0.5938
  199MOL0     C26764   3.896   8.256   5.053  0.2536  0.1076 -0.1229
  199MOL0     C26765   3.802   8.355   5.095  0.0592  0.4001  0.0088
  199MOL0     O26766   3.681   8.309   5.127  0.6119  0.2776  0.1605
  199MOL0     C26767   3.565   8.393   5.135 -0.3434 -0.5692  0.0228
  199MOL0     C26768   3.441   8.323   5.097 -0.4632 -0.2193 -0.4927
  199MOL0     C26769   3.348   8.415   5.018  0.5675  0.5601 -0.0523
  199MOL0     C26770   3.397   8.426   4.869  0.3724  0.7227 -0.2738
  199MOL0     C26771   3.315   8.527   4.785 -0.3642 -1.2454  0.7430
  199MOL0     C26772   3.381   8.561   4.651 -0.6342 -0.2989 -0.2945
  199MOL0     C26773   3.293   8.610   4.534  0.3720 -0.7039  0.0399
  199MOL0     C26774   3.369   8.627   4.397 -0.7146  0.1070 -0.7438
  199MOL0    Cl26775   3.404   8.461   4.345  0.2740  0.1418 -0.0420
  199MOL0     C26776   3.846   8.488   5.113  0.1259 -0.3419 -0.3911
  199MOL0     C26777   3.983   8.515   5.074  1.1525 -0.0638 -0.3566
  199MOL0     O26778   4.225   8.591   5.164  0.1775 -0.3076  0.2233
  199MOL0     C26779   4.458   8.376   5.017 -0.4323 -1.0173  0.2716
  199MOL0     C26780   4.597   8.355   4.997  0.0379  1.0116 -0.5614
  199MOL0     N26781   5.249   8.739   5.338  0.3050 -0.6816  0.3011
  199MOL0     N26782   5.337   8.811   5.400  0.9155  0.1998 -0.4449
  199MOL0     C26783   6.499   8.467   5.611  0.0123  0.4642 -0.4517
  199MOL0     C26784   6.596   8.512   5.696  0.7295 -0.9202 -0.1725
  199MOL0     C26785   6.855   8.521   6.050  0.1045  0.0126  0.1432
  199MOL0     C26786   6.869   8.660   6.050 -0.3000  0.4078  0.5853
  199MOL0     C26787   6.961   8.723   6.136  0.2078  0.1374  0.0300
  199MOL0     C26788   7.047   8.655   6.218 -0.1953 -0.0161  0.0758
  199MOL0     O26789   7.137   8.709   6.312  0.7202 -0.7958 -0.6999
  199MOL0     C26790   7.167   8.854   6.316  0.3730  0.7736 -0.0074
  199MOL0     C26791   7.255   8.890   6.202 -0.0683  0.7942 -0.0480
  199MOL0     C26792   7.362   8.789   6.187  0.5578  0.1169  0.2972
  199MOL0     C26793   7.478   8.858   6.113  0.6042 -0.4633  0.0219
  199MOL0     C26794   7.596   8.771   6.097  0.1294 -0.2333  0.2523
  199MOL0     C26795   7.695   8.710   6.075  0.3547 -0.1912 -0.1894
  199MOL0     C26796   7.041   8.516   6.202 -0.5077  0.9695  0.5046
  199MOL0     C26797   6.943   8.445   6.128  0.1564 -0.2854  0.1577
  199MOL0     H26798   6.485   8.377   5.982  1.5860  0.2243  0.2998
  199MOL0     H26799   6.284   8.305   5.812 -0.0970  0.1195 -1.6841
  199MOL0     H26800   6.126   8.308   5.687  2.5265  2.3713  2.3881
  199MOL0     H26801   6.101   8.480   5.633 -0.5058 -0.6080 -0.5263
  199MOL0     H26802   6.108   8.251   5.440 -1.3006 -1.1938  0.7680
  199MOL0     H26803   5.959   8.298   5.519 -0.3250 -0.0712  0.6176
  199MOL0     H26804   6.100   8.529   5.379 -1.8288  2.6560 -1.3058
  199MOL0     H26805   6.015   8.408   5.283 -0.5966 -0.8210  0.8128
  199MOL0     H26806   5.806   8.448   5.414  0.3324  0.8188  0.3025
  199MOL0     H26807   5.898   8.560   5.513 -0.2405  0.9442  0.3622
  199MOL0     H26808   5.934   8.702   5.314  1.4574 -1.8045  2.2587
  199MOL0     H26809   5.829   8.589   5.222 -0.4914  0.2317 -0.4775
  199MOL0     H26810   5.645   8.648   5.389  0.8747 -0.4757  2.8183
  199MOL0     H26811   5.759   8.751   5.475 -0.7082 -0.9484  0.0168
  199MOL0     H26812   5.760   8.905   5.290  1.0745 -1.0384 -1.3585
  199MOL0     H26813   5.676   8.792   5.186  0.3417 -1.1193 -0.5302
  199MOL0     H26814   5.549   9.007   5.287 -0.3443  0.2400  0.1644
  199MOL0     H26815   5.564   8.911   5.439  1.9795 -2.6892  0.0724
  199MOL0     H26816   5.458   8.793   5.092  0.4621  0.3393  0.3090
  199MOL0     H26817   5.105   8.716   5.080 -0.2629 -0.8506 -4.4233
  199MOL0     H26818   5.259   8.659   5.014 -1.4788  0.2632 -1.2694
  199MOL0     H26819   5.153   8.519   5.253  1.2644  2.4454 -0.0531
  199MOL0     H26820   5.257   8.456   5.135 -0.3621 -0.7211  0.8980
  199MOL0     H26821   5.042   8.336   5.111  0.5374  0.0411  2.2521
  199MOL0     H26822   5.076   8.428   4.970  0.0891  1.0137 -0.2763
  199MOL0     H26823   4.932   8.609   5.031  0.2493  1.4553  1.4710
  199MOL0     H26824   4.882   8.532   5.177  1.6770 -0.1998  0.5561
  199MOL0     H26825   4.732   8.656   5.101  1.5533 -0.6335  0.6449
  199MOL0     H26826   4.401   8.781   5.097  1.0656 -2.0160 -1.3224
  199MOL0     H26827   4.448   8.726   5.252  0.2438  2.6208  0.4113
  199MOL0     H26828   4.563   8.808   5.133 -0.1950 -0.2304 -4.5758
  199MOL0     H26829   4.096   8.219   4.984  1.3095  0.1153  2.0335
  199MOL0     H26830   3.858   8.155   5.043 -1.5019  0.6863  0.3443
  199MOL0     H26831   3.561   8.443   5.232 -1.0307  0.5007 -0.5369
  199MOL0     H26832   3.578   8.463   5.052  3.5902 -1.3898 -0.2301
  199MOL0     H26833   3.459   8.232   5.039 -0.7875 -1.0313  0.6317
  199MOL0     H26834   3.395   8.299   5.194  0.6377  1.8155  0.5955
  199MOL0     H26835   3.346   8.513   5.068 -0.8123  0.2643  0.5337
  199MOL0     H26836   3.243   8.385   5.027  0.8037  0.3120  3.1435
  199MOL0     H26837   3.503   8.450   4.860  0.4441  0.7733  0.5825
  199MOL0     H26838   3.387   8.325   4.828  0.2995  0.3985  0.5167
  199MOL0     H26839   3.304   8.618   4.846 -0.5896  0.2451 -1.4311
  199MOL0     H26840   3.218   8.488   4.751  0.2892  0.1744 -3.2133
  199MOL0     H26841   3.447   8.641   4.685 -1.7636  0.0915  1.0255
  199MOL0     H26842   3.453   8.484   4.620 -1.1459  0.2627 -3.1258
  199MOL0     H26843   3.245   8.705   4.559  1.0202  0.1749 -1.8786
  199MOL0     H26844   3.219   8.536   4.502  1.1922  0.2145 -4.7533
  199MOL0     H26845   3.460   8.684   4.413 -0.0920 -0.9608 -0.3994
  199MOL0     H26846   3.316   8.684   4.320  0.8182  1.5849 -0.7494
  199MOL0     H26847   3.786   8.562   5.166 -1.4318  0.8455 -3.5766
  199MOL0     H26848   4.025   8.615   5.086  3.7632 -1.3206  2.3453
  199MOL0     H26849   4.386   8.299   4.993 -0.4830 -0.9274  0.1287
  199MOL0     H26850   4.624   8.263   4.946 -1.9422  1.4183 -2.4852
  199MOL0     H26851   6.497   8.479   5.504 -1.6431  0.1178 -0.4898
  199MOL0     H26852   6.679   8.576   5.666 -1.0246  0.1083 -3.3671
  199MOL0     H26853   6.804   8.723   5.991  1.6685  2.1348  0.1357
  199MOL0     H26854   6.933   8.827   6.140  0.2768  0.2132 -0.9973
  199MOL0     H26855   7.070   8.904   6.320  0.8292  1.6064  1.1803
  199MOL0     H26856   7.217   8.865   6.413  0.3358 -1.5064  0.3289
  199MOL0     H26857   7.290   8.992   6.222  3.3122 -0.3153  0.2941
  199MOL0     H26858   7.209   8.890   6.102  1.0971 -0.9475 -0.6205
  199MOL0     H26859   7.323   8.712   6.120  2.4473  1.6216 -2.7968
  199MOL0     H26860   7.385   8.750   6.286  0.2318 -1.8892 -0.3665
  199MOL0     H26861   7.506   8.935   6.186  2.2663 -4.0825  3.6582
  199MOL0     H26862   7.451   8.900   6.016  0.5581 -1.5573 -0.4574
  199MOL0     H26863   7.773   8.640   6.050  0.1661  0.2671 -2.2245
  199MOL0     H26864   7.112   8.450   6.251 -0.5088 -0.2073 -1.0166
  199MOL0     H26865   6.946   8.337   6.119 -0.6528 -0.3770  0.8601
  200MOL0     O26866   7.715  11.263   4.930 -0.5400 -0.3451  0.0213
  200MOL0     C26867   7.720  11.181   5.018  0.6066  0.3236  0.1113
  200MOL0     O26868   7.621  11.145   5.104 -0.3772 -0.1186 -0.5445
  200MOL0     C26869   7.497  11.209   5.110  0.4486 -0.4394 -0.0102
  200MOL0     C26870   7.467  11.331   5.054  0.6178 -0.2602 -0.0657
  200MOL0     C26871   7.338  11.392   5.065 -0.4461  0.3285  0.1739
  200MOL0     C26872   7.243  11.326   5.144 -0.0715  0.1899  0.0520
  200MOL0     O26873   7.111  11.364   5.164 -0.3845  0.5875 -0.0826
  200MOL0     C26874   7.093  11.507   5.165  0.4076  0.8102  0.5224
  200MOL0     C26875   6.977  11.530   5.249  0.0868 -0.1916  0.0992
  200MOL0     C26876   6.844  11.480   5.196  0.0108 -0.8240 -0.0059
  200MOL0     C26877   6.726  11.526   5.291  0.1041 -0.3171  0.7759
  200MOL0     C26878   6.601  11.544   5.207 -0.6580 -0.5621 -0.0069
  200MOL0     C26879   6.544  11.407   5.156 -0.9675 -0.0411 -0.4175
  200MOL0     C26880   6.401  11.417   5.105 -1.2081 -0.3634 -0.4133
  200MOL0     C26881   6.400  11.412   4.954 -0.3002  0.0175 -0.3793
  200MOL0     N26882   6.259  11.410   4.897  0.1573 -0.0838 -0.4242
  200MOL0     C26883   6.204  11.314   4.823 -0.4982  0.2107  0.9233
  200MOL0     C26884   6.089  11.366   4.780  0.0454  0.2696 -0.8316
  200MOL0     C26885   5.991  11.313   4.684 -0.1050 -0.1089 -0.6986
  200MOL0     C26886   6.000  11.373   4.543  0.1829  0.5343  0.2157
  200MOL0     C26887   5.890  11.480   4.528  0.8260 -0.0705  0.1474
  200MOL0     C26888   5.891  11.569   4.400 -0.9252 -0.7195 -0.3677
  200MOL0     O26889   5.871  11.485   4.287 -0.7100  0.4895 -0.5237
  200MOL0     C26890   5.747  11.467   4.233  1.2404 -0.3289  0.2903
  200MOL0     C26891   5.623  11.513   4.293 -0.2788  0.0385 -0.1336
  200MOL0     C26892   5.498  11.498   4.232  0.1035  0.0509  0.2259
  200MOL0     C26893   5.379  11.561   4.301  0.1840 -0.4325 -0.3001
  200MOL0     C26894   5.495  11.432   4.108  0.7458 -0.0823 -0.2759
  200MOL0     C26895   5.373  11.379   4.047  1.0219 -0.8192 -0.3766
  200MOL0     O26896   5.261  11.360   4.133 -0.4507 -0.3192  1.0720
  200MOL0     C26897   5.159  11.293   4.072 -0.0166  0.4864  0.0624
  200MOL0     C26898   5.138  11.151   4.083 -1.4603  0.0057  0.1561
  200MOL0     C26899   5.038  11.084   4.010  0.0277 -0.0313 -0.8571
  200MOL0     C26900   4.944  11.155   3.937  0.0574 -0.0469 -0.1145
  200MOL0     O26901   4.842  11.101   3.858  0.3958 -0.2417 -0.6310
  200MOL0     C26902   4.812  10.962   3.858  0.2571 -0.2693 -0.2934
  200MOL0     C26903   4.664  10.937   3.820 -0.1166  0.5306 -0.5326
  200MOL0     C26904   4.666  10.925   3.671 -0.2751  0.2460 -0.5658
  200MOL0     C26905   4.534  10.876   3.624  0.4908  0.4238  0.0315
  200MOL0     C26906   4.520  10.877   3.472 -0.2454 -0.6258 -0.2772
  200MOL0     C26907   4.389  10.819   3.423 -0.3941  0.2168 -0.0244
  200MOL0     C26908   4.347  10.691   3.470  0.2591 -0.5591  0.0076
  200MOL0     C26909   4.206  10.655   3.419  0.2793 -0.6471  0.0171
  200MOL0    Cl26910   4.135  10.523   3.510 -0.4748  0.0728  0.0918
  200MOL0     C26911   4.958  11.293   3.936 -0.7581  0.5122  0.7700
  200MOL0     C26912   5.067  11.358   4.001 -0.1001  0.5062  0.2339
  200MOL0     O26913   5.381  11.331   3.933  0.1250 -0.6412 -0.5730
  200MOL0     C26914   5.621  11.396   4.052  0.3393  0.5689 -0.8578
  200MOL0     C26915   5.749  11.406   4.110  0.0301 -0.4968 -0.1662
  200MOL0     N26916   6.073  11.493   4.834  0.4587  0.2918 -0.0595
  200MOL0     N26917   6.187  11.523   4.892  0.2735 -0.1823 -0.3271
  200MOL0     C26918   7.280  11.207   5.212  0.0105 -0.2372  0.3620
  200MOL0     C26919   7.403  11.148   5.192 -0.4566 -0.6109  0.5610
  200MOL0     C26920   7.844  11.102   5.029  0.0117 -0.6052 -0.4636
  200MOL0     C26921   7.868  11.012   5.140 -1.3823 -0.6304 -0.2994
  200MOL0     C26922   7.987  10.934   5.136  0.4388 -0.0915 -1.2365
  200MOL0     C26923   8.077  10.942   5.027 -0.3317  0.1516  0.3842
  200MOL0     O26924   8.192  10.862   5.015 -0.9775  0.1323  0.2785
  200MOL0     C26925   8.175  10.728   4.996 -0.7155  0.3164 -0.1953
  200MOL0     C26926   8.182  10.681   4.855  0.2044 -0.4915  0.3882
  200MOL0     C26927   8.308  10.733   4.794  0.0410  0.5776  0.2700
  200MOL0     C26928   8.316  10.691   4.644 -0.8485  0.3109  0.2194
  200MOL0     C26929   8.310  10.543   4.626 -0.5483  0.1874 -0.4558
  200MOL0     C26930   8.328  10.423   4.616 -0.4930  0.6152  0.4508
  200MOL0     C26931   8.052  11.037   4.928 -0.1831  0.4161  0.8829
  200MOL0     C26932   7.936  11.115   4.921  0.6554  1.3109  0.8156
  200MOL0     H26933   7.540  11.393   5.003 -1.8328  1.3060 -1.9316
  200MOL0     H26934   7.322  11.486   5.013 -0.2195 -1.2490 -3.0319
  200MOL0     H26935   7.177  11.567   5.201  0.4059  0.1900  1.5959
  200MOL0     H26936   7.062  11.545   5.067 -1.6262 -2.1843 -0.1600
  200MOL0     H26937   7.010  11.493   5.346  0.1795 -0.4357 -0.0231
  200MOL0     H26938   6.972  11.638   5.267  0.8380 -0.2499  0.6889
  200MOL0     H26939   6.838  11.520   5.094  1.5948 -0.7782 -0.1106
  200MOL0     H26940   6.836  11.371   5.187  2.7902 -1.0982  0.0602
  200MOL0     H26941   6.707  11.450   5.366 -0.1221  0.2759  1.3294
  200MOL0     H26942   6.757  11.624   5.329  1.0103  0.5747 -1.9980
  200MOL0     H26943   6.523  11.582   5.273  0.1336  1.6523 -0.2464
  200MOL0     H26944   6.628  11.604   5.119  2.0660 -1.2331  0.2641
  200MOL0     H26945   6.612  11.364   5.082  2.0142  0.7847  1.6282
  200MOL0     H26946   6.536  11.334   5.237  2.0913 -1.6918 -1.4404
  200MOL0     H26947   6.334  11.342   5.147 -0.3525  0.9424  3.8432
  200MOL0     H26948   6.357  11.511   5.138  1.5020  0.6512  0.5647
  200MOL0     H26949   6.460  11.326   4.924  2.9222  1.9525  0.0762
  200MOL0     H26950   6.463  11.496   4.925 -0.3867  0.5717  0.9421
  200MOL0     H26951   6.244  11.220   4.787 -0.6541 -0.2087  1.8171
  200MOL0     H26952   5.995  11.204   4.678  4.5458 -0.2541  1.2560
  200MOL0     H26953   5.890  11.325   4.726 -1.0449 -0.4048 -2.7192
  200MOL0     H26954   5.972  11.300   4.466  1.1860  0.0971  0.2452
  200MOL0     H26955   6.104  11.408   4.541  0.4471 -0.0257  2.1967
  200MOL0     H26956   5.894  11.553   4.610  0.2475  4.0747 -3.1465
  200MOL0     H26957   5.788  11.441   4.537 -0.3774  2.6535 -0.6314
  200MOL0     H26958   5.992  11.610   4.387 -1.3431  0.0081 -1.4635
  200MOL0     H26959   5.821  11.653   4.407  0.2112  0.1487  1.2933
  200MOL0     H26960   5.630  11.567   4.387  0.0700 -0.8954  0.3842
  200MOL0     H26961   5.316  11.622   4.236  1.5030  2.4648  0.9443
  200MOL0     H26962   5.329  11.482   4.358  0.7387  0.3602  1.3529
  200MOL0     H26963   5.415  11.633   4.375  2.0929 -1.3123 -0.3062
  200MOL0     H26964   5.198  11.096   4.155 -0.7272  0.2418 -0.2626
  200MOL0     H26965   5.038  10.975   4.007 -0.0941 -0.0171 -1.5561
  200MOL0     H26966   4.886  10.912   3.794 -0.5462 -0.9468 -0.7112
  200MOL0     H26967   4.842  10.934   3.959 -0.5525 -1.4883 -0.3732
  200MOL0     H26968   4.637  10.836   3.852  2.6151 -0.6130 -1.5793
  200MOL0     H26969   4.595  11.014   3.856 -0.5291  0.7351 -1.7218
  200MOL0     H26970   4.741  10.852   3.640 -1.8033 -1.6898  0.1441
  200MOL0     H26971   4.683  11.020   3.619 -3.7675  1.9352  1.0167
  200MOL0     H26972   4.519  10.769   3.644 -5.0153  0.5999 -1.5811
  200MOL0     H26973   4.456  10.935   3.673  1.0556 -0.7885  2.5995
  200MOL0     H26974   4.611  10.824   3.440  0.4975 -2.0330  3.5988
  200MOL0     H26975   4.515  10.975   3.424  0.2983 -1.5515 -2.3700
  200MOL0     H26976   4.314  10.893   3.454  0.9178  1.6608 -0.1946
  200MOL0     H26977   4.383  10.814   3.314 -0.2161 -2.3073  0.0208
  200MOL0     H26978   4.346  10.686   3.580 -0.8760 -0.1182  0.0374
  200MOL0     H26979   4.420  10.618   3.437  0.3247  0.2196 -1.6649
  200MOL0     H26980   4.209  10.627   3.313 -0.4969 -2.4705  0.4297
  200MOL0     H26981   4.146  10.746   3.429  2.2317  0.3899  5.3555
  200MOL0     H26982   4.887  11.352   3.880 -0.8990 -1.3083 -1.0944
  200MOL0     H26983   5.088  11.462   3.979 -2.0532  0.2645 -3.9569
  200MOL0     H26984   5.621  11.330   3.966  0.3104 -2.7200  1.5063
  200MOL0     H26985   5.835  11.358   4.063 -0.3983 -1.8894  0.4050
  200MOL0     H26986   7.194  11.170   5.267  0.4611 -0.8404  0.6772
  200MOL0     H26987   7.430  11.067   5.260 -0.3515 -0.3662  0.8133
  200MOL0     H26988   7.819  10.992   5.234  1.3081 -0.9792  1.1330
  200MOL0     H26989   8.005  10.869   5.221 -2.9082  1.3101  0.7460
  200MOL0     H26990   8.253  10.681   5.056 -1.5597 -0.4258  0.3395
  200MOL0     H26991   8.079  10.697   5.038  0.6786 -0.2559  2.8770
  200MOL0     H26992   8.097  10.711   4.792 -0.0116 -1.6358  0.1004
  200MOL0     H26993   8.185  10.571   4.854  4.5272 -0.5844 -2.0492
  200MOL0     H26994   8.400  10.706   4.845 -0.9678  3.4288  4.0626
  200MOL0     H26995   8.305  10.843   4.794  2.9465  0.7337 -0.6143
  200MOL0     H26996   8.394  10.741   4.587 -1.4508  0.4993 -0.4563
  200MOL0     H26997   8.228  10.729   4.591 -0.3250  2.2865  0.6706
  200MOL0     H26998   8.353  10.320   4.597  1.9085  1.5795 -2.3868
  200MOL0     H26999   8.125  11.053   4.849 -0.8118  0.4477  0.3056
  200MOL0     H27000   7.909  11.176   4.837  0.9774 -1.5723 -1.5521
  201MOL0     O27001   1.772   1.298  11.289  0.5075 -0.0262  0.1388
  201MOL0     C27002   1.767   1.201  11.365 -0.1702  0.3054 -0.4250
  201MOL0     O27003   1.660   1.174  11.457  0.7265 -0.4179 -0.1562
  201MOL0     C27004   1.555   1.256  11.469  0.1714  1.0250  0.2222
  201MOL0     C27005   1.420   1.222  11.429 -0.4390  1.2943  0.5580
  201MOL0     C27006   1.309   1.308  11.445 -0.3753  1.2697 -0.2165
  201MOL0     C27007   1.323   1.426  11.505  0.5158  0.0768  0.3094
  201MOL0     O27008   1.224   1.512  11.518 -0.2438 -0.2102 -0.2390
  201MOL0     C27009   1.204   1.563  11.652  0.6709 -0.0169 -0.0590
  201MOL0     C27010   1.053   1.551  11.689 -0.6433  0.0691 -0.0317
  201MOL0     C27011   0.965   1.610  11.587  0.3456 -0.6426 -0.5328
  201MOL0     C27012   0.815   1.580  11.628 -0.0994  0.7691 -0.1985
  201MOL0     C27013   0.735   1.591  11.503 -0.4368  0.1014  0.3653
  201MOL0     C27014   0.584   1.587  11.521 -0.7788  0.0224 -0.8058
  201MOL0     C27015   0.495   1.516  11.412 -0.7183 -0.2632  0.4330
  201MOL0     C27016   0.346   1.568  11.430  0.3804  0.8624  0.8358
  201MOL0     N27017   0.266   1.488  11.351  0.1866  0.0788  0.3933
  201MOL0     C27018   0.200   1.529  11.238  0.0286  0.7505 -0.8472
  201MOL0     C27019   0.143   1.421  11.182 -0.4498  0.1200  0.6809
  201MOL0     C27020   0.061   1.412  11.057  0.3480 -0.4638 -0.2152
  201MOL0     C27021   0.133   1.434  10.928  1.0407  0.3698  0.0906
  201MOL0     C27022   0.063   1.397  10.803 -0.6073  0.3870  0.5321
  201MOL0     C27023  -0.089   1.402  10.816 -0.0581  0.8576  0.1013
  201MOL0     O27024  -0.149   1.392  10.687 -0.3676 -0.2480 -0.1793
  201MOL0     C27025  -0.156   1.276  10.622 -0.4563  1.1738  0.4353
  201MOL0     C27026  -0.182   1.273  10.486  0.6356  0.4367  0.1276
  201MOL0     C27027  -0.165   1.160  10.403  0.2653  0.3981 -0.1254
  201MOL0     C27028  -0.180   1.182  10.256  0.9583 -0.6105  0.3258
  201MOL0     C27029  -0.132   1.032  10.468 -0.2372  0.2036 -0.1971
  201MOL0     C27030  -0.132   0.912  10.382 -0.4917  0.6391 -0.4794
  201MOL0     O27031  -0.209   0.902  10.270 -0.3237  0.4338  0.2970
  201MOL0     C27032  -0.183   0.803  10.180 -0.6088  0.8588 -0.2658
  201MOL0     C27033  -0.297   0.773  10.095  0.0276  0.3774 -0.9571
  201MOL0     C27034  -0.286   0.690   9.987  0.4015  0.6029 -0.1269
  201MOL0     C27035  -0.171   0.624   9.949  0.3131 -0.1521  0.0009
  201MOL0     O27036  -0.169   0.541   9.839 -0.4178  0.3503 -0.2276
  201MOL0     C27037  -0.069   0.550   9.738 -0.8049  0.9043 -0.2754
  201MOL0     C27038  -0.070   0.421   9.646  0.0934 -0.1842 -0.6626
  201MOL0     C27039  -0.192   0.421   9.549  0.2796  0.2080 -0.5789
  201MOL0     C27040  -0.227   0.269   9.508 -0.5380  0.4930  0.6987
  201MOL0     C27041  -0.356   0.260   9.428  0.4567  0.3991  0.5567
  201MOL0     C27042  -0.478   0.213   9.519 -0.6604  0.7628  0.3728
  201MOL0     C27043  -0.609   0.199   9.454  0.0568  0.0712 -0.8876
  201MOL0     C27044  -0.726   0.164   9.556  0.0841 -0.4332 -0.9243
  201MOL0    Cl27045  -0.773   0.324   9.620 -0.3932 -0.1940  0.0779
  201MOL0     C27046  -0.059   0.656  10.034 -0.2548 -0.0772  0.1441
  201MOL0     C27047  -0.065   0.734  10.149  0.1494 -0.1205  0.4231
  201MOL0     O27048  -0.053   0.830  10.416 -0.3710  0.7518  0.0162
  201MOL0     C27049  -0.106   1.031  10.604 -0.8515  0.3773 -0.0174
  201MOL0     C27050  -0.121   1.152  10.673 -0.7748  1.1898 -0.3027
  201MOL0     N27051   0.177   1.304  11.253  0.1243  0.0629 -0.7106
  201MOL0     N27052   0.251   1.353  11.354 -0.2306 -0.7468  0.1367
  201MOL0     C27053   1.446   1.459  11.557 -0.1080 -0.6249  0.0547
  201MOL0     C27054   1.563   1.384  11.535 -0.3901  0.3791 -0.4466
  201MOL0     C27055   1.896   1.128  11.379  0.7152 -0.4072 -0.6118
  201MOL0     C27056   1.988   1.141  11.278 -0.5694  0.6254 -0.7929
  201MOL0     C27057   2.115   1.079  11.303  0.7778 -1.0572  0.2953
  201MOL0     C27058   2.142   1.004  11.414  0.3501  0.1935 -0.0474
  201MOL0     O27059   2.261   0.938  11.440  0.8379  0.4946  0.5327
  201MOL0     C27060   2.353   0.937  11.336  0.4490  0.4504  1.1094
  201MOL0     C27061   2.464   0.852  11.388 -0.3080 -0.4935  0.2339
  201MOL0     C27062   2.427   0.711  11.418  0.1512  0.3173  0.2769
  201MOL0     C27063   2.508   0.660  11.534 -0.7719  0.2140 -0.4857
  201MOL0     C27064   2.487   0.731  11.658 -0.0304 -0.8541 -0.0517
  201MOL0     C27065   2.469   0.789  11.767 -1.1576 -0.5738  0.2873
  201MOL0     C27066   2.049   0.988  11.505 -0.1041 -0.4049  0.2079
  201MOL0     C27067   1.925   1.045  11.491  0.5084 -0.4712 -0.2203
  201MOL0     H27068   1.403   1.125  11.383  1.7436  0.8553  0.5481
  201MOL0     H27069   1.217   1.263  11.408  0.8929 -2.8334  1.0606
  201MOL0     H27070   1.264   1.506  11.723  1.5293  0.8677 -0.0458
  201MOL0     H27071   1.232   1.669  11.660 -0.9817  0.4220  0.4182
  201MOL0     H27072   1.037   1.443  11.691 -0.3285  0.0348  0.8648
  201MOL0     H27073   1.042   1.595  11.788  0.4569  2.0781 -0.7422
  201MOL0     H27074   0.971   1.719  11.584 -3.0273 -0.3549 -1.1013
  201MOL0     H27075   0.978   1.555  11.493 -0.1730  0.9268 -1.5704
  201MOL0     H27076   0.808   1.484  11.681  0.3862  0.1090 -1.2797
  201MOL0     H27077   0.781   1.662  11.692  0.8421  2.8328 -2.1993
  201MOL0     H27078   0.769   1.685  11.458 -0.8851 -0.3498 -0.9899
  201MOL0     H27079   0.759   1.522  11.422 -2.2939  0.0477 -0.1922
  201MOL0     H27080   0.568   1.555  11.624  2.2073  1.4565  0.2314
  201MOL0     H27081   0.569   1.696  11.527  3.3905  0.6843  1.4964
  201MOL0     H27082   0.531   1.557  11.317 -2.6186  1.0372  0.2212
  201MOL0     H27083   0.507   1.408  11.423  2.6519  0.1812  2.2811
  201MOL0     H27084   0.345   1.674  11.405  1.2151  0.7965  0.5197
  201MOL0     H27085   0.311   1.565  11.534 -0.5270  1.4070  0.5521
  201MOL0     H27086   0.195   1.625  11.186 -0.5901 -0.3939 -3.0488
  201MOL0     H27087   0.025   1.309  11.052  2.3145 -1.1757 -0.6308
  201MOL0     H27088  -0.021   1.480  11.081  0.4573 -0.4406  0.1066
  201MOL0     H27089   0.225   1.375  10.927 -0.5968 -2.4798 -3.4870
  201MOL0     H27090   0.139   1.543  10.927 -0.7326  0.5154  1.0769
  201MOL0     H27091   0.095   1.298  10.770 -3.8979 -1.4685  2.4646
  201MOL0     H27092   0.111   1.469  10.736 -0.9538  0.6002  0.5114
  201MOL0     H27093  -0.116   1.498  10.861 -0.7781  0.0852  1.3667
  201MOL0     H27094  -0.128   1.324  10.882 -0.4109 -0.2916 -1.4038
  201MOL0     H27095  -0.201   1.371  10.442 -0.6059 -0.8073 -2.3236
  201MOL0     H27096  -0.287   1.181  10.233  1.4787 -1.3512 -2.5535
  201MOL0     H27097  -0.133   1.278  10.236 -1.1672  0.5600  0.6567
  201MOL0     H27098  -0.135   1.117  10.180  1.4033  0.9288 -0.7587
  201MOL0     H27099  -0.395   0.813  10.118  0.1592 -0.3006  0.9047
  201MOL0     H27100  -0.364   0.676   9.912  1.8883  1.5163 -1.9098
  201MOL0     H27101  -0.076   0.636   9.671  5.2135  2.0134 -0.0572
  201MOL0     H27102   0.026   0.571   9.789 -0.7207  0.0677 -0.0696
  201MOL0     H27103   0.013   0.421   9.575  0.1820  0.9132 -0.5875
  201MOL0     H27104  -0.075   0.329   9.704 -0.7472 -0.7053 -1.5307
  201MOL0     H27105  -0.169   0.485   9.464  3.9060  0.7754  0.6582
  201MOL0     H27106  -0.271   0.461   9.612  2.2173  2.6536  0.4501
  201MOL0     H27107  -0.144   0.242   9.443  2.4095  4.3284  2.4322
  201MOL0     H27108  -0.231   0.203   9.595  1.0413 -1.5026 -0.6649
  201MOL0     H27109  -0.334   0.185   9.351  0.6772  2.2996 -1.3043
  201MOL0     H27110  -0.389   0.351   9.378  1.1845 -0.0647 -0.8534
  201MOL0     H27111  -0.453   0.116   9.564 -0.6187  0.4704 -0.2608
  201MOL0     H27112  -0.488   0.296   9.589  2.5819  1.0723  0.6303
  201MOL0     H27113  -0.601   0.115   9.384  0.8529 -0.8101  0.2290
  201MOL0     H27114  -0.637   0.292   9.402  2.4677  1.4386  0.0986
  201MOL0     H27115  -0.695   0.091   9.631 -0.0739  0.1806 -0.2528
  201MOL0     H27116  -0.800   0.112   9.495  0.2129 -1.2019 -0.4404
  201MOL0     H27117   0.039   0.631   9.994 -0.3557  0.5987 -0.5423
  201MOL0     H27118   0.031   0.754  10.196 -0.0210  1.3726  0.1794
  201MOL0     H27119  -0.087   0.939  10.657  0.8916  1.5794  1.5799
  201MOL0     H27120  -0.100   1.148  10.780  0.9809 -0.0661 -0.6570
  201MOL0     H27121   1.458   1.557  11.601 -2.1352  0.5447 -1.8075
  201MOL0     H27122   1.657   1.426  11.568  0.6069 -1.6792 -0.5728
  201MOL0     H27123   1.973   1.201  11.188  1.5076  1.2477 -0.7726
  201MOL0     H27124   2.186   1.087  11.222  1.2821  0.6583  0.8769
  201MOL0     H27125   2.314   0.896  11.242  2.0594  0.5936  0.3559
  201MOL0     H27126   2.399   1.033  11.312  0.8379 -0.3039 -1.4504
  201MOL0     H27127   2.505   0.900  11.478 -0.5199  1.1755 -0.5212
  201MOL0     H27128   2.542   0.852  11.312  0.7117 -2.4345  1.2028
  201MOL0     H27129   2.437   0.657  11.324  0.0671  0.1378  0.3710
  201MOL0     H27130   2.329   0.701  11.466  0.6380 -1.4830  0.9743
  201MOL0     H27131   2.614   0.663  11.510 -0.2251  0.6475  1.7741
  201MOL0     H27132   2.463   0.561  11.544 -2.0872  0.6958 -1.3596
  201MOL0     H27133   2.448   0.845  11.856  2.5467  0.7926  0.5068
  201MOL0     H27134   2.079   0.933  11.593  4.2377  3.0637  1.2557
  201MOL0     H27135   1.847   1.030  11.565  1.6610 -2.2363  0.7207
  202MOL0     O27136   1.079   9.105   1.251  0.7151  0.4309 -0.1083
  202MOL0     C27137   1.111   9.215   1.302 -0.1403  0.5431 -1.4708
  202MOL0     O27138   1.029   9.322   1.321 -0.5010 -0.0769  0.0571
  202MOL0     C27139   0.906   9.322   1.261  0.5906 -0.0690  0.0425
  202MOL0     C27140   0.817   9.221   1.231  0.5871  0.2188 -0.1930
  202MOL0     C27141   0.692   9.256   1.173 -0.0183 -0.4256 -0.4632
  202MOL0     C27142   0.677   9.380   1.107  0.4924 -0.0166 -0.0198
  202MOL0     O27143   0.572   9.408   1.020 -0.1125 -0.5244 -1.1656
  202MOL0     C27144   0.449   9.451   1.085  0.7177 -0.7959  0.3279
  202MOL0     C27145   0.317   9.441   0.994 -0.1885  0.1201 -0.3916
  202MOL0     C27146   0.294   9.298   0.962 -0.1121  0.3002 -0.0659
  202MOL0     C27147   0.163   9.272   0.887  0.2450  0.3094 -0.7110
  202MOL0     C27148   0.112   9.135   0.852 -0.1435  0.4247  0.2424
  202MOL0     C27149   0.101   9.053   0.979 -0.4797  0.0196 -0.4761
  202MOL0     C27150   0.062   8.902   0.961  0.1230 -0.0316 -0.2790
  202MOL0     C27151  -0.091   8.879   0.948 -0.3321 -0.3669 -0.2806
  202MOL0     N27152  -0.167   8.916   1.072  0.1109  0.5385 -1.0013
  202MOL0     C27153  -0.274   8.986   1.073 -0.0136 -0.8311 -0.2320
  202MOL0     C27154  -0.287   9.034   1.198 -0.5434  0.2865  0.2053
  202MOL0     C27155  -0.381   9.153   1.238  0.6451 -0.4618  0.3113
  202MOL0     C27156  -0.485   9.114   1.344 -1.0521 -1.1582 -0.7038
  202MOL0     C27157  -0.572   8.992   1.300  1.5126  0.1570  0.5952
  202MOL0     C27158  -0.683   8.978   1.401 -0.1663  0.7301 -0.9638
  202MOL0     O27159  -0.636   8.900   1.516 -0.3598  0.5420 -0.3138
  202MOL0     C27160  -0.720   8.882   1.619 -0.5558 -0.8051 -0.8533
  202MOL0     C27161  -0.660   8.831   1.732 -0.3659  0.0788  0.2663
  202MOL0     C27162  -0.736   8.818   1.851 -0.5906  0.5575 -0.2458
  202MOL0     C27163  -0.663   8.774   1.981  0.1518 -0.5435  0.5808
  202MOL0     C27164  -0.876   8.839   1.851 -0.2085 -0.2856  0.7955
  202MOL0     C27165  -0.962   8.822   1.965 -0.2317 -0.1888  0.2639
  202MOL0     O27166  -0.951   8.700   2.025 -0.0774  0.0893 -0.7507
  202MOL0     C27167  -1.053   8.665   2.117  0.0354  0.0061  0.4619
  202MOL0     C27168  -1.176   8.607   2.084  0.3320 -0.8314 -0.8935
  202MOL0     C27169  -1.269   8.590   2.191 -0.1958  0.5793  0.3650
  202MOL0     C27170  -1.244   8.621   2.328  0.1851  0.5429 -0.9260
  202MOL0     O27171  -1.332   8.587   2.436  0.5499  0.1455  0.2425
  202MOL0     C27172  -1.469   8.574   2.399  0.5347  0.2961  0.1799
  202MOL0     C27173  -1.559   8.553   2.523  0.1514  0.0092 -0.1924
  202MOL0     C27174  -1.569   8.668   2.619 -0.0535 -0.1089 -1.2232
  202MOL0     C27175  -1.653   8.641   2.738  0.6938 -0.4152  0.1258
  202MOL0     C27176  -1.808   8.625   2.704  0.7886 -0.4904  0.5821
  202MOL0     C27177  -1.866   8.753   2.639 -0.6314  0.8945 -0.0229
  202MOL0     C27178  -2.018   8.748   2.622 -0.2584 -0.4797  0.2268
  202MOL0     C27179  -2.092   8.775   2.757  0.0001  0.1929 -0.1876
  202MOL0    Cl27180  -2.266   8.722   2.728  0.1481  0.4320 -0.3308
  202MOL0     C27181  -1.119   8.679   2.352  0.0585  0.3456 -0.1728
  202MOL0     C27182  -1.015   8.686   2.256  0.1345 -0.4645  0.9165
  202MOL0     O27183  -1.032   8.916   2.002  0.4312  0.5036 -0.2438
  202MOL0     C27184  -0.930   8.877   1.729  0.0415  0.0052 -0.2814
  202MOL0     C27185  -0.859   8.901   1.605 -0.7465  0.1780  0.3654
  202MOL0     N27186  -0.181   8.985   1.272 -0.2394 -1.1249  0.6473
  202MOL0     N27187  -0.113   8.909   1.198 -0.1132  0.2482 -0.0917
  202MOL0     C27188   0.769   9.473   1.135 -0.6194 -0.3890 -0.5934
  202MOL0     C27189   0.884   9.450   1.212 -0.1666  0.1900 -0.0755
  202MOL0     C27190   1.245   9.212   1.370  0.3221 -0.2670  0.2147
  202MOL0     C27191   1.316   9.094   1.384 -0.6604  0.0608 -1.4902
  202MOL0     C27192   1.449   9.097   1.427  0.4904  0.9801 -0.5123
  202MOL0     C27193   1.513   9.220   1.451 -0.8549  0.4063  0.1146
  202MOL0     O27194   1.647   9.228   1.492  0.0677 -0.0264 -0.5337
  202MOL0     C27195   1.728   9.111   1.510  0.4136 -0.3135 -0.1666
  202MOL0     C27196   1.873   9.140   1.560  0.5770 -0.0321 -1.4348
  202MOL0     C27197   1.944   9.010   1.609  0.3665  0.0565 -0.2763
  202MOL0     C27198   2.084   9.031   1.628 -0.3960 -0.3190 -0.4738
  202MOL0     C27199   2.136   9.143   1.716 -0.1223 -0.5330  0.0675
  202MOL0     C27200   2.167   9.244   1.788  0.3230 -0.3921  0.3782
  202MOL0     C27201   1.439   9.338   1.440 -1.0542  0.5282  0.2192
  202MOL0     C27202   1.308   9.338   1.396  1.1245 -0.8913 -0.2797
  202MOL0     H27203   0.828   9.118   1.263  1.4469  0.3618 -0.0219
  202MOL0     H27204   0.623   9.172   1.166  1.9073 -2.3503  1.7488
  202MOL0     H27205   0.427   9.394   1.175  3.2187  0.7184  2.0412
  202MOL0     H27206   0.468   9.556   1.110  1.6005 -0.7712 -0.3677
  202MOL0     H27207   0.230   9.485   1.044 -0.6476 -0.4375 -0.6877
  202MOL0     H27208   0.333   9.496   0.901  1.9771 -2.1935 -1.4999
  202MOL0     H27209   0.376   9.264   0.898  2.5477  2.0735  2.2122
  202MOL0     H27210   0.292   9.243   1.056  4.1883  0.3207  0.2404
  202MOL0     H27211   0.093   9.309   0.963 -0.2789  0.0225 -1.0463
  202MOL0     H27212   0.146   9.336   0.800 -3.1419  2.5412  1.3376
  202MOL0     H27213   0.014   9.137   0.804  0.5455 -0.6689 -1.3043
  202MOL0     H27214   0.169   9.086   0.772 -3.3469  0.8690 -2.5404
  202MOL0     H27215   0.203   9.038   1.016 -1.4878 -3.7675  1.3088
  202MOL0     H27216   0.046   9.111   1.053 -1.9993 -2.4278  0.4307
  202MOL0     H27217   0.106   8.868   0.866  0.9809  2.4345 -0.8271
  202MOL0     H27218   0.099   8.830   1.034 -4.5491 -2.1930  0.3224
  202MOL0     H27219  -0.113   8.775   0.925 -2.5826 -0.3344  1.4019
  202MOL0     H27220  -0.134   8.934   0.863 -1.1448  1.8191  1.4231
  202MOL0     H27221  -0.352   9.019   1.005 -1.5746 -2.9353  0.4267
  202MOL0     H27222  -0.317   9.231   1.281 -0.7754  1.5762 -1.1101
  202MOL0     H27223  -0.432   9.181   1.146 -0.9334 -2.7143  0.4314
  202MOL0     H27224  -0.543   9.199   1.382  1.7979  0.3091  0.7386
  202MOL0     H27225  -0.434   9.085   1.436 -0.2342  0.0410 -0.7614
  202MOL0     H27226  -0.510   8.902   1.295 -1.4285 -1.9591  0.2844
  202MOL0     H27227  -0.615   9.012   1.202 -0.7142  1.8219  1.8244
  202MOL0     H27228  -0.763   8.922   1.353  0.0130 -1.1631  0.7805
  202MOL0     H27229  -0.716   9.075   1.438 -0.0444  0.6510 -0.6436
  202MOL0     H27230  -0.556   8.801   1.726 -0.1310  1.1221 -2.5945
  202MOL0     H27231  -0.670   8.665   1.978 -0.9207 -0.5017  1.0031
  202MOL0     H27232  -0.558   8.804   1.984 -0.1778  0.7640 -0.0786
  202MOL0     H27233  -0.716   8.805   2.072 -0.0920 -1.0019  0.6002
  202MOL0     H27234  -1.209   8.592   1.982 -0.5912 -0.2930 -0.6804
  202MOL0     H27235  -1.358   8.547   2.147 -0.0186  0.2571  0.3211
  202MOL0     H27236  -1.489   8.669   2.347  0.8242  1.5455  2.2549
  202MOL0     H27237  -1.496   8.491   2.334 -0.5711 -0.9052  2.0766
  202MOL0     H27238  -1.662   8.538   2.489 -0.8462  1.1032  2.1276
  202MOL0     H27239  -1.540   8.456   2.570 -2.4125  0.0893  1.1802
  202MOL0     H27240  -1.605   8.757   2.565 -0.5736  0.6947  0.3832
  202MOL0     H27241  -1.475   8.697   2.668  0.0391  0.2036 -1.5737
  202MOL0     H27242  -1.625   8.548   2.788  3.3720  0.6542  0.8054
  202MOL0     H27243  -1.634   8.722   2.809  0.9577  1.1674 -1.6776
  202MOL0     H27244  -1.862   8.610   2.799  2.1196 -1.2643  1.2416
  202MOL0     H27245  -1.831   8.540   2.640  1.9048 -0.1381 -0.3086
  202MOL0     H27246  -1.836   8.843   2.694 -0.9044  1.1712 -0.3228
  202MOL0     H27247  -1.823   8.758   2.539  3.0223  1.0564  1.4074
  202MOL0     H27248  -2.039   8.648   2.582  1.1594 -1.4280  1.7170
  202MOL0     H27249  -2.048   8.833   2.560  1.6907  0.7482  0.8858
  202MOL0     H27250  -2.093   8.883   2.773 -0.1258  0.2151 -0.3506
  202MOL0     H27251  -2.050   8.712   2.836 -2.2226  1.2549  1.9785
  202MOL0     H27252  -1.095   8.716   2.451  0.1851 -0.6995  0.2019
  202MOL0     H27253  -0.919   8.726   2.286 -0.0218 -0.9328  2.1330
  202MOL0     H27254  -1.033   8.911   1.720 -0.1188 -0.8641 -2.4079
  202MOL0     H27255  -0.918   8.937   1.522  0.8133  5.9129  1.2879
  202MOL0     H27256   0.758   9.563   1.076 -1.4388 -1.0970 -1.5576
  202MOL0     H27257   0.970   9.516   1.220  2.9762 -3.4074 -1.4799
  202MOL0     H27258   1.263   9.000   1.368 -1.1810 -0.2379  1.4592
  202MOL0     H27259   1.498   9.000   1.437 -1.3709  0.0379 -0.0198
  202MOL0     H27260   1.666   9.048   1.574 -0.5749 -1.2469 -1.9503
  202MOL0     H27261   1.742   9.061   1.413  1.8176  0.6009 -0.4620
  202MOL0     H27262   1.865   9.223   1.630  1.5438 -2.8035  2.2422
  202MOL0     H27263   1.923   9.190   1.476 -0.2645  3.7936  0.1558
  202MOL0     H27264   1.920   8.934   1.533 -4.4806  1.9482 -1.0144
  202MOL0     H27265   1.895   8.969   1.698 -3.8424 -3.7322 -3.7765
  202MOL0     H27266   2.120   9.039   1.524 -2.5619  2.1256 -1.1511
  202MOL0     H27267   2.134   8.942   1.667 -0.6105  0.5018  1.7980
  202MOL0     H27268   2.205   9.324   1.848 -1.9781 -0.3994  1.9599
  202MOL0     H27269   1.486   9.433   1.466 -1.8468  1.0565 -0.2119
  202MOL0     H27270   1.241   9.423   1.386  2.3007 -0.0399 -1.1859
  203MOL0     O27271   2.012   1.461   9.802  0.3546 -0.1053  0.1580
  203MOL0     C27272   2.027   1.495   9.917 -0.4575 -0.5331  0.2284
  203MOL0     O27273   1.934   1.480  10.017  0.6850 -0.7840 -0.2602
  203MOL0     C27274   1.823   1.395   9.992  0.4062 -0.1300  0.5148
  203MOL0     C27275   1.826   1.282   9.908  0.3825 -0.0817 -0.1588
  203MOL0     C27276   1.718   1.193   9.915  0.0081 -1.2689  0.1126
  203MOL0     C27277   1.601   1.233   9.975  0.0619 -0.0105  0.1600
  203MOL0     O27278   1.494   1.157   9.943  0.1298  0.0524  0.5389
  203MOL0     C27279   1.375   1.228   9.898 -0.3702  0.4727 -0.7943
  203MOL0     C27280   1.250   1.143   9.870 -0.5508 -0.0350  0.2159
  203MOL0     C27281   1.119   1.214   9.829  0.4670  0.1491 -0.3462
  203MOL0     C27282   1.011   1.119   9.793  1.0965 -0.4033 -0.2166
  203MOL0     C27283   0.891   1.204   9.745  0.6662 -0.9707  0.0628
  203MOL0     C27284   0.825   1.303   9.860  0.3031  0.0132  0.5962
  203MOL0     C27285   0.746   1.240   9.971  0.6348  0.0124 -0.3188
  203MOL0     C27286   0.593   1.273   9.970  0.1174  0.8136  0.2816
  203MOL0     N27287   0.574   1.407  10.022 -0.9033 -0.4500 -0.5729
  203MOL0     C27288   0.610   1.443  10.148  0.3546 -0.1926 -0.0431
  203MOL0     C27289   0.575   1.576  10.161 -0.1248 -0.0718 -0.1961
  203MOL0     C27290   0.594   1.651  10.288  0.3218  0.3089 -0.8773
  203MOL0     C27291   0.745   1.678  10.291 -0.6144 -0.1627 -0.8221
  203MOL0     C27292   0.772   1.795  10.395  0.9393  0.7094 -0.7605
  203MOL0     C27293   0.762   1.738  10.541 -0.3064  0.0362 -0.0833
  203MOL0     O27294   0.850   1.630  10.569  0.4067  0.7651  0.1640
  203MOL0     C27295   0.972   1.638  10.615  0.7918 -0.4885 -0.0377
  203MOL0     C27296   1.046   1.527  10.648  0.4593 -0.5129 -0.4144
  203MOL0     C27297   1.178   1.521  10.685 -0.2372 -0.4904  0.6110
  203MOL0     C27298   1.226   1.380  10.722 -0.0704 -0.3213  0.7885
  203MOL0     C27299   1.253   1.646  10.686 -0.0084  1.2484  0.0377
  203MOL0     C27300   1.393   1.668  10.716 -0.5080 -0.1450 -0.0200
  203MOL0     O27301   1.451   1.786  10.676 -0.3249  0.2173  0.0770
  203MOL0     C27302   1.577   1.803  10.703  0.8750  0.0318 -1.3919
  203MOL0     C27303   1.607   1.905  10.788  0.7264 -0.2369  0.8607
  203MOL0     C27304   1.737   1.932  10.820 -0.3526  0.8099  0.1133
  203MOL0     C27305   1.833   1.851  10.763 -0.7838  0.4214 -0.0576
  203MOL0     O27306   1.966   1.851  10.803 -0.7437 -0.4203 -0.5277
  203MOL0     C27307   2.009   1.948  10.907 -0.3466 -0.2949  0.0501
  203MOL0     C27308   2.156   1.930  10.953  0.1733 -0.0486 -0.8571
  203MOL0     C27309   2.253   1.959  10.847  0.7122  0.2483  0.9535
  203MOL0     C27310   2.397   1.932  10.896  0.5146  0.4937 -0.4679
  203MOL0     C27311   2.487   1.975  10.791 -0.2433 -0.5238 -0.4401
  203MOL0     C27312   2.633   1.984  10.816  0.1860  0.6310  0.4117
  203MOL0     C27313   2.658   2.086  10.929 -0.4023 -0.1826 -0.4786
  203MOL0     C27314   2.814   2.101  10.950  0.2711  0.0296 -0.2278
  203MOL0    Cl27315   2.902   2.140  10.804  0.5111 -0.1747 -0.2659
  203MOL0     C27316   1.801   1.750  10.669  0.0747  0.1987  0.3562
  203MOL0     C27317   1.671   1.728  10.633 -0.2468  0.3588  0.8133
  203MOL0     O27318   1.449   1.583  10.784  0.0325  0.6475  0.0021
  203MOL0     C27319   1.182   1.760  10.653 -0.7310 -0.3253  0.8862
  203MOL0     C27320   1.047   1.761  10.617 -0.5167  0.2414  0.6035
  203MOL0     N27321   0.532   1.622  10.043  0.6166  0.5789 -0.4116
  203MOL0     N27322   0.529   1.525   9.959  0.4461 -0.1723 -0.3701
  203MOL0     C27323   1.593   1.345  10.054  0.1565 -0.9801 -0.2073
  203MOL0     C27324   1.703   1.422  10.066  0.3456  0.6331 -0.2123
  203MOL0     C27325   2.148   1.565   9.946  0.0667  0.0326 -0.9973
  203MOL0     C27326   2.222   1.630   9.840  0.8091  0.0026 -0.1525
  203MOL0     C27327   2.349   1.686   9.871  0.5753 -0.5066 -0.5234
  203MOL0     C27328   2.391   1.708  10.013 -0.0796 -0.1616  0.7952
  203MOL0     O27329   2.516   1.755  10.040 -0.1406 -0.1546 -0.2062
  203MOL0     C27330   2.570   1.870   9.977 -0.3322  0.8665  1.1834
  203MOL0     C27331   2.599   1.985  10.072  0.2281  0.0081  0.7244
  203MOL0     C27332   2.704   2.082  10.017 -0.1330 -0.4136  0.5355
  203MOL0     C27333   2.810   2.118  10.123  0.2009  0.3227  0.3991
  203MOL0     C27334   2.928   2.185  10.075  0.2738  0.4709 -0.6405
  203MOL0     C27335   3.024   2.257  10.041 -0.0042 -0.8531  0.6392
  203MOL0     C27336   2.310   1.654  10.114  0.1512  0.3093 -0.2062
  203MOL0     C27337   2.195   1.581  10.078 -0.4229  0.4153  0.1114
  203MOL0     H27338   1.918   1.254   9.859  1.1070  1.4225  0.2928
  203MOL0     H27339   1.721   1.100   9.860  1.1073 -2.7982  2.6102
  203MOL0     H27340   1.339   1.297   9.976 -2.2058 -0.6859 -0.5556
  203MOL0     H27341   1.411   1.285   9.812  1.6155  0.4159 -0.0521
  203MOL0     H27342   1.284   1.076   9.791 -0.5826 -2.0867  1.8445
  203MOL0     H27343   1.229   1.074   9.953 -0.9828 -2.9895 -2.1804
  203MOL0     H27344   1.096   1.287   9.907  2.1296  2.3134 -1.7398
  203MOL0     H27345   1.140   1.284   9.747 -2.2034  2.3900  0.7091
  203MOL0     H27346   1.041   1.044   9.719  1.9116 -0.1314 -0.1700
  203MOL0     H27347   0.988   1.050   9.874 -0.5283 -2.4857 -2.3206
  203MOL0     H27348   0.908   1.257   9.651 -0.3736  1.3973  1.1149
  203MOL0     H27349   0.804   1.141   9.722 -0.3130  0.3527  0.0439
  203MOL0     H27350   0.900   1.362   9.915  0.1007  1.5303 -0.6822
  203MOL0     H27351   0.765   1.371   9.800 -0.0398 -1.1539 -0.4183
  203MOL0     H27352   0.752   1.131   9.979 -1.1188 -0.0210  1.3284
  203MOL0     H27353   0.789   1.281  10.063 -1.5712  2.0622 -0.1046
  203MOL0     H27354   0.540   1.205  10.037  2.7338 -1.7353 -0.0192
  203MOL0     H27355   0.546   1.251   9.873  1.2024 -0.6387  0.0406
  203MOL0     H27356   0.654   1.378  10.223 -0.1929  1.7321  2.0814
  203MOL0     H27357   0.533   1.741  10.291 -0.6259 -0.3025  2.4401
  203MOL0     H27358   0.578   1.587  10.375 -0.0444 -0.5962 -1.5922
  203MOL0     H27359   0.778   1.721  10.197 -1.6897  3.0706  0.1350
  203MOL0     H27360   0.810   1.591  10.308 -0.3781  0.3869  1.4348
  203MOL0     H27361   0.701   1.877  10.382 -2.7234 -2.3208 -1.5367
  203MOL0     H27362   0.874   1.832  10.382  1.4041 -0.6235 -1.1610
  203MOL0     H27363   0.664   1.691  10.555  0.7181 -1.4196  2.8383
  203MOL0     H27364   0.763   1.825  10.607 -0.1161  1.1244 -1.4701
  203MOL0     H27365   0.987   1.437  10.632 -1.1380  0.3561  0.2801
  203MOL0     H27366   1.334   1.367  10.705 -0.0255 -1.3654  1.7759
  203MOL0     H27367   1.208   1.366  10.829 -1.7305 -2.3586  0.3000
  203MOL0     H27368   1.179   1.308  10.655  0.8222  1.5636 -2.0203
  203MOL0     H27369   1.524   1.962  10.829  1.8925  2.1656  0.0605
  203MOL0     H27370   1.767   2.010  10.889 -0.9463  0.7765  0.4224
  203MOL0     H27371   1.995   2.054  10.883 -1.5233 -0.0072  1.8357
  203MOL0     H27372   1.941   1.930  10.991 -0.2709  0.8248  0.3598
  203MOL0     H27373   2.184   1.998  11.033 -0.5074 -0.0367 -0.6241
  203MOL0     H27374   2.169   1.828  10.990 -0.1242  1.1218  2.7996
  203MOL0     H27375   2.245   2.065  10.823 -1.3207  0.3046  1.6872
  203MOL0     H27376   2.226   1.903  10.757  0.6349 -1.2315  1.8678
  203MOL0     H27377   2.414   1.972  10.997  0.1605 -1.6708  0.5117
  203MOL0     H27378   2.416   1.825  10.904 -1.1368  0.2324  0.4302
  203MOL0     H27379   2.463   2.077  10.761  0.0308 -0.1191  0.6934
  203MOL0     H27380   2.468   1.911  10.704 -1.5403  1.0243 -1.3381
  203MOL0     H27381   2.679   1.889  10.846  1.3699  0.6963 -1.0965
  203MOL0     H27382   2.694   2.004  10.728  2.3187  0.1596  1.7070
  203MOL0     H27383   2.613   2.049  11.021 -0.9453  1.0736 -0.2185
  203MOL0     H27384   2.624   2.186  10.903  0.1857  0.6625  1.7785
  203MOL0     H27385   2.843   2.003  10.988 -2.1177 -1.1747 -1.2639
  203MOL0     H27386   2.826   2.179  11.026 -1.0451 -0.8951  0.9806
  203MOL0     H27387   1.887   1.699  10.625  1.5749  3.1333 -0.4078
  203MOL0     H27388   1.649   1.658  10.553 -2.4900 -0.3885  2.0021
  203MOL0     H27389   1.223   1.861  10.653 -2.4536  0.4144  1.2648
  203MOL0     H27390   0.999   1.846  10.571  0.5147  0.7283  0.3875
  203MOL0     H27391   1.506   1.377  10.111  2.3038  0.7016  2.3757
  203MOL0     H27392   1.698   1.513  10.126  1.3955  1.2633 -1.0446
  203MOL0     H27393   2.191   1.616   9.738  1.8017 -0.8362 -0.3576
  203MOL0     H27394   2.415   1.710   9.788 -0.8128  0.6540 -1.3487
  203MOL0     H27395   2.669   1.845   9.937 -1.8687 -1.3323 -1.5591
  203MOL0     H27396   2.508   1.906   9.895  0.5110 -0.6307 -0.1677
  203MOL0     H27397   2.636   1.942  10.166 -1.1574 -0.9775  0.8553
  203MOL0     H27398   2.505   2.033  10.102 -0.0684  0.1012 -0.3253
  203MOL0     H27399   2.671   2.169   9.960  0.3812  0.1925  1.1340
  203MOL0     H27400   2.762   2.021   9.948  2.7435  0.1081  2.3267
  203MOL0     H27401   2.855   2.024  10.155  0.1456  0.4529  0.8668
  203MOL0     H27402   2.763   2.166  10.209  3.6711  2.1059  1.4903
  203MOL0     H27403   3.095   2.324   9.996 -2.2028  1.5792  0.5609
  203MOL0     H27404   2.350   1.661  10.215  0.7987  1.3522 -0.5092
  203MOL0     H27405   2.130   1.535  10.151 -1.1390  0.6066 -0.3928
  204MOL0     O27406   9.496   9.629  11.136  0.0705  0.3245 -0.1258
  204MOL0     C27407   9.574   9.723  11.129  0.3374 -0.6188 -0.1699
  204MOL0     O27408   9.563   9.843  11.199  0.0823 -0.4786 -0.1061
  204MOL0     C27409   9.463   9.859  11.291  0.1801  0.8509  0.6534
  204MOL0     C27410   9.442   9.777  11.395  0.7369 -0.1183  0.1352
  204MOL0     C27411   9.340   9.801  11.488  0.1688 -0.4922 -0.3848
  204MOL0     C27412   9.265   9.919  11.483 -0.1671 -0.3538  0.3394
  204MOL0     O27413   9.177   9.947  11.580  1.3724  0.0837 -0.5348
  204MOL0     C27414   9.065  10.040  11.547 -1.1555  0.2255 -0.3039
  204MOL0     C27415   8.984  10.073  11.666 -0.1314 -0.4721 -0.3815
  204MOL0     C27416   8.908   9.945  11.718 -0.0291  0.1658  0.6709
  204MOL0     C27417   8.774   9.992  11.796 -1.7620  0.2000 -0.1013
  204MOL0     C27418   8.688   9.882  11.846 -0.5753  0.9381 -0.4573
  204MOL0     C27419   8.561   9.920  11.918 -0.4978  0.4358 -0.0265
  204MOL0     C27420   8.476   9.792  11.938 -0.3276 -0.1760  0.1276
  204MOL0     C27421   8.389   9.796  12.059  0.0566 -0.2008  0.4862
  204MOL0     N27422   8.291   9.900  12.055  0.3729 -0.5958  0.5803
  204MOL0     C27423   8.204   9.929  11.948 -0.5488 -0.0574  0.2526
  204MOL0     C27424   8.127  10.034  11.991 -0.3229 -0.6100 -0.2308
  204MOL0     C27425   8.039  10.113  11.909  0.9412  0.1235 -0.4929
  204MOL0     C27426   7.895  10.105  11.972  0.2694 -0.2479  0.5348
  204MOL0     C27427   7.792  10.185  11.890  0.3527 -0.0379  0.1625
  204MOL0     C27428   7.651  10.192  11.958  0.1358 -0.4532  0.0534
  204MOL0     O27429   7.577  10.289  11.890  0.6194  0.3848 -0.4247
  204MOL0     C27430   7.440  10.292  11.911 -0.2169  0.0647  0.1801
  204MOL0     C27431   7.375  10.350  12.020  0.5046 -0.2113 -0.4319
  204MOL0     C27432   7.228  10.351  12.034  0.1083  0.5947  0.2564
  204MOL0     C27433   7.171  10.430  12.153  0.3462 -0.4484  0.6428
  204MOL0     C27434   7.147  10.294  11.932  0.1306  0.5047 -0.4926
  204MOL0     C27435   7.000  10.290  11.937  0.6158  0.6233 -0.4662
  204MOL0     O27436   6.940  10.240  11.827  0.4973 -0.1032 -0.1949
  204MOL0     C27437   6.798  10.217  11.817  0.0312 -0.7208  0.3376
  204MOL0     C27438   6.733  10.216  11.693  0.6256  0.3852  0.3649
  204MOL0     C27439   6.596  10.208  11.681  0.3061  0.5790 -0.5306
  204MOL0     C27440   6.519  10.190  11.792  0.4943  0.5957 -0.3878
  204MOL0     O27441   6.381  10.188  11.797 -0.2726  0.2260  0.8025
  204MOL0     C27442   6.306  10.174  11.670 -0.9556 -0.5146 -0.5043
  204MOL0     C27443   6.160  10.177  11.696  0.4375 -0.3154 -0.2964
  204MOL0     C27444   6.110  10.043  11.734  0.6660 -0.8456 -0.0803
  204MOL0     C27445   5.965  10.049  11.713 -0.3703 -0.2164 -0.0159
  204MOL0     C27446   5.908   9.925  11.793  0.6338 -0.4148 -0.1105
  204MOL0     C27447   5.754   9.903  11.779  0.5509  0.4617 -0.1514
  204MOL0     C27448   5.703   9.886  11.634 -0.4333 -0.1257  0.2550
  204MOL0     C27449   5.587   9.786  11.622  0.2089 -0.1684 -0.5923
  204MOL0    Cl27450   5.643   9.618  11.618 -0.1637 -0.1788 -0.1561
  204MOL0     C27451   6.578  10.177  11.914 -0.4452  0.3537 -0.4046
  204MOL0     C27452   6.718  10.192  11.934 -0.0908  0.4857  0.2919
  204MOL0     O27453   6.944  10.335  12.038 -0.0462 -0.2846  0.2204
  204MOL0     C27454   7.216  10.241  11.827  0.2334  0.8865  0.1067
  204MOL0     C27455   7.359  10.239  11.815  0.0853  0.2614 -0.7553
  204MOL0     N27456   8.181  10.070  12.115  0.3858 -0.1942 -0.3815
  204MOL0     N27457   8.271   9.993  12.158  0.1166  0.5357  0.5566
  204MOL0     C27458   9.286  10.004  11.377  0.4948  0.1469 -0.5759
  204MOL0     C27459   9.385   9.972  11.285  0.4128 -0.9801 -0.3150
  204MOL0     C27460   9.690   9.706  11.043 -0.0668 -0.2250  0.3380
  204MOL0     C27461   9.715   9.587  10.975 -0.9526 -0.0890  0.5670
  204MOL0     C27462   9.833   9.566  10.902  0.3314 -0.4483 -0.3557
  204MOL0     C27463   9.931   9.663  10.903  0.3318  0.1694 -0.0207
  204MOL0     O27464  10.039   9.634  10.824 -0.2474 -0.2453  0.3720
  204MOL0     C27465  10.157   9.703  10.847  0.6582  0.1004 -0.3865
  204MOL0     C27466  10.287   9.623  10.814  0.5778 -0.5602  0.1558
  204MOL0     C27467  10.280   9.475  10.870 -0.2811  0.3774  0.2379
  204MOL0     C27468  10.299   9.466  11.018  0.2447  0.0625 -0.0653
  204MOL0     C27469  10.323   9.326  11.051 -0.8006 -0.2837  0.4611
  204MOL0     C27470  10.347   9.208  11.056  0.3737  0.3192  0.1198
  204MOL0     C27471   9.912   9.788  10.970 -0.6952  1.2657  0.0194
  204MOL0     C27472   9.786   9.801  11.033 -0.2885 -0.6078 -0.8727
  204MOL0     H27473   9.509   9.692  11.396  0.9067 -0.0320 -1.2028
  204MOL0     H27474   9.328   9.735  11.573 -0.4294 -1.3824 -1.1443
  204MOL0     H27475   9.110  10.138  11.529 -0.6367  0.0517  0.0337
  204MOL0     H27476   9.006  10.018  11.457  1.0744  2.9303 -2.6049
  204MOL0     H27477   9.036  10.130  11.743 -2.6010  1.2846  0.1060
  204MOL0     H27478   8.914  10.149  11.630  1.4837  1.7003  0.8527
  204MOL0     H27479   8.880   9.882  11.633  3.5742 -2.2154  1.0150
  204MOL0     H27480   8.965   9.875  11.781 -0.7572 -0.7052  0.3888
  204MOL0     H27481   8.809  10.047  11.883 -3.1215 -2.3198  2.1990
  204MOL0     H27482   8.715  10.060  11.734 -0.3959 -0.6910 -2.5121
  204MOL0     H27483   8.656   9.826  11.757  0.9429 -0.4075 -0.1879
  204MOL0     H27484   8.758   9.816  11.897  0.2702  1.5407 -0.8122
  204MOL0     H27485   8.600   9.974  12.004  2.1960  1.0658 -1.5083
  204MOL0     H27486   8.504   9.985  11.852  0.5348  1.2030 -0.1919
  204MOL0     H27487   8.424   9.760  11.847 -0.0097  1.2832 -0.6035
  204MOL0     H27488   8.560   9.723  11.950  3.8356  4.7830  3.2327
  204MOL0     H27489   8.453   9.803  12.148  2.5476 -0.9437 -1.1667
  204MOL0     H27490   8.329   9.705  12.066 -0.6096  0.2450  0.7274
  204MOL0     H27491   8.194   9.885  11.850 -1.2213  0.5875  0.0204
  204MOL0     H27492   8.078  10.215  11.910  3.0473 -0.6334 -0.4925
  204MOL0     H27493   8.033  10.062  11.813  3.0280 -1.9103  0.3472
  204MOL0     H27494   7.907  10.147  12.072 -0.7986 -1.8813  1.3915
  204MOL0     H27495   7.859  10.003  11.987 -1.3631  0.1106 -0.5928
  204MOL0     H27496   7.774  10.138  11.793 -2.2054  1.2903 -0.0989
  204MOL0     H27497   7.842  10.280  11.865  1.2411 -0.7081 -0.6758
  204MOL0     H27498   7.661  10.217  12.064 -1.6047  2.0382 -0.3135
  204MOL0     H27499   7.605  10.092  11.958 -1.4172  0.2340 -0.2795
  204MOL0     H27500   7.440  10.401  12.090 -0.0680 -1.8814  1.4118
  204MOL0     H27501   7.123  10.366  12.228 -0.2554  1.5175  2.0120
  204MOL0     H27502   7.251  10.481  12.206 -1.7780  1.8758  1.8045
  204MOL0     H27503   7.097  10.507  12.129 -1.7809 -1.8331  2.3555
  204MOL0     H27504   6.788  10.229  11.601  0.8226  0.9507  0.5580
  204MOL0     H27505   6.549  10.195  11.584 -4.7779  1.6419  1.5228
  204MOL0     H27506   6.323  10.264  11.610  1.4087 -0.5753 -0.0095
  204MOL0     H27507   6.342  10.089  11.611  0.1670  1.9258 -3.6390
  204MOL0     H27508   6.137  10.253  11.772  0.2740 -0.7627  0.1044
  204MOL0     H27509   6.114  10.204  11.600 -2.3352 -2.3709  0.3057
  204MOL0     H27510   6.136  10.029  11.839 -0.4106  3.0531  0.8659
  204MOL0     H27511   6.151   9.970  11.663  0.9999  0.2964 -1.0992
  204MOL0     H27512   5.928  10.141  11.760 -0.8851 -0.7723  0.6654
  204MOL0     H27513   5.943  10.052  11.605 -0.1255 -1.5836 -0.1111
  204MOL0     H27514   5.922   9.940  11.900  0.7159 -1.3653  0.0240
  204MOL0     H27515   5.963   9.832  11.772 -0.0395 -0.9569  0.4878
  204MOL0     H27516   5.727   9.815  11.838  0.1730  0.8711  0.3029
  204MOL0     H27517   5.698   9.990  11.816 -0.7322 -0.1242 -0.6778
  204MOL0     H27518   5.777   9.863  11.556 -1.5562  1.2673 -1.3041
  204MOL0     H27519   5.664   9.987  11.619 -2.8807 -0.4879  3.2077
  204MOL0     H27520   5.530   9.824  11.537  1.7796 -0.0599 -1.6346
  204MOL0     H27521   5.520   9.793  11.708 -1.0860 -2.9740 -1.2767
  204MOL0     H27522   6.514  10.171  12.002 -0.2095  1.5648 -0.1414
  204MOL0     H27523   6.752  10.165  12.034 -0.9309 -1.0100  0.2107
  204MOL0     H27524   7.152  10.205  11.747 -0.7199 -1.4406  1.8054
  204MOL0     H27525   7.406  10.197  11.727  1.3655  0.4478 -0.1808
  204MOL0     H27526   9.239  10.102  11.370  0.3452  0.2716  1.5406
  204MOL0     H27527   9.405  10.049  11.212 -2.4021  0.9006  0.7102
  204MOL0     H27528   9.645   9.505  10.975  0.2655 -1.1701  1.5207
  204MOL0     H27529   9.838   9.473  10.846 -0.1454 -0.1286 -0.9428
  204MOL0     H27530  10.151   9.796  10.791 -0.9539  1.4375  1.8511
  204MOL0     H27531  10.170   9.721  10.954 -0.0906  2.3427 -0.6314
  204MOL0     H27532  10.372   9.677  10.856  0.3586 -1.0379  1.2543
  204MOL0     H27533  10.297   9.631  10.706  0.4693 -0.3492  0.1604
  204MOL0     H27534  10.359   9.414  10.824 -0.7913  0.0265 -0.1953
  204MOL0     H27535  10.184   9.435  10.836 -1.0150  0.1107  2.5227
  204MOL0     H27536  10.214   9.506  11.075  1.2991  1.3458  0.6490
  204MOL0     H27537  10.386   9.523  11.052 -0.0762 -0.0057  0.8916
  204MOL0     H27538  10.379   9.108  11.078 -0.5408  0.3593  1.7798
  204MOL0     H27539   9.991   9.862  10.973  3.6018 -2.8150 -0.7925
  204MOL0     H27540   9.773   9.891  11.093 -1.6563 -0.8741 -0.7238
  205MOL0     O27541   0.732   0.169   4.005 -0.2868 -0.3353 -0.7111
  205MOL0     C27542   0.780   0.066   3.953  1.1333  0.4471  0.2680
  205MOL0     O27543   0.702  -0.037   3.903  0.0132 -0.1301 -0.2954
  205MOL0     C27544   0.571  -0.008   3.896  0.2769 -0.8823 -0.7583
  205MOL0     C27545   0.511   0.012   3.772  0.0721  0.4718 -0.5563
  205MOL0     C27546   0.376   0.014   3.755 -0.4445  0.4883 -0.1722
  205MOL0     C27547   0.291   0.015   3.865  0.1826  1.1261 -1.1619
  205MOL0     O27548   0.159   0.021   3.844 -0.2282 -0.3745  0.5779
  205MOL0     C27549   0.084  -0.091   3.883  0.3784 -1.4405  0.6167
  205MOL0     C27550   0.086  -0.196   3.771 -0.2419  0.2448  0.0547
  205MOL0     C27551  -0.000  -0.314   3.806  0.3637  0.5350 -0.0344
  205MOL0     C27552   0.052  -0.405   3.921 -0.4188  0.1524  0.3551
  205MOL0     C27553  -0.010  -0.554   3.928  0.0427 -1.4132  0.1062
  205MOL0     C27554  -0.146  -0.551   3.996 -0.3211 -0.3134 -0.8176
  205MOL0     C27555  -0.189  -0.686   4.043 -0.6389  0.2060 -1.0254
  205MOL0     C27556  -0.334  -0.703   4.075 -0.8726  0.3325 -0.1928
  205MOL0     N27557  -0.381  -0.636   4.202  0.5879  0.2596  0.1016
  205MOL0     C27558  -0.408  -0.694   4.322 -0.2846  1.0131  0.4083
  205MOL0     C27559  -0.466  -0.594   4.392  0.4217 -0.9474 -0.2122
  205MOL0     C27560  -0.518  -0.590   4.535 -0.1147  0.2814  0.0256
  205MOL0     C27561  -0.661  -0.635   4.535 -0.6746 -0.7632  0.6449
  205MOL0     C27562  -0.710  -0.606   4.687  0.1056 -0.5782  0.8982
  205MOL0     C27563  -0.868  -0.610   4.690 -0.4481  0.6507 -1.1481
  205MOL0     O27564  -0.904  -0.566   4.823 -0.2013  0.1016  0.3370
  205MOL0     C27565  -1.032  -0.566   4.862 -0.3855  0.1204  0.2388
  205MOL0     C27566  -1.139  -0.627   4.795 -0.0287 -0.0863 -0.2882
  205MOL0     C27567  -1.265  -0.609   4.854  0.2059  0.7103  0.6822
  205MOL0     C27568  -1.377  -0.686   4.772  0.6409  0.2937 -0.2757
  205MOL0     C27569  -1.288  -0.530   4.971 -0.3262  0.2880  0.0379
  205MOL0     C27570  -1.414  -0.514   5.033 -0.1747  0.2368 -0.1199
  205MOL0     O27571  -1.525  -0.562   4.968  0.1809  0.0256 -0.3435
  205MOL0     C27572  -1.656  -0.559   5.002  1.0479  0.3117 -0.0261
  205MOL0     C27573  -1.715  -0.500   5.118 -0.3817 -0.1370 -0.3288
  205MOL0     C27574  -1.853  -0.500   5.137 -0.5000 -0.1630  0.0774
  205MOL0     C27575  -1.943  -0.542   5.046  0.5781  0.5871  0.0353
  205MOL0     O27576  -2.077  -0.528   5.065  0.1345  0.0459 -0.3644
  205MOL0     C27577  -2.171  -0.538   4.961 -0.3357 -0.2971 -0.6207
  205MOL0     C27578  -2.296  -0.466   5.017 -0.3722 -0.6389 -0.5586
  205MOL0     C27579  -2.360  -0.549   5.130 -0.4519 -0.6757 -0.0022
  205MOL0     C27580  -2.497  -0.480   5.158 -0.2503  0.9292 -0.4983
  205MOL0     C27581  -2.558  -0.497   5.294  0.1833  0.2838 -0.6389
  205MOL0     C27582  -2.700  -0.429   5.291 -0.4362  0.4031 -0.2230
  205MOL0     C27583  -2.763  -0.418   5.436 -0.7848  0.2994  0.1062
  205MOL0     C27584  -2.907  -0.374   5.426  0.4147  0.7552  0.0089
  205MOL0    Cl27585  -3.025  -0.496   5.363  0.5305  0.1810  0.0118
  205MOL0     C27586  -1.892  -0.607   4.937 -0.5930  0.8089 -0.4672
  205MOL0     C27587  -1.753  -0.613   4.909  0.1275  0.2174 -0.5696
  205MOL0     O27588  -1.421  -0.431   5.126  0.7081 -0.0982  0.3005
  205MOL0     C27589  -1.173  -0.468   5.026  0.1882 -0.7367 -1.2598
  205MOL0     C27590  -1.050  -0.495   4.976 -0.2576  0.7026  0.0565
  205MOL0     N27591  -0.483  -0.480   4.305 -0.9195 -0.7849 -0.4132
  205MOL0     N27592  -0.418  -0.502   4.204  0.0015  0.2314 -0.3543
  205MOL0     C27593   0.343   0.008   3.997  0.7719  0.3954  1.2086
  205MOL0     C27594   0.488   0.001   4.012 -0.5599  0.7108 -0.0872
  205MOL0     C27595   0.924   0.052   3.943 -0.0381 -0.5097  0.1525
  205MOL0     C27596   1.010   0.122   4.028  1.1651  1.1416 -0.1151
  205MOL0     C27597   1.142   0.097   4.027 -0.9405 -0.2548  0.1482
  205MOL0     C27598   1.211   0.009   3.933  0.5233  0.2462 -0.3746
  205MOL0     O27599   1.344  -0.014   3.931  0.3513 -0.9540 -0.3662
  205MOL0     C27600   1.409  -0.035   4.055  0.6803 -0.5765 -0.0984
  205MOL0     C27601   1.554  -0.079   4.034 -0.2420  0.0226  0.1444
  205MOL0     C27602   1.566  -0.222   4.011  0.2020  0.4296 -0.6490
  205MOL0     C27603   1.556  -0.315   4.130 -0.3783 -1.4870  0.1323
  205MOL0     C27604   1.671  -0.294   4.219  0.0592  0.7525 -0.2910
  205MOL0     C27605   1.769  -0.273   4.294  0.1475 -0.6139 -0.6968
  205MOL0     C27606   1.130  -0.049   3.837 -0.4791  0.2540 -0.3357
  205MOL0     C27607   0.990  -0.029   3.845  0.7094 -0.4487 -0.3556
  205MOL0     H27608   0.582   0.019   3.691 -0.7038  2.5147 -1.1029
  205MOL0     H27609   0.340   0.017   3.653  3.3326 -2.8302 -1.8354
  205MOL0     H27610   0.129  -0.134   3.972  3.9812 -2.2442 -1.4086
  205MOL0     H27611  -0.022  -0.068   3.901  0.2139 -1.9800  0.3699
  205MOL0     H27612   0.049  -0.151   3.678 -1.7211 -1.5995 -0.3064
  205MOL0     H27613   0.187  -0.235   3.753 -1.0077 -1.9554  0.2716
  205MOL0     H27614  -0.104  -0.291   3.834 -0.7720 -2.3241 -1.4648
  205MOL0     H27615   0.000  -0.364   3.709  2.2442  0.1678  0.1308
  205MOL0     H27616   0.160  -0.419   3.913 -0.7590 -1.9529 -1.3382
  205MOL0     H27617   0.037  -0.355   4.017 -0.8166  0.4977  0.1172
  205MOL0     H27618  -0.017  -0.589   3.825 -0.6257  0.1347 -0.4050
  205MOL0     H27619   0.048  -0.621   3.992  1.2799  0.7971  1.4208
  205MOL0     H27620  -0.141  -0.487   4.084 -2.3571 -0.0254 -0.8635
  205MOL0     H27621  -0.223  -0.498   3.939 -0.9810  2.6302  2.4929
  205MOL0     H27622  -0.159  -0.755   3.963 -2.5568 -0.6057 -1.0875
  205MOL0     H27623  -0.125  -0.718   4.126  0.9475  0.6192 -2.0445
  205MOL0     H27624  -0.347  -0.811   4.087  1.5357  0.1130  0.8677
  205MOL0     H27625  -0.404  -0.664   4.000 -0.6179  1.2892  0.0509
  205MOL0     H27626  -0.394  -0.797   4.356  2.1396 -0.3030 -3.8257
  205MOL0     H27627  -0.460  -0.654   4.602 -0.2249 -0.0620 -0.2080
  205MOL0     H27628  -0.508  -0.487   4.571  0.6025 -0.6294  2.6978
  205MOL0     H27629  -0.672  -0.738   4.499  2.2739 -0.0411 -2.8611
  205MOL0     H27630  -0.722  -0.572   4.470 -0.6407  0.8662  2.1140
  205MOL0     H27631  -0.680  -0.503   4.709  1.4581 -1.2305  2.3646
  205MOL0     H27632  -0.669  -0.669   4.767  2.1576 -0.1665  0.2252
  205MOL0     H27633  -0.878  -0.719   4.682 -0.6678  0.7060 -1.6280
  205MOL0     H27634  -0.918  -0.563   4.606 -4.9285 -0.9796  0.3302
  205MOL0     H27635  -1.121  -0.660   4.693 -1.9937  1.7097 -1.2734
  205MOL0     H27636  -1.334  -0.750   4.695 -0.0532 -3.3676  2.1083
  205MOL0     H27637  -1.442  -0.747   4.836 -0.5297 -1.5024 -2.9762
  205MOL0     H27638  -1.445  -0.612   4.730  0.4208  1.2177  1.6109
  205MOL0     H27639  -1.655  -0.460   5.198 -2.5727  3.3424 -0.2208
  205MOL0     H27640  -1.892  -0.447   5.223 -0.0839  0.0169  0.1560
  205MOL0     H27641  -2.136  -0.478   4.876 -0.6110  0.7013 -0.0422
  205MOL0     H27642  -2.180  -0.642   4.930 -0.7675 -0.4962  0.1518
  205MOL0     H27643  -2.277  -0.365   5.054  0.0896 -1.1357  0.5975
  205MOL0     H27644  -2.373  -0.466   4.939 -0.3372 -0.8449 -0.5951
  205MOL0     H27645  -2.299  -0.550   5.221 -1.5779  0.7193  0.7906
  205MOL0     H27646  -2.378  -0.654   5.105  2.3825 -1.5703  1.2017
  205MOL0     H27647  -2.471  -0.374   5.153 -1.8429  1.3237 -0.8831
  205MOL0     H27648  -2.552  -0.501   5.066  1.7577 -0.6174 -1.4263
  205MOL0     H27649  -2.502  -0.455   5.379 -2.0661 -1.5462  1.9087
  205MOL0     H27650  -2.578  -0.600   5.322 -0.5870  0.0557 -1.9464
  205MOL0     H27651  -2.679  -0.328   5.255  1.4977  0.1787  0.1647
  205MOL0     H27652  -2.772  -0.470   5.220  0.2287 -2.4367  0.6214
  205MOL0     H27653  -2.705  -0.337   5.482 -0.1036 -0.2151  0.1588
  205MOL0     H27654  -2.754  -0.510   5.494 -0.7542 -0.6202 -1.3206
  205MOL0     H27655  -2.926  -0.287   5.363 -3.5884  2.3077  2.9591
  205MOL0     H27656  -2.935  -0.346   5.528 -2.9707 -0.0923 -0.5596
  205MOL0     H27657  -1.960  -0.645   4.862 -1.3748  2.7479 -0.8164
  205MOL0     H27658  -1.706  -0.642   4.816  0.2928  2.7875 -1.3667
  205MOL0     H27659  -1.190  -0.405   5.113 -3.9930  0.0454 -2.4299
  205MOL0     H27660  -0.963  -0.452   5.025  0.0785 -0.0137  0.0890
  205MOL0     H27661   0.273   0.016   4.079 -0.9652 -2.1309  0.0778
  205MOL0     H27662   0.526  -0.002   4.113  2.0082 -0.6083 -1.0075
  205MOL0     H27663   0.961   0.185   4.103 -0.0517  0.0015  0.0956
  205MOL0     H27664   1.196   0.168   4.089  0.5581  0.4167 -1.8347
  205MOL0     H27665   1.415   0.059   4.111  1.3290 -1.3339  1.1707
  205MOL0     H27666   1.352  -0.108   4.113  0.7532  0.2744  1.0828
  205MOL0     H27667   1.603  -0.052   4.128 -2.6383  1.8275  0.9877
  205MOL0     H27668   1.588  -0.026   3.945  0.1709 -1.4059 -0.5755
  205MOL0     H27669   1.659  -0.245   3.958 -0.8590 -1.9722 -1.5854
  205MOL0     H27670   1.487  -0.243   3.938  2.4564  1.2401 -3.5604
  205MOL0     H27671   1.540  -0.416   4.091  0.1004 -1.0313 -1.3041
  205MOL0     H27672   1.466  -0.291   4.187 -0.5057 -0.9412 -0.2895
  205MOL0     H27673   1.854  -0.258   4.358 -0.3006 -0.9912  0.0026
  205MOL0     H27674   1.168  -0.100   3.748  0.7602  0.8832 -0.1899
  205MOL0     H27675   0.920  -0.080   3.780  0.5285  0.4521 -0.8804
  206MOL0     O27676   9.755   6.281   3.441  0.0746 -0.2526 -0.2854
  206MOL0     C27677   9.754   6.207   3.340 -0.1224 -0.5650 -0.3349
  206MOL0     O27678   9.641   6.166   3.261  0.1519  0.7902  0.1620
  206MOL0     C27679   9.519   6.214   3.303 -0.5421  0.1956 -0.1655
  206MOL0     C27680   9.411   6.136   3.351 -0.2366  0.0928 -0.0317
  206MOL0     C27681   9.282   6.190   3.389  0.3038 -0.0014 -0.3206
  206MOL0     C27682   9.270   6.332   3.386 -0.0663 -0.2665  0.7562
  206MOL0     O27683   9.147   6.381   3.421  0.3013  0.2420 -0.2388
  206MOL0     C27684   9.123   6.519   3.434 -0.3440  0.6220  0.3197
  206MOL0     C27685   8.980   6.555   3.490  1.4720  0.6500  0.0712
  206MOL0     C27686   8.868   6.497   3.411  0.0507  0.2098  0.1601
  206MOL0     C27687   8.728   6.528   3.464 -0.0409  0.4938 -0.3680
  206MOL0     C27688   8.629   6.470   3.368 -0.5524 -1.3062  0.9731
  206MOL0     C27689   8.480   6.516   3.381  0.2361 -0.2439 -0.3209
  206MOL0     C27690   8.414   6.412   3.461  0.5897 -0.2915 -0.4285
  206MOL0     C27691   8.274   6.445   3.522  0.1279  0.4141  0.4063
  206MOL0     N27692   8.174   6.464   3.413 -0.5159  0.2389 -0.2388
  206MOL0     C27693   8.044   6.491   3.446 -0.3295 -0.7539  0.2650
  206MOL0     C27694   7.977   6.477   3.327  0.2206 -0.3528  1.1332
  206MOL0     C27695   7.840   6.510   3.286 -0.1432  0.4690  0.5211
  206MOL0     C27696   7.744   6.540   3.399  0.2579  0.7064  0.1065
  206MOL0     C27697   7.653   6.422   3.438 -0.3848 -0.0216 -0.2613
  206MOL0     C27698   7.718   6.297   3.489 -0.1475  1.1770  0.1695
  206MOL0     O27699   7.650   6.175   3.463  0.4675 -0.3967 -0.1523
  206MOL0     C27700   7.525   6.163   3.528 -0.0336  0.0717  0.9537
  206MOL0     C27701   7.512   6.097   3.655  0.8283  0.0409 -0.1984
  206MOL0     C27702   7.388   6.077   3.721  0.3046 -0.5327  0.3949
  206MOL0     C27703   7.371   5.983   3.845 -0.2333 -0.2406 -0.4277
  206MOL0     C27704   7.270   6.135   3.660 -0.2776  0.9953  0.2817
  206MOL0     C27705   7.135   6.142   3.724 -0.2175  0.4052  0.6800
  206MOL0     O27706   7.120   6.124   3.854 -0.3331 -0.1334  0.4783
  206MOL0     C27707   6.996   6.145   3.907 -0.9011 -0.2788  1.0594
  206MOL0     C27708   6.879   6.096   3.859 -0.5235 -0.4725  0.4250
  206MOL0     C27709   6.761   6.109   3.930  0.0789  0.3363  0.0461
  206MOL0     C27710   6.756   6.180   4.050 -0.2963 -0.5028 -0.1219
  206MOL0     O27711   6.634   6.211   4.109  0.0105 -0.0201 -0.2410
  206MOL0     C27712   6.540   6.106   4.125  0.1574  0.7548  0.1825
  206MOL0     C27713   6.426   6.149   4.222 -0.3171 -0.4529  0.2650
  206MOL0     C27714   6.335   6.030   4.268 -0.3770 -0.0847  0.0015
  206MOL0     C27715   6.220   6.071   4.353 -0.3180  0.1051 -0.9519
  206MOL0     C27716   6.146   5.941   4.397 -0.7015  0.4763  0.0320
  206MOL0     C27717   6.013   5.978   4.469 -0.1042 -0.7024  0.2531
  206MOL0     C27718   5.940   5.854   4.509  0.1547 -0.7569  0.8794
  206MOL0     C27719   5.801   5.884   4.565  0.3271  0.9018  0.3162
  206MOL0    Cl27720   5.681   5.865   4.436 -0.3417 -0.1090 -0.0071
  206MOL0     C27721   6.879   6.230   4.102 -0.6197 -0.0854 -0.9381
  206MOL0     C27722   6.998   6.216   4.025 -0.0001  0.3854  0.1483
  206MOL0     O27723   7.051   6.187   3.647 -0.3657 -0.0118 -0.0819
  206MOL0     C27724   7.287   6.197   3.536 -0.2106 -0.3631 -0.1614
  206MOL0     C27725   7.409   6.211   3.467  0.6652  0.7654  0.1500
  206MOL0     N27726   8.070   6.434   3.227 -0.3387 -0.6517 -0.2219
  206MOL0     N27727   8.179   6.414   3.286  0.6291  0.5661 -0.2467
  206MOL0     C27728   9.376   6.414   3.339 -0.2201  0.7911 -0.6655
  206MOL0     C27729   9.498   6.348   3.303 -0.0072 -0.1236  0.4888
  206MOL0     C27730   9.882   6.163   3.311  0.5938 -0.1340  0.8243
  206MOL0     C27731   9.896   6.047   3.235 -0.8118 -0.8997 -1.5973
  206MOL0     C27732  10.023   5.990   3.211 -0.2502  0.2016 -0.0186
  206MOL0     C27733  10.142   6.062   3.253 -0.0395 -0.2340  0.3358
  206MOL0     O27734  10.267   6.001   3.238 -0.3415 -0.8944 -0.4992
  206MOL0     C27735  10.387   6.082   3.231  1.1032  0.6529 -1.3839
  206MOL0     C27736  10.485   5.989   3.159 -0.3566  1.2085  0.5835
  206MOL0     C27737  10.633   6.041   3.166 -0.4020  0.9197 -0.3256
  206MOL0     C27738  10.725   5.940   3.088  0.4624 -0.3515  1.2521
  206MOL0     C27739  10.855   5.995   3.046  0.7881 -0.2641  0.3191
  206MOL0     C27740  10.958   6.055   3.032 -0.1441  0.9625 -0.3311
  206MOL0     C27741  10.131   6.173   3.335  0.9671 -0.0601  0.6134
  206MOL0     C27742   9.998   6.219   3.359  0.2798  0.2457 -1.0823
  206MOL0     H27743   9.413   6.028   3.362  0.7474 -0.1889 -2.3633
  206MOL0     H27744   9.204   6.129   3.434 -0.2443  0.9358  0.0162
  206MOL0     H27745   9.195   6.562   3.504 -0.0693 -0.0360  0.4425
  206MOL0     H27746   9.137   6.567   3.336  2.0453  3.9602  2.0886
  206MOL0     H27747   8.973   6.511   3.590  1.5121  0.5824  0.0442
  206MOL0     H27748   8.963   6.662   3.504  0.6584  0.6575 -0.8337
  206MOL0     H27749   8.875   6.546   3.313 -2.3915  0.3129 -0.0423
  206MOL0     H27750   8.889   6.389   3.413  2.3746  0.5677 -1.5459
  206MOL0     H27751   8.716   6.482   3.562 -0.4384 -0.8298 -1.0196
  206MOL0     H27752   8.709   6.635   3.476  1.2145  0.8892 -1.6491
  206MOL0     H27753   8.660   6.506   3.269 -0.0216 -2.4436  0.7065
  206MOL0     H27754   8.640   6.361   3.366  2.5985 -1.1010 -1.8680
  206MOL0     H27755   8.478   6.606   3.443 -1.1445 -0.6288  0.2251
  206MOL0     H27756   8.426   6.527   3.287 -1.5350  0.7401  0.7554
  206MOL0     H27757   8.390   6.326   3.399  0.5750 -2.8933  2.8985
  206MOL0     H27758   8.476   6.383   3.546  1.5838  0.0323 -1.0194
  206MOL0     H27759   8.268   6.535   3.585 -0.9655  0.7014 -0.0792
  206MOL0     H27760   8.229   6.364   3.580 -1.6544  1.9370  1.2924
  206MOL0     H27761   7.999   6.530   3.538  1.9520 -0.8485  1.4897
  206MOL0     H27762   7.859   6.581   3.205  0.1337 -2.6953 -2.4668
  206MOL0     H27763   7.807   6.426   3.224  1.7983 -0.1460  0.2306
  206MOL0     H27764   7.685   6.631   3.386  0.5790  1.3604  2.6826
  206MOL0     H27765   7.799   6.572   3.488  1.4581  3.3952 -1.4741
  206MOL0     H27766   7.580   6.412   3.356  1.1274 -0.1292 -1.6422
  206MOL0     H27767   7.586   6.444   3.522  0.5247 -3.1859  1.4387
  206MOL0     H27768   7.751   6.309   3.593 -1.3428  2.2946  0.4518
  206MOL0     H27769   7.807   6.287   3.426 -2.1506 -1.5417 -2.5511
  206MOL0     H27770   7.596   6.048   3.703  0.6245 -0.3692 -0.2484
  206MOL0     H27771   7.284   5.918   3.834 -0.6697 -0.0732  1.6815
  206MOL0     H27772   7.460   5.921   3.857  0.5252  1.2777  2.8671
  206MOL0     H27773   7.357   6.037   3.939 -1.7615 -0.8198 -0.2994
  206MOL0     H27774   6.873   6.036   3.768 -2.6802 -4.0982  2.7505
  206MOL0     H27775   6.676   6.068   3.875 -2.1238  3.4054  0.9049
  206MOL0     H27776   6.499   6.066   4.032  0.2713 -0.1150  0.4930
  206MOL0     H27777   6.594   6.023   4.171 -0.6767  1.9373  3.6363
  206MOL0     H27778   6.476   6.192   4.309 -1.1788  2.3054 -0.5156
  206MOL0     H27779   6.369   6.226   4.169  1.5280  0.0718 -1.0456
  206MOL0     H27780   6.391   5.965   4.335 -0.3209  1.5610  1.6722
  206MOL0     H27781   6.305   5.973   4.181  0.9744 -0.7622 -0.0388
  206MOL0     H27782   6.252   6.130   4.439 -0.4121 -2.5896  1.0389
  206MOL0     H27783   6.141   6.120   4.296 -0.4866 -0.2527 -1.0310
  206MOL0     H27784   6.210   5.878   4.459  3.3046  2.1201 -2.1173
  206MOL0     H27785   6.127   5.885   4.305  1.0515  2.2625 -1.5066
  206MOL0     H27786   6.031   6.042   4.555  3.4942 -1.3701  0.1744
  206MOL0     H27787   5.952   6.027   4.392  1.3411  0.5892 -0.1343
  206MOL0     H27788   5.992   5.829   4.601  3.1552  0.0415 -0.4855
  206MOL0     H27789   5.948   5.766   4.444 -1.0212 -0.2180 -0.0481
  206MOL0     H27790   5.803   5.989   4.596  1.3527  0.3474  2.2718
  206MOL0     H27791   5.782   5.819   4.650 -0.9979  2.0654  0.9345
  206MOL0     H27792   6.879   6.285   4.196  2.5144 -1.3432 -0.0844
  206MOL0     H27793   7.091   6.259   4.059  1.4439 -3.6556  1.8656
  206MOL0     H27794   7.207   6.241   3.477  1.0383  0.0162 -1.6210
  206MOL0     H27795   7.409   6.266   3.373  0.8130 -1.4259 -1.2097
  206MOL0     H27796   9.362   6.521   3.337  3.6509  1.4476 -0.4795
  206MOL0     H27797   9.576   6.409   3.260 -0.8006  0.3187 -0.3479
  206MOL0     H27798   9.808   5.994   3.200 -0.6827 -2.2553  0.0221
  206MOL0     H27799  10.033   5.894   3.163  1.2576 -0.6979  1.9607
  206MOL0     H27800  10.365   6.178   3.184 -0.2544  1.3819  0.6302
  206MOL0     H27801  10.426   6.106   3.329 -2.5585  0.2284  0.3714
  206MOL0     H27802  10.451   5.978   3.056 -2.0659  1.9931  1.0288
  206MOL0     H27803  10.476   5.893   3.210 -1.1971  0.5919 -0.6690
  206MOL0     H27804  10.677   6.055   3.265  1.2148 -1.0645 -0.7055
  206MOL0     H27805  10.638   6.138   3.116 -0.4905 -0.2630 -2.7937
  206MOL0     H27806  10.671   5.924   2.994  1.1924 -1.7741  1.0436
  206MOL0     H27807  10.747   5.847   3.141  2.4480 -1.5864 -1.5246
  206MOL0     H27808  11.047   6.111   3.012  0.3078  0.2154 -0.4681
  206MOL0     H27809  10.209   6.210   3.401  0.5667  1.1163  0.4572
  206MOL0     H27810   9.991   6.298   3.434 -1.9472 -0.5506 -0.3688
  207MOL0     O27811   5.350   9.672   8.404  0.0631 -0.0742 -0.5325
  207MOL0     C27812   5.333   9.792   8.387 -0.6308 -0.4184 -0.3587
  207MOL0     O27813   5.428   9.879   8.344  0.4506 -0.8246  0.7588
  207MOL0     C27814   5.555   9.840   8.311 -0.9693 -0.1994 -0.5541
  207MOL0     C27815   5.656   9.937   8.328  0.6576  0.3054 -0.1426
  207MOL0     C27816   5.787   9.911   8.299  0.7586  0.1221  0.0061
  207MOL0     C27817   5.823   9.792   8.238 -0.4345  0.0998  0.3349
  207MOL0     O27818   5.955   9.760   8.206 -0.6864  0.5194  0.5808
  207MOL0     C27819   6.072   9.830   8.252 -0.3506  0.1567 -0.0967
  207MOL0     C27820   6.098   9.801   8.400  0.2607 -0.2600  0.2164
  207MOL0     C27821   6.159   9.657   8.413 -0.5428  0.1636 -0.0031
  207MOL0     C27822   6.224   9.622   8.556  0.0890 -0.1033  0.8392
  207MOL0     C27823   6.313   9.729   8.606  0.0529 -0.4389  0.2556
  207MOL0     C27824   6.375   9.706   8.748  0.1602 -0.9032  0.4220
  207MOL0     C27825   6.417   9.839   8.824 -0.2169 -0.2414 -0.1237
  207MOL0     C27826   6.469   9.791   8.966  0.1977 -1.6247  0.3345
  207MOL0     N27827   6.470   9.902   9.057  0.4655 -0.0985 -0.3801
  207MOL0     C27828   6.346   9.963   9.090 -0.8230 -1.0847  0.4036
  207MOL0     C27829   6.378  10.040   9.193  1.3578 -0.2830  0.2278
  207MOL0     C27830   6.271  10.108   9.283  0.4276  0.0473 -0.4060
  207MOL0     C27831   6.133  10.035   9.300 -0.0685  0.1519  0.7945
  207MOL0     C27832   6.034  10.151   9.323  0.0434  0.1007  0.0751
  207MOL0     C27833   5.900  10.108   9.359 -0.2769  0.1014 -0.2592
  207MOL0     O27834   5.825  10.087   9.238  0.1317 -0.2831  0.1960
  207MOL0     C27835   5.689  10.079   9.248  0.8262 -0.3769  0.1178
  207MOL0     C27836   5.620  10.050   9.370  0.2141 -0.7738 -0.0853
  207MOL0     C27837   5.484  10.070   9.383 -0.4750  0.4872 -0.2797
  207MOL0     C27838   5.426  10.052   9.523 -0.0415 -0.5131  0.0644
  207MOL0     C27839   5.408  10.109   9.274  0.2578 -0.1393 -0.0321
  207MOL0     C27840   5.256  10.129   9.280 -0.4118  0.1062  0.8399
  207MOL0     O27841   5.214  10.222   9.190  0.3873  0.3917  0.3289
  207MOL0     C27842   5.105  10.290   9.226 -0.4175  0.3991 -0.5496
  207MOL0     C27843   5.102  10.347   9.346 -0.1465  0.0066 -0.3810
  207MOL0     C27844   4.988  10.413   9.392  0.5961 -0.8082  0.0578
  207MOL0     C27845   4.874  10.412   9.309 -0.1534 -0.5436  0.3246
  207MOL0     O27846   4.759  10.487   9.329 -0.5079  0.1333 -0.5143
  207MOL0     C27847   4.698  10.511   9.456  0.5776  0.0577 -0.3462
  207MOL0     C27848   4.548  10.483   9.447  0.1245  0.2726 -0.0308
  207MOL0     C27849   4.531  10.330   9.434  0.5473  0.3374  0.2254
  207MOL0     C27850   4.387  10.289   9.417 -0.2364 -0.0982  0.0440
  207MOL0     C27851   4.300  10.345   9.299  0.1273 -0.0214 -0.6371
  207MOL0     C27852   4.351  10.353   9.160 -0.2176  0.5769  0.4363
  207MOL0     C27853   4.255  10.423   9.062 -0.0994 -1.1934 -0.0590
  207MOL0     C27854   4.290  10.393   8.916 -1.0090  0.4501  0.3683
  207MOL0    Cl27855   4.218  10.509   8.794 -0.5333  0.1227  0.0712
  207MOL0     C27856   4.881  10.356   9.187  0.1017  0.5736 -0.8036
  207MOL0     C27857   4.994  10.288   9.146 -0.2408 -0.3216  0.0327
  207MOL0     O27858   5.182  10.054   9.338 -0.2252  0.0522 -0.5050
  207MOL0     C27859   5.470  10.133   9.148 -0.3963 -0.3176 -0.1011
  207MOL0     C27860   5.609  10.118   9.142  0.2368  0.7691  0.0212
  207MOL0     N27861   6.514  10.042   9.211 -0.3672 -0.3138 -1.1720
  207MOL0     N27862   6.570   9.961   9.129 -0.1399 -0.3705  0.8675
  207MOL0     C27863   5.721   9.698   8.205  0.2231  0.4146  0.0403
  207MOL0     C27864   5.584   9.725   8.239 -0.7122  1.3133 -0.3165
  207MOL0     C27865   5.199   9.840   8.422 -0.1612 -0.2776  0.3523
  207MOL0     C27866   5.122   9.783   8.524 -0.2281  0.4108 -0.1219
  207MOL0     C27867   4.999   9.841   8.558  1.1335  0.4632 -0.2411
  207MOL0     C27868   4.953   9.954   8.496  0.0314  0.6199 -0.1879
  207MOL0     O27869   4.848  10.029   8.541  0.3890 -0.3592  0.2774
  207MOL0     C27870   4.752   9.952   8.616 -0.5015  0.3799  0.0936
  207MOL0     C27871   4.643  10.049   8.670  0.2528  0.0869  0.3864
  207MOL0     C27872   4.512   9.976   8.717  0.2308  0.2723 -0.2559
  207MOL0     C27873   4.399  10.079   8.751 -0.2491  0.5052 -0.2521
  207MOL0     C27874   4.360  10.160   8.637 -0.1810  0.2750  0.2690
  207MOL0     C27875   4.327  10.229   8.547  0.0105 -0.9718 -0.4939
  207MOL0     C27876   5.024  10.007   8.392  0.7930  1.0039  0.9741
  207MOL0     C27877   5.144   9.951   8.352 -0.1235 -0.7150 -0.6390
  207MOL0     H27878   5.634  10.024   8.388  0.7425  0.5840 -0.5148
  207MOL0     H27879   5.863   9.986   8.323  1.2256 -0.1834 -0.5027
  207MOL0     H27880   6.152   9.803   8.182  0.0751  0.9097  0.0902
  207MOL0     H27881   6.052   9.937   8.254  1.3053  0.5024 -0.5004
  207MOL0     H27882   6.149   9.887   8.445 -0.8206 -0.6179  2.2581
  207MOL0     H27883   6.003   9.798   8.455 -0.0381  0.1057 -0.2745
  207MOL0     H27884   6.064   9.605   8.395 -1.3656  1.2503  1.0438
  207MOL0     H27885   6.217   9.636   8.322 -1.5243 -1.8606 -0.2272
  207MOL0     H27886   6.145   9.612   8.630  0.0787  2.7740  1.3298
  207MOL0     H27887   6.277   9.526   8.544 -0.7506 -0.4411 -0.3215
  207MOL0     H27888   6.397   9.732   8.536  2.6957 -2.2484  3.0831
  207MOL0     H27889   6.269   9.829   8.599  1.1872 -0.0524 -2.0503
  207MOL0     H27890   6.301   9.652   8.807  0.3867 -3.5790 -1.5699
  207MOL0     H27891   6.457   9.633   8.742 -1.0776 -2.3600  0.8069
  207MOL0     H27892   6.500   9.883   8.767  0.6668 -2.1167 -0.3890
  207MOL0     H27893   6.331   9.905   8.835  0.7816  0.9053  1.4184
  207MOL0     H27894   6.570   9.750   8.963  0.7937 -0.4434  2.2511
  207MOL0     H27895   6.402   9.718   9.012 -1.3553 -1.5490 -1.6918
  207MOL0     H27896   6.247   9.930   9.057 -0.2831 -2.6949  0.2938
  207MOL0     H27897   6.308  10.129   9.384 -1.5569  2.0464 -0.0158
  207MOL0     H27898   6.272  10.209   9.241  0.7147  0.6657  1.0029
  207MOL0     H27899   6.139   9.966   9.385  1.6202 -2.2007 -1.1082
  207MOL0     H27900   6.107   9.974   9.212  1.7889  0.9987 -0.3901
  207MOL0     H27901   6.035  10.225   9.243 -3.1311  0.0749 -0.0941
  207MOL0     H27902   6.074  10.208   9.408 -0.8504  0.5828  0.1775
  207MOL0     H27903   5.853  10.190   9.412  0.3069 -0.7800  1.7113
  207MOL0     H27904   5.892  10.022   9.427  0.1413  2.0605  2.4257
  207MOL0     H27905   5.671  10.020   9.461  3.3622  2.9448 -0.3392
  207MOL0     H27906   5.335  10.112   9.532  0.2166 -0.0465 -0.3695
  207MOL0     H27907   5.387   9.949   9.530 -0.5671 -0.3143  0.1094
  207MOL0     H27908   5.499  10.082   9.598  1.3579 -1.9972 -0.6340
  207MOL0     H27909   5.181  10.344   9.420  0.0984 -0.9520 -0.6730
  207MOL0     H27910   4.991  10.468   9.486  0.8485  1.5978 -1.2613
  207MOL0     H27911   4.751  10.447   9.527  0.8429 -0.9188 -1.3770
  207MOL0     H27912   4.710  10.616   9.481  0.3858  0.3365 -1.3816
  207MOL0     H27913   4.504  10.500   9.546  2.1090  0.0785  0.9336
  207MOL0     H27914   4.491  10.527   9.365 -1.0904 -0.9993  0.0859
  207MOL0     H27915   4.565  10.275   9.521  0.6808 -2.5379 -1.5204
  207MOL0     H27916   4.587  10.285   9.352  0.7620  1.2264 -0.1362
  207MOL0     H27917   4.377  10.180   9.426  0.3843 -0.4492 -2.6853
  207MOL0     H27918   4.335  10.330   9.505  0.4730 -0.1473  0.4920
  207MOL0     H27919   4.265  10.447   9.320 -0.9425  0.0234 -2.4194
  207MOL0     H27920   4.204  10.293   9.295 -0.8453  1.7351 -2.6064
  207MOL0     H27921   4.437  10.420   9.158 -1.4476  2.2083 -1.0660
  207MOL0     H27922   4.388  10.257   9.122  0.0022  1.2934 -1.2307
  207MOL0     H27923   4.256  10.532   9.061  2.5519 -1.1378 -2.6267
  207MOL0     H27924   4.152  10.396   9.087 -0.7458 -0.7187 -2.0122
  207MOL0     H27925   4.245  10.295   8.899 -1.9749  0.3416  2.9836
  207MOL0     H27926   4.399  10.383   8.914 -0.5417  3.3386  2.7449
  207MOL0     H27927   4.794  10.371   9.123  0.5464  0.0964 -1.5222
  207MOL0     H27928   5.000  10.241   9.048 -2.1617 -1.3377  0.3434
  207MOL0     H27929   5.409  10.143   9.058 -0.0913 -2.1057 -0.5556
  207MOL0     H27930   5.641  10.144   9.042 -3.3589  2.2192 -0.9047
  207MOL0     H27931   5.764   9.607   8.165  1.5073  0.7541  0.5807
  207MOL0     H27932   5.505   9.655   8.213  0.8162  0.0375 -1.7369
  207MOL0     H27933   5.163   9.693   8.568  0.1054  2.4169  4.2453
  207MOL0     H27934   4.956   9.779   8.636  1.6407 -0.5650 -0.7569
  207MOL0     H27935   4.713   9.873   8.551  0.3382 -0.8695  1.0568
  207MOL0     H27936   4.798   9.906   8.704 -2.9402 -0.6547  0.9102
  207MOL0     H27937   4.606  10.106   8.585 -2.0875 -2.3246 -0.3507
  207MOL0     H27938   4.680  10.108   8.754 -1.0855  0.1597  0.9452
  207MOL0     H27939   4.544   9.914   8.801 -0.0507 -0.3733 -0.6174
  207MOL0     H27940   4.468   9.908   8.643 -1.6271  0.1964  0.8685
  207MOL0     H27941   4.429  10.145   8.833 -2.0589  1.7732 -0.5613
  207MOL0     H27942   4.312  10.023   8.785  1.9785 -2.2907  1.2631
  207MOL0     H27943   4.301  10.295   8.466 -0.4821  0.6596  0.9387
  207MOL0     H27944   4.980  10.086   8.333 -0.6036  1.0615  2.0343
  207MOL0     H27945   5.192   9.987   8.261 -1.6268 -3.1147 -2.5248
  208MOL0     O27946   0.998   2.747   4.969  0.2613 -0.9762  1.0949
  208MOL0     C27947   1.056   2.757   4.857  0.3608  0.5121  0.9388
  208MOL0     O27948   1.011   2.822   4.755 -0.0867  0.1396 -0.0614
  208MOL0     C27949   0.888   2.894   4.753  0.0609 -0.7854  0.3855
  208MOL0     C27950   0.774   2.867   4.831 -0.1034 -0.7955  0.5047
  208MOL0     C27951   0.658   2.945   4.819 -0.1515  0.1210  0.2146
  208MOL0     C27952   0.642   3.026   4.701 -0.8477  0.3302 -0.1693
  208MOL0     O27953   0.523   3.083   4.664  0.7398  0.7695 -0.2367
  208MOL0     C27954   0.513   3.217   4.614 -0.9714 -0.2218  0.1580
  208MOL0     C27955   0.520   3.321   4.721  0.2848  0.1180 -0.2165
  208MOL0     C27956   0.433   3.284   4.844 -0.5754 -0.2249  0.3844
  208MOL0     C27957   0.288   3.254   4.800  0.2120  0.0213  0.0277
  208MOL0     C27958   0.181   3.293   4.911 -0.6783  0.1099 -1.2302
  208MOL0     C27959   0.053   3.216   4.894 -0.4319  0.1000  0.2834
  208MOL0     C27960  -0.070   3.260   4.975  0.5968  0.3499 -0.1606
  208MOL0     C27961  -0.131   3.392   4.931  0.6014  0.4395 -1.1175
  208MOL0     N27962  -0.229   3.448   5.024 -0.1802  0.1524  0.4130
  208MOL0     C27963  -0.320   3.375   5.101  0.1560 -0.3127 -0.4238
  208MOL0     C27964  -0.408   3.466   5.155 -0.5234  0.1208 -0.4446
  208MOL0     C27965  -0.524   3.451   5.244  0.2062  0.2089  0.3293
  208MOL0     C27966  -0.646   3.458   5.146  0.1656  0.2433 -0.7016
  208MOL0     C27967  -0.774   3.454   5.231  0.5132 -0.9574 -0.2082
  208MOL0     C27968  -0.892   3.511   5.167  0.1806 -0.7854  0.9074
  208MOL0     O27969  -1.020   3.486   5.226 -0.3096 -0.4357  0.2218
  208MOL0     C27970  -1.120   3.562   5.174  0.2323  0.3874 -0.8558
  208MOL0     C27971  -1.123   3.640   5.052  0.9466 -0.0045  0.0123
  208MOL0     C27972  -1.255   3.707   5.017  0.6738  0.1542 -0.0328
  208MOL0     C27973  -1.261   3.792   4.888  0.2331 -0.4829  0.4739
  208MOL0     C27974  -1.372   3.679   5.094  0.4351 -0.3282 -0.7686
  208MOL0     C27975  -1.503   3.725   5.051  0.5061  0.2850  0.5235
  208MOL0     O27976  -1.604   3.770   5.147 -0.1550  0.0180  0.1157
  208MOL0     C27977  -1.715   3.832   5.086  0.3458 -0.1115  0.1006
  208MOL0     C27978  -1.837   3.802   5.146 -0.4207  0.2306  0.3487
  208MOL0     C27979  -1.949   3.873   5.117 -0.2719 -0.4950 -0.2423
  208MOL0     C27980  -1.946   3.971   5.016  0.3343 -0.9070 -0.1465
  208MOL0     O27981  -2.054   4.056   4.994 -0.0752  0.2765 -0.0207
  208MOL0     C27982  -2.183   3.992   4.998 -1.1744  0.0456  0.0634
  208MOL0     C27983  -2.279   4.087   4.924  0.6176 -0.0265 -0.2085
  208MOL0     C27984  -2.427   4.038   4.907 -0.6768  0.3222 -0.8415
  208MOL0     C27985  -2.513   4.148   4.873  0.2498  0.7285 -0.3289
  208MOL0     C27986  -2.644   4.114   4.807  0.1486  0.4146  0.1237
  208MOL0     C27987  -2.731   4.243   4.781 -0.8505  0.8834 -0.3506
  208MOL0     C27988  -2.842   4.192   4.695  0.5179 -1.2361 -0.3015
  208MOL0     C27989  -2.938   4.308   4.656  0.6920  0.3098  0.5149
  208MOL0    Cl27990  -3.092   4.258   4.564 -0.1816  0.1370  0.3422
  208MOL0     C27991  -1.823   4.004   4.964  0.6912 -0.6404  0.9369
  208MOL0     C27992  -1.707   3.937   4.995  0.4515 -0.0727 -0.1246
  208MOL0     O27993  -1.524   3.714   4.930 -0.7719  0.3069 -0.2590
  208MOL0     C27994  -1.353   3.608   5.217 -0.1918 -0.1479  0.6404
  208MOL0     C27995  -1.234   3.557   5.257  0.3101 -0.0496  0.4094
  208MOL0     N27996  -0.366   3.587   5.100  1.0491  0.6765 -0.2771
  208MOL0     N27997  -0.265   3.569   5.030  0.7307 -0.5670 -0.0545
  208MOL0     C27998   0.755   3.053   4.622  0.4411  0.5765 -0.3590
  208MOL0     C27999   0.876   2.990   4.657 -0.0324  0.6298  0.3047
  208MOL0     C28000   1.200   2.701   4.834  0.5358 -0.3058  0.3134
  208MOL0     C28001   1.257   2.620   4.931  1.2199 -0.0011  0.5046
  208MOL0     C28002   1.395   2.574   4.925 -0.3355  0.0253  0.3799
  208MOL0     C28003   1.475   2.622   4.819  0.3931  0.2165 -0.6329
  208MOL0     O28004   1.614   2.605   4.812 -0.3494  0.7383 -0.6533
  208MOL0     C28005   1.696   2.554   4.916 -0.1768 -0.2146 -0.6185
  208MOL0     C28006   1.828   2.533   4.849 -0.1684  0.9605 -0.0322
  208MOL0     C28007   1.942   2.516   4.938 -0.2940 -0.1294 -0.4001
  208MOL0     C28008   2.072   2.531   4.858  0.4507  0.5502 -0.2282
  208MOL0     C28009   2.186   2.517   4.938 -0.3592  0.2691 -0.2650
  208MOL0     C28010   2.284   2.507   5.014  0.4176  0.2559  0.2118
  208MOL0     C28011   1.407   2.699   4.724 -0.8068  0.7152  0.0476
  208MOL0     C28012   1.280   2.734   4.726  0.3427 -0.3440 -0.8692
  208MOL0     H28013   0.772   2.806   4.920  1.4355  0.9596  1.8274
  208MOL0     H28014   0.580   2.932   4.893  0.9614 -1.0750  1.2134
  208MOL0     H28015   0.587   3.241   4.538  1.9370  0.7604  3.0741
  208MOL0     H28016   0.415   3.216   4.565 -0.5160  0.2205 -0.7909
  208MOL0     H28017   0.620   3.329   4.762 -0.2863  0.4429  1.1585
  208MOL0     H28018   0.491   3.414   4.671  2.3799 -0.1968 -2.1640
  208MOL0     H28019   0.465   3.200   4.907 -1.9961 -0.2496  1.1050
  208MOL0     H28020   0.422   3.371   4.909 -2.4814  0.6588 -1.0159
  208MOL0     H28021   0.272   3.305   4.705  3.5693 -2.4561 -2.1100
  208MOL0     H28022   0.285   3.147   4.775 -1.6109  0.4272 -1.7347
  208MOL0     H28023   0.209   3.274   5.015  4.3045  0.3046 -2.2662
  208MOL0     H28024   0.170   3.402   4.906 -0.0784  0.2212 -0.2644
  208MOL0     H28025   0.029   3.223   4.787  3.7467 -0.5214 -0.8724
  208MOL0     H28026   0.081   3.117   4.930  0.8257  0.9945  1.9008
  208MOL0     H28027  -0.142   3.179   4.961  1.4136 -0.4963  0.4443
  208MOL0     H28028  -0.042   3.261   5.081 -2.9030  0.7611  0.8785
  208MOL0     H28029  -0.189   3.378   4.840  0.6179 -0.6473 -0.9794
  208MOL0     H28030  -0.053   3.468   4.918 -0.0436  1.7155  1.6382
  208MOL0     H28031  -0.310   3.267   5.103 -0.0080 -0.3455 -0.9855
  208MOL0     H28032  -0.519   3.360   5.304  2.8605 -1.7966 -2.6228
  208MOL0     H28033  -0.537   3.535   5.313  0.3851 -0.4920  1.2324
  208MOL0     H28034  -0.657   3.363   5.092 -3.7406 -0.2618  0.6799
  208MOL0     H28035  -0.648   3.541   5.075  1.7988 -1.4286 -2.8452
  208MOL0     H28036  -0.759   3.507   5.326  1.8033 -0.2595 -0.7708
  208MOL0     H28037  -0.791   3.350   5.258  1.2989 -1.0807 -0.1674
  208MOL0     H28038  -0.900   3.462   5.070  2.6885 -1.0021  0.7299
  208MOL0     H28039  -0.879   3.620   5.159  0.4945 -0.8802  0.0666
  208MOL0     H28040  -1.038   3.658   4.988  0.8691 -1.2046 -0.4577
  208MOL0     H28041  -1.285   3.728   4.803 -3.1347  1.6628 -0.3578
  208MOL0     H28042  -1.337   3.870   4.894  1.5523  0.8809  0.0208
  208MOL0     H28043  -1.165   3.845   4.881  0.2520  0.1949  3.9806
  208MOL0     H28044  -1.839   3.713   5.208 -1.8616 -0.6403 -0.8901
  208MOL0     H28045  -2.041   3.842   5.165  1.7165 -1.2964  3.4061
  208MOL0     H28046  -2.184   3.895   4.948 -0.9043  0.9792 -1.8349
  208MOL0     H28047  -2.220   3.966   5.098  0.9222 -1.8505  0.4335
  208MOL0     H28048  -2.283   4.181   4.980  0.0714 -0.1150 -0.0934
  208MOL0     H28049  -2.251   4.101   4.819 -0.4665  0.5832 -0.4325
  208MOL0     H28050  -2.457   3.989   5.000 -1.9493  1.5843 -0.5332
  208MOL0     H28051  -2.440   3.962   4.829 -0.5636 -0.3347 -0.2317
  208MOL0     H28052  -2.526   4.210   4.962  0.5378 -1.7417  1.5215
  208MOL0     H28053  -2.461   4.209   4.798 -2.1890  0.6565 -2.2203
  208MOL0     H28054  -2.696   4.037   4.865  1.3375  0.8856  1.8749
  208MOL0     H28055  -2.623   4.060   4.714  0.6158 -1.5237  1.2991
  208MOL0     H28056  -2.767   4.286   4.874 -1.8181 -0.1057 -0.2481
  208MOL0     H28057  -2.663   4.312   4.731  2.5713 -1.8877  0.0889
  208MOL0     H28058  -2.900   4.120   4.754  1.2425 -1.7300 -0.1925
  208MOL0     H28059  -2.806   4.134   4.610 -0.4789 -1.5988 -0.4970
  208MOL0     H28060  -2.882   4.371   4.587 -0.3670  1.6798  0.8715
  208MOL0     H28061  -2.961   4.368   4.744  1.2976 -0.7799  1.4472
  208MOL0     H28062  -1.807   4.089   4.898  0.0302 -2.2336 -1.3962
  208MOL0     H28063  -1.622   3.976   4.939  0.1972  0.7085  0.0101
  208MOL0     H28064  -1.434   3.574   5.281  0.1350 -4.2017 -0.8327
  208MOL0     H28065  -1.218   3.484   5.336  1.6130 -2.6895 -2.1031
  208MOL0     H28066   0.760   3.110   4.529  1.6055  1.9776  0.5092
  208MOL0     H28067   0.962   3.001   4.592 -0.7974  1.5692 -0.5784
  208MOL0     H28068   1.194   2.578   5.009  0.1506  1.7383  0.6113
  208MOL0     H28069   1.421   2.504   5.003 -2.5390 -0.1500  1.0191
  208MOL0     H28070   1.716   2.634   4.988 -1.8305 -0.4597  0.1726
  208MOL0     H28071   1.668   2.471   4.982 -0.7464  0.3985 -0.0617
  208MOL0     H28072   1.852   2.622   4.791  2.6212  0.0865 -0.3550
  208MOL0     H28073   1.821   2.442   4.788  1.3733 -0.1408  1.3320
  208MOL0     H28074   1.942   2.418   4.985  0.3361 -0.3092 -0.7666
  208MOL0     H28075   1.937   2.596   5.012  0.9570  0.2081 -0.6604
  208MOL0     H28076   2.068   2.628   4.807 -1.5114  1.1323  0.9284
  208MOL0     H28077   2.077   2.462   4.773 -3.7632 -0.2271 -0.0548
  208MOL0     H28078   2.356   2.483   5.089  0.4698  2.8006  1.0788
  208MOL0     H28079   1.461   2.735   4.637  0.4808 -1.3020 -0.0435
  208MOL0     H28080   1.244   2.795   4.644 -0.8820 -0.3610 -0.3712
  209MOL0     O28081   1.935   6.093  10.369  0.0474 -0.8172 -0.1219
  209MOL0     C28082   1.967   5.981  10.328 -0.1248 -0.3611 -0.1652
  209MOL0     O28083   1.879   5.882  10.286  0.0596  0.4622 -0.3155
  209MOL0     C28084   1.743   5.892  10.302  0.0068 -0.3630  0.1747
  209MOL0     C28085   1.668   5.996  10.259 -0.0730 -0.2758  0.0431
  209MOL0     C28086   1.525   6.000  10.287 -0.4142 -0.5622 -0.8611
  209MOL0     C28087   1.471   5.892  10.360  0.0201 -0.3316 -0.1044
  209MOL0     O28088   1.334   5.889  10.363 -0.0087 -0.4347 -0.3936
  209MOL0     C28089   1.262   5.758  10.332  0.0351 -1.3542 -0.3496
  209MOL0     C28090   1.115   5.786  10.324  0.4449 -0.4599 -0.2179
  209MOL0     C28091   1.032   5.663  10.282 -0.0963  0.1226  0.0438
  209MOL0     C28092   0.881   5.682  10.259 -0.5276  0.3223  0.2969
  209MOL0     C28093   0.811   5.538  10.244  0.5793 -0.4011  0.7452
  209MOL0     C28094   0.656   5.542  10.249  0.5131 -0.2079 -0.4275
  209MOL0     C28095   0.605   5.606  10.382 -0.2122  0.1342 -0.2455
  209MOL0     C28096   0.451   5.633  10.385 -0.0669 -0.2350 -0.2929
  209MOL0     N28097   0.405   5.731  10.281  0.5597  0.3069 -0.0052
  209MOL0     C28098   0.293   5.716  10.208  0.4032  0.2442  0.4322
  209MOL0     C28099   0.297   5.799  10.105  0.1888  0.1954 -0.1152
  209MOL0     C28100   0.202   5.818   9.987 -0.1680 -0.0679 -0.4990
  209MOL0     C28101   0.131   5.955   9.991  0.0550 -0.4341  0.1066
  209MOL0     C28102   0.039   5.989   9.867 -0.7401 -0.5795 -0.3918
  209MOL0     C28103  -0.070   5.886   9.828  0.3218 -0.1526 -0.4550
  209MOL0     O28104  -0.160   5.893   9.939 -0.3826 -0.4333 -0.1119
  209MOL0     C28105  -0.233   5.780   9.961  0.0001 -0.6212  0.6570
  209MOL0     C28106  -0.279   5.689   9.870  0.6381  0.0295  0.1924
  209MOL0     C28107  -0.365   5.581   9.894  0.2530 -0.3013  0.2244
  209MOL0     C28108  -0.375   5.484   9.776  0.6340 -0.1012 -0.4143
  209MOL0     C28109  -0.423   5.579  10.025  0.3862  0.2144  0.0918
  209MOL0     C28110  -0.520   5.476  10.070 -0.6096  0.1808 -0.5728
  209MOL0     O28111  -0.563   5.489  10.198  0.0105  0.2775 -0.9550
  209MOL0     C28112  -0.633   5.387  10.257  0.6055 -0.5789 -0.2053
  209MOL0     C28113  -0.769   5.413  10.289  0.4216 -0.1484 -0.1738
  209MOL0     C28114  -0.836   5.330  10.368  0.3498  0.3517 -0.2245
  209MOL0     C28115  -0.778   5.212  10.415  0.0644 -0.1359  0.1681
  209MOL0     O28116  -0.834   5.125  10.509 -0.1480  0.5059  0.5810
  209MOL0     C28117  -0.952   5.165  10.577 -0.8859 -0.1320  0.1999
  209MOL0     C28118  -1.006   5.039  10.630 -0.5812 -0.0376 -0.2749
  209MOL0     C28119  -1.116   5.071  10.735  0.5534 -0.3606  0.6986
  209MOL0     C28120  -1.150   4.950  10.825  0.1906  0.0478 -0.0084
  209MOL0     C28121  -1.263   4.984  10.927  0.4118  0.1289  0.3453
  209MOL0     C28122  -1.261   4.899  11.050 -0.5263  0.6743  0.6302
  209MOL0     C28123  -1.359   4.951  11.143  0.0500  0.8261  0.0446
  209MOL0     C28124  -1.345   4.874  11.274  0.2692 -0.3269 -0.8796
  209MOL0    Cl28125  -1.455   4.739  11.290 -0.3688  0.4697 -0.0659
  209MOL0     C28126  -0.656   5.175  10.367  0.2836 -0.0790 -0.0065
  209MOL0     C28127  -0.573   5.271  10.303  0.3516  0.4389  0.1166
  209MOL0     O28128  -0.551   5.378   9.998 -0.5141 -0.4657 -0.9120
  209MOL0     C28129  -0.373   5.668  10.117  0.3744 -0.1312  0.0939
  209MOL0     C28130  -0.284   5.773  10.084  0.1035  0.2153  0.2999
  209MOL0     N28131   0.429   5.858  10.112 -0.2494  0.1258  0.2321
  209MOL0     N28132   0.478   5.826  10.221 -0.1648 -0.2257 -0.0758
  209MOL0     C28133   1.550   5.781  10.393 -0.3507  0.0909  1.0392
  209MOL0     C28134   1.687   5.780  10.364  0.9319 -0.0052 -0.0423
  209MOL0     C28135   2.113   5.957  10.314 -0.2902  0.1656  0.7820
  209MOL0     C28136   2.203   6.067  10.321  0.6065 -0.0728 -0.3017
  209MOL0     C28137   2.338   6.046  10.311 -0.6670 -0.6012 -0.2233
  209MOL0     C28138   2.392   5.918  10.290  0.1946  0.0462 -0.0922
  209MOL0     O28139   2.528   5.887  10.288 -0.0922 -0.4669  0.2369
  209MOL0     C28140   2.627   5.990  10.315 -0.3368  0.5952  0.0545
  209MOL0     C28141   2.750   5.912  10.373  0.2044  0.1614 -0.3023
  209MOL0     C28142   2.727   5.859  10.520 -0.4519 -0.2568  0.1192
  209MOL0     C28143   2.742   5.976  10.613  0.1642 -0.4988  0.3482
  209MOL0     C28144   2.876   6.046  10.613 -0.1641 -0.7753 -0.2408
  209MOL0     C28145   2.984   6.104  10.616  0.8760 -0.3646  0.3131
  209MOL0     C28146   2.302   5.814  10.271  0.7795 -0.0599 -0.6232
  209MOL0     C28147   2.167   5.829  10.284 -0.0135  0.1782 -0.0900
  209MOL0     H28148   1.718   6.072  10.200 -0.9033  2.3590  2.5191
  209MOL0     H28149   1.454   6.078  10.259  1.4080  1.8969  0.9715
  209MOL0     H28150   1.303   5.719  10.239  1.1905  0.1509 -0.5058
  209MOL0     H28151   1.273   5.690  10.417  1.5475 -2.3855 -1.3437
  209MOL0     H28152   1.082   5.820  10.422 -1.1150 -4.3875  0.8064
  209MOL0     H28153   1.089   5.858  10.246 -2.5068  0.6181  1.5827
  209MOL0     H28154   1.066   5.608  10.193 -1.5022  0.1900 -0.5553
  209MOL0     H28155   1.037   5.592  10.365  2.3144  0.7413  0.5121
  209MOL0     H28156   0.846   5.741  10.344  0.5129  0.3811  0.7017
  209MOL0     H28157   0.867   5.745  10.170 -1.0053  0.0419  0.1692
  209MOL0     H28158   0.833   5.502  10.143 -2.6606  0.9853 -0.6111
  209MOL0     H28159   0.848   5.472  10.322  2.0210  0.1714  0.5784
  209MOL0     H28160   0.628   5.611  10.168 -0.4725 -0.1071 -0.0143
  209MOL0     H28161   0.611   5.444  10.233 -0.0867 -0.2360  1.2686
  209MOL0     H28162   0.627   5.533  10.461  0.9562 -0.0286 -0.6894
  209MOL0     H28163   0.668   5.692  10.407 -0.6686  0.4319 -0.1065
  209MOL0     H28164   0.415   5.654  10.486  0.8042 -4.7968  1.1924
  209MOL0     H28165   0.413   5.535  10.354 -0.5937 -1.1342  2.8235
  209MOL0     H28166   0.216   5.643  10.232 -1.5062  2.6283  2.2368
  209MOL0     H28167   0.260   5.799   9.895 -0.6911 -2.4822 -0.3918
  209MOL0     H28168   0.126   5.740   9.985  0.5964 -0.8286 -0.6702
  209MOL0     H28169   0.201   6.038  10.004  1.1257 -1.3103  0.1715
  209MOL0     H28170   0.072   5.953  10.083  2.2310 -2.7255  1.5847
  209MOL0     H28171   0.107   6.016   9.785  0.5422  1.7458  1.3094
  209MOL0     H28172  -0.008   6.085   9.890  1.5394 -0.0282  2.5221
  209MOL0     H28173  -0.016   5.791   9.821  1.1128  0.3455 -1.3598
  209MOL0     H28174  -0.123   5.906   9.735 -3.0551  0.3672  1.4345
  209MOL0     H28175  -0.245   5.694   9.767  2.7568 -0.3384  0.8230
  209MOL0     H28176  -0.302   5.498   9.696 -0.3037  2.2915 -0.9553
  209MOL0     H28177  -0.373   5.382   9.814  4.8654 -0.2062 -0.5432
  209MOL0     H28178  -0.472   5.510   9.732  1.6427 -1.4082 -3.7209
  209MOL0     H28179  -0.817   5.509  10.275 -0.0235 -0.7321 -3.2619
  209MOL0     H28180  -0.933   5.352  10.411  0.0781  1.0906 -1.1950
  209MOL0     H28181  -0.945   5.229  10.666 -3.1673 -1.6384  1.5610
  209MOL0     H28182  -1.032   5.206  10.515 -0.2363  0.9038  0.0085
  209MOL0     H28183  -1.053   4.981  10.550 -0.6186  0.0990 -0.3518
  209MOL0     H28184  -0.921   4.983  10.670 -0.9554 -0.0161  0.5557
  209MOL0     H28185  -1.207   5.103  10.684 -2.1340 -1.4330  4.3335
  209MOL0     H28186  -1.074   5.148  10.800  1.4995 -0.1027 -0.1879
  209MOL0     H28187  -1.186   4.869  10.762 -1.5326  1.2515 -0.6514
  209MOL0     H28188  -1.062   4.911  10.877 -1.8196 -2.0823  2.0246
  209MOL0     H28189  -1.359   4.977  10.875  0.3745 -3.6744  0.6702
  209MOL0     H28190  -1.261   5.089  10.957  1.2298  0.6299 -1.2989
  209MOL0     H28191  -1.290   4.796  11.026  0.6748  0.1281  1.4385
  209MOL0     H28192  -1.161   4.900  11.094  0.0274 -1.2079 -0.4548
  209MOL0     H28193  -1.462   4.942  11.106 -0.1466  2.3621  0.1599
  209MOL0     H28194  -1.336   5.058  11.152  0.9851  0.8877 -2.3763
  209MOL0     H28195  -1.371   4.938  11.359  0.0496 -1.3001 -0.2003
  209MOL0     H28196  -1.240   4.849  11.288  0.7117  1.4126 -0.9159
  209MOL0     H28197  -0.605   5.083  10.393  2.9245  1.9941  2.9146
  209MOL0     H28198  -0.474   5.228  10.290  0.3103  0.4030 -0.0854
  209MOL0     H28199  -0.411   5.681  10.217  0.6955 -0.5930  0.2775
  209MOL0     H28200  -0.255   5.851  10.154 -2.9503  1.5306  0.2602
  209MOL0     H28201   1.513   5.687  10.433  1.6142 -0.7544  0.9798
  209MOL0     H28202   1.751   5.699  10.399  1.3100  0.4003  0.2079
  209MOL0     H28203   2.159   6.163  10.344  1.4405  0.3668 -0.5214
  209MOL0     H28204   2.409   6.125  10.332  0.4495 -2.3704  3.2416
  209MOL0     H28205   2.655   6.039  10.221  0.3000 -0.4531 -0.3234
  209MOL0     H28206   2.597   6.064  10.389  3.6822  1.3843  1.1227
  209MOL0     H28207   2.830   5.986  10.371 -1.5506  2.1634 -0.1827
  209MOL0     H28208   2.777   5.826  10.310 -2.2383 -0.5136 -0.5438
  209MOL0     H28209   2.801   5.782  10.545 -0.5683 -0.1545  0.7971
  209MOL0     H28210   2.626   5.819  10.529 -0.7058  0.5005  0.7594
  209MOL0     H28211   2.705   5.933  10.706 -0.7137 -3.5701 -1.2817
  209MOL0     H28212   2.664   6.044  10.576  1.7708  0.6283 -1.1047
  209MOL0     H28213   3.085   6.137  10.630  0.7659 -0.1213  0.5558
  209MOL0     H28214   2.328   5.712  10.245  1.6897 -0.9279  3.1379
  209MOL0     H28215   2.097   5.749  10.260 -0.2541  0.0122  1.0871
  210MOL0     O28216   7.554   0.370   1.579 -0.0837 -0.0643 -0.3945
  210MOL0     C28217   7.483   0.273   1.598 -0.2710 -0.1553  0.3350
  210MOL0     O28218   7.535   0.160   1.647  0.3805 -0.1837  0.4408
  210MOL0     C28219   7.666   0.140   1.636 -0.5737  0.1693 -0.4695
  210MOL0     C28220   7.757   0.174   1.738 -0.8445 -0.5801 -0.1126
  210MOL0     C28221   7.894   0.150   1.725 -0.7361  0.5746  0.0840
  210MOL0     C28222   7.941   0.084   1.611  0.2746  0.5721 -0.5780
  210MOL0     O28223   8.075   0.055   1.617 -0.9430  0.2673  0.3182
  210MOL0     C28224   8.124  -0.077   1.605  0.6119 -0.2551 -0.5311
  210MOL0     C28225   8.264  -0.090   1.673 -0.2545  0.3806 -0.6068
  210MOL0     C28226   8.271  -0.045   1.817  0.3702  0.3658 -0.4010
  210MOL0     C28227   8.413  -0.039   1.871 -0.2828  0.7942  0.1368
  210MOL0     C28228   8.408  -0.001   2.016  0.7118  0.9213  0.3857
  210MOL0     C28229   8.551   0.004   2.068  0.1160  0.6319  0.7068
  210MOL0     C28230   8.550   0.055   2.207  0.3939 -0.5539 -0.1994
  210MOL0     C28231   8.492  -0.054   2.304 -0.0193  0.4371 -0.2895
  210MOL0     N28232   8.574  -0.170   2.343 -0.4571  0.1721 -0.2486
  210MOL0     C28233   8.699  -0.164   2.383  0.7794  0.0113 -0.0458
  210MOL0     C28234   8.740  -0.296   2.405  0.0568  0.5504 -0.1947
  210MOL0     C28235   8.885  -0.321   2.456 -0.1434  0.4120  0.5904
  210MOL0     C28236   8.906  -0.275   2.594  0.2430  0.4310  0.1819
  210MOL0     C28237   8.848  -0.369   2.700  0.4288 -0.4061  0.1366
  210MOL0     C28238   8.843  -0.333   2.849  0.2366 -0.1705  0.7629
  210MOL0     O28239   8.809  -0.450   2.918 -0.4431 -0.4493  0.8873
  210MOL0     C28240   8.678  -0.485   2.931  0.8245  0.0300  0.0794
  210MOL0     C28241   8.642  -0.594   3.004  0.2737  1.1426 -0.3503
  210MOL0     C28242   8.512  -0.656   3.024 -0.9123  0.0706 -0.3823
  210MOL0     C28243   8.503  -0.786   3.093  0.3361 -0.4732  0.1480
  210MOL0     C28244   8.406  -0.588   2.966 -0.3365 -0.6780  1.1459
  210MOL0     C28245   8.264  -0.618   2.978 -0.2214 -0.4994 -0.4424
  210MOL0     O28246   8.179  -0.509   2.985 -0.9420 -0.3509  0.5946
  210MOL0     C28247   8.040  -0.517   3.004 -0.6710  0.5398  0.9979
  210MOL0     C28248   7.971  -0.623   2.956  0.9678  0.3935  0.0872
  210MOL0     C28249   7.831  -0.608   2.946 -1.0706 -0.8375  0.1789
  210MOL0     C28250   7.765  -0.489   2.979 -0.1614 -0.2374 -0.2366
  210MOL0     O28251   7.630  -0.476   2.963  0.5032 -0.3822  0.0066
  210MOL0     C28252   7.595  -0.348   2.909 -1.2951  0.0137 -0.5240
  210MOL0     C28253   7.489  -0.361   2.809 -0.1985 -0.3191 -0.1852
  210MOL0     C28254   7.349  -0.334   2.876  0.8700  0.8443 -0.3779
  210MOL0     C28255   7.232  -0.399   2.797 -0.8232  0.7600 -0.7281
  210MOL0     C28256   7.100  -0.351   2.851  1.3507  0.2339  0.7224
  210MOL0     C28257   6.986  -0.410   2.769 -0.2335 -0.4761  0.0678
  210MOL0     C28258   6.848  -0.343   2.803 -0.9178 -0.4487  1.3011
  210MOL0     C28259   6.755  -0.328   2.681  0.3064  0.4340  0.3839
  210MOL0    Cl28260   6.583  -0.340   2.727 -0.1067 -0.2078 -0.0679
  210MOL0     C28261   7.838  -0.390   3.040  0.2214 -0.5181 -0.7788
  210MOL0     C28262   7.978  -0.399   3.045 -0.1989  1.1350  0.0198
  210MOL0     O28263   8.234  -0.734   2.995  0.8918  0.3928  0.4398
  210MOL0     C28264   8.437  -0.470   2.887 -0.1198 -0.1723  0.4048
  210MOL0     C28265   8.568  -0.420   2.865  0.1926 -0.0298 -0.3154
  210MOL0     N28266   8.638  -0.379   2.359 -0.1325  0.0885  0.0906
  210MOL0     N28267   8.547  -0.310   2.318 -0.3993  0.5182 -0.4596
  210MOL0     C28268   7.853   0.042   1.516 -0.1500  0.6069  0.7825
  210MOL0     C28269   7.717   0.077   1.522 -0.5145  0.2102 -0.4533
  210MOL0     C28270   7.341   0.301   1.604  0.1038  0.0976 -0.1578
  210MOL0     C28271   7.296   0.431   1.599  0.9420 -0.0308 -0.1284
  210MOL0     C28272   7.151   0.443   1.597 -0.0199 -0.4489 -0.0981
  210MOL0     C28273   7.057   0.346   1.630 -1.2409  0.5626  0.1530
  210MOL0     O28274   6.923   0.368   1.636  0.4412 -0.4785  0.8293
  210MOL0     C28275   6.824   0.269   1.663 -0.5301 -0.5614 -0.7061
  210MOL0     C28276   6.681   0.336   1.680 -1.0033 -0.1322 -0.4111
  210MOL0     C28277   6.684   0.438   1.799 -0.4198 -0.6438 -0.0692
  210MOL0     C28278   6.765   0.565   1.769  0.3824 -0.2178  0.5074
  210MOL0     C28279   6.703   0.675   1.848  0.0795 -0.3749  0.0552
  210MOL0     C28280   6.631   0.756   1.903 -0.0189 -0.6894 -0.1031
  210MOL0     C28281   7.114   0.217   1.635 -0.3345 -0.2642 -0.0570
  210MOL0     C28282   7.253   0.194   1.619 -0.1613  0.4258  0.1837
  210MOL0     H28283   7.723   0.219   1.830 -1.4127  1.1283 -1.1143
  210MOL0     H28284   7.973   0.169   1.797  0.4535 -0.7135 -0.8160
  210MOL0     H28285   8.055  -0.137   1.666 -1.0464  1.4399 -0.6503
  210MOL0     H28286   8.129  -0.112   1.502 -0.1972 -1.6398 -0.1278
  210MOL0     H28287   8.296  -0.194   1.664 -1.4250  0.0732 -1.6146
  210MOL0     H28288   8.331  -0.032   1.609  0.6434 -1.3248 -1.2695
  210MOL0     H28289   8.220   0.051   1.825  1.6464  0.9836  0.6615
  210MOL0     H28290   8.215  -0.117   1.879 -0.3412  0.0630 -1.3602
  210MOL0     H28291   8.467  -0.134   1.862  2.0429  2.1092 -0.6822
  210MOL0     H28292   8.459   0.039   1.809 -0.6272  1.2414  0.4381
  210MOL0     H28293   8.361   0.096   2.034 -0.3754  0.5827 -0.4752
  210MOL0     H28294   8.352  -0.081   2.064  0.0609  2.0514  1.5827
  210MOL0     H28295   8.621  -0.080   2.057  0.7368  1.4037 -1.7874
  210MOL0     H28296   8.600   0.084   2.012 -0.8797  1.2785  0.7339
  210MOL0     H28297   8.653   0.079   2.236  1.0306 -0.9403 -2.0301
  210MOL0     H28298   8.500   0.152   2.210  3.9587  1.6104 -2.7992
  210MOL0     H28299   8.397  -0.093   2.269  0.5844  0.4609 -2.0320
  210MOL0     H28300   8.484   0.004   2.396 -0.8531  1.0880 -0.7647
  210MOL0     H28301   8.747  -0.071   2.413  1.2906 -0.2886  0.0785
  210MOL0     H28302   8.909  -0.427   2.447 -0.2943  0.4772 -0.8395
  210MOL0     H28303   8.952  -0.271   2.385 -0.5516 -0.2287 -0.2587
  210MOL0     H28304   8.865  -0.174   2.607 -0.0788  0.6208 -1.9814
  210MOL0     H28305   9.013  -0.280   2.614  0.3341 -0.0330 -0.3739
  210MOL0     H28306   8.918  -0.453   2.697  2.5219  1.1825  1.3888
  210MOL0     H28307   8.749  -0.396   2.664 -0.1863  0.4474  1.1417
  210MOL0     H28308   8.770  -0.255   2.872 -1.3356 -0.7685 -1.7660
  210MOL0     H28309   8.940  -0.296   2.884 -0.4124  3.5501 -0.8245
  210MOL0     H28310   8.725  -0.643   3.053  1.0463  2.1368 -0.6361
  210MOL0     H28311   8.429  -0.795   3.174  0.8195 -2.0179  0.4562
  210MOL0     H28312   8.501  -0.861   3.014  2.1655  0.9300 -1.3324
  210MOL0     H28313   8.596  -0.808   3.147  1.0134 -0.9424 -1.1617
  210MOL0     H28314   8.002  -0.724   2.934  0.6342  0.1445  0.7500
  210MOL0     H28315   7.774  -0.672   2.880 -1.1660 -0.7279  0.1543
  210MOL0     H28316   7.571  -0.275   2.987  0.4752  1.2437 -1.0729
  210MOL0     H28317   7.678  -0.297   2.859 -2.8759  2.0107 -1.2985
  210MOL0     H28318   7.516  -0.292   2.729  0.4542  1.0371  1.1607
  210MOL0     H28319   7.487  -0.464   2.773 -2.5922 -1.3311  2.4347
  210MOL0     H28320   7.338  -0.228   2.901  0.3184  0.0639  3.2879
  210MOL0     H28321   7.361  -0.390   2.969  1.7231  0.7369 -0.5497
  210MOL0     H28322   7.242  -0.374   2.691  3.1608 -1.0558 -0.9397
  210MOL0     H28323   7.237  -0.507   2.815  1.8823  1.2689  2.8374
  210MOL0     H28324   7.105  -0.242   2.847  2.6964  0.2207  1.3396
  210MOL0     H28325   7.087  -0.392   2.952 -0.2262 -1.5765 -0.1603
  210MOL0     H28326   7.007  -0.376   2.667  1.3617  2.1802  1.1869
  210MOL0     H28327   6.982  -0.519   2.771  0.9331 -0.6216 -2.3152
  210MOL0     H28328   6.867  -0.243   2.842 -1.3535  1.0435 -1.9992
  210MOL0     H28329   6.792  -0.400   2.878 -0.7830 -4.2266 -1.1670
  210MOL0     H28330   6.774  -0.404   2.604  0.1421  0.8431 -0.0600
  210MOL0     H28331   6.772  -0.227   2.643  3.4892  0.8113  2.3705
  210MOL0     H28332   7.791  -0.302   3.082  0.9635 -0.1987 -0.6057
  210MOL0     H28333   8.039  -0.323   3.093 -0.6226 -0.1084  2.7141
  210MOL0     H28334   8.354  -0.420   2.839 -0.5756  0.5571  1.8890
  210MOL0     H28335   8.585  -0.337   2.797 -1.2977  1.6700  1.2661
  210MOL0     H28336   7.889  -0.017   1.432 -3.3268 -1.4872  0.7151
  210MOL0     H28337   7.648   0.050   1.443  0.3225 -0.1028 -1.0894
  210MOL0     H28338   7.365   0.514   1.588 -1.2914  1.5885 -3.5755
  210MOL0     H28339   7.105   0.538   1.571  2.2533 -0.2957 -4.3639
  210MOL0     H28340   6.826   0.200   1.578  2.5421 -2.4123  0.6859
  210MOL0     H28341   6.844   0.216   1.756 -0.5337 -3.5537 -2.2695
  210MOL0     H28342   6.607   0.259   1.702 -0.2672 -0.5168  0.8468
  210MOL0     H28343   6.645   0.377   1.585 -1.0741  3.0624  0.8801
  210MOL0     H28344   6.738   0.395   1.884  2.8911  4.0024  0.5603
  210MOL0     H28345   6.584   0.459   1.838  0.4635 -0.2412  2.1066
  210MOL0     H28346   6.773   0.595   1.664 -0.9588 -0.7845  0.2089
  210MOL0     H28347   6.870   0.566   1.799  0.9499  0.3505 -1.3480
  210MOL0     H28348   6.565   0.818   1.961  1.9290 -0.4068  1.9456
  210MOL0     H28349   7.042   0.136   1.640  1.3231 -1.8983 -1.0165
  210MOL0     H28350   7.290   0.092   1.615 -0.2491  0.4182 -0.6148
  211MOL0     O28351   6.129   0.093   0.047  0.4903  0.1546 -0.1224
  211MOL0     C28352   6.205  -0.006   0.055 -0.3020 -0.0555  0.0641
  211MOL0     O28353   6.180  -0.127   0.013 -0.3997  0.3161  0.3137
  211MOL0     C28354   6.080  -0.149  -0.076  0.1102 -0.8117  0.2631
  211MOL0     C28355   6.086  -0.085  -0.200  0.4970  0.7334 -0.2928
  211MOL0     C28356   5.987  -0.112  -0.292 -0.4537 -0.5433 -0.2762
  211MOL0     C28357   5.880  -0.194  -0.273  0.3349 -0.5396 -0.3839
  211MOL0     O28358   5.790  -0.218  -0.379  0.1608  0.0968 -0.0625
  211MOL0     C28359   5.701  -0.332  -0.368 -0.5472 -0.3947 -0.1054
  211MOL0     C28360   5.619  -0.339  -0.495 -0.0733 -0.3156  0.6250
  211MOL0     C28361   5.530  -0.215  -0.522 -0.1999  0.2078 -0.2817
  211MOL0     C28362   5.437  -0.243  -0.639 -0.1262  0.1377 -0.0134
  211MOL0     C28363   5.366  -0.117  -0.688 -0.7368 -0.8028  0.7175
  211MOL0     C28364   5.469  -0.001  -0.729 -0.0047  0.1912  0.9140
  211MOL0     C28365   5.401   0.102  -0.820 -0.7045 -1.0964 -0.2845
  211MOL0     C28366   5.269   0.169  -0.763 -0.6082  0.1954  1.6276
  211MOL0     N28367   5.306   0.226  -0.638  0.3017 -0.0693 -0.6622
  211MOL0     C28368   5.410   0.309  -0.594  0.9705  0.0901  0.9460
  211MOL0     C28369   5.408   0.311  -0.464 -0.6377 -0.4039  0.3617
  211MOL0     C28370   5.511   0.379  -0.375 -0.5055  0.8602 -0.0528
  211MOL0     C28371   5.633   0.282  -0.332  0.8961 -0.6685  0.4419
  211MOL0     C28372   5.736   0.371  -0.250 -0.0677 -0.2224  0.6076
  211MOL0     C28373   5.837   0.439  -0.345  0.1170 -0.6978 -0.5260
  211MOL0     O28374   5.927   0.342  -0.401  0.1066 -0.9992 -0.2327
  211MOL0     C28375   6.057   0.316  -0.351  0.4000 -0.9045  0.3022
  211MOL0     C28376   6.134   0.231  -0.427 -0.1624 -0.2741 -0.3215
  211MOL0     C28377   6.260   0.197  -0.388  0.2735  0.4532  0.2401
  211MOL0     C28378   6.341   0.103  -0.474 -0.2987 -0.7724  0.3998
  211MOL0     C28379   6.312   0.234  -0.257  0.4551  0.3858  0.7120
  211MOL0     C28380   6.440   0.178  -0.200  0.3096 -0.0568 -0.1306
  211MOL0     O28381   6.526   0.273  -0.168 -0.0460 -0.8288  0.6384
  211MOL0     C28382   6.651   0.267  -0.117  1.1183  0.2529 -0.5422
  211MOL0     C28383   6.699   0.164  -0.037 -0.2615 -0.1402  0.1390
  211MOL0     C28384   6.828   0.162   0.011 -0.2537 -0.3647 -0.2426
  211MOL0     C28385   6.919   0.263  -0.023  0.0087 -0.1853 -0.5996
  211MOL0     O28386   7.045   0.256   0.035  0.5187 -0.2796 -0.3897
  211MOL0     C28387   7.137   0.368   0.043  0.8769 -0.0078  0.0149
  211MOL0     C28388   7.275   0.316   0.079  0.5527  0.0095 -0.1772
  211MOL0     C28389   7.390   0.393   0.004  0.1484 -0.8651 -0.0817
  211MOL0     C28390   7.524   0.372   0.075  0.1194  0.4754 -0.1809
  211MOL0     C28391   7.588   0.238   0.049 -0.0117 -0.1509  0.1348
  211MOL0     C28392   7.625   0.217  -0.095  0.2701  0.2714  0.5367
  211MOL0     C28393   7.687   0.083  -0.093  0.4669 -0.4190 -0.2916
  211MOL0     C28394   7.752   0.040  -0.229 -0.5541  0.6649  0.8029
  211MOL0    Cl28395   7.888   0.152  -0.255  0.1405  0.2557 -0.1367
  211MOL0     C28396   6.874   0.362  -0.110  0.8615 -0.1569 -0.2396
  211MOL0     C28397   6.746   0.366  -0.159  0.1151 -0.1636  0.2429
  211MOL0     O28398   6.462   0.061  -0.196  0.2882  0.3349  0.0592
  211MOL0     C28399   6.231   0.323  -0.180 -0.5519 -0.1960 -0.5278
  211MOL0     C28400   6.109   0.364  -0.229 -0.0864 -0.1059 -0.1881
  211MOL0     N28401   5.299   0.251  -0.423  0.1280  0.1792  0.3483
  211MOL0     N28402   5.241   0.193  -0.523 -0.2757  0.3722 -0.3619
  211MOL0     C28403   5.876  -0.254  -0.143  0.0261  0.6219 -0.2623
  211MOL0     C28404   5.980  -0.242  -0.055 -1.1534  0.0031 -0.4262
  211MOL0     C28405   6.340   0.012   0.123 -0.2533 -0.5811 -0.0648
  211MOL0     C28406   6.431  -0.091   0.124  0.7862 -0.8228 -0.4106
  211MOL0     C28407   6.548  -0.083   0.204  0.2339  0.9033 -0.0548
  211MOL0     C28408   6.578   0.033   0.276  0.7050  1.3467  0.2162
  211MOL0     O28409   6.688   0.034   0.357  0.2177 -0.0337 -0.9881
  211MOL0     C28410   6.734   0.162   0.407 -0.2042  0.4361  0.6803
  211MOL0     C28411   6.859   0.145   0.498  0.6171 -1.1482  0.2377
  211MOL0     C28412   6.974   0.135   0.393 -0.4926  0.1930 -0.4278
  211MOL0     C28413   7.094   0.077   0.473 -0.7148 -0.6790  0.0591
  211MOL0     C28414   7.226   0.094   0.403  0.1534 -1.1742 -0.2792
  211MOL0     C28415   7.332   0.130   0.369  0.2509  0.3694 -0.0571
  211MOL0     C28416   6.488   0.139   0.259 -0.2343  0.2152 -0.4469
  211MOL0     C28417   6.381   0.132   0.176  0.0537 -0.0949 -0.0577
  211MOL0     H28418   6.178  -0.035  -0.228  1.1119  0.1097  0.5538
  211MOL0     H28419   5.995  -0.060  -0.387  2.2981  0.0988  0.2261
  211MOL0     H28420   5.768  -0.418  -0.361  1.8637  1.4680  1.7428
  211MOL0     H28421   5.632  -0.335  -0.284 -0.4455 -0.3861 -0.0213
  211MOL0     H28422   5.686  -0.353  -0.581 -0.6000  1.5240 -0.1562
  211MOL0     H28423   5.561  -0.432  -0.492 -2.0360  0.4617 -3.7389
  211MOL0     H28424   5.462  -0.185  -0.442 -1.6992  0.3029 -1.5316
  211MOL0     H28425   5.598  -0.130  -0.535  0.3364  0.1697  1.9349
  211MOL0     H28426   5.505  -0.283  -0.714 -1.0835  0.3534 -1.0219
  211MOL0     H28427   5.362  -0.318  -0.611  1.1139 -0.1361  2.8849
  211MOL0     H28428   5.313  -0.147  -0.779  0.1749  0.0147 -0.1115
  211MOL0     H28429   5.297  -0.075  -0.615 -0.6020 -0.6342  0.7502
  211MOL0     H28430   5.505   0.044  -0.636  0.0363 -0.9799  1.4870
  211MOL0     H28431   5.557  -0.043  -0.779  1.1980  1.1667  2.1077
  211MOL0     H28432   5.473   0.183  -0.833 -1.7902 -0.3152 -1.7759
  211MOL0     H28433   5.379   0.050  -0.913  1.0125 -1.4131 -0.5381
  211MOL0     H28434   5.183   0.101  -0.762  0.1337 -0.7968  1.0475
  211MOL0     H28435   5.253   0.247  -0.838 -1.5518  1.0531  2.7015
  211MOL0     H28436   5.486   0.358  -0.654  2.0492 -2.2483  0.2759
  211MOL0     H28437   5.555   0.458  -0.436 -0.2939  0.2483 -0.6926
  211MOL0     H28438   5.452   0.414  -0.289 -2.2223 -1.1071 -0.3349
  211MOL0     H28439   5.676   0.235  -0.421 -0.9407 -2.6436  0.5105
  211MOL0     H28440   5.585   0.200  -0.278 -0.3615 -0.0888  0.2635
  211MOL0     H28441   5.811   0.318  -0.190 -1.3263 -1.8540  0.8097
  211MOL0     H28442   5.678   0.433  -0.181 -2.8127 -1.5101 -0.3936
  211MOL0     H28443   5.887   0.523  -0.297 -1.2254 -0.8358  1.2374
  211MOL0     H28444   5.778   0.488  -0.423  2.7288  1.4821 -1.2902
  211MOL0     H28445   6.092   0.183  -0.515 -0.2226  1.7231 -1.4433
  211MOL0     H28446   6.315  -0.001  -0.449 -1.8419 -0.5000  0.0289
  211MOL0     H28447   6.329   0.117  -0.582  2.2458 -2.1061 -0.1423
  211MOL0     H28448   6.449   0.113  -0.460 -0.2554 -2.2233  1.4528
  211MOL0     H28449   6.638   0.080  -0.004  2.0227 -1.1691  2.0237
  211MOL0     H28450   6.844   0.101   0.099 -1.5420 -0.2741  0.0637
  211MOL0     H28451   7.139   0.423  -0.052 -0.8747  2.5306  1.3329
  211MOL0     H28452   7.106   0.430   0.127 -3.0172  0.8881 -1.8094
  211MOL0     H28453   7.284   0.341   0.185  1.4542 -0.2791 -0.1785
  211MOL0     H28454   7.282   0.207   0.074  2.6918 -0.0072  1.6256
  211MOL0     H28455   7.374   0.501   0.006 -0.4311 -0.7726 -3.6311
  211MOL0     H28456   7.381   0.355  -0.098  0.4288  1.0785 -0.8712
  211MOL0     H28457   7.589   0.451   0.035  0.8470  0.5051  1.0024
  211MOL0     H28458   7.510   0.393   0.182  2.7821  1.5183  0.0353
  211MOL0     H28459   7.518   0.160   0.078 -2.0768  2.0612  1.3781
  211MOL0     H28460   7.677   0.232   0.112 -1.2100 -0.6205  1.8427
  211MOL0     H28461   7.540   0.209  -0.163  0.1237 -0.8669  0.8377
  211MOL0     H28462   7.695   0.290  -0.137 -1.7351  1.2407 -1.3087
  211MOL0     H28463   7.609   0.014  -0.062 -1.4945  0.9230 -1.8919
  211MOL0     H28464   7.770   0.083  -0.022 -2.7766 -0.8474  3.8406
  211MOL0     H28465   7.680   0.053  -0.311  0.8894  1.4127 -0.4023
  211MOL0     H28466   7.781  -0.065  -0.219 -1.4666  0.5843  3.2563
  211MOL0     H28467   6.942   0.437  -0.151 -1.0602  0.3062 -2.8377
  211MOL0     H28468   6.720   0.443  -0.230 -1.9872  0.7391  1.8680
  211MOL0     H28469   6.267   0.359  -0.085  2.6453  3.2574 -2.7850
  211MOL0     H28470   6.048   0.430  -0.167 -0.2674 -0.1077 -0.3639
  211MOL0     H28471   5.803  -0.329  -0.114 -1.7504  2.0872 -0.7501
  211MOL0     H28472   5.977  -0.298   0.038 -1.3702 -1.2944 -1.1862
  211MOL0     H28473   6.419  -0.186   0.074  3.1179 -0.5018 -1.6759
  211MOL0     H28474   6.623  -0.159   0.182 -1.9056 -0.8597 -1.7915
  211MOL0     H28475   6.756   0.237   0.330  2.8472  0.9115  1.8856
  211MOL0     H28476   6.642   0.186   0.461 -1.6310 -1.9469 -0.5172
  211MOL0     H28477   6.853   0.046   0.545  4.1757 -2.1119 -1.0104
  211MOL0     H28478   6.873   0.224   0.572 -0.2005  1.0891 -1.8647
  211MOL0     H28479   7.000   0.231   0.349  1.9396 -1.6977 -3.6322
  211MOL0     H28480   6.956   0.066   0.310  0.3001  0.6175 -0.9667
  211MOL0     H28481   7.074  -0.026   0.506  1.2099 -0.5026  2.0693
  211MOL0     H28482   7.103   0.136   0.565 -0.6427 -0.5319 -0.0424
  211MOL0     H28483   7.421   0.179   0.334  0.4943  0.0201  0.0733
  211MOL0     H28484   6.498   0.233   0.312 -1.0376  0.6590 -1.0695
  211MOL0     H28485   6.315   0.215   0.155 -1.7590 -1.6705 -0.9473
  212MOL0     O28486   7.133  10.822   4.360 -0.1351  1.1229 -0.5766
  212MOL0     C28487   7.206  10.921   4.353 -0.7891 -0.4579  0.6297
  212MOL0     O28488   7.188  11.038   4.422 -0.5233 -0.1299 -0.3744
  212MOL0     C28489   7.059  11.070   4.463 -0.1695 -0.8830 -0.1467
  212MOL0     C28490   7.039  11.124   4.586  0.0005 -0.8121  0.6877
  212MOL0     C28491   6.911  11.158   4.636  0.6440 -0.0098 -0.6617
  212MOL0     C28492   6.797  11.125   4.562 -0.8525 -0.4549  0.3481
  212MOL0     O28493   6.669  11.145   4.600 -0.4672 -0.3677 -0.2628
  212MOL0     C28494   6.635  11.090   4.723  0.4035 -0.5348  0.7184
  212MOL0     C28495   6.479  11.070   4.727 -0.1624  0.6816 -0.6803
  212MOL0     C28496   6.435  10.931   4.674 -0.5562 -0.0888 -0.0770
  212MOL0     C28497   6.292  10.906   4.706  0.6776  0.9261  0.7457
  212MOL0     C28498   6.213  10.854   4.584  0.3887  0.1114 -0.6671
  212MOL0     C28499   6.058  10.857   4.603  0.5495  0.6614 -0.6948
  212MOL0     C28500   5.982  10.792   4.485 -0.2597 -0.0768  0.5463
  212MOL0     C28501   5.830  10.783   4.517 -0.4798 -0.1452  0.8977
  212MOL0     N28502   5.757  10.913   4.517  0.1086 -0.1656 -0.4901
  212MOL0     C28503   5.707  10.978   4.410 -0.3949 -0.1745  0.7830
  212MOL0     C28504   5.645  11.081   4.475 -0.4024 -0.4917  0.0667
  212MOL0     C28505   5.571  11.193   4.406  0.6455  0.3582 -0.5620
  212MOL0     C28506   5.416  11.151   4.377 -0.7318  0.1361  0.1260
  212MOL0     C28507   5.326  11.130   4.494 -0.5922 -0.3838 -0.4596
  212MOL0     C28508   5.180  11.096   4.462 -0.6470 -0.4340  0.4447
  212MOL0     O28509   5.168  10.960   4.421 -0.3466  0.1081  0.3763
  212MOL0     C28510   5.048  10.895   4.452  0.2632 -0.1653 -0.0280
  212MOL0     C28511   5.057  10.759   4.477  0.8725  0.8435 -0.1276
  212MOL0     C28512   4.945  10.685   4.509 -0.0989  0.6169 -0.1302
  212MOL0     C28513   4.948  10.534   4.503  0.2786  0.3995  0.2854
  212MOL0     C28514   4.822  10.759   4.532 -0.3876 -0.0383 -0.2430
  212MOL0     C28515   4.696  10.700   4.572 -0.1239  0.4000 -0.1157
  212MOL0     O28516   4.597  10.786   4.571  0.0305 -0.5108  0.9077
  212MOL0     C28517   4.465  10.745   4.588 -0.2307 -0.4104 -0.0574
  212MOL0     C28518   4.367  10.839   4.602  0.1005  0.0484 -0.0203
  212MOL0     C28519   4.232  10.805   4.603  0.0640  0.4589 -0.0951
  212MOL0     C28520   4.185  10.677   4.567  0.4061 -0.3765  0.3907
  212MOL0     O28521   4.050  10.656   4.554  0.0814  0.6269  1.3575
  212MOL0     C28522   4.002  10.517   4.558 -0.0692 -0.8865 -0.1176
  212MOL0     C28523   3.858  10.510   4.625 -0.4687 -0.1445  0.0312
  212MOL0     C28524   3.801  10.370   4.612  0.5316 -0.6314  0.0049
  212MOL0     C28525   3.659  10.359   4.676 -0.5254 -0.6569  0.1683
  212MOL0     C28526   3.599  10.224   4.655 -0.0449 -0.4111 -0.8230
  212MOL0     C28527   3.662  10.117   4.754 -0.0342 -0.0659  1.4100
  212MOL0     C28528   3.671  10.159   4.893  0.5331  0.3708  0.1238
  212MOL0     C28529   3.723  10.052   4.995  0.4960 -0.7317  0.7420
  212MOL0    Cl28530   3.619   9.901   4.978 -0.2163  0.3282 -0.0189
  212MOL0     C28531   4.290  10.588   4.536  0.0346  0.1922  0.3487
  212MOL0     C28532   4.427  10.623   4.532 -0.1176  0.1193 -0.0693
  212MOL0     O28533   4.695  10.588   4.628 -0.0246 -0.3961 -0.2929
  212MOL0     C28534   4.826  10.901   4.540  0.5455  0.4397  1.0260
  212MOL0     C28535   4.936  10.968   4.483  0.2152 -0.1224 -0.1485
  212MOL0     N28536   5.682  11.091   4.608  0.3107 -0.7299 -0.3101
  212MOL0     N28537   5.751  10.986   4.628  1.0088  0.5258 -0.0189
  212MOL0     C28538   6.818  11.070   4.435 -0.7464  0.7894 -0.4615
  212MOL0     C28539   6.948  11.046   4.392 -0.8466  0.0071  0.2177
  212MOL0     C28540   7.323  10.904   4.257  0.3910  0.0924 -0.1610
  212MOL0     C28541   7.330  10.782   4.187 -0.6323  0.3247 -1.4515
  212MOL0     C28542   7.429  10.766   4.094 -0.3382 -0.1501 -0.1817
  212MOL0     C28543   7.516  10.869   4.055 -1.2879  0.0212  0.0020
  212MOL0     O28544   7.617  10.862   3.959 -0.5260  0.5754 -0.2480
  212MOL0     C28545   7.651  10.729   3.912 -0.1718 -0.6081 -0.1918
  212MOL0     C28546   7.798  10.711   3.862  0.5656 -0.2875 -0.3936
  212MOL0     C28547   7.819  10.563   3.824 -0.2904  0.4344  0.0458
  212MOL0     C28548   7.955  10.556   3.757 -0.8979 -0.2156  0.4833
  212MOL0     C28549   7.969  10.427   3.688 -0.2973 -1.0363  0.1239
  212MOL0     C28550   7.983  10.327   3.618 -0.2792  0.3719 -0.6509
  212MOL0     C28551   7.508  10.984   4.135  0.1663  0.6425  0.1064
  212MOL0     C28552   7.423  10.996   4.238  0.0900  0.6150 -0.0202
  212MOL0     H28553   7.119  11.139   4.658 -1.0188 -0.4624  1.7642
  212MOL0     H28554   6.913  11.205   4.734 -1.2922  1.7067 -1.3775
  212MOL0     H28555   6.688  10.996   4.742  1.8916 -0.0619 -0.7945
  212MOL0     H28556   6.659  11.155   4.808 -0.9216 -0.7882  1.3092
  212MOL0     H28557   6.432  11.069   4.826 -1.1628 -1.4902 -1.1033
  212MOL0     H28558   6.424  11.145   4.670 -1.7653 -0.0327 -0.1412
  212MOL0     H28559   6.451  10.926   4.566 -0.2424 -0.6255 -0.0085
  212MOL0     H28560   6.498  10.856   4.721 -0.0119 -0.8276 -1.9067
  212MOL0     H28561   6.293  10.831   4.786  2.8457  0.5736  0.4484
  212MOL0     H28562   6.248  11.000   4.739  2.7137  2.7931 -1.5688
  212MOL0     H28563   6.241  10.910   4.494  2.8615  1.1312  0.6357
  212MOL0     H28564   6.248  10.751   4.572 -0.4043 -0.1644 -0.6615
  212MOL0     H28565   6.030  10.810   4.697  0.4806  2.9457  0.5071
  212MOL0     H28566   6.031  10.963   4.616 -0.2592  0.4429 -0.5379
  212MOL0     H28567   5.997  10.850   4.393  0.8870  1.5827  1.7435
  212MOL0     H28568   6.026  10.693   4.469 -0.1894 -0.1683  1.2760
  212MOL0     H28569   5.831  10.738   4.617 -1.1755  2.1199  1.9940
  212MOL0     H28570   5.779  10.718   4.445  3.0850 -1.6580 -0.4840
  212MOL0     H28571   5.684  10.945   4.310 -1.7990  3.3799 -0.2411
  212MOL0     H28572   5.568  11.284   4.466  3.1805  2.0207 -2.6892
  212MOL0     H28573   5.622  11.216   4.312  0.6495  3.3801  0.0545
  212MOL0     H28574   5.411  11.056   4.323 -0.9321  0.9913 -1.4127
  212MOL0     H28575   5.366  11.228   4.317 -2.4233 -2.6317 -2.2998
  212MOL0     H28576   5.329  11.222   4.554 -1.5201  1.5076 -3.1361
  212MOL0     H28577   5.373  11.050   4.552  1.8520 -0.2282 -2.0903
  212MOL0     H28578   5.144  11.161   4.381 -0.4627 -0.2941  0.4766
  212MOL0     H28579   5.116  11.113   4.549  0.1556 -1.2265  1.2059
  212MOL0     H28580   5.152  10.716   4.447 -1.2366 -2.7112 -2.4661
  212MOL0     H28581   4.965  10.493   4.602 -1.6212 -1.0815  0.0629
  212MOL0     H28582   4.860  10.492   4.453  0.0166  1.7341 -0.4483
  212MOL0     H28583   5.029  10.502   4.437 -0.7440 -0.8523 -0.4012
  212MOL0     H28584   4.402  10.929   4.650  2.1138 -1.0200  0.6104
  212MOL0     H28585   4.166  10.887   4.625 -0.4034  1.1980 -3.6984
  212MOL0     H28586   4.010  10.473   4.459  0.8661 -1.5995  0.2589
  212MOL0     H28587   4.067  10.460   4.625  1.7113  0.5211 -0.5811
  212MOL0     H28588   3.866  10.552   4.726  1.4741  0.5477 -0.3660
  212MOL0     H28589   3.800  10.575   4.559 -0.3395 -0.8345 -0.7875
  212MOL0     H28590   3.860  10.301   4.673 -0.5907 -0.9633  0.7617
  212MOL0     H28591   3.797  10.326   4.512 -1.1296 -3.8948  1.3602
  212MOL0     H28592   3.677  10.406   4.773  2.2244  1.1098 -1.0784
  212MOL0     H28593   3.588  10.423   4.622 -0.5816  0.5563  1.6130
  212MOL0     H28594   3.619  10.195   4.552  1.6213 -1.4376 -0.2459
  212MOL0     H28595   3.492  10.213   4.675  0.3686  0.4819  2.5864
  212MOL0     H28596   3.610  10.021   4.745 -0.9095  0.5998 -2.2091
  212MOL0     H28597   3.759  10.102   4.704 -0.8332  0.9393 -0.5749
  212MOL0     H28598   3.566  10.180   4.913  0.2742 -2.7199  3.0508
  212MOL0     H28599   3.741  10.243   4.896  1.7852 -0.6625  2.6266
  212MOL0     H28600   3.723  10.095   5.095  3.2217  1.3211 -0.0277
  212MOL0     H28601   3.825  10.020   4.972  0.4613 -0.8329  0.7279
  212MOL0     H28602   4.265  10.489   4.500 -2.6185  2.4507 -5.1771
  212MOL0     H28603   4.498  10.545   4.511 -0.0124  0.0598  0.4779
  212MOL0     H28604   4.738  10.958   4.569 -0.7167 -0.7528 -0.3412
  212MOL0     H28605   4.925  11.074   4.464  0.3387  0.2474  1.6960
  212MOL0     H28606   6.741  11.041   4.364 -1.6158  0.2928  0.6547
  212MOL0     H28607   6.968  11.007   4.293 -0.6637  1.3237 -0.2923
  212MOL0     H28608   7.256  10.703   4.197  0.6911 -0.8015 -0.0693
  212MOL0     H28609   7.440  10.674   4.038 -1.7830  1.1840 -2.9173
  212MOL0     H28610   7.647  10.659   3.996  0.7898 -1.7483 -1.0518
  212MOL0     H28611   7.579  10.706   3.833 -0.7942  4.9710 -1.6756
  212MOL0     H28612   7.876  10.742   3.931 -0.6388 -1.1417  1.4298
  212MOL0     H28613   7.808  10.770   3.770  0.7740  0.3186  0.0126
  212MOL0     H28614   7.752  10.528   3.745 -0.1314  1.4443 -0.5539
  212MOL0     H28615   7.821  10.498   3.913  1.3213  1.3511  0.7141
  212MOL0     H28616   8.039  10.575   3.824 -1.6751  3.1912  0.6567
  212MOL0     H28617   7.965  10.632   3.678 -0.1779 -2.5240 -1.8024
  212MOL0     H28618   7.998  10.238   3.560 -2.0168 -0.1255 -0.4074
  212MOL0     H28619   7.581  11.064   4.127  1.3099 -0.0159  2.8737
  212MOL0     H28620   7.424  11.090   4.292 -1.9005  0.8890 -0.3843
  213MOL0     O28621   8.640   5.516   9.244 -0.9805  0.2141 -0.3353
  213MOL0     C28622   8.719   5.452   9.178 -0.2341  0.9120  0.1988
  213MOL0     O28623   8.733   5.310   9.183 -0.0169 -0.3429 -1.1945
  213MOL0     C28624   8.639   5.231   9.249  0.2967  0.9888  0.6570
  213MOL0     C28625   8.683   5.180   9.375  0.2759 -0.3229 -0.4072
  213MOL0     C28626   8.601   5.099   9.449  0.0680 -1.0573 -0.3622
  213MOL0     C28627   8.474   5.075   9.401  0.5240 -0.5167  0.0070
  213MOL0     O28628   8.389   4.999   9.481 -0.0580 -0.1026  0.4819
  213MOL0     C28629   8.256   5.034   9.496 -0.0712  0.4698  0.2656
  213MOL0     C28630   8.197   4.915   9.584 -0.0346 -0.8847  0.4584
  213MOL0     C28631   8.198   4.961   9.732 -0.5157 -0.0826 -0.0462
  213MOL0     C28632   8.067   5.016   9.783 -0.8431 -0.0012  0.0066
  213MOL0     C28633   8.072   5.042   9.935  0.6220 -0.3861  0.8203
  213MOL0     C28634   7.967   5.143   9.980  0.7334  0.3043  0.2468
  213MOL0     C28635   7.825   5.115   9.917  0.1038 -0.4217 -1.2114
  213MOL0     C28636   7.719   5.201   9.991  0.2542 -0.0698 -0.5146
  213MOL0     N28637   7.599   5.204   9.906  0.0557 -0.5417 -0.4087
  213MOL0     C28638   7.515   5.093   9.883  1.1316 -0.0270 -0.7195
  213MOL0     C28639   7.435   5.117   9.787  0.6733 -0.0140  0.5099
  213MOL0     C28640   7.340   5.011   9.726 -0.3174 -0.7649 -0.1266
  213MOL0     C28641   7.248   5.074   9.620  0.0663 -0.1090  0.3866
  213MOL0     C28642   7.128   5.145   9.689 -0.3807  0.3265  0.1662
  213MOL0     C28643   6.995   5.161   9.609 -0.1652  0.0421  0.5918
  213MOL0     O28644   7.023   5.235   9.480 -0.3956  0.1626 -0.2242
  213MOL0     C28645   6.929   5.325   9.435 -0.1150 -0.3993  0.4758
  213MOL0     C28646   6.973   5.446   9.379  0.7120 -0.4061 -0.2727
  213MOL0     C28647   6.890   5.529   9.302 -0.2733 -0.1005  0.6757
  213MOL0     C28648   6.953   5.644   9.240 -0.2841  0.2527 -0.0854
  213MOL0     C28649   6.751   5.498   9.298 -0.6802  0.7574  0.4505
  213MOL0     C28650   6.659   5.581   9.217 -0.6139  0.8227 -0.2369
  213MOL0     O28651   6.530   5.536   9.214  0.2840 -0.1701  0.2331
  213MOL0     C28652   6.425   5.611   9.154 -0.2533  0.3661 -0.0902
  213MOL0     C28653   6.435   5.702   9.053 -0.1224  0.2701 -0.3467
  213MOL0     C28654   6.331   5.775   9.014  0.3514 -0.2814  0.7169
  213MOL0     C28655   6.204   5.748   9.073  0.1782  1.0330 -0.7684
  213MOL0     O28656   6.107   5.832   9.030 -0.3295 -0.0540 -0.4046
  213MOL0     C28657   5.981   5.827   9.085  0.0448 -0.5948 -0.2799
  213MOL0     C28658   5.896   5.942   9.034 -0.1696 -0.6512  0.1999
  213MOL0     C28659   5.748   5.936   9.069  0.2010  0.2712 -0.1487
  213MOL0     C28660   5.661   6.064   9.052 -0.3857 -0.6481  0.2157
  213MOL0     C28661   5.517   6.054   9.101 -0.2413  0.5359  0.8773
  213MOL0     C28662   5.433   6.181   9.073 -0.1617  0.2054  0.3538
  213MOL0     C28663   5.404   6.206   8.922 -0.1051  0.3738  0.0093
  213MOL0     C28664   5.294   6.305   8.902  0.5524 -1.1861  0.2145
  213MOL0    Cl28665   5.143   6.253   8.992  0.1015 -0.2336 -0.4728
  213MOL0     C28666   6.192   5.649   9.168  0.3919 -0.5989 -0.1300
  213MOL0     C28667   6.301   5.581   9.210  0.0237  0.3103  0.4960
  213MOL0     O28668   6.694   5.685   9.171  0.0683 -0.4080 -0.6329
  213MOL0     C28669   6.707   5.376   9.353 -0.4521 -0.7582 -0.3112
  213MOL0     C28670   6.798   5.293   9.419 -0.1172  0.4405  0.1680
  213MOL0     N28671   7.474   5.239   9.731  0.8604  0.2374  0.2389
  213MOL0     N28672   7.566   5.288   9.807 -0.2478 -1.5141  0.4182
  213MOL0     C28673   8.429   5.116   9.275 -0.2446  1.5487  0.3906
  213MOL0     C28674   8.514   5.197   9.196 -0.3266 -0.2419  0.2852
  213MOL0     C28675   8.821   5.527   9.105 -0.2801 -0.5454  0.5986
  213MOL0     C28676   8.807   5.668   9.078  0.9264  0.3186 -0.2748
  213MOL0     C28677   8.918   5.741   9.023  0.8854  0.1739 -0.1400
  213MOL0     C28678   9.033   5.677   8.973 -0.2222 -0.2275  0.7576
  213MOL0     O28679   9.129   5.759   8.922 -0.0056 -0.1212 -0.4719
  213MOL0     C28680   9.120   5.789   8.786 -0.1878 -1.2733 -0.2680
  213MOL0     C28681   9.250   5.857   8.732 -0.9125  0.3609 -0.2018
  213MOL0     C28682   9.381   5.789   8.762  0.0520 -0.0070  0.3451
  213MOL0     C28683   9.407   5.665   8.681 -0.0059  0.2435  0.3751
  213MOL0     C28684   9.542   5.606   8.683  0.5836  0.0721 -0.4471
  213MOL0     C28685   9.642   5.540   8.675  0.4881 -0.0530 -0.9741
  213MOL0     C28686   9.040   5.538   8.992 -0.5473 -0.1109 -0.2094
  213MOL0     C28687   8.942   5.472   9.063  0.0411  0.0791 -0.0792
  213MOL0     H28688   8.781   5.206   9.415  1.4419  0.7845 -3.6490
  213MOL0     H28689   8.628   5.067   9.549 -1.8987  0.1912  0.6187
  213MOL0     H28690   8.233   5.128   9.547 -1.1093 -0.1664  1.0391
  213MOL0     H28691   8.214   5.038   9.395  0.7589 -1.8859 -0.2455
  213MOL0     H28692   8.092   4.905   9.557  0.3708  0.3915 -1.8981
  213MOL0     H28693   8.252   4.823   9.564 -2.9759 -2.8671  0.9685
  213MOL0     H28694   8.210   4.871   9.794 -6.6184  0.0106  1.8894
  213MOL0     H28695   8.278   5.034   9.745 -0.9488  0.5891 -1.0482
  213MOL0     H28696   8.054   5.106   9.722  1.5278  1.5071  1.5639
  213MOL0     H28697   7.979   4.954   9.764  1.0733 -1.7702 -4.9588
  213MOL0     H28698   8.034   4.952   9.985 -1.6674 -0.9258 -1.6331
  213MOL0     H28699   8.173   5.079   9.952  1.2994 -0.2772 -2.6848
  213MOL0     H28700   7.959   5.136  10.088  3.8963 -3.4565  0.4313
  213MOL0     H28701   7.992   5.246   9.953 -1.7205  0.2245 -2.9588
  213MOL0     H28702   7.822   5.125   9.808 -3.1136  0.7093 -1.1174
  213MOL0     H28703   7.801   5.012   9.946 -1.3303  0.7739  2.3114
  213MOL0     H28704   7.752   5.305  10.002  1.9796 -0.5263 -1.1187
  213MOL0     H28705   7.696   5.162  10.090  0.2968 -0.6713 -0.7340
  213MOL0     H28706   7.515   5.007   9.949  1.5899  0.8174  0.4332
  213MOL0     H28707   7.391   4.923   9.686 -1.7293 -0.2934 -3.2686
  213MOL0     H28708   7.275   4.970   9.804  1.3561 -1.0361  1.1709
  213MOL0     H28709   7.209   4.988   9.565  0.7287 -1.1422  1.4989
  213MOL0     H28710   7.302   5.140   9.551  0.3800  0.4088  1.1088
  213MOL0     H28711   7.166   5.244   9.717 -0.0732  0.6773 -1.3880
  213MOL0     H28712   7.106   5.084   9.778 -1.2553  0.6814  0.2068
  213MOL0     H28713   6.913   5.215   9.658  1.0375  2.1080  0.4166
  213MOL0     H28714   6.962   5.060   9.583  1.9760 -0.8359  1.1194
  213MOL0     H28715   7.076   5.477   9.390  0.5177  0.6882 -1.2567
  213MOL0     H28716   7.059   5.616   9.235 -0.2482  0.5177 -0.9835
  213MOL0     H28717   6.930   5.644   9.133 -1.0797  0.9645  0.0768
  213MOL0     H28718   6.935   5.746   9.276  2.1917  1.4580 -1.9477
  213MOL0     H28719   6.529   5.736   9.011  0.1402 -0.7238 -0.5799
  213MOL0     H28720   6.339   5.854   8.941  0.7652  0.0223  1.0827
  213MOL0     H28721   5.931   5.732   9.063 -0.1095  0.0144 -2.8334
  213MOL0     H28722   5.986   5.842   9.193  2.7925  0.1501 -0.4270
  213MOL0     H28723   5.936   6.034   9.078 -2.1634  2.2819 -3.5866
  213MOL0     H28724   5.900   5.955   8.926 -2.0243  1.9658  0.3402
  213MOL0     H28725   5.739   5.923   9.178 -2.4386 -1.0831 -0.4673
  213MOL0     H28726   5.703   5.856   9.010 -0.1565  0.0805  0.3741
  213MOL0     H28727   5.716   6.145   9.101 -1.7150  0.5223 -0.1637
  213MOL0     H28728   5.677   6.076   8.945 -1.4101 -0.8424  0.0251
  213MOL0     H28729   5.522   6.035   9.209  1.8304 -0.7855  0.6114
  213MOL0     H28730   5.462   5.970   9.059  0.6372 -0.0381  0.8556
  213MOL0     H28731   5.341   6.168   9.131  1.6776 -0.8864  3.2395
  213MOL0     H28732   5.486   6.267   9.114  1.5278  1.5271 -4.0494
  213MOL0     H28733   5.365   6.111   8.886  0.5605 -0.1459  0.6312
  213MOL0     H28734   5.498   6.235   8.875 -0.9521  1.7987 -0.8933
  213MOL0     H28735   5.264   6.305   8.796  1.6053 -0.4063 -0.0969
  213MOL0     H28736   5.318   6.406   8.937 -0.3118  0.0392 -2.4301
  213MOL0     H28737   6.094   5.638   9.213  1.3151 -0.7676  1.9490
  213MOL0     H28738   6.301   5.508   9.290 -1.1257 -0.0023  0.2317
  213MOL0     H28739   6.606   5.339   9.333 -0.1209 -0.4003 -2.8948
  213MOL0     H28740   6.764   5.199   9.461  0.1141 -0.2030 -1.0715
  213MOL0     H28741   8.327   5.092   9.245  0.5606  0.1401 -1.3653
  213MOL0     H28742   8.491   5.224   9.093  2.8818 -4.5274 -1.8863
  213MOL0     H28743   8.709   5.708   9.102 -0.5815 -4.1347  2.1461
  213MOL0     H28744   8.900   5.845   8.999  1.4408 -0.3185 -3.1278
  213MOL0     H28745   9.099   5.699   8.727  2.0376 -0.7292 -2.0380
  213MOL0     H28746   9.037   5.857   8.763  0.0287 -1.6953 -2.5595
  213MOL0     H28747   9.263   5.952   8.783 -0.5273 -0.2921  0.9538
  213MOL0     H28748   9.246   5.864   8.623  1.1649 -0.9300 -0.4277
  213MOL0     H28749   9.395   5.761   8.867  0.0501 -0.2667  0.2774
  213MOL0     H28750   9.452   5.868   8.735 -0.8356  0.7210  0.0974
  213MOL0     H28751   9.397   5.683   8.574  1.2556  2.4557  0.5779
  213MOL0     H28752   9.336   5.585   8.707  0.8485 -0.7317 -0.2266
  213MOL0     H28753   9.726   5.475   8.659  0.2382 -0.8009  0.5169
  213MOL0     H28754   9.131   5.487   8.965 -0.5704 -0.3106  0.0809
  213MOL0     H28755   8.959   5.368   9.089 -2.0203  0.1305  1.7759
  214MOL0     O28756   6.336   2.699   5.789  0.4269 -0.1617 -0.2397
  214MOL0     C28757   6.385   2.659   5.896  0.0401 -0.1631 -0.0376
  214MOL0     O28758   6.319   2.582   5.984  0.3817  0.0129 -0.3755
  214MOL0     C28759   6.197   2.528   5.942 -0.3911  0.2975  0.3920
  214MOL0     C28760   6.063   2.564   5.987  0.0115  0.6637 -0.3279
  214MOL0     C28761   5.951   2.477   5.960  0.1740  0.0474  0.0834
  214MOL0     C28762   5.973   2.354   5.893 -0.4386  0.1228  0.9649
  214MOL0     O28763   5.871   2.269   5.872  0.0453  0.1131  0.1157
  214MOL0     C28764   5.787   2.237   5.986 -0.2733  0.0970 -0.5545
  214MOL0     C28765   5.646   2.261   5.938  0.2596  0.3071  0.8137
  214MOL0     C28766   5.592   2.401   5.970  1.0269 -0.7385  0.5145
  214MOL0     C28767   5.433   2.389   5.959 -0.6508 -0.1270 -0.0910
  214MOL0     C28768   5.356   2.521   5.946  0.2833 -0.4831  0.6369
  214MOL0     C28769   5.208   2.493   5.884 -0.5670  0.4862 -0.4543
  214MOL0     C28770   5.106   2.467   6.005 -0.5215  0.4618  0.0563
  214MOL0     C28771   4.972   2.411   5.965 -0.8616 -0.5105 -0.1438
  214MOL0     N28772   4.883   2.514   5.899  0.6071 -1.1686 -0.0106
  214MOL0     C28773   4.892   2.582   5.782 -0.0458  0.1023 -0.7397
  214MOL0     C28774   4.780   2.652   5.766 -0.6421  0.2213 -0.1319
  214MOL0     C28775   4.748   2.750   5.657 -0.4191 -0.1959 -0.3465
  214MOL0     C28776   4.603   2.746   5.618  0.4290 -0.7533 -0.2762
  214MOL0     C28777   4.570   2.860   5.517  0.5623 -0.1767  0.2345
  214MOL0     C28778   4.426   2.848   5.462  0.5330 -0.0657  0.0704
  214MOL0     O28779   4.338   2.813   5.570  0.4770 -0.1833 -0.9132
  214MOL0     C28780   4.208   2.769   5.547 -0.1518  0.8893  0.6226
  214MOL0     C28781   4.140   2.731   5.659 -0.0726  0.4763 -1.2428
  214MOL0     C28782   4.005   2.701   5.665  0.1112 -0.6713  0.4260
  214MOL0     C28783   3.944   2.660   5.801  0.0143  0.3530  0.6245
  214MOL0     C28784   3.932   2.711   5.542 -0.5121  0.4099 -0.5654
  214MOL0     C28785   3.787   2.667   5.527 -0.0346 -0.2493  0.3653
  214MOL0     O28786   3.749   2.644   5.393  0.4802  0.0010 -0.4693
  214MOL0     C28787   3.621   2.599   5.364  0.0371 -0.7120  0.2820
  214MOL0     C28788   3.543   2.688   5.300  0.4689 -0.0048 -0.5478
  214MOL0     C28789   3.409   2.673   5.282 -0.2333 -0.4401  0.4729
  214MOL0     C28790   3.352   2.551   5.316 -0.0960  0.7317  0.6098
  214MOL0     O28791   3.219   2.514   5.303  0.1301 -0.0164  0.5088
  214MOL0     C28792   3.138   2.584   5.207  0.0424  0.3153  0.5244
  214MOL0     C28793   3.134   2.520   5.058  0.6091  0.4324 -0.3384
  214MOL0     C28794   3.085   2.372   5.048 -0.0614  0.7642  1.0418
  214MOL0     C28795   2.940   2.365   5.088  0.0621  0.0756 -0.2807
  214MOL0     C28796   2.897   2.221   5.099  0.6661  0.1517  0.6808
  214MOL0     C28797   2.736   2.206   5.109 -0.7139 -0.6501 -0.2671
  214MOL0     C28798   2.684   2.291   5.226  0.2560 -0.5930 -0.4988
  214MOL0     C28799   2.550   2.249   5.284  0.3145 -0.3655  0.0527
  214MOL0    Cl28800   2.505   2.351   5.424 -0.0552  0.0288 -0.3093
  214MOL0     C28801   3.434   2.448   5.369  0.2926 -0.5410  0.0449
  214MOL0     C28802   3.567   2.474   5.398 -0.4336  0.1435 -0.4651
  214MOL0     O28803   3.713   2.669   5.621 -0.2875 -0.3210 -0.7874
  214MOL0     C28804   4.000   2.739   5.427  0.0008  0.9058  1.0160
  214MOL0     C28805   4.140   2.771   5.425  0.0243  0.5528  0.6968
  214MOL0     N28806   4.709   2.639   5.877  0.7776 -0.4835 -0.0908
  214MOL0     N28807   4.771   2.560   5.959  0.0950  0.7392  0.9918
  214MOL0     C28808   6.096   2.324   5.842 -0.3813 -0.5222 -0.2883
  214MOL0     C28809   6.206   2.407   5.867  1.3116  0.0110  0.0310
  214MOL0     C28810   6.517   2.712   5.942 -0.2998 -0.7959 -0.8717
  214MOL0     C28811   6.602   2.782   5.853 -0.4959 -0.0806 -0.3354
  214MOL0     C28812   6.728   2.817   5.895  0.1177 -0.2279 -0.1997
  214MOL0     C28813   6.770   2.802   6.029  0.0274 -0.5522  0.3520
  214MOL0     O28814   6.897   2.825   6.086 -0.1399 -0.5707  0.6546
  214MOL0     C28815   6.993   2.880   5.988  0.0119 -0.1481 -0.4393
  214MOL0     C28816   7.132   2.924   6.047  1.0856  0.1745  0.3765
  214MOL0     C28817   7.213   2.805   6.088 -0.0430  0.6001  0.3383
  214MOL0     C28818   7.182   2.763   6.232  0.3427  0.0404  0.6449
  214MOL0     C28819   7.291   2.678   6.281 -0.3204 -0.3444 -0.2490
  214MOL0     C28820   7.377   2.604   6.318 -0.9773  0.3689  0.0498
  214MOL0     C28821   6.685   2.733   6.122 -0.8020 -0.6244 -0.0259
  214MOL0     C28822   6.566   2.688   6.077  0.1523  0.9677  0.3721
  214MOL0     H28823   6.038   2.652   6.044 -0.0729  2.4561 -2.9630
  214MOL0     H28824   5.853   2.507   5.996  1.1952  2.3984  1.1439
  214MOL0     H28825   5.790   2.132   6.016  0.1237 -0.4514 -2.3852
  214MOL0     H28826   5.801   2.286   6.083 -1.0545 -2.6074  1.0239
  214MOL0     H28827   5.654   2.258   5.829  0.8572  1.5847  0.7950
  214MOL0     H28828   5.582   2.189   5.990  1.3542 -0.2791  1.3960
  214MOL0     H28829   5.615   2.439   6.070 -2.2223  3.4104  0.0002
  214MOL0     H28830   5.627   2.478   5.901 -0.5770 -0.0979  0.3547
  214MOL0     H28831   5.420   2.337   5.863  0.7553 -0.4640 -0.1170
  214MOL0     H28832   5.382   2.343   6.044  0.2020  0.4778  0.7690
  214MOL0     H28833   5.338   2.576   6.038 -2.3748  1.2449 -0.7917
  214MOL0     H28834   5.411   2.592   5.883 -2.8729  1.2690 -0.3842
  214MOL0     H28835   5.168   2.580   5.831  2.5422  0.8916 -2.3554
  214MOL0     H28836   5.208   2.408   5.815  0.0741 -1.6575  2.0240
  214MOL0     H28837   5.153   2.398   6.076 -0.7787  1.3577  1.1459
  214MOL0     H28838   5.082   2.560   6.059  0.3862  1.0810 -0.5637
  214MOL0     H28839   4.929   2.366   6.055 -0.3006  0.3200  0.5599
  214MOL0     H28840   4.985   2.327   5.897  0.5570 -0.5875  0.1952
  214MOL0     H28841   4.975   2.600   5.714 -0.1931  1.9935 -0.4510
  214MOL0     H28842   4.784   2.850   5.686 -2.9265  0.0926  2.1096
  214MOL0     H28843   4.812   2.726   5.571 -1.0162  1.0456 -1.1716
  214MOL0     H28844   4.551   2.771   5.710  1.2014  1.4667 -0.3730
  214MOL0     H28845   4.573   2.651   5.572 -1.2501 -0.5228  0.2827
  214MOL0     H28846   4.640   2.861   5.432  1.6204  1.3360  1.0551
  214MOL0     H28847   4.577   2.954   5.573 -3.2347  0.1165  0.4634
  214MOL0     H28848   4.428   2.770   5.386  2.5492  1.4391 -1.5520
  214MOL0     H28849   4.387   2.937   5.412  1.6346  0.0062 -0.6972
  214MOL0     H28850   4.196   2.726   5.752 -0.7178 -2.4911 -0.9232
  214MOL0     H28851   4.023   2.666   5.876 -0.0713  0.3814  0.7135
  214MOL0     H28852   3.857   2.721   5.826 -1.1034 -1.5790  1.7019
  214MOL0     H28853   3.913   2.555   5.805  1.1989  0.0281  2.7203
  214MOL0     H28854   3.583   2.785   5.272  1.2952 -0.5770 -1.4151
  214MOL0     H28855   3.356   2.755   5.235 -0.8630 -1.4888 -0.7351
  214MOL0     H28856   3.035   2.595   5.243 -0.4645  2.8564 -1.4018
  214MOL0     H28857   3.166   2.688   5.186 -1.5556  0.9339  1.2258
  214MOL0     H28858   3.069   2.594   5.009 -0.3186  0.3226  0.6853
  214MOL0     H28859   3.234   2.528   5.016  0.3622  0.3157 -0.9596
  214MOL0     H28860   3.148   2.304   5.106 -0.6957 -0.4947  0.2938
  214MOL0     H28861   3.095   2.347   4.942  3.6537  0.6274  1.3125
  214MOL0     H28862   2.922   2.405   5.188 -3.3273  1.9725 -1.4890
  214MOL0     H28863   2.874   2.415   5.016 -1.3154 -1.0144  0.1839
  214MOL0     H28864   2.933   2.174   5.191  0.4883 -1.2113  0.0860
  214MOL0     H28865   2.941   2.158   5.021  0.5623 -0.4981  1.1403
  214MOL0     H28866   2.684   2.240   5.019 -2.4563 -1.3749  0.4148
  214MOL0     H28867   2.710   2.101   5.124  0.0488 -0.7729  0.2140
  214MOL0     H28868   2.671   2.392   5.185  3.7382  0.4771  0.6871
  214MOL0     H28869   2.758   2.297   5.306 -0.6722  1.3975  0.2796
  214MOL0     H28870   2.558   2.145   5.317 -0.5777 -0.3011  0.4870
  214MOL0     H28871   2.474   2.243   5.205 -0.9606  1.9667  1.0149
  214MOL0     H28872   3.385   2.355   5.395  1.8235 -1.3040  0.3117
  214MOL0     H28873   3.621   2.392   5.444 -0.6668  1.0132  1.4359
  214MOL0     H28874   3.943   2.758   5.336  2.3879  1.8721 -0.3813
  214MOL0     H28875   4.192   2.802   5.335 -0.4996 -0.4342  0.0380
  214MOL0     H28876   6.104   2.231   5.786 -1.5596  0.1586 -1.6555
  214MOL0     H28877   6.310   2.382   5.845  3.0960  4.9779  1.3551
  214MOL0     H28878   6.573   2.790   5.749 -0.5369 -2.2151 -0.5285
  214MOL0     H28879   6.788   2.867   5.819  1.6952  0.6271  1.5242
  214MOL0     H28880   7.016   2.809   5.908  1.1400 -1.1505  0.7211
  214MOL0     H28881   6.947   2.968   5.941  0.5239 -0.9759 -2.6086
  214MOL0     H28882   7.110   2.986   6.135 -2.2652  0.0526 -0.2466
  214MOL0     H28883   7.181   2.981   5.967 -1.2742  0.2215 -1.1088
  214MOL0     H28884   7.319   2.830   6.092 -0.4200  2.1544  1.6828
  214MOL0     H28885   7.199   2.720   6.022 -1.1800  0.2344  1.0214
  214MOL0     H28886   7.089   2.707   6.223 -1.1499  2.4296  0.2543
  214MOL0     H28887   7.156   2.847   6.298  1.0831  0.5910  0.2572
  214MOL0     H28888   7.448   2.528   6.343 -0.9282 -0.0810 -1.3813
  214MOL0     H28889   6.725   2.706   6.219  1.5140 -0.2639 -0.8058
  214MOL0     H28890   6.505   2.640   6.152 -0.7806 -1.1059 -1.6063
  215MOL0     O28891   7.966   8.937   5.081  0.0448  0.0595 -0.3388
  215MOL0     C28892   7.956   8.871   4.976  0.8541  0.7531  0.1289
  215MOL0     O28893   7.833   8.845   4.915  0.1266 -1.0598 -0.7375
  215MOL0     C28894   7.724   8.934   4.914  0.0728 -0.4035 -0.1678
  215MOL0     C28895   7.599   8.872   4.912  0.0923 -0.2332  0.3508
  215MOL0     C28896   7.476   8.940   4.932  0.5702 -0.7525 -0.7764
  215MOL0     C28897   7.480   9.074   4.947  0.1751 -0.8647  0.4286
  215MOL0     O28898   7.359   9.139   4.961 -0.6991 -0.9106 -0.0449
  215MOL0     C28899   7.354   9.279   5.003  0.7877  0.2407  0.2224
  215MOL0     C28900   7.208   9.335   4.977  0.2456  1.0322 -0.1424
  215MOL0     C28901   7.131   9.313   5.103 -0.7721  0.2999 -0.2892
  215MOL0     C28902   7.078   9.172   5.113  0.3041  0.0769  0.3825
  215MOL0     C28903   6.997   9.164   5.249  0.2807 -0.9724  0.3808
  215MOL0     C28904   6.859   9.229   5.239  0.0604 -0.2412 -0.1027
  215MOL0     C28905   6.760   9.201   5.346  0.0160 -0.0565 -0.4709
  215MOL0     C28906   6.637   9.287   5.332  0.6803 -1.3447  0.6394
  215MOL0     N28907   6.526   9.251   5.424  0.3900 -0.2910  0.2193
  215MOL0     C28908   6.509   9.325   5.535 -0.4870 -0.2823  0.2509
  215MOL0     C28909   6.392   9.286   5.576  0.1053  0.3891 -0.5975
  215MOL0     C28910   6.340   9.333   5.706  0.2951 -0.1050 -0.2772
  215MOL0     C28911   6.395   9.257   5.823 -0.0532  1.3373  0.0784
  215MOL0     C28912   6.364   9.319   5.956  0.4376 -0.1759  0.5632
  215MOL0     C28913   6.239   9.271   6.042  0.0165 -0.0473  0.9068
  215MOL0     O28914   6.129   9.261   5.953 -0.4161  0.1117 -0.4314
  215MOL0     C28915   6.013   9.224   6.011  0.5285 -0.4816  0.6067
  215MOL0     C28916   5.909   9.202   5.928 -0.2803 -0.1028  0.2675
  215MOL0     C28917   5.779   9.168   5.962 -0.1160 -1.0832 -0.1139
  215MOL0     C28918   5.683   9.143   5.851  0.5960 -0.1856  0.0308
  215MOL0     C28919   5.743   9.156   6.095  0.0747  0.7701 -0.0366
  215MOL0     C28920   5.612   9.122   6.149  0.4338  0.3060 -0.2091
  215MOL0     O28921   5.517   9.056   6.069 -0.0745  0.1744 -0.5945
  215MOL0     C28922   5.420   8.974   6.128  0.4214 -0.4422  0.1012
  215MOL0     C28923   5.311   9.040   6.175 -0.2244  0.0021  0.7684
  215MOL0     C28924   5.194   8.974   6.216  0.5705  0.6447 -0.0602
  215MOL0     C28925   5.195   8.831   6.214 -0.0949 -0.5239  0.5373
  215MOL0     O28926   5.083   8.763   6.252 -0.0054  0.3420  0.7039
  215MOL0     C28927   4.958   8.808   6.194  0.6467  1.4959 -0.2334
  215MOL0     C28928   4.839   8.807   6.301 -0.2495  0.4474 -0.5059
  215MOL0     C28929   4.848   8.927   6.399 -0.0878 -0.4425 -0.7601
  215MOL0     C28930   4.742   8.935   6.514  0.1963 -0.5210  0.1906
  215MOL0     C28931   4.596   8.927   6.456 -0.3784  0.4918 -0.0613
  215MOL0     C28932   4.509   8.949   6.565 -0.2630  0.7748 -0.4771
  215MOL0     C28933   4.364   8.948   6.510 -1.0666  0.1435 -0.9352
  215MOL0     C28934   4.265   8.970   6.622  0.3870 -0.0922  0.4314
  215MOL0    Cl28935   4.205   9.137   6.615 -0.0202 -0.3232 -0.0584
  215MOL0     C28936   5.305   8.764   6.167  0.3077 -0.1676 -0.3037
  215MOL0     C28937   5.426   8.833   6.132  0.5757  0.2573  0.3322
  215MOL0     O28938   5.593   9.156   6.269 -0.6297  0.1356  0.2068
  215MOL0     C28939   5.846   9.180   6.194 -0.0001  0.1810 -0.5604
  215MOL0     C28940   5.975   9.208   6.150  0.1531 -0.4902 -0.0597
  215MOL0     N28941   6.343   9.182   5.492  0.3371 -0.1277 -0.7185
  215MOL0     N28942   6.424   9.165   5.400  0.6199  0.6788 -0.3315
  215MOL0     C28943   7.604   9.142   4.934 -0.3946  0.4301 -1.3579
  215MOL0     C28944   7.730   9.071   4.927  0.3484  0.0858  0.0988
  215MOL0     C28945   8.071   8.809   4.911  1.0817 -1.2722 -0.4529
  215MOL0     C28946   8.059   8.751   4.784  0.0424  0.0693 -0.8732
  215MOL0     C28947   8.157   8.663   4.746  0.5986  0.5261  0.4395
  215MOL0     C28948   8.266   8.627   4.818  0.0890 -0.1521  0.1059
  215MOL0     O28949   8.369   8.557   4.752  0.1974 -0.2838  0.2746
  215MOL0     C28950   8.442   8.471   4.834  0.4187 -0.0052 -0.2754
  215MOL0     C28951   8.536   8.375   4.764  0.6707  0.4492 -1.1217
  215MOL0     C28952   8.596   8.270   4.865  0.3213 -0.4115  0.1390
  215MOL0     C28953   8.725   8.213   4.823  0.2636  0.9220 -0.8485
  215MOL0     C28954   8.835   8.304   4.821  0.5478  0.9762 -0.9297
  215MOL0     C28955   8.929   8.373   4.801 -0.3972 -0.0742  0.2267
  215MOL0     C28956   8.273   8.681   4.945  0.1970  0.2414 -0.0508
  215MOL0     C28957   8.181   8.770   4.985 -0.1549 -0.5948 -0.3739
  215MOL0     H28958   7.599   8.766   4.890  3.8702 -0.9587  2.8319
  215MOL0     H28959   7.385   8.882   4.932 -0.4861  0.8340 -1.0378
  215MOL0     H28960   7.392   9.288   5.105  3.1712  0.9636 -0.6560
  215MOL0     H28961   7.412   9.340   4.934  0.7546  1.0680  0.9173
  215MOL0     H28962   7.222   9.443   4.965  1.7145  0.9445  0.5011
  215MOL0     H28963   7.160   9.286   4.892 -2.0982  4.3995 -0.9493
  215MOL0     H28964   7.183   9.338   5.195  0.5396 -1.5113 -0.4775
  215MOL0     H28965   7.045   9.378   5.082 -2.1924 -0.9444  1.4177
  215MOL0     H28966   7.017   9.160   5.023  0.3794  1.9234  0.0423
  215MOL0     H28967   7.162   9.102   5.118 -1.3322 -2.0473 -0.1534
  215MOL0     H28968   6.998   9.056   5.268 -0.5965 -0.9840  0.4135
  215MOL0     H28969   7.049   9.222   5.326  0.1597  0.3581 -0.5090
  215MOL0     H28970   6.873   9.338   5.230 -0.1982 -0.1385  0.7373
  215MOL0     H28971   6.818   9.194   5.143 -1.5094  0.2710  0.3555
  215MOL0     H28972   6.722   9.098   5.345 -1.0480  0.2942  0.6698
  215MOL0     H28973   6.811   9.227   5.440  0.8723  1.5566 -1.3374
  215MOL0     H28974   6.582   9.285   5.237  1.4147 -1.6728  0.2144
  215MOL0     H28975   6.673   9.387   5.357 -0.0709 -0.7762 -0.4802
  215MOL0     H28976   6.579   9.398   5.573 -0.2906  0.5561 -1.6197
  215MOL0     H28977   6.367   9.438   5.721 -1.5958  0.0979  2.4568
  215MOL0     H28978   6.231   9.327   5.713  0.2920 -1.1530 -1.1245
  215MOL0     H28979   6.502   9.236   5.810 -0.3926  1.2579 -3.4715
  215MOL0     H28980   6.362   9.153   5.830  1.3138  0.9927  3.4767
  215MOL0     H28981   6.360   9.428   5.943 -0.8816 -0.5288 -3.7214
  215MOL0     H28982   6.448   9.295   6.022  1.2550 -3.7731 -1.5380
  215MOL0     H28983   6.219   9.341   6.124  0.1340  0.2895  0.6483
  215MOL0     H28984   6.256   9.174   6.090  3.4554 -0.3252 -0.5693
  215MOL0     H28985   5.939   9.216   5.825  0.2658 -1.7451  0.1917
  215MOL0     H28986   5.673   9.035   5.848  0.6795 -0.2012  0.2931
  215MOL0     H28987   5.587   9.193   5.870  1.2905  0.7280  1.2546
  215MOL0     H28988   5.710   9.186   5.754 -1.9782  3.6550  0.7771
  215MOL0     H28989   5.309   9.148   6.186 -1.9770  0.1311 -0.4316
  215MOL0     H28990   5.099   9.009   6.256  0.1065 -0.2934 -0.2980
  215MOL0     H28991   4.956   8.904   6.142  0.6644  1.7116  0.1620
  215MOL0     H28992   4.937   8.730   6.120 -1.1359  1.1976  0.5514
  215MOL0     H28993   4.745   8.804   6.245 -2.4657 -1.7970  2.9564
  215MOL0     H28994   4.838   8.716   6.361 -0.8519  0.6237 -0.2397
  215MOL0     H28995   4.852   9.020   6.342  0.0073  0.8193  1.1936
  215MOL0     H28996   4.947   8.925   6.446 -1.0691 -0.4972  1.4236
  215MOL0     H28997   4.764   8.859   6.589  1.4855  1.0836  1.5282
  215MOL0     H28998   4.765   9.034   6.554  2.8460 -1.0332  0.1213
  215MOL0     H28999   4.589   8.832   6.401  2.1413 -0.3198  0.8435
  215MOL0     H29000   4.577   8.999   6.376 -0.4438 -0.9909 -1.4535
  215MOL0     H29001   4.523   8.863   6.631  1.8873 -0.8394 -2.8455
  215MOL0     H29002   4.528   9.042   6.619 -2.2977 -0.3551  2.4502
  215MOL0     H29003   4.346   8.849   6.468 -0.4880 -1.5437  2.4958
  215MOL0     H29004   4.342   9.023   6.433 -0.4982 -1.1965 -2.4630
  215MOL0     H29005   4.298   8.957   6.725 -1.0971  0.6969  1.0354
  215MOL0     H29006   4.176   8.908   6.614  0.6597 -0.2093 -4.5570
  215MOL0     H29007   5.303   8.656   6.169 -0.9502 -0.1747 -1.0614
  215MOL0     H29008   5.522   8.787   6.113 -1.1077 -3.1564 -0.7954
  215MOL0     H29009   5.826   9.173   6.301  2.2053 -1.8809 -0.1935
  215MOL0     H29010   6.051   9.234   6.223  0.9981  0.2128 -1.1485
  215MOL0     H29011   7.608   9.250   4.929  0.6051  0.3421 -3.0972
  215MOL0     H29012   7.824   9.123   4.910 -0.0510 -0.0291 -2.9884
  215MOL0     H29013   7.969   8.770   4.727 -0.9593 -1.5521  0.1029
  215MOL0     H29014   8.152   8.627   4.644 -1.2998  0.5140  0.5126
  215MOL0     H29015   8.494   8.540   4.901 -1.8375 -0.1747  1.7787
  215MOL0     H29016   8.381   8.418   4.908 -2.6677  2.5735 -0.7625
  215MOL0     H29017   8.609   8.444   4.722  0.3220  1.2649 -0.4311
  215MOL0     H29018   8.479   8.320   4.689 -1.7145 -0.5723  1.2522
  215MOL0     H29019   8.533   8.181   4.877 -1.2234  0.5174 -0.7694
  215MOL0     H29020   8.611   8.320   4.961  0.6918 -2.2061  1.0668
  215MOL0     H29021   8.721   8.162   4.726 -0.7668 -1.7651  0.5101
  215MOL0     H29022   8.756   8.135   4.894  1.1954  0.2607 -1.9457
  215MOL0     H29023   9.012   8.440   4.801 -1.8678  1.8686 -0.8666
  215MOL0     H29024   8.347   8.641   5.013 -0.2074  0.4142  0.5084
  215MOL0     H29025   8.184   8.777   5.093  1.7393  0.4488 -0.4449
  216MOL0     O29026   2.562   6.475   4.500  0.4806  0.1617  0.0541
  216MOL0     C29027   2.610   6.506   4.386 -0.0352  0.0465  0.1109
  216MOL0     O29028   2.544   6.571   4.283 -0.3036  0.3256  0.3703
  216MOL0     C29029   2.408   6.588   4.305 -0.4753  0.2116  1.3981
  216MOL0     C29030   2.346   6.641   4.422 -0.4460 -0.0632 -0.9248
  216MOL0     C29031   2.207   6.646   4.435 -0.0697  0.4786  0.6367
  216MOL0     C29032   2.121   6.591   4.343 -0.4266 -0.4227  0.7170
  216MOL0     O29033   1.986   6.594   4.346  0.3297  0.1357  0.5093
  216MOL0     C29034   1.935   6.564   4.479  0.0587 -0.2264 -0.5890
  216MOL0     C29035   1.787   6.522   4.461  0.5373  0.4194 -0.1829
  216MOL0     C29036   1.718   6.509   4.594 -0.2109 -0.1877 -0.0013
  216MOL0     C29037   1.746   6.383   4.676  0.1866 -0.1317  0.5932
  216MOL0     C29038   1.640   6.268   4.660 -0.2087 -0.9213 -0.4630
  216MOL0     C29039   1.491   6.317   4.636 -0.8826 -0.0191 -1.3223
  216MOL0     C29040   1.387   6.203   4.646 -0.2809  1.0302 -0.8352
  216MOL0     C29041   1.346   6.151   4.785 -0.4199 -1.5924 -0.0073
  216MOL0     N29042   1.249   6.045   4.795 -0.3872  0.0327  0.9390
  216MOL0     C29043   1.111   6.050   4.806 -0.0073 -0.4061 -0.1813
  216MOL0     C29044   1.067   5.920   4.828  0.9211 -0.3812 -1.3037
  216MOL0     C29045   0.927   5.861   4.840 -0.1663 -0.4667 -0.2193
  216MOL0     C29046   0.835   5.920   4.735 -0.6602  0.0313  0.1267
  216MOL0     C29047   0.799   6.075   4.770  0.2020 -0.7428  0.8216
  216MOL0     C29048   0.648   6.099   4.747 -0.1795  0.1833  0.0394
  216MOL0     O29049   0.574   6.006   4.828  0.9224  0.1307  0.5441
  216MOL0     C29050   0.439   6.008   4.800  0.1640  0.5627 -0.2402
  216MOL0     C29051   0.358   6.117   4.766 -0.1640 -0.8165  0.0193
  216MOL0     C29052   0.216   6.106   4.760  0.2593 -0.5920  1.0761
  216MOL0     C29053   0.148   6.231   4.701 -0.7449  0.1722  0.9355
  216MOL0     C29054   0.159   5.969   4.784  0.4197 -0.9258 -0.4618
  216MOL0     C29055   0.015   5.948   4.783  0.2892  0.2515 -0.0415
  216MOL0     O29056  -0.031   5.826   4.748  0.1611 -0.8026  0.1618
  216MOL0     C29057  -0.166   5.799   4.748  0.4611 -0.2937 -1.0295
  216MOL0     C29058  -0.246   5.764   4.868 -0.8808  0.0399 -0.1739
  216MOL0     C29059  -0.374   5.709   4.844 -0.9341 -0.0321 -0.0870
  216MOL0     C29060  -0.427   5.700   4.718 -0.2005 -0.2165  0.6166
  216MOL0     O29061  -0.553   5.651   4.716 -0.2193 -0.2332 -0.5020
  216MOL0     C29062  -0.628   5.628   4.597  0.1724  0.1616  0.0270
  216MOL0     C29063  -0.758   5.549   4.622 -0.3390  1.2950 -0.3179
  216MOL0     C29064  -0.871   5.583   4.528  0.3795 -0.5251  0.0083
  216MOL0     C29065  -0.831   5.560   4.382 -0.0369  0.2378  0.4691
  216MOL0     C29066  -0.940   5.507   4.287 -0.3429 -0.2639  0.2241
  216MOL0     C29067  -0.965   5.358   4.301  0.5254 -0.6049 -0.4683
  216MOL0     C29068  -1.083   5.320   4.211  0.2751  0.6313  0.0421
  216MOL0     C29069  -1.028   5.282   4.078 -0.4810  0.0921  0.3183
  216MOL0    Cl29070  -1.140   5.192   3.966 -0.0728  0.0439  0.1942
  216MOL0     C29071  -0.351   5.745   4.604 -0.7017  0.3460  0.2439
  216MOL0     C29072  -0.221   5.788   4.625 -0.0603 -1.1512 -0.7569
  216MOL0     O29073  -0.060   6.044   4.794 -0.1044 -0.3396 -0.4002
  216MOL0     C29074   0.247   5.871   4.802 -0.0080 -0.5803 -1.3759
  216MOL0     C29075   0.381   5.889   4.806 -0.1872 -0.2004 -1.0022
  216MOL0     N29076   1.184   5.846   4.834 -0.2330 -0.3150 -0.3681
  216MOL0     N29077   1.288   5.916   4.819  0.0620  0.9957  0.4014
  216MOL0     C29078   2.172   6.551   4.217 -0.1756  0.0435 -0.0210
  216MOL0     C29079   2.315   6.545   4.199  0.1707 -0.4210  0.4305
  216MOL0     C29080   2.748   6.463   4.365 -0.3409 -0.8591  0.2206
  216MOL0     C29081   2.805   6.365   4.448  0.2386 -0.3462  0.3206
  216MOL0     C29082   2.946   6.334   4.443  0.0239  0.5227  0.0781
  216MOL0     C29083   3.019   6.386   4.339 -0.3852 -1.1627 -0.9406
  216MOL0     O29084   3.149   6.343   4.308 -1.0239 -0.7279 -0.0207
  216MOL0     C29085   3.188   6.327   4.178 -0.1578 -0.0916  0.2254
  216MOL0     C29086   3.314   6.241   4.182 -0.9787 -0.3489  0.5033
  216MOL0     C29087   3.429   6.316   4.262 -0.5512  0.2023 -0.6505
  216MOL0     C29088   3.567   6.258   4.229  0.1952  0.4982  0.8575
  216MOL0     C29089   3.590   6.243   4.082  0.7782 -0.2044  0.2286
  216MOL0     C29090   3.620   6.220   3.968  0.7220 -0.2504 -0.0940
  216MOL0     C29091   2.964   6.496   4.267  0.4621  0.4251  0.4974
  216MOL0     C29092   2.836   6.542   4.284 -1.3641 -0.2266 -0.1128
  216MOL0     H29093   2.408   6.680   4.502 -1.3557 -2.3003  1.0062
  216MOL0     H29094   2.162   6.699   4.519 -1.1974 -2.1864  1.8150
  216MOL0     H29095   1.988   6.480   4.524  0.2277 -1.1032 -2.3228
  216MOL0     H29096   1.947   6.655   4.539 -0.0659 -0.4904 -0.1606
  216MOL0     H29097   1.736   6.585   4.388  2.3413  2.2642  0.0450
  216MOL0     H29098   1.792   6.420   4.421  0.5873 -0.7314  2.5884
  216MOL0     H29099   1.753   6.592   4.657 -0.5836 -1.0918  1.4596
  216MOL0     H29100   1.612   6.521   4.569 -0.7774 -4.9752 -0.7351
  216MOL0     H29101   1.842   6.347   4.640  0.2062  0.4380  0.0635
  216MOL0     H29102   1.760   6.407   4.782 -0.7227 -0.7626  0.8731
  216MOL0     H29103   1.668   6.200   4.579 -1.0596 -1.6837 -0.1380
  216MOL0     H29104   1.652   6.217   4.756 -0.7032  1.1107  0.7541
  216MOL0     H29105   1.466   6.382   4.720 -1.1186 -3.1275  1.2156
  216MOL0     H29106   1.490   6.361   4.536  2.1877  1.9929 -0.5739
  216MOL0     H29107   1.295   6.248   4.608 -3.2952 -3.9365 -0.2597
  216MOL0     H29108   1.409   6.117   4.583 -1.8027 -1.2962  1.6020
  216MOL0     H29109   1.295   6.237   4.829 -0.3226 -0.7315 -1.5171
  216MOL0     H29110   1.435   6.116   4.839 -1.6132 -0.4707  2.8783
  216MOL0     H29111   1.041   6.131   4.788  0.0199  0.2069  2.1517
  216MOL0     H29112   0.932   5.754   4.822 -2.2299 -0.8286  1.1079
  216MOL0     H29113   0.895   5.868   4.944  1.4670 -2.7470  0.5041
  216MOL0     H29114   0.748   5.854   4.735 -0.6306 -0.1707  3.0271
  216MOL0     H29115   0.889   5.910   4.641  3.9147  1.1509  2.3569
  216MOL0     H29116   0.859   6.147   4.715  1.4372 -0.4176  2.5187
  216MOL0     H29117   0.820   6.094   4.876  2.2325 -2.9286  0.8732
  216MOL0     H29118   0.622   6.092   4.641  0.6434 -0.1877 -0.1504
  216MOL0     H29119   0.630   6.200   4.783 -0.0963  1.3452 -2.9472
  216MOL0     H29120   0.404   6.214   4.754 -2.7213  0.4819 -0.0899
  216MOL0     H29121   0.226   6.306   4.692  0.0040 -0.8122 -1.7089
  216MOL0     H29122   0.097   6.210   4.607  1.7502 -1.2035 -0.2123
  216MOL0     H29123   0.066   6.276   4.759 -2.6152 -0.1279 -1.3235
  216MOL0     H29124  -0.198   5.763   4.965  0.8760 -2.4483 -0.9701
  216MOL0     H29125  -0.434   5.658   4.918  0.5092  0.1304  1.2652
  216MOL0     H29126  -0.646   5.727   4.553  4.4691  1.3098  0.4471
  216MOL0     H29127  -0.570   5.573   4.523 -0.3214 -0.0340 -0.2218
  216MOL0     H29128  -0.726   5.444   4.618 -1.2877  0.8408  2.2120
  216MOL0     H29129  -0.791   5.568   4.724 -0.4639 -1.7780  0.3097
  216MOL0     H29130  -0.909   5.683   4.552  2.5488  0.2001  0.6632
  216MOL0     H29131  -0.953   5.512   4.543 -0.3804  0.2348 -0.4594
  216MOL0     H29132  -0.795   5.657   4.346  0.2284 -0.2407 -0.5776
  216MOL0     H29133  -0.745   5.493   4.371  1.6580  2.1661  1.1367
  216MOL0     H29134  -0.906   5.530   4.186 -3.3379  1.2707 -0.5631
  216MOL0     H29135  -1.032   5.563   4.306 -1.3953 -1.2230 -1.7634
  216MOL0     H29136  -0.875   5.307   4.265  1.8753  2.3271 -1.5811
  216MOL0     H29137  -0.983   5.344   4.408  1.0217  1.1708 -0.1365
  216MOL0     H29138  -1.142   5.412   4.210  0.1808  0.5677 -0.3102
  216MOL0     H29139  -1.145   5.245   4.262  1.8503 -0.5179  0.3708
  216MOL0     H29140  -0.943   5.214   4.089 -1.1710 -1.5685 -3.2016
  216MOL0     H29141  -0.997   5.375   4.030  0.6288 -0.8098 -0.7675
  216MOL0     H29142  -0.374   5.748   4.498  2.8887 -0.5561 -0.6694
  216MOL0     H29143  -0.158   5.816   4.541 -0.2188  1.0134 -0.2014
  216MOL0     H29144   0.212   5.770   4.822  1.1974 -1.0172 -1.3915
  216MOL0     H29145   0.438   5.799   4.826 -2.6613 -1.1714  2.7554
  216MOL0     H29146   2.104   6.518   4.139  0.8473  1.7191 -1.6982
  216MOL0     H29147   2.355   6.494   4.112 -2.5462 -1.3432 -0.3864
  216MOL0     H29148   2.745   6.325   4.530 -0.9603  1.5561  0.4437
  216MOL0     H29149   2.979   6.258   4.514 -2.0098 -0.1366  0.3894
  216MOL0     H29150   3.106   6.284   4.120  0.1870 -2.0076  1.0616
  216MOL0     H29151   3.206   6.425   4.134  2.3091  2.0300  5.1680
  216MOL0     H29152   3.335   6.217   4.077 -2.1988 -1.2287  0.4351
  216MOL0     H29153   3.306   6.142   4.229  2.3615 -0.0869  1.9065
  216MOL0     H29154   3.413   6.300   4.369  1.9749  0.1653 -0.2040
  216MOL0     H29155   3.443   6.421   4.232 -1.2408  0.4161 -0.2510
  216MOL0     H29156   3.595   6.167   4.283  0.0693  0.3974  0.7543
  216MOL0     H29157   3.649   6.325   4.258  0.7951  1.5043 -2.6567
  216MOL0     H29158   3.662   6.198   3.872  2.2322 -4.1827  1.2241
  216MOL0     H29159   3.015   6.554   4.190 -3.8828  3.7934 -0.2751
  216MOL0     H29160   2.795   6.630   4.234  0.0587  1.0661  0.8757
  217MOL0     O29161   0.437   2.083   7.182 -0.4619 -0.8542  0.3431
  217MOL0     C29162   0.498   2.194   7.186  0.3709  0.3904 -0.2197
  217MOL0     O29163   0.438   2.317   7.192  0.2043  0.9317  0.1072
  217MOL0     C29164   0.304   2.309   7.185  0.4608 -0.2525  0.1924
  217MOL0     C29165   0.220   2.255   7.283  0.4095  0.4317  0.2106
  217MOL0     C29166   0.079   2.264   7.264  0.9240 -0.1333  0.1479
  217MOL0     C29167   0.024   2.312   7.145  1.0776 -0.1650  0.7443
  217MOL0     O29168  -0.110   2.313   7.112  0.1013  0.2960  0.5374
  217MOL0     C29169  -0.208   2.255   7.206 -0.6218 -0.5299  0.6964
  217MOL0     C29170  -0.332   2.242   7.129 -0.7092  0.0373  0.0488
  217MOL0     C29171  -0.446   2.201   7.224  1.1931  0.0808  0.5530
  217MOL0     C29172  -0.584   2.196   7.149 -0.4056  0.6600 -0.8831
  217MOL0     C29173  -0.578   2.068   7.059  0.3526  0.3554  0.4835
  217MOL0     C29174  -0.719   2.030   7.018  1.0314  0.0036  0.6611
  217MOL0     C29175  -0.797   2.129   6.932  0.1895  0.1463  0.3946
  217MOL0     C29176  -0.931   2.068   6.880  0.0994  0.7385 -0.4290
  217MOL0     N29177  -0.996   2.025   7.000  0.0699  1.0099 -0.2954
  217MOL0     C29178  -1.012   1.889   7.039 -0.0035 -0.0935  0.4532
  217MOL0     C29179  -1.080   1.895   7.159  0.2027  0.4521  0.1938
  217MOL0     C29180  -1.107   1.775   7.242  0.3279 -0.2908  0.4642
  217MOL0     C29181  -1.241   1.716   7.187 -0.3078  0.0318  0.0964
  217MOL0     C29182  -1.360   1.805   7.212  0.3488  0.8119 -0.1961
  217MOL0     C29183  -1.491   1.727   7.201  0.3206  0.6997 -0.5445
  217MOL0     O29184  -1.508   1.643   7.318 -0.0014  0.2230  0.2395
  217MOL0     C29185  -1.632   1.595   7.343  0.2734  0.9839 -0.0630
  217MOL0     C29186  -1.667   1.465   7.317 -0.3311  0.5596  0.0770
  217MOL0     C29187  -1.800   1.428   7.327  0.5046  0.0667  0.1792
  217MOL0     C29188  -1.821   1.277   7.302  0.0756  0.2475 -0.4021
  217MOL0     C29189  -1.898   1.511   7.390  0.2709  0.7450 -1.0196
  217MOL0     C29190  -2.048   1.476   7.404  0.5166 -0.0670  0.8454
  217MOL0     O29191  -2.141   1.556   7.469  0.6628 -0.1293  0.2050
  217MOL0     C29192  -2.272   1.509   7.488  0.6940  0.7188 -0.1105
  217MOL0     C29193  -2.384   1.549   7.416 -0.8956 -0.0310 -0.5046
  217MOL0     C29194  -2.508   1.484   7.422  0.5429  0.2819 -0.9653
  217MOL0     C29195  -2.518   1.372   7.508  0.5067 -0.5088 -0.2020
  217MOL0     O29196  -2.640   1.314   7.501  0.3787  0.1830  0.6431
  217MOL0     C29197  -2.640   1.173   7.522 -0.2692 -0.0499  0.3731
  217MOL0     C29198  -2.780   1.121   7.533 -0.3218  0.5438  0.5558
  217MOL0     C29199  -2.781   0.970   7.559  0.7382  0.2138  0.2814
  217MOL0     C29200  -2.923   0.916   7.518 -1.1041 -0.6298 -0.6125
  217MOL0     C29201  -2.946   0.782   7.591  0.3772  0.8049 -0.1273
  217MOL0     C29202  -3.085   0.717   7.576  0.5032 -0.7289 -0.1238
  217MOL0     C29203  -3.098   0.582   7.644  0.0260  0.3601  0.0056
  217MOL0     C29204  -3.092   0.597   7.800  0.9278 -0.0065  0.0976
  217MOL0    Cl29205  -3.243   0.675   7.832  0.1911  0.2288 -0.0873
  217MOL0     C29206  -2.412   1.344   7.595  0.3743 -0.0842 -0.9834
  217MOL0     C29207  -2.286   1.409   7.586 -0.2256  0.2736 -0.4560
  217MOL0     O29208  -2.072   1.369   7.343 -0.4860  0.5103 -0.5373
  217MOL0     C29209  -1.859   1.644   7.421  0.0252  0.1441  0.6084
  217MOL0     C29210  -1.726   1.680   7.400  0.1386  0.1516  0.2459
  217MOL0     N29211  -1.103   2.030   7.184  0.0823 -0.0645  0.3298
  217MOL0     N29212  -1.052   2.107   7.091  0.3000  0.0449 -0.1553
  217MOL0     C29213   0.103   2.356   7.041  0.1260  0.1844  0.5633
  217MOL0     C29214   0.245   2.359   7.065  0.1205  0.4680 -0.5032
  217MOL0     C29215   0.638   2.193   7.160  0.4080 -0.3135  0.3155
  217MOL0     C29216   0.706   2.311   7.192 -0.5712 -0.6261  0.4911
  217MOL0     C29217   0.847   2.313   7.179 -0.3975 -0.2562 -0.8169
  217MOL0     C29218   0.923   2.197   7.138  0.2506  0.0804  0.3684
  217MOL0     O29219   1.057   2.194   7.136 -0.3236  0.4606 -0.6620
  217MOL0     C29220   1.135   2.087   7.075 -0.2766 -1.2094  0.5507
  217MOL0     C29221   1.256   2.147   6.998  0.2035 -0.3161 -0.8121
  217MOL0     C29222   1.347   2.237   7.083 -0.0584  0.2976 -0.0815
  217MOL0     C29223   1.444   2.304   6.984 -0.5528 -0.1929 -0.5203
  217MOL0     C29224   1.583   2.314   7.040 -0.4931  0.4547 -0.0222
  217MOL0     C29225   1.696   2.310   7.071 -0.1413  0.2378 -0.4595
  217MOL0     C29226   0.851   2.086   7.108  0.0577 -0.2143  0.4526
  217MOL0     C29227   0.714   2.080   7.134 -0.0434 -0.1185 -0.3834
  217MOL0     H29228   0.245   2.211   7.379  0.9858  0.0849 -0.0969
  217MOL0     H29229   0.021   2.232   7.349  1.2168 -0.8992  0.0684
  217MOL0     H29230  -0.174   2.160   7.248 -0.7718 -2.1252 -2.4778
  217MOL0     H29231  -0.214   2.332   7.283 -1.7185 -1.0279  1.1335
  217MOL0     H29232  -0.353   2.337   7.079 -1.9063 -0.6570 -0.8138
  217MOL0     H29233  -0.312   2.167   7.052  0.0221  2.2583 -2.0320
  217MOL0     H29234  -0.418   2.108   7.273 -0.0224 -0.4369  0.3034
  217MOL0     H29235  -0.458   2.278   7.301  4.6570 -0.5062  1.8407
  217MOL0     H29236  -0.669   2.191   7.218 -0.9297  0.4284 -1.5369
  217MOL0     H29237  -0.584   2.291   7.094  0.4080  0.5952 -1.0014
  217MOL0     H29238  -0.506   2.088   6.980  1.9959 -2.3040  1.1885
  217MOL0     H29239  -0.532   1.985   7.113 -1.2948 -1.3212 -0.5449
  217MOL0     H29240  -0.715   1.941   6.954 -1.8397  0.6671 -0.6049
  217MOL0     H29241  -0.780   2.012   7.107  2.5283 -2.6676  1.2654
  217MOL0     H29242  -0.825   2.215   6.994 -0.8214 -0.7631  1.2438
  217MOL0     H29243  -0.746   2.151   6.838  2.4973  0.1537  1.5739
  217MOL0     H29244  -0.909   1.981   6.817 -2.5736 -0.4884  0.1899
  217MOL0     H29245  -0.987   2.146   6.828 -0.8448 -1.4509 -2.9965
  217MOL0     H29246  -0.969   1.799   6.995  1.4184  1.4174 -1.4327
  217MOL0     H29247  -1.027   1.705   7.217  1.8088  1.3488  0.4856
  217MOL0     H29248  -1.101   1.811   7.345 -1.6290 -3.5451  1.8888
  217MOL0     H29249  -1.249   1.621   7.240 -0.4361 -0.7739 -1.3404
  217MOL0     H29250  -1.230   1.680   7.085  1.3528 -2.0875  0.9515
  217MOL0     H29251  -1.357   1.884   7.136  0.6623  1.6743  0.6881
  217MOL0     H29252  -1.344   1.844   7.313  5.1549  0.2758 -0.5480
  217MOL0     H29253  -1.503   1.672   7.107 -1.3756 -1.1445  0.6609
  217MOL0     H29254  -1.576   1.796   7.203  0.0813  0.4305 -1.0681
  217MOL0     H29255  -1.592   1.393   7.286 -0.2805  1.0494 -0.9882
  217MOL0     H29256  -1.733   1.214   7.286 -0.6790 -1.0761  0.4080
  217MOL0     H29257  -1.848   1.229   7.397 -2.2573 -0.1261 -1.1874
  217MOL0     H29258  -1.901   1.266   7.228  0.4992 -0.0518 -0.8179
  217MOL0     H29259  -2.364   1.635   7.352  0.8578  0.7852  1.0389
  217MOL0     H29260  -2.589   1.523   7.362  0.4840 -0.0857 -1.1297
  217MOL0     H29261  -2.599   1.112   7.441  2.6182  0.2956  1.4610
  217MOL0     H29262  -2.587   1.149   7.614 -3.8532 -3.2310  1.8605
  217MOL0     H29263  -2.831   1.175   7.613 -0.7400  0.5305  0.2978
  217MOL0     H29264  -2.844   1.140   7.447  0.8817 -2.0365 -1.0571
  217MOL0     H29265  -2.766   0.953   7.666  0.0072 -0.8544  0.2312
  217MOL0     H29266  -2.702   0.917   7.506  0.8460 -1.1494  1.7211
  217MOL0     H29267  -3.004   0.981   7.551  0.6771  0.3938  2.1500
  217MOL0     H29268  -2.918   0.906   7.409 -2.2609  0.6230 -0.8014
  217MOL0     H29269  -2.922   0.804   7.696  2.1006 -0.4737 -0.2004
  217MOL0     H29270  -2.871   0.713   7.551  0.5783  0.6260  0.5431
  217MOL0     H29271  -3.164   0.784   7.613 -1.0280  0.3678 -4.7321
  217MOL0     H29272  -3.106   0.710   7.469  0.8149  1.6935 -0.4146
  217MOL0     H29273  -3.020   0.512   7.615 -0.8175  0.0880 -1.7557
  217MOL0     H29274  -3.195   0.543   7.609  0.2241  3.0648 -4.3226
  217MOL0     H29275  -3.015   0.659   7.845 -0.7041  3.4384 -1.4693
  217MOL0     H29276  -3.104   0.499   7.848  0.0095 -0.3038 -0.7047
  217MOL0     H29277  -2.421   1.267   7.671 -0.8627 -1.1078 -2.1335
  217MOL0     H29278  -2.198   1.388   7.646 -0.2928  1.9339  0.2747
  217MOL0     H29279  -1.934   1.707   7.467 -2.3300 -2.9959  1.3818
  217MOL0     H29280  -1.703   1.786   7.408  1.6821 -0.2306  1.2271
  217MOL0     H29281   0.056   2.378   6.946 -0.2204 -2.7301 -0.0365
  217MOL0     H29282   0.312   2.389   6.986 -0.6662 -2.0015 -2.2280
  217MOL0     H29283   0.660   2.400   7.234  2.6865 -0.2587  3.8746
  217MOL0     H29284   0.910   2.399   7.200 -2.1146  1.0668 -0.8930
  217MOL0     H29285   1.176   2.023   7.154  1.9062 -2.2393 -1.3016
  217MOL0     H29286   1.068   2.038   7.004 -1.5233  2.3779 -0.9754
  217MOL0     H29287   1.220   2.202   6.911  1.4445 -1.7555 -2.3049
  217MOL0     H29288   1.328   2.076   6.956  1.8833  0.3617  0.7803
  217MOL0     H29289   1.398   2.167   7.150 -1.0812  0.2025  0.6199
  217MOL0     H29290   1.288   2.309   7.138 -1.9027  0.8793 -2.6237
  217MOL0     H29291   1.398   2.401   6.958 -0.8743  0.3397  1.8439
  217MOL0     H29292   1.463   2.252   6.890 -0.2825  1.3774 -1.3806
  217MOL0     H29293   1.794   2.291   7.110 -0.8703 -0.5961  1.0886
  217MOL0     H29294   0.886   1.986   7.083  1.3113 -0.0710  1.5256
  217MOL0     H29295   0.662   1.985   7.120 -2.1619  0.7633  1.0000
  218MOL0     O29296   0.814   6.429  10.850  0.8869 -0.1935  0.6459
  218MOL0     C29297   0.868   6.454  10.956  0.2057 -0.4644  0.1535
  218MOL0     O29298   0.834   6.399  11.083 -1.1883  0.5462 -0.0225
  218MOL0     C29299   0.735   6.304  11.090  0.5290  0.7768  0.2768
  218MOL0     C29300   0.610   6.322  11.037  0.1297 -0.1212  0.2566
  218MOL0     C29301   0.508   6.228  11.053 -0.0857  0.2676 -0.6556
  218MOL0     C29302   0.525   6.115  11.136 -0.3982 -0.5740  0.1617
  218MOL0     O29303   0.430   6.017  11.150 -0.0224 -0.1032  0.0642
  218MOL0     C29304   0.430   5.939  11.273 -0.4093 -0.3282  0.3946
  218MOL0     C29305   0.298   5.853  11.273 -0.0838 -0.5755  0.4962
  218MOL0     C29306   0.161   5.922  11.274  0.3325  0.9851 -0.4812
  218MOL0     C29307   0.146   6.071  11.315 -0.1385 -0.9744 -0.5301
  218MOL0     C29308   0.004   6.121  11.353 -0.2083  0.2361  0.2810
  218MOL0     C29309  -0.112   6.077  11.257 -1.3887  0.2219  0.3670
  218MOL0     C29310  -0.251   6.110  11.300 -0.2719  0.2616 -0.6118
  218MOL0     C29311  -0.342   6.081  11.182  0.3363  0.0815 -0.3604
  218MOL0     N29312  -0.489   6.082  11.214 -0.3928  0.3062 -0.3459
  218MOL0     C29313  -0.555   6.026  11.317 -0.0975  0.6290  0.4880
  218MOL0     C29314  -0.685   6.061  11.304 -0.6550 -1.2524  1.0619
  218MOL0     C29315  -0.811   6.039  11.383 -0.9908  0.3537 -0.1088
  218MOL0     C29316  -0.855   5.897  11.344 -0.3068  0.0722  0.0819
  218MOL0     C29317  -0.991   5.866  11.394  1.0947 -0.3311 -0.5334
  218MOL0     C29318  -1.104   5.956  11.333 -0.0052 -0.3550  0.3356
  218MOL0     O29319  -1.116   6.065  11.425 -0.3592 -0.1046 -1.1677
  218MOL0     C29320  -1.234   6.124  11.423  0.9198  0.3653 -0.3283
  218MOL0     C29321  -1.313   6.154  11.534  0.4295 -0.1380  0.6080
  218MOL0     C29322  -1.430   6.230  11.531  0.1647  0.5107 -1.0850
  218MOL0     C29323  -1.506   6.226  11.665 -0.2095  0.3710 -0.0427
  218MOL0     C29324  -1.468   6.294  11.413 -0.1955  0.3999  0.4129
  218MOL0     C29325  -1.593   6.375  11.402 -0.2188  0.9050 -1.0436
  218MOL0     O29326  -1.643   6.380  11.272 -0.7535  0.2747  0.1845
  218MOL0     C29327  -1.748   6.469  11.248  0.2262 -0.8945  0.2763
  218MOL0     C29328  -1.773   6.593  11.315  0.6987  0.1895 -0.1169
  218MOL0     C29329  -1.883   6.671  11.281  0.6463 -0.5065  0.6898
  218MOL0     C29330  -1.956   6.634  11.168 -0.3318 -0.3072 -0.0124
  218MOL0     O29331  -2.070   6.702  11.144  0.4825 -0.4312  0.0216
  218MOL0     C29332  -2.156   6.676  11.042 -0.0317 -0.0474 -0.2240
  218MOL0     C29333  -2.261   6.785  11.012 -0.6145 -0.6127 -0.0536
  218MOL0     C29334  -2.375   6.806  11.122  0.1394  0.7504  0.7429
  218MOL0     C29335  -2.472   6.912  11.078 -0.1288  0.8033 -0.3672
  218MOL0     C29336  -2.572   6.924  11.198  0.6781  0.9695 -0.4707
  218MOL0     C29337  -2.703   6.997  11.159  0.2576 -0.0213 -0.6958
  218MOL0     C29338  -2.793   7.004  11.284 -0.8197  0.1626 -0.9611
  218MOL0     C29339  -2.919   7.082  11.250  0.0589  0.3236 -0.6119
  218MOL0    Cl29340  -3.003   7.002  11.111  0.5392  0.0826  0.0576
  218MOL0     C29341  -1.928   6.514  11.095  0.1155  0.5162  0.0351
  218MOL0     C29342  -1.822   6.438  11.135 -0.1119  0.5570 -0.0464
  218MOL0     O29343  -1.651   6.414  11.502 -0.1397 -0.7843  0.6359
  218MOL0     C29344  -1.400   6.264  11.297  0.4620 -0.5555 -0.2321
  218MOL0     C29345  -1.288   6.184  11.302 -0.2843  0.0244 -0.4215
  218MOL0     N29346  -0.696   6.142  11.196 -0.1927 -0.6996  1.0961
  218MOL0     N29347  -0.580   6.157  11.142 -0.2348 -0.0296 -0.0065
  218MOL0     C29348   0.651   6.100  11.192 -0.0059  0.0432  0.5649
  218MOL0     C29349   0.760   6.186  11.171  0.2123  0.2317 -0.2992
  218MOL0     C29350   0.998   6.527  10.955 -0.2281 -0.2837 -1.4167
  218MOL0     C29351   1.069   6.555  11.076 -0.1557  0.8013 -0.2219
  218MOL0     C29352   1.197   6.611  11.075  0.3609 -0.4152  0.6315
  218MOL0     C29353   1.258   6.638  10.944 -0.1901 -0.2586 -0.0970
  218MOL0     O29354   1.383   6.689  10.926  0.1964  0.5243  0.3266
  218MOL0     C29355   1.465   6.739  11.033 -0.3740 -0.1512  0.6063
  218MOL0     C29356   1.608   6.750  10.969 -0.9757 -0.2013 -0.2869
  218MOL0     C29357   1.716   6.783  11.076 -0.6158 -0.1609  0.4185
  218MOL0     C29358   1.865   6.792  11.016 -0.3492  0.5438  0.4309
  218MOL0     C29359   1.875   6.876  10.901  0.8342 -0.3577 -0.5049
  218MOL0     C29360   1.879   6.947  10.805  0.0146  0.0224 -0.8789
  218MOL0     C29361   1.185   6.613  10.826 -0.4213  0.3528 -0.4868
  218MOL0     C29362   1.056   6.560  10.834 -0.7777  0.0575  0.0739
  218MOL0     H29363   0.597   6.413  10.981  1.6630 -0.1640 -0.1993
  218MOL0     H29364   0.410   6.227  11.008 -0.5902 -3.1033  0.2436
  218MOL0     H29365   0.513   5.868  11.274  0.6450  0.8668  0.4436
  218MOL0     H29366   0.442   6.011  11.355  3.1324  0.0429 -0.2773
  218MOL0     H29367   0.311   5.776  11.195 -2.3212 -0.1808 -0.3452
  218MOL0     H29368   0.288   5.797  11.366 -0.6650  2.4509  2.3934
  218MOL0     H29369   0.111   5.916  11.177 -0.7069 -0.8221  0.1125
  218MOL0     H29370   0.098   5.868  11.346  2.3584  1.2258  1.6064
  218MOL0     H29371   0.207   6.075  11.406 -2.4194 -0.7031  1.0524
  218MOL0     H29372   0.196   6.141  11.248  0.4297  0.4335  1.2877
  218MOL0     H29373  -0.029   6.088  11.452 -1.8128  2.7532  0.6615
  218MOL0     H29374   0.022   6.228  11.363  2.8047 -0.2724  1.3509
  218MOL0     H29375  -0.102   6.139  11.168 -3.3658 -1.2166 -0.9332
  218MOL0     H29376  -0.110   5.972  11.229  2.0499  1.2318 -4.2937
  218MOL0     H29377  -0.284   6.055  11.389 -0.3120  2.9087  1.1219
  218MOL0     H29378  -0.256   6.215  11.328 -2.5148  0.4334 -1.4301
  218MOL0     H29379  -0.322   5.977  11.155 -2.6409 -0.8458  0.5496
  218MOL0     H29380  -0.316   6.144  11.097 -1.2257  0.3105 -0.7038
  218MOL0     H29381  -0.527   5.966  11.404 -1.3198  1.0276  1.1798
  218MOL0     H29382  -0.777   6.040  11.487 -0.2966 -0.8057 -0.3095
  218MOL0     H29383  -0.875   6.127  11.370 -2.8349 -0.7010  1.2355
  218MOL0     H29384  -0.785   5.829  11.392 -1.0531 -0.2702  0.6993
  218MOL0     H29385  -0.851   5.894  11.235  0.2923 -1.7148  0.1171
  218MOL0     H29386  -0.985   5.875  11.503  1.6141 -2.9528 -0.2733
  218MOL0     H29387  -1.017   5.760  11.384 -1.8770 -0.2400  3.6753
  218MOL0     H29388  -1.193   5.895  11.317  0.1672 -0.6494  0.4762
  218MOL0     H29389  -1.070   5.991  11.236 -1.2987 -4.7124 -1.9421
  218MOL0     H29390  -1.264   6.112  11.621  2.0353 -1.7986 -0.9869
  218MOL0     H29391  -1.615   6.226  11.654 -0.4592 -0.5106  1.9545
  218MOL0     H29392  -1.473   6.130  11.706  0.1855  1.4735  2.3918
  218MOL0     H29393  -1.475   6.310  11.728  3.5589 -0.3603 -0.6897
  218MOL0     H29394  -1.709   6.625  11.396 -0.7397 -2.3178  2.1749
  218MOL0     H29395  -1.906   6.760  11.339 -2.8226  1.3796 -3.0413
  218MOL0     H29396  -2.102   6.659  10.949  0.7135 -2.8538  0.6210
  218MOL0     H29397  -2.224   6.592  11.059 -0.1589  0.0569 -0.2193
  218MOL0     H29398  -2.211   6.882  11.001 -1.8139 -0.0233 -0.4551
  218MOL0     H29399  -2.299   6.764  10.912  2.7798 -2.1007 -1.1814
  218MOL0     H29400  -2.324   6.833  11.215  1.1234 -0.3095  0.5345
  218MOL0     H29401  -2.428   6.712  11.141 -1.6660  1.7991  1.1834
  218MOL0     H29402  -2.421   7.006  11.052 -0.6864  1.0907 -0.4321
  218MOL0     H29403  -2.526   6.884  10.987 -1.6930  0.8034  0.5364
  218MOL0     H29404  -2.524   6.970  11.285  0.2107  0.8535 -0.1494
  218MOL0     H29405  -2.610   6.825  11.224 -0.6108  2.0501  2.1097
  218MOL0     H29406  -2.696   7.095  11.110 -0.1953 -0.3664 -1.4778
  218MOL0     H29407  -2.750   6.935  11.082  1.1838  0.4038 -1.6392
  218MOL0     H29408  -2.730   7.059  11.355  1.7542 -2.3888 -1.0986
  218MOL0     H29409  -2.818   6.909  11.330 -0.3704  0.7054  0.4555
  218MOL0     H29410  -2.885   7.182  11.223 -1.2151 -0.0862 -4.3025
  218MOL0     H29411  -2.981   7.081  11.340  0.9033 -2.8667  0.0569
  218MOL0     H29412  -1.995   6.472  11.021 -1.0901 -1.0714  1.9070
  218MOL0     H29413  -1.792   6.359  11.066 -1.3723  2.8730 -3.5130
  218MOL0     H29414  -1.429   6.290  11.196  0.1825 -0.9662 -0.2577
  218MOL0     H29415  -1.222   6.168  11.217 -0.0870 -0.8469 -0.1160
  218MOL0     H29416   0.661   6.014  11.257 -0.8868  0.7019  1.6081
  218MOL0     H29417   0.861   6.173  11.206  1.2240  2.8807 -1.9362
  218MOL0     H29418   1.024   6.525  11.170 -0.8134 -2.4196 -1.4421
  218MOL0     H29419   1.250   6.628  11.167  1.1709 -0.4130  0.1732
  218MOL0     H29420   1.429   6.837  11.067  0.6233  0.5970 -0.3936
  218MOL0     H29421   1.443   6.672  11.116 -0.9607 -2.9266 -1.6357
  218MOL0     H29422   1.603   6.821  10.886  1.3254 -2.3250 -2.3837
  218MOL0     H29423   1.624   6.650  10.929  3.8651  1.0096 -2.0499
  218MOL0     H29424   1.722   6.701  11.148  0.8358 -1.9625 -1.6228
  218MOL0     H29425   1.692   6.881  11.119 -0.7938  0.5075 -1.1590
  218MOL0     H29426   1.892   6.691  10.985  0.6045  0.7202  0.6793
  218MOL0     H29427   1.934   6.831  11.091 -1.6568 -1.8291  3.0382
  218MOL0     H29428   1.890   6.995  10.709 -0.8068  1.8651 -0.1064
  218MOL0     H29429   1.231   6.641  10.732  1.4737 -2.8358 -0.6262
  218MOL0     H29430   1.004   6.540  10.740 -2.4765  0.4690  0.8767
  219MOL0     O29431   5.702   0.140   0.665  0.1955  0.4042 -0.5692
  219MOL0     C29432   5.799   0.211   0.668  0.1856 -1.1904 -0.1733
  219MOL0     O29433   5.861   0.261   0.568 -0.3559 -0.4909  0.5254
  219MOL0     C29434   5.815   0.249   0.433  0.0034  0.1997  0.2725
  219MOL0     C29435   5.681   0.236   0.392 -0.2139  0.1124  0.1213
  219MOL0     C29436   5.641   0.206   0.263 -0.3373 -0.1860 -0.2379
  219MOL0     C29437   5.732   0.207   0.166 -0.6385  0.4257  0.2628
  219MOL0     O29438   5.687   0.175   0.043  0.5322  0.1408  0.0058
  219MOL0     C29439   5.744   0.063  -0.023 -0.1487 -0.6415 -0.3976
  219MOL0     C29440   5.623  -0.018  -0.070 -0.4771  0.7519 -0.2136
  219MOL0     C29441   5.552  -0.108   0.033  0.4757  0.1537  0.5416
  219MOL0     C29442   5.425  -0.170  -0.027  0.0082 -0.2237  0.4864
  219MOL0     C29443   5.306  -0.068  -0.047  0.6819  0.3175 -0.1370
  219MOL0     C29444   5.179  -0.146  -0.078  0.1588 -0.4232  0.3421
  219MOL0     C29445   5.164  -0.187  -0.223  0.7279  0.2608 -0.2563
  219MOL0     C29446   5.127  -0.063  -0.312 -0.3077  0.7105  0.1946
  219MOL0     N29447   4.989  -0.027  -0.308  0.1460  0.4827 -0.2685
  219MOL0     C29448   4.886  -0.096  -0.359  0.8829 -0.3396  0.8494
  219MOL0     C29449   4.775  -0.046  -0.307  0.8014 -0.1824 -0.3583
  219MOL0     C29450   4.632  -0.092  -0.343  0.1517  0.6831  0.4539
  219MOL0     C29451   4.572   0.006  -0.435 -0.2733 -0.2946  0.1204
  219MOL0     C29452   4.627   0.009  -0.581  0.8933 -0.0574 -0.6378
  219MOL0     C29453   4.568   0.127  -0.655  0.0377  0.0740  0.5686
  219MOL0     O29454   4.426   0.132  -0.638 -0.1393  0.3979  0.6619
  219MOL0     C29455   4.348   0.081  -0.740  0.9183 -0.3864  0.8110
  219MOL0     C29456   4.392  -0.001  -0.838 -0.1921 -0.6168 -0.1594
  219MOL0     C29457   4.301  -0.077  -0.912 -0.1797  0.6197  0.3090
  219MOL0     C29458   4.369  -0.162  -1.024  0.0702  0.2580 -0.4033
  219MOL0     C29459   4.161  -0.075  -0.895 -0.1910 -0.2206  0.7211
  219MOL0     C29460   4.049  -0.156  -0.964 -0.3707  0.0912  0.8099
  219MOL0     O29461   3.932  -0.152  -0.895  0.4360 -0.4521  0.0319
  219MOL0     C29462   3.813  -0.163  -0.964  0.1466 -0.1903  0.6739
  219MOL0     C29463   3.701  -0.206  -0.884 -0.3372 -0.2828 -0.8418
  219MOL0     C29464   3.575  -0.220  -0.934  0.7827 -0.4080  0.2791
  219MOL0     C29465   3.557  -0.185  -1.064  0.7215 -0.1271 -0.4010
  219MOL0     O29466   3.428  -0.183  -1.104  0.2039 -0.1103  0.2430
  219MOL0     C29467   3.391  -0.138  -1.239  0.4319 -0.1014  0.2323
  219MOL0     C29468   3.252  -0.115  -1.262  0.0771  0.4283  0.0635
  219MOL0     C29469   3.158  -0.215  -1.204 -0.0818 -0.1965 -0.2809
  219MOL0     C29470   3.009  -0.187  -1.218 -0.6487 -0.3858  0.0421
  219MOL0     C29471   2.921  -0.280  -1.129 -0.4578 -0.0296 -0.3897
  219MOL0     C29472   2.913  -0.419  -1.190  0.4828 -0.4176  0.0807
  219MOL0     C29473   2.779  -0.494  -1.149 -0.2182 -0.7252 -0.4928
  219MOL0     C29474   2.788  -0.643  -1.176 -0.1984  0.5618 -0.3707
  219MOL0    Cl29475   2.819  -0.668  -1.350 -0.3134  0.3106 -0.1714
  219MOL0     C29476   3.659  -0.140  -1.147  0.9506 -0.0678  0.1745
  219MOL0     C29477   3.787  -0.139  -1.097  0.6926  0.4239  0.1621
  219MOL0     O29478   4.078  -0.214  -1.066  0.2143  0.0797  0.4201
  219MOL0     C29479   4.124   0.012  -0.793 -0.2220 -0.3035  0.7009
  219MOL0     C29480   4.213   0.089  -0.719 -0.1255  0.2035 -0.1263
  219MOL0     N29481   4.812   0.066  -0.236  0.3380  0.3292  0.0503
  219MOL0     N29482   4.936   0.076  -0.228 -1.0598 -0.2428 -0.5254
  219MOL0     C29483   5.861   0.238   0.198  0.3570  0.0777 -0.4694
  219MOL0     C29484   5.902   0.257   0.330 -0.3077  0.9798  0.0038
  219MOL0     C29485   5.843   0.266   0.800 -0.3945  0.5309  0.4935
  219MOL0     C29486   5.969   0.299   0.838 -0.9259  0.2126  0.5413
  219MOL0     C29487   5.997   0.330   0.972 -0.7772 -0.0679 -0.1671
  219MOL0     C29488   5.899   0.337   1.070  0.6855 -0.3060 -0.3374
  219MOL0     O29489   5.920   0.366   1.201 -0.4618 -0.5670 -0.1306
  219MOL0     C29490   6.043   0.412   1.249 -0.5944  0.1819  0.0172
  219MOL0     C29491   6.027   0.429   1.403  0.3833 -0.2598 -0.3807
  219MOL0     C29492   6.158   0.465   1.486  0.5550 -0.3413 -0.1720
  219MOL0     C29493   6.258   0.348   1.488 -0.2741 -0.1091  0.0052
  219MOL0     C29494   6.346   0.336   1.372  0.3366  0.0142  0.1024
  219MOL0     C29495   6.419   0.311   1.277 -0.1766 -0.3025  0.0130
  219MOL0     C29496   5.766   0.296   1.037 -0.7017  0.7469  0.1854
  219MOL0     C29497   5.747   0.257   0.907 -0.4703  0.3714  1.0588
  219MOL0     H29498   5.610   0.251   0.473 -0.2255  0.9038 -0.0243
  219MOL0     H29499   5.538   0.191   0.231 -1.0767  3.0604  0.2257
  219MOL0     H29500   5.801   0.092  -0.111 -0.2613  0.7779 -0.0273
  219MOL0     H29501   5.803  -0.003   0.042 -0.7586 -2.9080 -2.0410
  219MOL0     H29502   5.547   0.054  -0.103 -1.7412 -0.1554  0.6196
  219MOL0     H29503   5.657  -0.088  -0.146 -2.6482 -1.0939  0.3973
  219MOL0     H29504   5.623  -0.186   0.061  2.9377  1.4615 -1.6886
  219MOL0     H29505   5.525  -0.055   0.125 -0.0734 -0.8311  0.9707
  219MOL0     H29506   5.452  -0.223  -0.119 -1.3796  0.5794 -0.4271
  219MOL0     H29507   5.394  -0.256   0.034  0.1987 -0.7823 -0.1841
  219MOL0     H29508   5.286  -0.009   0.043 -0.8631 -0.2179 -0.1089
  219MOL0     H29509   5.329  -0.004  -0.132 -2.0312  0.1874 -1.0450
  219MOL0     H29510   5.185  -0.230  -0.008  1.9138 -1.3054 -0.7793
  219MOL0     H29511   5.091  -0.090  -0.046 -2.1827 -3.2951 -0.6500
  219MOL0     H29512   5.252  -0.237  -0.264  0.7847 -0.2940  0.5307
  219MOL0     H29513   5.076  -0.252  -0.216  0.9157  0.1931  2.5222
  219MOL0     H29514   5.153  -0.079  -0.417 -0.4681 -1.1095  0.4060
  219MOL0     H29515   5.192   0.021  -0.284 -1.2464  0.8016  2.3321
  219MOL0     H29516   4.891  -0.179  -0.429 -2.3721 -2.0204  2.4372
  219MOL0     H29517   4.638  -0.188  -0.396 -1.9353  1.1369 -0.7091
  219MOL0     H29518   4.562  -0.098  -0.259 -1.0008  3.6079 -0.1698
  219MOL0     H29519   4.574   0.101  -0.381  0.2092 -0.8409  1.1058
  219MOL0     H29520   4.467  -0.022  -0.443 -0.2144 -0.6042  0.4108
  219MOL0     H29521   4.609  -0.085  -0.633  3.5275 -1.4829  0.8027
  219MOL0     H29522   4.736   0.016  -0.571  0.7385  0.7220  0.7839
  219MOL0     H29523   4.608   0.141  -0.756 -0.3459 -0.9121  0.2712
  219MOL0     H29524   4.611   0.210  -0.599  5.2708 -2.7332  1.3725
  219MOL0     H29525   4.497  -0.017  -0.861  0.0664  2.0798 -1.2527
  219MOL0     H29526   4.308  -0.169  -1.114 -0.5413 -0.4682  0.0582
  219MOL0     H29527   4.457  -0.105  -1.055 -0.7616  0.4747 -2.5395
  219MOL0     H29528   4.405  -0.259  -0.988  0.7906  0.1500 -1.3815
  219MOL0     H29529   3.706  -0.229  -0.778  0.8911  1.8757 -0.3655
  219MOL0     H29530   3.490  -0.250  -0.874  0.1595 -0.8981 -0.8146
  219MOL0     H29531   3.440  -0.042  -1.257 -3.2079  1.5185 -2.0942
  219MOL0     H29532   3.432  -0.215  -1.306  0.0361 -0.0189 -0.1130
  219MOL0     H29533   3.225  -0.014  -1.230  0.3070 -0.3353  2.9775
  219MOL0     H29534   3.243  -0.115  -1.371 -1.0776  0.6944  0.1445
  219MOL0     H29535   3.181  -0.223  -1.097 -0.5666 -0.1165 -0.1726
  219MOL0     H29536   3.177  -0.314  -1.247  4.5060  0.3083  0.0600
  219MOL0     H29537   2.996  -0.087  -1.177 -1.2784 -1.2958  2.1970
  219MOL0     H29538   2.965  -0.184  -1.319 -3.7922 -2.0095  1.2377
  219MOL0     H29539   2.820  -0.239  -1.115 -0.9745 -0.0925 -3.2494
  219MOL0     H29540   2.952  -0.282  -1.024  0.1219 -0.3093 -0.5615
  219MOL0     H29541   2.917  -0.406  -1.299  2.1845  1.8243  0.3371
  219MOL0     H29542   3.000  -0.484  -1.175  0.3642 -1.4593 -2.9799
  219MOL0     H29543   2.695  -0.449  -1.202 -1.8290  0.2282  2.5797
  219MOL0     H29544   2.756  -0.489  -1.042  1.0262  1.1048 -0.2750
  219MOL0     H29545   2.692  -0.694  -1.161  0.7831 -0.9691  1.1200
  219MOL0     H29546   2.865  -0.696  -1.119 -1.6398 -1.1415  0.0882
  219MOL0     H29547   3.649  -0.116  -1.252  1.1362  2.6833  0.7036
  219MOL0     H29548   3.870  -0.124  -1.166 -0.1149 -0.0892 -0.9659
  219MOL0     H29549   4.017   0.012  -0.773 -0.7053 -0.9445 -1.5489
  219MOL0     H29550   4.172   0.157  -0.645  1.5202  0.5060  0.5461
  219MOL0     H29551   5.933   0.243   0.117  3.0561 -0.3585  1.7254
  219MOL0     H29552   6.008   0.278   0.339 -0.4704  2.3712 -0.9171
  219MOL0     H29553   6.057   0.285   0.777  0.5666 -0.4009  2.7376
  219MOL0     H29554   6.100   0.339   1.005 -0.1219  0.4503 -2.1759
  219MOL0     H29555   6.117   0.337   1.219  0.1933  0.0350  2.2178
  219MOL0     H29556   6.068   0.505   1.198  0.8620 -0.8237 -1.2009
  219MOL0     H29557   5.976   0.344   1.450  1.1623  0.0358  1.0776
  219MOL0     H29558   5.957   0.512   1.418  0.5862 -0.1268 -0.1692
  219MOL0     H29559   6.134   0.499   1.587 -0.5991  0.2659 -0.6164
  219MOL0     H29560   6.206   0.549   1.436 -1.9222  0.3665 -1.5690
  219MOL0     H29561   6.207   0.252   1.503 -0.8052 -0.1407 -1.7066
  219MOL0     H29562   6.323   0.363   1.574  0.4134  0.3227 -0.5737
  219MOL0     H29563   6.475   0.302   1.186 -1.6227  0.2346 -0.9578
  219MOL0     H29564   5.685   0.317   1.106 -0.7652  1.3245 -0.0612
  219MOL0     H29565   5.642   0.234   0.891 -0.1460 -1.0463  0.8220
  220MOL0     O29566   6.093   4.857   9.216  0.0603  0.3143 -0.3539
  220MOL0     C29567   6.122   4.740   9.247 -0.4871  0.4596  0.6925
  220MOL0     O29568   6.034   4.644   9.280 -0.1287 -0.2980 -0.3047
  220MOL0     C29569   5.899   4.667   9.279 -0.3871 -0.7245  0.2076
  220MOL0     C29570   5.821   4.596   9.184 -0.7600  0.0904 -0.0413
  220MOL0     C29571   5.684   4.629   9.175  0.4909 -0.1499  0.3600
  220MOL0     C29572   5.619   4.727   9.256  0.1957 -0.0439  0.1161
  220MOL0     O29573   5.489   4.753   9.230  0.2871  0.6019  0.1988
  220MOL0     C29574   5.396   4.791   9.334 -0.6591  0.2269  0.4545
  220MOL0     C29575   5.252   4.775   9.272  0.5476  0.1384  0.1005
  220MOL0     C29576   5.137   4.804   9.362  0.5449 -0.0706  0.1843
  220MOL0     C29577   4.996   4.833   9.282  0.2510 -0.3778 -0.1516
  220MOL0     C29578   4.944   4.716   9.214  1.1363 -0.1929  0.0833
  220MOL0     C29579   4.797   4.733   9.170 -0.9517 -0.0563  0.0314
  220MOL0     C29580   4.762   4.610   9.086  0.5767  0.2563  0.0808
  220MOL0     C29581   4.618   4.599   9.031 -0.5731  0.4182 -0.6401
  220MOL0     N29582   4.521   4.579   9.138  0.1875 -0.1328  0.3279
  220MOL0     C29583   4.407   4.658   9.179 -0.8247 -0.3465 -0.3854
  220MOL0     C29584   4.349   4.587   9.275  0.5257 -0.2430 -0.0632
  220MOL0     C29585   4.227   4.631   9.354 -0.4789  0.9558  0.2513
  220MOL0     C29586   4.098   4.591   9.288 -1.0371 -0.2232  0.8149
  220MOL0     C29587   3.982   4.604   9.395  0.8993  0.7012  1.0333
  220MOL0     C29588   3.844   4.620   9.332  0.5091 -0.1323 -0.5223
  220MOL0     O29589   3.758   4.644   9.444 -0.2005  0.8134 -0.2252
  220MOL0     C29590   3.630   4.682   9.410 -0.4327  0.8693 -0.4873
  220MOL0     C29591   3.580   4.800   9.466 -0.2054  0.2246 -0.2769
  220MOL0     C29592   3.456   4.844   9.432  0.8123 -0.1063  0.6088
  220MOL0     C29593   3.422   4.974   9.504  0.3825 -0.9551 -0.4019
  220MOL0     C29594   3.367   4.760   9.355 -0.7139  0.6198  0.3144
  220MOL0     C29595   3.223   4.800   9.317 -0.0854 -0.4305 -0.5380
  220MOL0     O29596   3.137   4.698   9.274 -0.0218 -0.5923  0.5403
  220MOL0     C29597   3.012   4.725   9.245 -0.0366  0.5887  0.2055
  220MOL0     C29598   2.957   4.750   9.117 -0.6160 -0.0100  0.4825
  220MOL0     C29599   2.822   4.771   9.098 -0.3617  0.1926  0.3340
  220MOL0     C29600   2.733   4.757   9.205  0.4195  0.4579 -0.2334
  220MOL0     O29601   2.602   4.785   9.178 -0.0227  0.0443  0.3151
  220MOL0     C29602   2.509   4.752   9.278  0.3995 -0.1388 -0.2924
  220MOL0     C29603   2.366   4.746   9.224  0.2101 -0.6223  0.3324
  220MOL0     C29604   2.331   4.890   9.163  0.5746 -0.0530 -0.3948
  220MOL0     C29605   2.282   4.878   9.021  0.0675  1.0102 -0.0480
  220MOL0     C29606   2.144   4.817   9.012  0.7048 -0.2950  0.1074
  220MOL0     C29607   2.083   4.814   8.868 -0.0997  1.3491 -1.0495
  220MOL0     C29608   1.975   4.708   8.861  0.4627  0.2112 -0.1811
  220MOL0     C29609   1.854   4.742   8.955 -0.0317 -0.5378  0.4402
  220MOL0    Cl29610   1.771   4.903   8.927  0.0567 -0.0712  0.1261
  220MOL0     C29611   2.778   4.723   9.332 -0.6954 -0.0464  0.4430
  220MOL0     C29612   2.918   4.707   9.348 -0.0796  0.6653 -0.2985
  220MOL0     O29613   3.202   4.919   9.303 -0.4759 -0.3973  0.1392
  220MOL0     C29614   3.417   4.648   9.291  0.3342 -0.0722  0.2322
  220MOL0     C29615   3.545   4.609   9.318  0.2147 -0.0214  0.4476
  220MOL0     N29616   4.414   4.477   9.306 -0.1127 -0.4732  0.9758
  220MOL0     N29617   4.512   4.465   9.218  0.4422  0.0681  0.2371
  220MOL0     C29618   5.700   4.791   9.344 -0.0470 -0.4595  0.3334
  220MOL0     C29619   5.837   4.767   9.356  0.6069 -1.0104 -0.4015
  220MOL0     C29620   6.261   4.696   9.228  1.4352  0.3226 -0.5779
  220MOL0     C29621   6.290   4.557   9.233 -0.1395 -0.5411  0.4875
  220MOL0     C29622   6.420   4.512   9.214  0.0342  0.4294  0.0197
  220MOL0     C29623   6.532   4.602   9.205  0.6591  0.7495  0.6589
  220MOL0     O29624   6.664   4.565   9.190  0.6843 -0.0189 -0.1416
  220MOL0     C29625   6.697   4.431   9.223 -0.4999 -0.5536 -0.0402
  220MOL0     C29626   6.848   4.415   9.197 -0.0689 -0.3329 -1.1171
  220MOL0     C29627   6.942   4.451   9.316 -0.1023 -0.7047  0.0389
  220MOL0     C29628   6.897   4.583   9.383 -0.1200 -0.3380 -0.1047
  220MOL0     C29629   7.008   4.641   9.454  0.0869 -0.5696 -0.2821
  220MOL0     C29630   7.109   4.696   9.501 -0.4222  0.3135  0.4237
  220MOL0     C29631   6.497   4.733   9.205 -0.6292 -0.2745 -0.3098
  220MOL0     C29632   6.367   4.779   9.212  0.5218 -0.5876 -0.2770
  220MOL0     H29633   5.867   4.519   9.124 -0.7818 -1.1540  1.4957
  220MOL0     H29634   5.614   4.578   9.109 -0.1926 -1.7325  2.2258
  220MOL0     H29635   5.412   4.722   9.417  1.6140 -0.9596 -0.8643
  220MOL0     H29636   5.417   4.896   9.352  0.7784  0.1436 -0.5391
  220MOL0     H29637   5.250   4.852   9.194  0.4234  0.7428  0.6884
  220MOL0     H29638   5.246   4.677   9.224  4.0958 -0.6287  0.9204
  220MOL0     H29639   5.111   4.719   9.427 -1.4015  1.1109  1.0219
  220MOL0     H29640   5.166   4.891   9.422  0.5972 -0.8282  1.2923
  220MOL0     H29641   4.923   4.852   9.361  0.6314 -1.6077  0.5319
  220MOL0     H29642   5.002   4.918   9.215 -2.7279 -0.6567 -0.8943
  220MOL0     H29643   5.000   4.691   9.124  0.3313 -0.8025 -0.2618
  220MOL0     H29644   4.950   4.629   9.280 -3.8050  1.2359  2.9795
  220MOL0     H29645   4.732   4.742   9.257 -0.4674  0.0494  0.3872
  220MOL0     H29646   4.777   4.811   9.097 -0.2897  0.5738  0.5113
  220MOL0     H29647   4.832   4.609   9.002  0.3399 -3.3594 -0.2274
  220MOL0     H29648   4.775   4.519   9.145  0.1547 -1.3607 -2.1964
  220MOL0     H29649   4.622   4.509   8.970 -0.1492  1.7851 -2.7194
  220MOL0     H29650   4.590   4.689   8.975  0.9776  0.8517 -0.7730
  220MOL0     H29651   4.370   4.753   9.143 -1.1282 -0.1702  0.3758
  220MOL0     H29652   4.236   4.589   9.455 -1.0897  3.2721  1.3546
  220MOL0     H29653   4.237   4.740   9.365  5.2358  0.7277  0.3517
  220MOL0     H29654   4.101   4.490   9.246 -1.5846  0.6245 -1.4286
  220MOL0     H29655   4.084   4.659   9.203 -2.4996 -1.1290  0.2824
  220MOL0     H29656   4.004   4.695   9.452  1.8325 -1.3097  4.1934
  220MOL0     H29657   3.992   4.511   9.453 -1.5167 -2.3117 -2.8923
  220MOL0     H29658   3.822   4.536   9.265  1.0462 -0.0312 -0.8315
  220MOL0     H29659   3.846   4.709   9.268 -0.3413 -0.6894 -1.3527
  220MOL0     H29660   3.639   4.852   9.542 -0.8129  1.3778 -0.5678
  220MOL0     H29661   3.453   4.967   9.609 -0.4094  2.1390  0.1126
  220MOL0     H29662   3.482   5.056   9.466 -1.0494  0.2858 -0.0690
  220MOL0     H29663   3.319   5.008   9.499  0.5890 -0.4762 -2.3267
  220MOL0     H29664   3.031   4.770   9.040  2.3327 -0.9544  2.8814
  220MOL0     H29665   2.789   4.808   9.002 -1.9813 -1.3155  0.2627
  220MOL0     H29666   2.530   4.649   9.308  0.4523  0.1296  0.6219
  220MOL0     H29667   2.512   4.814   9.368 -2.1868  2.5503 -1.8947
  220MOL0     H29668   2.360   4.666   9.149  0.7003 -0.5973  0.2611
  220MOL0     H29669   2.289   4.727   9.299  0.6351  2.8503  1.8429
  220MOL0     H29670   2.420   4.954   9.163  1.8342 -1.7339 -1.0837
  220MOL0     H29671   2.253   4.936   9.224  0.9327 -0.9052  0.7366
  220MOL0     H29672   2.268   4.978   8.979 -2.3440  0.8969  0.2937
  220MOL0     H29673   2.355   4.821   8.964 -0.4556 -0.5025  0.7256
  220MOL0     H29674   2.080   4.874   9.080  2.2130  2.6837 -0.8301
  220MOL0     H29675   2.154   4.714   9.049 -0.2753  0.4580  2.6925
  220MOL0     H29676   2.044   4.912   8.837 -3.0277  1.3493  2.0425
  220MOL0     H29677   2.169   4.794   8.803 -1.2743  0.9290 -2.5077
  220MOL0     H29678   2.009   4.607   8.883  0.1262 -0.1037 -1.0805
  220MOL0     H29679   1.943   4.710   8.757 -2.4124  0.4682  0.6175
  220MOL0     H29680   1.893   4.730   9.056  2.7160  2.1745 -0.1363
  220MOL0     H29681   1.784   4.661   8.933  0.9552 -1.2246 -0.2739
  220MOL0     H29682   2.703   4.728   9.410 -1.5552  1.6767 -0.4410
  220MOL0     H29683   2.949   4.688   9.451 -0.9946  1.7479  0.2072
  220MOL0     H29684   3.361   4.579   9.229 -0.8868 -0.5174  1.7602
  220MOL0     H29685   3.573   4.515   9.271  2.8432  1.3447 -0.9837
  220MOL0     H29686   5.660   4.870   9.407  2.4569  0.7372  0.5487
  220MOL0     H29687   5.886   4.832   9.428 -0.0129  0.8607 -1.6176
  220MOL0     H29688   6.212   4.484   9.250  0.1934 -0.8851  0.5353
  220MOL0     H29689   6.435   4.405   9.214  0.5582  0.5010  0.2285
  220MOL0     H29690   6.668   4.414   9.327  2.7188  2.9366  1.6630
  220MOL0     H29691   6.648   4.359   9.156 -3.8845 -1.4872  3.1137
  220MOL0     H29692   6.869   4.494   9.124  3.5858  0.0183  0.0881
  220MOL0     H29693   6.880   4.317   9.163  1.9995  0.0657 -0.4785
  220MOL0     H29694   7.044   4.462   9.276 -0.0440 -0.6233  0.2081
  220MOL0     H29695   6.942   4.380   9.399 -3.4299 -0.7444  0.1080
  220MOL0     H29696   6.825   4.547   9.458 -0.6048 -0.6170 -0.6967
  220MOL0     H29697   6.848   4.656   9.318 -1.7678 -1.1391  0.1785
  220MOL0     H29698   7.193   4.748   9.542 -0.1160 -0.0800  0.3091
  220MOL0     H29699   6.576   4.808   9.197 -0.3836 -0.6246 -1.4739
  220MOL0     H29700   6.334   4.882   9.202 -1.0864 -0.9116  1.2496
  221MOL0     O29701   8.475   0.251   9.766  0.5093 -0.5398  0.6177
  221MOL0     C29702   8.536   0.147   9.775  0.0360 -0.4323 -0.5943
  221MOL0     O29703   8.474   0.030   9.818 -0.3313 -0.3701 -0.1599
  221MOL0     C29704   8.348   0.039   9.860 -0.1046  0.4519 -0.3078
  221MOL0     C29705   8.236   0.004   9.780 -1.0259 -0.2225  0.6160
  221MOL0     C29706   8.113  -0.010   9.838  0.3138 -0.4186 -1.2013
  221MOL0     C29707   8.092   0.011   9.975  0.1324  0.0133 -0.7668
  221MOL0     O29708   7.962  -0.003  10.028  0.0671  0.0158 -0.1640
  221MOL0     C29709   7.945   0.034  10.164 -0.5323  0.1268  0.0747
  221MOL0     C29710   7.792   0.043  10.175 -0.7859  0.1840  0.0658
  221MOL0     C29711   7.756   0.116  10.311  0.8947 -0.4534 -0.7011
  221MOL0     C29712   7.612   0.094  10.351  0.2705  0.1677 -1.0359
  221MOL0     C29713   7.517   0.162  10.255 -0.5857 -0.1719 -0.2001
  221MOL0     C29714   7.375   0.156  10.307 -0.3385 -0.2018 -0.2277
  221MOL0     C29715   7.325   0.283  10.382 -1.3476  0.5399 -0.1720
  221MOL0     C29716   7.296   0.399  10.290 -0.4109 -0.3910 -0.2549
  221MOL0     N29717   7.242   0.504  10.377  0.3326  0.0145  0.4474
  221MOL0     C29718   7.315   0.607  10.430  0.6758  0.7957  0.3247
  221MOL0     C29719   7.223   0.697  10.477 -0.2100  0.3499  0.3536
  221MOL0     C29720   7.255   0.836  10.534  0.0123 -0.2777 -0.2359
  221MOL0     C29721   7.128   0.931  10.547 -0.9692 -1.0197 -0.8912
  221MOL0     C29722   7.149   1.066  10.620 -1.2786  0.2945  0.0293
  221MOL0     C29723   7.043   1.170  10.585  0.4896 -0.3022 -0.1676
  221MOL0     O29724   7.072   1.218  10.454  0.2235 -0.6706 -0.2089
  221MOL0     C29725   6.992   1.320  10.410 -0.3161  1.1663  0.0899
  221MOL0     C29726   6.867   1.366  10.462 -0.5581  0.5706  0.1058
  221MOL0     C29727   6.786   1.461  10.395 -0.3093 -0.5859  0.1810
  221MOL0     C29728   6.653   1.481  10.460  0.3367  0.6925 -0.0872
  221MOL0     C29729   6.835   1.518  10.270 -0.5940  0.2446 -1.0056
  221MOL0     C29730   6.761   1.615  10.177 -0.5653 -0.2257 -0.5413
  221MOL0     O29731   6.663   1.692  10.225 -0.3737 -0.2832 -0.0028
  221MOL0     C29732   6.589   1.785  10.153  0.8419 -0.2028  0.0241
  221MOL0     C29733   6.500   1.856  10.241 -0.1156  0.2646 -1.0119
  221MOL0     C29734   6.400   1.941  10.188  0.0725 -0.0772 -0.2700
  221MOL0     C29735   6.387   1.955  10.051  0.0048  0.2378 -0.1246
  221MOL0     O29736   6.285   2.031   9.993  0.0704  0.3013 -0.2240
  221MOL0     C29737   6.317   2.157   9.940  0.6511  1.0888 -0.1873
  221MOL0     C29738   6.226   2.188   9.827 -0.3273  0.2394 -0.2176
  221MOL0     C29739   6.096   2.256   9.864 -0.0340  0.3024  0.1072
  221MOL0     C29740   6.118   2.408   9.865 -0.1406  0.7090 -0.0841
  221MOL0     C29741   5.998   2.488   9.910  0.0528  0.0339  0.2159
  221MOL0     C29742   5.864   2.463   9.834 -0.1766  0.6954 -0.7778
  221MOL0     C29743   5.870   2.460   9.681  0.5805  0.1309  0.1070
  221MOL0     C29744   5.742   2.503   9.606 -0.1277 -0.6660  0.3947
  221MOL0    Cl29745   5.587   2.425   9.659 -0.0639 -0.3085  0.5199
  221MOL0     C29746   6.481   1.891   9.963  0.1085  0.8293 -0.6382
  221MOL0     C29747   6.578   1.805  10.016 -1.2764 -0.5603 -0.9304
  221MOL0     O29748   6.791   1.613  10.058 -0.4199  0.6821  1.2143
  221MOL0     C29749   6.963   1.473  10.224  0.1740  0.0450  1.3789
  221MOL0     C29750   7.036   1.373  10.294 -0.7302  0.6797  0.1447
  221MOL0     N29751   7.105   0.640  10.453  0.8897 -0.9399 -0.3525
  221MOL0     N29752   7.111   0.527  10.396 -0.4456  0.3597  0.1257
  221MOL0     C29753   8.204   0.052  10.051 -0.8614  0.7028 -0.4687
  221MOL0     C29754   8.332   0.062   9.995  0.2574  0.0260 -0.7525
  221MOL0     C29755   8.684   0.143   9.753  0.3440 -0.8467  0.9155
  221MOL0     C29756   8.752   0.268   9.744 -0.0038  0.6436  0.0881
  221MOL0     C29757   8.890   0.267   9.720  0.1236  0.6868  0.0360
  221MOL0     C29758   8.960   0.140   9.716 -0.6979 -0.4399 -0.5222
  221MOL0     O29759   9.097   0.120   9.702  0.1686 -0.8137  0.0114
  221MOL0     C29760   9.188   0.232   9.733 -0.1700  0.9361 -0.1699
  221MOL0     C29761   9.308   0.177   9.815  0.8279 -0.2702 -0.2786
  221MOL0     C29762   9.396   0.087   9.743  0.2067 -1.0926  0.0093
  221MOL0     C29763   9.472   0.163   9.640  0.0877 -0.3303 -0.1758
  221MOL0     C29764   9.549   0.076   9.557  0.1092  0.2617  0.2002
  221MOL0     C29765   9.608  -0.002   9.481  0.7624 -0.1305 -0.4480
  221MOL0     C29766   8.894   0.018   9.725 -0.7134 -0.5599  1.0747
  221MOL0     C29767   8.757   0.020   9.751  0.4137 -0.0805 -0.6175
  221MOL0     H29768   8.242  -0.007   9.672  0.5063  1.8308  0.4374
  221MOL0     H29769   8.033  -0.050   9.777 -2.1229  0.1064  1.4584
  221MOL0     H29770   7.972  -0.048  10.232 -0.6029 -0.2053 -0.2962
  221MOL0     H29771   7.994   0.128  10.192  1.1384 -1.1046  1.6117
  221MOL0     H29772   7.750   0.102  10.093 -2.5469 -1.2642 -0.1378
  221MOL0     H29773   7.757  -0.060  10.188  0.2807 -0.1609  0.2987
  221MOL0     H29774   7.819   0.076  10.392  1.4672 -2.9800 -2.2629
  221MOL0     H29775   7.776   0.223  10.309  0.1240 -0.2871 -3.5963
  221MOL0     H29776   7.586  -0.012  10.361 -1.9989  0.6511 -1.3560
  221MOL0     H29777   7.601   0.138  10.450  0.3174 -0.6268 -0.6684
  221MOL0     H29778   7.539   0.266  10.230  1.3416 -0.8693 -1.6816
  221MOL0     H29779   7.525   0.095  10.169 -0.7451 -1.9694  1.1328
  221MOL0     H29780   7.314   0.108  10.230 -0.6842 -1.2505  0.6604
  221MOL0     H29781   7.377   0.084  10.390  1.6446  0.7599  0.6255
  221MOL0     H29782   7.248   0.262  10.456 -0.8479 -0.5707  0.0583
  221MOL0     H29783   7.408   0.317  10.445 -3.4562  0.5977  2.7380
  221MOL0     H29784   7.216   0.367  10.222  0.3558  1.0799 -1.9389
  221MOL0     H29785   7.366   0.444  10.219  0.5541 -1.6277 -0.1075
  221MOL0     H29786   7.422   0.622  10.425  0.5295  1.6639 -2.8617
  221MOL0     H29787   7.294   0.828  10.636 -0.2816  1.0829 -0.0002
  221MOL0     H29788   7.334   0.880  10.472  0.4521 -0.2456  0.3405
  221MOL0     H29789   7.051   0.880  10.604  0.7540 -0.3572  2.2442
  221MOL0     H29790   7.079   0.949  10.451 -0.7389  0.5265 -0.7523
  221MOL0     H29791   7.251   1.103  10.606 -1.4724  0.1200 -2.1024
  221MOL0     H29792   7.140   1.058  10.729 -0.7276  0.9592  0.1324
  221MOL0     H29793   7.047   1.258  10.650  2.8014  0.1020 -0.7663
  221MOL0     H29794   6.948   1.117  10.601  0.7003 -0.3829  0.9393
  221MOL0     H29795   6.831   1.305  10.544 -0.1232 -2.3584 -1.7217
  221MOL0     H29796   6.660   1.522  10.561  1.0794  0.2914  0.0339
  221MOL0     H29797   6.590   1.547  10.399 -0.5547 -0.2022 -0.1581
  221MOL0     H29798   6.608   1.382  10.462 -0.9248  1.1604 -2.0393
  221MOL0     H29799   6.509   1.834  10.347 -2.3523 -3.1427 -1.3915
  221MOL0     H29800   6.320   1.985  10.248  0.8286  2.7713 -1.1852
  221MOL0     H29801   6.307   2.224  10.026  4.5847 -0.8881  2.0405
  221MOL0     H29802   6.420   2.165   9.903  0.6847  0.8851 -0.1361
  221MOL0     H29803   6.284   2.248   9.757  0.7532  0.5280  0.8812
  221MOL0     H29804   6.195   2.098   9.774 -1.4624  1.1405 -1.1332
  221MOL0     H29805   6.072   2.207   9.959 -0.5143 -1.3180 -0.8277
  221MOL0     H29806   6.009   2.237   9.801  0.0813 -2.0765  0.5906
  221MOL0     H29807   6.206   2.420   9.929 -0.3114 -1.7035  0.6885
  221MOL0     H29808   6.149   2.441   9.765  1.1127 -1.0428 -0.3203
  221MOL0     H29809   6.034   2.592   9.903  1.2861 -0.4950 -2.0192
  221MOL0     H29810   5.984   2.467  10.017 -1.4347 -1.0626 -0.1687
  221MOL0     H29811   5.826   2.367   9.869  0.7315  1.3678  2.4170
  221MOL0     H29812   5.807   2.543   9.883 -0.6528 -0.7035  1.0432
  221MOL0     H29813   5.884   2.353   9.661  1.8786 -0.0677  1.8215
  221MOL0     H29814   5.952   2.515   9.635 -0.3984  0.4250 -1.3460
  221MOL0     H29815   5.755   2.483   9.499 -3.0309  0.4441 -0.2732
  221MOL0     H29816   5.729   2.612   9.610  0.5271 -0.5410 -0.5693
  221MOL0     H29817   6.469   1.895   9.855  5.9608 -0.0670 -1.6796
  221MOL0     H29818   6.636   1.748   9.944  0.4622  0.9606 -0.7836
  221MOL0     H29819   7.005   1.511  10.132 -1.9048 -0.6413  0.0889
  221MOL0     H29820   7.129   1.344  10.246 -0.0797 -1.0445  2.2891
  221MOL0     H29821   8.200   0.080  10.156 -1.9304 -0.9179 -0.0411
  221MOL0     H29822   8.405   0.095  10.067 -1.0468  0.2642  0.5175
  221MOL0     H29823   8.697   0.362   9.741 -2.6462 -0.8282 -0.1427
  221MOL0     H29824   8.932   0.367   9.715  2.0174  0.2289  3.5182
  221MOL0     H29825   9.215   0.279   9.638 -0.2125 -1.0001 -1.1977
  221MOL0     H29826   9.133   0.290   9.807 -1.5501 -1.6076  0.9368
  221MOL0     H29827   9.273   0.116   9.899 -0.2714 -2.5241 -2.2294
  221MOL0     H29828   9.370   0.254   9.861 -0.8617 -0.1546  1.9901
  221MOL0     H29829   9.337   0.008   9.697 -2.4901 -1.0499  3.0219
  221MOL0     H29830   9.463   0.045   9.819  2.7886  1.9965 -0.3629
  221MOL0     H29831   9.543   0.232   9.687 -2.5027  2.3254  0.0668
  221MOL0     H29832   9.409   0.227   9.578  2.3401  0.8793 -1.3327
  221MOL0     H29833   9.661  -0.068   9.415 -0.5014 -2.8715  1.0788
  221MOL0     H29834   8.952  -0.073   9.721 -2.4223 -1.6444 -0.7172
  221MOL0     H29835   8.701  -0.069   9.779 -1.3718  1.1437 -0.0581
  222MOL0     O29836   8.332   5.107   0.202 -0.5880  0.2954 -0.2768
  222MOL0     C29837   8.388   5.151   0.294  0.4240 -0.6968  0.0832
  222MOL0     O29838   8.528   5.145   0.320  0.3340 -0.1854  0.5046
  222MOL0     C29839   8.617   5.087   0.242 -0.2625 -0.1594  0.5402
  222MOL0     C29840   8.752   5.123   0.270  0.3125  0.2226  0.3876
  222MOL0     C29841   8.854   5.079   0.189 -0.1001 -0.9280  0.2284
  222MOL0     C29842   8.839   4.998   0.078 -0.0369  0.5172 -0.0850
  222MOL0     O29843   8.932   4.961  -0.016 -0.4152  0.0553 -0.0852
  222MOL0     C29844   9.064   4.975   0.019 -0.4353 -0.7926  0.2210
  222MOL0     C29845   9.176   4.925  -0.078 -0.1394  0.2962 -0.5332
  222MOL0     C29846   9.318   4.949  -0.035 -0.5185  0.4262 -0.1389
  222MOL0     C29847   9.359   4.873   0.085 -0.1618  0.5929  0.0306
  222MOL0     C29848   9.506   4.872   0.110 -0.0369 -0.2131 -0.0492
  222MOL0     C29849   9.536   4.851   0.260  0.2312 -0.3290  0.0300
  222MOL0     C29850   9.682   4.846   0.293 -0.0852 -0.4749 -0.1181
  222MOL0     C29851   9.716   4.820   0.443 -0.1987 -0.3980  0.3819
  222MOL0     N29852   9.678   4.685   0.497 -0.1870 -0.4595 -0.1053
  222MOL0     C29853   9.653   4.656   0.635 -0.2702  0.3786  0.6501
  222MOL0     C29854   9.644   4.527   0.647 -0.0557  0.2180 -0.7529
  222MOL0     C29855   9.634   4.434   0.759 -0.2450  0.3121 -0.3038
  222MOL0     C29856   9.509   4.433   0.847  0.8424 -0.7605 -0.1477
  222MOL0     C29857   9.504   4.323   0.950  0.0508 -0.1188 -0.3777
  222MOL0     C29858   9.396   4.352   1.062 -0.7537 -0.7259 -0.3567
  222MOL0     O29859   9.263   4.340   1.007 -0.5411  0.5783 -0.0341
  222MOL0     C29860   9.157   4.355   1.092 -0.0701  0.2624 -1.2665
  222MOL0     C29861   9.160   4.315   1.232  0.5268  0.8192  0.0098
  222MOL0     C29862   9.054   4.335   1.320 -0.8696  0.5917 -0.8776
  222MOL0     C29863   9.072   4.286   1.459 -0.3759 -0.1984  0.2233
  222MOL0     C29864   8.929   4.365   1.258  0.0753  0.5549 -0.3248
  222MOL0     C29865   8.799   4.368   1.334  0.0152  0.1729 -0.3914
  222MOL0     O29866   8.700   4.439   1.274 -0.9967 -0.2322  1.0335
  222MOL0     C29867   8.572   4.418   1.313 -0.2055  0.2447 -0.6241
  222MOL0     C29868   8.483   4.336   1.246  0.3545  0.1980 -0.3555
  222MOL0     C29869   8.346   4.325   1.278  0.1104 -0.1241  0.3790
  222MOL0     C29870   8.296   4.393   1.392 -0.5346  1.0433  0.3208
  222MOL0     O29871   8.168   4.368   1.423 -0.1437 -0.3696  0.6874
  222MOL0     C29872   8.094   4.434   1.529  0.0106 -0.3721  0.3189
  222MOL0     C29873   7.941   4.411   1.510  0.2358 -0.0605 -0.1407
  222MOL0     C29874   7.907   4.267   1.538 -0.0474  0.5926 -0.0019
  222MOL0     C29875   7.762   4.235   1.570 -0.2704 -0.5377 -0.7131
  222MOL0     C29876   7.658   4.283   1.465 -0.2341 -0.3732  0.2075
  222MOL0     C29877   7.513   4.241   1.510  0.8061 -0.0929  0.1705
  222MOL0     C29878   7.465   4.309   1.637 -0.8447 -0.3496 -0.1525
  222MOL0     C29879   7.362   4.239   1.728 -0.1812  0.8086  0.5078
  222MOL0    Cl29880   7.418   4.073   1.775 -0.0669  0.1504 -0.3430
  222MOL0     C29881   8.388   4.468   1.462 -0.2562  0.5885  0.4928
  222MOL0     C29882   8.527   4.483   1.426  0.5878  1.5368 -0.8308
  222MOL0     O29883   8.782   4.286   1.420  0.5155  0.3422 -0.1723
  222MOL0     C29884   8.930   4.412   1.125 -0.1670 -0.9580  0.6520
  222MOL0     C29885   9.038   4.408   1.041  0.2809 -0.2763 -0.7340
  222MOL0     N29886   9.661   4.477   0.523  0.7397  0.3349 -0.1394
  222MOL0     N29887   9.685   4.568   0.429  0.9369  0.3651  0.0477
  222MOL0     C29888   8.706   4.957   0.054  0.4489 -0.2181 -0.6571
  222MOL0     C29889   8.595   4.993   0.138  0.1126  0.0044 -0.3725
  222MOL0     C29890   8.315   5.218   0.403  0.9586 -0.3029  0.4390
  222MOL0     C29891   8.385   5.281   0.507  0.8779 -0.1365  1.0615
  222MOL0     C29892   8.319   5.348   0.618 -0.8101  0.1791  0.3033
  222MOL0     C29893   8.176   5.362   0.625 -0.7051  0.3237 -0.6319
  222MOL0     O29894   8.121   5.426   0.743  0.2334  0.3735 -0.0313
  222MOL0     C29895   7.976   5.422   0.760 -0.7738 -0.5669 -0.0716
  222MOL0     C29896   7.930   5.550   0.815  0.3942  0.1621  0.4003
  222MOL0     C29897   7.780   5.552   0.824 -0.2053 -0.4071  0.5936
  222MOL0     C29898   7.722   5.461   0.929  0.4426  0.0013  0.3992
  222MOL0     C29899   7.588   5.504   0.975  0.3630 -0.4897 -0.5517
  222MOL0     C29900   7.481   5.560   1.007 -0.5225 -0.2904 -0.2549
  222MOL0     C29901   8.112   5.307   0.514  1.3645 -0.4352  0.1818
  222MOL0     C29902   8.171   5.239   0.404  0.4647 -0.1695 -0.4654
  222MOL0     H29903   8.775   5.187   0.355  0.8147  0.8460 -0.2117
  222MOL0     H29904   8.954   5.115   0.214 -1.3603  3.0125  0.3694
  222MOL0     H29905   9.077   5.084   0.023  0.0195 -0.8635  0.6581
  222MOL0     H29906   9.095   4.923   0.110  1.5074  0.1532  0.1345
  222MOL0     H29907   9.158   4.820  -0.099 -0.5162 -0.4099  2.6922
  222MOL0     H29908   9.159   4.987  -0.167  2.3992  2.7368  0.5136
  222MOL0     H29909   9.380   4.915  -0.119  1.7312 -3.2951  2.7060
  222MOL0     H29910   9.336   5.055  -0.014  0.3783  0.6627 -1.8744
  222MOL0     H29911   9.295   4.905   0.168 -1.6555  0.7885 -1.1596
  222MOL0     H29912   9.342   4.766   0.070  0.7839  0.2525  1.2539
  222MOL0     H29913   9.555   4.792   0.053 -2.6554 -0.4714 -2.1450
  222MOL0     H29914   9.540   4.974   0.091  0.3390 -0.0479  1.4338
  222MOL0     H29915   9.495   4.942   0.305  2.7816  0.7896  0.2548
  222MOL0     H29916   9.486   4.764   0.303  0.0801  1.0027  2.7716
  222MOL0     H29917   9.723   4.760   0.240  0.0801 -0.2131 -0.4179
  222MOL0     H29918   9.736   4.935   0.258 -0.1373  0.1222  1.2283
  222MOL0     H29919   9.661   4.896   0.501 -0.4880  0.2206 -0.6643
  222MOL0     H29920   9.821   4.839   0.465  0.3319 -0.7663 -1.6427
  222MOL0     H29921   9.647   4.724   0.719  0.2663  0.3430  0.7160
  222MOL0     H29922   9.647   4.336   0.711 -1.7605 -0.7885  1.3964
  222MOL0     H29923   9.724   4.456   0.816 -0.4611  0.0578  0.1362
  222MOL0     H29924   9.418   4.427   0.786 -0.5733 -2.2101  1.9842
  222MOL0     H29925   9.504   4.530   0.898 -1.9186 -0.8687 -0.0816
  222MOL0     H29926   9.604   4.317   0.995 -0.1891  4.2046  1.2458
  222MOL0     H29927   9.477   4.225   0.911  1.3524  0.1572 -2.1152
  222MOL0     H29928   9.410   4.447   1.115 -2.2829 -2.5198  3.6642
  222MOL0     H29929   9.410   4.271   1.134  1.6395  1.2495  1.5761
  222MOL0     H29930   9.250   4.265   1.267  0.2708 -1.0098 -1.7343
  222MOL0     H29931   9.179   4.280   1.480 -0.4521 -2.1361  0.2690
  222MOL0     H29932   9.016   4.341   1.536 -0.6413 -0.8831  0.5371
  222MOL0     H29933   9.048   4.179   1.471  0.2815 -0.3520  0.1783
  222MOL0     H29934   8.512   4.283   1.156 -1.1656  1.2323 -1.5004
  222MOL0     H29935   8.274   4.276   1.214  0.2143 -1.2912  1.1367
  222MOL0     H29936   8.128   4.390   1.622  1.4472 -1.5513 -0.7262
  222MOL0     H29937   8.121   4.540   1.526 -1.8641  0.1294 -0.0458
  222MOL0     H29938   7.882   4.459   1.588 -1.9657 -1.8446 -0.6055
  222MOL0     H29939   7.889   4.436   1.418 -2.3983  0.1340  1.2923
  222MOL0     H29940   7.965   4.221   1.619  0.3083 -1.2187 -1.2260
  222MOL0     H29941   7.928   4.205   1.451  1.1679 -0.3511  0.9209
  222MOL0     H29942   7.746   4.130   1.595 -1.0342 -0.2510  0.0761
  222MOL0     H29943   7.747   4.285   1.667  2.8610  3.0524 -1.8256
  222MOL0     H29944   7.686   4.231   1.373  0.6643 -1.6758  1.1749
  222MOL0     H29945   7.669   4.389   1.440  1.5946 -0.5989 -0.0814
  222MOL0     H29946   7.458   4.267   1.419  2.6720 -3.1904 -2.0381
  222MOL0     H29947   7.495   4.133   1.522 -3.3832  0.5416  1.1835
  222MOL0     H29948   7.419   4.407   1.624 -1.3630 -0.2039  2.2252
  222MOL0     H29949   7.555   4.318   1.700  1.1792  3.8609 -3.2137
  222MOL0     H29950   7.268   4.229   1.673  0.8576 -0.6067 -1.0837
  222MOL0     H29951   7.326   4.299   1.813 -0.5298 -0.2891  1.1649
  222MOL0     H29952   8.350   4.515   1.552  0.3277 -0.5144  1.3498
  222MOL0     H29953   8.594   4.548   1.481  2.3208 -0.0950 -0.9009
  222MOL0     H29954   8.845   4.467   1.087  0.6793  0.7202  1.0818
  222MOL0     H29955   9.023   4.429   0.936 -0.1465  0.9243 -0.4494
  222MOL0     H29956   8.689   4.899  -0.036  1.2548  1.2741 -1.8304
  222MOL0     H29957   8.497   4.953   0.116  0.2374 -0.8521  0.5397
  222MOL0     H29958   8.494   5.277   0.508  0.9517  1.0607 -0.1071
  222MOL0     H29959   8.382   5.386   0.698  1.0360 -0.5384 -0.7366
  222MOL0     H29960   7.932   5.411   0.660 -1.5445 -1.5620  0.3560
  222MOL0     H29961   7.958   5.332   0.819  2.8022  0.3254  2.7706
  222MOL0     H29962   7.970   5.628   0.750  0.5189 -0.3832 -0.1970
  222MOL0     H29963   7.979   5.559   0.912 -2.4544  2.9900  1.7603
  222MOL0     H29964   7.722   5.533   0.733  1.3099  1.3799 -0.8248
  222MOL0     H29965   7.753   5.650   0.866 -0.7873  0.0814 -0.8718
  222MOL0     H29966   7.786   5.457   1.018  2.9644  2.1800 -1.1485
  222MOL0     H29967   7.709   5.357   0.898 -0.8735 -0.0872  1.1809
  222MOL0     H29968   7.382   5.599   1.021 -0.9640 -1.8673  1.3926
  222MOL0     H29969   8.004   5.311   0.511  1.3846 -0.1574 -1.8048
  222MOL0     H29970   8.116   5.195   0.321  1.0853  0.8813 -1.4731
  223MOL0     O29971   1.343   8.711   6.840  0.4308  0.2945 -0.0753
  223MOL0     C29972   1.409   8.790   6.774  0.6801  0.1801  0.0860
  223MOL0     O29973   1.363   8.916   6.720 -0.2489  0.2344 -0.2576
  223MOL0     C29974   1.228   8.962   6.733  0.6247  0.1851  0.3468
  223MOL0     C29975   1.208   9.099   6.709  1.1179  0.7136 -0.5389
  223MOL0     C29976   1.071   9.144   6.715  0.1333 -0.5758 -0.2769
  223MOL0     C29977   0.957   9.073   6.714 -0.6836  0.3414  0.0539
  223MOL0     O29978   0.829   9.116   6.711  0.0668 -0.7736 -1.0172
  223MOL0     C29979   0.771   9.124   6.583  0.0797  0.4810  0.4314
  223MOL0     C29980   0.626   9.179   6.596  0.8971  0.0206  0.0949
  223MOL0     C29981   0.546   9.098   6.700  0.2802  0.4174  0.4203
  223MOL0     C29982   0.400   9.147   6.714 -0.2715 -0.4042  0.7755
  223MOL0     C29983   0.337   9.073   6.828 -0.0834 -0.4087  0.5776
  223MOL0     C29984   0.199   9.127   6.857  0.7626 -0.7575 -0.4793
  223MOL0     C29985   0.145   9.102   7.006  0.7734 -0.6219  0.3668
  223MOL0     C29986   0.038   9.195   7.041  0.0153  0.5098 -0.0071
  223MOL0     N29987  -0.083   9.211   6.963 -0.3168  0.2135  0.3184
  223MOL0     C29988  -0.147   9.111   6.912 -0.0080  0.0320  0.0283
  223MOL0     C29989  -0.229   9.163   6.827  0.6066 -0.6763 -0.2559
  223MOL0     C29990  -0.314   9.085   6.732 -0.2820 -0.8093 -0.3760
  223MOL0     C29991  -0.454   9.076   6.787 -0.3462 -0.6328 -0.0015
  223MOL0     C29992  -0.533   9.209   6.777 -0.0772  0.5782 -0.1262
  223MOL0     C29993  -0.664   9.199   6.840  0.1217  0.0411  0.2774
  223MOL0     O29994  -0.751   9.112   6.770 -0.0395 -0.0025 -0.2275
  223MOL0     C29995  -0.885   9.130   6.791 -0.2280 -1.2689 -0.4876
  223MOL0     C29996  -0.969   9.102   6.698  0.3830  0.4692  0.3016
  223MOL0     C29997  -1.105   9.115   6.710 -0.7009  0.1981  0.2940
  223MOL0     C29998  -1.175   9.085   6.576 -0.5279  0.1931 -0.0947
  223MOL0     C29999  -1.161   9.152   6.823  0.1880  0.5011  0.3659
  223MOL0     C30000  -1.313   9.141   6.848  0.0679  0.3706 -1.4736
  223MOL0     O30001  -1.359   9.203   6.964 -0.3872  0.1438  0.0659
  223MOL0     C30002  -1.500   9.232   6.974  0.1594 -0.1929  0.2482
  223MOL0     C30003  -1.594   9.132   7.010  0.7656 -0.3116  0.9086
  223MOL0     C30004  -1.727   9.162   7.022 -0.3803 -0.1962  0.2356
  223MOL0     C30005  -1.779   9.291   7.000  0.1523 -1.2024 -0.0771
  223MOL0     O30006  -1.915   9.314   7.010 -0.4306  0.4291 -0.3419
  223MOL0     C30007  -1.967   9.421   6.930 -0.3106 -0.9072 -0.1905
  223MOL0     C30008  -2.120   9.433   6.935 -0.8461 -0.9149  0.3608
  223MOL0     C30009  -2.170   9.291   6.932  0.1352 -0.3656  0.1380
  223MOL0     C30010  -2.326   9.307   6.933  0.5629  0.4300 -0.4032
  223MOL0     C30011  -2.391   9.178   6.877  1.2530 -0.1247  0.1425
  223MOL0     C30012  -2.375   9.063   6.976 -0.3483 -0.1387 -0.5975
  223MOL0     C30013  -2.466   8.956   6.917 -0.2927 -0.0373  0.6361
  223MOL0     C30014  -2.444   8.827   7.001 -0.7645  0.3685 -0.3399
  223MOL0    Cl30015  -2.525   8.688   6.919  0.1770  0.0031  0.2601
  223MOL0     C30016  -1.683   9.392   6.968  0.0972  0.2119 -0.0172
  223MOL0     C30017  -1.546   9.359   6.952 -0.5318  0.1718  1.0845
  223MOL0     O30018  -1.388   9.077   6.775 -0.2471 -0.2811 -0.3761
  223MOL0     C30019  -1.076   9.194   6.925  0.3093  0.6369  1.2601
  223MOL0     C30020  -0.933   9.178   6.913 -0.6280 -0.6757  0.0163
  223MOL0     N30021  -0.224   9.297   6.837 -0.3256 -0.1628 -0.3269
  223MOL0     N30022  -0.127   9.320   6.920  0.3653 -0.1552 -0.0857
  223MOL0     C30023   0.977   8.933   6.717 -0.3352 -0.0737 -0.4329
  223MOL0     C30024   1.114   8.884   6.737 -0.2584 -0.4021  0.2955
  223MOL0     C30025   1.552   8.754   6.750 -0.6008  0.7855  0.4161
  223MOL0     C30026   1.631   8.811   6.653 -0.7646  0.1390  0.1709
  223MOL0     C30027   1.772   8.778   6.652 -0.1108  0.7781 -0.2592
  223MOL0     C30028   1.825   8.669   6.736  0.1913  0.1172  0.0975
  223MOL0     O30029   1.958   8.639   6.732  0.1508  0.1108 -0.5669
  223MOL0     C30030   2.004   8.511   6.778  0.0688 -0.3761  0.0099
  223MOL0     C30031   2.151   8.492   6.735  0.0434  0.0923  0.1847
  223MOL0     C30032   2.235   8.583   6.815  0.2865 -1.4743 -0.3002
  223MOL0     C30033   2.383   8.600   6.773 -1.1606 -0.1058 -0.1195
  223MOL0     C30034   2.445   8.697   6.862 -0.5306 -0.5524  0.9354
  223MOL0     C30035   2.491   8.770   6.938 -0.0079  0.5941  0.0059
  223MOL0     C30036   1.735   8.616   6.831  0.7266  0.0299 -0.4217
  223MOL0     C30037   1.603   8.659   6.836  0.2374  0.2972 -0.2546
  223MOL0     H30038   1.300   9.156   6.705  0.0667  2.4306 -1.6489
  223MOL0     H30039   1.055   9.250   6.729 -4.5102 -0.8889 -1.4331
  223MOL0     H30040   0.819   9.196   6.516 -0.5899  2.1689  1.6819
  223MOL0     H30041   0.771   9.033   6.523  0.4125 -0.0617  1.2481
  223MOL0     H30042   0.619   9.287   6.608  0.6513  0.0793 -0.5415
  223MOL0     H30043   0.577   9.163   6.499 -0.6857  0.9824  0.6912
  223MOL0     H30044   0.539   8.993   6.673  2.2251  0.3696 -0.0661
  223MOL0     H30045   0.588   9.119   6.799  0.5166 -0.8487  0.6000
  223MOL0     H30046   0.408   9.256   6.724  0.9134 -0.1983 -1.6637
  223MOL0     H30047   0.347   9.136   6.619 -1.9073 -0.8286  1.7008
  223MOL0     H30048   0.330   8.967   6.804  4.3723 -0.8688  0.5575
  223MOL0     H30049   0.386   9.089   6.924  0.4110 -3.2810  0.8845
  223MOL0     H30050   0.188   9.235   6.847 -2.3251 -1.0273 -1.0571
  223MOL0     H30051   0.134   9.087   6.779 -0.8784 -0.4466  0.6806
  223MOL0     H30052   0.115   8.998   7.024 -0.4646 -0.2512  0.5706
  223MOL0     H30053   0.219   9.126   7.083  0.0025  1.3240  0.5559
  223MOL0     H30054   0.091   9.291   7.041 -0.7231  0.9870  2.3099
  223MOL0     H30055   0.001   9.167   7.140  0.5563  0.2321  0.1188
  223MOL0     H30056  -0.132   9.006   6.937 -3.6101 -0.2007  1.8146
  223MOL0     H30057  -0.315   9.148   6.643  1.7055  1.6029  1.1796
  223MOL0     H30058  -0.280   8.985   6.706 -2.8980 -2.0117  0.4954
  223MOL0     H30059  -0.456   9.027   6.884  1.5577 -2.8100 -0.9448
  223MOL0     H30060  -0.504   9.006   6.719 -1.0821  0.9364 -1.1378
  223MOL0     H30061  -0.548   9.246   6.675  2.1319 -0.9214 -1.0740
  223MOL0     H30062  -0.473   9.287   6.824  0.8727  1.1476 -2.1674
  223MOL0     H30063  -0.706   9.300   6.849  0.6378  0.0706  4.7621
  223MOL0     H30064  -0.659   9.154   6.939  0.4964 -3.7058 -1.2902
  223MOL0     H30065  -0.920   9.066   6.608  1.3715 -1.7014  1.5948
  223MOL0     H30066  -1.110   9.102   6.489 -0.8315  0.7652 -0.2124
  223MOL0     H30067  -1.205   8.983   6.553 -0.7015 -0.0577  1.1935
  223MOL0     H30068  -1.263   9.148   6.564 -1.0420 -1.0462 -4.1756
  223MOL0     H30069  -1.552   9.035   7.034 -0.2609 -1.2845 -1.0290
  223MOL0     H30070  -1.799   9.086   7.048 -2.0622  0.5388 -1.9614
  223MOL0     H30071  -1.930   9.520   6.960 -0.6437 -0.8072 -0.1014
  223MOL0     H30072  -1.945   9.402   6.825 -0.0842 -0.6035 -0.2000
  223MOL0     H30073  -2.156   9.475   7.029 -0.3194 -3.8258  1.9987
  223MOL0     H30074  -2.164   9.494   6.855 -0.4665 -2.2038 -0.8759
  223MOL0     H30075  -2.151   9.225   7.018 -0.9306  0.3178  0.9239
  223MOL0     H30076  -2.134   9.247   6.838 -0.3333 -1.1463  0.3143
  223MOL0     H30077  -2.359   9.331   7.034  2.4113  0.7256  0.1693
  223MOL0     H30078  -2.347   9.391   6.865  0.5818  0.4443 -0.3915
  223MOL0     H30079  -2.346   9.153   6.780 -0.5308 -1.4967 -0.3790
  223MOL0     H30080  -2.493   9.207   6.848  2.4966  3.0686 -1.6187
  223MOL0     H30081  -2.273   9.024   6.986  0.4851  1.6223 -1.7953
  223MOL0     H30082  -2.412   9.088   7.076 -0.5703 -0.2681 -0.6494
  223MOL0     H30083  -2.430   8.932   6.816  0.9147  0.7753  0.8635
  223MOL0     H30084  -2.569   8.994   6.920 -0.2167  0.2282  0.0416
  223MOL0     H30085  -2.467   8.840   7.107  1.4016 -3.3996  0.7744
  223MOL0     H30086  -2.337   8.809   7.010 -1.0043 -0.0872  2.5234
  223MOL0     H30087  -1.704   9.494   6.941 -0.5054 -0.5588 -2.7329
  223MOL0     H30088  -1.469   9.431   6.923  1.0490 -0.6353  3.0238
  223MOL0     H30089  -1.122   9.231   7.016  0.0664  1.3950  0.8376
  223MOL0     H30090  -0.871   9.204   6.999 -0.5457 -4.0391  1.1048
  223MOL0     H30091   0.887   8.873   6.724 -1.9463  2.2737 -0.0593
  223MOL0     H30092   1.117   8.776   6.744  1.1556 -0.3134  1.5361
  223MOL0     H30093   1.580   8.884   6.590  0.7064 -1.0445 -2.5333
  223MOL0     H30094   1.842   8.834   6.591 -0.4903  1.7265  0.1464
  223MOL0     H30095   2.004   8.510   6.887 -0.5880 -1.1235  0.0162
  223MOL0     H30096   1.941   8.428   6.743 -0.6255 -0.7432  2.0082
  223MOL0     H30097   2.167   8.526   6.632  0.2947 -1.5761 -0.3465
  223MOL0     H30098   2.182   8.389   6.754 -3.3902 -1.0296  0.4701
  223MOL0     H30099   2.236   8.567   6.923  0.1301  3.1287  0.5503
  223MOL0     H30100   2.199   8.685   6.802  0.9287 -1.1916  0.1360
  223MOL0     H30101   2.381   8.640   6.671 -0.8571  2.2217  0.7257
  223MOL0     H30102   2.449   8.513   6.780 -0.0917  0.7006  0.2340
  223MOL0     H30103   2.542   8.832   7.009  2.3274  0.5397 -1.5272
  223MOL0     H30104   1.781   8.542   6.895  1.4724 -0.4302 -1.4513
  223MOL0     H30105   1.535   8.615   6.908  3.0015 -1.1285  1.6531
  224MOL0     O30106   5.901   5.161   6.860 -0.1432  0.4800 -0.3936
  224MOL0     C30107   5.833   5.222   6.941 -0.4203  0.1764 -0.8402
  224MOL0     O30108   5.879   5.330   7.010  0.8397  0.1504  0.5368
  224MOL0     C30109   6.018   5.332   7.017  0.5488 -0.2390  0.3206
  224MOL0     C30110   6.073   5.280   7.133 -1.0295  1.1068 -0.3912
  224MOL0     C30111   6.211   5.275   7.148  0.7090  0.3588 -0.1904
  224MOL0     C30112   6.296   5.321   7.049  0.1346 -0.3364 -0.1990
  224MOL0     O30113   6.435   5.325   7.057  0.5801  0.0731 -0.2700
  224MOL0     C30114   6.490   5.368   7.182  0.5964 -0.4880 -0.9523
  224MOL0     C30115   6.642   5.368   7.201 -0.9105 -0.0785 -0.1385
  224MOL0     C30116   6.703   5.237   7.136  0.7668 -0.5802 -0.7765
  224MOL0     C30117   6.849   5.193   7.167 -0.1503 -0.7708  0.6936
  224MOL0     C30118   6.885   5.069   7.093 -0.1371  0.0107 -0.4726
  224MOL0     C30119   7.018   5.005   7.137  0.0833 -0.4355  0.3106
  224MOL0     C30120   7.027   4.972   7.283  0.2908  0.2331 -0.1572
  224MOL0     C30121   6.936   4.853   7.332  0.1813  0.3777  0.2936
  224MOL0     N30122   6.794   4.897   7.342  0.0470  1.0097 -0.3093
  224MOL0     C30123   6.692   4.827   7.296 -0.2552  0.5406  0.4190
  224MOL0     C30124   6.580   4.888   7.343  0.2878 -0.1050 -0.4190
  224MOL0     C30125   6.435   4.851   7.308  0.6959 -0.3007 -0.4972
  224MOL0     C30126   6.339   4.970   7.313 -0.0367 -0.8981  0.1321
  224MOL0     C30127   6.201   4.930   7.259 -0.4607 -0.7406 -0.1782
  224MOL0     C30128   6.097   4.935   7.372  0.2768  1.2813 -0.0233
  224MOL0     O30129   5.977   4.879   7.310  0.7546  0.1554 -0.5211
  224MOL0     C30130   5.858   4.950   7.301 -1.0562  0.0353 -0.5373
  224MOL0     C30131   5.761   4.882   7.236  0.4763 -0.3601  0.1485
  224MOL0     C30132   5.627   4.932   7.229 -0.3935 -0.2834 -0.2056
  224MOL0     C30133   5.530   4.836   7.159  0.0385 -0.7708 -0.3365
  224MOL0     C30134   5.589   5.061   7.281 -0.1584 -0.5301 -0.0068
  224MOL0     C30135   5.454   5.125   7.270  0.2231 -0.1309 -0.9670
  224MOL0     O30136   5.445   5.258   7.315 -1.1569  0.0817  0.2930
  224MOL0     C30137   5.325   5.327   7.328  0.1257 -0.1409 -0.7384
  224MOL0     C30138   5.306   5.450   7.267  0.0205 -1.1862  0.8349
  224MOL0     C30139   5.193   5.520   7.270 -0.1570  0.5272 -0.2402
  224MOL0     C30140   5.076   5.462   7.328  0.6168  0.1902 -0.1476
  224MOL0     O30141   4.954   5.529   7.325  0.2253  0.2131 -0.0878
  224MOL0     C30142   4.854   5.489   7.417  0.3670  0.3206  0.1290
  224MOL0     C30143   4.740   5.589   7.418  0.6176  0.1869  0.7158
  224MOL0     C30144   4.605   5.526   7.465 -0.2398 -0.5344 -0.4863
  224MOL0     C30145   4.526   5.618   7.566 -1.0250  0.4780  0.8020
  224MOL0     C30146   4.400   5.539   7.622 -0.8410 -0.1663  1.6581
  224MOL0     C30147   4.312   5.614   7.716 -0.4781  0.6177 -0.2366
  224MOL0     C30148   4.264   5.746   7.662 -0.4766 -0.5739  0.0070
  224MOL0     C30149   4.210   5.827   7.770 -0.2457 -0.4021 -0.3545
  224MOL0    Cl30150   4.195   5.994   7.707  0.2277  0.5011  0.0745
  224MOL0     C30151   5.091   5.331   7.396  0.3546 -0.5610 -0.9057
  224MOL0     C30152   5.216   5.268   7.393 -0.5127  0.3060  1.3875
  224MOL0     O30153   5.361   5.064   7.223 -0.2388 -0.3908  0.9246
  224MOL0     C30154   5.695   5.132   7.344 -0.8426  0.1742  0.2619
  224MOL0     C30155   5.825   5.075   7.364  0.2333  0.8196  0.6518
  224MOL0     N30156   6.612   4.991   7.429 -0.8967  0.2078  1.0604
  224MOL0     N30157   6.745   4.986   7.432 -0.4628  0.1161  0.7019
  224MOL0     C30158   6.240   5.359   6.924  0.3381  0.1120  0.1849
  224MOL0     C30159   6.096   5.377   6.914  0.1799  0.0644  0.4166
  224MOL0     C30160   5.685   5.203   6.940 -0.5886 -1.2253 -0.4436
  224MOL0     C30161   5.632   5.092   6.892  1.1920  1.2169  0.2773
  224MOL0     C30162   5.493   5.086   6.865  0.0476  0.5031 -0.2254
  224MOL0     C30163   5.401   5.186   6.900  0.1971  0.5946  0.4377
  224MOL0     O30164   5.267   5.164   6.888  0.0464 -0.4221  0.3718
  224MOL0     C30165   5.198   5.267   6.810  0.0300 -0.0523 -0.1907
  224MOL0     C30166   5.043   5.263   6.811  0.2508 -0.3606 -0.5589
  224MOL0     C30167   4.974   5.278   6.943 -0.2670  0.1227  0.3654
  224MOL0     C30168   4.833   5.249   6.929  0.5660  0.6264  0.1277
  224MOL0     C30169   4.766   5.307   7.047 -0.0262 -0.8448  0.3292
  224MOL0     C30170   4.699   5.358   7.135 -0.7201  0.0855  0.1125
  224MOL0     C30171   5.463   5.308   6.938  0.1205 -0.1147 -0.0359
  224MOL0     C30172   5.596   5.320   6.977  0.5146  0.6355  1.3339
  224MOL0     H30173   6.008   5.253   7.216 -0.6184  1.3201  0.0042
  224MOL0     H30174   6.258   5.225   7.232 -0.4744  1.0036  0.8849
  224MOL0     H30175   6.441   5.463   7.207  1.4310 -0.3124  0.0691
  224MOL0     H30176   6.462   5.308   7.268  1.7524 -0.6217 -0.6431
  224MOL0     H30177   6.688   5.458   7.158 -1.0475  0.2681  0.4312
  224MOL0     H30178   6.668   5.370   7.307 -1.4843  0.5412  0.0019
  224MOL0     H30179   6.635   5.156   7.163  0.8370  0.0977  1.6697
  224MOL0     H30180   6.694   5.251   7.028  1.9955 -2.8363 -1.2241
  224MOL0     H30181   6.910   5.278   7.136 -2.1346 -0.0653 -1.5772
  224MOL0     H30182   6.862   5.188   7.275  1.8286  0.8594  0.5924
  224MOL0     H30183   6.804   4.996   7.100 -1.4699  1.5589  1.1074
  224MOL0     H30184   6.896   5.099   6.988  0.2668  0.3234 -0.3454
  224MOL0     H30185   7.039   4.917   7.075 -1.7187  0.2014 -1.3156
  224MOL0     H30186   7.090   5.085   7.115 -0.5271  0.4442  1.3835
  224MOL0     H30187   7.128   4.936   7.302 -0.4744 -1.5305  0.8672
  224MOL0     H30188   7.018   5.064   7.342  1.9407 -0.5697  1.4289
  224MOL0     H30189   6.969   4.814   7.429  0.4504 -2.1508 -0.7498
  224MOL0     H30190   6.945   4.772   7.260  1.2938  2.2584 -1.7867
  224MOL0     H30191   6.692   4.737   7.235 -0.8755  0.0805  1.0832
  224MOL0     H30192   6.431   4.809   7.207 -2.3757 -1.0287 -0.1699
  224MOL0     H30193   6.388   4.773   7.369 -1.0173  1.6772  0.8704
  224MOL0     H30194   6.377   5.041   7.238 -0.9058 -2.0888 -1.4911
  224MOL0     H30195   6.339   5.027   7.406  1.8964  0.4084 -0.5848
  224MOL0     H30196   6.207   4.831   7.212 -0.4809  0.5687 -3.1538
  224MOL0     H30197   6.174   5.004   7.183  0.9304 -0.6929 -0.6467
  224MOL0     H30198   6.092   5.031   7.425  4.1837  0.0087  3.1436
  224MOL0     H30199   6.132   4.863   7.446 -1.3023 -0.4179 -0.8585
  224MOL0     H30200   5.785   4.788   7.188 -0.0332 -0.3313 -0.1720
  224MOL0     H30201   5.515   4.853   7.052  0.6912  0.4314 -0.2400
  224MOL0     H30202   5.556   4.733   7.185 -3.3674 -1.6375  0.1724
  224MOL0     H30203   5.428   4.845   7.199 -0.7101  1.0100 -2.4327
  224MOL0     H30204   5.387   5.505   7.219 -2.3434  1.0350 -0.9103
  224MOL0     H30205   5.174   5.614   7.219 -0.7772  1.4258  1.5209
  224MOL0     H30206   4.813   5.393   7.384  0.3255 -0.2200  1.6736
  224MOL0     H30207   4.898   5.470   7.515 -2.5016 -3.0195  0.9631
  224MOL0     H30208   4.766   5.671   7.484 -0.8028  0.7770  0.5793
  224MOL0     H30209   4.720   5.627   7.318 -1.6738  0.8034  1.3589
  224MOL0     H30210   4.621   5.424   7.503  0.4175 -0.2368  0.0409
  224MOL0     H30211   4.546   5.519   7.373 -0.2595  1.5301 -0.6761
  224MOL0     H30212   4.588   5.642   7.653 -1.8460 -0.2138  1.5987
  224MOL0     H30213   4.505   5.710   7.509  3.0016  1.1875  0.2035
  224MOL0     H30214   4.434   5.445   7.666  1.8080  0.8468  1.9436
  224MOL0     H30215   4.348   5.512   7.529  0.4676 -1.0112  1.1429
  224MOL0     H30216   4.229   5.545   7.735  1.9535 -2.4653  0.0548
  224MOL0     H30217   4.363   5.628   7.812 -1.8030 -0.8667  0.7389
  224MOL0     H30218   4.193   5.729   7.581 -0.8436 -0.2107  0.2555
  224MOL0     H30219   4.349   5.793   7.611  0.4280  0.1342  2.0793
  224MOL0     H30220   4.277   5.822   7.856 -1.1616  0.5201  0.4538
  224MOL0     H30221   4.116   5.783   7.804  1.3110 -2.7609  1.1892
  224MOL0     H30222   5.006   5.293   7.452  1.0768 -0.2159  0.4710
  224MOL0     H30223   5.239   5.170   7.434  0.0378 -0.0667  0.2433
  224MOL0     H30224   5.670   5.225   7.394  0.5213 -1.0860  3.6385
  224MOL0     H30225   5.899   5.125   7.426 -0.3977  0.6104  1.5891
  224MOL0     H30226   6.300   5.402   6.845 -2.2157  1.1923 -1.3117
  224MOL0     H30227   6.045   5.414   6.826 -1.2470 -0.5658  0.9335
  224MOL0     H30228   5.702   5.011   6.876 -0.6712 -0.3932 -0.0831
  224MOL0     H30229   5.446   5.004   6.812 -0.8386  0.7955  0.0901
  224MOL0     H30230   5.221   5.362   6.857 -1.6451  0.8291 -1.0874
  224MOL0     H30231   5.238   5.277   6.708  1.9478 -0.3661  0.4794
  224MOL0     H30232   5.005   5.168   6.773  0.9411 -0.4924 -0.9310
  224MOL0     H30233   5.004   5.339   6.744  1.9802 -0.8588 -2.2425
  224MOL0     H30234   4.990   5.382   6.976  6.2226  1.0082 -3.6679
  224MOL0     H30235   5.009   5.208   7.019  0.4474  1.3881  1.2353
  224MOL0     H30236   4.828   5.141   6.945  3.3035  0.3816 -0.2220
  224MOL0     H30237   4.782   5.280   6.838  2.6874  2.6785 -0.4505
  224MOL0     H30238   4.632   5.408   7.203  0.7207  2.9856 -0.4604
  224MOL0     H30239   5.402   5.391   6.973  1.4590  1.6732 -1.6708
  224MOL0     H30240   5.639   5.414   7.010 -0.9654  0.7757  3.0527
  225MOL0     O30241   6.328   6.799   1.136 -0.1161 -0.2447  0.4147
  225MOL0     C30242   6.364   6.688   1.165 -0.8038  0.5403 -1.6052
  225MOL0     O30243   6.284   6.575   1.166  0.3411 -0.4701 -0.0960
  225MOL0     C30244   6.169   6.567   1.089 -0.1794 -0.0239  0.4756
  225MOL0     C30245   6.126   6.641   0.981 -0.8729 -0.1424  0.0499
  225MOL0     C30246   6.003   6.616   0.919  0.2218  0.8475 -0.0809
  225MOL0     C30247   5.921   6.514   0.964 -0.6656 -0.6775 -0.3383
  225MOL0     O30248   5.799   6.498   0.899 -0.5863  0.2381  0.2909
  225MOL0     C30249   5.716   6.379   0.937  0.0681 -0.4912  1.1232
  225MOL0     C30250   5.626   6.347   0.826  1.0778  0.2237  0.7358
  225MOL0     C30251   5.501   6.271   0.866 -0.6009 -0.8325  0.1387
  225MOL0     C30252   5.379   6.356   0.908 -0.3700  1.1644 -0.8033
  225MOL0     C30253   5.261   6.263   0.945  0.9533 -0.2360  1.0430
  225MOL0     C30254   5.125   6.334   0.985 -0.2643 -0.3874  0.0454
  225MOL0     C30255   5.063   6.431   0.881 -0.6135 -0.5956  0.4539
  225MOL0     C30256   4.948   6.518   0.940 -0.3996  0.0000 -0.1594
  225MOL0     N30257   4.816   6.449   0.927 -0.3716 -0.3996  0.2550
  225MOL0     C30258   4.707   6.489   1.001 -0.5985  0.6115 -0.6890
  225MOL0     C30259   4.616   6.386   0.992  0.0098 -1.0482 -0.5475
  225MOL0     C30260   4.486   6.372   1.059  0.2929  0.4232  0.5459
  225MOL0     C30261   4.367   6.371   0.960  0.0740 -0.3446 -0.6139
  225MOL0     C30262   4.246   6.316   1.030  0.3211 -0.1589  0.0028
  225MOL0     C30263   4.131   6.327   0.936 -0.3820  0.2967  0.1926
  225MOL0     O30264   4.019   6.323   1.022  0.1120  0.0270  0.8479
  225MOL0     C30265   3.891   6.328   0.968  0.0923 -0.4463  0.8398
  225MOL0     C30266   3.848   6.338   0.833 -0.2998 -0.3024  0.6306
  225MOL0     C30267   3.709   6.340   0.796  0.1897  1.0191  0.6282
  225MOL0     C30268   3.670   6.351   0.654  0.3589 -0.7968  0.0530
  225MOL0     C30269   3.614   6.322   0.895  0.4724  0.0288 -0.6558
  225MOL0     C30270   3.466   6.312   0.870 -0.0822 -0.3277  0.0173
  225MOL0     O30271   3.419   6.364   0.752 -0.3246  0.3172  0.0112
  225MOL0     C30272   3.287   6.386   0.743  0.7362 -0.5334 -0.2728
  225MOL0     C30273   3.242   6.518   0.738  0.1424  0.4458 -0.2636
  225MOL0     C30274   3.106   6.552   0.731  0.4071  0.6712  0.7868
  225MOL0     C30275   3.009   6.447   0.743  0.0336 -0.4934 -0.0867
  225MOL0     O30276   2.872   6.479   0.740  0.1729  0.0891 -1.1728
  225MOL0     C30277   2.825   6.509   0.614 -0.1160 -0.3213 -0.7672
  225MOL0     C30278   2.682   6.558   0.602  0.3719 -0.4770 -0.5432
  225MOL0     C30279   2.581   6.493   0.688 -0.1489  0.2708 -0.0277
  225MOL0     C30280   2.432   6.518   0.654 -0.9434  0.3062 -0.0944
  225MOL0     C30281   2.339   6.446   0.757 -1.0169  0.0372 -0.3910
  225MOL0     C30282   2.192   6.463   0.716  0.3517 -0.4076 -0.2315
  225MOL0     C30283   2.084   6.467   0.831 -0.1123  0.1086  0.4851
  225MOL0     C30284   1.950   6.520   0.783  0.9559  0.5395 -0.0674
  225MOL0    Cl30285   1.888   6.445   0.633 -0.1991 -0.1824  0.2669
  225MOL0     C30286   3.047   6.316   0.752 -0.1450  0.5834  0.4606
  225MOL0     C30287   3.191   6.281   0.749  0.1710 -0.6300 -0.3504
  225MOL0     O30288   3.392   6.264   0.961  0.1472 -0.6240 -0.7327
  225MOL0     C30289   3.660   6.302   1.026 -0.0614  0.2893  0.3274
  225MOL0     C30290   3.799   6.319   1.063  0.4409  0.4202  0.4745
  225MOL0     N30291   4.666   6.294   0.908 -0.4622  0.4309  0.5421
  225MOL0     N30292   4.784   6.335   0.866 -0.3401 -0.0612  0.6340
  225MOL0     C30293   5.968   6.442   1.070 -0.1856 -0.4203 -0.5026
  225MOL0     C30294   6.089   6.467   1.120  0.4296 -1.1654  0.5988
  225MOL0     C30295   6.510   6.690   1.202 -0.0067 -0.2070 -1.1163
  225MOL0     C30296   6.579   6.576   1.190 -0.2568  0.6979 -0.2690
  225MOL0     C30297   6.718   6.571   1.218  1.2877  0.3630 -0.1360
  225MOL0     C30298   6.782   6.684   1.274 -0.9854  0.2316  0.2313
  225MOL0     O30299   6.917   6.669   1.292  0.5928 -0.8295 -0.9919
  225MOL0     C30300   6.994   6.798   1.283  0.4419  0.9495 -0.0158
  225MOL0     C30301   7.126   6.780   1.208  0.8079 -0.2984  0.4627
  225MOL0     C30302   7.212   6.699   1.299 -0.4847  0.2176 -0.2594
  225MOL0     C30303   7.304   6.622   1.199  1.0154 -0.5510 -0.9218
  225MOL0     C30304   7.377   6.508   1.257  0.5497 -0.5291  0.0655
  225MOL0     C30305   7.420   6.412   1.324  0.3371  0.3562  0.1359
  225MOL0     C30306   6.709   6.806   1.279 -0.2413 -0.0049  0.0628
  225MOL0     C30307   6.584   6.809   1.234  0.6319  0.2204  0.3262
  225MOL0     H30308   6.192   6.716   0.937  0.5245 -0.0895  2.1117
  225MOL0     H30309   5.976   6.671   0.830  0.0842 -2.8011 -2.5233
  225MOL0     H30310   5.783   6.295   0.954  3.3316  1.5032 -0.7896
  225MOL0     H30311   5.655   6.409   1.023 -0.4873 -1.3769  1.0391
  225MOL0     H30312   5.582   6.436   0.779  1.2153  0.5916  1.2795
  225MOL0     H30313   5.679   6.287   0.752 -1.8835 -1.4392 -0.1877
  225MOL0     H30314   5.458   6.236   0.772 -2.3528  0.4752  0.4027
  225MOL0     H30315   5.534   6.193   0.935  0.2389 -2.1373 -1.6625
  225MOL0     H30316   5.411   6.418   0.992  0.4568 -0.9805  0.5510
  225MOL0     H30317   5.349   6.418   0.823  0.6498  2.7295 -0.0807
  225MOL0     H30318   5.249   6.205   0.853 -0.0753  0.5149  0.6829
  225MOL0     H30319   5.293   6.200   1.028  2.6669  1.1909  1.5243
  225MOL0     H30320   5.047   6.261   1.010 -1.3592  0.4393 -0.8428
  225MOL0     H30321   5.145   6.389   1.078 -2.2633 -1.3953  1.1515
  225MOL0     H30322   5.145   6.497   0.849  1.6863 -0.1207  6.1731
  225MOL0     H30323   5.025   6.362   0.805  0.6175  0.0884 -0.8357
  225MOL0     H30324   4.943   6.609   0.880 -2.5546 -1.3001 -2.0873
  225MOL0     H30325   4.960   6.539   1.047  0.5994 -2.7795  0.3572
  225MOL0     H30326   4.714   6.567   1.077  0.0480  2.7555 -2.8234
  225MOL0     H30327   4.495   6.278   1.114  0.5548  0.0935 -0.0466
  225MOL0     H30328   4.464   6.446   1.136  0.9654  1.7792 -0.5290
  225MOL0     H30329   4.387   6.311   0.870 -1.5164  1.3718 -2.2180
  225MOL0     H30330   4.341   6.471   0.924 -0.6576  0.8360  2.8821
  225MOL0     H30331   4.224   6.376   1.119  0.5461 -0.3034  0.1583
  225MOL0     H30332   4.251   6.213   1.067 -0.0872 -0.2397 -0.1625
  225MOL0     H30333   4.144   6.233   0.881 -1.4331 -0.1837  0.7432
  225MOL0     H30334   4.123   6.412   0.867 -0.2438  0.3951  0.2999
  225MOL0     H30335   3.916   6.340   0.749 -2.8331 -0.3842 -1.5558
  225MOL0     H30336   3.766   6.324   0.610  1.2022 -0.9818  1.9103
  225MOL0     H30337   3.590   6.281   0.628 -1.9692  1.6728  0.0445
  225MOL0     H30338   3.642   6.445   0.604 -0.0638 -0.7532  0.3649
  225MOL0     H30339   3.317   6.596   0.729  2.2953 -1.4398  0.3449
  225MOL0     H30340   3.067   6.653   0.717 -1.6166 -0.3627 -2.1869
  225MOL0     H30341   2.889   6.586   0.571  2.0144 -0.5592  1.7412
  225MOL0     H30342   2.838   6.417   0.555  0.3677  0.8121 -2.4842
  225MOL0     H30343   2.696   6.663   0.629 -2.4252 -0.6923  2.3095
  225MOL0     H30344   2.652   6.564   0.497  1.2604 -0.2405 -0.7863
  225MOL0     H30345   2.593   6.535   0.788  1.8311  2.1783 -0.9716
  225MOL0     H30346   2.612   6.388   0.693  0.7815  0.6106  2.0429
  225MOL0     H30347   2.417   6.626   0.662  2.2917  0.7355  3.6594
  225MOL0     H30348   2.415   6.475   0.555 -1.0278 -2.2231  0.9397
  225MOL0     H30349   2.343   6.490   0.857 -1.9922 -1.1651  0.1972
  225MOL0     H30350   2.353   6.340   0.776 -3.3202 -0.4132 -0.9317
  225MOL0     H30351   2.167   6.552   0.658 -1.0900 -2.5563 -3.1216
  225MOL0     H30352   2.172   6.377   0.652 -1.1932  0.3177 -0.7823
  225MOL0     H30353   2.100   6.532   0.917 -1.5492 -0.2840  1.0652
  225MOL0     H30354   2.074   6.361   0.858  0.8315 -0.9325 -2.7260
  225MOL0     H30355   1.952   6.629   0.775  2.9664  0.6090  0.7712
  225MOL0     H30356   1.871   6.502   0.857 -1.4343  1.1768 -2.2902
  225MOL0     H30357   2.961   6.250   0.759  0.2007 -0.0044 -0.6465
  225MOL0     H30358   3.227   6.178   0.749  2.3908  0.0537  1.4326
  225MOL0     H30359   3.591   6.274   1.104  0.0314  0.3728  0.4412
  225MOL0     H30360   3.830   6.307   1.167 -0.5725  0.0962  0.7504
  225MOL0     H30361   5.922   6.365   1.131  0.4200 -0.4320 -0.0578
  225MOL0     H30362   6.118   6.401   1.201  0.7238  2.0842  3.3581
  225MOL0     H30363   6.527   6.488   1.154 -1.5558  1.1369  0.4684
  225MOL0     H30364   6.779   6.481   1.224  0.2957 -0.2461  4.0914
  225MOL0     H30365   6.934   6.866   1.223  0.3748 -0.3456 -1.4750
  225MOL0     H30366   7.020   6.838   1.382  2.4653 -0.5668  0.1332
  225MOL0     H30367   7.177   6.873   1.182 -1.1275  0.9051  0.7722
  225MOL0     H30368   7.105   6.730   1.112  0.4100  0.9479 -0.1137
  225MOL0     H30369   7.156   6.638   1.370 -2.5198  0.6786 -1.3727
  225MOL0     H30370   7.280   6.763   1.355  0.2909 -1.0701  0.3219
  225MOL0     H30371   7.382   6.691   1.165 -1.9449  3.9344  0.4465
  225MOL0     H30372   7.251   6.575   1.115  0.2604 -1.4631  0.0484
  225MOL0     H30373   7.468   6.332   1.377 -1.0408 -0.2321  0.5466
  225MOL0     H30374   6.754   6.897   1.315 -0.6431  0.5071 -0.7031
  225MOL0     H30375   6.535   6.905   1.221  0.6333  0.1739 -0.0319
  226MOL0     O30376   8.056  11.193   8.922 -0.5397 -0.0745  0.3974
  226MOL0     C30377   8.110  11.302   8.932 -0.2891 -0.2836  0.5811
  226MOL0     O30378   8.043  11.423   8.921 -0.0116 -0.2813 -0.9671
  226MOL0     C30379   7.912  11.435   8.904 -0.6741  0.3179 -1.1427
  226MOL0     C30380   7.820  11.350   8.961 -0.2235  0.6553 -1.1460
  226MOL0     C30381   7.686  11.371   8.935  0.4103 -0.4428  0.5699
  226MOL0     C30382   7.646  11.462   8.843 -0.5374 -0.1270 -1.1227
  226MOL0     O30383   7.510  11.461   8.827  0.5570  0.5935 -0.5481
  226MOL0     C30384   7.436  11.581   8.787 -0.4967  0.0790 -0.1921
  226MOL0     C30385   7.305  11.514   8.750 -0.2053 -0.0524 -0.0471
  226MOL0     C30386   7.313  11.463   8.598  0.0441 -0.4263 -0.3696
  226MOL0     C30387   7.184  11.393   8.561  0.8447  1.0120  0.4368
  226MOL0     C30388   7.053  11.483   8.544  0.7412 -0.2058  0.6129
  226MOL0     C30389   6.927  11.422   8.478 -0.0388  0.5017 -0.1309
  226MOL0     C30390   6.884  11.289   8.546 -0.1513  0.4034 -0.8696
  226MOL0     C30391   6.784  11.209   8.480  0.2430  0.1605  0.5654
  226MOL0     N30392   6.658  11.290   8.448  0.7218 -0.0557 -0.1334
  226MOL0     C30393   6.545  11.313   8.524  0.8594  0.1909 -0.1570
  226MOL0     C30394   6.451  11.382   8.449 -1.1626 -0.2679  0.1827
  226MOL0     C30395   6.327  11.453   8.504  0.0963 -0.0449  0.5931
  226MOL0     C30396   6.255  11.382   8.616  0.5804  0.1210 -0.3902
  226MOL0     C30397   6.150  11.457   8.697 -0.6930  0.1832 -0.0490
  226MOL0     C30398   6.040  11.526   8.624  0.1932  0.1798 -0.6461
  226MOL0     O30399   5.929  11.546   8.709  0.7807 -0.3471  0.0601
  226MOL0     C30400   5.817  11.605   8.654  0.5515  0.2345 -0.5309
  226MOL0     C30401   5.701  11.605   8.730 -0.1836  0.4191  0.0272
  226MOL0     C30402   5.575  11.655   8.682 -0.4420 -0.4388 -0.6061
  226MOL0     C30403   5.449  11.627   8.768 -0.1166 -0.2453 -0.7814
  226MOL0     C30404   5.565  11.708   8.555  0.2315  0.1872  0.1498
  226MOL0     C30405   5.437  11.745   8.486 -0.2085 -0.3028  0.6193
  226MOL0     O30406   5.324  11.751   8.559  0.0425 -0.2775  0.5324
  226MOL0     C30407   5.193  11.778   8.516 -0.9454  0.6935 -0.3425
  226MOL0     C30408   5.167  11.862   8.406 -0.1492 -0.2983  0.5919
  226MOL0     C30409   5.038  11.903   8.377  0.2562 -0.5209 -0.7789
  226MOL0     C30410   4.934  11.872   8.461  0.1321  0.1093  0.1517
  226MOL0     O30411   4.812  11.929   8.440 -0.1126  0.6311 -0.0050
  226MOL0     C30412   4.703  11.916   8.535  0.7291 -0.0258 -0.1948
  226MOL0     C30413   4.609  12.037   8.508 -1.2700  0.1044 -0.9959
  226MOL0     C30414   4.500  12.057   8.622 -0.7776  0.4067  0.2775
  226MOL0     C30415   4.368  12.099   8.566  0.3472  0.7866 -0.3740
  226MOL0     C30416   4.270  12.121   8.689  0.5440  0.3491  0.2779
  226MOL0     C30417   4.142  12.168   8.647  1.1276 -0.5787  0.4680
  226MOL0     C30418   4.042  12.187   8.767  0.5239  0.1130  0.2492
  226MOL0     C30419   3.913  12.247   8.711 -0.3504 -0.0408 -0.3123
  226MOL0    Cl30420   3.791  12.290   8.834 -0.1500  0.0194 -0.1500
  226MOL0     C30421   4.959  11.791   8.570 -0.5288  0.5009 -0.6423
  226MOL0     C30422   5.086  11.744   8.598 -0.2311  0.2280 -0.1877
  226MOL0     O30423   5.442  11.738   8.360  0.1624  0.7134  0.3807
  226MOL0     C30424   5.684  11.707   8.480  0.3820  0.4741  0.2997
  226MOL0     C30425   5.807  11.654   8.522  0.4016  0.0972  0.1759
  226MOL0     N30426   6.507  11.396   8.324 -0.4794  0.5942  0.7718
  226MOL0     N30427   6.624  11.324   8.327  0.6005 -0.5018  0.3378
  226MOL0     C30428   7.738  11.549   8.793  0.4628  0.3802 -0.1044
  226MOL0     C30429   7.868  11.537   8.828 -0.0722  0.2480  0.8084
  226MOL0     C30430   8.253  11.301   8.940  1.1281  0.5005 -0.1680
  226MOL0     C30431   8.326  11.188   8.997 -0.1926 -0.2276 -0.0374
  226MOL0     C30432   8.454  11.195   9.027 -0.3873  0.2841 -0.4288
  226MOL0     C30433   8.528  11.318   9.006 -0.4038 -0.2993  0.9455
  226MOL0     O30434   8.648  11.317   9.068 -0.8187 -0.0317  0.1584
  226MOL0     C30435   8.717  11.443   9.077 -0.0185  0.3454  0.0887
  226MOL0     C30436   8.806  11.485   8.952 -0.3486 -0.4577  0.0944
  226MOL0     C30437   8.923  11.580   8.989  1.0837 -0.5233  0.1851
  226MOL0     C30438   9.000  11.630   8.857  0.9492  0.2508  0.1481
  226MOL0     C30439   9.104  11.730   8.891 -0.3455 -0.1653 -0.3372
  226MOL0     C30440   9.194  11.804   8.914 -0.2618  0.4768 -0.4471
  226MOL0     C30441   8.462  11.427   8.943 -0.1824  0.3977 -0.1320
  226MOL0     C30442   8.323  11.419   8.913 -0.3934 -0.6311  0.9325
  226MOL0     H30443   7.852  11.277   9.035 -1.9377  0.1073 -0.8882
  226MOL0     H30444   7.615  11.306   8.985  0.7357 -0.8651  0.4893
  226MOL0     H30445   7.428  11.652   8.870  0.8339  1.3243 -1.0918
  226MOL0     H30446   7.481  11.635   8.703 -0.5510  0.4188 -0.0069
  226MOL0     H30447   7.282  11.438   8.825  0.3267 -1.3329 -1.1377
  226MOL0     H30448   7.220  11.583   8.755  0.3527  0.8749 -2.0083
  226MOL0     H30449   7.324  11.546   8.528 -0.4847  0.9165  1.0921
  226MOL0     H30450   7.401  11.400   8.582  0.5756  0.3380 -0.5027
  226MOL0     H30451   7.194  11.346   8.463  0.7366 -2.0045  1.7379
  226MOL0     H30452   7.170  11.309   8.630  1.4583  0.4890 -0.0707
  226MOL0     H30453   7.029  11.520   8.644  4.0237  1.7535  0.8231
  226MOL0     H30454   7.072  11.572   8.484 -1.2007  0.5659  1.0871
  226MOL0     H30455   6.842  11.491   8.479 -0.3979  0.1264  2.4338
  226MOL0     H30456   6.947  11.399   8.373 -2.2036 -1.2026 -0.2420
  226MOL0     H30457   6.972  11.230   8.574 -0.9693  0.2412  1.6526
  226MOL0     H30458   6.848  11.316   8.646  1.4563 -1.9408  0.4500
  226MOL0     H30459   6.754  11.123   8.541 -0.1005  0.4226  0.7723
  226MOL0     H30460   6.828  11.172   8.387 -1.5766 -0.2511 -0.1830
  226MOL0     H30461   6.546  11.274   8.625  0.3481  0.8140  0.0943
  226MOL0     H30462   6.358  11.556   8.524  1.3180 -0.2055 -0.3119
  226MOL0     H30463   6.256  11.471   8.423  1.5360  0.3921 -0.6389
  226MOL0     H30464   6.325  11.341   8.689 -0.2058 -2.6049 -1.0451
  226MOL0     H30465   6.193  11.298   8.584  0.5136 -0.1172  0.3409
  226MOL0     H30466   6.206  11.545   8.733  0.2374  0.2630 -1.5783
  226MOL0     H30467   6.122  11.406   8.790 -4.0055  3.0701  0.7446
  226MOL0     H30468   6.017  11.456   8.543 -0.1841  0.6154 -0.9165
  226MOL0     H30469   6.068  11.617   8.571  0.6647 -0.6515 -1.8732
  226MOL0     H30470   5.706  11.566   8.832  3.2327 -2.8513 -1.1668
  226MOL0     H30471   5.404  11.724   8.792  1.0095  0.0576  0.1303
  226MOL0     H30472   5.377  11.564   8.714  0.4425 -1.3183 -0.3037
  226MOL0     H30473   5.477  11.570   8.856 -0.4396 -0.9918 -1.1501
  226MOL0     H30474   5.251  11.910   8.356 -0.3900  1.0549  1.4362
  226MOL0     H30475   5.021  11.977   8.299  0.5005  0.9730  0.5466
  226MOL0     H30476   4.640  11.831   8.509 -2.1057  2.6005 -2.7109
  226MOL0     H30477   4.725  11.911   8.642  2.4467  0.0114 -0.5120
  226MOL0     H30478   4.664  12.130   8.492 -0.2057 -0.6224 -1.7060
  226MOL0     H30479   4.556  12.024   8.413 -0.1535 -1.1945 -1.4702
  226MOL0     H30480   4.546  12.111   8.705  2.6901  1.3931 -2.0296
  226MOL0     H30481   4.469  11.960   8.662 -1.2724 -0.5927 -2.3169
  226MOL0     H30482   4.383  12.192   8.510  3.3471 -0.5630 -1.9981
  226MOL0     H30483   4.323  12.022   8.502 -1.3970  2.9129 -1.8572
  226MOL0     H30484   4.314  12.193   8.759 -0.4253 -0.2676  1.5806
  226MOL0     H30485   4.256  12.031   8.750  1.5639  0.4992  0.7598
  226MOL0     H30486   4.156  12.262   8.592 -2.3404 -1.1744 -1.7447
  226MOL0     H30487   4.096  12.105   8.570 -0.2154  0.3389  0.4804
  226MOL0     H30488   4.091  12.254   8.839  1.9055  1.1229 -1.5339
  226MOL0     H30489   4.021  12.087   8.805 -1.1137  0.5188  0.4780
  226MOL0     H30490   3.865  12.171   8.647  0.0720 -2.0248  1.6080
  226MOL0     H30491   3.931  12.336   8.650  2.4452 -0.8786 -0.8073
  226MOL0     H30492   4.884  11.757   8.640  0.3182  2.1363  1.1580
  226MOL0     H30493   5.106  11.677   8.681  1.4818  0.3373 -0.4706
  226MOL0     H30494   5.670  11.740   8.377 -0.6663  3.7617  1.3574
  226MOL0     H30495   5.892  11.647   8.456  0.6355  2.1137  0.2046
  226MOL0     H30496   7.704  11.635   8.736  0.4175 -0.1882 -0.9583
  226MOL0     H30497   7.935  11.612   8.787 -0.5062 -0.2137 -0.8246
  226MOL0     H30498   8.280  11.095   9.026  0.5569 -0.3660  0.7417
  226MOL0     H30499   8.501  11.117   9.086  0.6155  0.9057 -0.3862
  226MOL0     H30500   8.650  11.528   9.091 -1.1630 -0.3976 -0.7425
  226MOL0     H30501   8.785  11.431   9.162 -2.0372 -1.7474  1.5332
  226MOL0     H30502   8.749  11.520   8.865 -0.0728 -0.9328 -0.2787
  226MOL0     H30503   8.853  11.395   8.912  1.8233 -0.0387  1.4926
  226MOL0     H30504   8.986  11.544   9.071  0.6621  0.9767  1.1987
  226MOL0     H30505   8.878  11.674   9.019  0.8409 -1.1846  2.0300
  226MOL0     H30506   8.929  11.678   8.789  0.3189  1.7389  1.7662
  226MOL0     H30507   9.046  11.545   8.807  0.2307  0.8166 -1.5182
  226MOL0     H30508   9.267  11.864   8.965 -0.9330  0.0866  1.0252
  226MOL0     H30509   8.528  11.512   8.930 -1.1367  0.8742 -2.5631
  226MOL0     H30510   8.278  11.509   8.873 -0.7809 -1.1934  0.0673
  227MOL0     O30511   5.930   1.713   9.259  0.2241 -0.0331 -0.5855
  227MOL0     C30512   6.029   1.716   9.185  0.9353 -0.4882  0.8737
  227MOL0     O30513   6.076   1.831   9.125 -0.4217  0.3195 -0.2992
  227MOL0     C30514   6.007   1.954   9.125 -0.2853  0.2859  0.2967
  227MOL0     C30515   5.877   1.962   9.065  0.7858 -0.7424  0.0172
  227MOL0     C30516   5.816   2.083   9.044 -0.7375  0.0725  0.6551
  227MOL0     C30517   5.872   2.192   9.104 -0.4071  0.2850 -0.8975
  227MOL0     O30518   5.806   2.308   9.106 -0.7930 -0.0598  0.5154
  227MOL0     C30519   5.681   2.323   9.039  0.2723 -0.4918 -0.5406
  227MOL0     C30520   5.640   2.472   9.053  0.2266  0.7344 -0.1657
  227MOL0     C30521   5.527   2.497   8.953 -0.0682  0.0346 -0.1003
  227MOL0     C30522   5.479   2.643   8.931  0.4181  0.1488  0.4326
  227MOL0     C30523   5.365   2.655   8.825 -0.3425  0.2681 -0.6317
  227MOL0     C30524   5.304   2.791   8.833 -0.1804 -0.0522 -0.0145
  227MOL0     C30525   5.181   2.807   8.746 -0.8256 -0.3226  0.9485
  227MOL0     C30526   5.062   2.710   8.767 -0.6331  0.3865 -1.0314
  227MOL0     N30527   4.961   2.732   8.665 -0.0739 -0.3447  0.4789
  227MOL0     C30528   4.920   2.646   8.563  0.5461  0.7454 -0.7117
  227MOL0     C30529   4.818   2.705   8.509 -0.1187 -1.0409  0.2731
  227MOL0     C30530   4.743   2.649   8.398 -0.1396 -0.0817 -0.2202
  227MOL0     C30531   4.602   2.722   8.375 -0.7054 -0.4470 -0.2212
  227MOL0     C30532   4.518   2.649   8.279  0.4798 -0.2834  0.8773
  227MOL0     C30533   4.367   2.677   8.271  1.2012 -0.3079  0.4898
  227MOL0     O30534   4.314   2.593   8.168  0.0713 -0.0024  0.5197
  227MOL0     C30535   4.215   2.634   8.084  0.6134 -0.0064  0.4563
  227MOL0     C30536   4.157   2.762   8.073 -0.3698 -0.1664 -0.3819
  227MOL0     C30537   4.058   2.777   7.976 -0.1968 -0.0308 -0.1965
  227MOL0     C30538   4.000   2.911   7.980 -0.5429  0.0117 -0.2002
  227MOL0     C30539   4.012   2.668   7.893  0.8129  0.1817 -0.7214
  227MOL0     C30540   3.887   2.680   7.809 -0.0605  0.2955  0.0223
  227MOL0     O30541   3.870   2.583   7.711 -0.0335  1.1446 -0.5724
  227MOL0     C30542   3.761   2.577   7.628 -0.2683 -0.6482  0.6443
  227MOL0     C30543   3.692   2.453   7.624  1.1015 -0.0195 -0.0894
  227MOL0     C30544   3.579   2.447   7.548 -0.1649  0.5699 -0.3106
  227MOL0     C30545   3.523   2.551   7.476  0.5132  0.4595  0.1021
  227MOL0     O30546   3.403   2.537   7.397 -0.5755 -0.5997  0.6325
  227MOL0     C30547   3.354   2.407   7.366  0.1855  0.0894  0.2413
  227MOL0     C30548   3.254   2.401   7.252 -0.6734  0.4775 -0.2443
  227MOL0     C30549   3.121   2.459   7.288  0.7242 -0.0961  0.1056
  227MOL0     C30550   3.043   2.510   7.161 -0.5703  0.8566  0.2492
  227MOL0     C30551   3.003   2.384   7.079 -0.4200 -0.5911  0.4609
  227MOL0     C30552   2.907   2.430   6.973 -0.4112  0.1815 -0.0560
  227MOL0     C30553   2.885   2.331   6.850 -0.7420 -0.0928 -0.3257
  227MOL0     C30554   2.754   2.356   6.775  0.3134 -0.3279 -0.2123
  227MOL0    Cl30555   2.729   2.202   6.677 -0.0014  0.6121 -0.0880
  227MOL0     C30556   3.600   2.670   7.473 -0.5977  0.4657  0.5666
  227MOL0     C30557   3.720   2.686   7.545 -0.4511 -0.5861 -0.2458
  227MOL0     O30558   3.797   2.755   7.842 -0.2520  0.5852 -0.7134
  227MOL0     C30559   4.088   2.551   7.894 -0.3911 -0.5178  0.9362
  227MOL0     C30560   4.182   2.530   7.989 -0.4364 -0.9399 -0.4366
  227MOL0     N30561   4.806   2.832   8.557 -0.2719  0.1390  0.6299
  227MOL0     N30562   4.883   2.842   8.656  0.2490 -0.3477 -0.0466
  227MOL0     C30563   5.989   2.184   9.179 -1.4237  0.0049  0.8580
  227MOL0     C30564   6.059   2.069   9.183 -0.0543  0.0499 -0.0373
  227MOL0     C30565   6.090   1.590   9.148 -0.9420  0.7491 -0.1987
  227MOL0     C30566   6.206   1.569   9.075  0.7461 -0.7337  0.4721
  227MOL0     C30567   6.255   1.444   9.036  0.0618 -0.0707 -0.6457
  227MOL0     C30568   6.190   1.328   9.067  0.0098  0.0193  0.5792
  227MOL0     O30569   6.243   1.213   9.023 -0.6225  0.4786 -0.2761
  227MOL0     C30570   6.180   1.086   9.067  0.2154 -0.5755 -0.5038
  227MOL0     C30571   6.240   0.967   8.989 -0.5536  0.2585 -0.1384
  227MOL0     C30572   6.383   0.967   8.987  0.2900 -0.4364  0.1238
  227MOL0     C30573   6.448   0.912   9.119  0.3051  0.0388 -0.1351
  227MOL0     C30574   6.434   0.767   9.121 -0.2051  0.0961  0.4547
  227MOL0     C30575   6.430   0.646   9.128  0.8115 -0.2412 -0.0443
  227MOL0     C30576   6.071   1.345   9.149 -0.6765 -0.1217 -0.4397
  227MOL0     C30577   6.026   1.465   9.182 -0.4233 -0.0614  0.2989
  227MOL0     H30578   5.840   1.873   9.016 -0.1210  1.5602 -3.9262
  227MOL0     H30579   5.725   2.077   8.986 -0.2642  0.1729 -0.1044
  227MOL0     H30580   5.674   2.287   8.935  1.5453 -0.8339 -0.5185
  227MOL0     H30581   5.606   2.272   9.100  0.4052  3.0970  3.0083
  227MOL0     H30582   5.618   2.497   9.158  1.3302 -1.5435  0.6751
  227MOL0     H30583   5.726   2.538   9.040 -1.9398  4.1246  1.3105
  227MOL0     H30584   5.563   2.454   8.859  0.6924  0.0386  0.1840
  227MOL0     H30585   5.431   2.446   8.967 -2.0721  3.2908 -0.8130
  227MOL0     H30586   5.446   2.682   9.028 -2.2061  0.5749 -0.5437
  227MOL0     H30587   5.557   2.704   8.884 -0.4895  0.1219 -1.2053
  227MOL0     H30588   5.404   2.627   8.726 -0.2070 -2.2289  0.0405
  227MOL0     H30589   5.287   2.585   8.856  0.4924  0.4019  1.9777
  227MOL0     H30590   5.278   2.818   8.936 -2.0883 -0.4507 -0.3476
  227MOL0     H30591   5.384   2.860   8.807  0.1762 -0.9382 -1.3494
  227MOL0     H30592   5.140   2.908   8.750 -1.2274 -0.5041  1.5888
  227MOL0     H30593   5.217   2.804   8.642 -0.7738  0.3051  0.9464
  227MOL0     H30594   5.011   2.740   8.859 -3.0912 -0.9462 -1.8523
  227MOL0     H30595   5.087   2.605   8.784 -0.2207  0.6781  0.3062
  227MOL0     H30596   4.954   2.553   8.519 -1.3526 -0.4375  0.2172
  227MOL0     H30597   4.805   2.653   8.307 -0.6774 -1.2743 -0.6600
  227MOL0     H30598   4.730   2.547   8.435 -0.4706  0.0141 -0.0771
  227MOL0     H30599   4.623   2.825   8.347  1.4498 -0.4374  1.1576
  227MOL0     H30600   4.558   2.724   8.476  3.3492 -0.0245  1.7420
  227MOL0     H30601   4.527   2.545   8.311 -2.3856 -0.2834  1.9960
  227MOL0     H30602   4.570   2.658   8.183  1.3859  0.5684  1.4256
  227MOL0     H30603   4.349   2.785   8.265  0.7464 -0.3664  0.7680
  227MOL0     H30604   4.330   2.645   8.369 -0.3539 -0.4709 -0.1189
  227MOL0     H30605   4.183   2.830   8.153  2.7904 -0.5275 -0.9460
  227MOL0     H30606   3.916   2.906   8.050  3.0652 -0.2793  4.5674
  227MOL0     H30607   4.067   2.986   8.023  0.7230  0.0686 -2.1729
  227MOL0     H30608   3.969   2.943   7.880 -0.0177 -0.2447 -0.4454
  227MOL0     H30609   3.744   2.375   7.679  5.3699  2.4946 -0.0840
  227MOL0     H30610   3.532   2.349   7.552  3.2588 -1.1759  2.7859
  227MOL0     H30611   3.431   2.335   7.336  0.7919  0.1896  1.4834
  227MOL0     H30612   3.314   2.361   7.457  0.8095 -0.3457  0.3057
  227MOL0     H30613   3.299   2.454   7.167 -0.1664  0.5256  0.0505
  227MOL0     H30614   3.237   2.297   7.222  1.1063  1.1035 -4.1337
  227MOL0     H30615   3.133   2.546   7.353 -4.1574  0.7117  0.3538
  227MOL0     H30616   3.056   2.386   7.337  1.1994 -1.4462 -1.1995
  227MOL0     H30617   2.950   2.552   7.199 -0.2471 -0.4939  2.7796
  227MOL0     H30618   3.106   2.584   7.111  1.9737  0.4215  2.5685
  227MOL0     H30619   2.965   2.306   7.146 -0.5554 -0.3985  0.6117
  227MOL0     H30620   3.096   2.352   7.032 -0.7546 -1.4846  0.3949
  227MOL0     H30621   2.811   2.443   7.024 -0.2747 -0.9185  0.5261
  227MOL0     H30622   2.933   2.526   6.928 -0.5754  0.3114  0.1189
  227MOL0     H30623   2.879   2.226   6.879 -1.0979  0.2112  0.7766
  227MOL0     H30624   2.971   2.341   6.783  1.4831  0.7073  2.4633
  227MOL0     H30625   2.756   2.449   6.718  1.7966  1.6008  2.7188
  227MOL0     H30626   2.676   2.383   6.847  1.6254  0.4075  0.9908
  227MOL0     H30627   3.564   2.756   7.419 -0.4183  1.1072  1.4532
  227MOL0     H30628   3.768   2.782   7.564 -0.1276 -1.2328  2.7131
  227MOL0     H30629   4.084   2.475   7.817 -1.2266  0.4542 -0.0123
  227MOL0     H30630   4.233   2.435   7.977  0.7711 -0.2898 -0.6028
  227MOL0     H30631   6.036   2.268   9.229  1.0201  0.4976 -1.9866
  227MOL0     H30632   6.152   2.056   9.238  0.4673  2.5716 -0.2099
  227MOL0     H30633   6.271   1.655   9.057  0.3376 -0.1470  1.7231
  227MOL0     H30634   6.352   1.448   8.987  0.7612 -1.9431  0.4756
  227MOL0     H30635   6.187   1.069   9.175 -2.4579 -4.4830 -0.6911
  227MOL0     H30636   6.075   1.097   9.037  0.8996 -0.6822 -3.2276
  227MOL0     H30637   6.198   0.975   8.888  0.2039  1.4985 -0.3660
  227MOL0     H30638   6.199   0.875   9.033 -0.7315  0.2106 -0.4019
  227MOL0     H30639   6.435   1.061   8.969  0.5053 -0.4425  0.7108
  227MOL0     H30640   6.416   0.906   8.902 -3.6006  0.6086 -2.4123
  227MOL0     H30641   6.402   0.957   9.207  2.6354  1.4149  0.4781
  227MOL0     H30642   6.554   0.941   9.125 -0.6119  3.9783  0.0173
  227MOL0     H30643   6.446   0.542   9.146  3.8250  0.0330 -0.5520
  227MOL0     H30644   6.002   1.267   9.181 -2.4357  1.7658  0.5772
  227MOL0     H30645   5.927   1.466   9.226 -1.4523 -0.5692 -1.8600
  228MOL0     O30646   1.321   3.889   5.983 -0.3883 -0.2276  0.2273
  228MOL0     C30647   1.356   3.808   5.897  0.2883  0.5246  0.7652
  228MOL0     O30648   1.271   3.718   5.829 -0.1322  0.0424 -0.2322
  228MOL0     C30649   1.143   3.756   5.835 -0.5944  0.1781  1.4309
  228MOL0     C30650   1.062   3.717   5.938 -0.3869 -0.1940 -0.0119
  228MOL0     C30651   0.926   3.744   5.936 -0.4686  0.4585 -0.2386
  228MOL0     C30652   0.868   3.802   5.825 -0.0498  0.3694 -0.0292
  228MOL0     O30653   0.737   3.842   5.824  0.0837 -0.4054 -0.2625
  228MOL0     C30654   0.644   3.755   5.883 -0.6689 -0.3956 -0.3354
  228MOL0     C30655   0.507   3.763   5.820  0.3784 -0.2832 -0.3190
  228MOL0     C30656   0.404   3.663   5.876 -0.1154 -0.0363 -0.0484
  228MOL0     C30657   0.264   3.693   5.822 -0.2484 -0.1861 -0.6051
  228MOL0     C30658   0.198   3.798   5.912 -0.0932 -0.2454 -0.4137
  228MOL0     C30659   0.056   3.823   5.871 -0.6981  0.1878 -0.0753
  228MOL0     C30660  -0.035   3.729   5.948 -0.5610  0.3352 -0.3694
  228MOL0     C30661  -0.171   3.781   5.952  0.3509  0.2041 -0.6254
  228MOL0     N30662  -0.186   3.899   6.048 -0.3922  0.3777  0.5947
  228MOL0     C30663  -0.239   4.018   6.015  0.6659  0.0543  0.2618
  228MOL0     C30664  -0.252   4.076   6.138 -0.6850 -0.0991 -0.0973
  228MOL0     C30665  -0.308   4.213   6.166 -0.1837  0.0272  0.2230
  228MOL0     C30666  -0.204   4.314   6.202 -0.7763 -0.9943  0.3389
  228MOL0     C30667  -0.259   4.457   6.212 -0.1878  0.2384 -0.3857
  228MOL0     C30668  -0.293   4.494   6.354 -0.1291  0.3777  0.0868
  228MOL0     O30669  -0.379   4.402   6.427  0.4964 -0.4750 -1.0340
  228MOL0     C30670  -0.518   4.421   6.420  0.7071 -0.3192 -0.3920
  228MOL0     C30671  -0.585   4.342   6.515 -1.1099 -0.3757 -0.6923
  228MOL0     C30672  -0.723   4.350   6.537 -0.0702 -0.3815  0.8315
  228MOL0     C30673  -0.782   4.261   6.636  0.6798 -0.1233  0.1705
  228MOL0     C30674  -0.791   4.432   6.441 -0.2949  0.4747 -0.5069
  228MOL0     C30675  -0.940   4.444   6.449 -0.8813  0.0620 -0.3032
  228MOL0     O30676  -0.996   4.472   6.333  0.8392 -0.1083  0.5160
  228MOL0     C30677  -1.110   4.545   6.333 -0.6591 -0.0142 -0.5418
  228MOL0     C30678  -1.138   4.640   6.440 -0.6073  0.3476  0.1547
  228MOL0     C30679  -1.246   4.724   6.434  0.1063 -0.3889 -0.4379
  228MOL0     C30680  -1.329   4.726   6.317 -0.3989 -0.2999  0.1862
  228MOL0     O30681  -1.440   4.808   6.302 -0.0747  0.3690  0.1121
  228MOL0     C30682  -1.542   4.781   6.399 -0.0151 -0.4086  0.0193
  228MOL0     C30683  -1.630   4.656   6.364  0.2200 -0.9637  1.5743
  228MOL0     C30684  -1.684   4.659   6.222 -0.2915  0.2053  0.2928
  228MOL0     C30685  -1.789   4.554   6.204  0.4402 -0.3069  1.3910
  228MOL0     C30686  -1.859   4.580   6.058  0.3535 -0.3534  0.5524
  228MOL0     C30687  -1.971   4.475   6.034 -0.1655  0.7376 -0.8061
  228MOL0     C30688  -2.078   4.533   5.943  0.6252 -0.1398  0.4936
  228MOL0     C30689  -2.210   4.455   5.923  0.1506  0.5382 -1.0497
  228MOL0    Cl30690  -2.302   4.507   5.786  0.1495  0.0694 -0.2503
  228MOL0     C30691  -1.304   4.628   6.218 -0.4508  0.1743 -0.2252
  228MOL0     C30692  -1.199   4.542   6.228  0.2227  1.0154  0.5247
  228MOL0     O30693  -0.991   4.437   6.561 -0.5499  0.2921 -0.3293
  228MOL0     C30694  -0.726   4.507   6.345 -0.0171 -0.3350  0.0226
  228MOL0     C30695  -0.594   4.499   6.335 -0.5199 -0.4843  1.1168
  228MOL0     N30696  -0.206   3.998   6.238  0.6383  0.3361  0.7416
  228MOL0     N30697  -0.172   3.887   6.182 -1.1019  0.6297 -0.1321
  228MOL0     C30698   0.955   3.846   5.722  0.7155  0.7851  0.3794
  228MOL0     C30699   1.092   3.819   5.722  0.2381  0.5427 -1.2884
  228MOL0     C30700   1.499   3.799   5.858 -0.0387  0.6310 -0.1841
  228MOL0     C30701   1.607   3.849   5.940  0.1336 -0.3294 -0.5490
  228MOL0     C30702   1.740   3.836   5.901  0.2734 -0.1671  0.0328
  228MOL0     C30703   1.771   3.774   5.771 -1.0570  0.1749 -0.9991
  228MOL0     O30704   1.907   3.749   5.742 -0.4153  0.5907  0.7055
  228MOL0     C30705   1.935   3.694   5.610  0.5015 -0.4905  0.2441
  228MOL0     C30706   2.085   3.693   5.584  0.3829 -0.1129  0.5443
  228MOL0     C30707   2.117   3.709   5.433 -0.6168  0.2145 -0.4830
  228MOL0     C30708   2.122   3.577   5.352 -0.3739 -0.3645  1.4550
  228MOL0     C30709   1.993   3.511   5.340  0.3363 -0.8995 -0.0388
  228MOL0     C30710   1.881   3.466   5.322  0.6397 -0.0411 -0.6406
  228MOL0     C30711   1.668   3.716   5.699  0.2805 -0.5669 -0.4293
  228MOL0     C30712   1.532   3.733   5.739  0.9216 -0.1630 -0.3979
  228MOL0     H30713   1.109   3.663   6.019  1.6307  1.2434 -0.1361
  228MOL0     H30714   0.866   3.717   6.022  0.6761 -0.7258  0.2162
  228MOL0     H30715   0.680   3.651   5.877  0.3141 -0.0527 -0.5829
  228MOL0     H30716   0.639   3.783   5.989 -1.1380  0.4842 -0.5815
  228MOL0     H30717   0.470   3.864   5.840  0.9400 -0.4368  1.8180
  228MOL0     H30718   0.532   3.742   5.716 -3.3987 -3.6553 -0.7349
  228MOL0     H30719   0.452   3.569   5.846  2.8056  1.1065  0.6554
  228MOL0     H30720   0.401   3.661   5.985  1.2743 -1.1250 -0.0014
  228MOL0     H30721   0.277   3.722   5.717 -0.8958 -0.7341 -0.8399
  228MOL0     H30722   0.204   3.602   5.830  0.0815 -0.4230 -0.7847
  228MOL0     H30723   0.227   3.782   6.016 -0.7766 -1.5713 -0.3958
  228MOL0     H30724   0.243   3.895   5.892  1.7485  0.0756  4.0806
  228MOL0     H30725   0.019   3.923   5.898 -1.0904  0.0566 -0.1158
  228MOL0     H30726   0.038   3.802   5.765 -2.9117 -2.6151  0.7286
  228MOL0     H30727  -0.034   3.626   5.914  0.4722  0.2550 -0.1166
  228MOL0     H30728   0.006   3.720   6.050  1.5153 -0.9833 -1.2589
  228MOL0     H30729  -0.233   3.697   5.986  0.8919 -0.8982 -2.1938
  228MOL0     H30730  -0.195   3.803   5.847  0.0348 -1.3901 -0.9194
  228MOL0     H30731  -0.286   4.052   5.924 -1.2381 -1.9735  0.4279
  228MOL0     H30732  -0.359   4.251   6.078  0.7071  2.7212  0.7755
  228MOL0     H30733  -0.373   4.204   6.254 -0.4969  2.5955  0.3222
  228MOL0     H30734  -0.130   4.325   6.122 -1.6925 -2.9000 -0.8514
  228MOL0     H30735  -0.155   4.282   6.294  0.3327 -0.5623 -0.0848
  228MOL0     H30736  -0.348   4.478   6.151 -0.8429 -0.8864  0.1431
  228MOL0     H30737  -0.185   4.526   6.172 -1.1142  0.4551 -1.8046
  228MOL0     H30738  -0.345   4.590   6.354 -1.2262 -0.1593 -1.8468
  228MOL0     H30739  -0.200   4.496   6.412 -0.5949  1.1057  0.8268
  228MOL0     H30740  -0.536   4.277   6.586 -0.9655 -0.6398 -1.0325
  228MOL0     H30741  -0.824   4.327   6.713 -3.2662  0.7723 -2.4838
  228MOL0     H30742  -0.856   4.189   6.602  0.9884 -1.9567  3.0050
  228MOL0     H30743  -0.714   4.191   6.684  0.2209 -1.0744 -0.5409
  228MOL0     H30744  -1.067   4.651   6.522 -0.7533 -1.4263  0.5562
  228MOL0     H30745  -1.270   4.793   6.514 -1.0902  1.7822 -2.5301
  228MOL0     H30746  -1.507   4.751   6.498  0.3404 -1.1875 -0.3345
  228MOL0     H30747  -1.603   4.871   6.411  1.6174  0.6253  0.9650
  228MOL0     H30748  -1.571   4.564   6.372  0.8660 -0.5709  1.4318
  228MOL0     H30749  -1.706   4.672   6.441  1.8181 -0.0955  3.0649
  228MOL0     H30750  -1.604   4.628   6.155  1.1770  0.4893  1.8588
  228MOL0     H30751  -1.718   4.762   6.204 -1.0786  0.0807  0.9838
  228MOL0     H30752  -1.753   4.453   6.224  0.4150 -0.0916  2.6187
  228MOL0     H30753  -1.860   4.572   6.285 -0.8766  1.8550 -0.1205
  228MOL0     H30754  -1.778   4.574   5.986  1.5065  1.0184  1.6695
  228MOL0     H30755  -1.892   4.684   6.056  0.5208 -0.3121  0.0145
  228MOL0     H30756  -1.938   4.386   5.979  1.2576  0.7020  0.0580
  228MOL0     H30757  -2.022   4.455   6.129 -0.1733 -0.1030 -0.9741
  228MOL0     H30758  -2.036   4.541   5.843 -3.0320  0.6001 -1.1682
  228MOL0     H30759  -2.110   4.634   5.971  1.0205  0.6094 -1.6255
  228MOL0     H30760  -2.275   4.466   6.010  1.1589  2.1430 -0.4390
  228MOL0     H30761  -2.179   4.351   5.922 -0.4617  0.3494 -0.6561
  228MOL0     H30762  -1.378   4.621   6.139 -0.2766  2.6371 -0.6869
  228MOL0     H30763  -1.186   4.470   6.148  2.2549  4.4662 -2.5442
  228MOL0     H30764  -0.792   4.555   6.274 -0.9095  0.5521  1.3974
  228MOL0     H30765  -0.543   4.564   6.264  1.0366 -2.4891  0.2946
  228MOL0     H30766   0.909   3.900   5.640  0.4181  0.1996  0.1541
  228MOL0     H30767   1.158   3.841   5.639  2.5626  0.8479  0.5523
  228MOL0     H30768   1.580   3.914   6.022 -2.2777  3.3619 -3.8939
  228MOL0     H30769   1.810   3.887   5.966  1.1842  0.0799 -1.1216
  228MOL0     H30770   1.897   3.592   5.616 -0.3425 -0.2154 -0.2897
  228MOL0     H30771   1.894   3.755   5.529  1.6934  2.1343  1.4611
  228MOL0     H30772   2.130   3.595   5.604  0.8447 -0.4339 -1.7652
  228MOL0     H30773   2.124   3.782   5.634  0.3367  0.9952 -1.2992
  228MOL0     H30774   2.215   3.756   5.420  0.4250 -0.7602  3.0000
  228MOL0     H30775   2.046   3.780   5.389 -0.7144  1.4267  1.5238
  228MOL0     H30776   2.189   3.500   5.390  1.3964 -0.5731 -1.7849
  228MOL0     H30777   2.153   3.604   5.251 -3.6287 -3.3679 -0.6106
  228MOL0     H30778   1.781   3.429   5.318  1.6684 -2.9774 -1.8963
  228MOL0     H30779   1.686   3.677   5.600 -3.4429  1.8681 -2.3383
  228MOL0     H30780   1.456   3.702   5.668 -1.6740  1.6034  1.4260
  229MOL0     O30781   5.848   1.078   1.084 -0.3544  0.3159 -0.4721
  229MOL0     C30782   5.880   1.111   1.196 -0.5881  0.4560 -0.2006
  229MOL0     O30783   5.796   1.139   1.296  0.6096  0.5692 -0.0434
  229MOL0     C30784   5.665   1.126   1.287  0.4035  0.4059  0.4141
  229MOL0     C30785   5.592   1.227   1.340 -0.5323 -0.6186  0.4272
  229MOL0     C30786   5.452   1.215   1.345  0.1791  0.6023  0.1943
  229MOL0     C30787   5.381   1.113   1.283  0.9300  0.4804  0.2803
  229MOL0     O30788   5.245   1.087   1.291 -0.2116  0.0877  0.2998
  229MOL0     C30789   5.167   1.206   1.287  0.5379 -0.0247 -0.3732
  229MOL0     C30790   5.024   1.156   1.248 -1.0498 -0.5020  0.2374
  229MOL0     C30791   4.924   1.269   1.269  1.3686 -0.6981 -0.5555
  229MOL0     C30792   4.791   1.235   1.195  0.0860 -0.0219 -0.3394
  229MOL0     C30793   4.694   1.333   1.258 -0.4007  0.2949 -0.4092
  229MOL0     C30794   4.558   1.339   1.202 -0.5869  0.0486  0.4868
  229MOL0     C30795   4.448   1.411   1.283  1.0159  0.8828  0.0279
  229MOL0     C30796   4.313   1.390   1.201 -0.4811  0.7936 -0.2864
  229MOL0     N30797   4.189   1.447   1.263  0.2084 -0.4091 -0.6490
  229MOL0     C30798   4.158   1.449   1.395 -0.5230 -0.0497  0.1636
  229MOL0     C30799   4.058   1.536   1.421 -0.3352  0.6267 -0.1970
  229MOL0     C30800   4.005   1.603   1.542  0.9648 -0.2482 -0.0988
  229MOL0     C30801   3.855   1.568   1.557  1.3058  1.1504 -0.7328
  229MOL0     C30802   3.794   1.648   1.673  0.3947  1.1696  0.0528
  229MOL0     C30803   3.645   1.631   1.662  0.3786  0.2184 -0.9129
  229MOL0     O30804   3.626   1.493   1.698  0.7209  0.2287  0.2191
  229MOL0     C30805   3.506   1.456   1.740  0.5459 -0.5404  0.1574
  229MOL0     C30806   3.484   1.323   1.767 -0.4195 -0.4467 -0.2333
  229MOL0     C30807   3.361   1.277   1.806 -0.2963  0.3156  0.2313
  229MOL0     C30808   3.366   1.130   1.831  0.0697 -0.3974  0.4319
  229MOL0     C30809   3.252   1.358   1.815  0.5516 -0.2219  0.3969
  229MOL0     C30810   3.117   1.317   1.869 -0.2002  0.8509  0.5910
  229MOL0     O30811   3.015   1.397   1.820 -0.1264  0.5071  0.2856
  229MOL0     C30812   2.886   1.404   1.876 -0.6983 -0.7661 -0.1349
  229MOL0     C30813   2.813   1.507   1.817  0.7094 -0.0065 -0.7877
  229MOL0     C30814   2.690   1.553   1.883 -0.8099  0.0818 -0.0994
  229MOL0     C30815   2.634   1.488   1.996  0.4435  0.0310  0.3603
  229MOL0     O30816   2.508   1.512   2.051 -0.0589 -0.3665 -0.0941
  229MOL0     C30817   2.439   1.628   2.013 -0.1859  0.6824 -0.8472
  229MOL0     C30818   2.336   1.669   2.113 -0.2801 -0.2425  0.1515
  229MOL0     C30819   2.226   1.569   2.123  0.1039  0.6198  0.1155
  229MOL0     C30820   2.143   1.580   2.245  0.4301 -0.4603 -0.6237
  229MOL0     C30821   2.049   1.707   2.241 -0.9354 -0.5648  0.2442
  229MOL0     C30822   1.956   1.703   2.362  0.7966  0.2317  0.7826
  229MOL0     C30823   1.856   1.834   2.368 -0.6700 -0.3032 -0.1253
  229MOL0     C30824   1.734   1.839   2.273  0.0506 -0.3276 -0.0309
  229MOL0    Cl30825   1.782   1.913   2.108  0.1867  0.3164  0.0802
  229MOL0     C30826   2.696   1.366   2.041  0.1314  0.0536  0.4751
  229MOL0     C30827   2.820   1.322   1.982  0.2393  0.4602  0.4326
  229MOL0     O30828   3.103   1.231   1.949  0.0926 -0.1125 -0.2504
  229MOL0     C30829   3.270   1.495   1.780 -0.2485 -0.4192 -0.5661
  229MOL0     C30830   3.394   1.549   1.743  0.0852  0.4499 -0.1324
  229MOL0     N30831   4.032   1.592   1.292 -0.1385 -0.2485 -0.7504
  229MOL0     N30832   4.097   1.527   1.196 -0.9023 -0.0493  0.4843
  229MOL0     C30833   5.463   1.016   1.221  0.7880 -0.4337  0.5040
  229MOL0     C30834   5.601   1.030   1.213 -0.1306  0.7984  0.4657
  229MOL0     C30835   6.027   1.124   1.221  0.4173 -0.0619 -0.3031
  229MOL0     C30836   6.121   1.099   1.119  0.7468 -0.1395 -0.1949
  229MOL0     C30837   6.259   1.116   1.146  0.1047  0.3623 -1.0201
  229MOL0     C30838   6.302   1.146   1.275  0.0326 -0.1930 -0.7054
  229MOL0     O30839   6.426   1.134   1.332 -0.8316  0.5621  0.1847
  229MOL0     C30840   6.541   1.153   1.250 -1.1488 -0.3324  0.1065
  229MOL0     C30841   6.641   1.033   1.228  0.2355 -0.2071 -0.1173
  229MOL0     C30842   6.616   0.921   1.324 -0.4151 -0.7003  1.3834
  229MOL0     C30843   6.516   0.824   1.268 -0.5063  0.0220  0.4196
  229MOL0     C30844   6.485   0.720   1.365  0.4693  0.1721  0.4140
  229MOL0     C30845   6.472   0.662   1.472  0.0753  0.5740 -0.1242
  229MOL0     C30846   6.214   1.172   1.377  0.3388 -1.0730  0.0599
  229MOL0     C30847   6.069   1.163   1.352 -0.3424  0.1650  0.2184
  229MOL0     H30848   5.649   1.313   1.372  1.0230 -0.7060 -1.8378
  229MOL0     H30849   5.399   1.290   1.403  1.0499  0.4743  1.1779
  229MOL0     H30850   5.173   1.254   1.385  2.8047 -0.0696 -0.4486
  229MOL0     H30851   5.200   1.288   1.223 -0.1235  1.8055  1.5196
  229MOL0     H30852   5.022   1.128   1.142 -0.4499 -1.4604  0.4637
  229MOL0     H30853   4.993   1.066   1.301 -3.4797  0.4756  0.6094
  229MOL0     H30854   4.893   1.281   1.373 -1.8176  0.5052 -1.5303
  229MOL0     H30855   4.972   1.354   1.220  1.5118 -1.5512 -1.9724
  229MOL0     H30856   4.801   1.255   1.088  0.4526  0.0824 -0.2880
  229MOL0     H30857   4.759   1.132   1.208 -0.4836  0.0107 -1.3587
  229MOL0     H30858   4.687   1.325   1.367 -0.9466 -4.2407 -0.5996
  229MOL0     H30859   4.730   1.432   1.231 -0.2328  0.0899 -0.9450
  229MOL0     H30860   4.555   1.380   1.100  1.3790  0.4447  0.5498
  229MOL0     H30861   4.526   1.234   1.193 -0.2946 -0.0365  0.4240
  229MOL0     H30862   4.437   1.376   1.386 -2.8333  0.1638 -0.4567
  229MOL0     H30863   4.463   1.519   1.276  0.7625  0.8061 -2.5476
  229MOL0     H30864   4.295   1.283   1.207  1.9106  0.4175  3.2650
  229MOL0     H30865   4.329   1.412   1.095  2.9525 -1.4302 -0.3750
  229MOL0     H30866   4.220   1.404   1.472 -0.2876 -0.2731 -0.1576
  229MOL0     H30867   4.066   1.579   1.629 -0.1663 -1.9310  0.2659
  229MOL0     H30868   4.018   1.707   1.510 -0.8125  0.4028  1.1564
  229MOL0     H30869   3.856   1.460   1.574  2.5981  0.7201 -3.1103
  229MOL0     H30870   3.803   1.594   1.464  1.1304 -2.1442 -1.6690
  229MOL0     H30871   3.825   1.752   1.664  3.6004  0.3541  0.6632
  229MOL0     H30872   3.826   1.608   1.770 -0.1162 -2.2642 -1.0374
  229MOL0     H30873   3.620   1.658   1.559  0.7296 -0.2071 -1.1154
  229MOL0     H30874   3.603   1.700   1.736 -0.9433  0.2900 -1.6962
  229MOL0     H30875   3.575   1.264   1.758 -1.5808 -2.0491 -2.7085
  229MOL0     H30876   3.441   1.070   1.779  0.5305 -2.7606  3.5688
  229MOL0     H30877   3.397   1.105   1.933  2.1932 -0.4150 -0.1717
  229MOL0     H30878   3.268   1.084   1.814  0.7798 -2.6469  1.9972
  229MOL0     H30879   2.853   1.560   1.731 -0.7352  3.4848  0.4844
  229MOL0     H30880   2.654   1.650   1.850 -2.2943 -0.3872  0.0791
  229MOL0     H30881   2.496   1.721   2.010  2.0339 -0.6093 -1.0465
  229MOL0     H30882   2.398   1.618   1.912 -2.1071 -1.0132  0.0206
  229MOL0     H30883   2.381   1.678   2.212  0.3618 -0.4547 -0.1200
  229MOL0     H30884   2.299   1.769   2.085 -1.6054 -0.7716 -0.0638
  229MOL0     H30885   2.270   1.469   2.131  1.6989  1.4311  3.8966
  229MOL0     H30886   2.162   1.576   2.035  1.0965 -0.6777 -0.7420
  229MOL0     H30887   2.077   1.495   2.265  1.0158 -0.5453  1.1118
  229MOL0     H30888   2.202   1.595   2.336  2.5389  1.6806 -2.2391
  229MOL0     H30889   1.988   1.689   2.153  0.0385 -1.1021 -0.3452
  229MOL0     H30890   2.104   1.802   2.239 -0.5023 -0.8156 -1.9878
  229MOL0     H30891   1.903   1.608   2.367  1.4936 -0.1607  0.9089
  229MOL0     H30892   2.022   1.703   2.449  2.7832 -1.3780 -0.6152
  229MOL0     H30893   1.922   1.920   2.357  1.6979 -2.0282 -0.0792
  229MOL0     H30894   1.820   1.836   2.472 -2.6205  1.2826 -0.7615
  229MOL0     H30895   1.660   1.905   2.319 -1.8050 -1.4309 -1.2841
  229MOL0     H30896   1.700   1.735   2.262 -2.0996  0.0379  2.2630
  229MOL0     H30897   2.644   1.312   2.120 -2.0719  0.6330 -0.4927
  229MOL0     H30898   2.876   1.233   2.009  0.5692 -0.6556 -3.2463
  229MOL0     H30899   3.181   1.556   1.772 -0.4908 -0.7823 -0.6548
  229MOL0     H30900   3.388   1.644   1.691  0.9850  1.0748  0.8661
  229MOL0     H30901   5.416   0.946   1.153 -0.2244  2.1978 -1.7104
  229MOL0     H30902   5.655   0.946   1.170 -3.7044 -1.5954  0.1756
  229MOL0     H30903   6.093   1.070   1.018 -2.8919 -0.4090  0.7631
  229MOL0     H30904   6.337   1.092   1.074 -0.6174  0.9101 -1.9934
  229MOL0     H30905   6.500   1.199   1.160 -0.6157  1.9760  0.9890
  229MOL0     H30906   6.604   1.234   1.288  1.1472 -2.4752  1.1399
  229MOL0     H30907   6.745   1.068   1.237  0.6247 -0.8892 -1.5833
  229MOL0     H30908   6.637   0.993   1.126 -0.6643 -2.4261  0.7347
  229MOL0     H30909   6.584   0.957   1.422 -0.2365  1.1569  0.8050
  229MOL0     H30910   6.713   0.869   1.325  0.4828  0.8651  0.6392
  229MOL0     H30911   6.552   0.778   1.176  0.6359  2.2711 -0.3257
  229MOL0     H30912   6.427   0.885   1.249 -1.7759 -1.6914  0.6593
  229MOL0     H30913   6.457   0.608   1.564 -0.0013  3.3749  1.6365
  229MOL0     H30914   6.250   1.192   1.477 -1.3800  0.6364  0.3902
  229MOL0     H30915   6.002   1.194   1.432  0.2612 -1.5699  1.4673
  230MOL0     O30916   2.165   9.962   3.190 -0.4095  0.4488 -0.7164
  230MOL0     C30917   2.213  10.048   3.261  0.6723  0.2566 -0.6702
  230MOL0     O30918   2.146  10.117   3.359  0.2790  0.0506  0.9062
  230MOL0     C30919   2.026  10.067   3.398  0.5474 -0.6987 -0.1144
  230MOL0     C30920   1.903  10.135   3.370  0.3121 -0.5863  0.3202
  230MOL0     C30921   1.791  10.072   3.423 -0.4805 -0.2549  0.3154
  230MOL0     C30922   1.787   9.957   3.499 -0.7691 -0.3402  0.3157
  230MOL0     O30923   1.677   9.893   3.543 -0.3551  0.6074  0.4718
  230MOL0     C30924   1.540   9.952   3.530  0.2998 -0.3312 -0.6465
  230MOL0     C30925   1.451   9.912   3.655 -0.4432  0.6939  0.3023
  230MOL0     C30926   1.291   9.929   3.645  0.1185 -0.4068 -0.3260
  230MOL0     C30927   1.265  10.087   3.633  0.1606 -0.0229  0.6774
  230MOL0     C30928   1.113  10.104   3.638  0.2172 -0.6793 -0.4250
  230MOL0     C30929   1.067  10.249   3.671 -0.1175 -0.6539  0.2056
  230MOL0     C30930   0.915  10.247   3.707  0.0298  0.2222  0.0493
  230MOL0     C30931   0.815  10.192   3.598 -0.3214 -0.0060 -0.1387
  230MOL0     N30932   0.804  10.286   3.483 -0.6060  0.6392 -0.5467
  230MOL0     C30933   0.900  10.293   3.386  0.3565 -0.3905  0.1394
  230MOL0     C30934   0.858  10.381   3.295 -0.1758 -0.3137 -1.2965
  230MOL0     C30935   0.931  10.412   3.162  0.2384 -0.7653  0.1798
  230MOL0     C30936   0.878  10.339   3.041 -0.1468 -0.2426 -0.1865
  230MOL0     C30937   0.926  10.408   2.916 -0.2578 -0.5740  0.3620
  230MOL0     C30938   1.078  10.443   2.914 -0.2149 -0.5258  0.5773
  230MOL0     O30939   1.113  10.568   2.978 -0.5504 -0.3603 -0.2404
  230MOL0     C30940   1.038  10.678   2.950  0.1465 -0.7833  0.4191
  230MOL0     C30941   1.000  10.776   3.038  0.0979 -0.2425 -0.3429
  230MOL0     C30942   0.916  10.885   3.005 -0.1672  0.4390 -0.3948
  230MOL0     C30943   0.908  11.001   3.103 -0.0962  0.3790 -0.2744
  230MOL0     C30944   0.857  10.895   2.877  0.8711  0.3457  0.9619
  230MOL0     C30945   0.761  11.006   2.841 -0.2121  0.3330 -0.0477
  230MOL0     O30946   0.720  10.996   2.709  0.0814  0.1309 -0.0267
  230MOL0     C30947   0.639  11.082   2.653 -0.6484  0.1210  0.0028
  230MOL0     C30948   0.622  11.217   2.677 -0.6201  0.3045  0.0799
  230MOL0     C30949   0.519  11.284   2.608  0.5006 -0.4279  0.3658
  230MOL0     C30950   0.445  11.234   2.498  0.3136 -0.4762 -0.5794
  230MOL0     O30951   0.340  11.302   2.435  0.2161  0.3494  0.1097
  230MOL0     C30952   0.280  11.241   2.319 -0.5757  0.5984 -0.8259
  230MOL0     C30953   0.161  11.313   2.271 -0.0423 -0.4626  0.4750
  230MOL0     C30954   0.044  11.309   2.374 -0.3617  0.3144  0.2118
  230MOL0     C30955   0.009  11.448   2.418  0.1756  0.7861 -0.5459
  230MOL0     C30956  -0.070  11.471   2.541 -0.3528 -0.8188 -0.0233
  230MOL0     C30957  -0.222  11.442   2.525  0.1301 -0.2741 -0.1308
  230MOL0     C30958  -0.306  11.514   2.629 -0.1645 -0.3147  0.5016
  230MOL0     C30959  -0.457  11.501   2.605  0.3785  0.1547 -0.3206
  230MOL0    Cl30960  -0.503  11.346   2.535  0.2382  0.3532 -0.6371
  230MOL0     C30961   0.477  11.102   2.466 -0.0871 -0.0032  0.1367
  230MOL0     C30962   0.561  11.030   2.551  0.2053 -0.2493  0.0217
  230MOL0     O30963   0.705  11.077   2.929  0.5246  0.5652 -0.1509
  230MOL0     C30964   0.905  10.799   2.784  0.3488  0.6760 -0.6451
  230MOL0     C30965   0.999  10.696   2.826  1.0094 -1.0617 -0.3949
  230MOL0     N30966   0.741  10.437   3.358 -0.5611 -0.0373  0.5960
  230MOL0     N30967   0.709  10.379   3.467 -0.6178 -0.1646 -0.0354
  230MOL0     C30968   1.911   9.889   3.515 -0.0423 -0.1135 -0.6833
  230MOL0     C30969   2.029   9.949   3.468  0.6499  0.5055 -0.4758
  230MOL0     C30970   2.350  10.090   3.238  1.6207 -0.5650  0.5990
  230MOL0     C30971   2.400  10.218   3.281  0.0420 -0.3273 -0.0382
  230MOL0     C30972   2.530  10.256   3.244  0.2938 -0.3461 -0.5104
  230MOL0     C30973   2.609  10.175   3.168 -0.1722 -0.1886 -0.0653
  230MOL0     O30974   2.737  10.227   3.147 -0.5269  0.5017 -0.3387
  230MOL0     C30975   2.833  10.143   3.080  0.7212  0.3091  0.2356
  230MOL0     C30976   2.910  10.058   3.183 -0.4762 -0.3837  0.9130
  230MOL0     C30977   3.012   9.969   3.109  0.3458 -0.0943  0.5786
  230MOL0     C30978   3.106   9.903   3.207  0.8051  0.3886 -0.0060
  230MOL0     C30979   3.045   9.787   3.271 -0.3887 -0.4362  0.2564
  230MOL0     C30980   3.002   9.684   3.320  1.1863 -0.7961  0.2088
  230MOL0     C30981   2.563  10.049   3.129 -0.3538 -0.0006  0.2719
  230MOL0     C30982   2.434  10.011   3.157 -0.2456  0.4727 -1.1431
  230MOL0     H30983   1.897  10.221   3.304  0.2732 -0.2411  0.7710
  230MOL0     H30984   1.694  10.114   3.399 -1.4787 -1.6173  1.7558
  230MOL0     H30985   1.540  10.059   3.506  2.8456 -0.1540 -0.1468
  230MOL0     H30986   1.493   9.895   3.449  0.0970 -0.7486 -0.2387
  230MOL0     H30987   1.465   9.804   3.661 -1.0197  0.5107 -1.1932
  230MOL0     H30988   1.494   9.959   3.744  0.1937  0.8774 -0.1059
  230MOL0     H30989   1.252   9.881   3.555  1.1838  1.4452 -1.8586
  230MOL0     H30990   1.239   9.882   3.729 -1.5470 -0.5329 -1.3972
  230MOL0     H30991   1.316  10.126   3.722  1.0856 -0.0443  0.1726
  230MOL0     H30992   1.303  10.126   3.538  0.7414 -4.9835 -1.3951
  230MOL0     H30993   1.075  10.070   3.541  0.5436 -2.2573 -0.0202
  230MOL0     H30994   1.063  10.035   3.707  0.7751  2.0677  2.9959
  230MOL0     H30995   1.124  10.279   3.759  0.3174  0.6861 -0.4907
  230MOL0     H30996   1.084  10.318   3.587 -0.1456 -0.2050  0.5675
  230MOL0     H30997   0.903  10.169   3.782  3.0439 -0.0816  0.3355
  230MOL0     H30998   0.884  10.344   3.748 -1.9006  0.0990 -0.9920
  230MOL0     H30999   0.717  10.185   3.647  0.3877  0.7520  1.4261
  230MOL0     H31000   0.852  10.091   3.583 -2.7032 -0.6301 -2.8234
  230MOL0     H31001   0.986  10.229   3.371 -0.4229 -1.2593 -0.7240
  230MOL0     H31002   0.922  10.520   3.149  0.9919 -0.5583  1.2757
  230MOL0     H31003   1.035  10.384   3.181  1.3027  2.4097 -0.3547
  230MOL0     H31004   0.769  10.344   3.037 -0.2215  0.4224  1.5865
  230MOL0     H31005   0.916  10.237   3.028  0.4484  0.1283 -1.5087
  230MOL0     H31006   0.870  10.503   2.918  1.0877  0.2843  3.2396
  230MOL0     H31007   0.907  10.338   2.835 -0.0640 -3.8321  2.9278
  230MOL0     H31008   1.121  10.447   2.813  0.7019  0.8154  0.9958
  230MOL0     H31009   1.135  10.374   2.976 -1.0809  0.2851  2.3323
  230MOL0     H31010   1.039  10.784   3.139 -1.1184 -1.3782  0.2487
  230MOL0     H31011   0.931  11.104   3.076 -0.8765  1.2490  2.0942
  230MOL0     H31012   0.809  11.004   3.151 -0.4028 -3.0902 -0.4217
  230MOL0     H31013   0.982  10.986   3.182 -1.8189  0.7167  1.4961
  230MOL0     H31014   0.676  11.272   2.753 -0.8449 -0.1061  0.5355
  230MOL0     H31015   0.509  11.382   2.654  3.7352 -1.2322  3.1697
  230MOL0     H31016   0.354  11.248   2.239 -1.2052  0.6598 -1.4071
  230MOL0     H31017   0.250  11.137   2.332  1.3346  0.2747  2.1288
  230MOL0     H31018   0.180  11.415   2.234  1.6276 -0.7629  0.4327
  230MOL0     H31019   0.130  11.258   2.182 -0.6212 -0.1161  0.4583
  230MOL0     H31020   0.059  11.240   2.458 -1.9571  0.0413  0.3065
  230MOL0     H31021  -0.038  11.267   2.315  1.2057  0.8485 -2.4997
  230MOL0     H31022   0.102  11.506   2.421  1.9439 -1.7806  3.1289
  230MOL0     H31023  -0.036  11.498   2.332  0.8659  2.8358  0.2140
  230MOL0     H31024  -0.062  11.578   2.566 -1.4838 -1.2732  2.5595
  230MOL0     H31025  -0.031  11.404   2.618 -2.6584  0.7634  2.6937
  230MOL0     H31026  -0.246  11.474   2.423  3.4050  0.3924 -0.7899
  230MOL0     H31027  -0.248  11.335   2.525  0.3084 -0.3194 -0.5089
  230MOL0     H31028  -0.290  11.622   2.618 -1.9889 -0.2573 -2.4529
  230MOL0     H31029  -0.279  11.473   2.727 -1.3205 -2.5385 -0.0390
  230MOL0     H31030  -0.498  11.578   2.540 -3.5346 -2.7885 -1.7357
  230MOL0     H31031  -0.516  11.516   2.696  0.6053 -0.8526  0.0066
  230MOL0     H31032   0.439  11.053   2.378 -1.8823  1.4205  0.0580
  230MOL0     H31033   0.591  10.929   2.524  1.9715  0.6721 -1.6900
  230MOL0     H31034   0.872  10.776   2.683 -0.9589  1.2304 -0.3661
  230MOL0     H31035   1.031  10.621   2.756  2.5100  1.2695 -2.3667
  230MOL0     H31036   1.920   9.794   3.566  0.3162 -0.7805 -1.9415
  230MOL0     H31037   2.116   9.885   3.483  0.3571  0.0596 -0.6472
  230MOL0     H31038   2.344  10.299   3.328  0.3513  1.0104 -1.8941
  230MOL0     H31039   2.561  10.353   3.282  0.1385 -0.6693  0.4746
  230MOL0     H31040   2.791  10.076   3.005  3.2258 -1.3940  0.2641
  230MOL0     H31041   2.901  10.206   3.022 -2.0061 -0.3478 -4.1367
  230MOL0     H31042   2.831   9.996   3.229 -1.3921  0.9501  1.2065
  230MOL0     H31043   2.970  10.118   3.252  2.4492 -1.2875 -0.7060
  230MOL0     H31044   3.061  10.025   3.029 -2.2043  0.0529 -0.9959
  230MOL0     H31045   2.972   9.887   3.049  2.1487  0.4930 -1.5550
  230MOL0     H31046   3.144   9.971   3.284  3.8677  0.6135 -1.5627
  230MOL0     H31047   3.196   9.868   3.155  0.4299 -0.8364  0.1245
  230MOL0     H31048   2.959   9.608   3.383  0.1428 -1.1507 -0.8705
  230MOL0     H31049   2.625   9.971   3.087 -1.4826 -0.2212 -1.0652
  230MOL0     H31050   2.405   9.918   3.109 -0.7841  0.4661 -0.8011
  231MOL0     O31051   4.007   0.244   3.550 -0.2631  0.3761 -0.7145
  231MOL0     C31052   3.992   0.328   3.637 -0.5851 -0.2439  0.7280
  231MOL0     O31053   3.893   0.318   3.738 -0.1277 -0.1875  0.0594
  231MOL0     C31054   3.814   0.212   3.729  0.1100  1.0535 -0.5965
  231MOL0     C31055   3.848   0.094   3.794 -0.1622 -0.4531  0.5939
  231MOL0     C31056   3.762  -0.023   3.775 -0.0526  0.2431  0.1424
  231MOL0     C31057   3.646  -0.015   3.701  0.0038 -0.7015  0.0842
  231MOL0     O31058   3.573  -0.138   3.698  0.9035  0.1548  1.0153
  231MOL0     C31059   3.439  -0.144   3.634  0.2112  0.4433  0.1910
  231MOL0     C31060   3.388  -0.283   3.661 -0.5871 -0.2615  0.7240
  231MOL0     C31061   3.246  -0.298   3.709  0.0973 -0.0558 -0.2974
  231MOL0     C31062   3.160  -0.352   3.591 -0.2565 -0.2530 -0.2029
  231MOL0     C31063   3.015  -0.351   3.629  0.6935 -0.2420  0.3177
  231MOL0     C31064   2.930  -0.423   3.524  0.0346 -0.2872  0.4884
  231MOL0     C31065   2.778  -0.403   3.543 -0.3021 -0.0396 -0.6692
  231MOL0     C31066   2.725  -0.474   3.663 -0.6263  0.0373  0.2041
  231MOL0     N31067   2.581  -0.458   3.683  0.6134  0.5604 -0.8710
  231MOL0     C31068   2.525  -0.345   3.722 -0.2311 -0.4323 -0.0837
  231MOL0     C31069   2.389  -0.367   3.732 -0.5896  0.2034  0.1943
  231MOL0     C31070   2.282  -0.259   3.765 -0.1572  0.5735 -0.3804
  231MOL0     C31071   2.222  -0.182   3.650 -0.5863  0.4634  0.9619
  231MOL0     C31072   2.100  -0.255   3.587 -0.4243  0.0296  0.0265
  231MOL0     C31073   2.021  -0.163   3.491 -0.3147  0.6821  0.8578
  231MOL0     O31074   1.938  -0.084   3.582  0.5568  0.0046  0.9538
  231MOL0     C31075   1.806  -0.078   3.540  0.0939  1.2887  0.0614
  231MOL0     C31076   1.712  -0.139   3.613  0.8659 -0.7909 -0.3956
  231MOL0     C31077   1.574  -0.136   3.572  0.5648 -0.4504 -0.2124
  231MOL0     C31078   1.479  -0.216   3.660  0.0351  0.3618 -0.3071
  231MOL0     C31079   1.538  -0.069   3.455  0.3877 -0.1710  0.1805
  231MOL0     C31080   1.396  -0.048   3.413  0.6283  0.8722 -0.1201
  231MOL0     O31081   1.290  -0.077   3.496 -0.5603  0.1327 -0.7190
  231MOL0     C31082   1.167  -0.037   3.452 -0.1682  1.1346  0.2110
  231MOL0     C31083   1.085  -0.106   3.355 -0.1067 -0.5108  1.0130
  231MOL0     C31084   0.957  -0.061   3.336 -0.1865 -0.0991 -0.4191
  231MOL0     C31085   0.895   0.044   3.413 -0.1088 -0.0078  0.0178
  231MOL0     O31086   0.755   0.062   3.407 -1.0801  0.0039 -0.1257
  231MOL0     C31087   0.691   0.171   3.465  0.1263 -1.0366 -0.5539
  231MOL0     C31088   0.556   0.190   3.411 -0.8166 -0.5856  0.3488
  231MOL0     C31089   0.564   0.243   3.267 -0.3178  0.0192 -0.7753
  231MOL0     C31090   0.429   0.266   3.203  0.1910  0.2867  0.0766
  231MOL0     C31091   0.448   0.357   3.074 -0.6598  0.6505  0.0463
  231MOL0     C31092   0.308   0.394   3.020 -0.1193  0.2502 -0.5528
  231MOL0     C31093   0.221   0.275   2.967  0.2184  0.5438 -0.3958
  231MOL0     C31094   0.287   0.165   2.898 -0.3910  0.4187  1.2600
  231MOL0    Cl31095   0.295   0.213   2.721  0.2542 -0.1209  0.5927
  231MOL0     C31096   0.981   0.117   3.500  0.1363 -0.7818  0.7006
  231MOL0     C31097   1.113   0.071   3.522  0.2171 -0.6819  0.5680
  231MOL0     O31098   1.380   0.001   3.301 -0.5846  0.3244  0.0285
  231MOL0     C31099   1.641   0.002   3.389 -0.7148  0.0954  0.1008
  231MOL0     C31100   1.779  -0.006   3.431  0.8297  0.1902  0.2718
  231MOL0     N31101   2.363  -0.493   3.688  0.2799 -0.1191  0.4821
  231MOL0     N31102   2.476  -0.550   3.656 -0.5193  0.0225 -0.5018
  231MOL0     C31103   3.602   0.117   3.653 -0.2350  0.2027  0.2303
  231MOL0     C31104   3.690   0.228   3.667  0.2289  0.2177 -0.1759
  231MOL0     C31105   4.085   0.448   3.643  0.2517  0.3491 -0.7222
  231MOL0     C31106   4.047   0.566   3.715 -0.9374  1.0267 -0.3547
  231MOL0     C31107   4.138   0.676   3.726 -0.1237  0.0796  0.3884
  231MOL0     C31108   4.264   0.670   3.665 -0.2474 -0.0175  0.9208
  231MOL0     O31109   4.358   0.777   3.687  0.4856 -0.1867 -0.4131
  231MOL0     C31110   4.463   0.798   3.579  1.1442  0.5928 -0.8279
  231MOL0     C31111   4.409   0.799   3.435  0.3988 -0.8263 -0.0167
  231MOL0     C31112   4.485   0.918   3.360  0.0148  1.1796  0.0518
  231MOL0     C31113   4.563   0.853   3.232 -0.2231  0.3892  0.3338
  231MOL0     C31114   4.693   0.794   3.264  0.3810 -0.2513 -0.8928
  231MOL0     C31115   4.804   0.742   3.290  0.3672 -0.2952  0.3313
  231MOL0     C31116   4.295   0.558   3.595  0.0138  0.3438 -0.8623
  231MOL0     C31117   4.211   0.444   3.590 -0.1230  0.1926 -0.1363
  231MOL0     H31118   3.938   0.085   3.854 -0.3295 -2.3230  0.6267
  231MOL0     H31119   3.796  -0.111   3.828 -0.8662  0.3258  0.8263
  231MOL0     H31120   3.366  -0.074   3.676 -0.7791  0.0505 -0.8073
  231MOL0     H31121   3.451  -0.108   3.532  0.0478 -0.7213 -0.2561
  231MOL0     H31122   3.390  -0.348   3.573 -3.0613  0.2659  0.1947
  231MOL0     H31123   3.451  -0.329   3.738  1.0697  1.4214  0.4472
  231MOL0     H31124   3.226  -0.377   3.782 -3.3899 -3.2151 -4.1716
  231MOL0     H31125   3.208  -0.203   3.747 -0.2896 -0.6561  0.8752
  231MOL0     H31126   3.171  -0.286   3.505 -0.3673  1.3970  0.9858
  231MOL0     H31127   3.175  -0.458   3.569  2.0352  0.4544 -2.5573
  231MOL0     H31128   2.993  -0.395   3.727 -1.1121  1.9171  0.9689
  231MOL0     H31129   2.988  -0.245   3.630  1.1771 -0.0706 -1.6461
  231MOL0     H31130   2.960  -0.378   3.428 -0.8263 -0.7512 -0.0111
  231MOL0     H31131   2.952  -0.529   3.541 -1.9287 -0.2489  4.2683
  231MOL0     H31132   2.756  -0.296   3.556  0.3834 -0.1077  1.4330
  231MOL0     H31133   2.720  -0.441   3.459 -0.6212  0.7393 -0.8158
  231MOL0     H31134   2.778  -0.442   3.753  1.3526 -1.5524 -0.3137
  231MOL0     H31135   2.754  -0.579   3.651 -2.2637 -0.4383  0.2644
  231MOL0     H31136   2.572  -0.247   3.734 -3.5396  1.4277 -1.1866
  231MOL0     H31137   2.207  -0.304   3.831 -1.8256  1.8018 -1.3622
  231MOL0     H31138   2.335  -0.188   3.828  0.1243 -0.6387  0.7836
  231MOL0     H31139   2.300  -0.164   3.575 -0.8808 -1.2029  0.1830
  231MOL0     H31140   2.193  -0.080   3.676 -1.7684  0.6121 -0.7613
  231MOL0     H31141   2.044  -0.285   3.676  0.0718  1.2603  0.7804
  231MOL0     H31142   2.137  -0.345   3.538  1.9214  0.0860  1.5587
  231MOL0     H31143   1.965  -0.225   3.420  1.9746  0.6481 -1.0571
  231MOL0     H31144   2.076  -0.101   3.420 -0.7087  0.6949  0.5614
  231MOL0     H31145   1.736  -0.185   3.709 -3.1390  1.3222  1.8910
  231MOL0     H31146   1.402  -0.162   3.715  1.0488  2.0064 -0.4546
  231MOL0     H31147   1.432  -0.283   3.587 -0.3969  1.1319 -0.7456
  231MOL0     H31148   1.529  -0.281   3.733 -1.7449 -0.8921 -0.1357
  231MOL0     H31149   1.111  -0.201   3.310 -2.1079 -0.7944  0.3425
  231MOL0     H31150   0.902  -0.121   3.264 -0.3190  0.2294 -0.5927
  231MOL0     H31151   0.694   0.168   3.574 -0.2556 -3.5756 -0.5667
  231MOL0     H31152   0.741   0.267   3.448 -2.7329  0.6233 -0.2294
  231MOL0     H31153   0.510   0.091   3.413  0.7419 -1.3373  1.0082
  231MOL0     H31154   0.489   0.259   3.464  0.9873  0.8534  0.8674
  231MOL0     H31155   0.633   0.179   3.211 -0.2165 -1.9572  1.4579
  231MOL0     H31156   0.612   0.341   3.258  1.4320 -0.8192 -0.9195
  231MOL0     H31157   0.375   0.172   3.188 -1.8557  1.6623 -2.0837
  231MOL0     H31158   0.367   0.318   3.277  2.5827 -1.6633  3.7008
  231MOL0     H31159   0.496   0.295   2.998 -3.4044 -1.7281  0.0595
  231MOL0     H31160   0.513   0.443   3.090  1.9443 -1.4424  1.5577
  231MOL0     H31161   0.245   0.443   3.095 -0.6071  0.7821 -1.2881
  231MOL0     H31162   0.337   0.464   2.942  4.6162  0.4437  1.0641
  231MOL0     H31163   0.140   0.312   2.903  2.3076  1.3136 -2.7804
  231MOL0     H31164   0.169   0.225   3.049 -0.5859  3.9718  1.3507
  231MOL0     H31165   0.233   0.070   2.900  0.1279  0.1257  1.4373
  231MOL0     H31166   0.386   0.138   2.936  0.5608  0.8158 -0.7753
  231MOL0     H31167   0.941   0.207   3.546  0.3812 -0.7103  0.7721
  231MOL0     H31168   1.178   0.128   3.587 -0.4824 -0.0567  0.7353
  231MOL0     H31169   1.613   0.071   3.310 -3.1511 -0.5040  0.3454
  231MOL0     H31170   1.859   0.055   3.390  0.2024 -0.3551 -1.9077
  231MOL0     H31171   3.509   0.131   3.598  1.2901  1.3145 -2.2417
  231MOL0     H31172   3.664   0.324   3.622 -1.1748 -0.3644 -0.6634
  231MOL0     H31173   3.949   0.554   3.761 -0.7904  0.5244 -0.1775
  231MOL0     H31174   4.099   0.761   3.782 -1.2923  1.9696 -2.9717
  231MOL0     H31175   4.515   0.890   3.608  0.2016  0.5015  1.3610
  231MOL0     H31176   4.542   0.723   3.585 -0.3643 -0.9654  0.7388
  231MOL0     H31177   4.300   0.813   3.442  0.1616 -0.6395 -2.9919
  231MOL0     H31178   4.432   0.700   3.396  0.6664 -1.3175  1.3427
  231MOL0     H31179   4.551   0.985   3.417  0.9288 -0.1035  0.5485
  231MOL0     H31180   4.410   0.978   3.308  1.4418  1.4309 -1.8678
  231MOL0     H31181   4.590   0.931   3.160  0.9876 -0.7698 -0.5190
  231MOL0     H31182   4.499   0.784   3.177  1.8560 -1.3707  0.0004
  231MOL0     H31183   4.898   0.712   3.331  0.2578  0.8823  1.5038
  231MOL0     H31184   4.394   0.553   3.551  1.5202  3.6396  1.6570
  231MOL0     H31185   4.237   0.351   3.540 -3.3580  0.1873 -2.0801
  232MOL0     O31186  10.120   2.442   7.567 -0.7509  0.2728 -0.0051
  232MOL0     C31187  10.175   2.375   7.478  0.1230 -0.3440 -0.3391
  232MOL0     O31188  10.147   2.250   7.444  0.5260  0.0051  0.0244
  232MOL0     C31189  10.045   2.180   7.507 -0.3823  0.3246  0.2194
  232MOL0     C31190   9.925   2.238   7.550 -1.0944 -0.2851  0.1893
  232MOL0     C31191   9.839   2.178   7.637 -0.3835 -0.2278  0.0405
  232MOL0     C31192   9.864   2.047   7.684 -0.8735 -0.1554  0.7416
  232MOL0     O31193   9.775   1.979   7.766 -0.4480 -0.1989  0.1796
  232MOL0     C31194   9.682   2.062   7.839 -0.9180 -0.7512  0.9282
  232MOL0     C31195   9.598   1.991   7.942 -0.5981 -0.0881 -0.5324
  232MOL0     C31196   9.502   1.905   7.859 -0.2114 -0.3171  0.0027
  232MOL0     C31197   9.406   1.828   7.947 -0.3226  0.8177  0.9394
  232MOL0     C31198   9.320   1.717   7.876  0.5942  0.1990 -0.2652
  232MOL0     C31199   9.222   1.652   7.974 -0.7479  0.1569  0.2683
  232MOL0     C31200   9.120   1.554   7.907  0.1464  0.1428  0.4477
  232MOL0     C31201   9.008   1.538   8.015  0.0799  0.0004 -0.5138
  232MOL0     N31202   8.899   1.470   7.955  0.9546 -0.1182 -0.2438
  232MOL0     C31203   8.785   1.531   7.901 -0.3876 -0.0264 -0.3562
  232MOL0     C31204   8.706   1.423   7.881 -0.2558 -0.3349  0.3616
  232MOL0     C31205   8.567   1.429   7.822 -1.2190 -0.8675 -0.4691
  232MOL0     C31206   8.480   1.528   7.897 -0.2409  0.7489  0.1868
  232MOL0     C31207   8.454   1.488   8.045 -0.4779 -0.5811 -0.6854
  232MOL0     C31208   8.302   1.504   8.079  0.3439 -1.0542  0.1356
  232MOL0     O31209   8.249   1.621   8.014 -0.4976 -0.0230  0.2852
  232MOL0     C31210   8.109   1.617   8.010  0.2549 -0.1844  0.0977
  232MOL0     C31211   8.043   1.705   7.917 -0.0846  0.6550 -0.8682
  232MOL0     C31212   7.902   1.712   7.912 -0.7933  0.4370  0.1154
  232MOL0     C31213   7.854   1.819   7.819  0.2897  0.1061 -0.6329
  232MOL0     C31214   7.822   1.634   8.000 -0.2788 -0.5837  0.4712
  232MOL0     C31215   7.676   1.630   7.989 -1.0621 -0.0723  0.1085
  232MOL0     O31216   7.605   1.559   8.078  0.4713 -0.7046  0.0255
  232MOL0     C31217   7.471   1.562   8.095  0.1372  0.1242 -0.1369
  232MOL0     C31218   7.411   1.450   8.152  0.3155  0.7831  0.8038
  232MOL0     C31219   7.274   1.449   8.178  0.5017  0.9986 -0.6505
  232MOL0     C31220   7.187   1.547   8.155 -0.3350 -0.6582 -0.7587
  232MOL0     O31221   7.054   1.528   8.179  0.0543 -0.6190  0.7739
  232MOL0     C31222   6.981   1.636   8.242 -0.0189 -0.3066  0.0798
  232MOL0     C31223   6.845   1.595   8.291  0.4774 -0.3189 -0.3844
  232MOL0     C31224   6.835   1.472   8.379  0.2353  0.2696 -0.4565
  232MOL0     C31225   6.694   1.449   8.439 -0.2610 -0.0291  1.0023
  232MOL0     C31226   6.676   1.316   8.515  0.4679  0.6648  0.7494
  232MOL0     C31227   6.740   1.314   8.656 -0.4132  0.0460 -0.2077
  232MOL0     C31228   6.795   1.176   8.694  1.2509 -0.3444 -0.0569
  232MOL0     C31229   6.944   1.163   8.645  0.9971 -0.2780 -1.1619
  232MOL0    Cl31230   7.057   1.253   8.753  0.2987  0.0361  0.3931
  232MOL0     C31231   7.238   1.660   8.096  0.4866 -0.0051 -0.0792
  232MOL0     C31232   7.380   1.668   8.069 -0.1963  0.6544  0.9711
  232MOL0     O31233   7.626   1.691   7.891  0.9428 -0.0312  0.6702
  232MOL0     C31234   7.890   1.550   8.093  0.7257  0.1965 -0.6309
  232MOL0     C31235   8.026   1.540   8.094  0.3281 -0.3050 -0.0570
  232MOL0     N31236   8.765   1.306   7.927  0.6379 -0.2141 -0.3407
  232MOL0     N31237   8.878   1.337   7.976  0.1766 -0.3112  0.1188
  232MOL0     C31238   9.981   1.983   7.640  0.4632  0.1408 -0.0641
  232MOL0     C31239  10.071   2.049   7.551  0.4106  0.0870 -0.3261
  232MOL0     C31240  10.294   2.438   7.407 -0.7773 -0.5340 -0.5212
  232MOL0     C31241  10.372   2.363   7.321 -0.7443  0.2438  0.1981
  232MOL0     C31242  10.475   2.435   7.245 -0.9520 -0.1183 -0.5835
  232MOL0     C31243  10.507   2.569   7.269  0.5405  0.1398 -0.0179
  232MOL0     O31244  10.596   2.646   7.215 -0.3696 -1.1385  0.3157
  232MOL0     C31245  10.713   2.578   7.178  0.3889 -0.3218  0.6740
  232MOL0     C31246  10.807   2.690   7.116  1.0460  0.1521  0.5651
  232MOL0     C31247  10.950   2.639   7.102 -0.4697 -0.4914  0.2042
  232MOL0     C31248  11.048   2.750   7.047  0.0029 -0.5919 -0.4564
  232MOL0     C31249  11.101   2.824   7.161 -0.6457 -1.0193 -1.2722
  232MOL0     C31250  11.139   2.888   7.255 -0.0998 -1.1128  0.4108
  232MOL0     C31251  10.433   2.636   7.366  1.1333 -0.2976  0.6582
  232MOL0     C31252  10.323   2.565   7.424 -0.4704 -1.2353  0.3935
  232MOL0     H31253   9.905   2.342   7.526 -1.4794 -0.4620 -0.2699
  232MOL0     H31254   9.757   2.243   7.668 -1.1111 -1.6124  1.1848
  232MOL0     H31255   9.731   2.143   7.894 -0.7948  1.3642 -2.0325
  232MOL0     H31256   9.615   2.112   7.768 -0.1019  0.5971  1.0836
  232MOL0     H31257   9.655   1.927   8.010  2.7316  0.4044 -2.6332
  232MOL0     H31258   9.535   2.066   7.992 -0.9766  0.2762 -1.5232
  232MOL0     H31259   9.453   1.965   7.783 -1.0504 -0.5523  0.3439
  232MOL0     H31260   9.562   1.823   7.818 -2.0464 -3.1607  2.5485
  232MOL0     H31261   9.474   1.783   8.020 -0.2568 -0.6523 -0.0025
  232MOL0     H31262   9.334   1.900   7.988 -2.1761 -1.4253  1.9136
  232MOL0     H31263   9.258   1.763   7.799  1.5398 -0.5515 -1.5293
  232MOL0     H31264   9.389   1.639   7.843  2.1041  1.2799  0.2108
  232MOL0     H31265   9.282   1.607   8.054  1.5504  1.6558 -0.5303
  232MOL0     H31266   9.178   1.728   8.040  0.2727 -0.4528  1.6990
  232MOL0     H31267   9.089   1.590   7.809  3.0484  2.3182  0.1970
  232MOL0     H31268   9.165   1.456   7.889 -0.0391  0.2658 -0.7481
  232MOL0     H31269   8.973   1.632   8.060 -1.0979 -0.2123 -0.9573
  232MOL0     H31270   9.037   1.469   8.095 -3.1051  0.2586  1.0090
  232MOL0     H31271   8.778   1.637   7.879 -0.6194  0.0349  0.0079
  232MOL0     H31272   8.567   1.453   7.715 -3.5852  0.5718 -0.2248
  232MOL0     H31273   8.524   1.329   7.836 -1.2030 -0.7397  0.5400
  232MOL0     H31274   8.380   1.519   7.854 -0.6517 -0.8824  1.3748
  232MOL0     H31275   8.518   1.630   7.910 -1.3091  1.7133 -3.2630
  232MOL0     H31276   8.512   1.555   8.109 -2.9685  0.2715  0.8264
  232MOL0     H31277   8.483   1.385   8.065 -1.6832 -0.8761 -0.3641
  232MOL0     H31278   8.300   1.516   8.188  2.5000  2.0631 -0.0179
  232MOL0     H31279   8.252   1.418   8.035 -3.0010 -0.9414  3.2803
  232MOL0     H31280   8.097   1.762   7.842  0.8165  0.9925  0.0041
  232MOL0     H31281   7.934   1.883   7.779  2.2782 -1.3615  0.7699
  232MOL0     H31282   7.815   1.771   7.729 -0.1498  4.3537 -2.9863
  232MOL0     H31283   7.777   1.887   7.855 -0.3948 -0.3718 -1.1661
  232MOL0     H31284   7.480   1.369   8.172  0.2426  0.6449  0.5067
  232MOL0     H31285   7.232   1.355   8.213  1.4067  0.2146 -1.5951
  232MOL0     H31286   7.027   1.680   8.331 -1.0647 -1.8530  1.4407
  232MOL0     H31287   6.967   1.708   8.161 -1.0226 -3.3455 -2.6781
  232MOL0     H31288   6.811   1.685   8.344  1.8481  1.9974 -3.1683
  232MOL0     H31289   6.774   1.580   8.209  0.0094 -1.4374  0.2096
  232MOL0     H31290   6.912   1.481   8.456  1.7379  0.6322 -1.9401
  232MOL0     H31291   6.857   1.388   8.313 -0.3642 -1.5744  1.5425
  232MOL0     H31292   6.658   1.530   8.502 -1.6327  0.6082 -0.5348
  232MOL0     H31293   6.626   1.466   8.355 -3.5773  2.5869  3.9120
  232MOL0     H31294   6.728   1.243   8.453  2.0523  1.0967  1.4964
  232MOL0     H31295   6.571   1.288   8.514  0.4657  0.4588 -2.3205
  232MOL0     H31296   6.818   1.390   8.662 -2.2477  1.8934  2.0544
  232MOL0     H31297   6.670   1.341   8.736 -1.6013  0.6609 -1.4190
  232MOL0     H31298   6.727   1.101   8.650  1.4453 -0.1341 -0.7249
  232MOL0     H31299   6.796   1.152   8.801 -0.3842  0.2248  0.1200
  232MOL0     H31300   6.956   1.196   8.541  1.2049 -0.8642 -1.3289
  232MOL0     H31301   6.979   1.059   8.640  1.5985 -0.0759 -1.2736
  232MOL0     H31302   7.174   1.744   8.069  0.5107  0.9177  2.4714
  232MOL0     H31303   7.413   1.765   8.033  3.2958 -0.4995  0.6644
  232MOL0     H31304   7.831   1.493   8.163  0.0337  0.8939 -0.6305
  232MOL0     H31305   8.067   1.482   8.176  0.2540  1.3599  1.1958
  232MOL0     H31306  10.011   1.884   7.674  0.0292 -0.6706 -1.9595
  232MOL0     H31307  10.159   1.998   7.514  0.3287 -2.2203  2.2616
  232MOL0     H31308  10.357   2.257   7.302  0.1231  0.0321  0.6357
  232MOL0     H31309  10.531   2.372   7.176 -1.8936 -0.7441 -0.7918
  232MOL0     H31310  10.763   2.537   7.267 -0.6752  0.1751  1.5239
  232MOL0     H31311  10.685   2.502   7.105 -2.1305  0.0158  1.2040
  232MOL0     H31312  10.799   2.784   7.172  1.6362  0.2546  0.4781
  232MOL0     H31313  10.767   2.721   7.019 -2.0424  0.5996  1.8282
  232MOL0     H31314  10.951   2.556   7.031 -0.4892  0.5652 -1.0606
  232MOL0     H31315  10.973   2.603   7.203 -1.7724 -0.4276  0.5385
  232MOL0     H31316  11.005   2.829   6.986  1.4551  1.0369  0.5400
  232MOL0     H31317  11.133   2.706   6.994  4.3833  0.4153  4.8746
  232MOL0     H31318  11.180   2.920   7.349 -0.1145 -1.0765  0.4051
  232MOL0     H31319  10.440   2.743   7.380  2.3621 -0.3201  0.3060
  232MOL0     H31320  10.291   2.628   7.507 -1.3326 -3.0108  1.4544
  233MOL0     O31321   9.735   8.657   2.126  0.4066 -0.1473  0.1346
  233MOL0     C31322   9.705   8.775   2.112 -0.3698 -0.3592 -0.7693
  233MOL0     O31323   9.592   8.827   2.141 -0.0533  0.3223 -0.2197
  233MOL0     C31324   9.480   8.752   2.187  0.2202  0.6913  0.0996
  233MOL0     C31325   9.373   8.836   2.221  0.5502  0.5098 -0.0148
  233MOL0     C31326   9.252   8.775   2.272  0.3456 -0.6119 -0.0079
  233MOL0     C31327   9.241   8.636   2.296  0.3576 -0.0597 -0.2446
  233MOL0     O31328   9.133   8.577   2.369  0.1385 -0.4919  0.1551
  233MOL0     C31329   9.006   8.640   2.367 -0.1288 -0.4476 -0.3417
  233MOL0     C31330   8.911   8.545   2.432  0.3443 -0.9775  0.3951
  233MOL0     C31331   8.796   8.613   2.507  0.7556 -0.0116 -0.0709
  233MOL0     C31332   8.683   8.641   2.403  0.1959 -0.1648  0.4217
  233MOL0     C31333   8.546   8.676   2.470 -0.4210  0.5224  0.7223
  233MOL0     C31334   8.539   8.816   2.533 -0.0090  0.2922 -0.5783
  233MOL0     C31335   8.403   8.844   2.612  0.1524  0.5808  0.7991
  233MOL0     C31336   8.264   8.794   2.546 -0.1016 -1.2628  0.3689
  233MOL0     N31337   8.147   8.872   2.584  0.9961  0.3828 -0.3986
  233MOL0     C31338   8.038   8.893   2.495 -0.4980 -0.3895  0.0530
  233MOL0     C31339   7.937   8.943   2.567 -0.2177  0.3166  0.2124
  233MOL0     C31340   7.805   8.990   2.503  0.5318 -0.5718  0.0265
  233MOL0     C31341   7.697   9.041   2.596  0.4432 -0.0721  0.5029
  233MOL0     C31342   7.569   9.048   2.507 -0.5087 -0.1863 -0.3232
  233MOL0     C31343   7.458   9.104   2.589  0.5409 -0.1347 -0.2174
  233MOL0     O31344   7.342   9.053   2.529  0.5201 -0.4787  0.4424
  233MOL0     C31345   7.230   9.035   2.611 -0.5231 -0.3725  0.1002
  233MOL0     C31346   7.148   8.934   2.577 -0.0341  0.3703  0.1021
  233MOL0     C31347   7.017   8.913   2.623 -0.2549  0.0553 -0.1784
  233MOL0     C31348   6.948   8.796   2.556  0.6975  0.3068  0.2049
  233MOL0     C31349   6.972   8.989   2.735 -0.5423  0.1532  0.6880
  233MOL0     C31350   6.829   8.983   2.788 -0.5220  0.0728 -0.3724
  233MOL0     O31351   6.737   8.905   2.726 -0.3962  0.5348  0.5783
  233MOL0     C31352   6.608   8.927   2.758  0.2611  0.1581  0.0826
  233MOL0     C31353   6.539   8.879   2.868  0.1692 -0.5430  0.5025
  233MOL0     C31354   6.407   8.909   2.882  0.4466  0.0295  0.5935
  233MOL0     C31355   6.335   8.985   2.784  0.0212 -0.1834 -0.0135
  233MOL0     O31356   6.209   9.029   2.810 -0.4878  0.4531 -0.0109
  233MOL0     C31357   6.109   8.928   2.805 -0.0614  0.8344  0.0852
  233MOL0     C31358   6.041   8.944   2.665 -0.6514 -0.2072  0.1209
  233MOL0     C31359   5.913   8.857   2.662 -0.6804  0.1052  0.0172
  233MOL0     C31360   5.939   8.713   2.627 -0.2206 -0.2739 -0.5082
  233MOL0     C31361   5.815   8.622   2.606 -0.2740 -0.2964  0.1913
  233MOL0     C31362   5.860   8.473   2.607  0.1863 -0.2429 -0.4712
  233MOL0     C31363   5.993   8.453   2.536 -0.2239 -0.1116 -1.2985
  233MOL0     C31364   6.005   8.304   2.501  0.2606  0.0317 -0.7917
  233MOL0    Cl31365   5.898   8.252   2.366  0.3280  0.1210 -0.3586
  233MOL0     C31366   6.399   9.005   2.661  0.5845  0.2289 -0.1029
  233MOL0     C31367   6.537   8.981   2.651  0.5024  0.2316  0.0576
  233MOL0     O31368   6.806   9.052   2.887 -0.0346  0.6048 -0.0284
  233MOL0     C31369   7.067   9.083   2.787  0.8418 -0.0925  0.1638
  233MOL0     C31370   7.188   9.106   2.726 -0.2296  0.1763 -0.2151
  233MOL0     N31371   7.983   8.958   2.697 -0.0338 -0.0727 -0.1917
  233MOL0     N31372   8.107   8.915   2.708 -0.0414 -0.0755 -0.4435
  233MOL0     C31373   9.345   8.558   2.254  0.1194 -0.4938  0.4062
  233MOL0     C31374   9.461   8.613   2.198  0.4833  0.3807  0.4152
  233MOL0     C31375   9.809   8.864   2.053 -0.1166  0.1230  0.1960
  233MOL0     C31376   9.906   8.805   1.975  0.6041 -0.0846  0.1818
  233MOL0     C31377  10.000   8.878   1.907  0.4850 -0.6518  0.3989
  233MOL0     C31378   9.983   9.015   1.887  0.0060  0.1533  0.0007
  233MOL0     O31379  10.050   9.071   1.789 -0.6868 -0.2966  0.0726
  233MOL0     C31380  10.038   9.215   1.769  1.1214  0.0768 -0.4569
  233MOL0     C31381  10.105   9.272   1.645 -1.0494 -0.5229 -0.4568
  233MOL0     C31382  10.260   9.249   1.639 -0.0021  0.2908 -0.3058
  233MOL0     C31383  10.308   9.269   1.499 -0.1644  0.0662 -0.0667
  233MOL0     C31384  10.443   9.310   1.499 -0.0968 -0.5228  1.0927
  233MOL0     C31385  10.560   9.340   1.519  0.3453  0.0484  0.4157
  233MOL0     C31386   9.889   9.084   1.967  0.1728 -0.8832 -0.5605
  233MOL0     C31387   9.808   9.003   2.054  0.5971 -0.0124  0.4984
  233MOL0     H31388   9.387   8.943   2.210  0.7576  0.6858  1.6496
  233MOL0     H31389   9.174   8.846   2.298  0.5295 -0.1876 -0.5749
  233MOL0     H31390   9.015   8.735   2.421  1.1191 -2.2767  2.9559
  233MOL0     H31391   8.979   8.658   2.262 -3.2024 -2.9794 -0.1580
  233MOL0     H31392   8.873   8.470   2.362 -0.5461 -0.5370  0.3875
  233MOL0     H31393   8.973   8.483   2.497  0.5636 -0.3718  0.7723
  233MOL0     H31394   8.772   8.548   2.592 -1.4656 -2.7356 -2.5969
  233MOL0     H31395   8.831   8.705   2.555  0.8205  1.1366 -2.2240
  233MOL0     H31396   8.728   8.722   2.345 -0.8081  0.6081  0.7000
  233MOL0     H31397   8.656   8.556   2.339 -2.5552  0.8177  0.1519
  233MOL0     H31398   8.475   8.683   2.388  1.0600  0.0672 -0.6385
  233MOL0     H31399   8.522   8.596   2.541  0.7703 -1.0059 -0.5408
  233MOL0     H31400   8.627   8.818   2.598  0.1513  0.8745 -0.8198
  233MOL0     H31401   8.546   8.891   2.455 -2.6552  0.4170 -0.8005
  233MOL0     H31402   8.420   8.805   2.713  0.0975 -1.7251 -0.0156
  233MOL0     H31403   8.390   8.952   2.619 -0.5774  0.4277  2.1261
  233MOL0     H31404   8.253   8.686   2.562 -0.2848 -1.1314  1.1428
  233MOL0     H31405   8.274   8.806   2.437 -0.4628 -0.1720  0.4457
  233MOL0     H31406   8.038   8.869   2.389  1.0536  2.3706 -0.6785
  233MOL0     H31407   7.829   9.077   2.441 -0.2825  1.1615  1.9871
  233MOL0     H31408   7.767   8.912   2.438 -0.1904 -0.5606  0.4176
  233MOL0     H31409   7.716   9.139   2.642  0.2833  1.4025 -2.3650
  233MOL0     H31410   7.674   8.968   2.674 -1.0909 -0.8905 -0.6744
  233MOL0     H31411   7.545   8.943   2.490 -0.9999  0.0450 -1.0911
  233MOL0     H31412   7.594   9.102   2.416  1.0879  0.2184  0.3149
  233MOL0     H31413   7.465   9.213   2.581 -3.4517  0.2140 -0.9644
  233MOL0     H31414   7.465   9.070   2.693  2.4750 -0.9405 -0.5796
  233MOL0     H31415   7.173   8.871   2.491 -1.6090  1.3484 -1.1155
  233MOL0     H31416   6.870   8.747   2.615 -0.6671  1.4536 -0.5759
  233MOL0     H31417   6.912   8.846   2.465  3.9392  0.7049 -1.0051
  233MOL0     H31418   7.024   8.724   2.525  1.7446  1.4735 -0.0301
  233MOL0     H31419   6.592   8.828   2.948 -0.7274 -0.7703  0.9622
  233MOL0     H31420   6.361   8.883   2.976 -0.6483  0.3051  0.1479
  233MOL0     H31421   6.144   8.825   2.817  3.6770  1.3548 -3.8388
  233MOL0     H31422   6.041   8.946   2.888  1.9966  0.0616  2.0453
  233MOL0     H31423   6.007   9.048   2.668 -0.5008 -0.1709  0.6629
  233MOL0     H31424   6.100   8.929   2.575  0.6208 -1.7071  1.1547
  233MOL0     H31425   5.855   8.910   2.586 -3.0484  1.0099  2.3277
  233MOL0     H31426   5.859   8.858   2.757 -4.2396  2.2359 -1.8165
  233MOL0     H31427   5.996   8.711   2.533 -1.1741  1.8027 -1.1963
  233MOL0     H31428   5.994   8.671   2.712  0.4214 -0.4338 -0.9964
  233MOL0     H31429   5.770   8.644   2.508 -2.0720 -0.0607  1.0282
  233MOL0     H31430   5.748   8.651   2.687  2.6872  2.4531  1.9060
  233MOL0     H31431   5.866   8.438   2.711  2.4358 -4.3842 -1.7642
  233MOL0     H31432   5.779   8.420   2.558  0.8331 -2.7223  0.9681
  233MOL0     H31433   6.057   8.488   2.616 -2.3889  2.4891 -0.5432
  233MOL0     H31434   6.013   8.503   2.441 -1.5731  0.6946 -1.1888
  233MOL0     H31435   5.973   8.254   2.592  0.6144 -0.4302 -0.9184
  233MOL0     H31436   6.112   8.286   2.485  1.6967  3.1636  3.4416
  233MOL0     H31437   6.349   9.048   2.575  0.2132 -0.1791 -0.0947
  233MOL0     H31438   6.593   8.999   2.560 -2.0543  1.5474 -1.3684
  233MOL0     H31439   7.032   9.145   2.869 -0.0387  0.6567 -0.7484
  233MOL0     H31440   7.248   9.183   2.772 -0.1938  0.9340 -1.4686
  233MOL0     H31441   9.334   8.451   2.264 -1.2707 -0.2363  1.9921
  233MOL0     H31442   9.533   8.539   2.164 -1.1524 -0.6700 -0.9331
  233MOL0     H31443   9.906   8.697   1.971  1.1355 -0.0855 -3.6113
  233MOL0     H31444  10.078   8.844   1.840 -0.2316  1.6009 -1.7327
  233MOL0     H31445   9.933   9.247   1.765  1.0867 -0.0667 -0.6846
  233MOL0     H31446  10.087   9.267   1.851  2.2336  1.5681 -1.9946
  233MOL0     H31447  10.086   9.380   1.646 -0.3597 -0.3440 -2.1417
  233MOL0     H31448  10.050   9.231   1.559 -1.3454  0.2421 -0.6450
  233MOL0     H31449  10.277   9.147   1.673 -1.1020  0.1292 -0.2276
  233MOL0     H31450  10.318   9.292   1.722  0.4838 -4.4172  2.1212
  233MOL0     H31451  10.254   9.355   1.457  0.5768  1.5044  1.8142
  233MOL0     H31452  10.281   9.176   1.447 -1.0011 -0.8044  1.8307
  233MOL0     H31453  10.657   9.371   1.551  0.3519  0.7784 -0.2810
  233MOL0     H31454   9.861   9.188   1.957 -3.2132 -1.6458 -0.0297
  233MOL0     H31455   9.731   9.057   2.107  1.9158  1.5445  0.8944
  234MOL0     O31456   6.471   6.032   5.084  0.1864  0.6339 -0.3791
  234MOL0     C31457   6.534   6.133   5.107  0.3920  0.4420 -0.3531
  234MOL0     O31458   6.498   6.221   5.203 -0.1194 -0.1053  0.1455
  234MOL0     C31459   6.387   6.198   5.283 -0.1463  0.1369 -0.0026
  234MOL0     C31460   6.261   6.178   5.237  0.2570 -0.4201  0.0178
  234MOL0     C31461   6.146   6.179   5.318 -0.5157 -0.5009 -0.5724
  234MOL0     C31462   6.163   6.201   5.450 -0.4299  0.1411  0.3972
  234MOL0     O31463   6.048   6.218   5.526  0.3566  0.1814 -0.3081
  234MOL0     C31464   6.047   6.152   5.653  0.5738 -0.1194 -0.0291
  234MOL0     C31465   5.899   6.124   5.686  0.3169  0.2509  0.5049
  234MOL0     C31466   5.805   6.239   5.707  0.2784  0.5487  0.1526
  234MOL0     C31467   5.666   6.201   5.674  0.3615 -0.0063  1.0958
  234MOL0     C31468   5.564   6.321   5.687 -0.7521  0.2871 -0.0014
  234MOL0     C31469   5.531   6.362   5.836 -0.1392  0.0138 -0.8706
  234MOL0     C31470   5.429   6.263   5.882  0.6296  0.3611  0.7827
  234MOL0     C31471   5.404   6.272   6.029 -0.0849  0.4110 -0.0983
  234MOL0     N31472   5.298   6.187   6.079 -0.5675 -1.1121  0.5797
  234MOL0     C31473   5.172   6.202   6.028  0.2192  1.2305 -0.3748
  234MOL0     C31474   5.109   6.076   6.043 -0.2295  0.4742 -0.4121
  234MOL0     C31475   4.973   6.052   5.970 -0.5873 -0.4559  0.6254
  234MOL0     C31476   4.867   5.979   6.056 -0.5957  0.6417  0.3613
  234MOL0     C31477   4.795   6.062   6.163  1.0123 -0.0311 -0.5660
  234MOL0     C31478   4.701   6.165   6.099  0.7439 -0.2482  0.0750
  234MOL0     O31479   4.605   6.091   6.020  0.1580  0.3309  0.0782
  234MOL0     C31480   4.506   6.158   5.954  0.2153  0.2172 -0.8114
  234MOL0     C31481   4.392   6.089   5.923  0.7669 -0.3358  0.5691
  234MOL0     C31482   4.280   6.148   5.866  0.4928 -0.1711 -0.2181
  234MOL0     C31483   4.158   6.056   5.847 -0.3319  0.2608 -0.2320
  234MOL0     C31484   4.304   6.278   5.814  1.5952 -0.7984  0.4614
  234MOL0     C31485   4.194   6.354   5.735 -0.5916  0.3604  0.6072
  234MOL0     O31486   4.201   6.491   5.736  0.3482  0.2002  0.2685
  234MOL0     C31487   4.111   6.560   5.652  0.0700  0.6315 -0.3707
  234MOL0     C31488   4.139   6.610   5.523  0.5583 -0.5334  0.1732
  234MOL0     C31489   4.048   6.684   5.453 -0.7779  0.9684 -0.4067
  234MOL0     C31490   3.922   6.700   5.512  0.2813 -0.1020  0.3166
  234MOL0     O31491   3.819   6.776   5.462 -0.2335 -0.4790 -0.1471
  234MOL0     C31492   3.849   6.900   5.394  0.3297  0.0584 -0.8314
  234MOL0     C31493   3.739   7.002   5.388  0.4942  0.4197  0.9287
  234MOL0     C31494   3.682   7.053   5.523 -0.5207  0.2610 -1.3310
  234MOL0     C31495   3.780   7.120   5.623 -0.0828  1.5256 -0.0073
  234MOL0     C31496   3.728   7.123   5.764  0.7813  0.0514  0.4307
  234MOL0     C31497   3.801   7.210   5.863  0.0397 -0.0857  0.5174
  234MOL0     C31498   3.724   7.194   5.992 -0.6341  0.5158 -0.7374
  234MOL0     C31499   3.794   7.270   6.104  0.0548 -0.2099 -0.4668
  234MOL0    Cl31500   3.682   7.276   6.244 -0.1121 -0.4762  0.0785
  234MOL0     C31501   3.884   6.645   5.629 -0.5863  1.0710 -0.6120
  234MOL0     C31502   3.984   6.579   5.697  0.9645  0.6074  0.6326
  234MOL0     O31503   4.116   6.286   5.673  0.3504  0.5332 -0.1129
  234MOL0     C31504   4.422   6.346   5.836 -0.3463 -0.4882 -0.2049
  234MOL0     C31505   4.521   6.290   5.912 -0.3268  0.0069 -0.3309
  234MOL0     N31506   5.197   5.995   6.114  0.3167 -0.2689  1.0235
  234MOL0     N31507   5.300   6.067   6.144  0.0272 -0.0861 -0.2018
  234MOL0     C31508   6.294   6.217   5.501 -0.3082  0.0248 -0.7706
  234MOL0     C31509   6.408   6.219   5.421  0.0778  0.0010  0.4589
  234MOL0     C31510   6.667   6.154   5.034 -0.9875 -0.2279  0.9856
  234MOL0     C31511   6.709   6.093   4.917  0.5607  0.4114 -0.1367
  234MOL0     C31512   6.836   6.106   4.863 -0.1374 -1.4377  0.3292
  234MOL0     C31513   6.933   6.182   4.930  0.0194 -0.4385  0.1351
  234MOL0     O31514   7.061   6.189   4.878 -0.3164  0.1908  0.1753
  234MOL0     C31515   7.107   6.140   4.754  0.4697  0.5439  0.5394
  234MOL0     C31516   7.254   6.118   4.759  0.1414  0.6446  0.0680
  234MOL0     C31517   7.301   6.018   4.869 -0.4908 -0.3430  0.4295
  234MOL0     C31518   7.207   5.902   4.870  0.6278  0.4993  0.9039
  234MOL0     C31519   7.273   5.789   4.937 -0.8783  0.2339 -0.3480
  234MOL0     C31520   7.317   5.683   4.971  0.8671 -0.4929 -0.1943
  234MOL0     C31521   6.896   6.235   5.052  0.5926  0.1479 -0.2879
  234MOL0     C31522   6.764   6.223   5.103  0.0810  0.0590 -0.9759
  234MOL0     H31523   6.260   6.165   5.129  4.4338 -1.8723 -0.0458
  234MOL0     H31524   6.043   6.175   5.283 -0.9932 -0.4708  0.7749
  234MOL0     H31525   6.106   6.059   5.661  1.9153  0.5472 -1.5212
  234MOL0     H31526   6.071   6.235   5.719 -2.9976  0.9939  0.0493
  234MOL0     H31527   5.865   6.070   5.597  0.7077  0.2749  0.3423
  234MOL0     H31528   5.883   6.065   5.777  0.4859  0.0266  0.3908
  234MOL0     H31529   5.808   6.267   5.812 -1.5772 -2.5656  1.1804
  234MOL0     H31530   5.828   6.327   5.645 -0.1096  1.4888  1.3064
  234MOL0     H31531   5.658   6.172   5.569 -0.5552  1.5741  0.6892
  234MOL0     H31532   5.628   6.123   5.741  1.1801 -0.2764  1.2528
  234MOL0     H31533   5.594   6.414   5.638  0.4424  1.7818  3.2887
  234MOL0     H31534   5.470   6.301   5.635 -0.7863  0.8872 -0.1821
  234MOL0     H31535   5.617   6.352   5.903  0.0980 -0.8565 -1.2797
  234MOL0     H31536   5.482   6.459   5.842  0.0161  0.0396  0.2596
  234MOL0     H31537   5.334   6.293   5.836  0.1947 -0.3560  1.1754
  234MOL0     H31538   5.456   6.158   5.863 -0.0761  0.5822 -1.8422
  234MOL0     H31539   5.394   6.375   6.067  0.8352  1.3005 -2.1127
  234MOL0     H31540   5.490   6.236   6.087  1.8906  0.5689 -2.7650
  234MOL0     H31541   5.130   6.279   5.964 -0.7867  0.7782 -0.2778
  234MOL0     H31542   4.936   6.145   5.927 -1.4188 -0.8771  0.4186
  234MOL0     H31543   4.992   5.991   5.882  0.0960 -0.6932  0.9274
  234MOL0     H31544   4.926   5.898   6.099  2.5087  0.6101 -3.4173
  234MOL0     H31545   4.803   5.928   5.983  0.6554  1.2820 -1.2517
  234MOL0     H31546   4.869   6.112   6.226 -0.6711  1.6098  0.2321
  234MOL0     H31547   4.736   5.994   6.225 -0.3903  0.3435 -1.4471
  234MOL0     H31548   4.760   6.235   6.041  0.4498 -0.1507 -0.1085
  234MOL0     H31549   4.643   6.226   6.169 -2.5257 -0.4185 -2.2584
  234MOL0     H31550   4.391   5.987   5.961 -3.2041 -1.2179 -1.4439
  234MOL0     H31551   4.159   6.009   5.748  0.4828 -1.8816  0.7437
  234MOL0     H31552   4.166   5.974   5.919  0.0622 -0.8383 -1.4860
  234MOL0     H31553   4.064   6.107   5.869  0.7326  0.9943  3.2057
  234MOL0     H31554   4.234   6.590   5.474  0.4360 -1.4925  0.2978
  234MOL0     H31555   4.081   6.718   5.355  0.2225  2.2834  0.3371
  234MOL0     H31556   3.938   6.946   5.438  1.0195 -1.1492 -0.9172
  234MOL0     H31557   3.854   6.868   5.289  0.3557  2.5035 -1.6364
  234MOL0     H31558   3.764   7.095   5.336 -1.5790  1.2259  1.2547
  234MOL0     H31559   3.657   6.955   5.332  0.8818  0.8117  0.0107
  234MOL0     H31560   3.634   6.966   5.568  0.9695  0.1838  0.1958
  234MOL0     H31561   3.604   7.128   5.502  1.2759  3.1823  1.4831
  234MOL0     H31562   3.879   7.073   5.625 -1.7108 -2.3966 -1.8820
  234MOL0     H31563   3.797   7.224   5.592 -0.4140  2.0099  1.3429
  234MOL0     H31564   3.745   7.022   5.801  1.4140  0.6559  1.8457
  234MOL0     H31565   3.619   7.132   5.766  0.7358 -0.4163  2.4502
  234MOL0     H31566   3.900   7.166   5.879  0.0993  0.6120  2.1943
  234MOL0     H31567   3.804   7.315   5.832  0.4013  0.0013  0.8479
  234MOL0     H31568   3.729   7.092   6.032 -0.4993  1.6929  2.5632
  234MOL0     H31569   3.617   7.215   5.984 -0.7361  0.9602  1.3765
  234MOL0     H31570   3.812   7.373   6.071 -0.5295  0.1699  0.3508
  234MOL0     H31571   3.890   7.235   6.141 -1.2806 -2.0985  1.4391
  234MOL0     H31572   3.788   6.656   5.679 -0.5207  0.8912 -0.4453
  234MOL0     H31573   3.951   6.537   5.791  0.6793 -1.8839 -0.4796
  234MOL0     H31574   4.438   6.444   5.792  0.8652 -0.5351  0.0777
  234MOL0     H31575   4.600   6.361   5.935 -1.5909  1.4046 -0.1933
  234MOL0     H31576   6.297   6.231   5.608  0.3492  3.2379 -1.1208
  234MOL0     H31577   6.512   6.230   5.450 -0.6665  0.3740  3.2811
  234MOL0     H31578   6.634   6.033   4.866  1.3643 -1.9300  1.2923
  234MOL0     H31579   6.845   6.059   4.766  0.0434  1.3792 -1.1102
  234MOL0     H31580   7.059   6.047   4.720  0.8127 -0.1642  1.9117
  234MOL0     H31581   7.088   6.216   4.678 -2.0454  0.3952  0.9318
  234MOL0     H31582   7.301   6.212   4.788 -0.0137  0.9157 -0.5393
  234MOL0     H31583   7.291   6.078   4.664 -0.3898 -2.1291  0.9233
  234MOL0     H31584   7.309   6.076   4.962  0.8808 -1.5697  1.1042
  234MOL0     H31585   7.399   5.982   4.835 -0.8684  1.7511 -3.5173
  234MOL0     H31586   7.179   5.864   4.772 -0.8488  1.3118  0.9935
  234MOL0     H31587   7.114   5.918   4.925  0.9051  0.6196  1.3473
  234MOL0     H31588   7.346   5.583   4.995 -1.5240 -1.7718 -2.1948
  234MOL0     H31589   6.974   6.289   5.105  1.3167 -1.3920  0.2580
  234MOL0     H31590   6.746   6.284   5.191 -0.4004 -0.7668 -0.4941
  235MOL0     O31591   6.218   7.553  10.224  0.7287 -0.5263 -0.0958
  235MOL0     C31592   6.165   7.566  10.116 -1.2926 -0.3996 -0.0679
  235MOL0     O31593   6.229   7.589  10.002  0.6802 -0.0973  0.1363
  235MOL0     C31594   6.357   7.558   9.983 -0.7639 -1.0164 -0.3761
  235MOL0     C31595   6.458   7.618  10.056  0.1057 -0.3128  0.1962
  235MOL0     C31596   6.593   7.594  10.032  0.7656 -0.2977  0.3384
  235MOL0     C31597   6.628   7.506   9.931 -0.4510  0.4236  0.5289
  235MOL0     O31598   6.763   7.473   9.900  0.3900  0.1399  0.2697
  235MOL0     C31599   6.855   7.513  10.002  0.1344  0.4918  0.0435
  235MOL0     C31600   7.000   7.438   9.989 -0.6748  0.5194 -0.1378
  235MOL0     C31601   7.088   7.498   9.878  1.1431 -0.0583  0.3421
  235MOL0     C31602   7.145   7.635   9.920  0.2730 -0.9825 -0.4293
  235MOL0     C31603   7.238   7.701   9.817 -0.0944 -0.8866  0.3082
  235MOL0     C31604   7.377   7.653   9.819 -0.4091 -1.1724  0.6169
  235MOL0     C31605   7.480   7.709   9.715  0.4347  0.1773  0.2417
  235MOL0     C31606   7.605   7.627   9.683 -0.4125  0.3884  1.0053
  235MOL0     N31607   7.679   7.677   9.563  0.3720 -1.0606  0.7642
  235MOL0     C31608   7.699   7.810   9.528 -0.5589  0.1970  0.3350
  235MOL0     C31609   7.761   7.813   9.410  0.3368  0.5861  0.8923
  235MOL0     C31610   7.805   7.943   9.337 -0.8947  0.1765 -0.2579
  235MOL0     C31611   7.896   8.030   9.418 -0.1926  0.0615 -0.6335
  235MOL0     C31612   7.973   8.109   9.313 -0.2425 -0.3099  0.5615
  235MOL0     C31613   8.079   8.201   9.378  0.2265  0.0299  0.5795
  235MOL0     O31614   8.100   8.309   9.281  0.2748 -0.6870 -0.1948
  235MOL0     C31615   8.043   8.427   9.306 -0.7353 -0.0280  0.1397
  235MOL0     C31616   7.913   8.444   9.352 -0.5843  0.5246  0.4130
  235MOL0     C31617   7.855   8.571   9.380 -0.2401 -0.2081  0.1348
  235MOL0     C31618   7.714   8.571   9.425  0.2595  0.8435 -0.1132
  235MOL0     C31619   7.929   8.685   9.357 -0.6042 -0.2244  0.9660
  235MOL0     C31620   7.887   8.824   9.390  0.5349 -0.8248 -0.8127
  235MOL0     O31621   7.846   8.835   9.516  0.5867 -0.0600  0.4138
  235MOL0     C31622   7.763   8.936   9.538 -0.6298 -0.5229 -0.2289
  235MOL0     C31623   7.637   8.909   9.605 -0.0337 -0.7300  0.2662
  235MOL0     C31624   7.549   9.009   9.638 -0.9734  0.3064 -0.6013
  235MOL0     C31625   7.579   9.142   9.620 -0.0993 -0.3142 -0.1484
  235MOL0     O31626   7.516   9.252   9.667  0.7533  0.1561 -0.3127
  235MOL0     C31627   7.414   9.235   9.758  1.2162 -0.5758 -1.1582
  235MOL0     C31628   7.332   9.362   9.760 -0.1273  0.3346 -0.1084
  235MOL0     C31629   7.226   9.361   9.876 -0.1238  0.9786 -0.3594
  235MOL0     C31630   7.276   9.305  10.004 -0.3217 -0.0467  0.1415
  235MOL0     C31631   7.191   9.344  10.122 -0.2965 -0.3713  0.4872
  235MOL0     C31632   7.220   9.266  10.248  0.2344  0.5746 -0.0944
  235MOL0     C31633   7.211   9.116  10.225  0.8776 -0.5851  0.1324
  235MOL0     C31634   7.197   9.043  10.366 -0.2166 -0.5074  0.2399
  235MOL0    Cl31635   7.153   8.871  10.341  0.1710 -0.3320 -0.4718
  235MOL0     C31636   7.702   9.170   9.555  0.7331 -0.0906 -0.3345
  235MOL0     C31637   7.793   9.072   9.513  0.5881  0.6650 -0.4136
  235MOL0     O31638   7.904   8.919   9.310 -0.3871  0.6967  0.5966
  235MOL0     C31639   8.057   8.674   9.299 -0.0324  0.2740  0.0080
  235MOL0     C31640   8.110   8.551   9.267 -0.6528  0.3108  0.2107
  235MOL0     N31641   7.770   7.684   9.356  0.4830  0.0713 -0.3166
  235MOL0     N31642   7.721   7.604   9.451 -0.1045  0.6710 -0.1665
  235MOL0     C31643   6.529   7.455   9.851 -0.8931 -0.0331  0.2971
  235MOL0     C31644   6.395   7.480   9.877  0.1864  0.2013 -0.2482
  235MOL0     C31645   6.015   7.563  10.106 -0.4752 -0.0734  0.2585
  235MOL0     C31646   5.937   7.536  10.220 -0.4698  0.2739 -0.1958
  235MOL0     C31647   5.796   7.542  10.209  0.1910 -0.3198 -0.3035
  235MOL0     C31648   5.729   7.560  10.080  0.2520 -0.4916  0.0209
  235MOL0     O31649   5.594   7.557  10.060 -0.0080  0.1495  0.2129
  235MOL0     C31650   5.502   7.573  10.169 -0.9624  0.0860  0.0078
  235MOL0     C31651   5.365   7.606  10.111  0.5257  0.6799  0.3657
  235MOL0     C31652   5.242   7.614  10.206 -0.8739 -0.3028 -0.0553
  235MOL0     C31653   5.228   7.743  10.291  0.2503 -0.4084  0.0826
  235MOL0     C31654   5.225   7.873  10.216 -0.0409  0.2406 -0.1875
  235MOL0     C31655   5.219   7.971  10.143 -0.3911  0.3609  1.3733
  235MOL0     C31656   5.815   7.560   9.975  0.3502  0.1190  0.0565
  235MOL0     C31657   5.952   7.569   9.986  0.4776  0.9655  0.6026
  235MOL0     H31658   6.427   7.686  10.135 -1.3284 -0.3853 -0.2801
  235MOL0     H31659   6.656   7.648  10.102  0.5480  0.5890 -0.1360
  235MOL0     H31660   6.873   7.621  10.007  1.4011  0.2363  1.8484
  235MOL0     H31661   6.820   7.482  10.101  0.4256 -0.9206 -0.2767
  235MOL0     H31662   7.048   7.433  10.088 -2.2757 -0.6445  0.6326
  235MOL0     H31663   6.978   7.333   9.967  1.5520 -1.2411  4.6204
  235MOL0     H31664   7.173   7.431   9.869  1.8987  0.6999  1.5403
  235MOL0     H31665   7.021   7.498   9.791  0.8204 -2.4099  0.5334
  235MOL0     H31666   7.058   7.700   9.928  2.3132  1.9304  0.0350
  235MOL0     H31667   7.176   7.635  10.025  2.3684  2.5318 -0.8700
  235MOL0     H31668   7.189   7.694   9.720  0.9085  0.3972 -0.3128
  235MOL0     H31669   7.250   7.807   9.840  1.0912 -0.8427 -0.4249
  235MOL0     H31670   7.418   7.689   9.914 -1.0977  0.6601  0.2605
  235MOL0     H31671   7.368   7.545   9.812  1.5367 -1.2633 -3.1470
  235MOL0     H31672   7.424   7.711   9.621  1.2711 -2.7660 -0.4366
  235MOL0     H31673   7.517   7.807   9.746 -0.7397  0.4697  0.7715
  235MOL0     H31674   7.564   7.526   9.671  0.4109  0.1969 -0.4398
  235MOL0     H31675   7.673   7.621   9.768 -0.4149 -2.7292  0.9025
  235MOL0     H31676   7.671   7.896   9.589 -0.2781  0.7519 -0.3041
  235MOL0     H31677   7.859   7.903   9.250 -0.8159  2.8976 -1.5414
  235MOL0     H31678   7.717   8.002   9.311 -1.8119 -2.6176 -4.6221
  235MOL0     H31679   7.963   7.970   9.481 -2.0633  0.0997  1.5278
  235MOL0     H31680   7.846   8.100   9.486  1.8869  0.3660  0.6646
  235MOL0     H31681   7.905   8.176   9.260 -0.8346 -0.2866  1.3329
  235MOL0     H31682   8.021   8.042   9.241 -1.1898 -0.7068  0.2780
  235MOL0     H31683   8.166   8.139   9.397  0.1016 -0.4726 -0.4335
  235MOL0     H31684   8.034   8.236   9.471 -0.4153 -0.7158  0.5599
  235MOL0     H31685   7.855   8.357   9.380 -0.7076  0.3025 -0.4960
  235MOL0     H31686   7.664   8.479   9.395 -0.3099  1.1701 -0.1840
  235MOL0     H31687   7.707   8.585   9.533 -0.7781 -3.9728  0.6574
  235MOL0     H31688   7.656   8.647   9.372 -0.9477 -0.6747 -1.0490
  235MOL0     H31689   7.608   8.810   9.638 -0.6710 -0.9175 -0.8004
  235MOL0     H31690   7.463   8.978   9.696 -0.9684 -0.2015 -0.8634
  235MOL0     H31691   7.343   9.159   9.722  0.7346 -0.5999 -0.2001
  235MOL0     H31692   7.450   9.197   9.854 -0.2498  0.6533 -0.0883
  235MOL0     H31693   7.392   9.453   9.768 -1.0796  0.8214  2.4751
  235MOL0     H31694   7.281   9.360   9.663  1.8625  0.6320 -1.2120
  235MOL0     H31695   7.138   9.304   9.845 -1.2038  0.3695  3.4160
  235MOL0     H31696   7.195   9.465   9.889 -2.8208  0.1751  0.1753
  235MOL0     H31697   7.280   9.196  10.002 -0.1169 -0.0654  1.2420
  235MOL0     H31698   7.376   9.344  10.025 -1.9437  3.5624  2.2334
  235MOL0     H31699   7.085   9.341  10.094 -0.0841 -0.8435 -0.3281
  235MOL0     H31700   7.213   9.447  10.151 -0.5176 -0.0725 -0.3783
  235MOL0     H31701   7.322   9.290  10.281 -0.4330  0.0582  2.6165
  235MOL0     H31702   7.155   9.300  10.329  0.4865 -1.4518  1.0502
  235MOL0     H31703   7.296   9.072  10.172  0.4765 -2.5824  1.0417
  235MOL0     H31704   7.121   9.094  10.168  0.6005  1.8477 -0.4562
  235MOL0     H31705   7.134   9.099  10.436  1.3936 -0.0353  1.3819
  235MOL0     H31706   7.297   9.043  10.411  0.2903  1.6524 -0.7544
  235MOL0     H31707   7.742   9.271   9.549 -0.3748  0.3069 -1.6039
  235MOL0     H31708   7.887   9.103   9.468  0.9459 -0.1545 -0.2425
  235MOL0     H31709   8.114   8.765   9.283  0.4362  0.2132  1.2220
  235MOL0     H31710   8.208   8.547   9.221 -1.1658 -0.5151 -0.8604
  235MOL0     H31711   6.548   7.384   9.771 -1.1323  1.5227 -1.1951
  235MOL0     H31712   6.316   7.445   9.812  0.8693  0.7144 -1.3879
  235MOL0     H31713   5.985   7.528  10.317 -0.7719  0.6164 -0.0161
  235MOL0     H31714   5.732   7.518  10.293 -2.6775  0.3615 -2.1556
  235MOL0     H31715   5.490   7.473  10.212 -1.7139 -0.0895 -0.5915
  235MOL0     H31716   5.540   7.652  10.235 -2.6174  1.3846 -0.5192
  235MOL0     H31717   5.343   7.520  10.047  1.5666  0.6732 -0.0041
  235MOL0     H31718   5.372   7.701  10.058  0.9393  0.1238 -0.5947
  235MOL0     H31719   5.229   7.526  10.269 -1.5999 -0.0557  0.1496
  235MOL0     H31720   5.161   7.604  10.134  2.2616  1.4124 -4.2802
  235MOL0     H31721   5.306   7.750  10.367  1.0964  0.7474 -0.8653
  235MOL0     H31722   5.131   7.746  10.343  1.0010  0.3092  1.4903
  235MOL0     H31723   5.204   8.048  10.070  0.4649  0.0065  0.8148
  235MOL0     H31724   5.773   7.547   9.875 -1.4275 -0.0616  0.7945
  235MOL0     H31725   6.012   7.567   9.896  0.3668  1.2512  0.5242
  236MOL0     O31726   8.742   6.960   7.671 -0.2428  0.5573  0.0329
  236MOL0     C31727   8.814   7.030   7.603 -0.5953  0.5056  0.1375
  236MOL0     O31728   8.829   7.163   7.615 -0.0004  0.0860  0.3974
  236MOL0     C31729   8.737   7.228   7.695 -0.2981  0.4628 -0.0151
  236MOL0     C31730   8.601   7.239   7.645 -0.3881  0.4494 -0.8518
  236MOL0     C31731   8.500   7.308   7.717  0.2172  0.0548 -0.1906
  236MOL0     C31732   8.529   7.358   7.846  0.4243 -0.6665 -0.4737
  236MOL0     O31733   8.423   7.397   7.924 -0.3169  0.5599  0.6379
  236MOL0     C31734   8.453   7.424   8.060 -0.1354  0.3819  0.0749
  236MOL0     C31735   8.332   7.481   8.120  0.1215  0.0067  0.1556
  236MOL0     C31736   8.209   7.384   8.096  0.6788  0.0546 -0.1794
  236MOL0     C31737   8.082   7.458   8.134  0.3171 -0.4709 -0.1791
  236MOL0     C31738   7.967   7.367   8.177  0.0816  0.9046  0.9388
  236MOL0     C31739   7.855   7.440   8.253 -0.3527  0.2034  0.0868
  236MOL0     C31740   7.795   7.554   8.170  0.3305  0.6309 -0.5471
  236MOL0     C31741   7.680   7.633   8.240  1.1638  0.3719 -0.1192
  236MOL0     N31742   7.557   7.548   8.245 -0.8059 -0.2201  0.5391
  236MOL0     C31743   7.481   7.524   8.355 -0.8500 -0.7879 -0.2211
  236MOL0     C31744   7.385   7.445   8.307 -0.8160 -0.3246 -0.0653
  236MOL0     C31745   7.283   7.366   8.385  0.6056  0.7126 -0.7788
  236MOL0     C31746   7.266   7.401   8.535  0.3254  0.5649 -0.0750
  236MOL0     C31747   7.223   7.548   8.545  0.2192 -0.6493 -0.4312
  236MOL0     C31748   7.131   7.582   8.662  0.4067  0.6222  0.1094
  236MOL0     O31749   7.024   7.492   8.642  0.5749 -0.4620 -0.0537
  236MOL0     C31750   6.904   7.518   8.700  0.2350 -0.9424 -0.3424
  236MOL0     C31751   6.788   7.450   8.663  0.6012 -0.3454 -0.4586
  236MOL0     C31752   6.659   7.487   8.707  0.2872  0.7752 -0.5277
  236MOL0     C31753   6.543   7.415   8.638 -0.4530  0.4734  0.0955
  236MOL0     C31754   6.637   7.588   8.802 -0.2225 -0.0180 -0.1659
  236MOL0     C31755   6.513   7.643   8.852  0.0961  0.3818  0.7660
  236MOL0     O31756   6.502   7.702   8.973 -0.5388  0.3888  0.3506
  236MOL0     C31757   6.393   7.781   8.998  0.7601 -0.8258  0.1300
  236MOL0     C31758   6.327   7.741   9.111  0.2291  0.2774  0.2322
  236MOL0     C31759   6.223   7.821   9.162 -0.1611  0.7992  0.0467
  236MOL0     C31760   6.187   7.941   9.094  0.0889 -0.2523 -0.1614
  236MOL0     O31761   6.082   8.018   9.138  0.3271  0.5350 -0.0094
  236MOL0     C31762   6.071   8.154   9.107 -0.1001 -0.2362 -0.3040
  236MOL0     C31763   5.938   8.197   9.165  0.2379 -0.8571 -0.3271
  236MOL0     C31764   5.947   8.223   9.315  0.2463 -0.7754  0.7027
  236MOL0     C31765   5.827   8.278   9.376 -0.2664 -0.2995  0.5032
  236MOL0     C31766   5.835   8.318   9.520  0.3964  0.7784  0.4211
  236MOL0     C31767   5.704   8.365   9.586  0.0874 -0.8008  0.2222
  236MOL0     C31768   5.736   8.427   9.725  0.2620 -0.1512  0.1944
  236MOL0     C31769   5.607   8.473   9.789 -0.2013  0.2192 -0.1180
  236MOL0    Cl31770   5.627   8.534   9.950 -0.0379  0.0675  0.4339
  236MOL0     C31771   6.249   7.978   8.966 -0.9431 -0.0859  0.1174
  236MOL0     C31772   6.360   7.898   8.924  0.3487  0.8986 -0.4854
  236MOL0     O31773   6.422   7.637   8.769  0.0617  0.7144  0.0814
  236MOL0     C31774   6.753   7.664   8.842 -0.1155  0.3292 -1.1338
  236MOL0     C31775   6.886   7.635   8.791 -0.0194  0.6282 -0.2141
  236MOL0     N31776   7.394   7.427   8.169  0.3154 -0.1502 -0.1180
  236MOL0     N31777   7.509   7.482   8.136 -0.1169  0.1636  0.4693
  236MOL0     C31778   8.664   7.346   7.892  1.3994  0.2665 -0.3318
  236MOL0     C31779   8.762   7.279   7.822  0.1471  0.7763  0.2116
  236MOL0     C31780   8.927   6.963   7.538 -0.7199  0.2055  0.0965
  236MOL0     C31781   8.948   6.827   7.557 -0.2052 -0.0092 -0.2518
  236MOL0     C31782   9.049   6.756   7.482  0.7851  0.1246 -1.0207
  236MOL0     C31783   9.137   6.834   7.401  0.4503 -0.0132  0.3650
  236MOL0     O31784   9.237   6.756   7.341 -0.4758 -0.1443  0.0389
  236MOL0     C31785   9.327   6.820   7.243 -0.0596 -0.2282  0.0689
  236MOL0     C31786   9.390   6.711   7.160 -0.0586  0.1424 -0.2314
  236MOL0     C31787   9.490   6.767   7.057 -0.1608  0.3277  0.1385
  236MOL0     C31788   9.550   6.655   6.968 -0.8735 -0.0058  0.4389
  236MOL0     C31789   9.644   6.572   7.047  0.1931  0.4352 -0.6981
  236MOL0     C31790   9.715   6.503   7.108 -0.8696  0.3670 -0.8100
  236MOL0     C31791   9.110   6.971   7.378 -0.3079 -0.2327 -0.3584
  236MOL0     C31792   9.003   7.038   7.448  0.5011 -0.1517  0.4293
  236MOL0     H31793   8.575   7.202   7.547  1.1611 -1.6670 -0.5328
  236MOL0     H31794   8.398   7.313   7.682  0.0720 -0.3846  0.1611
  236MOL0     H31795   8.473   7.328   8.109 -2.7941 -1.2546 -1.7790
  236MOL0     H31796   8.531   7.500   8.065 -1.0405  1.5180 -1.9282
  236MOL0     H31797   8.338   7.502   8.227 -0.0126  1.0942 -0.0388
  236MOL0     H31798   8.316   7.577   8.071 -0.2848  1.4978  3.0679
  236MOL0     H31799   8.203   7.350   7.992  1.1330 -2.1803  0.4610
  236MOL0     H31800   8.226   7.295   8.157 -1.6938 -0.0949  0.3927
  236MOL0     H31801   8.092   7.536   8.210  0.6106 -1.2544  0.5967
  236MOL0     H31802   8.039   7.496   8.040 -0.1795 -0.1454  0.1712
  236MOL0     H31803   7.933   7.317   8.087 -1.3189  0.0565  1.9086
  236MOL0     H31804   8.011   7.290   8.241 -0.6643 -0.6925 -0.4159
  236MOL0     H31805   7.773   7.374   8.285 -1.3977  1.6417  0.5210
  236MOL0     H31806   7.896   7.497   8.337 -1.1257  2.5492 -1.0449
  236MOL0     H31807   7.874   7.623   8.141  0.0703  0.0645 -2.7634
  236MOL0     H31808   7.755   7.509   8.079  0.1110 -0.3215  0.0104
  236MOL0     H31809   7.646   7.713   8.173 -0.2629 -1.8500 -2.2484
  236MOL0     H31810   7.705   7.669   8.340  0.0667 -0.9451  0.6729
  236MOL0     H31811   7.501   7.553   8.458 -2.4158 -1.4102  0.2901
  236MOL0     H31812   7.182   7.380   8.343 -0.5110  2.4917  2.1929
  236MOL0     H31813   7.304   7.260   8.374 -3.5222 -0.5993  1.6602
  236MOL0     H31814   7.357   7.393   8.595  0.1893  0.9536  0.1894
  236MOL0     H31815   7.185   7.339   8.574  0.6627 -0.0965 -0.4087
  236MOL0     H31816   7.164   7.564   8.454 -2.6702 -2.1340  1.0322
  236MOL0     H31817   7.309   7.614   8.535 -0.0142 -0.0440  1.2908
  236MOL0     H31818   7.108   7.689   8.653 -1.3946  0.2220 -0.5119
  236MOL0     H31819   7.158   7.560   8.765  0.6521 -1.5466 -0.3607
  236MOL0     H31820   6.801   7.377   8.585 -1.8256 -4.7682  2.8121
  236MOL0     H31821   6.580   7.328   8.582  0.5698  2.0404 -1.8034
  236MOL0     H31822   6.475   7.379   8.716 -3.5807  1.0396 -2.1868
  236MOL0     H31823   6.487   7.479   8.570  0.6390  0.4192 -0.8778
  236MOL0     H31824   6.355   7.647   9.159 -0.9915  0.3108  1.0440
  236MOL0     H31825   6.162   7.800   9.248  0.7569  2.9745  1.3157
  236MOL0     H31826   6.143   8.221   9.155 -1.1963 -0.0997  1.2185
  236MOL0     H31827   6.071   8.184   9.002 -0.6950  0.1159 -0.2101
  236MOL0     H31828   5.902   8.282   9.106 -2.5723 -1.2172  0.6956
  236MOL0     H31829   5.865   8.116   9.155  1.4204 -1.7697 -2.1564
  236MOL0     H31830   6.019   8.304   9.328 -1.8532  0.9761  2.0941
  236MOL0     H31831   5.982   8.137   9.373  1.5778  2.1412  4.6610
  236MOL0     H31832   5.793   8.365   9.320 -2.7299 -0.7964  1.0758
  236MOL0     H31833   5.749   8.202   9.361 -0.8582  0.1873  1.0400
  236MOL0     H31834   5.900   8.405   9.530 -1.4520  2.1587  1.0863
  236MOL0     H31835   5.880   8.234   9.575 -2.5426 -1.1694  0.0726
  236MOL0     H31836   5.659   8.440   9.520 -1.6759  0.8163  3.0948
  236MOL0     H31837   5.627   8.288   9.597 -0.4378 -0.0461  2.2072
  236MOL0     H31838   5.797   8.515   9.702 -0.6096  0.3475 -0.3070
  236MOL0     H31839   5.794   8.359   9.788  1.6493 -0.0682 -0.9512
  236MOL0     H31840   5.528   8.399   9.776 -0.3453  0.4960 -0.8917
  236MOL0     H31841   5.584   8.563   9.731  2.8258  0.9584 -0.3533
  236MOL0     H31842   6.204   8.057   8.907 -0.3367  0.8961  0.9315
  236MOL0     H31843   6.405   7.922   8.828 -0.7405  1.8707 -0.7861
  236MOL0     H31844   6.753   7.753   8.905  1.3061  0.0268 -0.6718
  236MOL0     H31845   6.973   7.695   8.814  1.5676 -0.5073 -2.7350
  236MOL0     H31846   8.706   7.385   7.984  3.2173  0.3215 -1.1567
  236MOL0     H31847   8.861   7.264   7.863  0.0905 -1.0508 -0.2623
  236MOL0     H31848   8.884   6.782   7.632 -1.2147 -0.9053 -1.5926
  236MOL0     H31849   9.069   6.651   7.499 -2.8195 -0.4118  0.9307
  236MOL0     H31850   9.273   6.893   7.181 -0.2773  0.6910  1.2855
  236MOL0     H31851   9.404   6.877   7.296  0.9930 -1.3129 -0.2534
  236MOL0     H31852   9.314   6.648   7.112 -1.6309  1.2504  0.7045
  236MOL0     H31853   9.458   6.652   7.222 -1.5357 -1.9676 -0.5237
  236MOL0     H31854   9.569   6.828   7.101 -0.3724 -0.7618  2.1385
  236MOL0     H31855   9.430   6.833   6.993 -0.0978  1.0697  0.8296
  236MOL0     H31856   9.603   6.702   6.885  0.9692 -1.9034  0.4415
  236MOL0     H31857   9.470   6.593   6.927 -0.3704  0.1535 -0.8229
  236MOL0     H31858   9.769   6.429   7.164  2.2907  2.0831 -1.3426
  236MOL0     H31859   9.168   7.032   7.309  0.2776 -3.5559 -3.0145
  236MOL0     H31860   8.996   7.146   7.437 -1.6961 -0.2592  0.2283
  237MOL0     O31861   5.207   9.766   5.271  0.3062  0.0850 -0.2060
  237MOL0     C31862   5.270   9.687   5.335  0.5279 -0.6590 -0.3536
  237MOL0     O31863   5.225   9.599   5.426  0.7264 -0.2131  0.4500
  237MOL0     C31864   5.089   9.592   5.436 -0.4618 -0.1474 -0.1549
  237MOL0     C31865   5.043   9.592   5.563  0.3192 -0.5744 -0.0411
  237MOL0     C31866   4.901   9.585   5.590 -0.2816 -0.2824  0.5152
  237MOL0     C31867   4.815   9.553   5.480  0.3228  0.1501 -0.2867
  237MOL0     O31868   4.687   9.534   5.509  0.9089 -0.4115  0.0784
  237MOL0     C31869   4.574   9.539   5.412  0.3518  0.0528 -0.1856
  237MOL0     C31870   4.435   9.520   5.469  0.2215 -0.0291  0.1773
  237MOL0     C31871   4.325   9.587   5.385 -0.5634  0.0694  0.8097
  237MOL0     C31872   4.185   9.526   5.412 -0.4879  0.2107 -0.6158
  237MOL0     C31873   4.177   9.374   5.404  0.0278 -0.8990  0.7331
  237MOL0     C31874   4.036   9.332   5.435 -0.3438  0.0877 -0.4074
  237MOL0     C31875   4.028   9.179   5.433  0.2310 -0.1392  0.2802
  237MOL0     C31876   3.910   9.128   5.518  1.1212  0.4948 -0.5412
  237MOL0     N31877   3.784   9.135   5.447  0.0997  1.0942  0.1821
  237MOL0     C31878   3.703   9.242   5.451  0.6808 -0.3331 -0.7609
  237MOL0     C31879   3.600   9.219   5.359 -0.0136  0.8488 -1.0027
  237MOL0     C31880   3.497   9.319   5.309 -0.5910 -0.5862 -0.3888
  237MOL0     C31881   3.555   9.411   5.206 -0.5659  0.2854  0.3148
  237MOL0     C31882   3.566   9.555   5.258 -0.1642  0.1926  0.1697
  237MOL0     C31883   3.663   9.624   5.178  0.4646  0.4663 -0.0966
  237MOL0     O31884   3.715   9.735   5.241  0.2302 -0.1897  0.0460
  237MOL0     C31885   3.841   9.778   5.200  0.3609 -0.5263 -0.3405
  237MOL0     C31886   3.891   9.756   5.079 -1.3385 -0.1330  0.0120
  237MOL0     C31887   4.022   9.796   5.037 -0.0539 -0.1180 -0.0545
  237MOL0     C31888   4.054   9.783   4.890 -0.2292 -0.4729  1.4477
  237MOL0     C31889   4.116   9.854   5.128 -0.1443  0.0136  0.0571
  237MOL0     C31890   4.250   9.910   5.102  0.0531 -0.0776  0.5421
  237MOL0     O31891   4.298  10.004   5.181 -0.2361  0.3523  0.0295
  237MOL0     C31892   4.433  10.023   5.191 -0.2368  0.8112 -0.0643
  237MOL0     C31893   4.474  10.144   5.237 -0.6871 -0.2619 -0.3851
  237MOL0     C31894   4.612  10.171   5.255 -0.4901  0.4067  0.3567
  237MOL0     C31895   4.709  10.074   5.230 -0.7180  0.2624  0.6528
  237MOL0     O31896   4.838  10.110   5.263 -0.7445  0.1513 -0.9002
  237MOL0     C31897   4.926  10.000   5.298 -0.1847 -0.0233 -0.2971
  237MOL0     C31898   5.035  10.036   5.399  0.0145 -0.2030 -0.1339
  237MOL0     C31899   4.979  10.052   5.535 -0.7295  0.7429 -0.4222
  237MOL0     C31900   5.091  10.059   5.645  0.2325 -0.3550  0.7586
  237MOL0     C31901   5.163   9.929   5.675  0.6378 -0.3400 -0.4049
  237MOL0     C31902   5.287   9.941   5.771  0.4928  0.3664  0.4979
  237MOL0     C31903   5.405   9.997   5.694  0.3676 -0.2055  0.7402
  237MOL0     C31904   5.501  10.044   5.805 -1.1950 -0.1493  0.3350
  237MOL0    Cl31905   5.452  10.190   5.889 -0.1616  0.3579  0.1876
  237MOL0     C31906   4.663   9.954   5.178 -0.6767  0.6649  0.2608
  237MOL0     C31907   4.531   9.924   5.157  0.4349  0.3496 -0.7066
  237MOL0     O31908   4.307   9.857   5.007 -0.0056 -0.1582 -0.7490
  237MOL0     C31909   4.056   9.885   5.249 -0.9285  0.2649 -0.2244
  237MOL0     C31910   3.924   9.844   5.289 -0.3276 -0.4235  0.2588
  237MOL0     N31911   3.625   9.098   5.301 -0.0471 -0.0224  0.1393
  237MOL0     N31912   3.729   9.044   5.363 -0.1137 -0.1727  0.6794
  237MOL0     C31913   4.873   9.545   5.353 -0.3317 -0.5413  0.0748
  237MOL0     C31914   5.002   9.564   5.328  0.5285  0.1055  0.5066
  237MOL0     C31915   5.413   9.707   5.301  0.8594 -0.2433 -0.4390
  237MOL0     C31916   5.461   9.770   5.184  0.5521 -0.0030  0.2930
  237MOL0     C31917   5.593   9.738   5.149 -0.2772  0.1930  0.1228
  237MOL0     C31918   5.689   9.691   5.232 -0.0770 -0.5583  0.0303
  237MOL0     O31919   5.817   9.670   5.189 -0.8353  0.1447  0.3056
  237MOL0     C31920   5.904   9.784   5.201  1.1650  1.2400 -0.2542
  237MOL0     C31921   5.925   9.857   5.063 -0.6087  0.5520  0.6793
  237MOL0     C31922   6.040   9.791   4.986 -0.4829 -0.7808 -0.5307
  237MOL0     C31923   6.073   9.853   4.853 -0.7880  0.3307 -0.0233
  237MOL0     C31924   6.100   9.997   4.865  0.5691  0.2518  0.2845
  237MOL0     C31925   6.108  10.115   4.885 -0.9149 -0.0270  0.2509
  237MOL0     C31926   5.642   9.648   5.362  1.3474  0.2803 -0.4163
  237MOL0     C31927   5.507   9.658   5.398 -0.5158 -0.3165 -0.2793
  237MOL0     H31928   5.110   9.605   5.647 -0.2404  2.3365  0.0725
  237MOL0     H31929   4.863   9.583   5.692 -2.0944  0.7973 -0.0928
  237MOL0     H31930   4.570   9.644   5.382 -0.8488  0.0605 -0.0525
  237MOL0     H31931   4.592   9.490   5.316  0.1568 -0.6275  0.1177
  237MOL0     H31932   4.424   9.411   5.471 -2.6883  0.1610 -0.1206
  237MOL0     H31933   4.429   9.563   5.569  0.0211 -2.1423  1.1310
  237MOL0     H31934   4.327   9.695   5.402  5.5980  0.6032 -0.8993
  237MOL0     H31935   4.343   9.570   5.279 -0.2080 -2.0570  1.1764
  237MOL0     H31936   4.154   9.564   5.510  0.8482 -0.3371  0.0443
  237MOL0     H31937   4.126   9.570   5.331 -0.0491  1.1748 -0.4215
  237MOL0     H31938   4.215   9.335   5.309  2.2509  1.1987  0.6897
  237MOL0     H31939   4.233   9.329   5.486 -2.2746 -1.8250  1.8969
  237MOL0     H31940   4.008   9.365   5.535 -0.3488  0.1609 -0.4333
  237MOL0     H31941   3.959   9.363   5.363  0.5453  2.9006 -0.2518
  237MOL0     H31942   4.010   9.138   5.333  0.9063  1.3179 -0.4584
  237MOL0     H31943   4.116   9.125   5.470 -0.2160  0.4799  2.3840
  237MOL0     H31944   3.900   9.175   5.617 -0.7727  0.9819 -0.9214
  237MOL0     H31945   3.930   9.024   5.546  2.3295  0.5479 -1.1442
  237MOL0     H31946   3.726   9.335   5.502  4.2270 -1.8697  0.7856
  237MOL0     H31947   3.422   9.261   5.254 -0.7624 -0.0935 -0.6838
  237MOL0     H31948   3.452   9.372   5.393  0.0783 -1.5152  0.5711
  237MOL0     H31949   3.494   9.416   5.115  2.2347 -0.4016 -1.7114
  237MOL0     H31950   3.652   9.369   5.181 -1.4950 -2.8895  1.4637
  237MOL0     H31951   3.592   9.561   5.364  0.2267  0.7230  0.0461
  237MOL0     H31952   3.470   9.606   5.243  0.3742  0.7697 -1.6370
  237MOL0     H31953   3.616   9.661   5.086 -1.0736 -1.6924 -0.2475
  237MOL0     H31954   3.744   9.559   5.145 -1.0015 -1.1419 -0.6810
  237MOL0     H31955   3.831   9.707   5.003 -0.2836 -1.5373  0.0332
  237MOL0     H31956   4.136   9.713   4.874 -1.0044 -0.8490 -1.5124
  237MOL0     H31957   3.977   9.759   4.817  0.3861  0.3525  0.5056
  237MOL0     H31958   4.099   9.879   4.864  1.5827 -1.4986  0.6835
  237MOL0     H31959   4.400  10.219   5.258 -1.1704 -1.3300  2.0262
  237MOL0     H31960   4.626  10.270   5.298 -1.6963  1.0518 -0.6651
  237MOL0     H31961   4.876   9.905   5.320  1.0093 -0.5671  0.2287
  237MOL0     H31962   4.991   9.979   5.213  1.8049 -1.2189  1.4043
  237MOL0     H31963   5.106   9.953   5.398 -2.7157 -2.7243 -1.3903
  237MOL0     H31964   5.087  10.127   5.368 -0.4013  0.3333  0.7078
  237MOL0     H31965   4.906   9.972   5.553 -2.6135  2.8037  1.7214
  237MOL0     H31966   4.914  10.139   5.544 -4.9236 -2.0969 -0.2538
  237MOL0     H31967   5.161  10.131   5.603  1.7593 -1.6630  0.9869
  237MOL0     H31968   5.058  10.117   5.732 -0.1346  1.2760 -0.4190
  237MOL0     H31969   5.197   9.890   5.579 -0.4185  1.5118 -1.5906
  237MOL0     H31970   5.093   9.854   5.713 -1.6677  1.0734 -1.6818
  237MOL0     H31971   5.253   9.999   5.857 -0.3923  0.5067  0.0592
  237MOL0     H31972   5.322   9.843   5.805  0.4274  0.1119 -0.1679
  237MOL0     H31973   5.369  10.076   5.628 -3.4649 -0.5395  2.1774
  237MOL0     H31974   5.453   9.926   5.627 -2.2690  0.7206 -2.3885
  237MOL0     H31975   5.598  10.059   5.758  0.5040 -1.0154  3.2999
  237MOL0     H31976   5.510   9.961   5.876  3.3224  0.0439  0.2915
  237MOL0     H31977   4.741   9.890   5.138 -0.3622  1.2072 -0.0057
  237MOL0     H31978   4.516   9.820   5.131 -0.5874  0.1058  0.7407
  237MOL0     H31979   4.121   9.934   5.320 -0.2321 -1.3814  0.3194
  237MOL0     H31980   3.901   9.872   5.391  1.2989  2.6216 -0.1030
  237MOL0     H31981   4.800   9.522   5.276 -0.8496 -1.2621  0.7653
  237MOL0     H31982   5.040   9.547   5.228  2.7377 -0.8314  1.4369
  237MOL0     H31983   5.393   9.820   5.115  3.3947  3.4862 -0.2650
  237MOL0     H31984   5.623   9.765   5.048 -2.4422 -2.1267 -1.2581
  237MOL0     H31985   5.862   9.849   5.278  2.0649 -0.9228  2.2340
  237MOL0     H31986   5.998   9.749   5.245  1.3884 -2.4057 -3.0626
  237MOL0     H31987   5.951   9.961   5.085  1.4947 -0.2202  2.2626
  237MOL0     H31988   5.838   9.842   5.000  1.0865 -1.3339 -1.4044
  237MOL0     H31989   6.010   9.691   4.955  2.6266 -2.7060  1.9807
  237MOL0     H31990   6.133   9.791   5.044  1.1979 -0.6161 -3.0831
  237MOL0     H31991   5.998   9.836   4.775 -0.4923 -3.7818  0.3664
  237MOL0     H31992   6.162   9.804   4.814 -0.3865  0.0658  1.1789
  237MOL0     H31993   6.126  10.219   4.903  1.2639 -0.7028  2.4803
  237MOL0     H31994   5.715   9.609   5.432 -1.4924 -0.2212  2.5379
  237MOL0     H31995   5.476   9.613   5.491  0.0341 -2.2390 -0.9767
  238MOL0     O31996   5.664   8.271   0.169  0.0594 -0.0327  0.3959
  238MOL0     C31997   5.616   8.312   0.068 -0.4351 -0.5724 -0.1826
  238MOL0     O31998   5.692   8.367  -0.035  0.3416  0.0633 -0.5582
  238MOL0     C31999   5.830   8.352  -0.040  0.2170 -0.9436  0.2480
  238MOL0     C32000   5.899   8.238  -0.005 -1.1259  0.3215 -0.8835
  238MOL0     C32001   6.043   8.227  -0.014  0.0775  0.5432 -0.0148
  238MOL0     C32002   6.123   8.333  -0.062 -0.1244  0.5747 -1.1005
  238MOL0     O32003   6.256   8.333  -0.082 -0.9829  0.4087 -0.6515
  238MOL0     C32004   6.322   8.255   0.024  0.4189 -0.6010  0.3610
  238MOL0     C32005   6.373   8.134  -0.056 -0.8089 -0.5525  0.3334
  238MOL0     C32006   6.476   8.047   0.018  0.2438  0.5083 -0.8784
  238MOL0     C32007   6.615   8.109   0.026 -1.3226 -0.4666 -1.0658
  238MOL0     C32008   6.700   8.033   0.146 -0.2799 -0.4508  0.1261
  238MOL0     C32009   6.848   8.068   0.161  0.2010  0.2028  0.4229
  238MOL0     C32010   6.923   7.989   0.272  0.6841 -0.1518  0.8485
  238MOL0     C32011   6.927   8.078   0.395  0.2769  0.1271  0.7517
  238MOL0     N32012   6.979   8.013   0.515  0.2425 -0.3221  0.1876
  238MOL0     C32013   7.108   7.966   0.528 -0.1842  1.2057  0.1617
  238MOL0     C32014   7.117   7.909   0.648 -0.5543  0.1349  1.0315
  238MOL0     C32015   7.244   7.841   0.708  0.3761  0.6573  0.2921
  238MOL0     C32016   7.246   7.857   0.857  0.2915 -0.1472  0.6486
  238MOL0     C32017   7.264   8.005   0.898 -0.8242  0.0195  0.3895
  238MOL0     C32018   7.234   8.013   1.050 -0.9183 -0.0159  0.1554
  238MOL0     O32019   7.216   8.143   1.092 -0.2309 -0.3488  0.3592
  238MOL0     C32020   7.328   8.221   1.114  0.0500  0.2971  0.9274
  238MOL0     C32021   7.461   8.165   1.107 -0.1880 -0.6618 -0.1816
  238MOL0     C32022   7.571   8.250   1.126  0.3371  0.2462 -0.9417
  238MOL0     C32023   7.700   8.183   1.095  0.8255  0.5085 -0.4282
  238MOL0     C32024   7.555   8.385   1.165  0.2374 -0.3216 -0.2101
  238MOL0     C32025   7.663   8.478   1.204  0.7942  0.2599  0.1625
  238MOL0     O32026   7.627   8.609   1.226  0.6445  0.6745 -0.1446
  238MOL0     C32027   7.711   8.713   1.248  0.3981 -0.1204 -0.1811
  238MOL0     C32028   7.666   8.827   1.319 -0.1051  0.6266 -0.3258
  238MOL0     C32029   7.745   8.932   1.358 -0.8439 -0.4112  0.7235
  238MOL0     C32030   7.873   8.945   1.301 -0.1814  0.3523 -1.1024
  238MOL0     O32031   7.940   9.057   1.359 -0.3087 -0.7191  0.1398
  238MOL0     C32032   8.061   9.105   1.296 -0.6540  0.3401 -0.3930
  238MOL0     C32033   8.176   9.031   1.355  0.0416 -0.3731  0.4669
  238MOL0     C32034   8.312   9.057   1.286 -0.4736  0.0997  0.1082
  238MOL0     C32035   8.419   8.957   1.342  0.7532 -0.0794  0.1468
  238MOL0     C32036   8.552   8.944   1.265  0.3621  0.1476  0.1124
  238MOL0     C32037   8.634   9.075   1.262 -0.2331  0.2917 -0.3281
  238MOL0     C32038   8.768   9.057   1.189  0.5045  0.4355 -0.4921
  238MOL0     C32039   8.841   9.185   1.184 -0.2115  0.0627  1.0235
  238MOL0    Cl32040   8.902   9.224   1.345 -0.0243 -0.2886  0.2192
  238MOL0     C32041   7.917   8.846   1.210  0.2250 -0.9422 -0.1634
  238MOL0     C32042   7.841   8.733   1.187  0.7198 -0.1744 -0.3851
  238MOL0     O32043   7.771   8.439   1.221  0.3278 -0.0628 -0.6219
  238MOL0     C32044   7.421   8.434   1.167 -0.0273 -0.4310 -0.0952
  238MOL0     C32045   7.307   8.358   1.138 -0.2052 -0.6207 -0.1120
  238MOL0     N32046   6.991   7.925   0.705  0.5474 -0.0453 -0.4695
  238MOL0     N32047   6.910   7.981   0.624  0.1034 -0.0566 -0.0788
  238MOL0     C32048   6.060   8.448  -0.090  0.2041  0.6302 -0.4351
  238MOL0     C32049   5.922   8.458  -0.084  0.0729 -0.3597 -0.6344
  238MOL0     C32050   5.473   8.282   0.046  0.0972 -0.5179  0.8589
  238MOL0     C32051   5.392   8.212   0.137 -0.6739 -0.2300 -0.6697
  238MOL0     C32052   5.249   8.192   0.112 -0.5067 -0.9167  0.4749
  238MOL0     C32053   5.186   8.231   0.003 -0.0624 -0.1111  0.3267
  238MOL0     O32054   5.058   8.198  -0.018  0.3583  0.2195  0.2029
  238MOL0     C32055   4.994   8.315   0.002 -0.0823  0.6282 -0.4194
  238MOL0     C32056   4.848   8.300  -0.042  0.3947  0.6931  0.2221
  238MOL0     C32057   4.756   8.408   0.006 -0.2579 -0.7162  0.8216
  238MOL0     C32058   4.603   8.371  -0.003  0.0457  0.1636  0.2005
  238MOL0     C32059   4.527   8.460   0.081 -0.5863 -0.2583  0.2025
  238MOL0     C32060   4.452   8.535   0.143  0.6868  1.0173  0.1579
  238MOL0     C32061   5.268   8.295  -0.094  0.1317  0.2103 -0.4537
  238MOL0     C32062   5.406   8.315  -0.075  0.0344  0.5679  0.2962
  238MOL0     H32063   5.845   8.160   0.047  1.2472  0.0609  1.4479
  238MOL0     H32064   6.082   8.128   0.005  1.2216  1.1134  0.7173
  238MOL0     H32065   6.402   8.316   0.068 -0.9419 -1.2863  4.1312
  238MOL0     H32066   6.256   8.223   0.105  0.4356  0.8546  0.9687
  238MOL0     H32067   6.287   8.073  -0.084 -2.9726  2.2627  0.4564
  238MOL0     H32068   6.420   8.173  -0.147 -1.9327 -0.0929 -0.0657
  238MOL0     H32069   6.449   8.033   0.123  2.0463  1.7549 -0.2101
  238MOL0     H32070   6.481   7.951  -0.034  1.0134 -0.9172  1.6504
  238MOL0     H32071   6.662   8.099  -0.072 -1.1331  0.5816 -1.0989
  238MOL0     H32072   6.613   8.215   0.055  0.0470 -0.7286  0.1134
  238MOL0     H32073   6.657   8.060   0.243  0.9919 -1.1355  0.9209
  238MOL0     H32074   6.697   7.926   0.122  1.0950 -0.4450 -0.1580
  238MOL0     H32075   6.887   8.056   0.060 -0.8547 -0.1138  0.0335
  238MOL0     H32076   6.856   8.175   0.180 -0.8924  0.0530  1.8887
  238MOL0     H32077   6.876   7.894   0.299  1.6040 -0.3454  1.8313
  238MOL0     H32078   7.023   7.957   0.239  0.7204 -0.4718  1.2534
  238MOL0     H32079   6.823   8.106   0.413  0.4073  1.5979 -0.5239
  238MOL0     H32080   6.976   8.175   0.378  0.7017 -0.4676 -1.8773
  238MOL0     H32081   7.194   7.990   0.466 -0.0114  1.6463  0.5695
  238MOL0     H32082   7.249   7.737   0.674 -3.6675  1.2140 -2.7474
  238MOL0     H32083   7.327   7.897   0.665 -0.0343  1.3228  0.3464
  238MOL0     H32084   7.330   7.798   0.894 -0.5979 -3.3899 -2.0485
  238MOL0     H32085   7.158   7.812   0.904  1.4384 -1.6927  1.4083
  238MOL0     H32086   7.193   8.069   0.843 -0.2780  1.8370  1.7051
  238MOL0     H32087   7.369   8.029   0.880 -0.7346 -1.6154 -1.7779
  238MOL0     H32088   7.314   7.960   1.102 -1.2591 -2.4204 -1.5858
  238MOL0     H32089   7.149   7.952   1.082 -1.4478  0.4865 -0.2714
  238MOL0     H32090   7.475   8.064   1.071  2.5635 -0.2191 -0.5996
  238MOL0     H32091   7.767   8.262   1.061  2.1016 -0.6325 -0.6611
  238MOL0     H32092   7.748   8.140   1.183  0.1839  0.9790  0.1601
  238MOL0     H32093   7.701   8.118   1.006 -1.3686  1.9030 -1.5678
  238MOL0     H32094   7.565   8.835   1.359  0.0234  0.4416  0.0392
  238MOL0     H32095   7.709   9.006   1.428 -1.8249  1.1346 -1.2994
  238MOL0     H32096   8.053   9.096   1.188 -0.7216  2.8100 -0.6585
  238MOL0     H32097   8.065   9.214   1.312 -0.4036  0.3392 -0.4394
  238MOL0     H32098   8.186   9.055   1.461  1.5465  2.3402 -0.1888
  238MOL0     H32099   8.158   8.924   1.342 -0.8701 -0.5469  2.8318
  238MOL0     H32100   8.348   9.159   1.304 -0.2648 -0.6142  5.0593
  238MOL0     H32101   8.294   9.036   1.180 -2.5363 -0.4243  0.5170
  238MOL0     H32102   8.453   8.990   1.440  3.1933 -2.2082  0.1200
  238MOL0     H32103   8.375   8.859   1.359  1.3891 -0.5952 -1.0252
  238MOL0     H32104   8.539   8.911   1.161 -0.0070 -2.3413  0.8815
  238MOL0     H32105   8.621   8.875   1.315  0.7551  0.6127  0.2202
  238MOL0     H32106   8.582   9.155   1.208  0.4873  0.2352 -1.1365
  238MOL0     H32107   8.648   9.099   1.368 -2.0498 -2.4461  0.6143
  238MOL0     H32108   8.739   9.023   1.089  1.1357 -1.5599 -0.0398
  238MOL0     H32109   8.832   8.981   1.234  2.6309  2.0535 -0.6239
  238MOL0     H32110   8.774   9.268   1.162 -2.8659 -2.2104 -0.1894
  238MOL0     H32111   8.916   9.179   1.105 -1.7258 -1.8987 -0.3812
  238MOL0     H32112   8.014   8.854   1.161  0.6109 -3.0411  0.1406
  238MOL0     H32113   7.884   8.654   1.126 -0.0986  0.7720 -2.2908
  238MOL0     H32114   7.404   8.540   1.178  1.3150  0.6626 -5.6749
  238MOL0     H32115   7.208   8.402   1.137  0.1174  0.1267 -1.2336
  238MOL0     H32116   6.126   8.523  -0.134  3.3707 -1.0844  1.1214
  238MOL0     H32117   5.877   8.552  -0.116  0.6242 -0.6827 -2.4825
  238MOL0     H32118   5.429   8.168   0.229 -2.6580 -0.0879  0.2499
  238MOL0     H32119   5.190   8.163   0.198 -2.4527 -0.1884 -0.5511
  238MOL0     H32120   4.994   8.341   0.109 -0.1664 -1.2864  0.0758
  238MOL0     H32121   5.036   8.398  -0.055  1.4879  0.1011 -0.0713
  238MOL0     H32122   4.812   8.202  -0.008  0.7879  0.0996 -1.0328
  238MOL0     H32123   4.846   8.299  -0.151 -2.2086  1.1841  0.1954
  238MOL0     H32124   4.791   8.498  -0.046  3.5046 -2.2531  0.4032
  238MOL0     H32125   4.781   8.435   0.109 -2.5510 -1.2810  1.6011
  238MOL0     H32126   4.600   8.273   0.047  1.3691 -0.9688 -1.7943
  238MOL0     H32127   4.566   8.377  -0.106  2.6234 -2.7213 -1.0736
  238MOL0     H32128   4.389   8.606   0.193  0.4145  0.4058  0.6942
  238MOL0     H32129   5.229   8.330  -0.189  0.1153  0.2309 -0.4392
  238MOL0     H32130   5.451   8.367  -0.158 -2.1372  2.1150  0.0026
  239MOL0     O32131   8.919   3.616   0.967  0.2238  0.6770  0.0639
  239MOL0     C32132   8.964   3.508   1.002  0.5410  0.6075  0.0883
  239MOL0     O32133   8.900   3.412   1.070  0.5704 -0.3363  0.3221
  239MOL0     C32134   8.763   3.438   1.096 -0.0315  0.0476  0.4395
  239MOL0     C32135   8.667   3.391   1.010  0.7417  0.7533  0.0012
  239MOL0     C32136   8.534   3.413   1.049  0.3419 -0.3394  0.7508
  239MOL0     C32137   8.495   3.481   1.164  0.0986  0.4314 -0.0843
  239MOL0     O32138   8.367   3.485   1.208 -0.1216 -0.2971  0.0468
  239MOL0     C32139   8.317   3.611   1.239  0.1894  0.7879 -0.9780
  239MOL0     C32140   8.173   3.603   1.265  0.4166  0.2039  0.4611
  239MOL0     C32141   8.086   3.554   1.149 -0.2724 -0.0223 -0.2615
  239MOL0     C32142   7.953   3.495   1.185  1.2582  0.5221  0.1298
  239MOL0     C32143   7.859   3.498   1.065 -0.5377  0.4579 -0.0943
  239MOL0     C32144   7.709   3.453   1.088  0.1479 -0.3042  0.4698
  239MOL0     C32145   7.643   3.523   1.211  0.6126  0.6382 -0.8392
  239MOL0     C32146   7.502   3.488   1.235  0.5673  0.0593  0.2435
  239MOL0     N32147   7.407   3.520   1.126  0.2426 -0.1511  0.1536
  239MOL0     C32148   7.329   3.639   1.120 -0.0852  0.5706 -0.3041
  239MOL0     C32149   7.229   3.611   1.031  0.2103  0.5437  0.7013
  239MOL0     C32150   7.122   3.699   0.994 -0.4386 -0.4369 -0.4229
  239MOL0     C32151   7.013   3.716   1.101  0.0166  0.3253 -0.0994
  239MOL0     C32152   6.912   3.606   1.108 -0.1015  0.1188  0.6218
  239MOL0     C32153   6.857   3.555   0.973  0.7555  0.7908  0.3352
  239MOL0     O32154   6.801   3.672   0.902  0.2662  0.1048 -0.3778
  239MOL0     C32155   6.691   3.731   0.957  0.4273 -0.1219 -1.0028
  239MOL0     C32156   6.576   3.662   0.990  0.7368 -0.1659 -0.2985
  239MOL0     C32157   6.465   3.725   1.040 -0.4825  0.0842  0.2226
  239MOL0     C32158   6.356   3.641   1.097  0.1978  0.4401 -0.1785
  239MOL0     C32159   6.451   3.866   1.044 -0.5457  0.0766  0.1104
  239MOL0     C32160   6.332   3.941   1.082  0.4287 -0.4361  0.2546
  239MOL0     O32161   6.347   4.076   1.117 -1.0575  0.7333 -0.7476
  239MOL0     C32162   6.237   4.148   1.147  0.1308  0.1442 -0.6326
  239MOL0     C32163   6.249   4.223   1.268 -0.5771 -0.0125  0.7959
  239MOL0     C32164   6.135   4.297   1.301 -0.1554  0.0456  0.0479
  239MOL0     C32165   6.022   4.300   1.226  0.2509  0.2494  0.6648
  239MOL0     O32166   5.912   4.368   1.274  0.2480 -0.0627  0.6309
  239MOL0     C32167   5.802   4.393   1.191 -0.1252 -0.1489  1.1596
  239MOL0     C32168   5.709   4.484   1.259 -0.8665  0.8203 -0.4056
  239MOL0     C32169   5.579   4.499   1.175  0.1667  0.3217  0.5202
  239MOL0     C32170   5.488   4.621   1.217  0.2403  0.7650  0.1884
  239MOL0     C32171   5.372   4.638   1.117 -0.4041 -0.3158 -0.9899
  239MOL0     C32172   5.286   4.756   1.162  0.0330 -0.0478  0.1123
  239MOL0     C32173   5.175   4.807   1.065 -0.6139  0.4628  0.1025
  239MOL0     C32174   5.137   4.959   1.058 -0.5034 -0.2607  0.0670
  239MOL0    Cl32175   5.112   5.030   1.222  0.2078 -0.0715 -0.2539
  239MOL0     C32176   6.018   4.237   1.104 -0.6785 -0.3472  0.2899
  239MOL0     C32177   6.128   4.161   1.064 -0.6538 -1.1080  0.3144
  239MOL0     O32178   6.229   3.883   1.058 -0.1358  0.7552  0.2605
  239MOL0     C32179   6.573   3.936   1.016  0.4695 -0.3637  0.5463
  239MOL0     C32180   6.692   3.863   0.984 -0.4408  0.4365  0.3205
  239MOL0     N32181   7.250   3.478   0.976 -0.3876  0.3786  0.7163
  239MOL0     N32182   7.356   3.432   1.038  0.4671 -0.1259 -0.0215
  239MOL0     C32183   8.597   3.528   1.247  0.0666 -0.1910  0.0311
  239MOL0     C32184   8.731   3.511   1.214 -0.5804 -0.9491 -0.0568
  239MOL0     C32185   9.109   3.482   0.972  0.4363  0.9067 -0.4638
  239MOL0     C32186   9.200   3.583   0.936 -0.5541 -0.1598  0.1918
  239MOL0     C32187   9.330   3.562   0.893 -0.5275 -0.1573  0.1444
  239MOL0     C32188   9.384   3.434   0.902 -0.5702 -0.2807  0.8110
  239MOL0     O32189   9.514   3.398   0.876 -0.7059  0.2712 -0.2478
  239MOL0     C32190   9.612   3.504   0.894  0.7671 -0.2217 -0.8056
  239MOL0     C32191   9.754   3.448   0.907 -0.0203 -0.1552  1.1606
  239MOL0     C32192   9.855   3.572   0.914  0.8920 -0.2184  0.2157
  239MOL0     C32193   9.999   3.521   0.916  0.7299 -0.6623 -0.6752
  239MOL0     C32194  10.097   3.627   0.927  1.2979 -0.3402  0.9047
  239MOL0     C32195  10.192   3.702   0.928 -0.0703  0.0805  0.0149
  239MOL0     C32196   9.292   3.336   0.929 -0.1833  0.2744 -0.7895
  239MOL0     C32197   9.173   3.358   0.981  0.4241  0.2720 -1.3104
  239MOL0     H32198   8.694   3.329   0.925 -2.2674  1.4534 -1.6218
  239MOL0     H32199   8.455   3.365   0.991  1.9987 -0.4612 -1.5061
  239MOL0     H32200   8.364   3.660   1.325  0.5126  0.7339 -1.1238
  239MOL0     H32201   8.337   3.673   1.151  2.4164  1.8244  0.1795
  239MOL0     H32202   8.147   3.539   1.350  1.6790 -2.5672 -1.1195
  239MOL0     H32203   8.147   3.706   1.291  1.2329  0.5752 -0.1621
  239MOL0     H32204   8.068   3.642   1.086 -2.3144 -0.7105 -0.7200
  239MOL0     H32205   8.141   3.485   1.084  1.5424  0.3238  0.8276
  239MOL0     H32206   7.948   3.401   1.241 -1.3577 -0.0292 -0.8620
  239MOL0     H32207   7.910   3.563   1.259 -1.0596 -3.4412  2.7925
  239MOL0     H32208   7.848   3.598   1.021 -3.6722 -0.6438 -2.1437
  239MOL0     H32209   7.904   3.442   0.984  1.1056  1.9144 -0.2394
  239MOL0     H32210   7.647   3.468   0.999 -1.2332 -5.1926  0.3228
  239MOL0     H32211   7.699   3.347   1.115  2.5077  0.1400  3.7252
  239MOL0     H32212   7.700   3.503   1.301  0.6872  0.2440 -0.9727
  239MOL0     H32213   7.647   3.633   1.207 -2.3735  0.9582  1.1320
  239MOL0     H32214   7.468   3.531   1.329  0.8866 -0.9454  0.8241
  239MOL0     H32215   7.492   3.380   1.247  0.0075  0.0861  0.0456
  239MOL0     H32216   7.342   3.724   1.187 -3.2475  1.0147 -0.0996
  239MOL0     H32217   7.174   3.795   0.988  1.7570 -1.6004 -1.4819
  239MOL0     H32218   7.086   3.675   0.893  0.2267  0.3638 -0.8582
  239MOL0     H32219   6.955   3.802   1.069 -2.3005 -0.0380  2.7949
  239MOL0     H32220   7.065   3.741   1.194  1.4952  0.6347 -0.9747
  239MOL0     H32221   6.823   3.633   1.167  0.3219  1.6277  0.6070
  239MOL0     H32222   6.967   3.526   1.158  3.3849  2.6565  1.2168
  239MOL0     H32223   6.784   3.478   1.000  1.1185  0.7443  1.2028
  239MOL0     H32224   6.930   3.500   0.913  0.7268  0.8807  0.2156
  239MOL0     H32225   6.579   3.554   0.984 -2.7508 -0.4161  0.2778
  239MOL0     H32226   6.386   3.538   1.120 -0.8631 -0.0798 -1.0369
  239MOL0     H32227   6.321   3.691   1.188  1.8589  2.0731 -0.3772
  239MOL0     H32228   6.277   3.635   1.022  0.7186 -0.6494 -0.6700
  239MOL0     H32229   6.335   4.216   1.333 -0.1621 -1.7678  0.1286
  239MOL0     H32230   6.134   4.365   1.386  1.7827  2.8944 -2.0512
  239MOL0     H32231   5.830   4.428   1.091  0.7377 -3.8072 -0.0649
  239MOL0     H32232   5.760   4.294   1.170  1.5485 -1.0367  1.8296
  239MOL0     H32233   5.674   4.439   1.353 -1.8224 -0.4114 -1.3093
  239MOL0     H32234   5.760   4.577   1.285 -1.8054  0.6116  2.5751
  239MOL0     H32235   5.523   4.405   1.187  1.3036 -0.6506 -1.3651
  239MOL0     H32236   5.612   4.503   1.071  1.2819 -0.9328  0.8011
  239MOL0     H32237   5.442   4.605   1.315 -3.4479  0.1223 -1.4876
  239MOL0     H32238   5.554   4.708   1.221  2.6556 -0.8774 -1.0675
  239MOL0     H32239   5.317   4.546   1.097 -0.0694 -0.5830 -0.6911
  239MOL0     H32240   5.419   4.656   1.019 -0.0519 -3.4262 -1.4916
  239MOL0     H32241   5.239   4.724   1.256  0.0255 -0.1918  0.0587
  239MOL0     H32242   5.355   4.839   1.180 -0.6710  0.7527 -0.7825
  239MOL0     H32243   5.079   4.764   1.091 -0.8033  1.4051  1.0370
  239MOL0     H32244   5.201   4.783   0.961 -2.6942  0.9013 -0.5738
  239MOL0     H32245   5.047   4.984   1.002 -2.5690 -3.5975  1.5724
  239MOL0     H32246   5.219   5.013   1.011 -3.0411  2.9776 -0.9937
  239MOL0     H32247   5.933   4.236   1.037  1.6788 -2.0521 -2.9354
  239MOL0     H32248   6.127   4.114   0.966 -2.3233  3.5687 -2.2041
  239MOL0     H32249   6.568   4.044   1.015 -3.8574 -0.3463 -0.9907
  239MOL0     H32250   6.788   3.909   0.967  0.7486 -2.1135 -0.3029
  239MOL0     H32251   8.592   3.580   1.342  0.9098 -1.3058  0.7156
  239MOL0     H32252   8.805   3.563   1.274 -1.3464 -1.4373  1.3685
  239MOL0     H32253   9.163   3.685   0.936  1.7097  0.7258 -1.3642
  239MOL0     H32254   9.385   3.646   0.852 -1.2501  1.2633  1.9505
  239MOL0     H32255   9.598   3.572   0.810 -1.6671 -0.7933 -0.9402
  239MOL0     H32256   9.598   3.577   0.974 -1.9021  2.4157 -3.4152
  239MOL0     H32257   9.764   3.383   0.819 -1.3904  0.2802  0.6691
  239MOL0     H32258   9.754   3.390   0.999  0.7477 -0.1750  1.1563
  239MOL0     H32259   9.841   3.623   1.009  0.0923  0.9731 -0.5244
  239MOL0     H32260   9.828   3.649   0.841  0.1539 -0.9750 -0.3184
  239MOL0     H32261  10.008   3.467   0.821  0.0780  1.7967 -2.2547
  239MOL0     H32262  10.013   3.455   1.001 -3.8686  0.6265  1.3383
  239MOL0     H32263  10.276   3.768   0.932 -0.9102  1.2320 -0.8648
  239MOL0     H32264   9.324   3.233   0.943  1.0299  0.6431 -0.7313
  239MOL0     H32265   9.119   3.267   1.007 -1.7160  1.5116 -1.2186
  240MOL0     O32266   8.288   4.551   9.809 -0.7029 -0.0419 -0.2538
  240MOL0     C32267   8.371   4.639   9.836 -0.3292 -0.4556  1.0543
  240MOL0     O32268   8.372   4.721   9.949 -0.9575  0.2612 -0.0422
  240MOL0     C32269   8.280   4.709  10.044 -0.1662 -0.1754  0.1024
  240MOL0     C32270   8.328   4.711  10.175  0.7525 -0.5107 -0.1018
  240MOL0     C32271   8.241   4.692  10.278  0.1127 -0.9066 -0.1926
  240MOL0     C32272   8.103   4.670  10.254 -0.7856 -0.0539  0.7097
  240MOL0     O32273   8.011   4.648  10.357  0.0231  0.0008 -0.2548
  240MOL0     C32274   8.038   4.728  10.474  0.5399  0.0643 -0.0917
  240MOL0     C32275   7.937   4.714  10.585 -0.9983  0.0009  0.0103
  240MOL0     C32276   7.806   4.793  10.545 -0.3510  0.5740  1.4877
  240MOL0     C32277   7.734   4.857  10.669 -0.1830  0.2245 -0.3701
  240MOL0     C32278   7.609   4.936  10.634  0.2792 -0.5959 -0.0412
  240MOL0     C32279   7.645   5.079  10.591  0.6420  0.5103 -0.0937
  240MOL0     C32280   7.529   5.173  10.594  0.4225  0.1170  0.7830
  240MOL0     C32281   7.473   5.216  10.727 -0.3280  1.0986  0.7357
  240MOL0     N32282   7.348   5.279  10.701 -0.0287 -0.1143 -0.6407
  240MOL0     C32283   7.325   5.406  10.650 -1.3427  0.1194  0.3005
  240MOL0     C32284   7.200   5.439  10.667 -0.2609  0.1538  0.6264
  240MOL0     C32285   7.125   5.562  10.631  0.2148  0.0206 -0.1128
  240MOL0     C32286   7.069   5.568  10.485  0.7126 -0.1466  0.2603
  240MOL0     C32287   6.948   5.466  10.474 -0.3177  0.3995 -0.4832
  240MOL0     C32288   6.819   5.516  10.524 -0.5074  0.1514  0.1008
  240MOL0     O32289   6.714   5.439  10.479 -0.0053  0.2571  0.3439
  240MOL0     C32290   6.590   5.496  10.494  0.2568 -0.2401 -0.3805
  240MOL0     C32291   6.522   5.558  10.384  0.7350  0.7931 -0.1865
  240MOL0     C32292   6.394   5.620  10.401 -0.5605 -0.9419 -0.1510
  240MOL0     C32293   6.329   5.698  10.286 -0.6572  0.8584  0.3098
  240MOL0     C32294   6.345   5.628  10.536 -0.1761 -0.0355  0.8547
  240MOL0     C32295   6.214   5.701  10.572  0.3141 -0.7662  0.7267
  240MOL0     O32296   6.144   5.634  10.673 -0.0087  0.0002 -0.2597
  240MOL0     C32297   6.031   5.700  10.707  0.4640  0.1526  0.5419
  240MOL0     C32298   5.923   5.718  10.620 -0.0134 -0.1899  0.4460
  240MOL0     C32299   5.796   5.762  10.669 -0.0370  0.4642  0.0591
  240MOL0     C32300   5.789   5.790  10.807 -0.3081 -0.2344 -0.1641
  240MOL0     O32301   5.668   5.816  10.870 -0.5930 -0.2422  0.3914
  240MOL0     C32302   5.561   5.856  10.788  0.3458 -0.0899 -0.0041
  240MOL0     C32303   5.448   5.876  10.885  0.2588  0.3825  0.6164
  240MOL0     C32304   5.338   5.962  10.814  0.1586  0.4556  0.2491
  240MOL0     C32305   5.218   6.012  10.896  0.0279 -0.8303 -0.2871
  240MOL0     C32306   5.121   5.895  10.938 -0.0285 -0.2537  0.6340
  240MOL0     C32307   4.977   5.936  10.910  0.1507  0.9896 -0.5312
  240MOL0     C32308   4.879   5.827  10.965  0.1449 -0.2147  0.1304
  240MOL0     C32309   4.737   5.875  10.945 -0.8182  1.1411  0.4426
  240MOL0    Cl32310   4.699   5.907  10.781  0.1846  0.4202  0.1478
  240MOL0     C32311   5.902   5.768  10.891 -0.6567  0.5805  0.7096
  240MOL0     C32312   6.023   5.726  10.842  0.0932 -0.0392 -0.2759
  240MOL0     O32313   6.181   5.806  10.518 -0.2357 -0.7462 -0.2514
  240MOL0     C32314   6.412   5.553  10.641 -0.4114 -0.2404 -0.2347
  240MOL0     C32315   6.534   5.496  10.618  0.2320 -0.2655 -0.9781
  240MOL0     N32316   7.135   5.338  10.731  0.0743  0.0701  0.1622
  240MOL0     N32317   7.228   5.244  10.749  0.2378 -0.2268  0.1018
  240MOL0     C32318   8.055   4.670  10.122  0.3127  0.0768 -0.4850
  240MOL0     C32319   8.144   4.688  10.019  0.0600  0.1531  0.5723
  240MOL0     C32320   8.491   4.651   9.745  1.2139 -0.2958  0.6054
  240MOL0     C32321   8.501   4.579   9.625  0.0015  0.3965  0.8815
  240MOL0     C32322   8.611   4.582   9.542 -0.9702 -0.2768  1.0762
  240MOL0     C32323   8.708   4.682   9.563  0.2494 -0.4842 -0.3506
  240MOL0     O32324   8.814   4.700   9.474  0.0638 -0.4042  0.5120
  240MOL0     C32325   8.886   4.579   9.442  0.7317 -0.2015  0.2828
  240MOL0     C32326   9.005   4.584   9.549  0.1420  0.2495  0.4049
  240MOL0     C32327   9.111   4.692   9.523  0.3827  0.4858 -0.2232
  240MOL0     C32328   9.208   4.663   9.404 -0.6961  0.0131  0.6132
  240MOL0     C32329   9.336   4.749   9.399  0.7445 -0.2286 -0.4367
  240MOL0     C32330   9.439   4.799   9.375  0.1387 -0.4587  0.3099
  240MOL0     C32331   8.703   4.754   9.682 -0.3365 -0.3765  0.3079
  240MOL0     C32332   8.593   4.742   9.772  0.2876  0.3226  0.7418
  240MOL0     H32333   8.436   4.709  10.180  0.7079 -1.4243  1.3775
  240MOL0     H32334   8.274   4.673  10.379 -3.8702  0.0817  1.4724
  240MOL0     H32335   8.136   4.703  10.516  1.5931  1.1882 -1.7806
  240MOL0     H32336   8.053   4.833  10.448 -0.1268 -0.1580 -1.4438
  240MOL0     H32337   7.922   4.610  10.616  1.7031 -1.4554 -3.0736
  240MOL0     H32338   7.992   4.766  10.664 -0.1355  3.2917 -2.5381
  240MOL0     H32339   7.822   4.861  10.461 -1.6083 -1.5948 -0.6500
  240MOL0     H32340   7.743   4.720  10.493  2.8262  1.1715 -3.9703
  240MOL0     H32341   7.697   4.769  10.722 -1.9404  0.9353 -0.3550
  240MOL0     H32342   7.809   4.918  10.719  1.3233 -1.4950 -0.4176
  240MOL0     H32343   7.554   4.877  10.561 -2.3725 -0.2579  1.5593
  240MOL0     H32344   7.553   4.953  10.726  0.3906  3.8104 -0.5416
  240MOL0     H32345   7.728   5.110  10.656  0.3713 -0.9487  0.9972
  240MOL0     H32346   7.692   5.082  10.492  0.5364 -4.1420 -0.5084
  240MOL0     H32347   7.572   5.257  10.539  0.6862 -1.1764 -1.0855
  240MOL0     H32348   7.456   5.129  10.526 -0.4422  0.5176  1.4371
  240MOL0     H32349   7.544   5.279  10.782  1.1542  1.3336 -1.3124
  240MOL0     H32350   7.458   5.122  10.781 -0.1905  0.4436 -0.3370
  240MOL0     H32351   7.409   5.470  10.626 -1.2742 -0.4295 -1.0224
  240MOL0     H32352   7.039   5.563  10.699 -0.7180  0.3685 -1.2539
  240MOL0     H32353   7.191   5.648  10.644 -2.2031  2.1881 -1.2124
  240MOL0     H32354   7.143   5.552  10.406 -2.3862 -0.4827 -2.8014
  240MOL0     H32355   7.027   5.663  10.450  0.7282 -0.6831 -1.2847
  240MOL0     H32356   6.975   5.378  10.534  0.6164  2.2526  2.0161
  240MOL0     H32357   6.930   5.434  10.371 -0.3385 -1.0319 -0.0528
  240MOL0     H32358   6.815   5.614  10.476  0.4223 -0.0214 -0.3548
  240MOL0     H32359   6.823   5.533  10.632  0.0231 -1.7646  0.4236
  240MOL0     H32360   6.577   5.547  10.291 -2.2257 -1.4829 -1.8077
  240MOL0     H32361   6.368   5.799  10.272 -2.3053  1.1774 -3.0195
  240MOL0     H32362   6.349   5.643  10.193 -3.2818  0.7962 -0.2916
  240MOL0     H32363   6.220   5.696  10.293 -0.7082  0.3090 -0.4726
  240MOL0     H32364   5.936   5.692  10.515  0.1305 -3.1827  1.1064
  240MOL0     H32365   5.715   5.751  10.598  1.4462 -0.1715 -1.6434
  240MOL0     H32366   5.577   5.946  10.729 -0.3253  1.1598  1.6367
  240MOL0     H32367   5.536   5.767  10.729 -2.8749  1.5265 -1.3517
  240MOL0     H32368   5.408   5.777  10.909  2.3176 -0.4566  0.8480
  240MOL0     H32369   5.472   5.919  10.983 -2.0205  0.0735  1.3722
  240MOL0     H32370   5.303   5.895  10.735  1.0021 -1.1161  1.1539
  240MOL0     H32371   5.379   6.050  10.764  0.7431 -1.0719 -2.1116
  240MOL0     H32372   5.251   6.059  10.989 -0.4914 -1.2925  0.1338
  240MOL0     H32373   5.167   6.088  10.836  1.3493 -0.2306 -0.6835
  240MOL0     H32374   5.144   5.869  11.041  3.0712  2.0117  0.6442
  240MOL0     H32375   5.134   5.802  10.881  2.0204  1.7667 -2.5392
  240MOL0     H32376   4.951   6.035  10.950 -0.2395  0.9706 -0.7404
  240MOL0     H32377   4.964   5.945  10.802 -0.4484 -0.4977 -0.5986
  240MOL0     H32378   4.901   5.795  11.067 -0.2808 -0.3934  0.1658
  240MOL0     H32379   4.893   5.733  10.911  2.9884 -1.7943  3.2182
  240MOL0     H32380   4.711   5.963  11.004 -1.5717  0.6447  0.8645
  240MOL0     H32381   4.674   5.792  10.978 -0.5179  0.7730  0.1005
  240MOL0     H32382   5.889   5.782  10.998  0.0581 -0.1368  0.8989
  240MOL0     H32383   6.118   5.718  10.894  1.3482  0.3888 -2.3648
  240MOL0     H32384   6.371   5.549  10.741  0.8831 -1.2651  0.2789
  240MOL0     H32385   6.584   5.445  10.700 -1.9779  0.2913  0.8095
  240MOL0     H32386   7.951   4.646  10.105  0.1798  0.3732 -0.1199
  240MOL0     H32387   8.106   4.691   9.917  1.4637 -2.2524 -0.1198
  240MOL0     H32388   8.416   4.526   9.585  0.6333  1.6143 -2.3962
  240MOL0     H32389   8.602   4.540   9.442 -0.7168 -1.4339  1.5296
  240MOL0     H32390   8.829   4.487   9.457  1.8115 -1.5201 -2.7984
  240MOL0     H32391   8.923   4.589   9.339  0.6687 -1.8696  0.0742
  240MOL0     H32392   9.058   4.488   9.555 -0.5039 -0.0973  0.8045
  240MOL0     H32393   8.960   4.608   9.646 -2.0315 -1.3556 -0.1229
  240MOL0     H32394   9.163   4.712   9.617 -0.9110 -5.2823  2.1914
  240MOL0     H32395   9.070   4.788   9.491 -1.3645 -0.9112 -2.4995
  240MOL0     H32396   9.156   4.673   9.309 -2.6082 -2.4463  1.2806
  240MOL0     H32397   9.230   4.556   9.416 -0.0445  0.4209  4.6843
  240MOL0     H32398   9.532   4.846   9.349  0.8629 -1.2383  1.4247
  240MOL0     H32399   8.792   4.811   9.704  0.5198 -2.0361  1.4018
  240MOL0     H32400   8.585   4.803   9.861  1.4028 -3.1212  3.3881
  241MOL0     O32401   2.224  10.945   4.232  0.2040  0.2534  0.3205
  241MOL0     C32402   2.236  10.823   4.267  0.3871  0.1281  0.5964
  241MOL0     O32403   2.142  10.719   4.242 -0.7390 -0.2235  0.0978
  241MOL0     C32404   2.038  10.729   4.158  0.1497  0.4021 -0.1878
  241MOL0     C32405   1.906  10.718   4.205  0.0413  0.3940 -0.4686
  241MOL0     C32406   1.788  10.737   4.126  0.9988 -0.3588 -0.0627
  241MOL0     C32407   1.811  10.763   3.985 -0.8117  0.8264 -0.3201
  241MOL0     O32408   1.704  10.776   3.899 -0.7855  0.0104  0.2177
  241MOL0     C32409   1.703  10.689   3.792 -0.3646  0.7034  0.2858
  241MOL0     C32410   1.567  10.694   3.718 -0.1126  0.2995  0.2358
  241MOL0     C32411   1.452  10.688   3.819  0.1908 -0.0105  0.3431
  241MOL0     C32412   1.324  10.659   3.743  0.0300 -0.3636  0.0503
  241MOL0     C32413   1.200  10.617   3.832  0.2481 -0.0903  0.2123
  241MOL0     C32414   1.171  10.723   3.934  0.3947 -0.1461  0.8542
  241MOL0     C32415   1.123  10.853   3.873  0.0451 -0.1383  0.6339
  241MOL0     C32416   1.053  10.936   3.978 -0.2370  0.1908  0.4344
  241MOL0     N32417   0.921  10.883   4.018  0.2246  0.3431 -0.0812
  241MOL0     C32418   0.798  10.897   3.951 -0.3988 -0.4365  0.1992
  241MOL0     C32419   0.707  10.892   4.048 -0.8493 -0.0899  0.3186
  241MOL0     C32420   0.561  10.939   4.037 -0.3647  0.6659 -0.3579
  241MOL0     C32421   0.465  10.836   4.123  0.7560 -0.7189  0.2845
  241MOL0     C32422   0.334  10.904   4.131  0.4479  0.2477 -0.3561
  241MOL0     C32423   0.238  10.810   4.194  0.5880 -0.1652 -0.2098
  241MOL0     O32424   0.283  10.793   4.332  0.1363  0.3736  0.0090
  241MOL0     C32425   0.198  10.746   4.436 -0.0460 -0.6766 -1.1887
  241MOL0     C32426   0.253  10.726   4.562 -1.2295  1.0635  1.1108
  241MOL0     C32427   0.186  10.667   4.672  0.4050 -0.3168  0.1064
  241MOL0     C32428   0.257  10.641   4.796 -0.9891  0.4619  0.0389
  241MOL0     C32429   0.050  10.638   4.655  0.0602 -0.2127  0.2593
  241MOL0     C32430  -0.030  10.578   4.762 -0.9059 -0.2853 -0.4425
  241MOL0     O32431  -0.156  10.616   4.763  0.4684 -0.3631  0.7714
  241MOL0     C32432  -0.230  10.576   4.875  0.4038 -0.0493 -0.0034
  241MOL0     C32433  -0.199  10.622   5.004 -0.7962 -0.4438 -0.6297
  241MOL0     C32434  -0.281  10.591   5.110  0.6414 -0.0072 -1.0644
  241MOL0     C32435  -0.392  10.499   5.089  0.2345  0.0299 -0.5230
  241MOL0     O32436  -0.476  10.462   5.191 -0.0746  0.0714 -0.1004
  241MOL0     C32437  -0.509  10.566   5.286 -0.3868  0.6000 -0.4796
  241MOL0     C32438  -0.635  10.510   5.355 -0.1280 -0.5981  0.6209
  241MOL0     C32439  -0.674  10.605   5.467  0.3546  0.0118 -0.3888
  241MOL0     C32440  -0.816  10.567   5.513 -0.1901  0.3474 -0.1081
  241MOL0     C32441  -0.852  10.622   5.647  0.3456 -0.4691 -0.5348
  241MOL0     C32442  -0.981  10.561   5.715  0.7368  0.4761  0.8678
  241MOL0     C32443  -1.108  10.588   5.634  0.5987 -0.0529  0.8850
  241MOL0     C32444  -1.234  10.537   5.694 -0.2430 -0.5889  0.1595
  241MOL0    Cl32445  -1.242  10.358   5.685 -0.4188 -0.0376 -0.3839
  241MOL0     C32446  -0.418  10.449   4.959 -0.1191 -0.3096  0.0185
  241MOL0     C32447  -0.335  10.488   4.858 -0.6855  0.2281  0.0569
  241MOL0     O32448   0.016  10.485   4.833  0.0337 -0.7248  0.5670
  241MOL0     C32449  -0.016  10.675   4.531  0.7626  0.3153  0.6896
  241MOL0     C32450   0.067  10.717   4.419  0.1119 -0.3878  0.3662
  241MOL0     N32451   0.773  10.850   4.167  0.3220  0.5471 -0.4070
  241MOL0     N32452   0.895  10.839   4.145  0.1108 -0.4803  0.5729
  241MOL0     C32453   1.944  10.796   3.942  0.0241  0.2550  0.4571
  241MOL0     C32454   2.055  10.767   4.022  0.7148  0.3100 -0.3694
  241MOL0     C32455   2.357  10.785   4.338 -1.0317 -0.9458 -0.5315
  241MOL0     C32456   2.356  10.653   4.397 -0.2261 -0.0250 -0.3430
  241MOL0     C32457   2.469  10.607   4.465  0.4144 -0.2984 -0.3366
  241MOL0     C32458   2.580  10.685   4.496 -0.8220  0.4477  0.8507
  241MOL0     O32459   2.673  10.634   4.589  0.6444  0.3059  0.2418
  241MOL0     C32460   2.807  10.657   4.563  0.4127 -0.7996  0.3568
  241MOL0     C32461   2.893  10.601   4.675 -0.4810 -0.1129  0.4341
  241MOL0     C32462   3.034  10.670   4.683  0.7931 -0.2204  0.1992
  241MOL0     C32463   3.138  10.570   4.736  0.0013 -0.6491  0.0992
  241MOL0     C32464   3.266  10.647   4.759  0.8841  0.6115  0.1824
  241MOL0     C32465   3.366  10.705   4.785 -0.2772  0.5601 -0.3068
  241MOL0     C32466   2.582  10.824   4.446 -0.6290  0.6264 -0.6087
  241MOL0     C32467   2.467  10.872   4.375  0.3721  0.5732 -1.0199
  241MOL0     H32468   1.899  10.688   4.309  1.9249  1.6966  0.0914
  241MOL0     H32469   1.692  10.709   4.169  0.7259  1.2617  0.4776
  241MOL0     H32470   1.781  10.718   3.722  1.5629  1.0765  2.4668
  241MOL0     H32471   1.717  10.584   3.820  0.6902  0.6088 -0.5616
  241MOL0     H32472   1.553  10.787   3.662 -0.8302 -1.0285 -1.8963
  241MOL0     H32473   1.558  10.615   3.643 -0.3230  1.0263 -0.5144
  241MOL0     H32474   1.470  10.616   3.899  1.2260  1.5865  1.6188
  241MOL0     H32475   1.440  10.788   3.862  1.5516 -0.0024  0.7481
  241MOL0     H32476   1.293  10.752   3.694 -1.3124 -0.7911  0.0538
  241MOL0     H32477   1.353  10.593   3.660  0.6687  1.6468 -1.4221
  241MOL0     H32478   1.110  10.591   3.774  0.6200  2.1408 -1.5288
  241MOL0     H32479   1.230  10.534   3.895 -2.8314 -1.1728  0.3960
  241MOL0     H32480   1.095  10.692   4.007 -1.3160 -0.1595 -0.8698
  241MOL0     H32481   1.262  10.744   3.991  3.4880 -1.1869 -3.2301
  241MOL0     H32482   1.201  10.918   3.832 -0.8193 -0.0395 -0.9116
  241MOL0     H32483   1.045  10.826   3.802  1.5155  1.1254 -1.5680
  241MOL0     H32484   1.047  11.033   3.927 -0.3122 -0.2504 -0.4205
  241MOL0     H32485   1.117  10.947   4.066 -0.7159 -1.8390  1.0983
  241MOL0     H32486   0.785  10.939   3.852  0.1415 -1.4540 -0.3183
  241MOL0     H32487   0.546  11.039   4.078 -1.9456  0.8377 -1.2824
  241MOL0     H32488   0.522  10.952   3.935 -0.7820  0.5571 -0.2127
  241MOL0     H32489   0.509  10.819   4.222  1.5094  3.4110  0.8500
  241MOL0     H32490   0.436  10.741   4.079  0.9769 -0.9039  0.5360
  241MOL0     H32491   0.318  10.926   4.025 -3.3050 -1.1809 -0.2433
  241MOL0     H32492   0.322  11.004   4.173  1.7025  0.7786 -1.2046
  241MOL0     H32493   0.234  10.706   4.160  0.3011 -1.2876  2.9414
  241MOL0     H32494   0.142  10.863   4.184  0.4570 -0.5858 -1.4392
  241MOL0     H32495   0.358  10.750   4.573 -0.3500 -1.4344 -0.9175
  241MOL0     H32496   0.359  10.669   4.769 -0.8096 -0.7300 -0.5814
  241MOL0     H32497   0.213  10.695   4.880  3.1394  0.2014  2.6825
  241MOL0     H32498   0.271  10.536   4.824 -0.6835 -1.0564 -4.9164
  241MOL0     H32499  -0.119  10.694   5.018 -0.6019 -0.2493 -2.5075
  241MOL0     H32500  -0.271  10.636   5.208 -0.4749  0.4386 -1.1405
  241MOL0     H32501  -0.423  10.580   5.353  0.1408 -1.8143 -0.5494
  241MOL0     H32502  -0.536  10.663   5.243 -3.4559  1.6341  3.2620
  241MOL0     H32503  -0.707  10.497   5.273  0.8182 -2.8312  0.0709
  241MOL0     H32504  -0.621  10.411   5.399 -1.3219 -0.1355  2.1103
  241MOL0     H32505  -0.667  10.711   5.440 -0.5926 -0.0302 -0.8089
  241MOL0     H32506  -0.609  10.594   5.555  0.9335 -0.3638 -0.8533
  241MOL0     H32507  -0.885  10.587   5.430 -0.4389 -0.1087 -0.0108
  241MOL0     H32508  -0.827  10.460   5.529  0.3177  0.2044 -0.6741
  241MOL0     H32509  -0.852  10.731   5.642  3.8436 -0.3847 -1.1939
  241MOL0     H32510  -0.775  10.597   5.720 -0.4988 -3.2933 -0.4836
  241MOL0     H32511  -0.968  10.455   5.736 -0.8277  0.2136  0.6410
  241MOL0     H32512  -0.999  10.613   5.811  0.3237  2.0342 -0.0107
  241MOL0     H32513  -1.087  10.560   5.530 -0.1401 -0.8377  0.9345
  241MOL0     H32514  -1.120  10.697   5.630 -1.0125 -0.2323  0.1234
  241MOL0     H32515  -1.326  10.564   5.643 -1.0614 -1.6290  1.0384
  241MOL0     H32516  -1.245  10.580   5.793  1.3406  0.5509 -0.1120
  241MOL0     H32517  -0.506  10.385   4.952 -0.1358 -0.2047 -0.8209
  241MOL0     H32518  -0.352  10.464   4.754  0.5949  1.6994 -0.5285
  241MOL0     H32519  -0.122  10.662   4.511  1.3946 -1.5346 -2.0648
  241MOL0     H32520   0.008  10.724   4.328 -0.9925 -1.3175  0.9868
  241MOL0     H32521   1.962  10.817   3.837 -0.6520 -4.8996 -0.9924
  241MOL0     H32522   2.158  10.788   3.994  0.5671 -0.0083 -1.1553
  241MOL0     H32523   2.270  10.590   4.378  0.4226 -0.6775 -1.2076
  241MOL0     H32524   2.472  10.513   4.520 -0.6075  0.9138  1.9820
  241MOL0     H32525   2.834  10.631   4.461 -1.5594 -1.8698  0.0692
  241MOL0     H32526   2.822  10.766   4.566  2.7345 -0.7530 -4.5311
  241MOL0     H32527   2.897  10.493   4.665 -0.4966  0.0011 -1.0750
  241MOL0     H32528   2.850  10.623   4.773 -1.6538 -0.7413  0.0789
  241MOL0     H32529   3.033  10.763   4.740 -3.3671  0.4668 -0.6960
  241MOL0     H32530   3.060  10.694   4.579 -2.2191 -0.5099 -0.7050
  241MOL0     H32531   3.154  10.480   4.676 -0.1274  0.4487 -1.6346
  241MOL0     H32532   3.121  10.534   4.838  3.1007 -0.2929  0.8635
  241MOL0     H32533   3.459  10.757   4.797 -0.3646  0.3350  1.7972
  241MOL0     H32534   2.677  10.877   4.450 -0.1284 -0.2630 -0.4189
  241MOL0     H32535   2.454  10.979   4.360  0.9226  1.1584  2.0262
  242MOL0     O32536   9.312   9.870   1.354  0.5666 -0.0656 -0.3879
  242MOL0     C32537   9.301   9.821   1.235 -0.3630  0.2212 -0.1610
  242MOL0     O32538   9.186   9.759   1.180 -0.4882  0.6871 -0.0346
  242MOL0     C32539   9.065   9.739   1.245 -0.5114  0.8646  0.0746
  242MOL0     C32540   9.030   9.781   1.378  0.5151  0.4328 -0.1017
  242MOL0     C32541   8.912   9.735   1.438  0.5460 -0.2132 -0.0379
  242MOL0     C32542   8.830   9.650   1.361  0.6214  0.1466 -0.0650
  242MOL0     O32543   8.711   9.608   1.426 -0.0190 -0.0868 -0.6007
  242MOL0     C32544   8.665   9.479   1.393 -0.1494 -0.4348 -0.2464
  242MOL0     C32545   8.536   9.459   1.471 -0.7915 -0.4267  0.9966
  242MOL0     C32546   8.414   9.534   1.420 -0.8833  1.0632 -0.3713
  242MOL0     C32547   8.284   9.496   1.491 -0.5192 -0.6989  0.0582
  242MOL0     C32548   8.176   9.577   1.413 -0.1657  0.4209 -0.7247
  242MOL0     C32549   8.041   9.538   1.469 -0.0520  0.4087  0.0735
  242MOL0     C32550   7.923   9.632   1.423 -0.4714  0.2358  0.1610
  242MOL0     C32551   7.785   9.583   1.457 -0.4609  0.9004 -0.2913
  242MOL0     N32552   7.762   9.566   1.599 -0.9149 -0.0409 -0.1337
  242MOL0     C32553   7.712   9.667   1.679 -0.6033 -0.3601 -0.6980
  242MOL0     C32554   7.713   9.608   1.806 -0.0285 -0.7535  0.2704
  242MOL0     C32555   7.682   9.682   1.937  0.3677 -0.0944  0.0400
  242MOL0     C32556   7.526   9.698   1.960 -0.5990  0.1748  0.1900
  242MOL0     C32557   7.456   9.570   2.023 -0.6671 -0.2744 -0.0611
  242MOL0     C32558   7.305   9.578   2.042  0.7489 -0.0851  0.0926
  242MOL0     O32559   7.250   9.633   1.922  0.3354  0.1946  1.1439
  242MOL0     C32560   7.117   9.608   1.887  0.5735  0.6721  0.5645
  242MOL0     C32561   7.022   9.520   1.948  0.2310  0.3860 -0.7839
  242MOL0     C32562   6.884   9.519   1.918 -1.0319 -0.5219 -0.0007
  242MOL0     C32563   6.793   9.424   1.999  0.0566 -0.6032 -0.8302
  242MOL0     C32564   6.828   9.601   1.817 -0.8375 -0.6413  0.4336
  242MOL0     C32565   6.690   9.609   1.761 -0.2007 -0.4161 -0.7358
  242MOL0     O32566   6.658   9.728   1.705  0.5288 -0.0506  0.2394
  242MOL0     C32567   6.535   9.731   1.643  0.1979 -1.6091  0.0569
  242MOL0     C32568   6.505   9.672   1.524  0.2748 -0.7693  0.2282
  242MOL0     C32569   6.383   9.693   1.461  0.6376  0.4958  0.2353
  242MOL0     C32570   6.278   9.766   1.524 -1.2843 -0.3514 -0.4349
  242MOL0     O32571   6.150   9.790   1.480  0.8171 -0.0485  0.1106
  242MOL0     C32572   6.098   9.667   1.433 -0.1556  0.6368 -0.1015
  242MOL0     C32573   5.947   9.672   1.448 -0.0549 -0.2826  0.9810
  242MOL0     C32574   5.890   9.787   1.354 -0.9024  0.0807 -0.1140
  242MOL0     C32575   5.920   9.784   1.211  0.3177 -0.1002  0.2203
  242MOL0     C32576   5.872   9.910   1.131 -0.3895 -0.3037 -0.4994
  242MOL0     C32577   5.722   9.926   1.115 -0.5345  0.1755  0.0895
  242MOL0     C32578   5.705  10.032   1.007 -0.8588 -0.4498  0.1987
  242MOL0     C32579   5.688   9.964   0.872 -0.2138 -0.4915  0.5879
  242MOL0    Cl32580   5.679  10.092   0.754  0.7263 -0.5164 -0.2363
  242MOL0     C32581   6.311   9.834   1.638 -0.4581  0.5926  0.2843
  242MOL0     C32582   6.436   9.819   1.697  0.0852  0.2574  0.5145
  242MOL0     O32583   6.626   9.507   1.764  0.4334  0.2239  0.3160
  242MOL0     C32584   6.925   9.688   1.757 -0.0200 -0.2445  0.5204
  242MOL0     C32585   7.062   9.690   1.786  0.0739  0.1299 -0.7387
  242MOL0     N32586   7.771   9.480   1.798 -0.1362 -0.2842  0.6020
  242MOL0     N32587   7.801   9.458   1.673 -0.4637 -0.0275  0.1144
  242MOL0     C32588   8.860   9.604   1.234  0.1175 -0.4045  0.5294
  242MOL0     C32589   8.986   9.651   1.181  0.0113 -0.0369  1.0599
  242MOL0     C32590   9.414   9.841   1.137 -0.3971 -0.0224 -0.1390
  242MOL0     C32591   9.412   9.773   1.010  0.1515 -1.0262  0.0358
  242MOL0     C32592   9.508   9.810   0.915 -0.2677 -0.1610  0.6321
  242MOL0     C32593   9.611   9.897   0.940 -0.1177 -0.1602 -0.1456
  242MOL0     O32594   9.691   9.942   0.830  0.1796 -0.4153  0.4471
  242MOL0     C32595   9.782  10.056   0.845  0.4950  0.7693  0.2418
  242MOL0     C32596   9.863  10.083   0.724 -0.4713 -1.2202 -0.1726
  242MOL0     C32597   9.956   9.972   0.672 -0.3944  0.9771  0.1391
  242MOL0     C32598   9.893   9.883   0.579  0.5394  0.0183  0.1080
  242MOL0     C32599   9.981   9.774   0.546  0.5268  0.2193  0.4712
  242MOL0     C32600  10.057   9.690   0.502 -0.3019 -0.1831  0.0339
  242MOL0     C32601   9.613   9.956   1.068 -0.7750  0.3877  1.4100
  242MOL0     C32602   9.515   9.933   1.168 -0.6783 -0.2664 -0.3776
  242MOL0     H32603   9.088   9.854   1.435 -2.3748  0.8245  2.6325
  242MOL0     H32604   8.887   9.772   1.537  2.0251  0.4119  0.1278
  242MOL0     H32605   8.638   9.467   1.288 -1.2071 -1.2049  0.0918
  242MOL0     H32606   8.736   9.399   1.415  1.5070  1.4657  1.7287
  242MOL0     H32607   8.513   9.352   1.471  0.1000 -0.6235  0.9087
  242MOL0     H32608   8.561   9.484   1.575  2.0828 -2.7449  0.9739
  242MOL0     H32609   8.426   9.641   1.438 -0.0979  0.6278  1.9400
  242MOL0     H32610   8.401   9.508   1.314  1.0602 -2.4264  0.0888
  242MOL0     H32611   8.261   9.390   1.481 -1.0041 -0.9123  2.7955
  242MOL0     H32612   8.294   9.517   1.598  1.2524 -2.3589  0.2703
  242MOL0     H32613   8.200   9.681   1.433  0.6782  0.6288 -2.5643
  242MOL0     H32614   8.183   9.565   1.304  3.7378 -0.0179 -0.5750
  242MOL0     H32615   8.024   9.436   1.431 -0.2270  0.8922 -1.2033
  242MOL0     H32616   8.037   9.535   1.578 -2.7004  2.2426  0.1043
  242MOL0     H32617   7.934   9.731   1.470 -0.3771 -0.1106  0.8889
  242MOL0     H32618   7.926   9.645   1.315  4.2232 -0.5692 -0.0286
  242MOL0     H32619   7.784   9.493   1.395  1.5244 -0.7567  1.9270
  242MOL0     H32620   7.708   9.653   1.423 -1.3628 -0.5665 -1.3804
  242MOL0     H32621   7.688   9.769   1.651 -0.2023 -0.3851 -1.1487
  242MOL0     H32622   7.722   9.618   2.016  0.4498 -1.3718 -0.9972
  242MOL0     H32623   7.726   9.782   1.932  0.6697 -0.0230  2.6916
  242MOL0     H32624   7.491   9.732   1.862 -0.7246  3.6023  1.2812
  242MOL0     H32625   7.521   9.781   2.031 -0.6632  0.6153 -0.3246
  242MOL0     H32626   7.503   9.537   2.116  0.4815  0.4375 -0.3674
  242MOL0     H32627   7.484   9.497   1.946  2.1309 -0.5664  1.1087
  242MOL0     H32628   7.274   9.632   2.132 -0.2382 -2.9834  1.5918
  242MOL0     H32629   7.266   9.477   2.058 -2.1863  0.6365 -1.7662
  242MOL0     H32630   7.066   9.448   2.017  3.2570  1.7076 -1.1804
  242MOL0     H32631   6.852   9.399   2.087  0.3411 -1.9824 -1.3829
  242MOL0     H32632   6.707   9.472   2.046  2.3406 -0.5514  3.9269
  242MOL0     H32633   6.756   9.343   1.935 -0.5855 -0.8502 -0.1738
  242MOL0     H32634   6.571   9.597   1.482 -1.7877  0.2141 -5.8102
  242MOL0     H32635   6.371   9.640   1.367  0.1135  3.2220 -1.3266
  242MOL0     H32636   6.121   9.646   1.328 -2.2976  0.3580 -0.5505
  242MOL0     H32637   6.124   9.582   1.498 -0.1998  0.5630 -0.1807
  242MOL0     H32638   5.901   9.577   1.420 -2.9387  0.5027  2.6439
  242MOL0     H32639   5.921   9.691   1.553  2.2799  1.5538  1.3054
  242MOL0     H32640   5.911   9.887   1.391 -2.8421  0.3706  0.2994
  242MOL0     H32641   5.781   9.785   1.359 -1.0439 -2.8848 -1.8255
  242MOL0     H32642   6.026   9.763   1.195 -0.3585 -1.5485 -3.3816
  242MOL0     H32643   5.867   9.700   1.165 -0.0349  0.5143 -0.5410
  242MOL0     H32644   5.928   9.891   1.039  1.1943  3.6507 -0.5660
  242MOL0     H32645   5.910  10.005   1.170  2.1990 -1.2562 -0.5199
  242MOL0     H32646   5.678   9.834   1.076 -1.8744  0.2781  1.2493
  242MOL0     H32647   5.677   9.956   1.210 -2.3411  1.1305 -0.9995
  242MOL0     H32648   5.795  10.092   0.992 -1.4544  0.1733 -1.0499
  242MOL0     H32649   5.624  10.105   1.016  0.6729  1.0516  2.9628
  242MOL0     H32650   5.593   9.910   0.875 -0.3222 -0.2640  1.8698
  242MOL0     H32651   5.773   9.895   0.863  1.5382  1.3191  2.0865
  242MOL0     H32652   6.244   9.905   1.687  1.1496  0.0943  3.4506
  242MOL0     H32653   6.457   9.891   1.776  2.1570 -1.5909  1.7475
  242MOL0     H32654   6.890   9.761   1.684 -3.5685 -0.2348  2.0377
  242MOL0     H32655   7.132   9.766   1.753  1.7241 -0.2947  1.5622
  242MOL0     H32656   8.792   9.542   1.177  0.8718 -1.8641  1.1407
  242MOL0     H32657   9.026   9.631   1.083 -1.2964  2.7919 -0.1580
  242MOL0     H32658   9.332   9.706   0.981 -0.0523 -0.9626  0.4325
  242MOL0     H32659   9.494   9.744   0.830 -0.6274 -1.4424  1.6415
  242MOL0     H32660   9.731  10.147   0.877 -1.8399  0.4314 -2.1496
  242MOL0     H32661   9.856  10.037   0.923 -0.4951  0.5094  1.1567
  242MOL0     H32662   9.920  10.173   0.749 -2.7586 -0.3936  2.7219
  242MOL0     H32663   9.804  10.121   0.640  1.0815 -0.0319 -0.7600
  242MOL0     H32664   9.988   9.906   0.753  0.3566 -0.4466 -1.2565
  242MOL0     H32665  10.042  10.010   0.616 -0.0575 -0.1866 -0.1672
  242MOL0     H32666   9.858   9.928   0.486 -0.1590  0.2113  0.4624
  242MOL0     H32667   9.805   9.841   0.629 -0.4925 -0.7115 -2.1736
  242MOL0     H32668  10.123   9.616   0.461 -0.1758  0.5824 -1.2159
  242MOL0     H32669   9.699  10.016   1.092  0.7573 -1.2311  0.2664
  242MOL0     H32670   9.525   9.970   1.269  2.6273 -2.1220  0.1486
  243MOL0     O32671   3.378   2.691   2.696 -0.0985  0.0282 -0.1360
  243MOL0     C32672   3.464   2.642   2.770  0.1422  0.6117  0.5294
  243MOL0     O32673   3.449   2.533   2.847  0.4411  0.3292 -0.2459
  243MOL0     C32674   3.342   2.449   2.826  0.3000 -0.4130 -0.6024
  243MOL0     C32675   3.279   2.411   2.705  0.1676 -0.5098 -0.7465
  243MOL0     C32676   3.156   2.344   2.720  0.2717 -0.6167  0.5329
  243MOL0     C32677   3.104   2.302   2.844 -0.3401  0.7894  0.0487
  243MOL0     O32678   2.981   2.240   2.847  0.0359  0.0809  0.2450
  243MOL0     C32679   2.907   2.261   2.972  0.0323  0.3518 -0.0696
  243MOL0     C32680   2.754   2.237   2.947 -0.6322 -0.3898 -0.7654
  243MOL0     C32681   2.688   2.241   3.085  0.0756 -0.2023  0.2957
  243MOL0     C32682   2.547   2.181   3.077  0.5696 -0.5435 -0.3099
  243MOL0     C32683   2.491   2.165   3.219  0.0732  0.1512  0.0777
  243MOL0     C32684   2.355   2.093   3.237  0.9139  0.8336 -0.0344
  243MOL0     C32685   2.244   2.189   3.172  0.0615 -0.7725 -0.4537
  243MOL0     C32686   2.112   2.162   3.232 -0.4806 -0.2738  0.1046
  243MOL0     N32687   2.011   2.249   3.167  0.6097  0.0224  0.3598
  243MOL0     C32688   1.969   2.231   3.040  0.4864 -0.6684  0.3891
  243MOL0     C32689   1.883   2.335   3.018 -0.5629  0.7405 -1.3070
  243MOL0     C32690   1.822   2.372   2.886 -0.6031  0.4183  0.4543
  243MOL0     C32691   1.678   2.435   2.894 -0.8821  0.3365 -0.1492
  243MOL0     C32692   1.569   2.335   2.931  0.2828 -0.1030  0.1766
  243MOL0     C32693   1.445   2.419   2.957  0.0265 -0.4782 -0.1543
  243MOL0     O32694   1.331   2.338   2.918  0.8075 -0.3716 -0.0230
  243MOL0     C32695   1.204   2.391   2.936 -0.2961 -0.6665 -0.9639
  243MOL0     C32696   1.100   2.317   2.885 -0.0484  0.1734  0.2386
  243MOL0     C32697   0.963   2.357   2.896 -0.4334  0.6232  0.1516
  243MOL0     C32698   0.869   2.260   2.835 -0.1499  1.6142 -0.4787
  243MOL0     C32699   0.931   2.473   2.967  0.0652  0.1116  0.3626
  243MOL0     C32700   0.791   2.532   2.973  0.3951 -0.2418  0.5356
  243MOL0     O32701   0.694   2.488   2.882 -0.0024  0.2056 -0.0519
  243MOL0     C32702   0.565   2.500   2.931 -0.1083  0.1554  0.2401
  243MOL0     C32703   0.532   2.462   3.064 -0.0310  0.1875 -0.3629
  243MOL0     C32704   0.406   2.461   3.114  0.6452 -1.0703 -0.9907
  243MOL0     C32705   0.297   2.499   3.029  0.2362  0.0553 -0.2266
  243MOL0     O32706   0.177   2.482   3.092  0.7155 -0.4651  0.0385
  243MOL0     C32707   0.059   2.529   3.025  0.3394  0.1370 -0.3833
  243MOL0     C32708  -0.050   2.495   3.131 -0.4582 -0.2184 -1.5261
  243MOL0     C32709  -0.188   2.556   3.101  0.2845 -0.1699 -0.8359
  243MOL0     C32710  -0.245   2.509   2.968  0.5683 -0.1902 -0.0308
  243MOL0     C32711  -0.380   2.556   2.939  0.5171  0.4108 -1.4561
  243MOL0     C32712  -0.434   2.502   2.805 -0.1848 -0.3311 -0.2437
  243MOL0     C32713  -0.585   2.536   2.766 -0.6301 -0.0267  0.4623
  243MOL0     C32714  -0.601   2.517   2.619 -0.4637  1.1717  0.5570
  243MOL0    Cl32715  -0.567   2.343   2.583 -0.0911 -0.0354  0.2712
  243MOL0     C32716   0.324   2.546   2.898  0.8617  0.3342 -0.3004
  243MOL0     C32717   0.451   2.539   2.850 -0.2043  0.1129 -0.5932
  243MOL0     O32718   0.775   2.608   3.068  0.1902 -0.0730  0.0437
  243MOL0     C32719   1.039   2.547   3.026  0.4001  0.3640  0.0560
  243MOL0     C32720   1.172   2.514   3.008 -0.2578  0.2178  0.3536
  243MOL0     N32721   1.870   2.403   3.140  0.7305  0.0347  0.7939
  243MOL0     N32722   1.953   2.357   3.221 -0.2453 -0.0470  0.0325
  243MOL0     C32723   3.178   2.328   2.958 -0.2598  0.6921  0.3295
  243MOL0     C32724   3.286   2.415   2.946  0.4688  0.5894  0.2443
  243MOL0     C32725   3.599   2.705   2.772 -0.0909  0.0368  0.4211
  243MOL0     C32726   3.713   2.629   2.822  0.9642  0.8250 -0.3360
  243MOL0     C32727   3.846   2.681   2.820  0.8684 -0.0793  0.3481
  243MOL0     C32728   3.863   2.796   2.741 -0.6421 -0.4471 -0.2704
  243MOL0     O32729   3.998   2.837   2.731 -0.5815  0.3323  0.0125
  243MOL0     C32730   4.042   2.946   2.653  0.6070 -0.3662  0.6856
  243MOL0     C32731   4.198   2.968   2.667  0.3375 -0.1559 -0.8471
  243MOL0     C32732   4.239   3.003   2.812  0.5723 -0.3789  0.6947
  243MOL0     C32733   4.379   3.062   2.811 -0.3369  0.7194  0.5106
  243MOL0     C32734   4.481   2.974   2.758 -0.1775 -0.8495  1.0753
  243MOL0     C32735   4.567   2.914   2.698  0.1794 -0.1581  0.4398
  243MOL0     C32736   3.756   2.869   2.684  0.3384 -0.4596 -0.2102
  243MOL0     C32737   3.630   2.820   2.699 -0.2534 -0.1899 -0.1567
  243MOL0     H32738   3.331   2.442   2.615 -2.1084  2.4791 -1.1774
  243MOL0     H32739   3.102   2.315   2.630  3.4210 -0.6509 -1.5181
  243MOL0     H32740   2.941   2.192   3.049  0.4868  1.9428  1.2335
  243MOL0     H32741   2.923   2.364   3.006  0.2036  1.0667 -2.1668
  243MOL0     H32742   2.708   2.305   2.875 -3.0642 -1.2286 -0.1165
  243MOL0     H32743   2.744   2.134   2.912 -1.9837  0.1347 -2.0154
  243MOL0     H32744   2.757   2.195   3.156  2.6569  0.0640 -1.8676
  243MOL0     H32745   2.668   2.347   3.106  0.3183  0.4284 -2.2230
  243MOL0     H32746   2.485   2.255   3.026  1.4551  0.0663 -0.5304
  243MOL0     H32747   2.535   2.091   3.017 -1.4848  0.1627 -1.0673
  243MOL0     H32748   2.572   2.128   3.283  0.5172  1.7772  0.5015
  243MOL0     H32749   2.476   2.265   3.262 -1.6799  0.6121 -1.4652
  243MOL0     H32750   2.359   1.998   3.185  0.8327  1.4767 -1.2385
  243MOL0     H32751   2.320   2.078   3.340 -3.5640  0.8583 -1.3715
  243MOL0     H32752   2.274   2.293   3.192  0.1671 -0.4649 -2.1096
  243MOL0     H32753   2.253   2.170   3.065 -0.2240 -1.4794 -0.3551
  243MOL0     H32754   2.113   2.186   3.338 -0.5541  1.9381 -0.3508
  243MOL0     H32755   2.085   2.056   3.223  2.9789 -1.1761 -1.3527
  243MOL0     H32756   2.015   2.177   2.959  0.8220  2.7467 -1.9259
  243MOL0     H32757   1.875   2.442   2.821  0.1228  0.5521  1.1784
  243MOL0     H32758   1.813   2.280   2.827 -3.6441 -0.4049  1.9905
  243MOL0     H32759   1.661   2.480   2.796  1.0453  1.6681  0.0734
  243MOL0     H32760   1.680   2.518   2.966 -2.8018 -0.8855  1.4180
  243MOL0     H32761   1.593   2.270   3.016  1.0231  0.7737  0.6512
  243MOL0     H32762   1.546   2.274   2.843 -1.8287  0.1798  0.4998
  243MOL0     H32763   1.441   2.511   2.898 -1.3836  0.6075  1.5430
  243MOL0     H32764   1.444   2.451   3.061 -0.3852  0.7886 -0.5335
  243MOL0     H32765   1.114   2.216   2.849 -1.5276 -0.5723  1.6191
  243MOL0     H32766   0.911   2.170   2.790 -0.8074 -0.4142  2.6051
  243MOL0     H32767   0.803   2.223   2.914 -0.6934  0.1724 -1.5630
  243MOL0     H32768   0.803   2.309   2.764 -0.4616  2.6707  0.4985
  243MOL0     H32769   0.614   2.434   3.130  1.7925 -0.3597 -2.7215
  243MOL0     H32770   0.392   2.429   3.217  1.1287 -1.0912 -0.9313
  243MOL0     H32771   0.050   2.636   3.006  2.2667  0.6856  1.4468
  243MOL0     H32772   0.030   2.483   2.929 -0.2867  3.2330 -1.7955
  243MOL0     H32773  -0.046   2.386   3.146  2.4952  0.0501  0.7088
  243MOL0     H32774  -0.027   2.530   3.232 -2.4675  1.4665 -1.5876
  243MOL0     H32775  -0.170   2.664   3.097  0.9319 -0.2896 -1.4871
  243MOL0     H32776  -0.257   2.518   3.176  0.5787  0.5615 -0.1802
  243MOL0     H32777  -0.185   2.543   2.883  0.7262 -2.0141 -0.7031
  243MOL0     H32778  -0.238   2.401   2.955  0.8115 -0.2701  0.7198
  243MOL0     H32779  -0.369   2.665   2.935  2.9817  0.2540 -0.6143
  243MOL0     H32780  -0.448   2.530   3.020  1.0607 -0.6592 -1.3291
  243MOL0     H32781  -0.360   2.542   2.735  0.3710 -0.8786  0.0231
  243MOL0     H32782  -0.416   2.394   2.805 -0.5109 -0.3902  0.5685
  243MOL0     H32783  -0.601   2.642   2.788  1.8875  0.4614  0.2270
  243MOL0     H32784  -0.650   2.470   2.825  1.9369 -3.2655 -0.0565
  243MOL0     H32785  -0.548   2.589   2.556 -0.0589  0.7316  0.3871
  243MOL0     H32786  -0.705   2.534   2.592  0.2538 -0.0747 -3.8146
  243MOL0     H32787   0.245   2.586   2.836  0.7674 -0.2207 -0.5427
  243MOL0     H32788   0.474   2.565   2.747  1.4513  0.0388 -0.2746
  243MOL0     H32789   1.027   2.637   3.084 -2.7706  0.1440 -0.1015
  243MOL0     H32790   1.258   2.571   3.042  0.7354 -2.1497  2.1324
  243MOL0     H32791   3.140   2.297   3.054  1.1943  0.1825  0.7641
  243MOL0     H32792   3.326   2.468   3.032 -2.5164  2.6309  0.5213
  243MOL0     H32793   3.694   2.533   2.869  0.3972  0.8037 -0.6046
  243MOL0     H32794   3.931   2.624   2.857 -0.6568 -1.6830  1.5897
  243MOL0     H32795   4.034   2.920   2.547  2.2026 -0.3627  0.5425
  243MOL0     H32796   3.984   3.036   2.676  3.5465  2.2367 -1.3837
  243MOL0     H32797   4.222   3.056   2.607  2.1517 -2.0847 -3.1243
  243MOL0     H32798   4.256   2.881   2.635 -0.0326 -0.6680 -0.1754
  243MOL0     H32799   4.226   2.911   2.869 -0.9234 -1.1180 -0.7458
  243MOL0     H32800   4.174   3.079   2.857  1.8972  1.5374 -0.4302
  243MOL0     H32801   4.406   3.096   2.912 -2.1291  0.9863  0.9426
  243MOL0     H32802   4.376   3.144   2.739 -0.1566  1.3612  1.2160
  243MOL0     H32803   4.644   2.860   2.647  2.4724  0.5108  2.9349
  243MOL0     H32804   3.771   2.957   2.621 -0.5560 -0.3527 -0.2788
  243MOL0     H32805   3.550   2.878   2.654  1.1893  2.9770  1.0853
  244MOL0     O32806   7.987   5.979   8.552 -0.2065  0.3502 -0.2604
  244MOL0     C32807   8.090   6.039   8.600  0.7202  0.6872  1.2454
  244MOL0     O32808   8.083   6.138   8.690 -0.4644 -0.4068 -0.1014
  244MOL0     C32809   7.966   6.177   8.766  0.3859 -0.1091 -0.4518
  244MOL0     C32810   7.984   6.217   8.898  0.2333 -0.8416 -0.6162
  244MOL0     C32811   7.878   6.276   8.976  0.3003  0.4549 -0.4623
  244MOL0     C32812   7.748   6.286   8.924  0.0811 -0.2486  0.1258
  244MOL0     O32813   7.643   6.339   9.006 -0.1335 -0.1895  0.3079
  244MOL0     C32814   7.529   6.386   8.943  0.5073 -0.7918  0.2845
  244MOL0     C32815   7.423   6.419   9.052  0.3367 -0.4913 -0.6573
  244MOL0     C32816   7.277   6.449   9.005  0.6584  0.2709 -0.3267
  244MOL0     C32817   7.234   6.607   8.989  0.5271 -0.2299  0.7890
  244MOL0     C32818   7.081   6.630   8.989 -1.2059  0.5132  0.6776
  244MOL0     C32819   7.054   6.778   8.954  0.1949  0.7029  0.0946
  244MOL0     C32820   6.902   6.815   8.947 -0.0069 -0.4532  0.4557
  244MOL0     C32821   6.812   6.773   9.062  1.2415 -0.2410 -0.7367
  244MOL0     N32822   6.677   6.806   9.028  0.0641 -0.0853  0.5389
  244MOL0     C32823   6.588   6.739   8.944 -0.1945 -0.1838 -0.8175
  244MOL0     C32824   6.468   6.807   8.954 -0.3189  0.4667  0.1488
  244MOL0     C32825   6.344   6.747   8.886  0.0192 -0.3428 -0.1480
  244MOL0     C32826   6.204   6.750   8.951  0.4277 -0.9972  0.6776
  244MOL0     C32827   6.097   6.756   8.849  0.6431  0.6919 -0.6749
  244MOL0     C32828   5.960   6.808   8.920  0.6999 -0.6342 -0.4247
  244MOL0     O32829   5.837   6.778   8.845 -0.2330 -0.8177  0.2937
  244MOL0     C32830   5.729   6.857   8.866  0.3250  0.3894  0.0343
  244MOL0     C32831   5.697   6.937   8.984 -0.8683 -0.5234  1.5429
  244MOL0     C32832   5.582   7.014   8.991  0.1081 -0.0275 -1.2006
  244MOL0     C32833   5.567   7.093   9.113 -0.3369  0.0109 -0.2699
  244MOL0     C32834   5.489   7.017   8.884 -0.8806 -0.8881  0.2339
  244MOL0     C32835   5.353   7.071   8.887 -0.4047 -0.6901 -0.4402
  244MOL0     O32836   5.301   7.107   9.016 -0.7266 -0.1565  0.1722
  244MOL0     C32837   5.173   7.154   9.033 -0.3871  0.1541 -0.0139
  244MOL0     C32838   5.158   7.280   9.089  0.7158 -0.8479  0.0882
  244MOL0     C32839   5.022   7.315   9.111 -0.3786 -0.3697  0.1555
  244MOL0     C32840   4.908   7.237   9.071 -0.6244 -0.1590  0.3410
  244MOL0     O32841   4.772   7.265   9.095 -0.0399 -0.5853 -1.0567
  244MOL0     C32842   4.737   7.402   9.062  0.7729 -0.5131  0.3342
  244MOL0     C32843   4.591   7.428   9.095 -0.6691 -0.2704  0.1356
  244MOL0     C32844   4.541   7.415   9.242 -0.0473 -0.0541 -0.4659
  244MOL0     C32845   4.461   7.537   9.281  0.3043  0.6135 -0.0882
  244MOL0     C32846   4.405   7.520   9.431  0.6396 -0.4481  0.3111
  244MOL0     C32847   4.323   7.645   9.474 -0.1052 -0.2033  0.2295
  244MOL0     C32848   4.254   7.610   9.608  0.0678  0.3687  0.2789
  244MOL0     C32849   4.195   7.728   9.679 -0.1421 -0.2524  0.2494
  244MOL0    Cl32850   4.150   7.695   9.853  0.2250 -0.3042  0.0403
  244MOL0     C32851   4.938   7.113   9.017  1.2379  0.4515 -0.0363
  244MOL0     C32852   5.067   7.074   8.998 -0.3674  0.3500  1.0408
  244MOL0     O32853   5.296   7.078   8.782  0.3234  0.1925  0.4812
  244MOL0     C32854   5.523   6.933   8.771  0.1767  0.2237 -0.5400
  244MOL0     C32855   5.646   6.865   8.763  0.3931 -0.1294  0.6058
  244MOL0     N32856   6.477   6.904   9.050 -0.4702 -0.2790  0.1024
  244MOL0     N32857   6.600   6.911   9.081  0.4055 -0.0394  0.1996
  244MOL0     C32858   7.725   6.238   8.792 -0.3498  0.1377 -0.5118
  244MOL0     C32859   7.829   6.186   8.716 -0.4413 -0.0512  0.6670
  244MOL0     C32860   8.211   6.027   8.521 -0.1923 -0.2864 -0.7914
  244MOL0     C32861   8.337   6.032   8.577  0.0377 -0.5230 -0.2208
  244MOL0     C32862   8.446   6.013   8.496  0.2121  0.6227 -0.4677
  244MOL0     C32863   8.439   5.972   8.367 -0.1556 -0.4567  0.3510
  244MOL0     O32864   8.550   5.945   8.298  0.4809 -0.0975  0.0622
  244MOL0     C32865   8.581   6.034   8.192  0.1814  0.1949  0.0052
  244MOL0     C32866   8.720   5.990   8.150 -0.3761 -0.1964  0.3703
  244MOL0     C32867   8.778   6.064   8.027 -0.6209 -0.2477  0.0041
  244MOL0     C32868   8.744   5.993   7.897  0.0271 -0.0264  1.2464
  244MOL0     C32869   8.816   5.863   7.881  0.2664 -0.5563 -0.6519
  244MOL0     C32870   8.877   5.758   7.878  0.4306  0.6575 -0.8822
  244MOL0     C32871   8.316   5.965   8.311  0.0983  0.3977  0.6509
  244MOL0     C32872   8.201   6.002   8.388  0.2751  0.4272  0.5314
  244MOL0     H32873   8.083   6.208   8.941  1.4277  0.0716 -2.9941
  244MOL0     H32874   7.886   6.306   9.080 -0.6365  0.6979 -0.4464
  244MOL0     H32875   7.537   6.480   8.889 -0.7911 -0.0826  1.2848
  244MOL0     H32876   7.489   6.305   8.881  0.5401 -1.0993  0.6571
  244MOL0     H32877   7.419   6.326   9.110 -2.1750  0.7473  1.3581
  244MOL0     H32878   7.452   6.501   9.118  1.0364 -1.3818  0.1605
  244MOL0     H32879   7.248   6.401   8.911  0.2342  0.3856 -0.2577
  244MOL0     H32880   7.216   6.400   9.082  1.3956 -1.9993 -1.0965
  244MOL0     H32881   7.275   6.661   9.075  0.7940  0.9135 -0.0385
  244MOL0     H32882   7.290   6.636   8.899 -1.2299 -3.8937 -1.7434
  244MOL0     H32883   7.036   6.559   8.919 -0.4723  1.5534 -0.9034
  244MOL0     H32884   7.046   6.614   9.091 -2.3705 -0.4524  0.1561
  244MOL0     H32885   7.114   6.839   9.022  2.7268 -1.7656  0.2477
  244MOL0     H32886   7.095   6.788   8.853 -2.7642 -3.2055 -1.8052
  244MOL0     H32887   6.890   6.922   8.928  3.4652 -0.1686 -0.7834
  244MOL0     H32888   6.866   6.767   8.856 -0.0157 -0.9736  0.7289
  244MOL0     H32889   6.838   6.823   9.156 -2.9776 -0.4999  0.7633
  244MOL0     H32890   6.814   6.664   9.070 -0.2926 -0.1513  1.7409
  244MOL0     H32891   6.613   6.651   8.886  1.9588  0.7944 -1.5006
  244MOL0     H32892   6.335   6.816   8.802  1.0842  1.0349  0.8399
  244MOL0     H32893   6.370   6.643   8.862  0.2976 -0.3987  0.3808
  244MOL0     H32894   6.191   6.833   9.020  2.9603 -0.4404  0.5843
  244MOL0     H32895   6.197   6.653   9.002  0.4594 -2.1437 -1.3824
  244MOL0     H32896   6.068   6.658   8.811  0.0418  0.6496 -0.1260
  244MOL0     H32897   6.130   6.824   8.770  2.7500 -0.2525 -0.6754
  244MOL0     H32898   5.969   6.914   8.945 -2.4967 -0.0036 -1.4457
  244MOL0     H32899   5.950   6.755   9.015 -4.7693  0.6657  0.0686
  244MOL0     H32900   5.774   6.929   9.061 -1.2631 -0.1761  1.9746
  244MOL0     H32901   5.662   7.101   9.167  0.3866 -3.2518 -0.8923
  244MOL0     H32902   5.516   7.188   9.095 -0.6898 -0.3913 -1.4485
  244MOL0     H32903   5.484   7.059   9.176  0.0861  0.4113  0.5294
  244MOL0     H32904   5.244   7.341   9.116  0.4630 -1.0983  1.5018
  244MOL0     H32905   5.004   7.409   9.162  0.4413  0.1642 -0.5177
  244MOL0     H32906   4.798   7.483   9.103  0.4684  1.6172 -3.0422
  244MOL0     H32907   4.746   7.404   8.953 -0.6518 -4.0815  0.0253
  244MOL0     H32908   4.584   7.534   9.067 -0.9564  0.1647  1.7396
  244MOL0     H32909   4.520   7.369   9.036 -1.8216  1.9259 -0.8011
  244MOL0     H32910   4.622   7.405   9.316 -1.8739 -0.3857  1.5874
  244MOL0     H32911   4.478   7.326   9.250 -0.6750  0.4448  0.1957
  244MOL0     H32912   4.529   7.622   9.284 -0.8468  1.5781 -0.3385
  244MOL0     H32913   4.386   7.564   9.205  2.1497  0.4617 -2.0688
  244MOL0     H32914   4.486   7.504   9.502  0.3091  1.4738  1.1817
  244MOL0     H32915   4.334   7.437   9.428  0.7804 -0.5820 -2.7280
  244MOL0     H32916   4.393   7.728   9.492  0.2669 -0.2616 -0.9162
  244MOL0     H32917   4.247   7.680   9.404  1.8377  0.9136 -1.4182
  244MOL0     H32918   4.310   7.551   9.682 -0.6769  2.2514  2.4726
  244MOL0     H32919   4.170   7.548   9.577  0.6508 -1.1818  1.6334
  244MOL0     H32920   4.104   7.748   9.622 -0.0931 -0.2860  0.1582
  244MOL0     H32921   4.264   7.812   9.696 -1.2315  0.6086  0.4768
  244MOL0     H32922   4.857   7.043   8.999  1.7269 -0.3759  0.8900
  244MOL0     H32923   5.096   6.977   8.961 -0.1971  1.5279 -2.3010
  244MOL0     H32924   5.456   6.916   8.688 -0.0658  0.7395 -0.4496
  244MOL0     H32925   5.676   6.817   8.670  0.3946 -1.1036  1.0970
  244MOL0     H32926   7.625   6.247   8.749 -0.4424  1.5017 -0.0470
  244MOL0     H32927   7.799   6.142   8.621  2.6317  3.3960 -2.2174
  244MOL0     H32928   8.358   6.062   8.679 -2.0649  1.2983 -0.2631
  244MOL0     H32929   8.544   6.006   8.543  0.5154  0.9487 -1.0335
  244MOL0     H32930   8.522   6.017   8.101 -1.1408 -1.3740  1.1026
  244MOL0     H32931   8.589   6.137   8.226  2.0767 -0.1974  0.8692
  244MOL0     H32932   8.730   5.882   8.135 -1.6856 -0.5106  1.5579
  244MOL0     H32933   8.782   6.003   8.239  1.2703  0.4689 -0.8270
  244MOL0     H32934   8.884   6.065   8.052 -0.2625 -2.1324 -1.2319
  244MOL0     H32935   8.736   6.165   8.029  1.8083  0.8097  1.2601
  244MOL0     H32936   8.774   6.061   7.816  1.0886  1.0693  2.5142
  244MOL0     H32937   8.637   5.977   7.886 -0.1664  0.5142  2.1993
  244MOL0     H32938   8.942   5.673   7.884 -1.8458 -1.0602  1.6938
  244MOL0     H32939   8.296   5.936   8.209  1.6302  0.1707  0.3812
  244MOL0     H32940   8.107   5.994   8.335  0.6434 -0.1964 -0.0334
  245MOL0     O32941   5.452   5.831   5.577 -0.1706  0.3762  0.6281
  245MOL0     C32942   5.499   5.914   5.496  0.9756 -0.4758 -0.1327
  245MOL0     O32943   5.421   5.994   5.416  0.0494 -0.0079 -0.3224
  245MOL0     C32944   5.294   6.015   5.468  0.6471 -0.8770 -0.0815
  245MOL0     C32945   5.270   6.055   5.603  0.3200  0.4620 -0.4057
  245MOL0     C32946   5.145   6.087   5.656  0.7554 -0.3498  0.0371
  245MOL0     C32947   5.036   6.094   5.577 -0.3272 -0.2058 -0.1828
  245MOL0     O32948   4.908   6.139   5.623 -0.0931 -0.3002  0.8475
  245MOL0     C32949   4.793   6.118   5.543  0.7843  0.2149  0.3174
  245MOL0     C32950   4.669   6.179   5.615  0.5287 -1.2781 -0.3409
  245MOL0     C32951   4.544   6.193   5.526  0.3598  0.5764  0.6086
  245MOL0     C32952   4.489   6.053   5.500  0.4699 -0.5908  0.1247
  245MOL0     C32953   4.388   6.052   5.381  1.1621  0.0803 -0.0522
  245MOL0     C32954   4.237   6.074   5.429  0.1017  0.2857 -0.3801
  245MOL0     C32955   4.168   5.952   5.479  0.6892 -0.5892 -0.9345
  245MOL0     C32956   4.109   5.861   5.367 -0.6929  0.6672 -1.1396
  245MOL0     N32957   4.064   5.729   5.412 -0.4447 -0.1233 -0.3186
  245MOL0     C32958   3.950   5.697   5.481  0.0616  0.3990  0.0160
  245MOL0     C32959   3.949   5.557   5.482 -1.0114 -0.3618  0.1610
  245MOL0     C32960   3.841   5.470   5.548 -0.4137 -0.3423  0.1468
  245MOL0     C32961   3.774   5.374   5.438 -0.1330  0.6093  0.2191
  245MOL0     C32962   3.697   5.466   5.340  0.4647  0.2134 -0.1328
  245MOL0     C32963   3.543   5.437   5.336 -0.2027 -0.3221  0.7636
  245MOL0     O32964   3.465   5.485   5.445 -0.2505 -0.6556 -0.1903
  245MOL0     C32965   3.341   5.433   5.435 -0.1914 -0.1081  0.0567
  245MOL0     C32966   3.314   5.302   5.452 -0.5264 -0.3339 -0.1636
  245MOL0     C32967   3.184   5.251   5.441  0.1617 -0.4111  0.4044
  245MOL0     C32968   3.165   5.103   5.482  0.0298  0.0795 -0.2119
  245MOL0     C32969   3.071   5.335   5.414 -0.1793 -0.2758  0.3130
  245MOL0     C32970   2.927   5.290   5.410 -0.3719  0.5057  0.0280
  245MOL0     O32971   2.894   5.163   5.371 -0.3137 -0.2890  0.2678
  245MOL0     C32972   2.760   5.133   5.355  0.0493  0.8007 -0.2046
  245MOL0     C32973   2.712   5.101   5.233  0.1888  0.0626  0.1620
  245MOL0     C32974   2.583   5.044   5.218  0.7542 -0.5798 -0.3930
  245MOL0     C32975   2.505   5.021   5.337 -0.0483 -0.2168 -0.3960
  245MOL0     O32976   2.379   4.977   5.351  0.2232  1.3122  0.6046
  245MOL0     C32977   2.306   4.939   5.233 -0.2802  0.9731 -0.5257
  245MOL0     C32978   2.173   4.883   5.278  0.1378 -0.7319 -0.5074
  245MOL0     C32979   2.089   4.851   5.158  0.5949  0.6394  0.6320
  245MOL0     C32980   1.975   4.764   5.188  0.7103  0.7277 -0.0258
  245MOL0     C32981   1.870   4.756   5.077 -0.2416 -0.4257 -0.8929
  245MOL0     C32982   1.749   4.676   5.121 -0.2344  0.1585  0.0355
  245MOL0     C32983   1.659   4.652   5.005  0.5221 -0.1320  1.1647
  245MOL0     C32984   1.706   4.553   4.903 -0.0261  0.1669 -0.1965
  245MOL0    Cl32985   1.588   4.473   4.804  0.4981 -0.3225 -0.0962
  245MOL0     C32986   2.557   5.061   5.463 -0.7598  0.1902  0.3366
  245MOL0     C32987   2.683   5.117   5.473 -0.0506  0.2233  0.3346
  245MOL0     O32988   2.847   5.378   5.450  0.1948 -0.1229  0.6509
  245MOL0     C32989   3.101   5.469   5.399 -0.3234 -0.3712  0.0153
  245MOL0     C32990   3.233   5.516   5.409  1.0436  0.2487  0.7161
  245MOL0     N32991   4.061   5.508   5.424  0.3297  0.1381 -0.4001
  245MOL0     N32992   4.128   5.614   5.383  0.1526  0.1234 -0.5902
  245MOL0     C32993   5.059   6.071   5.438 -0.3529  0.4622  0.2660
  245MOL0     C32994   5.182   6.030   5.384  0.8808  0.1986  0.6134
  245MOL0     C32995   5.644   5.900   5.466  0.2943  0.2390 -0.0046
  245MOL0     C32996   5.726   5.805   5.536  0.0527 -0.2537 -0.3161
  245MOL0     C32997   5.853   5.789   5.486 -0.7364  0.8911 -0.4367
  245MOL0     C32998   5.894   5.859   5.379 -1.2279  0.2362 -0.4690
  245MOL0     O32999   6.023   5.842   5.324 -0.3704 -1.0447 -0.2235
  245MOL0     C33000   6.069   5.707   5.304 -0.0931 -0.4644 -0.4149
  245MOL0     C33001   6.211   5.702   5.361  0.0817 -0.3797  0.5194
  245MOL0     C33002   6.290   5.599   5.280  0.2005  0.2724  1.0455
  245MOL0     C33003   6.434   5.588   5.332  0.2533 -0.2908  0.3587
  245MOL0     C33004   6.461   5.470   5.413  0.2564  0.2926 -0.8230
  245MOL0     C33005   6.467   5.384   5.501  0.3622 -0.1405  0.5197
  245MOL0     C33006   5.816   5.957   5.318 -0.4169  0.2772 -1.0475
  245MOL0     C33007   5.686   5.976   5.363 -0.2377  0.0793 -0.2325
  245MOL0     H33008   5.350   6.056   5.677 -0.1360  0.9502  0.0833
  245MOL0     H33009   5.127   6.088   5.763  2.1947 -2.0075  0.3315
  245MOL0     H33010   4.812   6.174   5.451 -2.5973  0.7510 -0.1876
  245MOL0     H33011   4.777   6.015   5.510 -0.7160 -0.2466  2.2948
  245MOL0     H33012   4.654   6.130   5.711 -1.8439  1.1598  0.6512
  245MOL0     H33013   4.693   6.283   5.639 -0.5015 -1.3153  0.9506
  245MOL0     H33014   4.473   6.268   5.562  0.6533  1.5351 -0.6984
  245MOL0     H33015   4.581   6.241   5.434  0.4438  1.1519  0.9356
  245MOL0     H33016   4.570   5.986   5.469  0.3889 -1.4703  1.7142
  245MOL0     H33017   4.445   6.013   5.592 -1.7977 -0.9423 -1.0489
  245MOL0     H33018   4.412   6.126   5.304  1.8468  0.5050  0.5644
  245MOL0     H33019   4.398   5.955   5.331  2.2451  0.0762  0.1502
  245MOL0     H33020   4.237   6.147   5.511 -0.2910 -0.0822 -0.0526
  245MOL0     H33021   4.187   6.113   5.340  1.3383 -2.0314 -2.1909
  245MOL0     H33022   4.246   5.898   5.532  0.2295  0.7754  1.2390
  245MOL0     H33023   4.091   5.986   5.549 -0.1575 -0.5612 -1.8564
  245MOL0     H33024   4.190   5.843   5.295 -0.6358 -2.3782 -0.4606
  245MOL0     H33025   4.016   5.903   5.326 -1.0397  0.9515 -0.0772
  245MOL0     H33026   3.865   5.757   5.509 -1.7494 -1.5408 -1.0617
  245MOL0     H33027   3.883   5.405   5.626  2.0586 -1.3514 -1.8648
  245MOL0     H33028   3.766   5.533   5.596 -1.1050 -0.8510 -0.2474
  245MOL0     H33029   3.712   5.298   5.485 -0.5795  1.1299  0.4858
  245MOL0     H33030   3.853   5.321   5.384 -2.3342 -2.2903 -0.3913
  245MOL0     H33031   3.738   5.451   5.240  4.4467  0.2987  1.2969
  245MOL0     H33032   3.711   5.573   5.358  1.0182  0.0545  0.4386
  245MOL0     H33033   3.545   5.327   5.342  1.0117 -0.4047 -0.6037
  245MOL0     H33034   3.499   5.468   5.241  2.4819 -1.0984 -0.8592
  245MOL0     H33035   3.396   5.236   5.481 -0.1881 -0.0242 -0.4045
  245MOL0     H33036   3.168   5.027   5.403 -2.4513 -2.3901  1.8717
  245MOL0     H33037   3.238   5.084   5.561 -0.4767  1.4468  0.6152
  245MOL0     H33038   3.065   5.095   5.526 -0.2741 -0.3906 -0.9744
  245MOL0     H33039   2.777   5.132   5.151 -0.0618  2.9696  0.9725
  245MOL0     H33040   2.547   5.044   5.116 -1.9858  0.0885  0.4956
  245MOL0     H33041   2.291   5.030   5.174 -1.6630  0.4585 -1.0083
  245MOL0     H33042   2.351   4.860   5.173 -1.4853 -1.0175  1.0392
  245MOL0     H33043   2.198   4.794   5.336  1.4808  1.2654  2.1982
  245MOL0     H33044   2.119   4.951   5.344  2.3303 -0.1833  0.8319
  245MOL0     H33045   2.144   4.815   5.071 -1.7230  1.4537 -1.2998
  245MOL0     H33046   2.038   4.945   5.135 -2.3563 -0.4700  2.0720
  245MOL0     H33047   2.011   4.666   5.221 -0.7146  0.5304  1.0556
  245MOL0     H33048   1.925   4.799   5.279 -0.0111 -1.4816  0.4917
  245MOL0     H33049   1.920   4.709   4.991  1.9876  0.2688 -0.0579
  245MOL0     H33050   1.839   4.860   5.064  2.6925  0.6486 -0.2237
  245MOL0     H33051   1.794   4.581   5.152  2.7341  1.8740  1.4776
  245MOL0     H33052   1.693   4.723   5.202  0.6957 -0.1217  0.8735
  245MOL0     H33053   1.632   4.747   4.959 -1.4539 -0.1030  2.2724
  245MOL0     H33054   1.566   4.612   5.047  1.8868 -2.5270  2.1292
  245MOL0     H33055   1.770   4.480   4.954 -0.1147  0.1279 -0.1431
  245MOL0     H33056   1.770   4.619   4.842  0.4987 -0.7573 -0.6629
  245MOL0     H33057   2.491   5.063   5.549 -2.0022  0.1130 -0.5982
  245MOL0     H33058   2.719   5.148   5.571 -2.0257 -3.5412  2.4516
  245MOL0     H33059   3.025   5.545   5.385 -0.2457  0.1026  1.8096
  245MOL0     H33060   3.244   5.623   5.397 -0.7105  0.2944 -0.9443
  245MOL0     H33061   4.982   6.091   5.364  0.0041  0.0099 -0.2378
  245MOL0     H33062   5.178   6.026   5.276  2.2157  2.8667  0.3688
  245MOL0     H33063   5.691   5.756   5.627  1.8486 -1.0032  0.0219
  245MOL0     H33064   5.925   5.720   5.531 -2.0329  1.2115  2.2994
  245MOL0     H33065   6.013   5.631   5.360 -0.2531  0.3870  0.6177
  245MOL0     H33066   6.064   5.683   5.198 -1.5904  4.6309 -1.7585
  245MOL0     H33067   6.208   5.663   5.463 -0.9293 -0.5187  0.4503
  245MOL0     H33068   6.266   5.796   5.356 -1.4816  0.5507 -0.1157
  245MOL0     H33069   6.294   5.620   5.173  1.9767 -2.1654  0.5518
  245MOL0     H33070   6.236   5.504   5.278 -4.1682  2.4762 -2.0393
  245MOL0     H33071   6.455   5.683   5.381 -2.2019  1.2022 -1.2629
  245MOL0     H33072   6.497   5.585   5.243  1.6396 -2.0635  1.3305
  245MOL0     H33073   6.476   5.314   5.582 -2.5312  1.3029  2.2733
  245MOL0     H33074   5.856   6.017   5.236  1.5640  1.5365  0.7306
  245MOL0     H33075   5.620   6.047   5.314 -0.5631  0.5418  0.8441
  246MOL0     O33076   9.811   6.489   7.653  0.0412  0.0882 -0.1838
  246MOL0     C33077   9.716   6.557   7.687 -0.5112  0.2698  0.2965
  246MOL0     O33078   9.591   6.546   7.622 -0.2534  0.3312  0.5991
  246MOL0     C33079   9.555   6.467   7.520  0.3640  0.2751 -0.0062
  246MOL0     C33080   9.631   6.378   7.443  0.8821  0.1952  0.4790
  246MOL0     C33081   9.580   6.302   7.341 -0.4102  0.4502 -0.5559
  246MOL0     C33082   9.444   6.308   7.301 -0.6386  0.0786  0.4013
  246MOL0     O33083   9.385   6.248   7.187 -0.2576  0.1655  0.6453
  246MOL0     C33084   9.469   6.139   7.131 -0.3352 -1.3477  0.1762
  246MOL0     C33085   9.389   6.062   7.022  0.4588 -0.2933  0.7985
  246MOL0     C33086   9.456   5.927   6.998  0.3823 -0.0668 -0.1009
  246MOL0     C33087   9.390   5.848   6.886  0.4886  0.6563  0.1181
  246MOL0     C33088   9.476   5.742   6.823  0.7551  0.0345 -0.4298
  246MOL0     C33089   9.398   5.630   6.749 -0.6595  0.1015 -0.5686
  246MOL0     C33090   9.501   5.519   6.712 -0.1259 -0.7501  0.0517
  246MOL0     C33091   9.431   5.394   6.657 -0.2684  0.2801 -0.0616
  246MOL0     N33092   9.362   5.322   6.765 -0.4099  0.4656  0.0262
  246MOL0     C33093   9.225   5.329   6.779  0.4354 -0.1490 -0.0080
  246MOL0     C33094   9.198   5.286   6.900  0.7555  0.5860 -0.0438
  246MOL0     C33095   9.069   5.297   6.973  0.8909  0.0560  0.5375
  246MOL0     C33096   8.954   5.233   6.889 -0.6639 -0.7553 -0.2693
  246MOL0     C33097   8.822   5.238   6.965 -0.0641  0.4220  0.3508
  246MOL0     C33098   8.745   5.109   6.932 -0.4867 -0.9088 -0.7847
  246MOL0     O33099   8.705   5.110   6.795  0.5594 -0.5652 -0.1461
  246MOL0     C33100   8.578   5.160   6.782  0.1622 -0.2513  1.2820
  246MOL0     C33101   8.559   5.290   6.733 -0.2689 -0.2936 -0.4626
  246MOL0     C33102   8.428   5.334   6.703 -0.0907  0.1320 -0.0678
  246MOL0     C33103   8.423   5.472   6.647 -0.1576 -0.6037 -0.4174
  246MOL0     C33104   8.309   5.248   6.722 -0.5171  0.5549 -0.0923
  246MOL0     C33105   8.169   5.271   6.672  0.1932  0.4402  1.0821
  246MOL0     O33106   8.071   5.194   6.722 -1.1229  0.4700  0.3043
  246MOL0     C33107   7.938   5.222   6.708  0.5781 -0.6791  0.0253
  246MOL0     C33108   7.885   5.352   6.713 -0.2199 -0.2261  0.0470
  246MOL0     C33109   7.745   5.372   6.724  0.5173  0.1357 -0.3880
  246MOL0     C33110   7.652   5.265   6.705  0.3660 -0.2528 -0.3039
  246MOL0     O33111   7.513   5.272   6.701 -0.1854 -0.8406 -0.7808
  246MOL0     C33112   7.448   5.398   6.688 -0.1050 -0.4677 -0.1019
  246MOL0     C33113   7.300   5.377   6.670 -0.7625  0.2960  1.0074
  246MOL0     C33114   7.223   5.510   6.646 -0.9362  0.6920 -0.4035
  246MOL0     C33115   7.128   5.498   6.522  0.3733 -0.7123 -0.6866
  246MOL0     C33116   7.001   5.431   6.565 -0.0869 -0.3223  0.4719
  246MOL0     C33117   6.901   5.445   6.444 -0.2620  0.5092  0.7800
  246MOL0     C33118   6.767   5.377   6.466 -0.4108 -0.1813 -0.0530
  246MOL0     C33119   6.670   5.414   6.366  0.9499 -0.3041 -0.2562
  246MOL0    Cl33120   6.629   5.597   6.382 -0.1866  0.3440  0.1985
  246MOL0     C33121   7.709   5.137   6.702 -0.4124  0.2549  0.0211
  246MOL0     C33122   7.848   5.118   6.705 -0.0379  0.0521 -0.4191
  246MOL0     O33123   8.147   5.358   6.588 -0.9481 -0.0054 -0.3572
  246MOL0     C33124   8.332   5.119   6.778 -0.6810  0.3195  0.1163
  246MOL0     C33125   8.465   5.085   6.804 -0.2241  0.4205 -0.1393
  246MOL0     N33126   9.316   5.235   6.964 -0.4070 -0.5088 -0.0236
  246MOL0     N33127   9.415   5.262   6.880  0.3163 -0.1950 -0.5225
  246MOL0     C33128   9.366   6.401   7.374  0.2299  0.8896  0.5446
  246MOL0     C33129   9.422   6.479   7.475  0.9677 -0.0659 -0.6124
  246MOL0     C33130   9.737   6.647   7.801  0.0361 -0.0230  0.1583
  246MOL0     C33131   9.624   6.709   7.852  0.0222  0.0046 -0.0193
  246MOL0     C33132   9.638   6.815   7.946 -0.0336  0.3316  0.3181
  246MOL0     C33133   9.765   6.847   8.000  0.5671 -1.0928 -0.5233
  246MOL0     O33134   9.764   6.937   8.110  0.0738  0.1767  1.0979
  246MOL0     C33135   9.880   6.951   8.191 -0.1143  0.2094  0.0001
  246MOL0     C33136   9.871   7.095   8.249  0.1847  0.6071  0.1176
  246MOL0     C33137   9.994   7.139   8.330  0.4321 -0.4619 -0.3507
  246MOL0     C33138  10.126   7.161   8.257  0.1153  0.2841 -0.1685
  246MOL0     C33139  10.232   7.201   8.350  0.4803 -0.1945  0.7871
  246MOL0     C33140  10.303   7.255   8.429  0.0832 -0.6094  0.1493
  246MOL0     C33141   9.877   6.785   7.951  0.3828 -0.0697  0.1464
  246MOL0     C33142   9.863   6.682   7.857 -0.1556 -0.2265  0.8763
  246MOL0     H33143   9.737   6.377   7.468  0.8055 -2.9464  1.2327
  246MOL0     H33144   9.646   6.241   7.281  0.6895  0.0981  0.9624
  246MOL0     H33145   9.559   6.183   7.088 -0.5422  0.6619  1.6609
  246MOL0     H33146   9.492   6.069   7.212 -0.3646 -0.4443  0.9884
  246MOL0     H33147   9.286   6.050   7.056 -0.3657  0.5185 -1.2741
  246MOL0     H33148   9.377   6.123   6.932 -1.1486  1.4635  2.1029
  246MOL0     H33149   9.563   5.947   6.981  0.5733  0.4107  1.5413
  246MOL0     H33150   9.462   5.867   7.089  1.7935  0.4621  0.1810
  246MOL0     H33151   9.312   5.793   6.940  0.3770 -3.8270 -3.8986
  246MOL0     H33152   9.348   5.922   6.817 -3.2506 -0.7193  0.6696
  246MOL0     H33153   9.540   5.789   6.749  1.3831  0.1421  0.1713
  246MOL0     H33154   9.537   5.689   6.897 -0.5519 -0.8068  0.0982
  246MOL0     H33155   9.328   5.589   6.823  2.9584 -0.8317  2.6932
  246MOL0     H33156   9.345   5.673   6.664 -1.8317  1.5176  0.8291
  246MOL0     H33157   9.576   5.551   6.638  0.3073 -1.1350  0.3221
  246MOL0     H33158   9.555   5.492   6.803 -0.3035  0.9553  0.7004
  246MOL0     H33159   9.509   5.329   6.618  1.2163 -0.0668  3.1332
  246MOL0     H33160   9.362   5.399   6.573  0.3206  4.3229 -0.4992
  246MOL0     H33161   9.164   5.397   6.719  0.7671  0.4420  0.3103
  246MOL0     H33162   9.063   5.235   7.063 -2.1781 -2.3679 -1.1553
  246MOL0     H33163   9.048   5.402   6.995 -1.5383 -0.4333  0.8230
  246MOL0     H33164   8.994   5.132   6.877  3.6668  0.5244  1.1957
  246MOL0     H33165   8.938   5.280   6.791  1.1435 -0.7181 -0.5821
  246MOL0     H33166   8.753   5.322   6.948 -2.1714 -1.2246  0.2348
  246MOL0     H33167   8.829   5.240   7.074 -0.2139  0.0863  0.3676
  246MOL0     H33168   8.659   5.111   7.001 -0.4782 -0.3475 -0.7827
  246MOL0     H33169   8.807   5.023   6.958 -0.8960 -0.7237  1.0077
  246MOL0     H33170   8.641   5.358   6.710 -0.3774 -0.1576 -0.4520
  246MOL0     H33171   8.338   5.517   6.700 -2.1273 -4.8638  0.4890
  246MOL0     H33172   8.514   5.532   6.653 -1.1381  1.2684 -2.5896
  246MOL0     H33173   8.406   5.457   6.540  0.7575 -1.8362 -0.4133
  246MOL0     H33174   7.941   5.444   6.712  0.3335 -0.4871  2.3813
  246MOL0     H33175   7.717   5.473   6.750 -0.6108 -0.4161  0.6400
  246MOL0     H33176   7.467   5.469   6.769  0.1232  1.5335 -1.8231
  246MOL0     H33177   7.495   5.449   6.604 -1.2985 -1.3282 -1.3276
  246MOL0     H33178   7.286   5.293   6.602  1.1876  0.4944  0.2782
  246MOL0     H33179   7.264   5.347   6.768 -1.4392 -1.3337  0.2946
  246MOL0     H33180   7.293   5.588   6.617 -0.4703  1.2935  2.0938
  246MOL0     H33181   7.160   5.540   6.730  1.9420  1.8799  1.4745
  246MOL0     H33182   7.116   5.595   6.475 -0.4754 -2.4307 -4.3641
  246MOL0     H33183   7.179   5.437   6.447  0.2278 -1.8946  0.1375
  246MOL0     H33184   6.938   5.474   6.643  1.2312  0.3288  1.2048
  246MOL0     H33185   7.012   5.322   6.569  1.7761 -0.2966 -1.5447
  246MOL0     H33186   6.889   5.551   6.417  0.3411  0.4366  0.2168
  246MOL0     H33187   6.950   5.398   6.358  1.2912  2.5530  0.4762
  246MOL0     H33188   6.724   5.400   6.563  1.5465  0.2032  0.7827
  246MOL0     H33189   6.782   5.268   6.467  0.0564 -0.1210  0.6076
  246MOL0     H33190   6.575   5.361   6.376 -0.2832  2.0166  1.5249
  246MOL0     H33191   6.709   5.400   6.265 -2.7366  0.4389 -1.9462
  246MOL0     H33192   7.653   5.045   6.689  2.1154 -1.3197 -0.5072
  246MOL0     H33193   7.898   5.022   6.717  1.2345  0.8505  1.1012
  246MOL0     H33194   8.257   5.043   6.796  0.5813 -0.6021  1.8901
  246MOL0     H33195   8.483   4.985   6.844 -0.3495  0.3764 -0.1936
  246MOL0     H33196   9.263   6.416   7.344 -0.8129 -1.6012  2.5501
  246MOL0     H33197   9.360   6.548   7.531 -1.4018 -1.5103 -1.3191
  246MOL0     H33198   9.527   6.679   7.815 -0.7235  1.9748  0.1872
  246MOL0     H33199   9.558   6.871   7.993  0.3334  2.7040 -1.6528
  246MOL0     H33200   9.883   6.875   8.270 -0.1631  1.7267  1.5296
  246MOL0     H33201   9.969   6.952   8.128 -1.9363  1.0613 -2.7719
  246MOL0     H33202   9.789   7.095   8.321 -0.9929 -0.6428 -1.1549
  246MOL0     H33203   9.850   7.170   8.172  0.2253 -1.1920 -1.7592
  246MOL0     H33204  10.014   7.067   8.409  1.7151 -0.3145 -0.5110
  246MOL0     H33205   9.964   7.228   8.386 -0.2367 -1.3958  0.8153
  246MOL0     H33206  10.116   7.241   8.183  0.9611 -0.6520 -1.3262
  246MOL0     H33207  10.155   7.074   8.198 -0.1429 -0.1748  0.3675
  246MOL0     H33208  10.359   7.302   8.507 -0.4306 -0.7447  0.6101
  246MOL0     H33209   9.979   6.784   7.989 -0.1536  0.0708  1.6644
  246MOL0     H33210   9.952   6.632   7.819 -0.1774 -0.7714  1.5260
  247MOL0     O33211  10.257   6.020   3.626  0.8095  0.0790 -0.2167
  247MOL0     C33212  10.272   5.901   3.593 -0.4439  1.0652  0.7033
  247MOL0     O33213  10.179   5.804   3.575  0.2274  0.0060  0.3027
  247MOL0     C33214  10.046   5.823   3.592 -0.3827 -0.5223 -0.3917
  247MOL0     C33215   9.979   5.943   3.586  0.0328  0.3509  0.0058
  247MOL0     C33216   9.848   5.948   3.619 -0.2843 -0.3106  0.3534
  247MOL0     C33217   9.771   5.831   3.649 -0.9918 -0.4268 -0.1269
  247MOL0     O33218   9.641   5.834   3.689  0.0049 -0.7103  0.4014
  247MOL0     C33219   9.579   5.958   3.707  0.6845 -0.0078 -0.0316
  247MOL0     C33220   9.431   5.924   3.741  0.5879  0.2663 -0.2464
  247MOL0     C33221   9.352   6.049   3.799  1.0266  0.4342 -0.7628
  247MOL0     C33222   9.217   6.009   3.858 -1.2615  1.0681  0.0653
  247MOL0     C33223   9.120   5.969   3.752  0.6674 -0.2718  0.1847
  247MOL0     C33224   8.986   5.970   3.817  0.0724 -0.1173  0.5093
  247MOL0     C33225   8.875   5.930   3.737 -0.5063  0.0530 -0.0688
  247MOL0     C33226   8.839   6.048   3.642  1.4954  0.3377  0.3664
  247MOL0     N33227   8.698   6.053   3.592 -0.3523  0.3033  0.6168
  247MOL0     C33228   8.643   5.948   3.524 -0.0184 -0.9839 -0.4342
  247MOL0     C33229   8.522   5.991   3.477 -0.3772  0.6272  0.4564
  247MOL0     C33230   8.418   5.912   3.390  0.2332 -0.3124 -0.6343
  247MOL0     C33231   8.478   5.883   3.247  0.5410 -0.6041  0.1348
  247MOL0     C33232   8.386   5.777   3.174 -0.4288  0.5283 -1.1629
  247MOL0     C33233   8.242   5.828   3.159 -0.3751 -0.6294 -0.0347
  247MOL0     O33234   8.239   5.951   3.075  0.2970  0.1306 -0.9686
  247MOL0     C33235   8.119   5.998   3.045  0.4888 -0.0573 -0.1983
  247MOL0     C33236   8.019   5.930   2.965 -0.5554  0.8333  0.1612
  247MOL0     C33237   7.899   5.993   2.925 -0.3181 -0.2529 -0.2664
  247MOL0     C33238   7.801   5.903   2.857 -0.7381 -0.4775  0.6902
  247MOL0     C33239   7.881   6.130   2.957  0.1306  0.7275 -0.3415
  247MOL0     C33240   7.746   6.199   2.930 -0.0639  0.3835  0.1395
  247MOL0     O33241   7.705   6.302   3.005 -0.2234 -0.0108  0.1103
  247MOL0     C33242   7.575   6.322   3.046 -0.3115  0.8349  0.9273
  247MOL0     C33243   7.471   6.227   3.040  1.1659  0.5472 -0.1265
  247MOL0     C33244   7.343   6.256   3.093 -0.5247  0.3426  0.1228
  247MOL0     C33245   7.312   6.392   3.139 -0.0121 -0.0226  0.0734
  247MOL0     O33246   7.191   6.437   3.188  0.5622 -0.2726  0.3902
  247MOL0     C33247   7.072   6.378   3.137  0.6524 -0.5790  0.3899
  247MOL0     C33248   6.962   6.486   3.139 -0.0489  0.2217 -0.0034
  247MOL0     C33249   6.918   6.515   3.284 -0.1543 -0.0168 -0.2541
  247MOL0     C33250   6.839   6.647   3.304 -0.1806  0.3151 -0.2374
  247MOL0     C33251   6.848   6.700   3.453 -1.3060  0.2381  0.3115
  247MOL0     C33252   6.771   6.603   3.547  0.8501  0.5051 -0.7865
  247MOL0     C33253   6.862   6.496   3.610  0.7499  0.2479 -1.4833
  247MOL0     C33254   6.797   6.420   3.726  0.0812  0.9371  0.4728
  247MOL0    Cl33255   6.644   6.334   3.666  0.1269  0.2812 -0.4189
  247MOL0     C33256   7.416   6.491   3.136  0.5996  0.7318 -0.3181
  247MOL0     C33257   7.546   6.458   3.080 -0.1340 -0.0267 -0.5912
  247MOL0     O33258   7.700   6.157   2.824  0.0735  0.8474  0.2214
  247MOL0     C33259   7.980   6.194   3.031 -1.3080  0.3739 -0.3423
  247MOL0     C33260   8.094   6.131   3.074 -0.2807 -0.3318 -0.1251
  247MOL0     N33261   8.509   6.121   3.528  0.4124 -0.6548  0.0660
  247MOL0     N33262   8.612   6.155   3.597  0.5003 -0.5407  0.0941
  247MOL0     C33263   9.836   5.707   3.643  0.4184 -0.0121 -0.2446
  247MOL0     C33264   9.973   5.706   3.612 -0.9789  0.1515  0.1990
  247MOL0     C33265  10.411   5.856   3.573 -0.1172  0.3501 -0.6344
  247MOL0     C33266  10.520   5.948   3.542 -0.6322 -0.9049 -0.0709
  247MOL0     C33267  10.658   5.909   3.544 -0.3348 -0.9947  0.1252
  247MOL0     C33268  10.689   5.776   3.567 -0.0434 -0.0278 -0.4914
  247MOL0     O33269  10.820   5.736   3.553  0.2024 -1.2688  0.2455
  247MOL0     C33270  10.860   5.610   3.601 -0.2760  0.8839  0.1431
  247MOL0     C33271  11.007   5.600   3.593  0.3167 -0.4101  0.2474
  247MOL0     C33272  11.045   5.466   3.652 -0.7809  0.4427  0.0012
  247MOL0     C33273  11.195   5.444   3.647 -0.0739 -0.4247  0.0135
  247MOL0     C33274  11.262   5.542   3.739 -0.3245  0.5011  0.5489
  247MOL0     C33275  11.315   5.622   3.816 -0.1569 -0.7723 -0.0215
  247MOL0     C33276  10.583   5.681   3.587  0.6941  0.6527 -0.3460
  247MOL0     C33277  10.449   5.720   3.586  0.0045 -0.7101  0.2957
  247MOL0     H33278  10.025   6.030   3.541 -0.9133  1.7811  1.6830
  247MOL0     H33279   9.787   6.038   3.613 -1.8188 -1.1127  2.6593
  247MOL0     H33280   9.624   6.022   3.784  0.2697 -0.2732  0.4383
  247MOL0     H33281   9.581   6.020   3.617 -1.2678  0.6611  0.3311
  247MOL0     H33282   9.372   5.901   3.652 -0.1157 -2.6295  0.8548
  247MOL0     H33283   9.432   5.844   3.815  0.8681  1.2233  0.8165
  247MOL0     H33284   9.411   6.096   3.878  2.1173  2.3672 -2.5989
  247MOL0     H33285   9.347   6.130   3.725 -3.0940  1.5910  0.5343
  247MOL0     H33286   9.229   5.937   3.939 -3.4402  1.6222  0.9458
  247MOL0     H33287   9.177   6.092   3.916  0.3031  1.5325  0.5144
  247MOL0     H33288   9.104   6.042   3.673 -5.2888 -2.0386 -0.7618
  247MOL0     H33289   9.138   5.870   3.709 -0.1179  0.8100 -2.8218
  247MOL0     H33290   8.981   5.901   3.901 -2.1754  0.3111  0.7911
  247MOL0     H33291   8.963   6.068   3.861 -2.6422 -1.3944  2.1800
  247MOL0     H33292   8.898   5.833   3.692 -0.8938 -0.3483  0.5769
  247MOL0     H33293   8.795   5.913   3.809  1.7147  4.7876  4.1028
  247MOL0     H33294   8.902   6.041   3.553 -0.3752  2.3243 -1.2225
  247MOL0     H33295   8.851   6.147   3.687 -0.4573  1.1325 -0.7863
  247MOL0     H33296   8.691   5.851   3.516  1.0477 -0.7457  2.2042
  247MOL0     H33297   8.394   5.818   3.440 -1.1776  0.9845  1.3375
  247MOL0     H33298   8.324   5.969   3.384 -0.1771 -0.4999  2.3924
  247MOL0     H33299   8.578   5.840   3.242  1.3194  1.1163  0.1358
  247MOL0     H33300   8.479   5.979   3.194  0.4638  0.5066  2.0505
  247MOL0     H33301   8.393   5.681   3.225 -1.0281  1.3143  0.4805
  247MOL0     H33302   8.428   5.765   3.074 -0.3829  0.5124 -1.1419
  247MOL0     H33303   8.190   5.858   3.250 -1.6088  0.8211 -1.1666
  247MOL0     H33304   8.178   5.751   3.115  0.8395 -0.3514 -2.4761
  247MOL0     H33305   8.044   5.830   2.934  0.6755  0.1631  2.9485
  247MOL0     H33306   7.827   5.798   2.868  0.4429 -0.2913 -0.1897
  247MOL0     H33307   7.695   5.922   2.877 -0.4356  2.2883  0.1515
  247MOL0     H33308   7.808   5.914   2.749 -0.9188  1.0709  0.8129
  247MOL0     H33309   7.494   6.130   2.997 -0.5096  0.4281 -0.7915
  247MOL0     H33310   7.258   6.189   3.086  0.6074 -1.1167 -0.0310
  247MOL0     H33311   7.083   6.337   3.037  0.1956 -2.4083  1.0383
  247MOL0     H33312   7.045   6.291   3.198  0.1203 -0.5123  0.2526
  247MOL0     H33313   7.002   6.580   3.098 -1.2394  1.5756  1.7598
  247MOL0     H33314   6.878   6.462   3.075  0.2721  1.5327 -0.9622
  247MOL0     H33315   7.011   6.531   3.339 -0.5687 -0.1936  0.5187
  247MOL0     H33316   6.872   6.424   3.323 -0.7139  0.3026 -0.1475
  247MOL0     H33317   6.867   6.734   3.244 -1.2595  1.6281  1.0868
  247MOL0     H33318   6.735   6.618   3.284 -0.2081  0.5896 -0.5018
  247MOL0     H33319   6.799   6.797   3.462  0.6923  1.4156 -0.8654
  247MOL0     H33320   6.954   6.708   3.479 -0.8292 -1.8886 -0.6979
  247MOL0     H33321   6.713   6.650   3.628 -0.5705 -2.5230  0.0894
  247MOL0     H33322   6.697   6.551   3.485 -0.0148 -0.7825  1.2086
  247MOL0     H33323   6.945   6.556   3.650 -0.1881  0.1515  0.7787
  247MOL0     H33324   6.897   6.423   3.537  0.0567  2.0001 -3.6697
  247MOL0     H33325   6.772   6.491   3.805  1.0121 -0.3572  2.0075
  247MOL0     H33326   6.870   6.346   3.761 -1.6861 -1.7215 -1.0433
  247MOL0     H33327   7.387   6.586   3.178 -2.2724 -0.9145  1.7747
  247MOL0     H33328   7.629   6.526   3.096 -1.1595  1.0126  0.5494
  247MOL0     H33329   7.960   6.297   3.060 -2.0976  0.1609 -0.1215
  247MOL0     H33330   8.176   6.192   3.110 -0.3782  1.0956 -2.1476
  247MOL0     H33331   9.776   5.622   3.675 -1.5205  1.1594 -0.6225
  247MOL0     H33332  10.021   5.613   3.583 -0.9555  1.1077 -3.2234
  247MOL0     H33333  10.505   6.056   3.537 -0.5912 -0.9189 -0.5500
  247MOL0     H33334  10.722   5.992   3.519 -2.4175  0.5099 -0.4595
  247MOL0     H33335  10.820   5.591   3.701 -1.9261 -2.5069 -1.0020
  247MOL0     H33336  10.818   5.529   3.540  2.0945  0.2096 -0.6817
  247MOL0     H33337  11.044   5.677   3.661  3.7431 -2.3872  0.8703
  247MOL0     H33338  11.054   5.616   3.495  0.8688  0.0213  0.5699
  247MOL0     H33339  10.987   5.389   3.600  0.9200 -2.1079  1.6516
  247MOL0     H33340  11.012   5.459   3.756 -0.6272 -0.9738 -0.0196
  247MOL0     H33341  11.235   5.450   3.545  1.5924 -0.5646  0.6376
  247MOL0     H33342  11.218   5.347   3.693 -2.1339 -0.9098  0.1202
  247MOL0     H33343  11.380   5.673   3.884  0.9579 -0.4021 -1.3197
  247MOL0     H33344  10.603   5.575   3.595  1.8816  0.7179 -2.0617
  247MOL0     H33345  10.364   5.652   3.586  0.1336 -0.9633 -1.9653
  248MOL0     O33346   6.936   6.013   9.559 -0.0564 -0.1793  0.3356
  248MOL0     C33347   6.925   5.898   9.598 -0.3862  0.5883 -0.0301
  248MOL0     O33348   6.809   5.826   9.605 -0.3808 -0.7528 -0.0451
  248MOL0     C33349   6.690   5.881   9.557  0.1954 -0.0008 -0.9421
  248MOL0     C33350   6.654   6.005   9.597  0.1488 -0.5134  0.0274
  248MOL0     C33351   6.525   6.058   9.563  0.6100 -0.5396  0.0556
  248MOL0     C33352   6.433   5.982   9.496 -0.3265  0.2308 -0.1253
  248MOL0     O33353   6.304   6.017   9.476 -0.2679  0.1445 -0.1715
  248MOL0     C33354   6.244   6.003   9.338  0.0744  0.0334 -0.3086
  248MOL0     C33355   6.129   6.096   9.307 -0.5933 -0.5217  0.1706
  248MOL0     C33356   6.002   6.072   9.389  0.3261 -0.0482 -0.1801
  248MOL0     C33357   5.902   6.186   9.384 -0.3772  0.4256  0.6606
  248MOL0     C33358   5.796   6.177   9.492  0.4281 -0.3869  0.1146
  248MOL0     C33359   5.705   6.305   9.465 -0.5589 -0.0832 -0.0047
  248MOL0     C33360   5.572   6.295   9.531 -0.1695 -0.2495  0.5284
  248MOL0     C33361   5.490   6.430   9.545  0.2351 -0.2197 -0.3421
  248MOL0     N33362   5.356   6.402   9.592 -0.2968 -0.0489 -0.1805
  248MOL0     C33363   5.299   6.435   9.714  0.8053  0.2285  0.4255
  248MOL0     C33364   5.164   6.441   9.692 -0.6565  0.2238 -1.0596
  248MOL0     C33365   5.061   6.483   9.795 -0.3478  0.2928 -0.1770
  248MOL0     C33366   4.947   6.566   9.742 -0.5936  0.2736 -0.5356
  248MOL0     C33367   4.834   6.579   9.850  0.1157  0.1953  0.9756
  248MOL0     C33368   4.713   6.674   9.803 -1.3393 -0.1650  0.2888
  248MOL0     O33369   4.623   6.594   9.726 -0.3781 -0.6316  0.2055
  248MOL0     C33370   4.494   6.607   9.756  0.4512 -0.3772 -0.7403
  248MOL0     C33371   4.433   6.731   9.798 -0.5143  0.4735 -0.7785
  248MOL0     C33372   4.299   6.748   9.818 -0.6549  0.3584 -0.5736
  248MOL0     C33373   4.253   6.879   9.871  0.1583 -0.2252  0.1261
  248MOL0     C33374   4.211   6.634   9.810  0.2465 -0.0534  0.7760
  248MOL0     C33375   4.062   6.642   9.824 -0.7298  0.1179  0.8145
  248MOL0     O33376   3.998   6.766   9.844  0.1145  0.8131 -0.0544
  248MOL0     C33377   3.868   6.774   9.910 -1.0328  0.2346 -0.8046
  248MOL0     C33378   3.777   6.860   9.858  0.6395 -0.9605 -0.5681
  248MOL0     C33379   3.649   6.869   9.916  0.2864 -0.1728 -0.1048
  248MOL0     C33380   3.615   6.796  10.031  0.2149  0.0123 -0.1753
  248MOL0     O33381   3.488   6.816  10.080  0.3377 -0.5994 -0.4096
  248MOL0     C33382   3.474   6.796  10.226 -0.1371 -0.6690 -0.1707
  248MOL0     C33383   3.335   6.780  10.274  0.9985 -0.4635  0.0164
  248MOL0     C33384   3.266   6.913  10.280  0.3736  0.6013  0.1381
  248MOL0     C33385   3.141   6.927  10.187  0.8810  0.3038  0.1393
  248MOL0     C33386   3.063   7.059  10.230  0.3746 -0.1621  0.0815
  248MOL0     C33387   3.011   7.057  10.381  0.2377  0.9548  0.5317
  248MOL0     C33388   2.940   6.929  10.423 -0.1617 -0.0239  0.6504
  248MOL0     C33389   2.805   6.962  10.494 -0.0419  0.0728 -0.8512
  248MOL0    Cl33390   2.677   6.996  10.374  0.1279 -0.2303 -0.5221
  248MOL0     C33391   3.707   6.703  10.078  0.0589  0.1633  0.0430
  248MOL0     C33392   3.838   6.689  10.026  1.1393  0.0427  0.1204
  248MOL0     O33393   4.007   6.529   9.817  0.2627 -0.5781 -0.6405
  248MOL0     C33394   4.279   6.514   9.771  0.4566 -0.0274 -0.2320
  248MOL0     C33395   4.411   6.502   9.744 -0.3254 -0.0409  0.3653
  248MOL0     N33396   5.138   6.403   9.568 -0.1535 -1.1504 -0.1018
  248MOL0     N33397   5.256   6.388   9.504 -0.2323  0.2143 -0.3135
  248MOL0     C33398   6.474   5.854   9.454  0.2291 -0.9731  0.1617
  248MOL0     C33399   6.594   5.806   9.492 -0.3448 -0.8239 -0.2431
  248MOL0     C33400   7.053   5.823   9.596  0.1180  0.6444 -0.1775
  248MOL0     C33401   7.051   5.674   9.618  0.4871 -0.6265 -0.4136
  248MOL0     C33402   7.176   5.614   9.621 -0.5246  0.1331  0.4019
  248MOL0     C33403   7.290   5.687   9.595 -1.2610  0.7160 -0.0098
  248MOL0     O33404   7.414   5.619   9.611  0.2736  0.1342 -0.2081
  248MOL0     C33405   7.516   5.623   9.500  0.3970  1.1199 -0.4445
  248MOL0     C33406   7.462   5.535   9.384  1.0641 -0.6178 -0.2345
  248MOL0     C33407   7.448   5.384   9.424  0.0546  0.3518  0.3453
  248MOL0     C33408   7.437   5.284   9.304  0.7221  0.4427  0.6582
  248MOL0     C33409   7.338   5.339   9.204  0.1670  0.7557 -0.1509
  248MOL0     C33410   7.251   5.362   9.130  0.7428  0.6000 -0.0753
  248MOL0     C33411   7.294   5.823   9.568  0.1968  1.0885 -0.0248
  248MOL0     C33412   7.175   5.893   9.568  0.5337 -0.4105 -0.7654
  248MOL0     H33413   6.719   6.062   9.663  0.4955  0.0223 -0.7588
  248MOL0     H33414   6.507   6.161   9.592  1.5028 -1.0852  2.8344
  248MOL0     H33415   6.317   6.023   9.259 -0.4116  0.1389 -0.7356
  248MOL0     H33416   6.205   5.903   9.320 -2.3565  0.9270 -0.3410
  248MOL0     H33417   6.170   6.196   9.323  0.0221 -0.0152 -3.6023
  248MOL0     H33418   6.104   6.097   9.200 -1.6213 -3.7559  0.2812
  248MOL0     H33419   5.947   5.980   9.369  1.4428 -0.6764 -0.4159
  248MOL0     H33420   6.029   6.074   9.495  1.1226  1.1582 -0.3786
  248MOL0     H33421   5.951   6.283   9.392  2.5053 -0.7095 -1.5195
  248MOL0     H33422   5.852   6.164   9.289  0.8959 -2.9834  0.6390
  248MOL0     H33423   5.734   6.088   9.484 -2.4670  1.2195  2.5367
  248MOL0     H33424   5.836   6.181   9.594 -1.2352 -0.5478  0.7936
  248MOL0     H33425   5.760   6.392   9.501 -1.8524  0.6822  0.1882
  248MOL0     H33426   5.683   6.327   9.360 -0.7317  2.7711  0.5499
  248MOL0     H33427   5.510   6.225   9.474 -0.6373 -0.7204  1.5746
  248MOL0     H33428   5.586   6.260   9.634 -0.2578  0.9730  0.9837
  248MOL0     H33429   5.472   6.480   9.450  0.2078 -0.5369 -0.5054
  248MOL0     H33430   5.540   6.494   9.619 -0.1254  0.6474 -0.8379
  248MOL0     H33431   5.346   6.471   9.805  0.2282  1.4923  0.2378
  248MOL0     H33432   5.026   6.394   9.847  0.7286 -0.5511 -0.8452
  248MOL0     H33433   5.103   6.547   9.873 -0.4841 -0.6289  0.6808
  248MOL0     H33434   4.904   6.524   9.651  0.5157  0.7530 -1.3015
  248MOL0     H33435   5.002   6.659   9.725  0.2663  0.3485  2.2557
  248MOL0     H33436   4.880   6.623   9.938  1.9973  1.9966 -0.7891
  248MOL0     H33437   4.785   6.483   9.866 -1.5848  0.5067 -1.6894
  248MOL0     H33438   4.761   6.758   9.753  0.9028 -0.9155  1.0733
  248MOL0     H33439   4.672   6.719   9.893  0.5925  1.9719  0.1949
  248MOL0     H33440   4.499   6.818   9.803 -1.9161  1.6908 -2.2619
  248MOL0     H33441   4.205   6.890   9.968  1.9561  2.2342  0.8531
  248MOL0     H33442   4.336   6.950   9.859  0.2541 -0.4991 -0.9952
  248MOL0     H33443   4.176   6.917   9.804 -1.7325  3.3780  3.8884
  248MOL0     H33444   3.803   6.924   9.775 -0.2052  0.7511  0.4434
  248MOL0     H33445   3.565   6.921   9.870  0.3443 -0.5797 -0.6818
  248MOL0     H33446   3.523   6.703  10.256  0.0729  0.0634  1.9316
  248MOL0     H33447   3.530   6.875  10.276 -0.5978  0.2473 -1.0697
  248MOL0     H33448   3.287   6.699  10.218 -1.7125  1.5449 -0.7561
  248MOL0     H33449   3.334   6.756  10.381 -0.9342  1.3173  0.4659
  248MOL0     H33450   3.340   6.988  10.251  1.3371 -0.8243 -1.3253
  248MOL0     H33451   3.229   6.934  10.381 -2.2272  1.9330 -0.9982
  248MOL0     H33452   3.170   6.933  10.082 -0.8162  0.7957 -0.3217
  248MOL0     H33453   3.065   6.851  10.204  1.4893 -0.1735  0.7777
  248MOL0     H33454   2.982   7.091  10.164  2.9053  4.4552 -1.2948
  248MOL0     H33455   3.136   7.141  10.226  3.5986 -2.7480  1.4894
  248MOL0     H33456   3.093   7.092  10.445  2.3344  0.5371 -1.7765
  248MOL0     H33457   2.934   7.135  10.383 -0.3583  0.4657 -1.4795
  248MOL0     H33458   3.014   6.872  10.480  0.1050  1.2927  1.6548
  248MOL0     H33459   2.911   6.872  10.334  1.8052  1.0893 -0.7865
  248MOL0     H33460   2.822   7.037  10.573  4.0328 -0.9739 -0.5339
  248MOL0     H33461   2.769   6.871  10.543 -1.8519  0.7806 -0.7638
  248MOL0     H33462   3.680   6.618  10.140  0.5460 -0.6547 -0.8311
  248MOL0     H33463   3.914   6.634  10.080  0.5077  0.2845  1.2847
  248MOL0     H33464   4.229   6.417   9.769 -1.5173  0.9370 -0.3118
  248MOL0     H33465   4.449   6.407   9.707 -0.0014 -0.1026  0.8490
  248MOL0     H33466   6.404   5.786   9.407  2.9607 -1.2648 -4.0652
  248MOL0     H33467   6.618   5.701   9.474  1.1354 -0.3791 -1.0706
  248MOL0     H33468   6.972   5.601   9.635  0.1767 -0.1595  0.1601
  248MOL0     H33469   7.191   5.512   9.655 -0.0897 -0.3034 -1.0328
  248MOL0     H33470   7.544   5.726   9.479  4.5913  0.7130  1.9691
  248MOL0     H33471   7.605   5.567   9.531 -1.5628 -3.7719 -2.5540
  248MOL0     H33472   7.534   5.535   9.301  0.4535 -1.5318 -0.7842
  248MOL0     H33473   7.369   5.571   9.339  1.4669  3.1309  1.5505
  248MOL0     H33474   7.360   5.372   9.488 -1.7190  2.0497 -1.5986
  248MOL0     H33475   7.534   5.366   9.488  0.7063  2.1323  0.0323
  248MOL0     H33476   7.412   5.184   9.339 -1.2458  0.0047 -1.7106
  248MOL0     H33477   7.535   5.264   9.261  1.1142 -0.4309  1.9137
  248MOL0     H33478   7.173   5.398   9.065  0.2110  2.7517  1.6291
  248MOL0     H33479   7.390   5.868   9.541  0.5960 -1.2279 -2.9485
  248MOL0     H33480   7.175   6.001   9.563 -1.2026 -0.3891 -0.6258
  249MOL0     O33481   2.296   0.178   2.382  0.4331  0.1587  0.5255
  249MOL0     C33482   2.303   0.050   2.371  0.5122  0.0212 -0.0168
  249MOL0     O33483   2.417  -0.025   2.379 -0.0918  0.2612 -0.8175
  249MOL0     C33484   2.545   0.030   2.373  0.3172 -0.0765 -0.2678
  249MOL0     C33485   2.617   0.017   2.252 -0.8736 -0.2450 -0.3858
  249MOL0     C33486   2.754   0.067   2.248 -0.0454  0.2799 -0.1465
  249MOL0     C33487   2.810   0.134   2.354  0.1207  0.1030  0.5553
  249MOL0     O33488   2.943   0.169   2.341  0.5231  0.1865 -0.1548
  249MOL0     C33489   2.988   0.267   2.433  0.1019 -0.0710 -0.6189
  249MOL0     C33490   3.101   0.342   2.357  0.0984 -0.5120 -0.3097
  249MOL0     C33491   3.195   0.413   2.456 -0.4115  0.8486  0.4336
  249MOL0     C33492   3.126   0.518   2.543 -0.0803  0.6538 -0.7092
  249MOL0     C33493   3.107   0.469   2.683 -0.2080 -0.5534 -0.8110
  249MOL0     C33494   3.068   0.595   2.775 -0.2758  0.3259 -0.5068
  249MOL0     C33495   3.012   0.569   2.914 -0.0759 -0.9439  0.7899
  249MOL0     C33496   2.871   0.520   2.896  0.8244  0.4631  0.1161
  249MOL0     N33497   2.816   0.450   3.012  0.2275  0.3564  0.2348
  249MOL0     C33498   2.692   0.380   3.009 -0.5156  0.7439  0.9601
  249MOL0     C33499   2.681   0.336   3.137 -0.3219  0.1822  0.8468
  249MOL0     C33500   2.562   0.272   3.198  0.6049  0.3240  0.1957
  249MOL0     C33501   2.583   0.128   3.253 -0.7906 -0.3245  0.1091
  249MOL0     C33502   2.449   0.072   3.299  0.3136 -0.3996  0.8472
  249MOL0     C33503   2.451  -0.076   3.318  0.5725 -0.2993 -0.0294
  249MOL0     O33504   2.310  -0.116   3.324 -0.0938 -0.5548 -0.4795
  249MOL0     C33505   2.286  -0.245   3.293 -0.1504  0.1054 -1.0144
  249MOL0     C33506   2.176  -0.272   3.206 -0.4058 -0.3385 -0.5719
  249MOL0     C33507   2.142  -0.399   3.157 -0.1939 -0.1378  0.3567
  249MOL0     C33508   2.011  -0.403   3.077  0.4570  0.3511  0.2493
  249MOL0     C33509   2.229  -0.509   3.192 -0.0409 -0.2141 -0.3648
  249MOL0     C33510   2.210  -0.644   3.125  0.5885  0.0082  0.1239
  249MOL0     O33511   2.105  -0.664   3.035  0.1558  0.7635  0.1396
  249MOL0     C33512   2.069  -0.789   2.985  0.4669 -0.1728  1.1133
  249MOL0     C33513   2.066  -0.906   3.060  0.9706  0.1761 -0.7314
  249MOL0     C33514   2.026  -1.028   3.012 -0.1567  0.5954 -0.0474
  249MOL0     C33515   2.004  -1.047   2.869 -0.3779  0.5479  0.1486
  249MOL0     O33516   1.988  -1.169   2.805 -0.2197 -0.0682 -0.1941
  249MOL0     C33517   1.981  -1.282   2.892  0.2552 -0.1984 -0.4912
  249MOL0     C33518   1.896  -1.390   2.831  0.1338 -0.1230 -1.0375
  249MOL0     C33519   1.751  -1.347   2.820  0.2410  0.6094  0.2680
  249MOL0     C33520   1.667  -1.389   2.943  1.1490 -0.6060 -0.3884
  249MOL0     C33521   1.527  -1.320   2.929  0.4222  0.6483 -0.6629
  249MOL0     C33522   1.443  -1.354   3.053 -0.5715 -0.2245  0.2635
  249MOL0     C33523   1.318  -1.266   3.041  0.5579 -0.1776 -0.3627
  249MOL0     C33524   1.200  -1.328   3.120 -0.7259  0.5968 -0.1697
  249MOL0    Cl33525   1.227  -1.331   3.291  0.2326 -0.6010  0.3604
  249MOL0     C33526   2.015  -0.931   2.793  0.0810 -0.2337  0.4409
  249MOL0     C33527   2.042  -0.800   2.844  0.4101  0.3492 -0.1010
  249MOL0     O33528   2.284  -0.732   3.160 -0.9073 -0.6294  0.7877
  249MOL0     C33529   2.335  -0.482   3.273  0.2371  0.1799 -0.1894
  249MOL0     C33530   2.361  -0.356   3.327  0.7345 -0.3741 -0.3682
  249MOL0     N33531   2.791   0.379   3.211  0.2300 -1.1662  0.1707
  249MOL0     N33532   2.868   0.448   3.133 -1.0853 -0.6073 -0.5891
  249MOL0     C33533   2.728   0.155   2.468  0.6175 -0.2512  0.1031
  249MOL0     C33534   2.596   0.112   2.469  1.1610  0.3917  0.0936
  249MOL0     C33535   2.175  -0.021   2.350 -0.5592  0.1033 -0.3483
  249MOL0     C33536   2.044   0.033   2.376 -0.2981  0.0064 -0.4523
  249MOL0     C33537   1.930  -0.042   2.361 -0.5765  0.2084  0.4061
  249MOL0     C33538   1.938  -0.176   2.313  0.1274  0.3755 -0.4837
  249MOL0     O33539   1.832  -0.258   2.298 -0.0079 -0.4737  0.3130
  249MOL0     C33540   1.704  -0.200   2.305  0.8888 -0.7339 -0.7360
  249MOL0     C33541   1.606  -0.312   2.272 -0.0973  0.2753 -0.6882
  249MOL0     C33542   1.585  -0.417   2.384 -0.1624 -0.1780  0.6577
  249MOL0     C33543   1.522  -0.538   2.321  0.4052  0.3818  0.5913
  249MOL0     C33544   1.380  -0.534   2.281  0.1296  0.0351  0.4521
  249MOL0     C33545   1.258  -0.525   2.256  0.4286  0.0230 -0.8921
  249MOL0     C33546   2.070  -0.227   2.286 -0.7205 -0.6737 -0.6284
  249MOL0     C33547   2.186  -0.153   2.304 -0.2862  0.5105 -0.0645
  249MOL0     H33548   2.579  -0.051   2.176 -0.8352 -1.0316  0.2817
  249MOL0     H33549   2.818   0.051   2.161 -0.6780  0.2426 -0.6087
  249MOL0     H33550   2.915   0.343   2.461 -1.2668 -1.3778 -0.5362
  249MOL0     H33551   3.011   0.207   2.522 -1.6885 -2.8945 -1.9017
  249MOL0     H33552   3.169   0.266   2.318 -0.7481 -1.4852  0.0624
  249MOL0     H33553   3.053   0.394   2.274 -0.4415 -0.5342 -0.0199
  249MOL0     H33554   3.247   0.342   2.521  0.4201  1.7757  0.8100
  249MOL0     H33555   3.272   0.471   2.403 -1.1224  0.8274 -0.6425
  249MOL0     H33556   3.195   0.603   2.555  1.6563 -0.9776  1.9379
  249MOL0     H33557   3.025   0.537   2.506 -0.7426 -1.1604  0.0869
  249MOL0     H33558   3.025   0.397   2.689 -1.2456  0.6907  0.7357
  249MOL0     H33559   3.199   0.437   2.731 -0.7519 -0.5715  0.2347
  249MOL0     H33560   3.161   0.651   2.786 -0.1552  0.1567 -0.6460
  249MOL0     H33561   2.999   0.662   2.725  1.6968  2.2124 -0.8485
  249MOL0     H33562   3.066   0.487   2.963 -1.1040 -3.6970 -2.2791
  249MOL0     H33563   3.015   0.656   2.980 -0.5195  0.5882 -1.1085
  249MOL0     H33564   2.862   0.447   2.815 -0.9341 -0.8544  1.4141
  249MOL0     H33565   2.796   0.596   2.874 -0.2970  0.0077  2.1365
  249MOL0     H33566   2.633   0.369   2.919  1.0514  0.3000 -0.0533
  249MOL0     H33567   2.512   0.326   3.278 -2.0283 -1.7151  0.0453
  249MOL0     H33568   2.497   0.268   3.110  0.4236  1.5829  0.2516
  249MOL0     H33569   2.654   0.130   3.336  2.1308 -2.6516 -2.1271
  249MOL0     H33570   2.628   0.064   3.177 -0.4647 -0.2277  0.2193
  249MOL0     H33571   2.368   0.098   3.230  0.9327  1.7430  0.8622
  249MOL0     H33572   2.419   0.127   3.389 -0.8057  2.9480 -1.3702
  249MOL0     H33573   2.511  -0.102   3.406 -0.0342 -3.5521 -0.4268
  249MOL0     H33574   2.504  -0.127   3.236  2.3421 -1.8911  1.9818
  249MOL0     H33575   2.113  -0.186   3.184  1.7419  0.9944 -1.8503
  249MOL0     H33576   1.937  -0.323   3.088 -2.1124 -1.7410 -0.7761
  249MOL0     H33577   2.010  -0.436   2.973 -1.5619 -1.9906  0.9407
  249MOL0     H33578   1.962  -0.491   3.118  1.3335 -0.2441  0.0415
  249MOL0     H33579   2.102  -0.897   3.162  1.6281 -0.5102 -0.8890
  249MOL0     H33580   2.055  -1.107   3.080 -3.3595 -1.4284 -0.8650
  249MOL0     H33581   2.079  -1.324   2.915 -0.8007 -1.9581  1.0640
  249MOL0     H33582   1.938  -1.254   2.989 -1.0115 -0.2296 -1.0247
  249MOL0     H33583   1.935  -1.405   2.730 -0.2881 -4.4401 -0.7365
  249MOL0     H33584   1.910  -1.488   2.877  0.4466 -0.6970 -2.3097
  249MOL0     H33585   1.706  -1.391   2.730  0.5777  1.8741 -0.5363
  249MOL0     H33586   1.742  -1.238   2.816 -2.3629  0.5023  1.2334
  249MOL0     H33587   1.660  -1.498   2.950 -2.0186 -0.4389  0.4910
  249MOL0     H33588   1.711  -1.345   3.033  1.8141  0.8344 -1.3917
  249MOL0     H33589   1.476  -1.340   2.834  0.5192  0.6523 -0.7154
  249MOL0     H33590   1.542  -1.212   2.927  0.2913  0.6577 -1.8003
  249MOL0     H33591   1.412  -1.459   3.055 -0.2718 -0.3081  0.6791
  249MOL0     H33592   1.495  -1.338   3.148 -0.0987 -0.2862  0.0155
  249MOL0     H33593   1.285  -1.256   2.937  1.3750  1.2954 -0.4991
  249MOL0     H33594   1.320  -1.166   3.085  0.2898 -0.8982  1.3644
  249MOL0     H33595   1.188  -1.434   3.095  1.1314 -0.0622  1.4708
  249MOL0     H33596   1.110  -1.270   3.094  0.9123  3.2564 -0.3191
  249MOL0     H33597   2.012  -0.930   2.685 -0.5429  1.4782  0.4394
  249MOL0     H33598   2.059  -0.711   2.784  2.2926 -0.2990 -0.5781
  249MOL0     H33599   2.388  -0.574   3.295 -2.9117 -1.8820 -0.5437
  249MOL0     H33600   2.444  -0.338   3.395 -1.8776  3.5509  2.2351
  249MOL0     H33601   2.754   0.207   2.559 -0.8921  0.8889 -0.0662
  249MOL0     H33602   2.531   0.155   2.544  0.7149  1.3902 -0.8269
  249MOL0     H33603   2.031   0.137   2.404 -1.3122 -0.3085  0.2941
  249MOL0     H33604   1.835   0.008   2.377 -0.7291  0.9379 -2.3167
  249MOL0     H33605   1.667  -0.157   2.399 -0.4432 -0.3942 -1.3825
  249MOL0     H33606   1.692  -0.127   2.224 -0.1949 -1.9677 -1.7427
  249MOL0     H33607   1.648  -0.345   2.177 -1.9278 -1.4783 -0.9317
  249MOL0     H33608   1.508  -0.272   2.244  0.0655  1.8741  0.8224
  249MOL0     H33609   1.527  -0.378   2.468  0.6086  0.2864  0.9860
  249MOL0     H33610   1.682  -0.450   2.423 -0.3930 -1.1674  0.4353
  249MOL0     H33611   1.534  -0.623   2.388  0.7911 -1.1036 -1.2959
  249MOL0     H33612   1.580  -0.565   2.233 -1.0533  0.9594 -0.6064
  249MOL0     H33613   1.156  -0.494   2.248  1.1105  2.3722 -1.2390
  249MOL0     H33614   2.071  -0.332   2.258  0.9264  0.0591 -3.7003
  249MOL0     H33615   2.275  -0.209   2.277 -1.9942 -1.1299 -2.7178
  250MOL0     O33616   7.062   8.200   9.886  0.5381  0.6679 -0.1817
  250MOL0     C33617   7.087   8.140   9.781 -0.3069  0.8049 -0.3893
  250MOL0     O33618   6.990   8.071   9.710  0.7069 -0.2721 -0.1901
  250MOL0     C33619   6.871   8.038   9.771 -0.3214 -1.3785  0.3190
  250MOL0     C33620   6.763   8.130   9.762 -0.1042  1.3300  0.8066
  250MOL0     C33621   6.636   8.096   9.803  0.3745  0.1945 -0.3048
  250MOL0     C33622   6.606   7.962   9.852 -0.2200 -0.5319  0.1515
  250MOL0     O33623   6.489   7.914   9.895 -0.2960 -0.9191 -0.1646
  250MOL0     C33624   6.377   8.003   9.924  0.1677 -0.6764  0.1173
  250MOL0     C33625   6.251   7.924   9.949  0.2446  0.0676 -0.1887
  250MOL0     C33626   6.128   8.014   9.952  1.1310  0.4894  0.0002
  250MOL0     C33627   6.018   7.940  10.014 -0.1939 -0.4036  1.0137
  250MOL0     C33628   5.890   8.028  10.015  0.5954 -0.3090  0.1273
  250MOL0     C33629   5.768   7.940   9.978 -0.3213  0.3286  0.2688
  250MOL0     C33630   5.622   7.995   9.979 -0.0924 -0.5117 -0.2869
  250MOL0     C33631   5.606   8.084   9.859 -0.0444  0.6951 -0.1834
  250MOL0     N33632   5.467   8.132   9.877 -0.2010  0.0213 -0.5127
  250MOL0     C33633   5.423   8.235   9.958  0.9777  0.2017 -0.1066
  250MOL0     C33634   5.288   8.252   9.940  0.3570  0.6038  0.0355
  250MOL0     C33635   5.203   8.357  10.010 -0.7636 -0.2647  0.0879
  250MOL0     C33636   5.053   8.351  10.006 -0.4053  0.0902 -0.4771
  250MOL0     C33637   4.985   8.219  10.049  0.2909  0.7169 -0.0433
  250MOL0     C33638   4.840   8.247  10.085  1.0399 -1.3801 -1.1205
  250MOL0     O33639   4.768   8.125  10.112 -0.7834 -0.2789  0.2653
  250MOL0     C33640   4.638   8.139  10.105 -0.1009  1.2674 -0.3165
  250MOL0     C33641   4.578   8.108   9.989 -0.3464  0.4601 -0.2226
  250MOL0     C33642   4.445   8.134   9.967  0.4595  0.1268  0.7158
  250MOL0     C33643   4.391   8.107   9.828  0.3288  0.3427 -0.0762
  250MOL0     C33644   4.359   8.178  10.075  0.5509 -0.5505  0.0030
  250MOL0     C33645   4.212   8.202  10.072  0.0724 -0.6028 -0.6048
  250MOL0     O33646   4.156   8.234  10.191 -0.1874 -0.0131  0.9190
  250MOL0     C33647   4.025   8.256  10.208  1.0363  0.4295 -0.0471
  250MOL0     C33648   3.965   8.212  10.329 -0.1184 -0.1110  0.7704
  250MOL0     C33649   3.832   8.217  10.355 -0.5738  0.2809 -0.5726
  250MOL0     C33650   3.748   8.271  10.266  0.4035 -0.8693  0.8352
  250MOL0     O33651   3.614   8.285  10.294  0.1901 -0.8074 -0.7529
  250MOL0     C33652   3.535   8.187  10.235  0.6039  0.3227  0.3361
  250MOL0     C33653   3.389   8.241  10.221 -0.1156 -0.5526  0.7661
  250MOL0     C33654   3.299   8.154  10.142 -0.1115  0.9538  0.3099
  250MOL0     C33655   3.156   8.187  10.164 -0.5899 -0.5403 -0.1313
  250MOL0     C33656   3.050   8.116  10.081 -0.3818 -0.8698  0.7310
  250MOL0     C33657   2.924   8.206  10.077  0.3904  0.1458 -0.3237
  250MOL0     C33658   2.828   8.132   9.986  0.5903 -0.0840 -0.5148
  250MOL0     C33659   2.698   8.212   9.969 -0.2522  0.3199 -0.1891
  250MOL0    Cl33660   2.623   8.216  10.123  0.4712  0.0184  0.2708
  250MOL0     C33661   3.791   8.314  10.135 -0.2250 -0.7648 -0.8029
  250MOL0     C33662   3.931   8.309  10.108 -0.2142  0.1669 -0.6794
  250MOL0     O33663   4.155   8.180   9.966 -0.0263 -0.6756  1.2044
  250MOL0     C33664   4.426   8.210  10.192 -0.0461 -0.9740  0.3456
  250MOL0     C33665   4.567   8.193  10.206  0.6605 -0.3170 -0.2052
  250MOL0     N33666   5.253   8.147   9.849  0.6509 -0.3399 -0.1386
  250MOL0     N33667   5.357   8.074   9.814  0.2897  0.1696  0.6881
  250MOL0     C33668   6.717   7.875   9.859  0.3980  0.0218 -0.3463
  250MOL0     C33669   6.843   7.914   9.818 -0.4008  0.6362  0.8249
  250MOL0     C33670   7.230   8.156   9.738  0.5448  0.6382  1.0136
  250MOL0     C33671   7.277   8.118   9.614 -0.4143 -0.1946  0.7702
  250MOL0     C33672   7.413   8.131   9.588  0.5134  0.6712  0.3022
  250MOL0     C33673   7.505   8.183   9.679 -0.7478  0.3265  0.5697
  250MOL0     O33674   7.635   8.210   9.638 -0.2540 -0.0957  0.7976
  250MOL0     C33675   7.724   8.298   9.711  0.2228  0.4997 -0.1477
  250MOL0     C33676   7.810   8.197   9.787 -0.6236 -0.2685 -0.3998
  250MOL0     C33677   7.948   8.260   9.826 -0.7582 -0.4087  0.7221
  250MOL0     C33678   8.036   8.149   9.878  0.2799 -0.6518 -0.4626
  250MOL0     C33679   8.112   8.086   9.778  0.2354  0.1421 -0.0570
  250MOL0     C33680   8.193   8.027   9.707  0.1480  0.3740  0.0372
  250MOL0     C33681   7.454   8.202   9.807 -0.0756  0.2775  0.5327
  250MOL0     C33682   7.317   8.203   9.838 -0.5702 -0.0873 -0.0797
  250MOL0     H33683   6.776   8.229   9.720 -1.3984 -0.1844 -3.6991
  250MOL0     H33684   6.561   8.174   9.791  1.3382  1.1662 -0.2249
  250MOL0     H33685   6.402   8.064  10.011  0.8816  0.0871 -0.6015
  250MOL0     H33686   6.363   8.077   9.845  4.7330 -0.7256 -1.0544
  250MOL0     H33687   6.248   7.835   9.886  2.0246 -1.6701  1.9824
  250MOL0     H33688   6.269   7.887  10.051 -0.6141 -1.3488 -0.5301
  250MOL0     H33689   6.160   8.099  10.013  1.0180  0.0569  0.6680
  250MOL0     H33690   6.096   8.050   9.854  0.2486  4.1440  1.4605
  250MOL0     H33691   5.992   7.848   9.962 -1.5757  0.1991  0.5686
  250MOL0     H33692   6.042   7.903  10.114  2.7688  0.2405  0.6240
  250MOL0     H33693   5.881   8.063  10.118  3.7487 -3.9677  1.9280
  250MOL0     H33694   5.894   8.113   9.947  1.1456  1.4477  2.2339
  250MOL0     H33695   5.785   7.894   9.880 -1.2493  1.1713 -0.3133
  250MOL0     H33696   5.762   7.863  10.055 -0.1299  0.4652  0.4194
  250MOL0     H33697   5.557   7.907   9.985  1.1683 -1.4100  1.0164
  250MOL0     H33698   5.606   8.055  10.069  0.2578 -0.3665 -0.3233
  250MOL0     H33699   5.627   8.035   9.764 -0.5518 -0.0437  0.0760
  250MOL0     H33700   5.677   8.167   9.864 -0.4909  1.1805 -1.5657
  250MOL0     H33701   5.482   8.301  10.021  0.8507  0.4190 -0.2098
  250MOL0     H33702   5.243   8.349  10.112  1.7363 -0.9875 -0.8884
  250MOL0     H33703   5.229   8.453   9.966  1.6875 -1.8075 -2.1267
  250MOL0     H33704   5.023   8.377   9.904  2.0812 -1.9224 -1.8266
  250MOL0     H33705   5.012   8.424  10.076 -0.4644 -0.0369 -0.3780
  250MOL0     H33706   5.019   8.175  10.143 -1.3632 -0.5833 -0.0101
  250MOL0     H33707   4.996   8.150   9.964  4.9006  2.6152 -1.3077
  250MOL0     H33708   4.785   8.311  10.017  1.0879  0.3334  0.3835
  250MOL0     H33709   4.843   8.306  10.177 -1.7728  1.4463 -2.6646
  250MOL0     H33710   4.632   8.045   9.919  0.9317  0.0669  1.0650
  250MOL0     H33711   4.472   8.101   9.755  1.3843 -0.9678  1.1553
  250MOL0     H33712   4.334   8.013   9.835 -0.0616  0.6352  0.7437
  250MOL0     H33713   4.337   8.192   9.786  0.0323 -0.4973 -1.4898
  250MOL0     H33714   4.030   8.171  10.405 -0.1587 -0.1657  0.7757
  250MOL0     H33715   3.798   8.178  10.451 -0.7785  2.9383  0.5148
  250MOL0     H33716   3.571   8.164  10.135 -0.7189 -0.9834  0.1449
  250MOL0     H33717   3.545   8.096  10.294  1.1243  0.7104  0.8689
  250MOL0     H33718   3.347   8.271  10.317  0.0930  1.0458  0.3881
  250MOL0     H33719   3.404   8.330  10.159  2.7739 -0.0373  2.0453
  250MOL0     H33720   3.307   8.049  10.172 -1.9466  0.9361  0.8417
  250MOL0     H33721   3.325   8.156  10.036 -0.4677 -2.8011  0.0138
  250MOL0     H33722   3.128   8.193  10.269  0.1126 -0.3147  0.0508
  250MOL0     H33723   3.163   8.291  10.130  1.0130 -0.5021  0.2338
  250MOL0     H33724   3.033   8.015  10.118  1.7722 -1.4333  0.3406
  250MOL0     H33725   3.078   8.110   9.975 -1.0402 -2.3307  0.6196
  250MOL0     H33726   2.898   8.230  10.181  1.3178  1.2048 -0.3171
  250MOL0     H33727   2.946   8.299  10.024 -0.5800  0.9667  0.6724
  250MOL0     H33728   2.805   8.034  10.029  1.6695  0.2684  0.9497
  250MOL0     H33729   2.868   8.128   9.885  0.2379  0.5237 -0.6870
  250MOL0     H33730   2.630   8.164   9.898 -1.5679 -0.0829  1.3112
  250MOL0     H33731   2.726   8.312   9.934  0.7251  0.1807  0.1515
  250MOL0     H33732   3.727   8.355  10.058  0.3440 -0.4973 -1.1395
  250MOL0     H33733   3.979   8.353  10.021 -0.6793  4.0298  0.7957
  250MOL0     H33734   4.384   8.259  10.279 -1.0784  2.2628 -1.7603
  250MOL0     H33735   4.621   8.213  10.298 -3.3791  0.6866  2.1717
  250MOL0     H33736   6.691   7.779   9.902 -1.1364  0.5199 -0.0869
  250MOL0     H33737   6.927   7.846   9.821 -1.1596 -0.4821 -1.1770
  250MOL0     H33738   7.206   8.076   9.544 -0.5498 -1.2674  1.5163
  250MOL0     H33739   7.453   8.082   9.500 -1.4609 -1.4185  0.4801
  250MOL0     H33740   7.777   8.359   9.637 -0.5405  1.6291  0.2064
  250MOL0     H33741   7.674   8.374   9.771 -2.6536 -2.9171  2.1899
  250MOL0     H33742   7.818   8.108   9.724  0.7600 -0.0680 -0.5411
  250MOL0     H33743   7.755   8.165   9.876 -2.2902  2.6666 -0.2351
  250MOL0     H33744   7.933   8.325   9.913 -2.0557  0.0340  0.1907
  250MOL0     H33745   7.997   8.315   9.745  3.0456 -2.3857  1.4342
  250MOL0     H33746   7.976   8.081   9.939  1.1852 -0.6860  0.4132
  250MOL0     H33747   8.112   8.204   9.935 -0.7439  1.6658 -1.1839
  250MOL0     H33748   8.267   7.975   9.649 -0.2373  0.8403 -0.8948
  250MOL0     H33749   7.520   8.239   9.886 -0.0369  3.3293 -0.8033
  250MOL0     H33750   7.284   8.234   9.936 -0.0365 -0.2046  0.1369
  251MOL0     O33751   6.205   0.902   9.536 -0.3635  0.4814  0.0577
  251MOL0     C33752   6.303   0.970   9.515  0.2429 -0.2739  0.3375
  251MOL0     O33753   6.308   1.105   9.527  0.2826  0.2044  0.3285
  251MOL0     C33754   6.194   1.183   9.544 -0.0924  0.2221 -0.0978
  251MOL0     C33755   6.198   1.282   9.645  0.1857  0.6648  0.4562
  251MOL0     C33756   6.085   1.373   9.662  0.1093  0.5396  1.0040
  251MOL0     C33757   5.958   1.349   9.596 -0.5522 -0.3194  0.0001
  251MOL0     O33758   5.847   1.422   9.630  0.0052 -0.1252  0.4420
  251MOL0     C33759   5.746   1.443   9.535 -0.6499  0.5222  0.9180
  251MOL0     C33760   5.636   1.522   9.596  0.7995 -0.9714 -0.7830
  251MOL0     C33761   5.537   1.596   9.505  0.0188  0.5546 -0.0129
  251MOL0     C33762   5.449   1.693   9.585 -1.0627  0.7720  1.3716
  251MOL0     C33763   5.351   1.766   9.495 -0.1805 -0.5636 -0.8027
  251MOL0     C33764   5.252   1.661   9.442  0.5233 -0.1728  0.8069
  251MOL0     C33765   5.127   1.736   9.380  0.6076 -0.4789 -0.1047
  251MOL0     C33766   5.159   1.822   9.254 -0.4228  0.7191  0.4384
  251MOL0     N33767   5.035   1.885   9.197 -0.1593 -0.2583 -0.7628
  251MOL0     C33768   4.937   1.819   9.131  0.2279  0.0945  0.7393
  251MOL0     C33769   4.856   1.913   9.071 -0.3748 -0.0378  0.5414
  251MOL0     C33770   4.758   1.890   8.963 -0.5107 -0.1500 -0.4765
  251MOL0     C33771   4.825   1.812   8.844 -0.0762 -0.8354  0.8641
  251MOL0     C33772   4.718   1.790   8.732 -0.2453 -0.2764  0.3319
  251MOL0     C33773   4.791   1.703   8.615  0.3373 -0.5338 -1.1097
  251MOL0     O33774   4.723   1.744   8.494  0.0522 -0.3998 -0.5033
  251MOL0     C33775   4.590   1.700   8.472  0.0478 -0.4455 -0.7408
  251MOL0     C33776   4.519   1.784   8.386 -0.3186 -0.5133 -0.3324
  251MOL0     C33777   4.385   1.755   8.341 -0.5095  0.6173  1.0486
  251MOL0     C33778   4.324   1.859   8.239 -0.1552 -0.2815 -0.4325
  251MOL0     C33779   4.328   1.635   8.391 -0.3914  0.2281  1.5250
  251MOL0     C33780   4.192   1.589   8.357  0.2549  0.5827  0.0982
  251MOL0     O33781   4.157   1.460   8.381 -0.2787 -0.0569  0.2953
  251MOL0     C33782   4.030   1.421   8.351  0.3852  0.4971  0.2335
  251MOL0     C33783   3.922   1.442   8.435 -0.0270 -0.4404  0.2142
  251MOL0     C33784   3.798   1.389   8.397  0.2001 -0.1321 -0.7675
  251MOL0     C33785   3.781   1.317   8.288  0.5637 -0.4140 -0.4414
  251MOL0     O33786   3.662   1.263   8.246  0.2434 -0.6064 -0.5198
  251MOL0     C33787   3.554   1.239   8.339 -0.1635  0.7897  0.2885
  251MOL0     C33788   3.419   1.233   8.269  0.4223  0.8714 -0.3607
  251MOL0     C33789   3.319   1.162   8.364  0.8719 -0.5892  0.6982
  251MOL0     C33790   3.176   1.139   8.314  0.5038 -0.6538  0.9121
  251MOL0     C33791   3.073   1.084   8.414  0.3001 -0.1938 -0.1252
  251MOL0     C33792   2.935   1.088   8.343  0.0365 -0.5156  0.8452
  251MOL0     C33793   2.817   1.035   8.427 -0.5060  0.6724  0.3645
  251MOL0     C33794   2.830   0.885   8.456  0.2132 -0.3444 -0.0203
  251MOL0    Cl33795   2.696   0.833   8.568  0.0309  0.2506  0.1420
  251MOL0     C33796   3.888   1.298   8.201 -0.2570  0.0544 -0.5749
  251MOL0     C33797   4.016   1.354   8.228 -0.6981 -0.8340 -1.1707
  251MOL0     O33798   4.118   1.669   8.301  0.4129  1.0170 -0.5993
  251MOL0     C33799   4.401   1.560   8.487  0.5792  0.9904  0.0365
  251MOL0     C33800   4.536   1.582   8.520  0.8371 -0.0865  0.0634
  251MOL0     N33801   4.899   2.038   9.114 -0.5523  0.3522 -0.6095
  251MOL0     N33802   5.001   2.020   9.190 -0.2939 -0.1296  0.6811
  251MOL0     C33803   5.957   1.238   9.507 -0.1073  0.0565  0.1481
  251MOL0     C33804   6.066   1.153   9.487 -0.2960 -0.0461  0.2114
  251MOL0     C33805   6.427   0.896   9.498 -0.4671 -0.7235  0.5390
  251MOL0     C33806   6.437   0.763   9.452  0.7505  0.4218 -0.3231
  251MOL0     C33807   6.561   0.695   9.444  0.5459 -0.0138  0.1693
  251MOL0     C33808   6.677   0.766   9.463 -0.1922 -0.3078  0.0294
  251MOL0     O33809   6.792   0.691   9.432 -0.3497  0.1409 -0.2842
  251MOL0     C33810   6.922   0.731   9.493 -0.7348 -0.4136 -0.1680
  251MOL0     C33811   7.011   0.611   9.526 -0.1652  0.0519  0.4350
  251MOL0     C33812   7.145   0.651   9.593  0.2403 -0.4670 -0.2075
  251MOL0     C33813   7.258   0.597   9.508 -0.5537 -0.5203  0.2911
  251MOL0     C33814   7.253   0.659   9.377 -0.5008  0.1798  1.0929
  251MOL0     C33815   7.255   0.691   9.259 -0.4558  0.3141  0.1200
  251MOL0     C33816   6.674   0.905   9.511 -0.0599 -0.5133  0.6608
  251MOL0     C33817   6.545   0.963   9.531 -1.0580 -0.1873 -0.3502
  251MOL0     H33818   6.287   1.285   9.707 -0.5280  1.6782  1.4791
  251MOL0     H33819   6.082   1.446   9.742 -0.4427 -0.2960  1.7780
  251MOL0     H33820   5.779   1.509   9.454  1.6618  1.5005  2.5500
  251MOL0     H33821   5.716   1.343   9.500 -0.7607  0.3878  1.4008
  251MOL0     H33822   5.574   1.457   9.658 -1.7769 -0.4166 -2.5762
  251MOL0     H33823   5.694   1.597   9.651 -0.1863  0.0248 -1.0541
  251MOL0     H33824   5.602   1.658   9.442 -0.0581 -0.0316 -0.6916
  251MOL0     H33825   5.472   1.529   9.447 -1.2127 -1.3377  3.2763
  251MOL0     H33826   5.400   1.638   9.666 -0.0326 -0.4308  1.2161
  251MOL0     H33827   5.515   1.770   9.627  0.7110 -1.4236  2.8784
  251MOL0     H33828   5.304   1.851   9.546  1.7095  0.6037 -0.8728
  251MOL0     H33829   5.407   1.808   9.411 -0.5098  2.2369  0.2687
  251MOL0     H33830   5.300   1.602   9.363  1.9808  1.3701  0.4877
  251MOL0     H33831   5.210   1.601   9.523  1.7914 -2.3176 -0.0344
  251MOL0     H33832   5.049   1.664   9.353 -1.0906  2.0530 -2.4757
  251MOL0     H33833   5.081   1.801   9.456 -0.6959  1.2989 -2.2631
  251MOL0     H33834   5.204   1.755   9.180 -0.6882  0.9186  0.0940
  251MOL0     H33835   5.236   1.895   9.277 -1.2627  1.2571  1.6282
  251MOL0     H33836   4.929   1.713   9.107  1.3761  0.2696 -0.5621
  251MOL0     H33837   4.675   1.838   9.012 -1.6380  0.4998 -1.6323
  251MOL0     H33838   4.721   1.988   8.932  1.0220  0.2898 -0.9979
  251MOL0     H33839   4.849   1.714   8.887  1.1225 -0.6560  0.6284
  251MOL0     H33840   4.918   1.860   8.813 -1.8080  1.8155 -0.5811
  251MOL0     H33841   4.685   1.885   8.691  2.6443  1.9628  2.7005
  251MOL0     H33842   4.641   1.731   8.782 -2.3929  0.9130 -1.4112
  251MOL0     H33843   4.793   1.595   8.629  2.9742 -0.2754  1.6253
  251MOL0     H33844   4.889   1.752   8.616 -0.5741  1.3731 -0.2629
  251MOL0     H33845   4.569   1.874   8.351  0.7005 -1.1154 -0.4666
  251MOL0     H33846   4.301   1.823   8.138 -0.2878 -0.7978 -0.2257
  251MOL0     H33847   4.229   1.897   8.278 -0.9372 -0.6521 -1.9027
  251MOL0     H33848   4.390   1.946   8.228 -1.2359  0.5010 -0.8354
  251MOL0     H33849   3.935   1.505   8.523  0.4650  1.3384 -1.0811
  251MOL0     H33850   3.721   1.416   8.470  1.0466  0.3986 -0.0415
  251MOL0     H33851   3.575   1.147   8.394 -0.1082 -1.3839 -3.1017
  251MOL0     H33852   3.543   1.323   8.409  1.6360  1.4429 -0.1799
  251MOL0     H33853   3.378   1.330   8.243 -0.5708  0.0282 -2.1006
  251MOL0     H33854   3.435   1.169   8.182 -2.0589 -2.3887  1.3371
  251MOL0     H33855   3.311   1.217   8.458 -1.7054 -1.5630  1.1551
  251MOL0     H33856   3.365   1.068   8.395  1.2240 -0.4891  0.4824
  251MOL0     H33857   3.147   1.236   8.271 -1.3990 -0.9117  1.4909
  251MOL0     H33858   3.182   1.072   8.228 -0.0272  1.6966 -1.0754
  251MOL0     H33859   3.067   1.144   8.505 -1.5019 -2.2299  1.2035
  251MOL0     H33860   3.092   0.981   8.446 -0.9826 -0.2729  0.4541
  251MOL0     H33861   2.903   1.188   8.314 -1.0835 -0.6776  1.4832
  251MOL0     H33862   2.944   1.043   8.243  0.8704  1.5029 -0.0469
  251MOL0     H33863   2.720   1.051   8.379  0.7574  0.8647 -2.3072
  251MOL0     H33864   2.817   1.097   8.518 -1.0642 -0.7465  1.3591
  251MOL0     H33865   2.924   0.857   8.504  1.0104  0.0608 -1.2995
  251MOL0     H33866   2.825   0.815   8.372 -0.0692 -1.1936  0.6821
  251MOL0     H33867   3.865   1.240   8.112 -0.9566 -0.7967  0.1446
  251MOL0     H33868   4.106   1.333   8.172  1.1852  1.2361  0.8896
  251MOL0     H33869   4.354   1.474   8.532  1.2213  0.7246  0.2185
  251MOL0     H33870   4.594   1.523   8.590  0.0856  0.3379  1.0707
  251MOL0     H33871   5.863   1.214   9.458  0.4871  0.3980 -1.2240
  251MOL0     H33872   6.048   1.065   9.426 -1.3122 -0.2323  0.7674
  251MOL0     H33873   6.339   0.728   9.420 -0.8641  2.8637  1.5395
  251MOL0     H33874   6.572   0.592   9.413  1.8875  0.2068 -0.1618
  251MOL0     H33875   6.977   0.789   9.418 -0.5440  1.8628  1.6154
  251MOL0     H33876   6.893   0.790   9.580 -2.6680 -2.5602  0.7446
  251MOL0     H33877   7.018   0.553   9.434 -1.8679 -2.5787  1.8057
  251MOL0     H33878   6.955   0.548   9.596  2.3625 -1.7286  0.9664
  251MOL0     H33879   7.156   0.623   9.698  0.8511 -0.2383 -0.2086
  251MOL0     H33880   7.153   0.760   9.603 -2.5564 -0.0247 -1.8204
  251MOL0     H33881   7.242   0.489   9.502  0.0704 -0.6018  0.0114
  251MOL0     H33882   7.354   0.621   9.555  0.0359 -2.8662  0.4173
  251MOL0     H33883   7.272   0.726   9.159 -1.0039  0.5863  0.1201
  251MOL0     H33884   6.753   0.973   9.543 -0.7426  1.0267 -0.8182
  251MOL0     H33885   6.538   1.066   9.565 -1.4913 -0.2871 -0.1288
  252MOL0     O33886   2.969   9.241   4.009 -0.3671  0.2532 -0.3570
  252MOL0     C33887   2.984   9.119   4.017 -0.6365  0.4220 -0.8785
  252MOL0     O33888   2.921   9.020   3.949  0.1900 -0.4146 -0.1377
  252MOL0     C33889   2.828   9.045   3.852 -0.1189  0.6778 -0.2017
  252MOL0     C33890   2.759   8.926   3.814 -0.4069  0.4683 -0.4043
  252MOL0     C33891   2.658   8.930   3.725  0.3840  0.5309  0.2394
  252MOL0     C33892   2.617   9.051   3.666  0.2850  0.1138  0.3507
  252MOL0     O33893   2.513   9.048   3.575  0.0903  0.1048 -0.4104
  252MOL0     C33894   2.387   9.010   3.626 -0.0241 -0.7025 -0.4640
  252MOL0     C33895   2.270   9.028   3.517 -0.2034  0.2591  0.6573
  252MOL0     C33896   2.318   8.986   3.375  0.2920 -0.0247  0.2875
  252MOL0     C33897   2.374   9.096   3.284  0.3695 -0.0500  0.2932
  252MOL0     C33898   2.371   9.060   3.135  0.4693  0.1895 -0.9207
  252MOL0     C33899   2.222   9.049   3.094  0.0284 -0.4495 -0.1416
  252MOL0     C33900   2.223   9.058   2.940  0.6126 -0.1400  0.4091
  252MOL0     C33901   2.094   9.037   2.869  0.1976  0.2193 -0.6516
  252MOL0     N33902   2.092   9.004   2.730 -0.4838 -0.9026  0.0374
  252MOL0     C33903   2.149   9.082   2.626  0.0232 -0.1429 -0.7121
  252MOL0     C33904   2.129   9.003   2.517 -0.0782 -0.5310 -0.5512
  252MOL0     C33905   2.167   9.034   2.377 -1.0066  0.6551  0.5773
  252MOL0     C33906   2.045   9.090   2.299 -0.8118 -0.1380 -0.2098
  252MOL0     C33907   2.072   9.089   2.146  0.0073  0.8028 -0.0435
  252MOL0     C33908   1.957   9.142   2.067 -0.8219 -0.1331 -0.4824
  252MOL0     O33909   1.963   9.283   2.062 -0.8805 -0.1886 -1.1277
  252MOL0     C33910   1.854   9.345   2.001 -0.2079  0.0052  0.1175
  252MOL0     C33911   1.848   9.481   2.026  0.1677  0.5264 -0.0705
  252MOL0     C33912   1.742   9.567   1.980 -0.4047 -1.8993  0.6152
  252MOL0     C33913   1.741   9.713   2.030 -0.0035  0.6231  0.6683
  252MOL0     C33914   1.640   9.512   1.896 -0.6928  0.0975  0.1129
  252MOL0     C33915   1.520   9.580   1.838  0.5500  0.7867 -0.3348
  252MOL0     O33916   1.498   9.713   1.871 -0.0931 -0.0218 -0.3114
  252MOL0     C33917   1.375   9.777   1.850  1.0359 -0.5394  0.2520
  252MOL0     C33918   1.246   9.708   1.815  0.6223 -0.2659  0.4454
  252MOL0     C33919   1.135   9.783   1.781  1.0756  0.0612 -0.0855
  252MOL0     C33920   1.131   9.924   1.797 -0.0232 -0.4250 -0.2882
  252MOL0     O33921   1.030  10.005   1.760  0.6033 -0.0853 -0.1315
  252MOL0     C33922   0.904   9.942   1.736 -0.3746 -0.6684  1.0918
  252MOL0     C33923   0.806  10.046   1.684 -0.0506  0.5774  0.3641
  252MOL0     C33924   0.666  10.013   1.727  0.2484  0.0641 -0.1685
  252MOL0     C33925   0.566  10.099   1.655 -0.0918 -0.4901 -0.3303
  252MOL0     C33926   0.416  10.078   1.681  0.8525 -0.0453 -0.5036
  252MOL0     C33927   0.340  10.178   1.588 -0.2078 -0.0709 -0.2625
  252MOL0     C33928   0.191  10.171   1.613 -0.4944  0.2307  0.6291
  252MOL0     C33929   0.129  10.273   1.529 -0.4829 -0.8698  0.0186
  252MOL0    Cl33930  -0.033  10.227   1.511 -0.0374 -0.2441  0.2303
  252MOL0     C33931   1.246   9.983   1.846 -0.4206  0.6662 -0.2279
  252MOL0     C33932   1.363   9.913   1.871  0.3995 -0.4974  0.5985
  252MOL0     O33933   1.445   9.510   1.771  0.5834  0.1867 -0.1433
  252MOL0     C33934   1.660   9.377   1.873  0.2025  0.0965  0.3037
  252MOL0     C33935   1.764   9.291   1.913 -0.4562  0.1679 -0.4072
  252MOL0     N33936   2.071   8.891   2.558 -0.4334  0.6636  0.6862
  252MOL0     N33937   2.061   8.877   2.686 -0.2959  0.0465 -0.4145
  252MOL0     C33938   2.682   9.169   3.699  0.1251 -0.0888 -0.3842
  252MOL0     C33939   2.786   9.168   3.797 -0.4923 -0.3520  0.2035
  252MOL0     C33940   3.063   9.076   4.131 -0.4138  0.2526  0.7235
  252MOL0     C33941   3.051   8.941   4.173  0.4241  0.4629 -0.0867
  252MOL0     C33942   3.126   8.897   4.276 -0.1069  0.2635  0.5742
  252MOL0     C33943   3.220   8.981   4.339 -0.4635 -0.2590  0.2807
  252MOL0     O33944   3.294   8.921   4.442 -0.6903 -0.8997 -0.2057
  252MOL0     C33945   3.397   9.000   4.510 -0.3232  0.7932  0.2431
  252MOL0     C33946   3.523   9.006   4.424 -0.3161  0.4193 -0.0569
  252MOL0     C33947   3.629   9.094   4.475  0.3113  0.0874  0.5398
  252MOL0     C33948   3.699   9.047   4.600  0.7151  0.5389  0.1863
  252MOL0     C33949   3.817   9.127   4.629 -0.1136  0.4073  0.0227
  252MOL0     C33950   3.914   9.193   4.646  0.0589  0.0199  1.1878
  252MOL0     C33951   3.233   9.113   4.298 -0.9843 -0.4168 -0.0592
  252MOL0     C33952   3.156   9.156   4.195 -0.0187 -0.3044  0.2643
  252MOL0     H33953   2.806   8.834   3.846 -1.7690 -0.5356 -1.2003
  252MOL0     H33954   2.600   8.839   3.708 -0.4453  1.3742 -1.8817
  252MOL0     H33955   2.389   8.902   3.645 -0.6690 -0.8814 -1.2953
  252MOL0     H33956   2.359   9.070   3.713 -1.6025  0.3676 -1.6430
  252MOL0     H33957   2.182   8.971   3.547 -0.1065 -0.7213 -0.8346
  252MOL0     H33958   2.241   9.133   3.501  1.4696  0.2400 -4.0670
  252MOL0     H33959   2.400   8.917   3.394 -1.0026 -1.3508  1.2402
  252MOL0     H33960   2.242   8.932   3.318 -1.3281 -0.3634  2.6434
  252MOL0     H33961   2.326   9.191   3.311  1.3272  0.3404  0.6926
  252MOL0     H33962   2.477   9.110   3.317 -0.4327 -1.5199  3.9302
  252MOL0     H33963   2.416   9.145   3.083  0.0748  1.2657  0.4583
  252MOL0     H33964   2.433   8.969   3.129  0.2397 -0.2816  2.1663
  252MOL0     H33965   2.183   8.952   3.125 -1.7051 -0.4360 -2.1237
  252MOL0     H33966   2.167   9.137   3.130 -2.7749 -1.6163 -1.3148
  252MOL0     H33967   2.279   9.144   2.904  1.5974 -0.4603  1.1164
  252MOL0     H33968   2.282   8.971   2.910  0.2786 -0.4313  0.5836
  252MOL0     H33969   2.030   9.123   2.894  0.4644  1.0542 -2.6278
  252MOL0     H33970   2.050   8.953   2.923  0.8330 -1.8182 -3.1329
  252MOL0     H33971   2.196   9.180   2.633 -0.6414  0.1905 -0.8074
  252MOL0     H33972   2.254   9.101   2.375  0.0449 -0.5600  2.5809
  252MOL0     H33973   2.195   8.941   2.327  3.4392  0.9916  1.9496
  252MOL0     H33974   2.034   9.188   2.347  2.5550  1.6906 -2.7029
  252MOL0     H33975   1.958   9.028   2.323 -1.5330 -0.0784 -2.4787
  252MOL0     H33976   2.068   8.983   2.118  2.5223  0.0041  2.2463
  252MOL0     H33977   2.165   9.136   2.113  1.0898 -0.8460  0.5293
  252MOL0     H33978   1.868   9.105   2.118  0.8032 -2.7175  0.6624
  252MOL0     H33979   1.948   9.100   1.966 -2.7210 -0.3939 -0.2474
  252MOL0     H33980   1.927   9.517   2.090  0.0106  0.2412  0.2830
  252MOL0     H33981   1.690   9.720   2.127  2.8774  0.0134  2.3627
  252MOL0     H33982   1.839   9.754   2.054 -0.1850 -0.3899  3.6386
  252MOL0     H33983   1.691   9.775   1.955  0.2222 -0.7217 -0.6533
  252MOL0     H33984   1.243   9.600   1.822  1.1849 -0.2541  0.9806
  252MOL0     H33985   1.042   9.733   1.756  1.7844 -1.6375  0.5302
  252MOL0     H33986   0.896   9.858   1.666 -1.0003 -0.0834  0.4539
  252MOL0     H33987   0.868   9.890   1.825 -0.8527 -1.8999  0.2122
  252MOL0     H33988   0.815  10.147   1.723 -0.4357  0.9930 -0.6000
  252MOL0     H33989   0.813  10.055   1.575  0.0043 -0.0028  0.3174
  252MOL0     H33990   0.656  10.025   1.835  0.2934  1.1011 -0.2673
  252MOL0     H33991   0.647   9.908   1.701  0.7603 -0.2972  0.8697
  252MOL0     H33992   0.587  10.204   1.679  1.2899 -0.2962 -2.1567
  252MOL0     H33993   0.576  10.096   1.546 -0.3894  0.7280 -0.4027
  252MOL0     H33994   0.406  10.099   1.788 -4.4594 -0.4186 -0.6597
  252MOL0     H33995   0.388   9.974   1.662  0.3624  0.0096 -0.1101
  252MOL0     H33996   0.366  10.282   1.608 -1.0153  0.2688 -0.9161
  252MOL0     H33997   0.373  10.158   1.486  0.8863  0.5743 -0.0507
  252MOL0     H33998   0.166  10.182   1.719  1.0959 -1.4823  1.2404
  252MOL0     H33999   0.158  10.071   1.587 -0.0496  0.2536 -0.0309
  252MOL0     H34000   0.182  10.262   1.434  1.4079 -0.5632  0.9970
  252MOL0     H34001   0.158  10.372   1.565  3.0588 -0.8203 -2.4641
  252MOL0     H34002   1.235  10.089   1.871 -1.9008  0.4786  0.0563
  252MOL0     H34003   1.456   9.961   1.900  1.6949 -3.3035  1.4043
  252MOL0     H34004   1.585   9.323   1.818 -1.2131  0.9652  1.3235
  252MOL0     H34005   1.773   9.186   1.887 -3.5200 -0.9375  2.2093
  252MOL0     H34006   2.658   9.261   3.648  2.8206  1.2575  0.5717
  252MOL0     H34007   2.840   9.257   3.826  0.4975 -1.5834  2.4568
  252MOL0     H34008   2.973   8.875   4.135  1.4086 -0.9244  0.2075
  252MOL0     H34009   3.117   8.794   4.309  2.0352  0.0043  0.5095
  252MOL0     H34010   3.362   9.103   4.526  2.4359  2.2874 -2.2669
  252MOL0     H34011   3.408   8.952   4.608 -2.1645 -1.2644 -0.4820
  252MOL0     H34012   3.503   9.045   4.324  3.1290  2.9222  0.0715
  252MOL0     H34013   3.571   8.908   4.423  1.4645  1.2546  0.6153
  252MOL0     H34014   3.572   9.185   4.494 -1.1297 -1.1974  2.9386
  252MOL0     H34015   3.697   9.116   4.393  0.6135  2.8741  1.4330
  252MOL0     H34016   3.730   8.943   4.592 -2.6057 -0.5713  0.3232
  252MOL0     H34017   3.643   9.048   4.694  1.1775  0.9847  0.4640
  252MOL0     H34018   4.000   9.243   4.686 -0.9230  0.7541  2.4624
  252MOL0     H34019   3.304   9.183   4.341 -1.1738  0.6307 -1.4015
  252MOL0     H34020   3.164   9.263   4.177  1.3965 -0.5609 -0.8194
  253MOL0     O34021   2.011   0.768   3.667 -0.0193  0.5075 -0.6117
  253MOL0     C34022   2.080   0.760   3.572  0.0347  0.5564  0.4991
  253MOL0     O34023   2.042   0.795   3.450  0.0031 -0.1679  0.8552
  253MOL0     C34024   1.910   0.845   3.437 -1.1658 -0.0147  0.5150
  253MOL0     C34025   1.814   0.751   3.414 -0.6388  0.5038  0.0715
  253MOL0     C34026   1.686   0.801   3.389  0.2714 -0.1700  0.2625
  253MOL0     C34027   1.658   0.940   3.383 -0.0897  0.0220  0.4436
  253MOL0     O34028   1.535   0.985   3.351  1.0350  0.4251  0.0304
  253MOL0     C34029   1.442   0.956   3.457  0.0196 -0.7914  0.3366
  253MOL0     C34030   1.321   1.039   3.426  0.4548 -0.4572  0.3705
  253MOL0     C34031   1.209   1.022   3.525 -0.5368  0.8343 -0.5278
  253MOL0     C34032   1.096   1.130   3.497  0.2314  0.5282  0.8095
  253MOL0     C34033   1.030   1.187   3.626 -0.1143  0.7614 -0.7619
  253MOL0     C34034   0.899   1.264   3.623 -0.0022 -0.1169 -0.2104
  253MOL0     C34035   0.784   1.183   3.554 -0.4401  0.0736  0.2014
  253MOL0     C34036   0.663   1.270   3.536  0.0700  0.3213  0.6057
  253MOL0     N34037   0.611   1.321   3.654  0.3291 -0.7895  0.5011
  253MOL0     C34038   0.587   1.245   3.764  0.2735 -0.3829  0.3578
  253MOL0     C34039   0.525   1.326   3.849  0.4679  0.3743 -0.0019
  253MOL0     C34040   0.476   1.279   3.985  0.4733 -0.0491  0.6420
  253MOL0     C34041   0.344   1.350   4.021  0.1856 -0.9732 -0.2278
  253MOL0     C34042   0.237   1.307   3.919 -0.6012  0.3592  0.2221
  253MOL0     C34043   0.093   1.359   3.928 -0.3686  0.1636  0.3606
  253MOL0     O34044   0.015   1.304   3.820  0.0161  0.3502  0.3785
  253MOL0     C34045  -0.123   1.333   3.822  0.6055  0.1252  0.1728
  253MOL0     C34046  -0.204   1.262   3.732 -0.8062 -0.1847  0.3801
  253MOL0     C34047  -0.345   1.280   3.721 -0.3522  0.3076 -0.8234
  253MOL0     C34048  -0.417   1.206   3.611 -0.4790 -0.6687 -0.7765
  253MOL0     C34049  -0.403   1.372   3.815 -0.4639  0.2501  0.4943
  253MOL0     C34050  -0.536   1.402   3.813  0.6329  0.9882  0.6603
  253MOL0     O34051  -0.599   1.420   3.927  0.7175  0.2079 -0.0491
  253MOL0     C34052  -0.738   1.431   3.930 -1.3497 -0.0723  0.6138
  253MOL0     C34053  -0.825   1.346   3.862  1.4394  0.0830  0.2568
  253MOL0     C34054  -0.971   1.368   3.874 -0.1393 -0.7551  1.1921
  253MOL0     C34055  -1.027   1.471   3.954 -0.9002 -1.2062  0.5800
  253MOL0     O34056  -1.159   1.498   3.977  0.4841 -0.0358  0.4923
  253MOL0     C34057  -1.250   1.391   3.956 -0.1127 -0.7608  0.6174
  253MOL0     C34058  -1.398   1.431   3.995 -0.0528 -0.0192  0.8796
  253MOL0     C34059  -1.418   1.455   4.142  0.8702 -0.3119  0.6343
  253MOL0     C34060  -1.561   1.510   4.162  0.4468  0.2515 -0.5487
  253MOL0     C34061  -1.614   1.496   4.304  0.1746  0.6368  0.4055
  253MOL0     C34062  -1.652   1.353   4.354  0.5949 -0.9178  1.0532
  253MOL0     C34063  -1.770   1.285   4.273  0.5189  0.3311  0.0123
  253MOL0     C34064  -1.905   1.359   4.275  1.4104 -0.7774 -0.0266
  253MOL0    Cl34065  -1.956   1.442   4.430  0.0526 -0.4547 -0.0419
  253MOL0     C34066  -0.933   1.553   4.024  0.3910  0.1487 -0.3009
  253MOL0     C34067  -0.799   1.528   4.015 -0.2202 -1.2778  0.0289
  253MOL0     O34068  -0.594   1.409   3.702  0.7032 -0.4614 -1.0861
  253MOL0     C34069  -0.323   1.438   3.907  0.0892 -0.1791 -0.0766
  253MOL0     C34070  -0.187   1.423   3.902 -0.1863  0.0222 -0.2373
  253MOL0     N34071   0.517   1.453   3.803 -0.7060 -0.4684 -0.2642
  253MOL0     N34072   0.585   1.455   3.687 -0.1345  0.2629 -0.1161
  253MOL0     C34073   1.757   1.036   3.407 -0.1218 -0.1809 -0.1700
  253MOL0     C34074   1.884   0.981   3.431 -0.5393 -0.3611  0.2301
  253MOL0     C34075   2.219   0.702   3.588 -0.4465 -0.1803 -0.0357
  253MOL0     C34076   2.298   0.643   3.481  0.5926  0.0261  0.2184
  253MOL0     C34077   2.422   0.590   3.507  0.0527  0.3981  0.1491
  253MOL0     C34078   2.480   0.581   3.632  0.1921  0.3390  0.0472
  253MOL0     O34079   2.600   0.518   3.661 -0.0999 -0.2492  0.5722
  253MOL0     C34080   2.673   0.460   3.552 -0.3925 -0.1452  0.0936
  253MOL0     C34081   2.821   0.419   3.596 -0.7163  0.0486  0.1438
  253MOL0     C34082   2.925   0.539   3.604  0.2012  0.2862  0.1031
  253MOL0     C34083   2.889   0.651   3.701  0.2202  0.2093  0.5047
  253MOL0     C34084   3.005   0.739   3.718 -0.2238 -0.3380  0.5989
  253MOL0     C34085   3.081   0.831   3.732 -0.2509  0.1729 -0.3646
  253MOL0     C34086   2.406   0.640   3.728 -0.7453 -0.0317 -0.2136
  253MOL0     C34087   2.282   0.697   3.715  0.7758 -0.2214  1.1320
  253MOL0     H34088   1.830   0.644   3.405  1.2817  0.4371  2.9135
  253MOL0     H34089   1.605   0.732   3.369  0.2993 -0.4103  0.9549
  253MOL0     H34090   1.415   0.851   3.471 -1.9639 -0.0024  3.6259
  253MOL0     H34091   1.484   0.991   3.552 -2.6263  2.3140  0.5387
  253MOL0     H34092   1.336   1.146   3.409  0.7785 -0.6871 -0.8885
  253MOL0     H34093   1.280   1.000   3.332  1.9895 -2.0705  0.3164
  253MOL0     H34094   1.160   0.924   3.535  3.2790 -1.1649  0.3481
  253MOL0     H34095   1.241   1.023   3.629 -0.7376 -1.1103 -0.4088
  253MOL0     H34096   1.111   1.213   3.428 -2.4424  1.8367  1.6682
  253MOL0     H34097   1.021   1.066   3.451  2.0561 -2.8291  2.0777
  253MOL0     H34098   1.017   1.097   3.687 -0.1183  1.2156 -0.0891
  253MOL0     H34099   1.106   1.246   3.679 -1.0120  0.5802  0.7905
  253MOL0     H34100   0.865   1.288   3.724 -2.8616  0.7826 -1.2606
  253MOL0     H34101   0.930   1.355   3.570  2.1046  0.1577  1.3579
  253MOL0     H34102   0.821   1.146   3.458 -0.2801  1.6121 -0.3445
  253MOL0     H34103   0.768   1.093   3.614 -0.6978 -0.0791 -0.0905
  253MOL0     H34104   0.592   1.202   3.487  0.1649  0.4014  0.3550
  253MOL0     H34105   0.684   1.348   3.463  1.5469  0.0709  0.7403
  253MOL0     H34106   0.596   1.137   3.771  0.5146 -0.5226 -1.5913
  253MOL0     H34107   0.462   1.171   3.996  0.6680 -0.0166  1.2399
  253MOL0     H34108   0.553   1.305   4.058  0.5789 -0.5310  0.7040
  253MOL0     H34109   0.365   1.457   4.012  1.6931 -1.2095  0.2264
  253MOL0     H34110   0.316   1.316   4.121  1.0984 -0.9941  0.0252
  253MOL0     H34111   0.229   1.198   3.923 -2.7925  0.3022 -2.3244
  253MOL0     H34112   0.265   1.330   3.816  1.6248 -1.1265  0.4313
  253MOL0     H34113   0.097   1.467   3.915 -2.0866  0.2714  0.4875
  253MOL0     H34114   0.041   1.343   4.023 -2.4990 -3.5792 -1.1993
  253MOL0     H34115  -0.149   1.197   3.665  2.2142  1.8202  0.7287
  253MOL0     H34116  -0.523   1.196   3.636 -0.8570  0.6330 -1.7786
  253MOL0     H34117  -0.400   1.251   3.513 -0.8568  1.2906  0.0042
  253MOL0     H34118  -0.374   1.106   3.599  0.9421 -0.1854  0.0236
  253MOL0     H34119  -0.786   1.262   3.806  1.8996  0.1710  0.4462
  253MOL0     H34120  -1.033   1.309   3.807  0.2907 -1.1198  1.1148
  253MOL0     H34121  -1.245   1.362   3.850 -0.2502 -1.6743  0.8583
  253MOL0     H34122  -1.224   1.302   4.013 -0.4972 -1.4996 -0.3361
  253MOL0     H34123  -1.419   1.518   3.932 -0.5386  0.8730  2.2270
  253MOL0     H34124  -1.461   1.350   3.959  0.0098  0.8732 -1.4102
  253MOL0     H34125  -1.349   1.535   4.173  0.0978  0.3357  0.7217
  253MOL0     H34126  -1.408   1.364   4.201  0.5747 -0.4481  0.4731
  253MOL0     H34127  -1.570   1.614   4.130 -0.5508  0.2567 -0.2907
  253MOL0     H34128  -1.627   1.455   4.095  1.5710 -0.3733 -1.1683
  253MOL0     H34129  -1.704   1.556   4.285  0.9777  1.6534 -0.3506
  253MOL0     H34130  -1.545   1.552   4.369  0.4353  0.4922  0.2535
  253MOL0     H34131  -1.561   1.295   4.333  0.4447 -0.9716  0.5520
  253MOL0     H34132  -1.676   1.347   4.461 -3.9180  0.1382  0.3058
  253MOL0     H34133  -1.785   1.185   4.313  1.6947 -0.3186 -1.1084
  253MOL0     H34134  -1.736   1.265   4.171  2.1405  0.7302  0.4356
  253MOL0     H34135  -1.986   1.291   4.246  1.2561 -0.4761 -0.3233
  253MOL0     H34136  -1.905   1.426   4.188  2.2338 -1.0928 -0.2788
  253MOL0     H34137  -0.977   1.629   4.088 -0.1118 -0.7615  0.4549
  253MOL0     H34138  -0.726   1.600   4.052 -0.8839  0.7967 -2.4072
  253MOL0     H34139  -0.357   1.512   3.979 -1.4194 -0.9567  0.0433
  253MOL0     H34140  -0.130   1.468   3.983  2.1197 -3.0813  0.0047
  253MOL0     H34141   1.728   1.140   3.407 -3.5164 -1.0122 -1.0521
  253MOL0     H34142   1.966   1.050   3.446 -1.6596  1.1909 -0.4537
  253MOL0     H34143   2.256   0.652   3.381  2.5514  1.7335 -0.5324
  253MOL0     H34144   2.481   0.542   3.430  3.2208  2.1942  1.2480
  253MOL0     H34145   2.627   0.373   3.507 -1.6003  1.2273 -1.4504
  253MOL0     H34146   2.689   0.524   3.465 -0.7434 -0.3840 -0.1476
  253MOL0     H34147   2.848   0.364   3.506  0.3122  1.4148 -0.4153
  253MOL0     H34148   2.814   0.362   3.689  2.7299  0.0122  0.4788
  253MOL0     H34149   2.928   0.588   3.507  0.4914 -0.9491 -0.5291
  253MOL0     H34150   3.020   0.493   3.634  1.1394  3.0223  1.6499
  253MOL0     H34151   2.856   0.617   3.800 -0.5158  1.9153  0.8775
  253MOL0     H34152   2.812   0.709   3.650 -0.8206 -0.5049  1.2284
  253MOL0     H34153   3.154   0.906   3.751 -0.6294  0.3395  0.4674
  253MOL0     H34154   2.444   0.631   3.830 -0.1050  1.7489 -0.2670
  253MOL0     H34155   2.222   0.734   3.798 -1.6762  0.1065 -0.6751
  254MOL0     O34156   6.014   2.876   7.013  0.1840  0.5955 -0.7929
  254MOL0     C34157   6.070   2.770   6.971  0.1853 -0.6190 -1.1419
  254MOL0     O34158   6.029   2.690   6.869  0.3968 -0.6687 -1.1605
  254MOL0     C34159   5.913   2.721   6.805  0.6426  0.0300 -0.3937
  254MOL0     C34160   5.795   2.732   6.880 -0.4752 -0.0452  0.5331
  254MOL0     C34161   5.668   2.755   6.821 -0.1473  0.6797 -0.0158
  254MOL0     C34162   5.656   2.782   6.683 -0.0355 -1.2524  0.2879
  254MOL0     O34163   5.535   2.823   6.636  0.1077  0.4520 -0.0230
  254MOL0     C34164   5.504   2.820   6.496 -0.3727 -0.1438  1.2815
  254MOL0     C34165   5.361   2.870   6.483 -0.4852 -0.3322 -0.3334
  254MOL0     C34166   5.318   2.889   6.342  0.8212  0.6325 -0.1029
  254MOL0     C34167   5.165   2.932   6.334 -0.2969 -0.5968  0.4007
  254MOL0     C34168   5.122   2.978   6.197 -0.6040  0.4944  0.9601
  254MOL0     C34169   5.062   2.857   6.123  0.3579 -0.4090 -0.6337
  254MOL0     C34170   5.035   2.877   5.970  0.2785  0.6756 -0.1482
  254MOL0     C34171   5.161   2.915   5.887 -0.1060 -0.1283 -0.2713
  254MOL0     N34172   5.137   2.883   5.745 -0.2741 -0.1610 -0.0658
  254MOL0     C34173   5.073   2.961   5.653 -0.5446 -0.1175  0.1096
  254MOL0     C34174   5.102   2.910   5.540  1.1218  0.7863 -0.3334
  254MOL0     C34175   5.059   2.947   5.400 -0.5100 -0.5400  0.8791
  254MOL0     C34176   4.912   2.932   5.368  0.2000 -0.3109  0.5368
  254MOL0     C34177   4.892   2.972   5.215  0.8659  0.2660  0.2997
  254MOL0     C34178   4.752   2.960   5.161  0.0600 -0.3979 -0.5120
  254MOL0     O34179   4.743   3.046   5.039 -0.7949 -0.1386 -0.1580
  254MOL0     C34180   4.624   3.092   4.994 -0.4646 -0.7631  0.3183
  254MOL0     C34181   4.602   3.228   4.956  0.4004  0.6056  0.6787
  254MOL0     C34182   4.473   3.270   4.911 -0.5586  0.9200 -0.0526
  254MOL0     C34183   4.465   3.414   4.878 -0.1252 -0.2873  0.4480
  254MOL0     C34184   4.366   3.172   4.895 -0.6079 -0.7438 -0.3505
  254MOL0     C34185   4.230   3.210   4.839 -0.0510  0.4894  0.1526
  254MOL0     O34186   4.140   3.105   4.841  0.4202 -0.5158  0.4431
  254MOL0     C34187   4.023   3.144   4.780 -0.1242 -0.3593  0.1345
  254MOL0     C34188   3.935   3.244   4.832  0.9231  0.2398  0.2716
  254MOL0     C34189   3.826   3.279   4.757 -0.3585 -0.5089  0.3411
  254MOL0     C34190   3.793   3.221   4.633 -1.0634  0.5503  0.0518
  254MOL0     O34191   3.676   3.253   4.579  0.2550  0.2705  0.1320
  254MOL0     C34192   3.655   3.212   4.440 -0.7230 -0.8756  0.0640
  254MOL0     C34193   3.543   3.298   4.369 -0.1404 -0.7459 -0.6667
  254MOL0     C34194   3.406   3.280   4.441  0.3715  0.1528 -0.9747
  254MOL0     C34195   3.333   3.150   4.409 -0.2905 -0.6430 -0.1389
  254MOL0     C34196   3.203   3.147   4.484 -0.2241  0.3955 -0.9966
  254MOL0     C34197   3.129   3.019   4.448  0.4920 -0.4337  0.3086
  254MOL0     C34198   3.037   3.031   4.323  0.0013 -0.4306  0.5159
  254MOL0     C34199   3.006   2.898   4.253  0.4976 -0.3595 -0.0288
  254MOL0    Cl34200   2.851   2.896   4.157  0.0906 -0.1374 -0.0228
  254MOL0     C34201   3.880   3.114   4.590 -0.2297  0.1958  0.0777
  254MOL0     C34202   3.997   3.074   4.665 -0.1748  0.5373  0.0294
  254MOL0     O34203   4.210   3.325   4.809  0.0464  0.0466  0.2314
  254MOL0     C34204   4.396   3.044   4.930 -0.1626 -0.2431  0.1547
  254MOL0     C34205   4.522   3.010   4.986  1.0382 -0.1536  0.5424
  254MOL0     N34206   5.177   2.794   5.563 -0.8777  0.1551 -0.5336
  254MOL0     N34207   5.202   2.778   5.686 -0.2194  0.0770  0.5908
  254MOL0     C34208   5.778   2.777   6.604 -0.5802 -0.1214  0.1867
  254MOL0     C34209   5.898   2.742   6.668 -0.0121 -0.6589  0.6854
  254MOL0     C34210   6.206   2.745   7.030 -0.0176 -0.4331  0.0768
  254MOL0     C34211   6.273   2.828   7.127  0.6843  0.1538 -0.0456
  254MOL0     C34212   6.388   2.789   7.188 -0.1346  0.4145  0.6674
  254MOL0     C34213   6.457   2.679   7.142 -0.2637  0.0024  0.0984
  254MOL0     O34214   6.568   2.621   7.198 -0.5208  0.2667 -0.0704
  254MOL0     C34215   6.691   2.696   7.180  0.2621 -0.0819  0.6046
  254MOL0     C34216   6.778   2.648   7.067 -0.1194 -0.4629 -0.4534
  254MOL0     C34217   6.907   2.731   7.051 -0.0319 -0.0058 -0.4310
  254MOL0     C34218   7.015   2.703   7.164  0.3620 -0.2557 -0.4197
  254MOL0     C34219   7.094   2.584   7.124 -0.5357  0.2446 -0.0493
  254MOL0     C34220   7.158   2.480   7.101 -0.2558 -0.4897  0.2118
  254MOL0     C34221   6.400   2.600   7.044  0.3974  0.1315 -0.1518
  254MOL0     C34222   6.278   2.634   6.989  0.1920 -0.0068 -1.2292
  254MOL0     H34223   5.796   2.733   6.989  3.4744  0.0701  0.6350
  254MOL0     H34224   5.576   2.766   6.878  0.5306 -1.3476  1.5692
  254MOL0     H34225   5.582   2.878   6.445 -0.9069 -1.1895 -0.8431
  254MOL0     H34226   5.508   2.719   6.454 -0.5539 -0.1091  1.1813
  254MOL0     H34227   5.292   2.795   6.523  1.4755 -1.9501  0.1956
  254MOL0     H34228   5.344   2.962   6.538 -0.9659 -0.5157 -0.1716
  254MOL0     H34229   5.387   2.962   6.297  0.0014  1.7402  0.4085
  254MOL0     H34230   5.328   2.797   6.284  1.2457  0.7940 -0.2933
  254MOL0     H34231   5.110   2.840   6.358 -1.9529  0.0694 -0.7055
  254MOL0     H34232   5.150   3.014   6.405 -1.9652  1.4976 -2.1738
  254MOL0     H34233   5.046   3.056   6.200 -1.5433 -0.4081  3.8492
  254MOL0     H34234   5.213   3.004   6.143 -0.5098  0.4866  1.1141
  254MOL0     H34235   5.121   2.766   6.139  0.0781 -0.7412 -1.4261
  254MOL0     H34236   4.968   2.836   6.175  1.7326 -3.3166  0.9185
  254MOL0     H34237   4.993   2.790   5.919  3.1289 -0.2887 -1.0192
  254MOL0     H34238   4.949   2.944   5.964 -1.3244 -1.3678 -1.3963
  254MOL0     H34239   5.243   2.851   5.921  0.2497  0.6431  0.3457
  254MOL0     H34240   5.202   3.015   5.900  0.1091 -0.1077 -1.0598
  254MOL0     H34241   5.015   3.052   5.667 -0.3030  0.1374 -0.5376
  254MOL0     H34242   5.106   3.043   5.376  0.1079 -0.7271  1.3274
  254MOL0     H34243   5.112   2.877   5.335 -0.4172 -1.9310  2.3960
  254MOL0     H34244   4.856   3.007   5.424 -1.0306 -0.5816 -0.2910
  254MOL0     H34245   4.871   2.832   5.384 -0.5056 -0.3773 -1.3011
  254MOL0     H34246   4.968   2.910   5.166  1.7800 -0.7982  2.8833
  254MOL0     H34247   4.920   3.077   5.202 -0.7602  0.7408  0.4442
  254MOL0     H34248   4.667   2.967   5.229 -0.4173 -2.8556 -0.7464
  254MOL0     H34249   4.749   2.857   5.125  2.7795 -0.0973 -1.8494
  254MOL0     H34250   4.691   3.290   4.944 -0.6263  2.6969  3.0602
  254MOL0     H34251   4.546   3.475   4.921  1.0614 -3.3324  2.9515
  254MOL0     H34252   4.450   3.436   4.772  1.0519  3.3316  0.8676
  254MOL0     H34253   4.375   3.450   4.928  0.6050  1.5897  0.5096
  254MOL0     H34254   3.969   3.300   4.919  0.8397 -1.2429  1.3007
  254MOL0     H34255   3.758   3.361   4.778 -1.0196 -0.9384 -0.1051
  254MOL0     H34256   3.751   3.222   4.389 -0.2202  0.4545  1.2196
  254MOL0     H34257   3.631   3.105   4.435  2.1070 -1.5430 -0.6468
  254MOL0     H34258   3.569   3.403   4.383  2.9196 -1.1065 -2.6363
  254MOL0     H34259   3.531   3.287   4.261  2.0043 -1.7734 -0.8566
  254MOL0     H34260   3.340   3.361   4.409 -0.5843 -1.3778 -3.1315
  254MOL0     H34261   3.409   3.294   4.549 -1.1682  0.3874 -0.9432
  254MOL0     H34262   3.307   3.159   4.304  0.8777  1.2929 -0.3266
  254MOL0     H34263   3.397   3.063   4.429 -2.4397 -2.3142 -0.2236
  254MOL0     H34264   3.155   3.238   4.448  1.4955  1.5248 -0.5669
  254MOL0     H34265   3.218   3.148   4.593  1.7063  0.5560 -1.2359
  254MOL0     H34266   3.205   2.944   4.424  1.3554  0.7489 -0.8025
  254MOL0     H34267   3.075   2.988   4.538  0.3964  1.3487  0.8864
  254MOL0     H34268   3.090   3.098   4.254 -1.4638  2.0779  1.6914
  254MOL0     H34269   2.952   3.093   4.353 -0.1550 -0.1804 -0.3996
  254MOL0     H34270   3.001   2.821   4.331  1.7529 -1.4167 -0.9381
  254MOL0     H34271   3.089   2.861   4.192 -0.5397 -1.9890 -0.5112
  254MOL0     H34272   3.860   3.056   4.501 -1.7946  1.8951 -0.7447
  254MOL0     H34273   4.067   2.994   4.644  1.4709  1.4021  1.8273
  254MOL0     H34274   4.325   2.962   4.937  1.1553 -1.3676  0.9817
  254MOL0     H34275   4.532   2.908   5.024  1.0524  0.6214  2.7606
  254MOL0     H34276   5.767   2.789   6.497 -0.6113  2.0698  0.3886
  254MOL0     H34277   5.995   2.748   6.620 -0.2155  5.1452  0.2349
  254MOL0     H34278   6.220   2.919   7.154  1.1399 -0.2206  2.3660
  254MOL0     H34279   6.429   2.853   7.266  0.2026  1.7304 -0.5334
  254MOL0     H34280   6.662   2.800   7.159 -0.5842 -0.6874 -1.5142
  254MOL0     H34281   6.747   2.678   7.272  0.4428  1.5276  0.8334
  254MOL0     H34282   6.731   2.652   6.968 -0.3636  0.2340 -0.3122
  254MOL0     H34283   6.805   2.543   7.085 -2.5470 -1.4702 -2.1951
  254MOL0     H34284   6.881   2.837   7.044  0.8403  0.1305 -1.9288
  254MOL0     H34285   6.944   2.713   6.950  2.6301  1.3850  0.2140
  254MOL0     H34286   6.974   2.675   7.262 -2.3428  3.4921 -0.2744
  254MOL0     H34287   7.077   2.792   7.171 -0.7023  0.4637  0.2746
  254MOL0     H34288   7.214   2.390   7.089  0.1638 -0.2254  0.1586
  254MOL0     H34289   6.448   2.519   6.990 -1.3836  0.5927 -2.5996
  254MOL0     H34290   6.240   2.557   6.922  1.7333 -0.6510 -1.4218
  255MOL0     O34291  10.105   9.779   2.168  0.1652  0.2802 -0.2063
  255MOL0     C34292  10.185   9.875   2.153 -0.0108 -0.0033  0.4599
  255MOL0     O34293  10.143  10.008   2.137 -1.1817  0.6177 -0.0914
  255MOL0     C34294  10.016  10.049   2.121  1.1591  0.7604 -0.4594
  255MOL0     C34295   9.911   9.969   2.064 -0.2071 -0.0327  0.7666
  255MOL0     C34296   9.777  10.021   2.068 -0.2518  0.9704  0.4587
  255MOL0     C34297   9.750  10.135   2.146 -0.5959 -0.3962 -0.0691
  255MOL0     O34298   9.616  10.154   2.184  0.5719  0.5000  0.3117
  255MOL0     C34299   9.534  10.245   2.109 -0.3231 -0.2054 -0.0612
  255MOL0     C34300   9.395  10.197   2.106  0.1242 -0.7087  0.7046
  255MOL0     C34301   9.332  10.204   2.242  0.2866  0.0318 -0.2714
  255MOL0     C34302   9.191  10.152   2.247  1.0790  0.6920  0.4508
  255MOL0     C34303   9.138  10.150   2.383 -0.2142  0.2030  0.8780
  255MOL0     C34304   9.004  10.075   2.391  0.2164  0.2851  0.3618
  255MOL0     C34305   8.958  10.087   2.538  0.1541 -0.0086  0.0535
  255MOL0     C34306   8.837   9.995   2.564  0.2345  0.7124 -0.4083
  255MOL0     N34307   8.780  10.025   2.695  0.0800  0.2849 -0.4490
  255MOL0     C34308   8.845  10.085   2.796  0.1259 -0.2764 -0.1753
  255MOL0     C34309   8.741  10.100   2.888 -0.4673 -0.2133  0.0132
  255MOL0     C34310   8.759  10.183   3.013  0.1253  0.6980 -0.4558
  255MOL0     C34311   8.757  10.087   3.133  0.0828 -0.4477 -0.5890
  255MOL0     C34312   8.610  10.044   3.162 -0.5066 -0.5849  0.2265
  255MOL0     C34313   8.567  10.069   3.313 -0.0091  0.0461  0.4085
  255MOL0     O34314   8.594  10.205   3.344  0.8732  0.0685  0.0319
  255MOL0     C34315   8.558  10.236   3.474 -0.0694 -0.7950  0.1104
  255MOL0     C34316   8.553  10.159   3.589  0.8676  0.4035 -0.1273
  255MOL0     C34317   8.511  10.199   3.719 -0.0348 -0.5761 -0.1588
  255MOL0     C34318   8.485  10.101   3.829  0.4710  0.4433  0.8036
  255MOL0     C34319   8.481  10.336   3.738  0.5524  0.2476 -0.4977
  255MOL0     C34320   8.411  10.385   3.856  0.5110 -0.5072 -0.3519
  255MOL0     O34321   8.345  10.506   3.835 -0.0541 -0.6929 -0.2468
  255MOL0     C34322   8.267  10.570   3.936  0.0159  0.5227 -0.2706
  255MOL0     C34323   8.244  10.711   3.931 -0.2891 -0.2448  0.3975
  255MOL0     C34324   8.162  10.778   4.027 -0.8582  0.0114  0.2396
  255MOL0     C34325   8.087  10.708   4.122 -0.3783 -0.5486  0.3490
  255MOL0     O34326   8.013  10.783   4.208 -0.2796  0.3572  0.0125
  255MOL0     C34327   7.948  10.708   4.308 -0.3973  0.0417  0.1759
  255MOL0     C34328   7.863  10.795   4.407  0.1879 -0.0878 -0.8419
  255MOL0     C34329   7.767  10.705   4.494 -0.0949 -0.4778 -1.2490
  255MOL0     C34330   7.721  10.784   4.615 -0.1749 -0.5089 -0.1296
  255MOL0     C34331   7.628  10.907   4.564  0.5745  0.1510 -0.5741
  255MOL0     C34332   7.602  11.013   4.667 -0.4645 -0.3145  0.3842
  255MOL0     C34333   7.471  11.090   4.637  0.2833  0.3882 -0.4403
  255MOL0     C34334   7.465  11.198   4.742 -0.1485 -0.5393  0.7186
  255MOL0    Cl34335   7.309  11.288   4.748 -0.0897 -0.2749  0.0366
  255MOL0     C34336   8.100  10.566   4.122 -1.4692 -0.5672 -0.6072
  255MOL0     C34337   8.192  10.500   4.035  0.6782 -0.1986  0.5639
  255MOL0     O34338   8.427  10.333   3.966  0.0698  0.9895 -0.3689
  255MOL0     C34339   8.489  10.428   3.631 -0.3270  0.1643 -0.6445
  255MOL0     C34340   8.529  10.370   3.505 -0.2261  0.0562 -1.0866
  255MOL0     N34341   8.620  10.059   2.837  0.1455 -0.6660  0.8878
  255MOL0     N34342   8.648  10.016   2.718 -0.3405 -0.5644 -0.2957
  255MOL0     C34343   9.855  10.212   2.195  0.3648 -0.3265  0.1456
  255MOL0     C34344   9.981  10.168   2.178 -0.5811  0.2864  0.1226
  255MOL0     C34345  10.330   9.852   2.143 -0.1144 -0.4350 -0.4580
  255MOL0     C34346  10.423   9.951   2.129  0.7835 -0.0873 -0.5997
  255MOL0     C34347  10.562   9.920   2.114  0.5078 -0.2965 -0.3277
  255MOL0     C34348  10.599   9.789   2.126  0.4062  0.3274 -0.0308
  255MOL0     O34349  10.725   9.740   2.109  0.3354 -0.9751  0.4151
  255MOL0     C34350  10.821   9.816   2.181  0.2876  0.3830  0.4105
  255MOL0     C34351  10.954   9.750   2.161 -0.2497  0.2830  1.0338
  255MOL0     C34352  10.978   9.645   2.264  0.8254  0.5167 -0.5024
  255MOL0     C34353  11.123   9.582   2.265  0.5428 -0.3908 -0.2280
  255MOL0     C34354  11.237   9.672   2.268 -0.3830 -0.1219 -0.0863
  255MOL0     C34355  11.345   9.731   2.287  1.0393 -0.4467  0.1901
  255MOL0     C34356  10.505   9.694   2.149  0.4902  0.8814 -0.3274
  255MOL0     C34357  10.369   9.727   2.162 -0.8804  0.4362 -0.6415
  255MOL0     H34358   9.922   9.880   2.003 -2.2154 -1.2713  2.0742
  255MOL0     H34359   9.704   9.961   2.015  2.6936  0.2462 -3.1792
  255MOL0     H34360   9.530  10.338   2.166  3.3195  0.5050 -0.7360
  255MOL0     H34361   9.580  10.262   2.012 -0.0324 -1.5766 -0.1872
  255MOL0     H34362   9.338  10.257   2.035  0.5653 -2.1538 -0.9620
  255MOL0     H34363   9.382  10.092   2.079  0.8555 -1.8781  4.3738
  255MOL0     H34364   9.392  10.147   2.314 -0.0363  1.8866  1.5571
  255MOL0     H34365   9.329  10.305   2.283 -1.4559  0.6070 -1.7114
  255MOL0     H34366   9.121  10.194   2.174 -1.4521 -2.8431  0.5908
  255MOL0     H34367   9.194  10.046   2.221  0.5015  0.5417  0.9945
  255MOL0     H34368   9.205  10.091   2.446 -1.5324 -1.9640  0.3882
  255MOL0     H34369   9.131  10.253   2.419 -1.8330  0.9363 -1.3166
  255MOL0     H34370   8.925  10.134   2.342  0.1797  0.9410  1.1853
  255MOL0     H34371   9.010   9.973   2.354  0.6580 -0.4332  2.3188
  255MOL0     H34372   9.040  10.065   2.607  0.5337  0.7459 -0.1480
  255MOL0     H34373   8.931  10.192   2.553 -1.7966 -0.3883 -0.4392
  255MOL0     H34374   8.863   9.889   2.571 -1.0811  0.3328 -0.9008
  255MOL0     H34375   8.760  10.009   2.488  0.5130  0.0993 -0.8173
  255MOL0     H34376   8.938  10.140   2.793  0.0644 -0.2203 -2.2282
  255MOL0     H34377   8.845  10.249   3.019  1.4440 -1.0842  3.3752
  255MOL0     H34378   8.668  10.243   3.025 -1.1321 -0.6637 -2.5499
  255MOL0     H34379   8.805  10.132   3.220  0.7792 -0.3523 -1.0107
  255MOL0     H34380   8.814   9.997   3.111  3.3359  1.1023  0.7375
  255MOL0     H34381   8.601   9.936   3.142 -2.5927 -0.2540 -0.8612
  255MOL0     H34382   8.538  10.099   3.102 -0.3865 -1.2949 -0.5925
  255MOL0     H34383   8.627  10.012   3.385  1.3754 -1.1796 -1.6021
  255MOL0     H34384   8.466  10.028   3.326  0.6421 -2.4039 -1.4779
  255MOL0     H34385   8.566  10.051   3.582  0.0894  0.3947 -2.0570
  255MOL0     H34386   8.540  10.131   3.918 -1.1422  5.2328  0.4902
  255MOL0     H34387   8.380  10.093   3.859 -0.2067  3.2475 -0.4135
  255MOL0     H34388   8.515  10.000   3.802 -1.1735  0.0253  0.4096
  255MOL0     H34389   8.291  10.772   3.854  0.1028  0.8431  1.4696
  255MOL0     H34390   8.159  10.886   4.019 -2.5810 -0.0585 -0.4452
  255MOL0     H34391   7.877  10.635   4.267 -3.0669  2.2911  0.4824
  255MOL0     H34392   8.019  10.649   4.366  2.1802  1.2584 -1.5574
  255MOL0     H34393   7.928  10.861   4.463 -2.3522  0.8259  1.2362
  255MOL0     H34394   7.807  10.863   4.342 -0.4299 -0.2320 -0.4730
  255MOL0     H34395   7.818  10.613   4.525 -2.3949 -0.9266  1.6545
  255MOL0     H34396   7.675  10.680   4.440  0.4083 -3.0760 -1.0287
  255MOL0     H34397   7.662  10.714   4.675  1.0832 -2.5932 -1.2018
  255MOL0     H34398   7.810  10.822   4.665  0.0395  0.1348 -0.9708
  255MOL0     H34399   7.529  10.872   4.533  0.4836  0.2875 -0.4425
  255MOL0     H34400   7.666  10.955   4.473  1.9294  2.3453  1.0376
  255MOL0     H34401   7.608  10.962   4.764  1.4792  1.8282  1.4815
  255MOL0     H34402   7.686  11.084   4.668 -0.6381 -0.1042  1.6970
  255MOL0     H34403   7.384  11.026   4.655  0.5356  0.7158  2.3672
  255MOL0     H34404   7.467  11.139   4.539 -0.3560  1.4001  0.0746
  255MOL0     H34405   7.546  11.267   4.716 -0.1997 -0.4497  0.7944
  255MOL0     H34406   7.488  11.154   4.840 -2.8008  0.5806  1.9277
  255MOL0     H34407   8.038  10.501   4.184 -1.9581 -0.8311 -1.3559
  255MOL0     H34408   8.210  10.393   4.039 -1.0895 -0.7636 -2.7031
  255MOL0     H34409   8.473  10.535   3.638  2.9305  0.8247 -1.3210
  255MOL0     H34410   8.539  10.438   3.421  3.4452 -3.3354 -3.7378
  255MOL0     H34411   9.843  10.292   2.268  3.3368  0.3251  0.0457
  255MOL0     H34412  10.058  10.216   2.238 -0.5245  0.0156  0.2694
  255MOL0     H34413  10.387  10.053   2.119  0.4149 -0.3083 -1.7050
  255MOL0     H34414  10.632  10.002   2.102  1.0827 -0.0073  3.6585
  255MOL0     H34415  10.825   9.914   2.133  1.2483 -0.8793 -2.3157
  255MOL0     H34416  10.794   9.815   2.287 -1.7432 -0.5940 -0.0837
  255MOL0     H34417  11.030   9.828   2.159  1.3129 -1.1310 -2.5382
  255MOL0     H34418  10.970   9.715   2.058  0.0093 -0.7134  1.4015
  255MOL0     H34419  10.912   9.558   2.260  5.3093 -3.3356  0.2491
  255MOL0     H34420  10.968   9.694   2.361 -1.9554 -1.8225  0.5478
  255MOL0     H34421  11.132   9.524   2.173  1.7298  2.5976 -2.1325
  255MOL0     H34422  11.141   9.512   2.347  3.6700 -0.1475 -0.5941
  255MOL0     H34423  11.442   9.774   2.302  1.0120 -1.1660  3.0932
  255MOL0     H34424  10.549   9.597   2.166 -0.9426 -0.2389 -2.5232
  255MOL0     H34425  10.300   9.646   2.180 -1.0213  0.3974 -1.3148
  256MOL0     O34426   3.079   9.937   8.473  0.2416  0.4864 -0.2322
  256MOL0     C34427   3.072   9.893   8.358  0.4584 -0.0949 -0.3638
  256MOL0     O34428   3.172   9.907   8.255 -0.4697 -0.7752  0.0276
  256MOL0     C34429   3.307   9.926   8.275  0.7573 -0.7708  0.6877
  256MOL0     C34430   3.374   9.963   8.160 -0.7860 -0.2268  0.5663
  256MOL0     C34431   3.515  10.002   8.168 -0.4045  0.5519 -0.3457
  256MOL0     C34432   3.578   9.993   8.297 -0.2133 -0.5388  0.1955
  256MOL0     O34433   3.707  10.053   8.302  0.2776  0.3540  0.3743
  256MOL0     C34434   3.780  10.055   8.421  1.0010 -0.4740 -0.1371
  256MOL0     C34435   3.909  10.125   8.400 -0.0321  0.0869  0.4649
  256MOL0     C34436   3.960  10.206   8.521 -0.2484 -0.3874 -0.3322
  256MOL0     C34437   3.858  10.317   8.568  0.1096  0.2969  0.6550
  256MOL0     C34438   3.923  10.418   8.660 -0.1286  0.2284 -0.4415
  256MOL0     C34439   3.817  10.490   8.746  0.0338 -0.8219  0.3012
  256MOL0     C34440   3.879  10.573   8.861 -0.5146  0.4889 -1.0041
  256MOL0     C34441   3.774  10.635   8.945 -0.3311 -0.0527 -0.2776
  256MOL0     N34442   3.715  10.531   9.044 -0.8052  0.0176 -0.2833
  256MOL0     C34443   3.585  10.515   9.078  0.6381 -0.4800 -0.0147
  256MOL0     C34444   3.583  10.444   9.193 -0.5643 -0.2478 -0.2609
  256MOL0     C34445   3.454  10.402   9.257 -0.0109 -0.1891 -0.4324
  256MOL0     C34446   3.497  10.284   9.341 -0.2744 -1.0582  0.0498
  256MOL0     C34447   3.380  10.199   9.392  0.7547  0.2872  0.1849
  256MOL0     C34448   3.279  10.282   9.476  0.4307  0.3522 -0.9274
  256MOL0     O34449   3.166  10.199   9.502 -0.1621  0.0729  0.2787
  256MOL0     C34450   3.045  10.258   9.533  0.1357 -0.5080  0.3446
  256MOL0     C34451   3.002  10.391   9.547 -0.1709  0.5147  0.2456
  256MOL0     C34452   2.864  10.409   9.583  0.5072 -0.3453 -0.0652
  256MOL0     C34453   2.812  10.545   9.627 -0.3744  0.4153  0.0418
  256MOL0     C34454   2.767  10.296   9.588 -0.0260 -1.3712  0.3299
  256MOL0     C34455   2.622  10.311   9.618 -0.4971  0.3276 -0.5016
  256MOL0     O34456   2.563  10.197   9.682  0.4576 -0.2724 -1.2525
  256MOL0     C34457   2.429  10.197   9.714 -0.0569 -0.8692 -0.0114
  256MOL0     C34458   2.361  10.301   9.771 -0.1259 -0.8050  0.1014
  256MOL0     C34459   2.226  10.282   9.815  0.6115  0.3295  0.0221
  256MOL0     C34460   2.159  10.155   9.783  0.6792 -0.5011  0.7625
  256MOL0     O34461   2.033  10.111   9.833 -0.5713  0.7024  0.6285
  256MOL0     C34462   1.953  10.204   9.898 -1.0687 -0.1937  0.2203
  256MOL0     C34463   1.842  10.144   9.971 -0.3963 -0.4865 -0.3958
  256MOL0     C34464   1.893  10.045  10.066  0.2905 -0.1156 -0.0625
  256MOL0     C34465   1.796  10.029  10.191 -0.2525  0.7168 -0.0549
  256MOL0     C34466   1.834   9.926  10.297 -0.2456  0.2205  0.2976
  256MOL0     C34467   1.880   9.789  10.239 -0.8656 -0.6741 -0.1903
  256MOL0     C34468   1.857   9.692  10.352  0.1506 -0.2395 -0.1515
  256MOL0     C34469   1.935   9.555  10.332  0.3102  0.4473  0.7370
  256MOL0    Cl34470   2.116   9.585  10.325 -0.2352 -0.1374 -0.2906
  256MOL0     C34471   2.226  10.062   9.705  0.6902 -0.3205  0.2188
  256MOL0     C34472   2.360  10.078   9.685 -0.0309  0.0630 -0.7197
  256MOL0     O34473   2.562  10.410   9.576 -0.0255  0.9151 -0.4050
  256MOL0     C34474   2.823  10.167   9.578 -0.0440  0.7723 -0.4471
  256MOL0     C34475   2.958  10.153   9.552  0.2641  0.3157 -1.2663
  256MOL0     N34476   3.717  10.408   9.224  0.4290 -0.3943  0.0846
  256MOL0     N34477   3.796  10.467   9.137  0.1243  1.2392 -0.0634
  256MOL0     C34478   3.510   9.957   8.408  0.4387  0.8898  0.4405
  256MOL0     C34479   3.378   9.912   8.397  0.1955 -0.1195  0.0304
  256MOL0     C34480   2.938   9.840   8.313 -0.3889 -0.3069  0.4807
  256MOL0     C34481   2.843   9.786   8.400 -0.8596 -0.5197 -0.2537
  256MOL0     C34482   2.724   9.747   8.350  0.3031 -0.0733  0.8516
  256MOL0     C34483   2.693   9.743   8.211  0.1577  1.1373  0.3485
  256MOL0     O34484   2.576   9.689   8.144  0.0963 -0.9444 -0.6458
  256MOL0     C34485   2.465   9.666   8.235 -0.4194 -0.5592  0.2960
  256MOL0     C34486   2.338   9.656   8.150 -0.0235 -0.5759 -0.5340
  256MOL0     C34487   2.350   9.586   8.013  0.2445  0.0255 -0.2782
  256MOL0     C34488   2.217   9.543   7.965  0.1659  0.1543  0.1402
  256MOL0     C34489   2.136   9.657   7.916 -0.4684  0.1249  0.5948
  256MOL0     C34490   2.087   9.762   7.883 -0.3253  0.7471 -0.2332
  256MOL0     C34491   2.798   9.783   8.127  0.3004  0.8215  0.1728
  256MOL0     C34492   2.912   9.839   8.175 -0.1362  0.4093  0.0410
  256MOL0     H34493   3.330   9.966   8.061  1.0220  1.0466 -0.2454
  256MOL0     H34494   3.578  10.032   8.085  1.0831 -1.0120  0.1750
  256MOL0     H34495   3.719  10.103   8.498  2.6202  0.6414  0.4947
  256MOL0     H34496   3.810   9.954   8.449  0.5567 -0.4534  0.4344
  256MOL0     H34497   3.983  10.046   8.380 -0.0720  0.5732 -1.9084
  256MOL0     H34498   3.905  10.194   8.315  0.2201  0.4716  0.7613
  256MOL0     H34499   3.984  10.139   8.605 -0.6502 -0.3361 -0.1779
  256MOL0     H34500   4.050  10.257   8.485  0.2512 -1.2775 -0.3979
  256MOL0     H34501   3.825  10.375   8.481 -3.9223  0.2897  2.0127
  256MOL0     H34502   3.770  10.264   8.606  0.8155 -1.2995  0.1552
  256MOL0     H34503   3.986  10.362   8.729 -0.6130 -1.2630 -1.1631
  256MOL0     H34504   3.998  10.485   8.616  1.5683 -0.9459  0.5400
  256MOL0     H34505   3.764  10.561   8.682  0.0161 -1.4925 -0.4407
  256MOL0     H34506   3.746  10.421   8.793 -0.3962  1.3413  3.0641
  256MOL0     H34507   3.942  10.509   8.924 -0.2445  3.6860  2.3324
  256MOL0     H34508   3.934  10.657   8.816  0.1541 -0.0683 -1.2427
  256MOL0     H34509   3.688  10.678   8.892 -1.4530 -0.2341  1.3047
  256MOL0     H34510   3.809  10.721   9.002 -0.8984 -0.9112  1.4595
  256MOL0     H34511   3.503  10.554   9.019  1.5545  2.2457  0.3760
  256MOL0     H34512   3.420  10.483   9.321 -3.5245 -1.7840 -0.0565
  256MOL0     H34513   3.377  10.371   9.186  0.8004  0.5732 -1.6830
  256MOL0     H34514   3.567  10.307   9.422  0.7515  3.3535 -1.7946
  256MOL0     H34515   3.543  10.215   9.270  1.4740 -0.5875  0.6723
  256MOL0     H34516   3.409  10.108   9.446 -4.9178 -1.1280  1.5129
  256MOL0     H34517   3.331  10.164   9.301 -1.3301  0.9962  0.9770
  256MOL0     H34518   3.242  10.370   9.423 -2.5383 -0.0565  0.2852
  256MOL0     H34519   3.327  10.333   9.561 -0.1106  3.3633 -2.3003
  256MOL0     H34520   3.063  10.481   9.541 -0.5522  0.8949  1.6389
  256MOL0     H34521   2.734  10.576   9.558 -0.6888 -0.8128 -0.1792
  256MOL0     H34522   2.772  10.544   9.729 -2.6231  2.4139 -0.7363
  256MOL0     H34523   2.888  10.623   9.613 -1.7480  1.4767 -1.8856
  256MOL0     H34524   2.423  10.384   9.805  2.0016 -1.4647 -1.9519
  256MOL0     H34525   2.173  10.362   9.865 -2.3515 -2.3478  1.5156
  256MOL0     H34526   2.007  10.261   9.973 -2.3647 -2.3134  2.9377
  256MOL0     H34527   1.907  10.267   9.820  0.0990  0.3622 -0.0391
  256MOL0     H34528   1.789  10.230  10.015 -2.6976 -1.2880 -1.4434
  256MOL0     H34529   1.774  10.099   9.898 -2.2600  0.1300  0.8647
  256MOL0     H34530   1.992  10.076  10.101  0.0196  0.8842 -0.1588
  256MOL0     H34531   1.905   9.955  10.006 -0.2459  1.7269 -3.1204
  256MOL0     H34532   1.794  10.122  10.249  1.2159  1.5350 -1.2452
  256MOL0     H34533   1.695  10.006  10.156  1.1866 -2.4118 -2.6724
  256MOL0     H34534   1.757   9.917  10.374 -0.9739  2.2722 -0.1282
  256MOL0     H34535   1.929   9.966  10.333  0.5768 -2.1480  0.9318
  256MOL0     H34536   1.820   9.791  10.147 -1.8755  5.6396  0.1961
  256MOL0     H34537   1.982   9.809  10.204 -1.6847  1.9105 -1.3425
  256MOL0     H34538   1.750   9.670  10.359  0.0525 -0.6099 -2.1004
  256MOL0     H34539   1.892   9.732  10.448 -0.6425  1.3411 -0.4951
  256MOL0     H34540   1.920   9.516  10.231  0.9393  0.0974  0.7741
  256MOL0     H34541   1.902   9.482  10.407 -1.6506 -0.2122 -0.6744
  256MOL0     H34542   2.175   9.970   9.681  1.2469 -0.2343 -1.4113
  256MOL0     H34543   2.414  10.002   9.630 -2.8071 -1.8199 -1.0086
  256MOL0     H34544   2.762  10.081   9.600 -0.0574 -0.0219 -3.1984
  256MOL0     H34545   3.001  10.053   9.542 -0.1554 -0.0181  0.0067
  256MOL0     H34546   3.554   9.951   8.507 -0.9292 -1.0029  0.9870
  256MOL0     H34547   3.327   9.890   8.490 -3.1463  0.3498 -1.5503
  256MOL0     H34548   2.871   9.770   8.503 -0.7215 -1.4646 -0.4240
  256MOL0     H34549   2.650   9.718   8.424 -0.4552 -0.2311  0.0540
  256MOL0     H34550   2.478   9.575   8.296 -2.6661 -0.7774  0.5167
  256MOL0     H34551   2.457   9.752   8.302  0.9546 -0.0164 -0.1973
  256MOL0     H34552   2.308   9.757   8.119 -1.2496 -0.4309  1.0271
  256MOL0     H34553   2.250   9.630   8.209 -2.1388  1.2758 -2.6276
  256MOL0     H34554   2.412   9.498   8.031 -0.0033 -0.2046 -0.5608
  256MOL0     H34555   2.393   9.649   7.934 -0.5911 -1.1469 -1.6936
  256MOL0     H34556   2.161   9.494   8.045 -1.6175 -0.9918 -1.7180
  256MOL0     H34557   2.221   9.468   7.885 -1.1229 -1.6109  1.6422
  256MOL0     H34558   2.050   9.860   7.862 -0.1750  1.1068  1.1109
  256MOL0     H34559   2.775   9.780   8.021 -2.1573  1.7862  0.6147
  256MOL0     H34560   2.985   9.876   8.103  0.2700 -1.5296 -0.5877
  257MOL0     O34561  10.517   5.645   5.052  0.0093  0.1685  0.4255
  257MOL0     C34562  10.462   5.704   4.955  0.5670  0.5733 -0.5682
  257MOL0     O34563  10.331   5.691   4.916  0.5635  0.7936 -0.5718
  257MOL0     C34564  10.248   5.591   4.961 -1.0704  0.7853 -0.5397
  257MOL0     C34565  10.123   5.634   5.010  0.7606 -0.8289 -0.3313
  257MOL0     C34566  10.042   5.541   5.082  0.4575  0.6379  1.0560
  257MOL0     C34567  10.091   5.416   5.109 -0.2989  0.1058  0.3129
  257MOL0     O34568   9.996   5.323   5.151  0.5422 -0.5560  0.4494
  257MOL0     C34569   9.989   5.204   5.077 -1.0010  0.4214 -1.2812
  257MOL0     C34570   9.850   5.152   5.085  0.7507 -0.6487  0.1010
  257MOL0     C34571   9.837   5.019   4.996 -0.6309  0.1046 -0.9338
  257MOL0     C34572   9.695   4.967   4.962  0.1682 -0.0532 -0.0665
  257MOL0     C34573   9.630   4.889   5.079  0.1631  0.3958 -0.4053
  257MOL0     C34574   9.566   4.982   5.178 -0.6104 -0.6856 -0.6989
  257MOL0     C34575   9.497   4.913   5.298 -0.0522  0.3276 -0.3565
  257MOL0     C34576   9.606   4.826   5.373 -0.6301  0.1455 -0.6298
  257MOL0     N34577   9.717   4.903   5.439 -0.4934 -0.0099  0.3130
  257MOL0     C34578   9.840   4.850   5.455 -0.1787 -0.6954 -0.3472
  257MOL0     C34579   9.921   4.948   5.513  1.0374 -0.1926  0.4945
  257MOL0     C34580  10.066   4.955   5.541  0.5134  0.1126 -0.0101
  257MOL0     C34581  10.145   4.905   5.415  0.9216 -0.1396  0.5208
  257MOL0     C34582  10.296   4.926   5.421  0.0095  0.3513 -0.2980
  257MOL0     C34583  10.355   4.864   5.547  0.6019  0.0973  0.4602
  257MOL0     O34584  10.499   4.864   5.521  1.0778 -0.3347 -0.2432
  257MOL0     C34585  10.585   4.787   5.588 -0.1887  0.2799  0.4259
  257MOL0     C34586  10.568   4.651   5.609  0.0419 -0.1943  0.6168
  257MOL0     C34587  10.662   4.580   5.691  0.8104  0.5500  0.5784
  257MOL0     C34588  10.632   4.430   5.700 -0.1262  0.0721  0.4784
  257MOL0     C34589  10.772   4.645   5.747 -0.1396 -0.1946  0.2623
  257MOL0     C34590  10.880   4.581   5.832  0.4922 -0.4476 -0.3008
  257MOL0     O34591  11.004   4.635   5.818 -0.4429  0.3853  0.1827
  257MOL0     C34592  11.113   4.564   5.856 -0.6327 -0.8048 -0.2938
  257MOL0     C34593  11.210   4.631   5.936  0.4182 -0.6385 -0.3886
  257MOL0     C34594  11.322   4.559   5.978 -0.1453  0.2193  0.0527
  257MOL0     C34595  11.349   4.431   5.941  0.5895 -0.4703 -0.2561
  257MOL0     O34596  11.463   4.376   5.978  0.0804 -0.3932  0.6257
  257MOL0     C34597  11.463   4.227   5.956  0.1815 -0.1543 -0.0046
  257MOL0     C34598  11.592   4.185   6.008  0.3097 -0.4648  0.1400
  257MOL0     C34599  11.603   4.179   6.161 -1.1071 -0.2013  0.0997
  257MOL0     C34600  11.532   4.063   6.225  0.0377  0.0741  0.7984
  257MOL0     C34601  11.594   4.038   6.364 -0.0028  0.1291 -0.4571
  257MOL0     C34602  11.504   3.953   6.466  0.3641 -0.0006 -0.1562
  257MOL0     C34603  11.503   3.805   6.418  0.6129 -0.1303  0.4095
  257MOL0     C34604  11.368   3.764   6.362  0.3900 -0.1073  0.1112
  257MOL0    Cl34605  11.368   3.586   6.330 -0.1783  0.0977 -0.2552
  257MOL0     C34606  11.248   4.363   5.865  0.0165 -0.1448  0.4615
  257MOL0     C34607  11.129   4.427   5.826 -0.1310  0.9368  1.3150
  257MOL0     O34608  10.852   4.485   5.904 -0.5578  0.2578 -0.3315
  257MOL0     C34609  10.777   4.781   5.724 -0.6948  0.0239 -0.6446
  257MOL0     C34610  10.691   4.850   5.645  0.5017 -0.1600 -1.0321
  257MOL0     N34611   9.834   5.052   5.553 -0.8390  1.0007 -0.1062
  257MOL0     N34612   9.721   5.029   5.491  0.2880  0.3628 -0.3841
  257MOL0     C34613  10.213   5.372   5.049  0.5500 -0.7010  0.5250
  257MOL0     C34614  10.297   5.462   4.974  0.2467  0.9755 -0.1234
  257MOL0     C34615  10.527   5.819   4.891  0.4903  0.0345  0.7738
  257MOL0     C34616  10.647   5.866   4.931  0.3965 -0.2369  0.9730
  257MOL0     C34617  10.716   5.962   4.858  1.2417 -0.3762 -0.0211
  257MOL0     C34618  10.657   6.031   4.754 -0.1576  0.3787  0.1750
  257MOL0     O34619  10.732   6.126   4.686 -0.4441  0.1512 -0.0127
  257MOL0     C34620  10.844   6.192   4.736  0.5183  0.6033 -0.1968
  257MOL0     C34621  10.866   6.332   4.697 -0.0833 -0.2554  0.1631
  257MOL0     C34622  10.957   6.416   4.785 -0.3965  0.4304 -0.2466
  257MOL0     C34623  11.106   6.387   4.750 -0.3671 -0.6072 -0.0536
  257MOL0     C34624  11.153   6.481   4.648  0.2517 -0.1977  0.2006
  257MOL0     C34625  11.215   6.542   4.563 -0.2132  0.1869 -0.6947
  257MOL0     C34626  10.529   5.998   4.714  0.4675  0.3947  0.4868
  257MOL0     C34627  10.462   5.891   4.778 -0.6226 -0.8456  0.7183
  257MOL0     H34628  10.088   5.735   4.990  2.1488 -0.2977 -0.1980
  257MOL0     H34629   9.944   5.573   5.113 -1.1543  0.3970 -3.1495
  257MOL0     H34630  10.017   5.226   4.974 -2.1169  2.0318 -1.2600
  257MOL0     H34631  10.045   5.117   5.115 -2.4968 -1.0635 -2.3750
  257MOL0     H34632   9.823   5.124   5.187 -1.3461 -3.0645 -1.0228
  257MOL0     H34633   9.775   5.225   5.052  1.1894 -1.2625 -2.4595
  257MOL0     H34634   9.886   5.040   4.901  0.0288  1.3041 -0.3613
  257MOL0     H34635   9.888   4.940   5.050 -2.3649 -0.9342 -0.7488
  257MOL0     H34636   9.623   5.043   4.934 -1.2470 -1.3967 -0.2090
  257MOL0     H34637   9.708   4.901   4.876 -1.4998  1.7453 -1.7901
  257MOL0     H34638   9.549   4.828   5.036  1.1480  0.1283 -1.9415
  257MOL0     H34639   9.706   4.823   5.122 -0.7590 -0.9404 -0.7338
  257MOL0     H34640   9.635   5.053   5.225 -1.6370 -1.1293  1.5807
  257MOL0     H34641   9.495   5.047   5.126 -1.3051 -0.3540  0.6205
  257MOL0     H34642   9.448   4.976   5.373  0.0204  2.5981 -2.1020
  257MOL0     H34643   9.418   4.847   5.260 -1.7878  2.0725  0.0597
  257MOL0     H34644   9.664   4.757   5.312  2.6584  0.1006  2.2176
  257MOL0     H34645   9.560   4.767   5.453 -0.4103  1.9550  0.9237
  257MOL0     H34646   9.868   4.759   5.403 -0.5876  0.1888 -2.1815
  257MOL0     H34647  10.088   5.061   5.551 -0.6371  0.6415 -2.4292
  257MOL0     H34648  10.079   4.899   5.634  0.5214 -0.2736 -0.2412
  257MOL0     H34649  10.117   4.969   5.330  4.0900  1.7519  0.7524
  257MOL0     H34650  10.114   4.804   5.386 -0.7990  0.6288 -0.4895
  257MOL0     H34651  10.320   5.033   5.421 -3.7613  1.3949 -1.9565
  257MOL0     H34652  10.341   4.887   5.330  0.4161 -0.3946  0.2116
  257MOL0     H34653  10.315   4.763   5.557  0.7566 -0.1427 -1.1579
  257MOL0     H34654  10.328   4.925   5.634  0.4865  0.3723  0.2318
  257MOL0     H34655  10.481   4.603   5.566  0.9341 -1.5496  0.2497
  257MOL0     H34656  10.535   4.404   5.744 -0.4981 -1.6669 -1.2225
  257MOL0     H34657  10.623   4.387   5.600  1.2962 -0.0908  0.3927
  257MOL0     H34658  10.711   4.375   5.754  0.2015 -1.5472 -1.5057
  257MOL0     H34659  11.191   4.733   5.968  2.5035  0.6296 -2.8020
  257MOL0     H34660  11.406   4.598   6.034  1.4519 -1.3013 -1.1454
  257MOL0     H34661  11.377   4.184   6.007 -1.0588  0.8269 -1.1964
  257MOL0     H34662  11.468   4.204   5.849  0.5920  0.8833 -0.2284
  257MOL0     H34663  11.613   4.086   5.966  2.9601 -0.8048  2.0041
  257MOL0     H34664  11.664   4.262   5.978 -1.2572  1.1787  0.4757
  257MOL0     H34665  11.564   4.274   6.200  1.8421  1.1290  0.1209
  257MOL0     H34666  11.710   4.173   6.185 -1.1625 -2.0446  0.0459
  257MOL0     H34667  11.425   4.086   6.221  0.2554  1.2750  1.3597
  257MOL0     H34668  11.556   3.974   6.166 -0.4857 -0.1500  0.9225
  257MOL0     H34669  11.610   4.135   6.411  0.7907  0.0245 -0.4962
  257MOL0     H34670  11.690   3.986   6.351 -0.4296 -0.9792  0.5853
  257MOL0     H34671  11.550   3.957   6.565 -1.4310  3.1094  0.6610
  257MOL0     H34672  11.404   3.996   6.471 -0.2846 -1.5077  0.4099
  257MOL0     H34673  11.512   3.737   6.504  1.4258  1.2670  1.4625
  257MOL0     H34674  11.594   3.781   6.362  2.1047  1.6326  1.9401
  257MOL0     H34675  11.359   3.800   6.259 -0.8421 -2.1766 -0.5588
  257MOL0     H34676  11.280   3.795   6.418 -1.0411 -0.7585 -1.6806
  257MOL0     H34677  11.256   4.264   5.822  0.2401  0.5182 -1.0931
  257MOL0     H34678  11.055   4.379   5.763  0.3441  2.4033 -0.4209
  257MOL0     H34679  10.852   4.837   5.779  0.1772 -1.3757 -0.3478
  257MOL0     H34680  10.701   4.958   5.637 -0.5533  0.1915  1.4877
  257MOL0     H34681  10.243   5.268   5.060  2.7545 -0.3300 -1.2636
  257MOL0     H34682  10.392   5.435   4.928  0.5812  0.8939  0.6087
  257MOL0     H34683  10.709   5.823   5.009  1.1999 -0.2563  0.3355
  257MOL0     H34684  10.814   5.995   4.893  1.4379  1.0471 -1.7634
  257MOL0     H34685  10.842   6.193   4.845 -0.1258 -1.8831 -0.1314
  257MOL0     H34686  10.935   6.139   4.706 -0.6348 -2.3962  1.2883
  257MOL0     H34687  10.769   6.381   4.705  0.6370  0.9975  2.3880
  257MOL0     H34688  10.902   6.347   4.595  0.8993  2.7753  0.8445
  257MOL0     H34689  10.948   6.402   4.893 -1.1242  0.6272 -0.2749
  257MOL0     H34690  10.948   6.525   4.777  0.6450  0.5396 -0.1071
  257MOL0     H34691  11.127   6.285   4.717 -0.1419 -0.3462 -0.7510
  257MOL0     H34692  11.165   6.407   4.840 -1.2944 -1.3240  0.7342
  257MOL0     H34693  11.266   6.592   4.483  1.1046  2.9451  1.6739
  257MOL0     H34694  10.477   6.050   4.634 -0.7289 -1.1097  0.2338
  257MOL0     H34695  10.365   5.870   4.735 -0.9011 -1.6247  1.6720
  258MOL0     O34696   1.495   7.527   8.451 -0.5018 -0.9729  0.1016
  258MOL0     C34697   1.539   7.645   8.478 -0.0807  0.3665 -0.0288
  258MOL0     O34698   1.459   7.741   8.521  0.0631 -0.5301 -0.1803
  258MOL0     C34699   1.336   7.756   8.456  0.0071 -0.6137  0.3496
  258MOL0     C34700   1.311   7.699   8.329  0.8979 -0.9523  0.0500
  258MOL0     C34701   1.177   7.712   8.277  0.4328  1.3993 -0.9588
  258MOL0     C34702   1.074   7.776   8.341  0.3992  0.8277 -0.3239
  258MOL0     O34703   0.953   7.769   8.284  0.1682 -0.5663 -0.2895
  258MOL0     C34704   0.863   7.668   8.327 -0.6906 -0.2693 -0.5824
  258MOL0     C34705   0.740   7.687   8.234  0.0597 -0.2923  0.2744
  258MOL0     C34706   0.616   7.595   8.266  0.6436  0.8654  0.4377
  258MOL0     C34707   0.642   7.447   8.237 -0.5740  0.2598  0.3192
  258MOL0     C34708   0.700   7.411   8.103 -0.4531 -0.2369  0.2438
  258MOL0     C34709   0.609   7.460   7.985  0.4102 -0.3710  0.2202
  258MOL0     C34710   0.648   7.424   7.845 -0.7876  0.2097  0.3796
  258MOL0     C34711   0.555   7.498   7.749 -0.8448  0.7110  0.0262
  258MOL0     N34712   0.446   7.406   7.706 -0.2222 -0.6232 -0.2446
  258MOL0     C34713   0.335   7.372   7.783 -1.0542 -0.8296  0.3673
  258MOL0     C34714   0.262   7.295   7.705  0.7851 -0.0204 -0.5987
  258MOL0     C34715   0.124   7.233   7.737 -0.7178  0.0950  0.7958
  258MOL0     C34716   0.015   7.274   7.636 -0.4690  0.1283 -0.1793
  258MOL0     C34717  -0.110   7.196   7.675 -0.2687  0.8368 -0.5133
  258MOL0     C34718  -0.236   7.228   7.587  0.3159 -0.0837  0.8141
  258MOL0     O34719  -0.212   7.177   7.455 -0.6997 -0.5327 -0.1980
  258MOL0     C34720  -0.315   7.192   7.369  0.3224  0.1761  0.0765
  258MOL0     C34721  -0.329   7.099   7.264  0.8896  0.0125 -0.3115
  258MOL0     C34722  -0.439   7.108   7.172  0.6744  0.3728  0.3505
  258MOL0     C34723  -0.442   7.001   7.063 -0.1307  0.2542 -0.2879
  258MOL0     C34724  -0.535   7.208   7.179 -0.4760 -0.2666  0.3647
  258MOL0     C34725  -0.654   7.225   7.095 -0.2736 -0.1930  0.1599
  258MOL0     O34726  -0.728   7.331   7.121 -0.2231 -0.1910 -0.0707
  258MOL0     C34727  -0.860   7.321   7.094  0.2412  0.0028  0.3600
  258MOL0     C34728  -0.907   7.323   6.967  0.4558  0.4672  0.1475
  258MOL0     C34729  -1.039   7.344   6.936  0.3096  0.4669  0.4068
  258MOL0     C34730  -1.138   7.351   7.036  0.1213 -0.4826  0.0274
  258MOL0     O34731  -1.276   7.360   7.014 -0.7993 -0.5868  0.2151
  258MOL0     C34732  -1.327   7.494   7.009 -0.7076  0.0110 -0.7322
  258MOL0     C34733  -1.476   7.508   7.021  0.8653  0.5333 -0.4095
  258MOL0     C34734  -1.532   7.632   6.954  0.7660 -0.7841 -0.1696
  258MOL0     C34735  -1.684   7.643   6.981  0.0561  0.7717  0.0064
  258MOL0     C34736  -1.741   7.769   6.907 -0.8172 -0.0844  0.1888
  258MOL0     C34737  -1.894   7.776   6.935 -0.0071  0.0989 -0.0212
  258MOL0     C34738  -1.961   7.912   6.911 -0.0212  0.2168 -0.2738
  258MOL0     C34739  -1.944   7.949   6.768 -0.6912  0.4114  0.5001
  258MOL0    Cl34740  -2.059   8.095   6.741 -0.2440  0.3529  0.1793
  258MOL0     C34741  -1.080   7.348   7.169  0.2442 -0.1848 -0.0410
  258MOL0     C34742  -0.943   7.332   7.195 -0.9596  0.6255 -0.2247
  258MOL0     O34743  -0.684   7.134   7.016  0.2744 -0.3096 -0.6910
  258MOL0     C34744  -0.511   7.304   7.279 -0.2280 -0.4000 -0.4573
  258MOL0     C34745  -0.400   7.305   7.371  0.6734 -0.8223 -0.1533
  258MOL0     N34746   0.334   7.281   7.585 -0.4279  0.2492 -0.1709
  258MOL0     N34747   0.443   7.344   7.589  0.2207  0.4452 -0.0992
  258MOL0     C34748   1.096   7.829   8.463 -0.2756  0.0734  0.5424
  258MOL0     C34749   1.221   7.822   8.519  0.3475  0.5379 -0.2095
  258MOL0     C34750   1.681   7.676   8.465  0.2318  1.5029  1.3282
  258MOL0     C34751   1.733   7.796   8.501  0.3107  0.5369 -0.0717
  258MOL0     C34752   1.873   7.813   8.479 -0.3517 -0.1592  0.0621
  258MOL0     C34753   1.961   7.717   8.422  0.1285  1.1453 -0.1208
  258MOL0     O34754   2.097   7.729   8.387  0.2354  0.8168 -0.2533
  258MOL0     C34755   2.162   7.853   8.420 -0.8457 -0.1797 -0.0183
  258MOL0     C34756   2.225   7.854   8.559 -0.4993  0.2069 -0.7355
  258MOL0     C34757   2.315   7.736   8.585  0.1896  0.1622  0.2533
  258MOL0     C34758   2.427   7.721   8.489  0.3137 -0.4255  0.1267
  258MOL0     C34759   2.512   7.605   8.532 -0.8523  0.4025 -1.4838
  258MOL0     C34760   2.573   7.505   8.559 -0.1847 -0.0051  0.6563
  258MOL0     C34761   1.902   7.584   8.396 -0.2180  0.3544 -0.0976
  258MOL0     C34762   1.760   7.573   8.416 -0.2522  0.3877  0.0759
  258MOL0     H34763   1.392   7.651   8.274  0.6427  0.0530 -1.2554
  258MOL0     H34764   1.158   7.657   8.186  1.1980  1.7666 -1.3541
  258MOL0     H34765   0.914   7.571   8.316 -0.4588 -0.0051 -2.1441
  258MOL0     H34766   0.828   7.676   8.430  0.7196  2.5778 -0.2273
  258MOL0     H34767   0.695   7.785   8.253 -2.7087 -1.8781  2.8020
  258MOL0     H34768   0.764   7.688   8.128 -1.1653 -0.6200 -0.0284
  258MOL0     H34769   0.593   7.611   8.371 -1.1021 -0.9838  0.3840
  258MOL0     H34770   0.547   7.638   8.192  1.1146  0.0463 -0.5096
  258MOL0     H34771   0.698   7.402   8.319 -0.9073 -0.2099  0.2943
  258MOL0     H34772   0.548   7.391   8.239  0.8932 -2.5128 -1.7826
  258MOL0     H34773   0.802   7.447   8.090 -0.2948 -0.3220  1.2026
  258MOL0     H34774   0.710   7.303   8.094  3.1043  0.0213 -0.1687
  258MOL0     H34775   0.507   7.429   8.013  0.1798  1.2105  1.2485
  258MOL0     H34776   0.615   7.569   7.996  0.7334 -0.6143  3.0168
  258MOL0     H34777   0.753   7.455   7.838 -0.2185 -0.7710  3.1290
  258MOL0     H34778   0.634   7.317   7.827 -2.0022  0.9079 -3.9476
  258MOL0     H34779   0.616   7.531   7.664 -2.5680 -0.0452 -1.5911
  258MOL0     H34780   0.514   7.589   7.793  1.0472  1.2260  0.8213
  258MOL0     H34781   0.323   7.398   7.887 -1.0996  1.1360 -0.1046
  258MOL0     H34782   0.135   7.124   7.734 -3.7172 -0.3517  2.0395
  258MOL0     H34783   0.098   7.266   7.838  1.8468  0.1962  1.4957
  258MOL0     H34784   0.051   7.248   7.536 -0.4976  0.8132 -0.3732
  258MOL0     H34785   0.011   7.383   7.642  0.6775  0.1076  1.9875
  258MOL0     H34786  -0.143   7.207   7.779 -1.1325  0.0270 -0.6867
  258MOL0     H34787  -0.070   7.095   7.668 -1.3693  0.2032  1.3562
  258MOL0     H34788  -0.258   7.335   7.588  0.9201  0.0515  0.2918
  258MOL0     H34789  -0.331   7.190   7.627 -1.1865  2.6776  0.0916
  258MOL0     H34790  -0.276   7.004   7.270 -2.1476 -1.7817  1.2889
  258MOL0     H34791  -0.364   6.925   7.069 -2.3031 -2.0080  1.2825
  258MOL0     H34792  -0.538   6.949   7.063 -0.2881  0.5282  1.0788
  258MOL0     H34793  -0.439   7.049   6.964 -0.5207 -1.6338 -1.2579
  258MOL0     H34794  -0.839   7.325   6.883  0.0164  3.1375 -0.2223
  258MOL0     H34795  -1.062   7.346   6.830  1.1763 -0.5237  0.1844
  258MOL0     H34796  -1.282   7.560   7.083 -2.6968  1.5593 -0.8259
  258MOL0     H34797  -1.289   7.534   6.914  0.3864 -0.5342 -0.5361
  258MOL0     H34798  -1.519   7.420   6.972  2.1473 -0.8144  0.7741
  258MOL0     H34799  -1.498   7.513   7.128  1.3286  0.5971 -0.3135
  258MOL0     H34800  -1.521   7.622   6.845 -1.8620  4.2616 -1.1667
  258MOL0     H34801  -1.483   7.722   6.990 -0.0611  0.4871 -2.0612
  258MOL0     H34802  -1.731   7.549   6.953  0.0074  0.5609  0.7938
  258MOL0     H34803  -1.709   7.655   7.087 -1.8416 -0.3413 -0.2855
  258MOL0     H34804  -1.715   7.763   6.801 -1.1147 -0.7645  0.1519
  258MOL0     H34805  -1.692   7.859   6.946 -0.3531  0.0855 -0.7677
  258MOL0     H34806  -1.937   7.696   6.875  1.2879 -0.2590 -0.5069
  258MOL0     H34807  -1.911   7.754   7.041  0.5786  1.1743  0.3213
  258MOL0     H34808  -1.905   7.983   6.972  1.9454 -0.1430 -1.5914
  258MOL0     H34809  -2.066   7.905   6.943  0.1801 -1.2437  0.1163
  258MOL0     H34810  -1.977   7.867   6.703  1.5508 -1.3587  1.4529
  258MOL0     H34811  -1.839   7.973   6.747 -0.2026 -2.4676 -1.0045
  258MOL0     H34812  -1.145   7.353   7.256  1.3768 -0.2421  0.8258
  258MOL0     H34813  -0.900   7.334   7.295 -0.8961 -0.3321 -0.2242
  258MOL0     H34814  -0.579   7.389   7.286  0.7028  0.3529 -0.2877
  258MOL0     H34815  -0.394   7.381   7.448  1.5174  1.2644 -2.1738
  258MOL0     H34816   1.009   7.872   8.511 -1.7854 -0.3367 -1.6702
  258MOL0     H34817   1.238   7.859   8.619 -0.8259 -2.6480  1.3320
  258MOL0     H34818   1.674   7.870   8.555  3.0468  1.9507  1.1581
  258MOL0     H34819   1.914   7.912   8.491 -2.0177  0.3548  2.2364
  258MOL0     H34820   2.243   7.878   8.351 -1.6787 -2.9549 -2.2013
  258MOL0     H34821   2.091   7.935   8.408 -1.7326 -1.0433 -0.7967
  258MOL0     H34822   2.135   7.858   8.620  0.3345  2.6681  0.4759
  258MOL0     H34823   2.276   7.950   8.572 -1.4584  0.7223 -0.7238
  258MOL0     H34824   2.253   7.649   8.557 -0.9023  1.6365 -2.3194
  258MOL0     H34825   2.342   7.737   8.690 -1.3372  0.7497  0.6694
  258MOL0     H34826   2.478   7.818   8.485 -1.1122  0.3192 -2.6352
  258MOL0     H34827   2.400   7.693   8.387 -0.8125 -4.0538  1.2692
  258MOL0     H34828   2.639   7.421   8.563 -1.5746 -1.1249  0.9495
  258MOL0     H34829   1.959   7.510   8.341  0.0356  3.2542 -4.2255
  258MOL0     H34830   1.715   7.478   8.389  2.0700 -0.5832 -0.5996
  259MOL0     O34831   2.432   5.400   2.908 -0.4067 -0.6404  0.6909
  259MOL0     C34832   2.466   5.282   2.891  0.8175  0.0813 -0.9550
  259MOL0     O34833   2.395   5.194   2.817  0.0581  0.3264 -0.3179
  259MOL0     C34834   2.262   5.202   2.809 -0.9295 -1.9294  0.5247
  259MOL0     C34835   2.179   5.124   2.887  0.3031  0.4047 -0.4258
  259MOL0     C34836   2.043   5.145   2.887 -0.2401  0.5213  0.4483
  259MOL0     C34837   1.985   5.242   2.802  0.8826  0.1635 -0.3126
  259MOL0     O34838   1.848   5.251   2.796  0.1281 -0.2369  0.0303
  259MOL0     C34839   1.756   5.199   2.898 -0.3844 -0.0663 -0.6124
  259MOL0     C34840   1.614   5.247   2.878 -1.1389  0.4144  0.6835
  259MOL0     C34841   1.613   5.393   2.826 -0.4062 -0.6740 -0.1895
  259MOL0     C34842   1.472   5.445   2.821 -0.6802 -0.2586 -0.4693
  259MOL0     C34843   1.363   5.376   2.737  0.0269  0.4024  0.5784
  259MOL0     C34844   1.242   5.464   2.750  0.2300  0.5745 -0.0656
  259MOL0     C34845   1.130   5.417   2.658  0.0586  1.0721 -0.9618
  259MOL0     C34846   1.010   5.518   2.646  0.1978  0.8151 -0.3466
  259MOL0     N34847   0.900   5.481   2.547 -0.4323 -0.0698 -0.4046
  259MOL0     C34848   0.765   5.471   2.570  0.8982 -0.1891 -0.3656
  259MOL0     C34849   0.716   5.412   2.454  0.4338 -0.1972  0.2184
  259MOL0     C34850   0.568   5.396   2.415 -0.6193 -0.2487  0.1449
  259MOL0     C34851   0.505   5.522   2.356 -0.0881 -0.1086  0.3716
  259MOL0     C34852   0.467   5.612   2.466 -0.0134 -0.2091  0.3851
  259MOL0     C34853   0.375   5.724   2.400 -0.7500  0.1000  0.5707
  259MOL0     O34854   0.333   5.819   2.499 -0.0718  0.7912  0.1948
  259MOL0     C34855   0.200   5.828   2.526 -0.8051  0.1333 -1.6598
  259MOL0     C34856   0.140   5.951   2.537 -0.6232 -0.4640  0.2586
  259MOL0     C34857   0.017   5.973   2.585 -0.6321  0.5230 -0.7298
  259MOL0     C34858  -0.038   6.110   2.588 -0.0484 -0.2765 -0.3280
  259MOL0     C34859  -0.064   5.856   2.620  0.8836 -0.4926  0.1658
  259MOL0     C34860  -0.201   5.868   2.672  0.5245 -0.2351 -0.7197
  259MOL0     O34861  -0.283   5.763   2.633 -0.3992  0.4216  0.4895
  259MOL0     C34862  -0.409   5.767   2.686  0.9953 -1.0329  0.6671
  259MOL0     C34863  -0.438   5.679   2.789  0.4695  0.1450  0.8394
  259MOL0     C34864  -0.564   5.661   2.831 -0.1060  0.5205 -0.3907
  259MOL0     C34865  -0.661   5.757   2.799  0.0026 -0.2526  0.9608
  259MOL0     O34866  -0.790   5.727   2.840 -0.0475 -0.7459  0.1395
  259MOL0     C34867  -0.896   5.814   2.791  0.0458  0.7103 -1.2809
  259MOL0     C34868  -1.027   5.760   2.853 -0.4831  0.3463 -0.0316
  259MOL0     C34869  -1.151   5.840   2.833  0.8157 -0.0856  0.9178
  259MOL0     C34870  -1.273   5.763   2.872 -0.4835 -0.1395 -0.7725
  259MOL0     C34871  -1.393   5.828   2.820  0.1601  1.0265  0.1838
  259MOL0     C34872  -1.497   5.811   2.926 -0.0801  0.7015 -0.1574
  259MOL0     C34873  -1.617   5.910   2.903  0.3674 -0.5011 -0.3679
  259MOL0     C34874  -1.744   5.864   2.965  0.5443 -0.2025  1.1127
  259MOL0    Cl34875  -1.882   5.966   2.934 -0.0340  0.1280  0.3863
  259MOL0     C34876  -0.629   5.860   2.708  0.1047 -0.2971 -0.2477
  259MOL0     C34877  -0.505   5.858   2.641 -0.1801  0.4682 -0.6950
  259MOL0     O34878  -0.234   5.959   2.753  0.0251 -0.1677 -0.8314
  259MOL0     C34879  -0.009   5.730   2.610  0.0880 -0.3493  0.0301
  259MOL0     C34880   0.121   5.714   2.563  0.7458 -0.1301  0.1018
  259MOL0     N34881   0.822   5.379   2.371 -0.3366  0.4155 -0.3009
  259MOL0     N34882   0.928   5.432   2.422 -0.1978 -0.2198  0.3824
  259MOL0     C34883   2.068   5.327   2.730 -0.3157 -0.2534 -0.2264
  259MOL0     C34884   2.211   5.310   2.743 -0.2849 -0.2277 -0.2206
  259MOL0     C34885   2.594   5.240   2.956 -0.2813  0.1668  0.2019
  259MOL0     C34886   2.646   5.319   3.064  0.6411  0.8416 -0.2723
  259MOL0     C34887   2.755   5.284   3.145  0.1910  0.3518 -0.0972
  259MOL0     C34888   2.818   5.160   3.112  0.4412 -0.5642  0.0923
  259MOL0     O34889   2.912   5.106   3.190 -0.8474  0.0068  0.5328
  259MOL0     C34890   3.010   5.194   3.256 -0.3728 -0.1250  0.6116
  259MOL0     C34891   3.157   5.148   3.243 -0.6646  0.5743 -0.5058
  259MOL0     C34892   3.180   4.996   3.248 -0.5538  0.3490 -0.3128
  259MOL0     C34893   3.337   4.969   3.267 -0.0502  0.7682  0.4272
  259MOL0     C34894   3.389   5.035   3.387 -1.0383  0.0290  0.0092
  259MOL0     C34895   3.447   5.072   3.487 -0.2828  0.3084  0.0546
  259MOL0     C34896   2.769   5.080   3.006 -0.0147  1.0490 -0.2139
  259MOL0     C34897   2.662   5.122   2.924  0.1916 -0.2650  0.5009
  259MOL0     H34898   2.226   5.044   2.943  2.3003  0.2882 -2.1554
  259MOL0     H34899   1.974   5.082   2.942  0.3738 -0.1239  0.4965
  259MOL0     H34900   1.769   5.091   2.904  0.1420 -0.0671 -1.4644
  259MOL0     H34901   1.772   5.250   2.993 -1.5757  1.6084 -1.2658
  259MOL0     H34902   1.583   5.187   2.792 -1.7504 -0.5902  1.5810
  259MOL0     H34903   1.554   5.220   2.966 -0.6584  0.4497  1.0275
  259MOL0     H34904   1.672   5.448   2.899  0.2171 -1.8329  0.2031
  259MOL0     H34905   1.669   5.401   2.732  1.3118 -0.1968  0.8428
  259MOL0     H34906   1.439   5.427   2.924 -0.4616 -0.4139 -0.4263
  259MOL0     H34907   1.476   5.551   2.797  0.2765  0.6001  2.8977
  259MOL0     H34908   1.398   5.371   2.634 -0.4237  1.6007  0.3539
  259MOL0     H34909   1.338   5.272   2.763  2.9995 -0.3209  0.8982
  259MOL0     H34910   1.207   5.469   2.853 -1.4522 -4.8550 -0.0249
  259MOL0     H34911   1.268   5.565   2.716  1.8755 -0.1744 -1.1957
  259MOL0     H34912   1.172   5.413   2.557  1.3639  5.0552 -0.7353
  259MOL0     H34913   1.097   5.317   2.690  1.8032  0.4597 -0.9535
  259MOL0     H34914   1.033   5.621   2.617  2.7678  0.5937  0.6554
  259MOL0     H34915   0.963   5.532   2.744 -4.9321 -0.2959 -2.3246
  259MOL0     H34916   0.708   5.515   2.651 -1.6927 -3.5474 -0.1376
  259MOL0     H34917   0.577   5.319   2.337  0.5969  1.9059 -1.9524
  259MOL0     H34918   0.511   5.354   2.499  0.8871  0.9391  1.8424
  259MOL0     H34919   0.432   5.469   2.294  2.6262  0.0173 -3.2546
  259MOL0     H34920   0.585   5.568   2.298 -0.9550  0.4741 -0.3787
  259MOL0     H34921   0.557   5.661   2.505 -0.3452 -0.8986  2.0932
  259MOL0     H34922   0.421   5.545   2.539 -1.4633 -0.2530 -0.5368
  259MOL0     H34923   0.293   5.681   2.342 -1.1658  1.2135  0.2999
  259MOL0     H34924   0.433   5.763   2.316 -0.8588 -0.5152  0.2053
  259MOL0     H34925   0.191   6.041   2.505 -2.4403  0.9177  1.0861
  259MOL0     H34926   0.028   6.182   2.539  3.2367 -2.0890  1.1339
  259MOL0     H34927  -0.128   6.112   2.525  0.5624  1.9739 -1.2376
  259MOL0     H34928  -0.053   6.136   2.693 -0.8202  2.1884 -0.9739
  259MOL0     H34929  -0.358   5.609   2.811  2.6653  1.3492 -2.4113
  259MOL0     H34930  -0.586   5.566   2.878 -2.6025  0.5516 -1.3896
  259MOL0     H34931  -0.886   5.919   2.819  0.9074 -0.3446  3.0991
  259MOL0     H34932  -0.913   5.801   2.683 -1.6653  1.0197 -1.0827
  259MOL0     H34933  -1.038   5.658   2.813  0.1998 -0.4140  1.6423
  259MOL0     H34934  -1.007   5.752   2.960  3.4897  1.5465 -0.5341
  259MOL0     H34935  -1.163   5.874   2.731 -3.5268 -0.8283  1.0219
  259MOL0     H34936  -1.136   5.933   2.889 -1.4627  1.6063 -1.1283
  259MOL0     H34937  -1.280   5.658   2.843 -3.3460 -0.2379 -0.0163
  259MOL0     H34938  -1.264   5.768   2.981  0.3448 -1.8587 -0.7362
  259MOL0     H34939  -1.428   5.789   2.724  0.6707  1.2038 -0.0769
  259MOL0     H34940  -1.383   5.936   2.806  1.0353  1.1082  1.2731
  259MOL0     H34941  -1.518   5.704   2.927  1.6543  0.3475 -0.0780
  259MOL0     H34942  -1.461   5.819   3.029  2.9072 -0.3179 -1.0340
  259MOL0     H34943  -1.636   5.914   2.796  2.9365 -2.8362 -1.0269
  259MOL0     H34944  -1.594   6.009   2.942  1.9074 -1.5135  1.4983
  259MOL0     H34945  -1.740   5.855   3.074  0.6026 -0.9152  1.0561
  259MOL0     H34946  -1.759   5.762   2.928  0.2090 -1.1530  3.6686
  259MOL0     H34947  -0.704   5.931   2.674 -2.4855 -2.8182 -0.2188
  259MOL0     H34948  -0.485   5.929   2.562  2.4375 -1.0805 -1.5271
  259MOL0     H34949  -0.062   5.647   2.656  0.8611 -0.8076  0.1019
  259MOL0     H34950   0.161   5.614   2.563  1.8061  0.2753  0.0380
  259MOL0     H34951   2.028   5.414   2.678 -1.7937 -0.4112  0.5801
  259MOL0     H34952   2.278   5.385   2.701  0.7316 -0.9714  0.0522
  259MOL0     H34953   2.583   5.403   3.089 -1.4235 -0.3443 -1.2061
  259MOL0     H34954   2.791   5.347   3.226  2.2982 -1.9329  0.8848
  259MOL0     H34955   3.005   5.297   3.219  0.0168  0.0794  1.1242
  259MOL0     H34956   2.995   5.198   3.364  1.1230  0.5074  0.8136
  259MOL0     H34957   3.201   5.197   3.330  0.4971  1.6840 -1.6893
  259MOL0     H34958   3.202   5.187   3.151  1.9853 -1.2519 -0.0973
  259MOL0     H34959   3.136   4.954   3.157 -0.3420  0.6616 -0.5610
  259MOL0     H34960   3.125   4.941   3.325 -0.7912 -0.4879 -1.0585
  259MOL0     H34961   3.383   4.992   3.171 -1.8624  0.8071 -0.4692
  259MOL0     H34962   3.334   4.860   3.274 -2.3000  0.6161 -1.4364
  259MOL0     H34963   3.522   5.114   3.551 -1.1706  0.3845  1.0723
  259MOL0     H34964   2.832   4.993   2.989 -0.0483  0.0593  3.7520
  259MOL0     H34965   2.615   5.071   2.840 -0.7074 -1.9460  1.9641
  260MOL0     O34966   2.822   6.397   6.644 -0.5036  0.3981 -0.0448
  260MOL0     C34967   2.853   6.345   6.751 -0.8098  1.0475  0.7564
  260MOL0     O34968   2.777   6.260   6.829  0.8019 -0.0751 -0.1150
  260MOL0     C34969   2.642   6.255   6.803 -0.6243  0.5610  0.4407
  260MOL0     C34970   2.563   6.349   6.742  0.1415  0.2836  0.4169
  260MOL0     C34971   2.421   6.326   6.738 -0.3695  0.9913  0.0816
  260MOL0     C34972   2.360   6.213   6.793 -0.8105  0.5581 -0.0708
  260MOL0     O34973   2.225   6.198   6.799 -0.0056  0.5474  0.3943
  260MOL0     C34974   2.159   6.211   6.673 -0.0097  0.2455  0.6734
  260MOL0     C34975   2.011   6.159   6.680 -0.1796 -0.2397  0.2319
  260MOL0     C34976   2.001   6.004   6.702  0.2229  0.1714 -0.1441
  260MOL0     C34977   1.855   5.953   6.708  0.6397  0.2390 -0.5055
  260MOL0     C34978   1.828   5.802   6.672 -0.4872  0.4000  0.0903
  260MOL0     C34979   1.693   5.753   6.726 -0.3961  0.1755  0.2957
  260MOL0     C34980   1.693   5.749   6.883  0.3674  0.4784  0.7321
  260MOL0     C34981   1.603   5.637   6.929 -0.0902 -0.3237  0.6450
  260MOL0     N34982   1.453   5.655   6.897 -0.6334 -0.2027 -0.5426
  260MOL0     C34983   1.396   5.631   6.775 -0.6438 -0.1507 -0.3563
  260MOL0     C34984   1.276   5.699   6.778  0.4248 -0.3982 -0.1514
  260MOL0     C34985   1.176   5.702   6.668 -0.2653 -0.4840 -0.2322
  260MOL0     C34986   1.035   5.740   6.721 -0.3893  0.2692 -0.2207
  260MOL0     C34987   0.981   5.629   6.804  0.1609 -0.4905 -0.1833
  260MOL0     C34988   0.848   5.573   6.753 -0.2650 -0.4672 -0.2868
  260MOL0     O34989   0.798   5.483   6.857 -0.8619  0.6753  0.0001
  260MOL0     C34990   0.659   5.457   6.870 -0.0917 -0.2667 -0.5291
  260MOL0     C34991   0.566   5.458   6.759 -0.2598  0.0247 -0.0755
  260MOL0     C34992   0.432   5.432   6.774 -0.6697  0.3720 -0.0978
  260MOL0     C34993   0.352   5.456   6.641  0.0049  0.1910  0.0006
  260MOL0     C34994   0.377   5.397   6.900  0.4002 -0.5955  0.9296
  260MOL0     C34995   0.232   5.379   6.917 -0.1954 -0.1790 -0.0211
  260MOL0     O34996   0.176   5.432   7.026 -0.1117  0.0195  0.1880
  260MOL0     C34997   0.051   5.387   7.063 -0.5832 -0.4792 -0.3597
  260MOL0     C34998   0.042   5.308   7.182 -0.3353 -0.0017 -0.1091
  260MOL0     C34999  -0.078   5.252   7.225  0.0315  1.0692  0.3944
  260MOL0     C35000  -0.196   5.283   7.159  0.3070  0.2659  0.1009
  260MOL0     O35001  -0.320   5.234   7.194 -0.2790 -0.2486  0.2638
  260MOL0     C35002  -0.351   5.195   7.326  0.0652 -0.1330 -0.7650
  260MOL0     C35003  -0.501   5.215   7.327  0.1304 -0.0773  0.2902
  260MOL0     C35004  -0.567   5.342   7.279 -0.2362  0.1677 -0.2384
  260MOL0     C35005  -0.715   5.355   7.318  0.1047 -0.0118 -0.7647
  260MOL0     C35006  -0.752   5.502   7.293 -0.1273 -0.0100  0.7358
  260MOL0     C35007  -0.904   5.511   7.289 -1.0035  0.4288 -0.8177
  260MOL0     C35008  -0.944   5.648   7.229 -0.3908 -0.0898 -0.0176
  260MOL0     C35009  -1.087   5.681   7.196  0.2039  0.3264  0.1457
  260MOL0    Cl35010  -1.185   5.679   7.348 -0.0417  0.1738  0.1778
  260MOL0     C35011  -0.190   5.358   7.031  0.2174 -0.0560 -1.6132
  260MOL0     C35012  -0.067   5.419   6.996 -1.6563  0.5886 -0.3454
  260MOL0     O35013   0.174   5.307   6.834  0.4890 -0.1392 -0.2107
  260MOL0     C35014   0.469   5.383   7.008 -0.0195  0.7131 -0.3067
  260MOL0     C35015   0.608   5.416   6.998  0.1402 -0.4719  0.2428
  260MOL0     N35016   1.268   5.775   6.897  0.4629  0.1331  0.5685
  260MOL0     N35017   1.372   5.736   6.968 -0.0967 -0.1050 -0.5258
  260MOL0     C35018   2.445   6.117   6.862  0.2836 -0.0350  0.6898
  260MOL0     C35019   2.583   6.133   6.856  0.2877  0.6176 -0.5182
  260MOL0     C35020   2.993   6.357   6.804 -0.4609 -0.2677 -0.0862
  260MOL0     C35021   3.076   6.465   6.759  0.0624 -0.5435 -0.2237
  260MOL0     C35022   3.200   6.488   6.820 -0.0485  0.0940  0.2207
  260MOL0     C35023   3.257   6.402   6.910  1.0578 -0.4077 -0.2264
  260MOL0     O35024   3.385   6.418   6.960  0.5638 -0.3550 -0.8257
  260MOL0     C35025   3.427   6.350   7.083  0.0091  0.0988 -0.5042
  260MOL0     C35026   3.547   6.411   7.156 -0.1657  0.1152 -0.3436
  260MOL0     C35027   3.679   6.401   7.088 -1.0731 -0.5032 -0.5000
  260MOL0     C35028   3.789   6.462   7.172  0.0787 -0.0210  0.5810
  260MOL0     C35029   3.789   6.602   7.156 -0.2306  0.4351  0.2396
  260MOL0     C35030   3.771   6.720   7.139  0.0361 -0.7578  0.1371
  260MOL0     C35031   3.174   6.294   6.949 -0.9609  0.2206  0.0306
  260MOL0     C35032   3.047   6.267   6.893  0.5054  0.0170 -0.0913
  260MOL0     H35033   2.598   6.435   6.686 -0.4369  1.3828  1.6899
  260MOL0     H35034   2.354   6.392   6.683 -1.9707  2.5098  3.5600
  260MOL0     H35035   2.156   6.319   6.652  0.0930  0.6967  2.7560
  260MOL0     H35036   2.215   6.171   6.588  0.3680  1.0265  0.5422
  260MOL0     H35037   1.954   6.210   6.757 -3.9227 -5.5777  1.5060
  260MOL0     H35038   1.966   6.191   6.585 -0.1045  0.4343  0.4167
  260MOL0     H35039   2.043   5.945   6.620 -0.4326  1.6747 -1.6127
  260MOL0     H35040   2.047   5.969   6.795 -2.1735 -0.2616  0.9740
  260MOL0     H35041   1.818   5.973   6.809 -0.3678 -0.6134 -0.6871
  260MOL0     H35042   1.784   6.003   6.642 -1.9974 -0.5676  1.5532
  260MOL0     H35043   1.826   5.794   6.563 -0.5643 -1.5468  0.2099
  260MOL0     H35044   1.910   5.742   6.714 -2.4352 -3.1637 -0.8084
  260MOL0     H35045   1.611   5.815   6.689 -1.1889 -0.4386  0.9792
  260MOL0     H35046   1.701   5.653   6.682  3.1048  0.5670 -0.2281
  260MOL0     H35047   1.791   5.734   6.930 -0.5330  0.0754  2.5964
  260MOL0     H35048   1.661   5.847   6.918  3.2164  0.6770  3.3023
  260MOL0     H35049   1.614   5.621   7.037  0.9215  0.2416  0.6370
  260MOL0     H35050   1.640   5.546   6.882  0.5809  0.8510 -1.1730
  260MOL0     H35051   1.445   5.562   6.708  1.0222  0.9790 -0.3688
  260MOL0     H35052   1.213   5.788   6.611 -0.8281 -0.5753 -0.7355
  260MOL0     H35053   1.179   5.612   6.605  3.3168  0.5207 -1.7633
  260MOL0     H35054   0.977   5.753   6.630 -1.2326 -2.1764 -0.0893
  260MOL0     H35055   1.032   5.831   6.782 -0.8928 -1.6272  2.8058
  260MOL0     H35056   0.968   5.668   6.906 -2.9008 -0.4818 -0.4707
  260MOL0     H35057   1.051   5.546   6.815 -0.1050 -0.8279 -0.9349
  260MOL0     H35058   0.855   5.524   6.655 -3.3945  0.4695 -1.1012
  260MOL0     H35059   0.789   5.664   6.739  0.7704  0.2457 -0.0968
  260MOL0     H35060   0.608   5.492   6.665  0.3506  0.6710  0.4169
  260MOL0     H35061   0.408   5.484   6.552 -0.7146 -0.7536 -0.7724
  260MOL0     H35062   0.289   5.369   6.622 -1.3784  0.6700  1.9822
  260MOL0     H35063   0.280   5.536   6.658  0.6843  1.4765 -2.7563
  260MOL0     H35064   0.132   5.292   7.241  0.4238  1.6565 -0.7596
  260MOL0     H35065  -0.081   5.186   7.310  3.5393  0.9588  0.5902
  260MOL0     H35066  -0.316   5.093   7.345 -0.7295 -0.6198 -1.7996
  260MOL0     H35067  -0.308   5.267   7.396  2.2901 -1.0606 -1.0941
  260MOL0     H35068  -0.544   5.140   7.260 -0.3732  2.0804 -1.9648
  260MOL0     H35069  -0.522   5.191   7.431  0.3091 -0.0581  0.3310
  260MOL0     H35070  -0.558   5.350   7.171 -2.2165  1.1356 -0.3805
  260MOL0     H35071  -0.505   5.421   7.325  1.6528 -1.2210 -0.2980
  260MOL0     H35072  -0.771   5.293   7.247  0.2700 -0.4217 -0.5409
  260MOL0     H35073  -0.722   5.320   7.422 -1.4256  1.2023 -0.4201
  260MOL0     H35074  -0.704   5.534   7.199  0.1052 -1.8872  0.1739
  260MOL0     H35075  -0.707   5.557   7.376 -1.4671  1.2342  0.6783
  260MOL0     H35076  -0.947   5.429   7.230  1.2965 -2.3126  1.0505
  260MOL0     H35077  -0.953   5.502   7.386 -1.2214  0.2473 -0.9431
  260MOL0     H35078  -0.886   5.664   7.137  0.7215  0.3658  0.7369
  260MOL0     H35079  -0.901   5.714   7.304  1.8895 -1.9685  0.4756
  260MOL0     H35080  -1.125   5.608   7.123  0.4809 -0.0684  0.3920
  260MOL0     H35081  -1.091   5.777   7.144  0.7938  0.0856 -0.3499
  260MOL0     H35082  -0.278   5.379   6.971 -2.3207  1.7399  2.3180
  260MOL0     H35083  -0.071   5.476   6.904  2.0377 -1.1893 -1.7707
  260MOL0     H35084   0.438   5.376   7.111 -0.0190  2.9550 -0.1104
  260MOL0     H35085   0.663   5.406   7.091  3.3817 -4.6498 -1.7930
  260MOL0     H35086   2.390   6.035   6.907 -3.3883  1.7578 -0.1066
  260MOL0     H35087   2.660   6.063   6.889  1.1948 -0.4838 -4.4507
  260MOL0     H35088   3.025   6.537   6.696 -0.8240 -1.9963 -1.2474
  260MOL0     H35089   3.252   6.583   6.809 -1.4689  0.9115  0.3236
  260MOL0     H35090   3.340   6.361   7.149  1.2709  1.6439  0.9945
  260MOL0     H35091   3.439   6.242   7.077 -0.9995 -0.0551 -0.0630
  260MOL0     H35092   3.549   6.364   7.255 -1.5710 -0.2160 -0.4529
  260MOL0     H35093   3.523   6.514   7.180 -1.2456  0.2193 -1.7802
  260MOL0     H35094   3.675   6.449   6.990  0.8983  0.2905 -0.2252
  260MOL0     H35095   3.706   6.296   7.076 -1.2800 -0.5288 -0.7534
  260MOL0     H35096   3.884   6.421   7.138  0.3186  0.4385  0.6981
  260MOL0     H35097   3.783   6.423   7.274  1.4485 -0.2459  0.5899
  260MOL0     H35098   3.752   6.825   7.125 -1.5708 -0.9352  0.7447
  260MOL0     H35099   3.220   6.220   7.014 -0.7016 -1.5143 -1.9943
  260MOL0     H35100   2.983   6.184   6.922 -1.1174  1.1767 -0.2584
  261MOL0     O35101   0.933   1.522   3.375 -0.6206  0.0681 -0.4962
  261MOL0     C35102   0.966   1.528   3.256 -0.4052  1.0152 -0.3930
  261MOL0     O35103   0.882   1.558   3.159 -0.1204 -0.5022 -0.0538
  261MOL0     C35104   0.746   1.567   3.176 -0.2772 -0.6007 -0.1747
  261MOL0     C35105   0.666   1.573   3.288 -0.1059 -0.2966 -0.7543
  261MOL0     C35106   0.530   1.593   3.274  0.0024 -0.5138  0.4875
  261MOL0     C35107   0.465   1.595   3.148 -0.2416 -0.3965  0.0718
  261MOL0     O35108   0.327   1.618   3.149 -0.4116  0.0409 -0.1180
  261MOL0     C35109   0.290   1.714   3.053  0.3331 -0.0376  1.3848
  261MOL0     C35110   0.150   1.768   3.083  0.1564  0.3813 -0.0884
  261MOL0     C35111   0.053   1.652   3.119 -0.3590 -0.0155 -0.5177
  261MOL0     C35112  -0.083   1.724   3.131  1.1976  0.1503 -0.5462
  261MOL0     C35113  -0.208   1.632   3.161 -0.7542 -0.3802 -0.2255
  261MOL0     C35114  -0.325   1.710   3.203  1.1514 -0.3800 -0.5246
  261MOL0     C35115  -0.446   1.627   3.257  0.3006 -1.2429 -0.1805
  261MOL0     C35116  -0.426   1.558   3.398 -1.9914 -0.1993  0.6123
  261MOL0     N35117  -0.412   1.665   3.512  0.4934 -1.0469  1.2725
  261MOL0     C35118  -0.303   1.676   3.593 -0.5138 -0.1249 -0.3740
  261MOL0     C35119  -0.325   1.801   3.659 -0.2155  0.5583  0.6506
  261MOL0     C35120  -0.238   1.874   3.749  0.3202 -0.3459 -0.0244
  261MOL0     C35121  -0.202   1.794   3.877 -0.1154 -1.0197 -0.4104
  261MOL0     C35122  -0.098   1.884   3.958  0.6900  0.7728  0.1928
  261MOL0     C35123  -0.068   1.816   4.093 -0.1576 -0.5385  0.1714
  261MOL0     O35124   0.022   1.894   4.172 -0.6410  0.0266 -0.3001
  261MOL0     C35125  -0.004   1.900   4.305 -0.5227  1.1965 -0.4184
  261MOL0     C35126   0.095   1.874   4.403  0.3674  0.4195 -0.5484
  261MOL0     C35127   0.068   1.862   4.541  0.7945 -0.1467 -0.5758
  261MOL0     C35128   0.182   1.825   4.637 -0.1074 -0.7218 -0.4618
  261MOL0     C35129  -0.064   1.889   4.588 -0.0701  0.9675  0.0219
  261MOL0     C35130  -0.114   1.865   4.730  0.7392 -0.4853 -0.2141
  261MOL0     O35131  -0.242   1.918   4.744  0.3625  0.6881  0.0642
  261MOL0     C35132  -0.308   1.874   4.852  0.2457 -0.2333  0.7193
  261MOL0     C35133  -0.268   1.906   4.979 -0.0637 -0.5068  1.0731
  261MOL0     C35134  -0.324   1.859   5.096 -0.3723  0.0498  0.4165
  261MOL0     C35135  -0.451   1.792   5.095 -0.5596 -0.1494  0.3602
  261MOL0     O35136  -0.516   1.738   5.207  0.2895 -0.0155 -1.1534
  261MOL0     C35137  -0.627   1.645   5.194 -0.2658 -0.7273 -0.0264
  261MOL0     C35138  -0.757   1.712   5.185 -0.3776 -1.5725  0.5415
  261MOL0     C35139  -0.813   1.742   5.319 -0.1887  0.1331 -0.4981
  261MOL0     C35140  -0.884   1.638   5.399 -0.1031 -0.2531  0.4790
  261MOL0     C35141  -0.885   1.660   5.545  0.9299 -0.4285  0.8219
  261MOL0     C35142  -0.945   1.801   5.580  0.7213  0.3053 -0.5505
  261MOL0     C35143  -1.097   1.821   5.560  0.0067 -0.3798  0.4668
  261MOL0     C35144  -1.183   1.732   5.644  0.2281  0.0606 -0.8929
  261MOL0    Cl35145  -1.249   1.607   5.542 -0.2735  0.0676  0.1494
  261MOL0     C35146  -0.496   1.766   4.967  0.8016 -0.7263  0.0216
  261MOL0     C35147  -0.427   1.804   4.846 -0.7473  0.2162  0.3105
  261MOL0     O35148  -0.042   1.806   4.814  0.3233  0.6633 -0.1442
  261MOL0     C35149  -0.159   1.936   4.487 -0.0696 -0.2651 -0.0281
  261MOL0     C35150  -0.129   1.934   4.351  0.1816 -0.4127 -0.1767
  261MOL0     N35151  -0.443   1.850   3.614 -0.1499  0.1992  0.1797
  261MOL0     N35152  -0.494   1.772   3.530 -0.3650  0.5020 -0.8736
  261MOL0     C35153   0.543   1.581   3.034  0.2502  0.4315  0.2498
  261MOL0     C35154   0.683   1.568   3.052  0.0289  0.0204 -0.0323
  261MOL0     C35155   1.111   1.514   3.217  0.3771 -0.0250  0.3218
  261MOL0     C35156   1.160   1.544   3.089  0.2287  0.0294  0.0344
  261MOL0     C35157   1.300   1.534   3.063  0.1353  0.3495  0.3199
  261MOL0     C35158   1.387   1.493   3.157  0.3618 -0.6815 -0.4647
  261MOL0     O35159   1.522   1.502   3.121  0.5174 -0.4663  0.1544
  261MOL0     C35160   1.613   1.425   3.200  0.1301 -0.6418  0.4758
  261MOL0     C35161   1.742   1.437   3.121 -0.2248  0.6977 -0.1697
  261MOL0     C35162   1.845   1.338   3.184  0.3222 -0.8734 -0.3823
  261MOL0     C35163   1.987   1.343   3.125 -0.0917 -0.4166 -0.2424
  261MOL0     C35164   2.067   1.457   3.180 -0.2172  0.1027  0.2933
  261MOL0     C35165   2.135   1.548   3.216 -0.2610 -0.2409  0.1203
  261MOL0     C35166   1.337   1.448   3.279  0.8423  0.8088 -0.3963
  261MOL0     C35167   1.197   1.462   3.305  0.3753  0.0713  0.2695
  261MOL0     H35168   0.709   1.578   3.387  2.3202  2.0974 -1.8101
  261MOL0     H35169   0.475   1.601   3.367  1.7885 -0.9602  1.6376
  261MOL0     H35170   0.364   1.794   3.050  2.5105 -1.8311 -3.8567
  261MOL0     H35171   0.282   1.679   2.950  0.9917  4.6094 -0.4513
  261MOL0     H35172   0.155   1.842   3.163 -0.8747  0.2387  0.1250
  261MOL0     H35173   0.125   1.819   2.990  3.4924 -1.0943 -2.0073
  261MOL0     H35174   0.044   1.572   3.045 -0.5321 -0.4323 -0.0484
  261MOL0     H35175   0.078   1.604   3.214  0.2606 -0.4399 -0.8888
  261MOL0     H35176  -0.072   1.809   3.199 -0.9922 -0.6681  0.9282
  261MOL0     H35177  -0.104   1.777   3.038  2.4009 -0.5816 -1.2573
  261MOL0     H35178  -0.219   1.577   3.067  0.4226 -0.1161 -0.5296
  261MOL0     H35179  -0.183   1.551   3.230  1.9434  1.9217  1.7209
  261MOL0     H35180  -0.289   1.779   3.280 -0.5213  1.0621 -0.9675
  261MOL0     H35181  -0.360   1.769   3.118 -0.1541 -3.8043 -2.5881
  261MOL0     H35182  -0.535   1.690   3.264 -0.7687 -2.8055  0.9604
  261MOL0     H35183  -0.473   1.553   3.182 -2.2733 -1.7618  1.1334
  261MOL0     H35184  -0.335   1.499   3.387  0.1482  2.9484  0.0903
  261MOL0     H35185  -0.509   1.489   3.417 -1.6250 -0.7965  0.0897
  261MOL0     H35186  -0.211   1.620   3.608 -1.3763 -1.7358 -0.8497
  261MOL0     H35187  -0.139   1.881   3.704  1.2675  0.4165  2.0658
  261MOL0     H35188  -0.268   1.975   3.777  1.2776 -0.9097  3.5130
  261MOL0     H35189  -0.148   1.701   3.854  1.1493 -0.5481  0.5457
  261MOL0     H35190  -0.286   1.763   3.940  0.4004 -0.1026  0.7622
  261MOL0     H35191  -0.138   1.986   3.962 -0.3733  0.6226 -3.2208
  261MOL0     H35192  -0.006   1.891   3.900  0.0168  0.3273 -0.9630
  261MOL0     H35193  -0.028   1.716   4.075 -1.0129 -1.1623  1.5911
  261MOL0     H35194  -0.166   1.802   4.140  0.0395 -0.7430  0.5272
  261MOL0     H35195   0.197   1.865   4.367  1.3673  1.7440  1.6774
  261MOL0     H35196   0.159   1.733   4.690 -0.7595 -0.0361  0.4746
  261MOL0     H35197   0.270   1.805   4.574  1.3684  1.4897  0.7213
  261MOL0     H35198   0.209   1.897   4.715  3.9532 -1.7753 -0.6727
  261MOL0     H35199  -0.172   1.956   4.972 -0.1714 -0.3586  0.6086
  261MOL0     H35200  -0.277   1.879   5.191 -0.9832  1.7120  0.3996
  261MOL0     H35201  -0.609   1.579   5.109  3.7591 -0.9728  0.8250
  261MOL0     H35202  -0.625   1.582   5.282  1.3831  1.8637  1.9489
  261MOL0     H35203  -0.734   1.811   5.144 -1.2172 -2.0296 -1.1030
  261MOL0     H35204  -0.831   1.648   5.136 -1.9289 -1.9588  3.1916
  261MOL0     H35205  -0.889   1.817   5.299  0.6646  2.0752  2.8059
  261MOL0     H35206  -0.733   1.791   5.376 -1.3356 -1.7729  3.1061
  261MOL0     H35207  -0.986   1.640   5.358 -0.0142  0.8408  0.2815
  261MOL0     H35208  -0.860   1.534   5.376  1.4276 -0.0685  1.0979
  261MOL0     H35209  -0.786   1.629   5.581  0.9504 -0.6968  0.5381
  261MOL0     H35210  -0.959   1.589   5.582  0.3067 -0.3382 -0.2095
  261MOL0     H35211  -0.922   1.817   5.686  1.9854  0.8967 -0.8952
  261MOL0     H35212  -0.892   1.885   5.534 -0.3434  1.1956 -0.1896
  261MOL0     H35213  -1.119   1.825   5.453  4.0972  0.8923 -0.5198
  261MOL0     H35214  -1.117   1.927   5.578  0.9361  0.3419 -2.2063
  261MOL0     H35215  -1.260   1.796   5.687  0.8032  2.0269 -2.6368
  261MOL0     H35216  -1.126   1.685   5.724  1.3100  1.4485 -0.8190
  261MOL0     H35217  -0.585   1.705   4.957  0.4416 -0.6352  2.3024
  261MOL0     H35218  -0.473   1.787   4.749  0.7229 -0.6120 -0.2661
  261MOL0     H35219  -0.251   1.978   4.526  1.1844  1.5815  1.1126
  261MOL0     H35220  -0.191   1.978   4.273 -0.4052 -0.1452  0.4332
  261MOL0     H35221   0.491   1.571   2.939  0.5238 -2.2558  0.3059
  261MOL0     H35222   0.737   1.541   2.962  1.2695  1.8454  0.1175
  261MOL0     H35223   1.092   1.574   3.010  0.1196 -1.7998 -0.6158
  261MOL0     H35224   1.321   1.560   2.959 -0.8725 -0.5745 -0.1307
  261MOL0     H35225   1.619   1.473   3.299 -0.6276 -0.2175  0.3190
  261MOL0     H35226   1.581   1.321   3.196  0.4039 -0.6833 -2.5520
  261MOL0     H35227   1.765   1.543   3.129 -0.2546  0.6793  0.1639
  261MOL0     H35228   1.726   1.405   3.018  0.8978 -1.5880  0.2877
  261MOL0     H35229   1.805   1.236   3.178 -1.4093 -0.3445  1.1377
  261MOL0     H35230   1.855   1.355   3.292 -3.1680 -0.5680  0.0183
  261MOL0     H35231   1.973   1.361   3.018 -0.4387  0.4051 -0.0694
  261MOL0     H35232   2.036   1.248   3.148  0.7251  0.4167  1.6738
  261MOL0     H35233   2.200   1.625   3.252  1.0603  1.0226 -4.3031
  261MOL0     H35234   1.398   1.405   3.358  0.1767  0.3025 -0.1441
  261MOL0     H35235   1.160   1.432   3.402 -1.8025 -2.3880 -1.1877
  262MOL0     O35236   1.875   7.331   7.633 -0.0461  0.2466 -0.2834
  262MOL0     C35237   1.944   7.428   7.647 -0.2759  0.1129 -0.3865
  262MOL0     O35238   1.900   7.554   7.660  0.4216  0.1410  0.7818
  262MOL0     C35239   1.795   7.583   7.584  0.2427 -0.1137  0.6313
  262MOL0     C35240   1.798   7.579   7.448  0.0341 -0.9920  0.0844
  262MOL0     C35241   1.677   7.597   7.372 -0.9669  0.5204 -0.0958
  262MOL0     C35242   1.558   7.611   7.439 -0.3127  0.1240 -0.5553
  262MOL0     O35243   1.431   7.623   7.384 -0.3002 -0.2100  0.4336
  262MOL0     C35244   1.405   7.595   7.247  0.2118 -0.3641 -0.4886
  262MOL0     C35245   1.249   7.605   7.222 -0.3603 -0.3867  0.3526
  262MOL0     C35246   1.165   7.498   7.296  0.4634 -0.6041 -0.3353
  262MOL0     C35247   1.019   7.537   7.294  0.2346  0.1923 -0.9969
  262MOL0     C35248   0.947   7.473   7.411  0.1232  0.5431  0.9006
  262MOL0     C35249   0.802   7.483   7.394 -0.3023 -0.4042 -0.8180
  262MOL0     C35250   0.725   7.350   7.372 -0.2014  0.0895 -0.2516
  262MOL0     C35251   0.780   7.283   7.250  0.6630  0.2379  0.0854
  262MOL0     N35252   0.722   7.146   7.225  0.5465  0.2745  0.1801
  262MOL0     C35253   0.733   7.042   7.309  0.8461 -0.0142  0.6031
  262MOL0     C35254   0.680   6.941   7.238  0.0858  0.6402  0.4129
  262MOL0     C35255   0.681   6.802   7.288 -0.3390 -0.6194  0.0659
  262MOL0     C35256   0.546   6.728   7.258  0.0715 -0.1023  0.4047
  262MOL0     C35257   0.431   6.799   7.324 -0.2162 -0.1880 -0.9029
  262MOL0     C35258   0.311   6.702   7.345  0.0946  0.0544 -0.3862
  262MOL0     O35259   0.277   6.653   7.217 -0.0914  1.1253  0.2636
  262MOL0     C35260   0.153   6.601   7.194  0.9300  0.4780  0.9696
  262MOL0     C35261   0.059   6.571   7.296  0.1078  0.2040  0.0226
  262MOL0     C35262  -0.069   6.518   7.270  0.6362  0.0192 -0.4098
  262MOL0     C35263  -0.168   6.504   7.382 -0.3052 -0.8496  0.3587
  262MOL0     C35264  -0.104   6.500   7.130 -0.1312  0.7694 -0.0552
  262MOL0     C35265  -0.221   6.415   7.077  0.5738 -0.1086 -1.6733
  262MOL0     O35266  -0.239   6.413   6.942  0.7697  0.3413 -0.3848
  262MOL0     C35267  -0.341   6.347   6.884 -0.2931  0.3797  0.9293
  262MOL0     C35268  -0.409   6.411   6.777  1.1884  0.2847 -0.2702
  262MOL0     C35269  -0.524   6.352   6.718  0.5882  0.8838 -0.9837
  262MOL0     C35270  -0.568   6.222   6.752  0.5840  0.1596  0.0721
  262MOL0     O35271  -0.670   6.154   6.686 -0.4357  1.1374  0.4730
  262MOL0     C35272  -0.766   6.234   6.618  0.0578 -0.4134  0.1221
  262MOL0     C35273  -0.886   6.132   6.591  0.7333 -0.5358  0.6735
  262MOL0     C35274  -1.015   6.210   6.564 -0.2163 -0.8414  0.5347
  262MOL0     C35275  -1.134   6.120   6.520  0.4874  0.4590  0.5475
  262MOL0     C35276  -1.241   6.215   6.471 -0.4162  0.4710  0.7064
  262MOL0     C35277  -1.360   6.171   6.390  0.4037  0.4870 -0.1813
  262MOL0     C35278  -1.421   6.285   6.318  0.6647 -0.3915 -0.1564
  262MOL0     C35279  -1.553   6.243   6.239  0.4029 -0.1149  0.4805
  262MOL0    Cl35280  -1.654   6.123   6.333 -0.0195 -0.1669  0.1356
  262MOL0     C35281  -0.487   6.155   6.849  0.1060  0.1631  0.1234
  262MOL0     C35282  -0.374   6.210   6.907  0.6245 -0.4064 -0.1204
  262MOL0     O35283  -0.294   6.361   7.154 -0.3582  0.7142  0.4164
  262MOL0     C35284  -0.017   6.539   7.033  0.1091  0.3488 -0.1243
  262MOL0     C35285   0.109   6.589   7.068  0.9246  0.0553  0.9159
  262MOL0     N35286   0.647   6.974   7.110 -0.2586 -0.5479  0.6923
  262MOL0     N35287   0.675   7.102   7.105  0.3512  0.3424 -0.3080
  262MOL0     C35288   1.558   7.610   7.581 -0.4311  0.4177  0.3736
  262MOL0     C35289   1.676   7.606   7.652  0.0020 -0.5053  0.1591
  262MOL0     C35290   2.092   7.410   7.650 -0.1563  0.6939 -0.1882
  262MOL0     C35291   2.174   7.522   7.685  0.5529 -0.1787 -0.0624
  262MOL0     C35292   2.314   7.509   7.705 -0.8408 -0.2728 -0.4220
  262MOL0     C35293   2.377   7.388   7.667  0.0159  0.5071 -0.1968
  262MOL0     O35294   2.513   7.366   7.657  0.7789  0.1559 -0.0581
  262MOL0     C35295   2.602   7.432   7.754 -0.8857 -0.1483 -0.0906
  262MOL0     C35296   2.741   7.379   7.766 -0.2769 -0.1743  0.2739
  262MOL0     C35297   2.832   7.490   7.818 -0.5598  0.2347 -0.9916
  262MOL0     C35298   2.959   7.424   7.880  0.5959 -0.3779 -0.4976
  262MOL0     C35299   3.072   7.520   7.862 -0.1227 -0.2530 -0.2005
  262MOL0     C35300   3.167   7.602   7.867 -0.4874  0.4453 -0.2362
  262MOL0     C35301   2.294   7.281   7.629 -0.3733  0.9155  0.2482
  262MOL0     C35302   2.150   7.287   7.624 -1.0123 -0.5767 -0.8674
  262MOL0     H35303   1.898   7.561   7.408  0.2311  0.4945 -0.1633
  262MOL0     H35304   1.675   7.586   7.264  2.0367  0.5959 -0.2368
  262MOL0     H35305   1.457   7.676   7.196  0.1188  0.8545  1.2699
  262MOL0     H35306   1.447   7.499   7.216  1.5399  0.4128 -1.2041
  262MOL0     H35307   1.220   7.705   7.256  2.5747  0.3604  0.9614
  262MOL0     H35308   1.228   7.590   7.116  0.4089 -4.0414  0.5729
  262MOL0     H35309   1.163   7.399   7.250  1.7591 -0.7888 -0.0211
  262MOL0     H35310   1.196   7.484   7.400 -0.6045 -0.0853  0.0738
  262MOL0     H35311   1.013   7.641   7.325 -0.8314  0.1980 -1.1866
  262MOL0     H35312   0.975   7.513   7.197 -0.2613 -0.0353 -0.7257
  262MOL0     H35313   0.970   7.368   7.428 -1.3560  0.3813  2.1364
  262MOL0     H35314   0.970   7.525   7.505  0.7287  1.4843  0.2519
  262MOL0     H35315   0.751   7.530   7.479  2.3283 -2.4451  2.1067
  262MOL0     H35316   0.790   7.545   7.305  1.0108  0.5003 -0.3891
  262MOL0     H35317   0.740   7.290   7.462 -1.6613 -0.1208 -0.1331
  262MOL0     H35318   0.620   7.379   7.369 -0.2999  0.0721  1.5088
  262MOL0     H35319   0.889   7.275   7.257  0.6095  0.7872  4.0999
  262MOL0     H35320   0.743   7.345   7.168  1.2144  0.5365  0.0583
  262MOL0     H35321   0.777   7.041   7.408  2.8894 -3.3385 -0.1774
  262MOL0     H35322   0.761   6.745   7.239  1.5055  1.8803 -0.0421
  262MOL0     H35323   0.707   6.803   7.394 -1.7116 -1.4683  0.4390
  262MOL0     H35324   0.552   6.623   7.288 -0.8190 -0.5248 -0.8145
  262MOL0     H35325   0.524   6.735   7.151 -2.4221 -0.5114  0.8287
  262MOL0     H35326   0.411   6.887   7.262 -0.7528  0.8950  0.7508
  262MOL0     H35327   0.453   6.831   7.426 -3.3385 -1.1652  0.2106
  262MOL0     H35328   0.221   6.747   7.388  0.2764  1.3318 -1.2891
  262MOL0     H35329   0.350   6.614   7.397 -0.0226  0.5613  0.5828
  262MOL0     H35330   0.090   6.587   7.398  4.5385  1.2832 -1.3066
  262MOL0     H35331  -0.138   6.558   7.472 -2.9502  0.9635  0.2685
  262MOL0     H35332  -0.260   6.554   7.349  0.2835  1.6879  2.2359
  262MOL0     H35333  -0.180   6.397   7.401 -1.0859 -0.5893  1.4496
  262MOL0     H35334  -0.361   6.501   6.740  0.0446  1.7789  1.6491
  262MOL0     H35335  -0.577   6.421   6.653 -0.8504 -1.1930 -2.1360
  262MOL0     H35336  -0.804   6.311   6.685  0.9704 -0.4947  0.7510
  262MOL0     H35337  -0.722   6.269   6.524  1.6428  0.3667  1.1050
  262MOL0     H35338  -0.859   6.070   6.505  1.9526  1.6982 -0.6357
  262MOL0     H35339  -0.910   6.064   6.674 -2.5141 -2.3453 -1.5396
  262MOL0     H35340  -0.999   6.267   6.472 -1.1120 -1.8637 -0.2928
  262MOL0     H35341  -1.040   6.277   6.646  2.1397  1.6149 -0.5953
  262MOL0     H35342  -1.105   6.055   6.437  1.4431  1.0578  0.3941
  262MOL0     H35343  -1.159   6.060   6.608 -1.3563 -1.6945 -1.3102
  262MOL0     H35344  -1.189   6.292   6.413  3.2762 -3.5414 -2.0050
  262MOL0     H35345  -1.270   6.261   6.565 -0.0798  1.0817  0.5153
  262MOL0     H35346  -1.327   6.107   6.307  0.9777 -1.9861  1.8277
  262MOL0     H35347  -1.423   6.119   6.463 -0.3781 -1.6907 -2.2578
  262MOL0     H35348  -1.349   6.337   6.255 -0.3146  3.6020  1.6832
  262MOL0     H35349  -1.458   6.349   6.399 -0.0654 -0.9014 -0.0727
  262MOL0     H35350  -1.528   6.208   6.139 -4.7766  1.3677 -1.6639
  262MOL0     H35351  -1.611   6.332   6.213  0.3961 -0.3427 -0.3097
  262MOL0     H35352  -0.521   6.058   6.884 -0.9260  0.3862 -0.2295
  262MOL0     H35353  -0.299   6.154   6.962  1.8735 -0.2112 -1.5474
  262MOL0     H35354  -0.038   6.527   6.927  2.5454 -1.8011 -0.4751
  262MOL0     H35355   0.182   6.616   6.992 -0.1118  2.3713  0.6672
  262MOL0     H35356   1.464   7.621   7.635  0.7298 -0.3418  2.6962
  262MOL0     H35357   1.673   7.610   7.760 -0.4195 -0.0032  0.1299
  262MOL0     H35358   2.136   7.621   7.703  2.1775  0.4368  0.1712
  262MOL0     H35359   2.376   7.597   7.717 -3.0248  1.8044 -2.8988
  262MOL0     H35360   2.613   7.535   7.719 -1.7791  0.3318  0.9671
  262MOL0     H35361   2.549   7.434   7.850 -0.9720  1.4162 -0.1461
  262MOL0     H35362   2.780   7.343   7.670  2.9553 -3.1528  2.4768
  262MOL0     H35363   2.745   7.291   7.830  1.2056  0.3525  0.9459
  262MOL0     H35364   2.774   7.541   7.895 -1.8520 -1.5435 -0.7343
  262MOL0     H35365   2.864   7.561   7.741 -2.3561 -1.0118 -2.9841
  262MOL0     H35366   2.981   7.339   7.816 -0.7579 -1.1139 -0.0378
  262MOL0     H35367   2.947   7.390   7.984  0.9319 -0.2684 -0.4212
  262MOL0     H35368   3.250   7.669   7.872  1.1786 -1.1521 -3.3049
  262MOL0     H35369   2.347   7.189   7.607 -1.4559  0.1543  0.7677
  262MOL0     H35370   2.091   7.201   7.594 -1.4404 -0.3910 -0.5563
  263MOL0     O35371   4.940   1.443   7.987 -0.0378  0.6690 -0.4516
  263MOL0     C35372   4.963   1.463   8.104 -0.0904 -0.1386 -0.2980
  263MOL0     O35373   4.869   1.509   8.188 -0.6990 -0.9399 -0.6685
  263MOL0     C35374   4.746   1.535   8.136 -0.0733 -0.0899  0.9042
  263MOL0     C35375   4.652   1.431   8.109 -0.8790  0.0742  0.2238
  263MOL0     C35376   4.528   1.467   8.054  0.7890  0.2580  0.0366
  263MOL0     C35377   4.494   1.598   8.037  0.3178 -0.7660  0.0716
  263MOL0     O35378   4.378   1.639   7.969 -0.7001 -0.2515 -0.4887
  263MOL0     C35379   4.276   1.543   7.964  1.1205 -0.3775  0.6589
  263MOL0     C35380   4.143   1.621   7.923 -0.0435  0.2705 -0.1335
  263MOL0     C35381   4.027   1.530   7.882 -0.1695  0.5653 -1.2236
  263MOL0     C35382   3.905   1.618   7.850  0.2323  0.2788  0.0264
  263MOL0     C35383   3.795   1.523   7.805 -0.1294 -0.3673 -0.3793
  263MOL0     C35384   3.659   1.594   7.812  0.5387  0.6019 -0.6402
  263MOL0     C35385   3.548   1.485   7.798 -0.7233  0.2613  0.2824
  263MOL0     C35386   3.515   1.384   7.916 -0.3514 -0.1402  0.2514
  263MOL0     N35387   3.414   1.284   7.883  0.4390  0.5565  0.5716
  263MOL0     C35388   3.291   1.313   7.828 -0.2150  0.0262  0.4190
  263MOL0     C35389   3.255   1.191   7.771  0.7108  0.4471 -0.6535
  263MOL0     C35390   3.123   1.161   7.707 -0.9270  0.5193  0.9084
  263MOL0     C35391   3.009   1.133   7.802 -0.1672  0.0662  0.3670
  263MOL0     C35392   2.893   1.063   7.728 -0.5506  0.1407  0.3462
  263MOL0     C35393   2.769   1.041   7.816 -0.8312  0.1848  0.1948
  263MOL0     O35394   2.648   1.031   7.737  0.0057  0.0934  0.2841
  263MOL0     C35395   2.533   1.060   7.806 -0.3246 -0.3800  0.6917
  263MOL0     C35396   2.520   1.072   7.948 -0.9065 -0.0779 -0.2931
  263MOL0     C35397   2.397   1.087   8.013  0.7710 -0.1466  0.3305
  263MOL0     C35398   2.391   1.088   8.165 -0.3269 -0.4142  0.4311
  263MOL0     C35399   2.285   1.102   7.927 -0.1354  0.1214 -0.1439
  263MOL0     C35400   2.147   1.109   7.993 -0.0654 -0.0471  0.0918
  263MOL0     O35401   2.115   0.999   8.065 -0.0912  0.5792 -0.1706
  263MOL0     C35402   1.987   0.985   8.106  0.5733  0.0745  0.4928
  263MOL0     C35403   1.945   1.043   8.226  0.0341  0.2348  0.4377
  263MOL0     C35404   1.804   1.039   8.246  0.1291  0.7448  0.6643
  263MOL0     C35405   1.722   0.963   8.163  0.9346 -0.7107  0.4041
  263MOL0     O35406   1.589   0.936   8.197  0.0832  0.4337 -0.8282
  263MOL0     C35407   1.512   1.046   8.246  0.7322  0.7810 -0.7274
  263MOL0     C35408   1.364   1.002   8.252 -0.2480 -0.8157  0.2248
  263MOL0     C35409   1.303   0.993   8.110  0.5637 -0.1515  0.9890
  263MOL0     C35410   1.161   0.922   8.118  0.2934  0.3405 -0.7954
  263MOL0     C35411   1.183   0.769   8.125  0.2484 -0.1808  0.1828
  263MOL0     C35412   1.045   0.697   8.116  0.1760 -0.4561  0.4122
  263MOL0     C35413   1.062   0.551   8.138  0.1117 -0.1332 -0.1906
  263MOL0     C35414   0.933   0.494   8.159  0.3383 -0.3982 -0.8789
  263MOL0    Cl35415   0.935   0.313   8.122 -0.0157 -0.0018 -0.3605
  263MOL0     C35416   1.766   0.902   8.052  0.3586  0.6039  0.9163
  263MOL0     C35417   1.899   0.932   8.011  0.0569  0.5877 -1.1062
  263MOL0     O35418   2.071   1.199   7.959 -0.0284  0.0384 -0.0228
  263MOL0     C35419   2.297   1.095   7.787  0.0535  0.0780 -0.3857
  263MOL0     C35420   2.420   1.081   7.728  0.3350 -0.2812 -0.1672
  263MOL0     N35421   3.350   1.102   7.802  0.8010 -0.4632 -0.5768
  263MOL0     N35422   3.442   1.152   7.874  0.4841 -0.7635  0.5894
  263MOL0     C35423   4.587   1.700   8.070  0.2551  0.5228 -0.9198
  263MOL0     C35424   4.709   1.668   8.119  0.3907  0.2181 -0.7167
  263MOL0     C35425   5.096   1.438   8.158 -0.3560 -0.5149  0.4701
  263MOL0     C35426   5.122   1.431   8.292 -0.4211 -0.4285  0.1167
  263MOL0     C35427   5.253   1.396   8.336  0.2938  0.1683  0.8359
  263MOL0     C35428   5.352   1.378   8.246 -0.7206 -0.0597  0.0442
  263MOL0     O35429   5.476   1.350   8.300 -0.3219 -0.5774 -0.2366
  263MOL0     C35430   5.593   1.352   8.220 -0.1670 -0.0603  0.8057
  263MOL0     C35431   5.713   1.288   8.290  0.2849  0.2524  0.4648
  263MOL0     C35432   5.838   1.305   8.202 -0.5050  0.5696 -0.2503
  263MOL0     C35433   5.964   1.247   8.286  0.0776 -0.2491  0.2217
  263MOL0     C35434   6.098   1.255   8.222 -0.6586 -0.4518  0.1102
  263MOL0     C35435   6.207   1.283   8.168 -0.2482  0.6682 -0.2871
  263MOL0     C35436   5.332   1.390   8.112  0.4722 -0.4052  0.3908
  263MOL0     C35437   5.202   1.417   8.066  1.0449  0.2846  0.8265
  263MOL0     H35438   4.670   1.326   8.131 -3.1029 -0.6700 -1.1220
  263MOL0     H35439   4.462   1.384   8.032 -0.5783  1.7180 -1.7283
  263MOL0     H35440   4.281   1.459   7.894 -1.1870  0.9324 -1.2486
  263MOL0     H35441   4.266   1.512   8.068 -0.0468 -1.8568  0.1413
  263MOL0     H35442   4.121   1.693   8.003  0.3490  0.3849 -0.1268
  263MOL0     H35443   4.164   1.685   7.836  0.6691 -0.4572 -0.5101
  263MOL0     H35444   4.040   1.463   7.796 -3.5917 -0.1214 -1.3507
  263MOL0     H35445   3.993   1.463   7.961  1.4380 -1.6561 -2.3063
  263MOL0     H35446   3.882   1.671   7.944  0.1323 -1.6381  1.1398
  263MOL0     H35447   3.926   1.692   7.772  0.2933  0.1675 -0.0630
  263MOL0     H35448   3.816   1.480   7.706 -4.5415 -0.2227 -1.6346
  263MOL0     H35449   3.793   1.433   7.866  1.6748  0.9157  1.6868
  263MOL0     H35450   3.652   1.654   7.903 -0.0896 -0.0006 -0.2832
  263MOL0     H35451   3.644   1.672   7.737 -0.1188  1.8622  0.7467
  263MOL0     H35452   3.455   1.537   7.772 -1.1659 -0.5064  0.3052
  263MOL0     H35453   3.562   1.428   7.706  0.3990  0.7132  0.1590
  263MOL0     H35454   3.471   1.440   7.999  3.2924  1.0940  1.5626
  263MOL0     H35455   3.607   1.339   7.956  1.1441  2.5682  0.0785
  263MOL0     H35456   3.239   1.408   7.823 -1.4486 -0.6908 -1.9690
  263MOL0     H35457   3.098   1.252   7.652  1.3581  2.2693  2.5512
  263MOL0     H35458   3.124   1.081   7.633 -0.5232  0.7859  0.6223
  263MOL0     H35459   2.971   1.227   7.842 -0.4701  0.6114 -1.1263
  263MOL0     H35460   3.050   1.071   7.881  1.4315  0.3105 -0.2427
  263MOL0     H35461   2.924   0.965   7.690  1.8106  1.2766 -0.8469
  263MOL0     H35462   2.859   1.123   7.643  2.1117 -0.8525 -1.5568
  263MOL0     H35463   2.777   1.125   7.886  2.2551  1.2568 -1.2281
  263MOL0     H35464   2.765   0.945   7.868 -2.9660 -1.0903 -2.0773
  263MOL0     H35465   2.605   1.057   8.014 -0.9010  2.5226  0.4057
  263MOL0     H35466   2.419   1.188   8.200  1.0286 -1.1980  1.6870
  263MOL0     H35467   2.290   1.070   8.203 -0.3806 -0.3041  0.3399
  263MOL0     H35468   2.459   1.022   8.219 -0.7119  1.0693  2.8963
  263MOL0     H35469   2.012   1.101   8.288  2.7765 -0.7293 -1.4250
  263MOL0     H35470   1.765   1.094   8.331  0.8059 -0.6599  1.9291
  263MOL0     H35471   1.543   1.075   8.347  3.6188 -0.4227 -1.1747
  263MOL0     H35472   1.523   1.134   8.181  3.2963 -0.1152 -1.6385
  263MOL0     H35473   1.346   0.906   8.301 -2.1814 -3.0445 -4.2386
  263MOL0     H35474   1.309   1.079   8.307 -2.7689 -1.0761 -1.7721
  263MOL0     H35475   1.368   0.924   8.055 -1.8693 -2.3241  0.5794
  263MOL0     H35476   1.297   1.089   8.060 -1.0487 -1.3859 -1.3651
  263MOL0     H35477   1.107   0.958   8.207  2.5975  0.1125  0.7772
  263MOL0     H35478   1.110   0.934   8.022  0.3590 -0.1273 -0.8935
  263MOL0     H35479   1.232   0.744   8.219 -0.8343  1.0476  1.1199
  263MOL0     H35480   1.254   0.735   8.049  0.9178 -0.4654  0.9245
  263MOL0     H35481   0.977   0.747   8.186  1.7896  1.4621  0.7132
  263MOL0     H35482   0.998   0.712   8.018  1.8655 -2.7571 -0.8444
  263MOL0     H35483   1.125   0.543   8.227  2.9293 -3.1214 -2.1824
  263MOL0     H35484   1.117   0.502   8.057  1.5167  1.5789 -0.3411
  263MOL0     H35485   0.859   0.545   8.096 -0.8078  1.7737  1.9765
  263MOL0     H35486   0.904   0.505   8.264  1.1336 -2.5669 -0.3711
  263MOL0     H35487   1.693   0.832   8.013 -0.1680  1.8301 -0.3921
  263MOL0     H35488   1.937   0.898   7.915 -1.2713  2.5219 -2.3645
  263MOL0     H35489   2.205   1.108   7.731 -0.9760 -0.9339  0.9974
  263MOL0     H35490   2.424   1.077   7.620 -0.1709  3.0923 -0.4059
  263MOL0     H35491   4.566   1.805   8.052  2.8260  1.2460 -0.1520
  263MOL0     H35492   4.780   1.743   8.151 -0.2555  0.4450  0.2445
  263MOL0     H35493   5.043   1.456   8.362  1.0595 -2.5668  2.7801
  263MOL0     H35494   5.267   1.382   8.443 -0.1662  3.1815  1.3825
  263MOL0     H35495   5.575   1.292   8.130  0.9881  0.6278  0.0932
  263MOL0     H35496   5.624   1.451   8.185  0.4244 -0.5716 -0.1422
  263MOL0     H35497   5.695   1.182   8.311 -2.0628  0.6112  0.4726
  263MOL0     H35498   5.743   1.349   8.376  2.2961 -0.8360  0.6079
  263MOL0     H35499   5.861   1.412   8.192 -0.4686  0.7208  1.2787
  263MOL0     H35500   5.831   1.264   8.100 -3.7164 -0.1865  0.1763
  263MOL0     H35501   5.952   1.139   8.300 -1.2884 -0.6028 -2.7423
  263MOL0     H35502   5.980   1.301   8.379  3.2097 -2.4458  1.1425
  263MOL0     H35503   6.301   1.303   8.121 -0.5597 -0.2088 -1.3506
  263MOL0     H35504   5.409   1.370   8.038  0.0005 -1.4210  0.1605
  263MOL0     H35505   5.181   1.436   7.961 -1.8221  1.0599  1.4348
  264MOL0     O35506   2.631   1.298  10.826 -0.3259 -0.0619  0.0480
  264MOL0     C35507   2.654   1.418  10.829 -1.2149  0.0160 -0.4556
  264MOL0     O35508   2.565   1.513  10.838 -0.4779 -0.7301 -0.5363
  264MOL0     C35509   2.437   1.483  10.860 -0.1793 -0.3478  0.1208
  264MOL0     C35510   2.395   1.403  10.963 -0.4173 -0.1615 -0.2761
  264MOL0     C35511   2.261   1.366  10.970  0.2253  0.6485  0.0779
  264MOL0     C35512   2.167   1.425  10.889  0.5270  0.2012  0.3773
  264MOL0     O35513   2.032   1.394  10.914 -0.7157  1.0786  0.0147
  264MOL0     C35514   1.945   1.502  10.911  1.2633 -0.2039 -0.1918
  264MOL0     C35515   1.810   1.448  10.961 -0.4710 -0.1370  0.1822
  264MOL0     C35516   1.736   1.331  10.882 -0.0604  0.4004  0.2450
  264MOL0     C35517   1.606   1.302  10.958 -0.5779  0.2810  0.4127
  264MOL0     C35518   1.536   1.187  10.889  0.7499  0.8307 -0.0470
  264MOL0     C35519   1.410   1.138  10.961  0.1483 -0.1548  0.0553
  264MOL0     C35520   1.363   1.006  10.913 -0.8544 -0.5536  0.0088
  264MOL0     C35521   1.216   0.985  10.959 -0.7488 -0.7931 -0.5507
  264MOL0     N35522   1.216   0.953  11.101 -0.1662 -0.0259  0.5342
  264MOL0     C35523   1.175   0.835  11.156  0.5486 -0.4376 -0.4900
  264MOL0     C35524   1.158   0.867  11.284  0.3831 -0.8008  0.1287
  264MOL0     C35525   1.128   0.768  11.398  0.2000 -0.0955  0.3286
  264MOL0     C35526   0.999   0.685  11.377  0.0651 -0.3194 -0.1166
  264MOL0     C35527   0.878   0.777  11.390  1.2020  0.2869 -0.3044
  264MOL0     C35528   0.798   0.754  11.520  0.7300 -0.2889  1.0803
  264MOL0     O35529   0.723   0.630  11.508  0.2589  0.0523 -0.1012
  264MOL0     C35530   0.606   0.604  11.580  0.2756  0.1430 -0.7023
  264MOL0     C35531   0.556   0.685  11.680 -0.7742  0.2041  0.3413
  264MOL0     C35532   0.436   0.656  11.743  0.0757  1.0603 -0.3424
  264MOL0     C35533   0.386   0.750  11.852  0.7276  0.2801  0.1363
  264MOL0     C35534   0.357   0.541  11.699  0.4398 -0.1074 -0.1749
  264MOL0     C35535   0.221   0.517  11.740  0.5529  0.2906 -0.4456
  264MOL0     O35536   0.151   0.617  11.789 -0.0273  0.1842  0.0758
  264MOL0     C35537   0.033   0.599  11.867 -0.5939  1.5047 -0.4334
  264MOL0     C35538  -0.061   0.488  11.872  0.1104  0.1793 -0.8110
  264MOL0     C35539  -0.173   0.499  11.964  0.1923  0.3365  1.0432
  264MOL0     C35540  -0.185   0.609  12.036  0.4366  0.0388 -0.5735
  264MOL0     O35541  -0.291   0.614  12.121  0.3341  1.5882 -0.3257
  264MOL0     C35542  -0.396   0.700  12.078 -0.4331  0.0659 -0.3631
  264MOL0     C35543  -0.519   0.669  12.168  0.1888  0.6259  0.2515
  264MOL0     C35544  -0.637   0.763  12.149  0.4274 -0.1899  0.5647
  264MOL0     C35545  -0.753   0.720  12.242 -0.6431 -1.0032 -0.1954
  264MOL0     C35546  -0.868   0.821  12.239 -0.0216  0.2286 -0.0787
  264MOL0     C35547  -0.982   0.769  12.332  0.7140 -0.6406 -0.0767
  264MOL0     C35548  -1.096   0.879  12.336  0.2356 -0.1418  0.3230
  264MOL0     C35549  -1.193   0.888  12.209  0.0514 -0.4032 -0.1987
  264MOL0    Cl35550  -1.321   1.012  12.241 -0.0252 -0.0987  0.5026
  264MOL0     C35551  -0.104   0.724  12.021 -0.2207 -0.0519  0.2739
  264MOL0     C35552   0.009   0.711  11.939  0.6622 -0.2091  0.3622
  264MOL0     O35553   0.191   0.401  11.743  0.1675  0.4569  0.6518
  264MOL0     C35554   0.419   0.453  11.606 -0.2252  0.0537 -0.1515
  264MOL0     C35555   0.537   0.486  11.547  0.4458  0.7134  0.0158
  264MOL0     N35556   1.189   0.999  11.307 -0.8652 -0.1545 -0.4075
  264MOL0     N35557   1.212   1.053  11.196 -0.8180 -0.6400 -0.7952
  264MOL0     C35558   2.210   1.523  10.796  0.3106 -0.3106 -1.1738
  264MOL0     C35559   2.341   1.549  10.781 -0.6314  0.2581 -0.2659
  264MOL0     C35560   2.793   1.465  10.827 -0.0600 -0.2752  0.4254
  264MOL0     C35561   2.896   1.401  10.906  0.4145  0.2824 -0.3710
  264MOL0     C35562   3.022   1.460  10.925 -0.0148  0.7076 -0.4255
  264MOL0     C35563   3.054   1.590  10.868 -0.7956  0.5982 -0.0666
  264MOL0     O35564   3.172   1.661  10.887 -0.2413 -0.3260 -0.8030
  264MOL0     C35565   3.279   1.597  10.965  0.1041  0.5529  0.1949
  264MOL0     C35566   3.414   1.662  10.947  0.4132 -0.1621 -0.9152
  264MOL0     C35567   3.452   1.650  10.797  0.2947 -0.1250 -0.5948
  264MOL0     C35568   3.492   1.516  10.736  0.1011  0.1824 -0.4408
  264MOL0     C35569   3.624   1.487  10.698  0.1761  0.1391  0.1894
  264MOL0     C35570   3.746   1.469  10.674  0.5682  0.3286 -0.1711
  264MOL0     C35571   2.955   1.648  10.793 -0.0025 -0.5338  0.2600
  264MOL0     C35572   2.829   1.583  10.769 -0.7817  0.4717  0.3886
  264MOL0     H35573   2.467   1.352  11.025 -1.9236 -0.0058  1.6957
  264MOL0     H35574   2.233   1.289  11.041  0.3653  0.8645  0.3722
  264MOL0     H35575   1.981   1.588  10.969 -1.4099  1.5973 -0.9841
  264MOL0     H35576   1.926   1.550  10.814 -0.6379  0.3101  0.4063
  264MOL0     H35577   1.835   1.405  11.059  0.8665  0.2609  0.0409
  264MOL0     H35578   1.744   1.535  10.974  1.1329  1.2406 -0.4634
  264MOL0     H35579   1.701   1.349  10.780 -1.9811  2.5906  1.2009
  264MOL0     H35580   1.806   1.247  10.878  0.6008  0.8684  1.5435
  264MOL0     H35581   1.633   1.275  11.060 -0.0082 -1.0036 -0.0537
  264MOL0     H35582   1.531   1.382  10.961  0.4292  1.2801 -0.2850
  264MOL0     H35583   1.512   1.224  10.789  2.7773  0.6717 -0.6388
  264MOL0     H35584   1.612   1.109  10.878 -0.3088 -0.2607  0.2748
  264MOL0     H35585   1.440   1.133  11.067 -0.9683 -0.3644  0.3766
  264MOL0     H35586   1.332   1.214  10.958  0.6180  0.3111 -2.4956
  264MOL0     H35587   1.363   0.989  10.805 -1.6659 -2.1221  0.2361
  264MOL0     H35588   1.428   0.927  10.951 -1.5864 -0.5795  1.2554
  264MOL0     H35589   1.178   0.898  10.906  1.4058 -2.4051  0.3998
  264MOL0     H35590   1.157   1.072  10.930  2.1187  0.9838 -1.5589
  264MOL0     H35591   1.158   0.733  11.122 -0.1035 -0.3238 -0.5164
  264MOL0     H35592   1.214   0.703  11.417  2.1503  1.9441 -0.9713
  264MOL0     H35593   1.107   0.822  11.491 -0.2128  1.1885 -0.4792
  264MOL0     H35594   1.002   0.607  11.454 -0.4227 -0.2746 -0.0471
  264MOL0     H35595   1.007   0.638  11.279 -1.5135 -0.7170 -0.0808
  264MOL0     H35596   0.812   0.765  11.303  0.3588 -0.7633  0.4591
  264MOL0     H35597   0.912   0.881  11.399  1.4708 -0.0018  4.4501
  264MOL0     H35598   0.732   0.839  11.540  1.7049  1.1649 -1.3964
  264MOL0     H35599   0.872   0.752  11.600  1.0261  1.6390  0.9138
  264MOL0     H35600   0.605   0.777  11.709  1.7035 -1.1622  0.7868
  264MOL0     H35601   0.311   0.823  11.818  0.4490 -0.1569 -0.1998
  264MOL0     H35602   0.336   0.685  11.924 -1.6053 -1.8392 -3.1014
  264MOL0     H35603   0.472   0.805  11.892  0.5301  0.2681  0.5804
  264MOL0     H35604  -0.041   0.396  11.818 -0.1278 -0.8361  0.7689
  264MOL0     H35605  -0.247   0.422  11.980  0.1781  0.7727  3.3422
  264MOL0     H35606  -0.360   0.802  12.093 -1.2808 -0.0000  2.9250
  264MOL0     H35607  -0.413   0.687  11.971 -3.4379  0.3454  0.0030
  264MOL0     H35608  -0.555   0.571  12.134  0.5451  0.0630  1.4354
  264MOL0     H35609  -0.499   0.657  12.275 -0.3746 -2.9599  0.1011
  264MOL0     H35610  -0.663   0.764  12.043 -0.0010  0.2506  0.6725
  264MOL0     H35611  -0.600   0.863  12.171 -1.8669  1.4274 -2.2251
  264MOL0     H35612  -0.788   0.617  12.231 -0.6762 -1.1800  1.3541
  264MOL0     H35613  -0.702   0.725  12.339 -0.3170  0.8663 -0.4258
  264MOL0     H35614  -0.897   0.827  12.134 -1.4576 -1.2254  0.1960
  264MOL0     H35615  -0.837   0.922  12.266 -0.0316  0.8083 -2.1160
  264MOL0     H35616  -1.018   0.674  12.293 -1.0594  0.6280 -1.7317
  264MOL0     H35617  -0.945   0.763  12.435 -0.9470 -0.7633  0.5324
  264MOL0     H35618  -1.043   0.975  12.338  2.8896 -1.4794 -0.5836
  264MOL0     H35619  -1.149   0.875  12.431  0.1106  2.4454  0.4387
  264MOL0     H35620  -1.244   0.792  12.201  0.4739 -0.7232  0.7696
  264MOL0     H35621  -1.144   0.910  12.114 -1.6016  0.6218 -0.8541
  264MOL0     H35622  -0.126   0.798  12.098 -2.2466 -1.0883  0.7647
  264MOL0     H35623   0.080   0.794  11.933 -0.9600  1.1180 -1.7539
  264MOL0     H35624   0.367   0.363  11.574  0.2959 -1.0214  1.8693
  264MOL0     H35625   0.572   0.431  11.460  0.3182 -0.9164  0.9617
  264MOL0     H35626   2.147   1.592  10.741 -0.8203  0.2871  0.8077
  264MOL0     H35627   2.376   1.629  10.715  0.0403  0.2243  0.0357
  264MOL0     H35628   2.882   1.306  10.957  0.5104  1.1039  1.2390
  264MOL0     H35629   3.093   1.406  10.987  1.2184  2.6572 -0.0386
  264MOL0     H35630   3.242   1.587  11.068 -1.2513 -0.1875 -0.3408
  264MOL0     H35631   3.296   1.494  10.934 -0.3090  0.6452 -0.3568
  264MOL0     H35632   3.490   1.609  11.006  0.2182 -1.9614 -2.2214
  264MOL0     H35633   3.411   1.770  10.966  1.0087 -0.2500 -0.2535
  264MOL0     H35634   3.548   1.703  10.797  0.9316 -1.0874 -3.5647
  264MOL0     H35635   3.398   1.716  10.728  1.2365  0.5491 -0.7204
  264MOL0     H35636   3.429   1.501  10.648  0.7374  3.6538 -1.6298
  264MOL0     H35637   3.468   1.446  10.817 -0.7934  2.6677  1.5634
  264MOL0     H35638   3.852   1.461  10.663  0.7813  1.9073  0.4889
  264MOL0     H35639   2.972   1.749  10.755  1.4358 -0.4854  0.9695
  264MOL0     H35640   2.760   1.639  10.706  1.0340  1.9389 -0.3628
  265MOL0     O35641  10.900   4.578   0.601  0.4690 -0.5218  0.5516
  265MOL0     C35642  10.936   4.468   0.618  0.1635  0.5161  0.0632
  265MOL0     O35643  10.889   4.357   0.544  0.1541 -0.1262  0.3112
  265MOL0     C35644  10.769   4.363   0.480 -0.4343 -1.2988  0.3169
  265MOL0     C35645  10.753   4.263   0.380 -0.3517 -0.2407  0.5259
  265MOL0     C35646  10.630   4.249   0.309  0.3328 -0.6490 -0.0735
  265MOL0     C35647  10.524   4.334   0.337 -0.4135  1.1907 -1.0819
  265MOL0     O35648  10.394   4.336   0.290 -0.8586  0.1099 -0.4992
  265MOL0     C35649  10.356   4.248   0.189 -0.4657 -0.1614 -0.1407
  265MOL0     C35650  10.314   4.109   0.249 -0.0259 -0.2720 -0.1818
  265MOL0     C35651  10.209   4.141   0.362 -0.3137 -0.7823 -0.0848
  265MOL0     C35652  10.076   4.180   0.304 -0.3079  0.3192 -0.0218
  265MOL0     C35653   9.969   4.159   0.413 -0.6725 -0.4799 -0.4963
  265MOL0     C35654   9.829   4.200   0.372  0.0159  0.1129 -0.3651
  265MOL0     C35655   9.713   4.139   0.465 -0.0930 -0.3045  0.3342
  265MOL0     C35656   9.705   3.986   0.443 -0.1855 -0.6324  0.8569
  265MOL0     N35657   9.663   3.950   0.306  0.0862  1.1917  0.2972
  265MOL0     C35658   9.529   3.953   0.257 -1.0737 -0.1145  0.1279
  265MOL0     C35659   9.544   3.883   0.138  0.0690  0.6219 -0.4213
  265MOL0     C35660   9.437   3.837   0.043  0.2292  0.4720 -0.1285
  265MOL0     C35661   9.337   3.947   0.021  0.4652  0.2880  0.0031
  265MOL0     C35662   9.256   3.917  -0.104 -0.2276  0.1542  0.2948
  265MOL0     C35663   9.123   3.996  -0.113 -0.0016 -0.1965 -0.5188
  265MOL0     O35664   9.030   3.937  -0.018  0.2102  0.3838 -0.1873
  265MOL0     C35665   8.903   3.980  -0.012  1.1566 -1.2945 -0.0813
  265MOL0     C35666   8.827   3.892   0.057  0.6677  0.0559 -0.4723
  265MOL0     C35667   8.693   3.914   0.074  0.4433 -0.2539 -0.4718
  265MOL0     C35668   8.612   3.820   0.158  0.7004  0.1231 -0.4978
  265MOL0     C35669   8.641   4.041   0.015 -0.8431  1.3765 -0.2888
  265MOL0     C35670   8.501   4.056   0.018  0.4216  0.4632 -0.1700
  265MOL0     O35671   8.455   4.164   0.076  0.0762 -0.2963 -0.1608
  265MOL0     C35672   8.324   4.186   0.122  0.6357 -0.4496 -0.5882
  265MOL0     C35673   8.294   4.312   0.178 -0.8051  0.3660  0.2569
  265MOL0     C35674   8.162   4.344   0.215 -0.4206  0.9385  0.4637
  265MOL0     C35675   8.058   4.249   0.205 -0.7551 -0.3120  0.3713
  265MOL0     O35676   7.930   4.277   0.229 -0.0092  0.2252  0.4291
  265MOL0     C35677   7.855   4.314   0.114  0.1422  0.8410  0.0224
  265MOL0     C35678   7.737   4.394   0.158 -1.3980 -0.7728  0.6321
  265MOL0     C35679   7.641   4.442   0.049  0.1792  0.5257  0.8150
  265MOL0     C35680   7.502   4.470   0.111 -0.2562  0.4494 -0.8905
  265MOL0     C35681   7.404   4.528   0.004 -0.1160  0.1125  0.2299
  265MOL0     C35682   7.280   4.587   0.072 -0.2462  0.6384 -0.0016
  265MOL0     C35683   7.233   4.696  -0.026 -0.6586 -0.2291  0.7665
  265MOL0     C35684   7.092   4.729   0.024 -0.3043  0.1978 -0.1957
  265MOL0    Cl35685   7.085   4.779   0.191  0.1128 -0.5284 -0.2812
  265MOL0     C35686   8.086   4.127   0.155 -0.6568 -1.1030 -0.7657
  265MOL0     C35687   8.214   4.096   0.109  0.2773 -0.3532  1.2884
  265MOL0     O35688   8.433   3.968  -0.036  0.0189 -0.5876  0.1542
  265MOL0     C35689   8.731   4.135  -0.049 -0.4328  0.9654 -0.4119
  265MOL0     C35690   8.862   4.107  -0.064 -0.1754 -0.0517  0.6728
  265MOL0     N35691   9.682   3.863   0.116  0.3208 -0.3408 -0.0478
  265MOL0     N35692   9.749   3.889   0.219 -0.0038 -0.0318  0.1821
  265MOL0     C35693  10.540   4.428   0.440 -0.2005 -0.4712 -0.1242
  265MOL0     C35694  10.659   4.441   0.512  0.3671 -0.2119  0.3769
  265MOL0     C35695  11.053   4.443   0.696  0.8996  0.7732  0.3371
  265MOL0     C35696  11.132   4.548   0.730  0.0481 -0.0983 -0.1905
  265MOL0     C35697  11.255   4.530   0.796 -0.4436  0.4349  0.1787
  265MOL0     C35698  11.302   4.401   0.815 -0.9241  0.0756 -0.5068
  265MOL0     O35699  11.430   4.394   0.867  0.0741 -0.2281 -0.4473
  265MOL0     C35700  11.433   4.384   1.006  0.1471  0.0726  0.0096
  265MOL0     C35701  11.562   4.335   1.060  0.3060 -1.2543 -0.2778
  265MOL0     C35702  11.587   4.184   1.030  0.0375  0.6630 -0.5748
  265MOL0     C35703  11.652   4.159   0.893 -0.1060 -0.2751  0.0570
  265MOL0     C35704  11.798   4.167   0.900  0.3312 -0.9312  0.0639
  265MOL0     C35705  11.914   4.199   0.907  0.7502 -0.4784  0.7779
  265MOL0     C35706  11.227   4.290   0.780 -0.1583 -0.0188  0.0505
  265MOL0     C35707  11.097   4.312   0.723  0.1397  0.0654  0.0214
  265MOL0     H35708  10.838   4.203   0.350  0.2076  0.6498  0.2652
  265MOL0     H35709  10.610   4.175   0.232 -0.9713  0.8468 -1.2443
  265MOL0     H35710  10.278   4.295   0.128  0.0940  1.6203  0.4299
  265MOL0     H35711  10.431   4.233   0.111  1.0565  0.6485  1.0948
  265MOL0     H35712  10.281   4.047   0.166  2.0255  0.5150 -1.6690
  265MOL0     H35713  10.399   4.058   0.296  0.7299 -0.0777 -1.2961
  265MOL0     H35714  10.193   4.050   0.420 -2.7353 -1.3967 -1.5852
  265MOL0     H35715  10.247   4.220   0.427  1.3033  0.0769 -1.9748
  265MOL0     H35716  10.074   4.283   0.267  0.3410  0.2494 -0.2637
  265MOL0     H35717  10.053   4.108   0.225  4.5323 -0.9402 -0.6143
  265MOL0     H35718   9.976   4.056   0.450  0.6049 -0.3330 -0.2958
  265MOL0     H35719   9.983   4.213   0.507  1.2522 -3.8894  1.3947
  265MOL0     H35720   9.819   4.309   0.371  0.0249  0.1508  1.1129
  265MOL0     H35721   9.807   4.170   0.269 -2.8702 -0.3263  0.2943
  265MOL0     H35722   9.716   4.167   0.571 -1.7675  2.0374 -0.1818
  265MOL0     H35723   9.625   4.193   0.429  1.9218  2.6155 -0.6033
  265MOL0     H35724   9.632   3.946   0.515 -0.2199 -2.5666 -0.1950
  265MOL0     H35725   9.805   3.946   0.458  0.8996  1.5157 -0.2979
  265MOL0     H35726   9.434   3.982   0.300 -1.5978  0.0868 -1.1073
  265MOL0     H35727   9.468   3.810  -0.058  1.5616 -0.4507  0.4986
  265MOL0     H35728   9.391   3.755   0.099 -1.4604 -0.9664 -3.3760
  265MOL0     H35729   9.391   4.040   0.002 -1.7445  1.8955  1.1848
  265MOL0     H35730   9.271   3.965   0.106 -1.8144 -2.2329 -1.0825
  265MOL0     H35731   9.235   3.811  -0.119  0.1271 -0.1227  1.6551
  265MOL0     H35732   9.313   3.942  -0.194 -1.6021 -2.7830 -1.5493
  265MOL0     H35733   9.065   3.983  -0.205 -1.8774 -2.0951  0.8194
  265MOL0     H35734   9.131   4.103  -0.094 -1.6418  0.4538 -3.0215
  265MOL0     H35735   8.881   3.808   0.098  1.4971  0.4101 -0.8129
  265MOL0     H35736   8.558   3.885   0.227  1.1539  1.3710 -1.2958
  265MOL0     H35737   8.549   3.755   0.096 -3.3191  0.1242  3.0759
  265MOL0     H35738   8.680   3.755   0.214 -1.7678 -5.0930 -2.8158
  265MOL0     H35739   8.371   4.383   0.207  0.5097 -0.7123 -0.4764
  265MOL0     H35740   8.136   4.439   0.260 -1.5208  0.3954  1.0330
  265MOL0     H35741   7.918   4.382   0.057  0.9413  0.1366  0.0467
  265MOL0     H35742   7.825   4.222   0.063  0.6676 -0.6274  2.1873
  265MOL0     H35743   7.687   4.343   0.242 -1.6773 -1.2639  0.1760
  265MOL0     H35744   7.783   4.483   0.200 -1.5327 -0.9052  1.0705
  265MOL0     H35745   7.615   4.374  -0.033  0.0262  2.0811 -0.4736
  265MOL0     H35746   7.675   4.533  -0.001  0.1481 -0.9037 -2.0605
  265MOL0     H35747   7.467   4.376   0.154  0.2980  0.8478  0.5129
  265MOL0     H35748   7.516   4.534   0.199  1.0723 -0.7246 -0.1987
  265MOL0     H35749   7.381   4.460  -0.079  0.9354 -0.8887  0.7186
  265MOL0     H35750   7.463   4.614  -0.030  1.4199 -0.1656  2.0085
  265MOL0     H35751   7.206   4.507   0.084  0.4832 -0.4962 -2.4369
  265MOL0     H35752   7.309   4.629   0.169  3.9090  0.2072 -0.8723
  265MOL0     H35753   7.214   4.658  -0.127 -2.0663  0.3319  0.7914
  265MOL0     H35754   7.304   4.780  -0.030 -0.3601 -0.5166 -0.4692
  265MOL0     H35755   7.012   4.660  -0.003 -1.1748  1.0120  0.2355
  265MOL0     H35756   7.071   4.815  -0.040 -1.1619 -0.6495 -1.0768
  265MOL0     H35757   8.005   4.055   0.150 -2.4274  0.7209  0.2067
  265MOL0     H35758   8.220   3.995   0.068  0.5514  0.1986 -0.0624
  265MOL0     H35759   8.706   4.230  -0.094  0.1736  1.5522  0.4585
  265MOL0     H35760   8.926   4.181  -0.111  0.5839 -1.3098 -0.3091
  265MOL0     H35761  10.461   4.494   0.474 -0.1308 -1.2520  1.6765
  265MOL0     H35762  10.666   4.513   0.593 -0.2750 -0.8865  1.0552
  265MOL0     H35763  11.113   4.651   0.700 -2.0767 -0.9624 -2.0480
  265MOL0     H35764  11.318   4.610   0.833 -0.2320 -0.1567  1.1320
  265MOL0     H35765  11.413   4.484   1.047 -0.4168 -0.2920  0.6544
  265MOL0     H35766  11.359   4.311   1.040 -2.6710  2.8289  0.2504
  265MOL0     H35767  11.564   4.343   1.169  1.5801 -1.5273 -0.2640
  265MOL0     H35768  11.644   4.392   1.017  0.5592 -0.1839  1.5470
  265MOL0     H35769  11.492   4.129   1.033  0.1505  0.3417  3.8423
  265MOL0     H35770  11.647   4.151   1.114 -0.5119 -0.4566 -0.6082
  265MOL0     H35771  11.611   4.221   0.812 -0.1259 -1.8148 -1.1448
  265MOL0     H35772  11.623   4.058   0.863 -0.9848 -0.2892  0.9036
  265MOL0     H35773  12.010   4.241   0.923  1.9291 -2.6528 -0.1330
  265MOL0     H35774  11.271   4.197   0.814  1.2653  0.5686 -0.1115
  265MOL0     H35775  11.038   4.224   0.698 -2.6594  1.8398  0.0470
  266MOL0     O35776   6.760   8.771   7.378  0.3308 -0.2043  0.0731
  266MOL0     C35777   6.835   8.838   7.306  0.6171  0.6048 -0.3801
  266MOL0     O35778   6.807   8.878   7.182  0.5880 -1.0292 -1.1511
  266MOL0     C35779   6.683   8.864   7.119 -0.0229  0.4426 -0.5240
  266MOL0     C35780   6.685   8.899   6.983 -0.1332  0.5851 -0.1491
  266MOL0     C35781   6.559   8.895   6.907  0.5750 -0.3959  1.5323
  266MOL0     C35782   6.437   8.869   6.973 -0.3955  0.1318 -0.0901
  266MOL0     O35783   6.319   8.858   6.906 -0.0440 -0.2314  0.0353
  266MOL0     C35784   6.318   8.832   6.765  0.1919  0.8084  0.3024
  266MOL0     C35785   6.192   8.753   6.727  0.2330  1.2804  0.0161
  266MOL0     C35786   6.213   8.666   6.602 -0.2489  0.3397 -0.4303
  266MOL0     C35787   6.079   8.597   6.569  0.3803  0.2564 -0.5042
  266MOL0     C35788   6.108   8.488   6.457  0.6092 -0.1247 -0.2681
  266MOL0     C35789   5.986   8.412   6.406  0.3811 -0.5225 -0.1453
  266MOL0     C35790   5.906   8.328   6.512 -0.5585 -0.0991  0.3185
  266MOL0     C35791   5.793   8.269   6.431  0.5332 -0.9469  0.3590
  266MOL0     N35792   5.681   8.361   6.409  0.0425 -0.2524 -0.0437
  266MOL0     C35793   5.577   8.393   6.500 -0.0447 -0.1753  0.1843
  266MOL0     C35794   5.499   8.489   6.440  0.2614 -0.2319  0.0918
  266MOL0     C35795   5.376   8.545   6.496  0.6234  0.2812 -0.1248
  266MOL0     C35796   5.263   8.448   6.454 -0.1507  0.4187  0.7195
  266MOL0     C35797   5.165   8.420   6.566  0.2697 -0.1038  0.1869
  266MOL0     C35798   5.111   8.548   6.641 -0.5450  0.4579  0.2602
  266MOL0     O35799   5.005   8.509   6.727  0.4689 -0.6044  0.2756
  266MOL0     C35800   4.879   8.523   6.674  0.0989  0.1402 -0.3814
  266MOL0     C35801   4.780   8.546   6.769 -0.0873 -0.0410 -0.2126
  266MOL0     C35802   4.646   8.564   6.749  0.4001  0.0029 -0.4916
  266MOL0     C35803   4.560   8.570   6.874  0.2442  0.4436 -0.7027
  266MOL0     C35804   4.599   8.557   6.616  0.7500 -0.0667  0.0608
  266MOL0     C35805   4.455   8.575   6.567 -0.9150  1.0996 -0.1385
  266MOL0     O35806   4.433   8.542   6.438 -0.3366  0.0420  0.4907
  266MOL0     C35807   4.312   8.551   6.374  0.5691 -0.3564  0.2393
  266MOL0     C35808   4.201   8.456   6.390  0.8572 -0.3165  0.1156
  266MOL0     C35809   4.098   8.469   6.308  0.6799 -0.4009  0.3105
  266MOL0     C35810   4.085   8.571   6.215 -1.3415 -0.3640  0.4338
  266MOL0     O35811   3.960   8.564   6.158 -0.0871 -0.3233  0.2175
  266MOL0     C35812   3.924   8.675   6.071  0.4356 -0.1166 -0.5270
  266MOL0     C35813   3.778   8.647   6.037  0.8194 -0.3746  0.3735
  266MOL0     C35814   3.710   8.753   5.955  0.7196  0.6038  0.1045
  266MOL0     C35815   3.697   8.894   6.022 -0.5615  0.0041 -0.9806
  266MOL0     C35816   3.609   8.981   5.938 -0.1018  0.4126  0.3040
  266MOL0     C35817   3.601   9.112   6.008  0.2446 -0.1339  0.5769
  266MOL0     C35818   3.536   9.214   5.924 -0.2441 -0.0487  0.1186
  266MOL0     C35819   3.489   9.320   6.015 -0.3789  0.2695  0.6867
  266MOL0    Cl35820   3.358   9.258   6.131  0.0943  0.0508  0.1068
  266MOL0     C35821   4.191   8.662   6.189  0.0578 -0.2659 -0.4489
  266MOL0     C35822   4.310   8.644   6.267 -0.0095  0.0445  0.2504
  266MOL0     O35823   4.375   8.617   6.647 -0.3398  1.1124 -0.5958
  266MOL0     C35824   4.694   8.521   6.513 -0.2860 -0.0554  0.1121
  266MOL0     C35825   4.831   8.508   6.543 -1.0186  1.3894  1.1962
  266MOL0     N35826   5.554   8.519   6.316  0.5430  0.4051 -0.5300
  266MOL0     N35827   5.659   8.446   6.294  0.4718 -0.0500 -0.1792
  266MOL0     C35828   6.442   8.830   7.106 -0.0513 -0.5489  1.4183
  266MOL0     C35829   6.561   8.832   7.180  0.1419 -0.0048 -0.2944
  266MOL0     C35830   6.961   8.887   7.362 -0.1038  0.1325 -0.0984
  266MOL0     C35831   6.981   8.878   7.501  0.2087 -0.4620 -0.3635
  266MOL0     C35832   7.107   8.912   7.551  0.5696 -0.2126 -0.4560
  266MOL0     C35833   7.210   8.960   7.465  0.0072 -0.1635  0.7008
  266MOL0     O35834   7.327   8.977   7.518 -0.1764 -0.6525  0.3669
  266MOL0     C35835   7.425   9.030   7.431 -0.1840 -0.1433 -0.0035
  266MOL0     C35836   7.541   9.075   7.525 -0.1096 -0.1414 -0.4131
  266MOL0     C35837   7.662   9.142   7.455 -0.0533  0.9246 -0.1216
  266MOL0     C35838   7.781   9.184   7.545 -0.0030  0.3222  0.7133
  266MOL0     C35839   7.862   9.286   7.475 -0.7890  0.7777 -0.1099
  266MOL0     C35840   7.908   9.377   7.420  0.4039  0.4797  0.2041
  266MOL0     C35841   7.189   8.967   7.323 -1.0759  0.0731 -0.0150
  266MOL0     C35842   7.062   8.934   7.274  0.2152  0.2373  0.6700
  266MOL0     H35843   6.785   8.922   6.948  0.0580  0.4930  0.3379
  266MOL0     H35844   6.554   8.916   6.801  3.4193  1.1192  1.5885
  266MOL0     H35845   6.315   8.922   6.704 -4.9299  0.3685 -0.5119
  266MOL0     H35846   6.402   8.769   6.733 -2.0106 -3.0399  1.4505
  266MOL0     H35847   6.151   8.690   6.807  1.3307  0.7267  0.1629
  266MOL0     H35848   6.113   8.828   6.715 -3.8005 -2.7786 -1.6373
  266MOL0     H35849   6.249   8.734   6.524  0.7872 -0.4087 -0.6247
  266MOL0     H35850   6.292   8.593   6.622  0.6462  1.6241  0.9765
  266MOL0     H35851   6.021   8.557   6.653 -1.1757 -0.2804 -1.7724
  266MOL0     H35852   6.010   8.674   6.532 -0.1663  0.1647  0.3063
  266MOL0     H35853   6.148   8.548   6.375 -1.9928  0.4285 -1.2312
  266MOL0     H35854   6.178   8.413   6.493  1.0358  0.7250  0.7408
  266MOL0     H35855   5.922   8.486   6.357  3.0847  1.2015 -1.3127
  266MOL0     H35856   6.024   8.347   6.327 -2.1025 -1.8760 -0.3363
  266MOL0     H35857   5.967   8.246   6.551  0.6270  0.0755 -1.0921
  266MOL0     H35858   5.868   8.400   6.586  0.0555  1.5933 -0.9498
  266MOL0     H35859   5.764   8.175   6.480  0.7578 -2.5141 -2.3042
  266MOL0     H35860   5.838   8.230   6.339  0.9641 -0.3561  0.3163
  266MOL0     H35861   5.563   8.354   6.600 -2.3102 -1.8426 -0.7155
  266MOL0     H35862   5.394   8.555   6.603  2.3473 -2.0632 -0.1066
  266MOL0     H35863   5.356   8.635   6.437 -0.0179 -0.9347 -1.8314
  266MOL0     H35864   5.311   8.359   6.413 -0.8665 -1.1376  3.0544
  266MOL0     H35865   5.202   8.492   6.374 -1.0184 -1.8673  0.0306
  266MOL0     H35866   5.228   8.369   6.641 -0.6546 -1.4341  0.0937
  266MOL0     H35867   5.087   8.352   6.531  0.9061 -1.2471  0.9117
  266MOL0     H35868   5.086   8.625   6.567  0.0804 -0.0350 -0.4774
  266MOL0     H35869   5.192   8.593   6.700 -0.4416  0.2933  0.2455
  266MOL0     H35870   4.821   8.551   6.870  0.9246 -1.0118 -0.5533
  266MOL0     H35871   4.609   8.604   6.966 -1.6293 -1.5599  1.1676
  266MOL0     H35872   4.474   8.637   6.863  0.2033  0.4374 -0.4307
  266MOL0     H35873   4.529   8.469   6.902 -0.1519  1.7338  4.5462
  266MOL0     H35874   4.194   8.380   6.467 -1.7657  0.3204  0.5819
  266MOL0     H35875   4.013   8.401   6.312  0.1034  0.2950  0.1464
  266MOL0     H35876   3.924   8.766   6.131 -1.4557  0.4024 -1.2343
  266MOL0     H35877   3.988   8.683   5.983 -1.0030  1.9182 -1.4520
  266MOL0     H35878   3.783   8.563   5.967  2.4339 -1.1653  1.3830
  266MOL0     H35879   3.719   8.615   6.123 -1.5516 -3.9049 -2.2624
  266MOL0     H35880   3.614   8.714   5.919  1.6588 -0.8109 -0.9903
  266MOL0     H35881   3.768   8.749   5.862 -0.7881 -2.9332 -0.8636
  266MOL0     H35882   3.660   8.896   6.125 -0.9358 -0.6145 -1.0957
  266MOL0     H35883   3.801   8.929   6.027  0.0638 -1.5617 -2.1282
  266MOL0     H35884   3.508   8.942   5.925  0.4874 -0.4602 -2.1565
  266MOL0     H35885   3.648   8.983   5.836  0.5474 -0.2659  0.5335
  266MOL0     H35886   3.552   9.092   6.103  0.8643  3.0006  1.6513
  266MOL0     H35887   3.699   9.153   6.033 -0.4894  2.6170 -0.7574
  266MOL0     H35888   3.452   9.160   5.878  0.6006  0.1044 -1.7074
  266MOL0     H35889   3.596   9.266   5.850  0.0350  1.3528  1.2850
  266MOL0     H35890   3.442   9.399   5.955  0.2842  1.1330  1.2730
  266MOL0     H35891   3.580   9.361   6.060  1.2712  1.8195 -3.5713
  266MOL0     H35892   4.168   8.734   6.111 -1.7047  1.1885  1.2992
  266MOL0     H35893   4.403   8.699   6.262  0.7264 -1.2729 -1.6832
  266MOL0     H35894   4.661   8.522   6.410  1.9798  2.4989 -0.7143
  266MOL0     H35895   4.905   8.488   6.465 -2.4155  0.0648  0.1505
  266MOL0     H35896   6.346   8.799   7.146 -0.9382 -0.8930 -0.8274
  266MOL0     H35897   6.539   8.819   7.286 -0.9317  0.8163 -0.3923
  266MOL0     H35898   6.902   8.845   7.568 -0.5829 -0.4133 -1.2477
  266MOL0     H35899   7.122   8.904   7.659 -2.0859 -0.0041  0.0178
  266MOL0     H35900   7.458   8.947   7.367  1.9281  0.3670  0.3705
  266MOL0     H35901   7.397   9.114   7.367 -1.2290 -1.2294 -1.0362
  266MOL0     H35902   7.576   8.990   7.585  1.7304  0.8988  0.0743
  266MOL0     H35903   7.494   9.141   7.598  1.7960 -0.9725  1.6647
  266MOL0     H35904   7.616   9.232   7.413  1.6452  1.0979 -1.7179
  266MOL0     H35905   7.695   9.075   7.375 -2.5585 -0.9995  0.3246
  266MOL0     H35906   7.835   9.099   7.588 -2.4309 -1.7531 -0.1546
  266MOL0     H35907   7.730   9.241   7.623 -2.4448  1.0305 -1.2829
  266MOL0     H35908   7.944   9.456   7.357 -2.6361  2.8398  1.1849
  266MOL0     H35909   7.258   8.995   7.244 -2.7724 -0.2023 -1.6765
  266MOL0     H35910   7.041   8.932   7.168 -3.0596  1.3645  1.1953
  267MOL0     O35911  10.603   7.492   6.732 -0.4795  0.3725 -0.3642
  267MOL0     C35912  10.650   7.418   6.651 -0.2545 -0.5208  0.4181
  267MOL0     O35913  10.577   7.373   6.540 -0.0964 -0.3213 -1.0022
  267MOL0     C35914  10.451   7.427   6.520  0.6972  0.6392  1.1220
  267MOL0     C35915  10.326   7.354   6.550  0.0054  0.2558 -0.5560
  267MOL0     C35916  10.204   7.413   6.529 -0.1563 -0.1052 -0.9207
  267MOL0     C35917  10.195   7.536   6.467  0.9036 -0.3571 -0.1996
  267MOL0     O35918  10.072   7.603   6.448 -0.1252  0.0565  0.1382
  267MOL0     C35919   9.986   7.518   6.381  0.0020  0.3772 -0.5775
  267MOL0     C35920   9.875   7.591   6.308 -0.4317 -0.3888 -0.3801
  267MOL0     C35921   9.926   7.677   6.188 -0.2787 -0.5842 -0.8786
  267MOL0     C35922   9.815   7.763   6.132  0.1800 -0.0649 -0.7946
  267MOL0     C35923   9.860   7.871   6.038  0.0502 -0.7036 -0.0277
  267MOL0     C35924   9.741   7.953   5.978  0.6012  0.1625 -0.6991
  267MOL0     C35925   9.773   8.055   5.867 -0.5037 -0.1613 -0.0509
  267MOL0     C35926   9.649   8.145   5.852 -1.0264  0.0460 -0.2747
  267MOL0     N35927   9.545   8.106   5.760 -0.1321  0.8224  0.8870
  267MOL0     C35928   9.440   8.028   5.787 -0.2317  0.3448  0.0837
  267MOL0     C35929   9.380   8.027   5.664 -0.0034  0.0554  0.2975
  267MOL0     C35930   9.245   7.961   5.647  0.0206  0.0968  0.0751
  267MOL0     C35931   9.131   8.047   5.684 -0.3536 -0.4071 -0.1360
  267MOL0     C35932   8.997   7.991   5.641  0.8386 -0.3101  0.3421
  267MOL0     C35933   8.888   8.105   5.668 -1.1330 -0.1843 -0.5076
  267MOL0     O35934   8.770   8.057   5.612  0.3967  0.0245  1.5825
  267MOL0     C35935   8.659   8.138   5.614 -0.4380 -0.2665 -0.5971
  267MOL0     C35936   8.534   8.087   5.560  0.0285 -1.0628  0.1169
  267MOL0     C35937   8.415   8.163   5.573  1.2360  0.0508  0.7442
  267MOL0     C35938   8.284   8.101   5.522 -0.3664 -0.5204  0.0068
  267MOL0     C35939   8.414   8.282   5.638 -0.1662  1.0519  0.3016
  267MOL0     C35940   8.300   8.369   5.670  1.1061  0.7219 -0.1803
  267MOL0     O35941   8.186   8.311   5.719 -0.2714  0.2951  0.1852
  267MOL0     C35942   8.064   8.372   5.724 -0.7915  0.2896 -0.0307
  267MOL0     C35943   8.021   8.501   5.678  0.2119 -0.0166 -0.7707
  267MOL0     C35944   7.882   8.534   5.671  0.4893 -0.7608  0.0079
  267MOL0     C35945   7.789   8.447   5.726  0.2182 -0.1078 -0.5828
  267MOL0     O35946   7.656   8.469   5.709 -0.2432  0.1356  0.1456
  267MOL0     C35947   7.620   8.582   5.784 -0.3374  0.2276 -0.4892
  267MOL0     C35948   7.487   8.623   5.737  0.1234  0.2031  0.0478
  267MOL0     C35949   7.363   8.528   5.768 -0.7107  0.0905  0.0817
  267MOL0     C35950   7.228   8.606   5.736 -0.3391 -0.0613 -0.4601
  267MOL0     C35951   7.116   8.539   5.814 -0.5575 -0.3681  0.0662
  267MOL0     C35952   7.089   8.391   5.766 -0.6499 -0.4814 -1.0208
  267MOL0     C35953   7.088   8.395   5.610  0.1041 -0.8018 -0.3720
  267MOL0     C35954   7.043   8.269   5.548 -0.3301 -0.3191 -0.3136
  267MOL0    Cl35955   6.877   8.233   5.576 -0.1135 -0.1871  0.1033
  267MOL0     C35956   7.827   8.327   5.779 -0.8194 -0.5711  0.3552
  267MOL0     C35957   7.967   8.291   5.777  1.2707 -0.2431  0.1887
  267MOL0     O35958   8.311   8.487   5.653 -0.2707  0.3468  0.0211
  267MOL0     C35959   8.532   8.334   5.692 -0.3603  0.8643 -0.2137
  267MOL0     C35960   8.655   8.261   5.678 -0.0271  0.0015  0.1946
  267MOL0     N35961   9.448   8.099   5.567 -0.3916  0.2354  0.7054
  267MOL0     N35962   9.551   8.137   5.625 -0.3796  0.0382  0.0558
  267MOL0     C35963  10.308   7.607   6.436 -0.2188  0.0125 -0.3722
  267MOL0     C35964  10.435   7.548   6.455 -0.7039  0.2970 -0.1715
  267MOL0     C35965  10.782   7.374   6.687  0.3861 -0.0761  0.1179
  267MOL0     C35966  10.843   7.281   6.606 -0.6130  0.1231  0.2134
  267MOL0     C35967  10.983   7.256   6.612 -0.6996  0.9471 -0.5117
  267MOL0     C35968  11.051   7.297   6.723 -0.3985 -0.0188 -0.5350
  267MOL0     O35969  11.181   7.293   6.731 -0.6145 -0.0697 -0.2125
  267MOL0     C35970  11.243   7.171   6.693 -0.3906 -0.4777  0.3785
  267MOL0     C35971  11.194   7.066   6.786 -0.4000  0.3624  0.1032
  267MOL0     C35972  11.183   7.098   6.935  0.0945  0.6508  0.4150
  267MOL0     C35973  11.326   7.138   6.998  0.6901 -0.0481  0.0921
  267MOL0     C35974  11.421   7.023   6.984 -0.0566 -0.4076 -0.7301
  267MOL0     C35975  11.514   6.943   6.975  0.1666 -1.0907  0.2019
  267MOL0     C35976  10.990   7.381   6.816 -0.2329 -0.5803 -0.6831
  267MOL0     C35977  10.859   7.420   6.798 -0.3894  0.2717  0.1756
  267MOL0     H35978  10.330   7.258   6.601 -0.9813  0.1050 -0.7289
  267MOL0     H35979  10.115   7.357   6.557 -0.5526  0.3369 -1.2691
  267MOL0     H35980  10.045   7.461   6.309  0.2075  1.5405 -1.3636
  267MOL0     H35981   9.938   7.458   6.459  0.3167  1.0457  0.1501
  267MOL0     H35982   9.807   7.513   6.273 -0.1183 -0.6314 -0.4449
  267MOL0     H35983   9.818   7.660   6.371 -2.9138 -0.6727 -2.1727
  267MOL0     H35984  10.011   7.732   6.230 -0.8839  0.0171 -0.4169
  267MOL0     H35985   9.965   7.611   6.111  0.6261 -2.0351  0.7470
  267MOL0     H35986   9.738   7.701   6.086 -1.6464  2.3464 -1.1910
  267MOL0     H35987   9.772   7.804   6.224  3.5893 -1.5482  1.6772
  267MOL0     H35988   9.937   7.931   6.089  0.1042 -0.8493  0.0647
  267MOL0     H35989   9.904   7.813   5.956  0.6458 -3.9771  2.3971
  267MOL0     H35990   9.665   7.883   5.940  0.9891  0.0956 -1.3639
  267MOL0     H35991   9.688   8.003   6.060 -2.1430  1.6070 -3.1501
  267MOL0     H35992   9.859   8.119   5.890 -0.0792 -0.9220  0.5020
  267MOL0     H35993   9.796   8.004   5.772  0.8765  0.0784  0.1302
  267MOL0     H35994   9.688   8.245   5.829 -2.7085  1.1737  1.4762
  267MOL0     H35995   9.607   8.157   5.952  0.0154  1.3822  0.0301
  267MOL0     H35996   9.412   7.986   5.883 -2.1991 -1.4565 -1.1699
  267MOL0     H35997   9.231   7.931   5.543 -1.5182  0.0261  0.2674
  267MOL0     H35998   9.240   7.872   5.711 -3.6774  0.4666  0.5492
  267MOL0     H35999   9.134   8.144   5.633 -2.0978  0.0056  0.4509
  267MOL0     H36000   9.132   8.056   5.793 -0.6831 -0.1667 -0.1488
  267MOL0     H36001   8.968   7.913   5.713 -0.8246  1.9176  2.2649
  267MOL0     H36002   8.989   7.960   5.537  1.9828 -2.6906  0.9002
  267MOL0     H36003   8.913   8.194   5.610 -2.2770  1.8834  1.9449
  267MOL0     H36004   8.879   8.127   5.775  1.2754  0.1018 -0.3129
  267MOL0     H36005   8.528   7.999   5.495 -1.6549  2.1668 -4.6812
  267MOL0     H36006   8.301   8.029   5.441 -0.9298 -3.2190  2.1109
  267MOL0     H36007   8.229   8.052   5.604 -0.9792 -2.2300 -1.3634
  267MOL0     H36008   8.209   8.168   5.480 -1.0656 -1.8829 -0.9978
  267MOL0     H36009   8.095   8.577   5.654 -1.9177  1.6389 -2.4541
  267MOL0     H36010   7.873   8.633   5.627  0.9736 -2.1018 -3.5058
  267MOL0     H36011   7.616   8.551   5.889  0.0278 -0.8576 -0.7816
  267MOL0     H36012   7.691   8.665   5.770  1.2245 -1.1099 -0.8200
  267MOL0     H36013   7.463   8.723   5.774 -1.1154  1.2880 -3.3460
  267MOL0     H36014   7.504   8.653   5.633  2.2436 -0.0956  0.2611
  267MOL0     H36015   7.350   8.508   5.875 -3.4493  1.4260  0.0896
  267MOL0     H36016   7.373   8.434   5.714  0.5646 -0.8321  1.8160
  267MOL0     H36017   7.234   8.712   5.762  0.8662  0.1499 -1.5028
  267MOL0     H36018   7.216   8.605   5.627  1.1139  4.0521 -0.8308
  267MOL0     H36019   7.027   8.597   5.787 -2.0903 -1.5629  2.2137
  267MOL0     H36020   7.142   8.551   5.919 -0.7293  1.2202 -0.0415
  267MOL0     H36021   7.170   8.331   5.808 -3.1425 -3.5904 -0.2327
  267MOL0     H36022   6.998   8.362   5.819 -1.5852  3.2874 -0.2664
  267MOL0     H36023   7.183   8.416   5.560  0.3907 -0.8633  0.1350
  267MOL0     H36024   7.020   8.472   5.573  0.7520 -1.3676 -2.9222
  267MOL0     H36025   7.109   8.200   5.601  3.6428  0.6257 -3.5400
  267MOL0     H36026   7.057   8.262   5.440  1.1941 -1.7105 -0.0568
  267MOL0     H36027   7.748   8.267   5.822 -0.8632 -0.2380  0.7397
  267MOL0     H36028   7.996   8.189   5.801 -0.5592 -0.4919  1.5081
  267MOL0     H36029   8.538   8.427   5.746  2.2032  1.3051 -1.0927
  267MOL0     H36030   8.737   8.312   5.727 -0.2366  0.7753 -0.2380
  267MOL0     H36031  10.301   7.705   6.391  0.5007  0.5416  0.6165
  267MOL0     H36032  10.525   7.599   6.420 -0.1626 -0.8752 -0.5526
  267MOL0     H36033  10.791   7.229   6.526  0.5382 -0.4437 -0.1914
  267MOL0     H36034  11.022   7.194   6.531 -0.4241 -0.1794  0.4512
  267MOL0     H36035  11.225   7.145   6.588 -0.7888  2.3420 -0.3419
  267MOL0     H36036  11.351   7.190   6.700 -0.0492  1.1494 -4.7312
  267MOL0     H36037  11.265   6.982   6.786 -1.3481 -0.4874  1.7316
  267MOL0     H36038  11.100   7.026   6.745 -1.1760  0.4572  1.7232
  267MOL0     H36039  11.136   7.012   6.982 -0.9640  0.6117 -0.6719
  267MOL0     H36040  11.115   7.182   6.953 -1.8584 -0.6708 -0.4834
  267MOL0     H36041  11.316   7.151   7.107 -0.9334  0.0705 -0.0447
  267MOL0     H36042  11.360   7.230   6.951  2.4177 -0.9062 -0.4055
  267MOL0     H36043  11.598   6.877   6.962  1.7452  0.6134  1.3001
  267MOL0     H36044  11.043   7.434   6.895 -1.2055 -1.5384  0.6402
  267MOL0     H36045  10.829   7.495   6.870  1.7102 -1.2211  2.7599
  268MOL0     O36046   3.050   8.710   5.142  0.1215  0.6315 -0.2282
  268MOL0     C36047   3.045   8.803   5.066 -1.2044  0.5076  0.5354
  268MOL0     O36048   3.082   8.924   5.095 -0.5648 -0.3938  0.7615
  268MOL0     C36049   3.108   8.970   5.222 -0.1417  0.1053  0.9664
  268MOL0     C36050   3.241   8.971   5.260 -0.3906  0.2895 -0.8053
  268MOL0     C36051   3.273   9.018   5.379  0.0700 -0.2800 -0.9518
  268MOL0     C36052   3.179   9.065   5.473 -0.8367  0.8847  0.6026
  268MOL0     O36053   3.215   9.121   5.589 -0.1238 -0.0409  0.3103
  268MOL0     C36054   3.227   9.264   5.592  0.3573 -0.1038  0.6257
  268MOL0     C36055   3.221   9.310   5.740 -0.2879  0.5879  0.4430
  268MOL0     C36056   3.083   9.299   5.796  0.9536  0.7549  0.1994
  268MOL0     C36057   3.065   9.164   5.868 -0.1784 -0.8019  0.4863
  268MOL0     C36058   2.940   9.163   5.951  0.6038 -0.6271 -0.4938
  268MOL0     C36059   2.803   9.216   5.888 -0.2452 -0.8661 -0.8787
  268MOL0     C36060   2.688   9.164   5.966 -0.4405 -0.2070  0.0275
  268MOL0     C36061   2.561   9.153   5.886  0.1285 -0.0626  0.3514
  268MOL0     N36062   2.451   9.090   5.952  0.4238 -0.0972 -0.3952
  268MOL0     C36063   2.328   9.057   5.898  0.2919 -0.4187  0.3030
  268MOL0     C36064   2.254   9.014   6.005  0.6773 -0.1679 -0.1375
  268MOL0     C36065   2.109   8.960   6.014 -0.3361 -0.5445 -0.8067
  268MOL0     C36066   2.004   9.050   5.942  0.0382 -0.0002 -0.1097
  268MOL0     C36067   1.868   8.982   5.945 -0.6731 -0.3948 -0.6966
  268MOL0     C36068   1.772   9.074   5.880  0.1001 -0.7049  0.3405
  268MOL0     O36069   1.688   9.116   5.984  0.4963  0.3380  0.0843
  268MOL0     C36070   1.559   9.127   5.939  0.0060  0.7403 -0.1612
  268MOL0     C36071   1.467   9.050   5.990 -0.5797 -0.0457  0.5129
  268MOL0     C36072   1.331   9.062   5.947  0.3623 -0.0670  0.2520
  268MOL0     C36073   1.239   8.960   6.011  1.7525 -0.5425  0.1824
  268MOL0     C36074   1.290   9.167   5.872  0.0749  0.3766  0.6716
  268MOL0     C36075   1.150   9.193   5.836  0.1460  0.6747  0.2050
  268MOL0     O36076   1.061   9.093   5.798 -0.1844 -0.6428 -0.4322
  268MOL0     C36077   0.938   9.143   5.772  0.1634  0.6138 -0.5160
  268MOL0     C36078   0.895   9.153   5.639  0.0944  1.0393 -0.2976
  268MOL0     C36079   0.769   9.200   5.603  0.6538 -0.0018 -0.5201
  268MOL0     C36080   0.681   9.235   5.703  0.8535  0.9883 -0.5381
  268MOL0     O36081   0.552   9.267   5.665 -0.3653  0.4383 -0.0333
  268MOL0     C36082   0.449   9.329   5.747 -0.4377  1.4217  0.2312
  268MOL0     C36083   0.340   9.228   5.779  0.1653  0.7340  0.9893
  268MOL0     C36084   0.277   9.180   5.649 -0.0742  0.0411  0.0477
  268MOL0     C36085   0.168   9.091   5.691  0.4923  0.0949  0.6232
  268MOL0     C36086   0.039   9.167   5.717 -0.2190 -0.2961  0.6337
  268MOL0     C36087  -0.083   9.084   5.773 -0.2817 -0.1379 -0.1508
  268MOL0     C36088  -0.081   9.070   5.919 -0.6106 -0.2441 -0.0972
  268MOL0     C36089  -0.196   8.997   5.986 -0.4178 -0.9956  0.1205
  268MOL0    Cl36090  -0.175   8.827   5.948 -0.5702  0.1017  0.6244
  268MOL0     C36091   0.717   9.212   5.842 -0.6115  0.1018  0.3573
  268MOL0     C36092   0.847   9.177   5.873  0.4857  0.1222 -0.4891
  268MOL0     O36093   1.129   9.314   5.823  0.3301  0.7371 -0.6769
  268MOL0     C36094   1.394   9.259   5.833 -0.3707 -0.2955  0.1097
  268MOL0     C36095   1.529   9.236   5.863  0.3708  0.2571  0.0381
  268MOL0     N36096   2.328   9.025   6.118 -0.5656 -0.0053 -0.1393
  268MOL0     N36097   2.447   9.054   6.081  0.5725 -0.4763  0.1170
  268MOL0     C36098   3.043   9.058   5.437 -0.2348 -0.2259 -0.5256
  268MOL0     C36099   3.007   9.014   5.312 -1.2264  0.7760  0.0585
  268MOL0     C36100   3.006   8.773   4.920  0.8047 -0.6733 -0.1213
  268MOL0     C36101   2.947   8.653   4.883 -1.3530 -0.2459 -0.1123
  268MOL0     C36102   2.920   8.635   4.753  0.4680 -0.1442 -0.3385
  268MOL0     C36103   2.957   8.723   4.647  0.1537  0.3887 -0.6033
  268MOL0     O36104   2.939   8.692   4.508 -0.8451  0.1621 -1.0153
  268MOL0     C36105   2.837   8.592   4.471  1.0339 -0.3680 -0.4052
  268MOL0     C36106   2.905   8.461   4.438  0.2248 -0.1350  0.0392
  268MOL0     C36107   2.965   8.462   4.295  0.1993  0.0964  0.4996
  268MOL0     C36108   3.027   8.329   4.246  0.7926 -0.1856  0.2260
  268MOL0     C36109   2.939   8.205   4.246  0.0943 -0.2245 -0.3635
  268MOL0     C36110   2.861   8.113   4.268 -0.0441  0.6283  0.1649
  268MOL0     C36111   3.009   8.848   4.691  0.1983 -0.1948 -0.6855
  268MOL0     C36112   3.026   8.873   4.830 -1.3391 -0.0727 -0.0480
  268MOL0     H36113   3.319   8.934   5.195  0.0127  0.0294 -0.1843
  268MOL0     H36114   3.379   9.027   5.404  0.0161 -0.2799 -0.7230
  268MOL0     H36115   3.321   9.296   5.545  0.9563 -2.5810 -0.0592
  268MOL0     H36116   3.141   9.307   5.540 -2.0524 -1.9069  2.8893
  268MOL0     H36117   3.286   9.259   5.811 -0.9003  1.4736  1.6809
  268MOL0     H36118   3.234   9.418   5.728  0.1090  0.5275  0.3150
  268MOL0     H36119   3.065   9.372   5.875 -1.5158  2.2640 -1.6090
  268MOL0     H36120   3.008   9.337   5.726 -1.8336 -0.5187  2.3244
  268MOL0     H36121   3.064   9.089   5.789 -1.3443  1.6594 -2.0329
  268MOL0     H36122   3.149   9.139   5.933 -1.9986 -1.5833  2.6774
  268MOL0     H36123   2.930   9.066   6.000 -0.2907  0.8603  2.4792
  268MOL0     H36124   2.946   9.229   6.038 -0.0768  0.1156 -1.0000
  268MOL0     H36125   2.788   9.325   5.879  1.8037 -0.1286  2.8124
  268MOL0     H36126   2.804   9.161   5.793  1.4954 -2.5161  0.0344
  268MOL0     H36127   2.710   9.063   6.001 -1.0905  0.2892  1.9751
  268MOL0     H36128   2.665   9.230   6.049 -4.4288 -1.2615 -0.0196
  268MOL0     H36129   2.582   9.085   5.803 -0.6154  0.9408 -0.6812
  268MOL0     H36130   2.534   9.247   5.838  1.1197 -0.4127 -0.9452
  268MOL0     H36131   2.286   9.064   5.799 -0.8984 -1.3907  0.7045
  268MOL0     H36132   2.109   8.862   5.966  0.7016  0.3071 -2.6770
  268MOL0     H36133   2.080   8.952   6.119 -0.7640  1.3355 -0.7425
  268MOL0     H36134   2.024   9.068   5.836 -2.0593  0.2159 -0.5209
  268MOL0     H36135   2.015   9.148   5.991 -0.1680  0.0317 -0.1246
  268MOL0     H36136   1.830   8.963   6.046 -1.0325 -0.7112 -0.8881
  268MOL0     H36137   1.872   8.886   5.892 -2.4820  0.2002 -2.0005
  268MOL0     H36138   1.719   9.015   5.804 -0.6770  1.0368 -0.5237
  268MOL0     H36139   1.819   9.163   5.838 -1.8704  1.4505  2.4081
  268MOL0     H36140   1.498   8.962   6.046  0.9707 -1.3825 -2.2445
  268MOL0     H36141   1.224   8.878   5.941  0.0691  0.1396 -0.3313
  268MOL0     H36142   1.275   8.919   6.106  0.1387  0.6760  1.4060
  268MOL0     H36143   1.138   8.998   6.032  1.5907 -1.1020  0.4364
  268MOL0     H36144   0.968   9.121   5.565  1.9029 -1.0121  2.1916
  268MOL0     H36145   0.743   9.208   5.498 -0.5308 -0.1747 -0.2568
  268MOL0     H36146   0.483   9.367   5.844  0.2324  1.2018  0.0888
  268MOL0     H36147   0.419   9.418   5.691 -0.3112  1.9151  0.9362
  268MOL0     H36148   0.376   9.135   5.824 -1.7869 -1.2405 -1.2457
  268MOL0     H36149   0.276   9.287   5.845 -0.6062 -1.1473  1.9841
  268MOL0     H36150   0.352   9.127   5.589 -0.5119 -1.1837  0.5499
  268MOL0     H36151   0.243   9.270   5.596  1.7481 -0.2506 -1.7597
  268MOL0     H36152   0.150   9.021   5.609  4.2163  3.3926 -3.4776
  268MOL0     H36153   0.199   9.038   5.782 -0.7903 -2.5415 -0.3516
  268MOL0     H36154   0.007   9.191   5.615 -1.4912  0.9257  1.2884
  268MOL0     H36155   0.060   9.261   5.768  0.4380  1.0126 -1.8659
  268MOL0     H36156  -0.176   9.138   5.753 -0.1301  1.1425  2.2166
  268MOL0     H36157  -0.071   8.984   5.731  0.1862 -0.0435 -0.2421
  268MOL0     H36158  -0.066   9.172   5.956  2.0638  0.0606 -1.7519
  268MOL0     H36159   0.017   9.024   5.936  0.3416  2.0009  1.0055
  268MOL0     H36160  -0.288   9.047   5.956  0.5364 -0.0056 -1.2571
  268MOL0     H36161  -0.189   9.010   6.095  1.4507  1.4345 -0.2007
  268MOL0     H36162   0.648   9.238   5.922 -0.9782 -1.5934  0.6374
  268MOL0     H36163   0.885   9.182   5.975  0.4521  3.6513 -0.5224
  268MOL0     H36164   1.368   9.356   5.790 -0.5337  0.0548  0.9881
  268MOL0     H36165   1.620   9.291   5.842  1.7392 -1.1983  1.8958
  268MOL0     H36166   2.968   9.081   5.513  2.9910 -1.1336  3.2927
  268MOL0     H36167   2.904   9.003   5.278 -0.8843 -0.4333 -0.6734
  268MOL0     H36168   2.921   8.567   4.944  0.2444 -1.5011 -1.1260
  268MOL0     H36169   2.868   8.543   4.726 -0.6798  0.2764  0.3558
  268MOL0     H36170   2.760   8.568   4.545  1.1726  1.4734  0.3675
  268MOL0     H36171   2.780   8.629   4.385  0.2665  2.4942  1.2230
  268MOL0     H36172   2.831   8.381   4.445  1.1492 -1.1909 -1.5704
  268MOL0     H36173   2.984   8.447   4.513  0.2443  0.5067  0.1436
  268MOL0     H36174   3.042   8.539   4.304 -1.3801  2.1968 -2.2346
  268MOL0     H36175   2.887   8.490   4.224  0.5905 -1.0327 -0.4021
  268MOL0     H36176   3.116   8.313   4.308  1.1280 -0.2780 -0.2802
  268MOL0     H36177   3.057   8.344   4.142 -1.8423  0.9055 -0.4625
  268MOL0     H36178   2.797   8.028   4.273 -0.5581  0.8896 -1.4117
  268MOL0     H36179   3.045   8.922   4.621  1.2442 -0.6585 -0.6659
  268MOL0     H36180   3.061   8.972   4.859 -1.2701 -0.1667  0.1851
  269MOL0     O36181   5.580   1.194   1.924  0.6872  0.0499 -0.4765
  269MOL0     C36182   5.657   1.106   1.943 -0.0797  0.0954  0.1717
  269MOL0     O36183   5.651   0.980   1.896  0.0498  0.2262  0.0182
  269MOL0     C36184   5.548   0.942   1.823 -0.5298  0.1180  0.3541
  269MOL0     C36185   5.486   1.015   1.723 -0.4511  0.8007 -1.4173
  269MOL0     C36186   5.377   0.962   1.650  1.0124 -0.4147  1.2044
  269MOL0     C36187   5.335   0.829   1.668  0.5178 -0.1721 -0.0967
  269MOL0     O36188   5.248   0.770   1.584 -0.1861 -0.9284 -0.6421
  269MOL0     C36189   5.177   0.835   1.476 -1.2315 -0.3044  0.1172
  269MOL0     C36190   5.053   0.752   1.445 -0.0984  0.2299  0.2171
  269MOL0     C36191   4.939   0.770   1.555  0.2214  0.0592  0.6301
  269MOL0     C36192   4.848   0.901   1.527  0.2640 -0.7447  0.3290
  269MOL0     C36193   4.730   0.929   1.621  0.5819 -0.3548  0.0548
  269MOL0     C36194   4.658   1.061   1.583  0.0662 -0.3123 -0.1464
  269MOL0     C36195   4.548   1.106   1.667 -0.6351  0.4771 -0.7353
  269MOL0     C36196   4.422   1.020   1.657 -0.3000  0.5254  0.0009
  269MOL0     N36197   4.308   1.110   1.692  0.6911  0.4914  0.7614
  269MOL0     C36198   4.186   1.067   1.733  0.1059 -0.0352 -0.0354
  269MOL0     C36199   4.103   1.174   1.733 -0.0627 -0.6298  0.6782
  269MOL0     C36200   3.956   1.169   1.761  0.8755 -0.2253  0.3995
  269MOL0     C36201   3.931   1.241   1.889  0.5276 -1.2582  0.1313
  269MOL0     C36202   3.782   1.243   1.909 -0.6539  0.3167  0.3055
  269MOL0     C36203   3.763   1.243   2.065  0.0654  0.0527  0.3661
  269MOL0     O36204   3.620   1.228   2.086  0.1788  0.5763  0.1310
  269MOL0     C36205   3.577   1.178   2.205  0.0632 -0.7350  1.2486
  269MOL0     C36206   3.436   1.177   2.225 -0.2507 -0.9753  0.1379
  269MOL0     C36207   3.385   1.120   2.341 -0.2719  1.1722 -0.6177
  269MOL0     C36208   3.234   1.117   2.346  0.2092  0.4387  0.1488
  269MOL0     C36209   3.469   1.063   2.443  0.7434 -0.0653 -0.1191
  269MOL0     C36210   3.417   0.977   2.561  0.1114 -0.7454  0.3241
  269MOL0     O36211   3.513   0.898   2.620 -0.9369 -0.1032 -0.0423
  269MOL0     C36212   3.483   0.838   2.745 -0.5650 -0.1302  0.2147
  269MOL0     C36213   3.456   0.915   2.859  0.9478 -0.6066  0.1955
  269MOL0     C36214   3.399   0.851   2.969 -0.3041  0.7235 -1.0042
  269MOL0     C36215   3.396   0.709   2.979 -0.5976  0.2505 -0.0876
  269MOL0     O36216   3.337   0.634   3.077  0.1064 -0.1040  0.9123
  269MOL0     C36217   3.258   0.698   3.171  0.0002 -0.9148 -0.4514
  269MOL0     C36218   3.197   0.618   3.287  0.1226  0.1403  0.8744
  269MOL0     C36219   3.289   0.589   3.408 -0.0281 -1.1884  0.4367
  269MOL0     C36220   3.318   0.717   3.483  0.3565  0.6144 -1.1917
  269MOL0     C36221   3.391   0.666   3.607 -0.9730 -0.2244  0.2340
  269MOL0     C36222   3.457   0.783   3.683  0.6637  0.2813  0.1645
  269MOL0     C36223   3.573   0.739   3.770  0.1699  0.2133 -0.0186
  269MOL0     C36224   3.619   0.844   3.873  0.1485 -0.0912 -0.1482
  269MOL0    Cl36225   3.701   0.996   3.809  0.1001  0.1687  0.3126
  269MOL0     C36226   3.439   0.634   2.873  0.4799 -0.8258 -0.1486
  269MOL0     C36227   3.464   0.699   2.754 -0.0701  0.2803  0.1281
  269MOL0     O36228   3.307   1.006   2.602  0.2525 -0.1197 -0.3857
  269MOL0     C36229   3.603   1.075   2.427  0.0192  0.2621 -0.4358
  269MOL0     C36230   3.659   1.136   2.315 -0.2365  0.0178 -0.3065
  269MOL0     N36231   4.173   1.276   1.664 -1.4948  0.3572  0.1832
  269MOL0     N36232   4.292   1.236   1.647  0.7621 -0.3960 -0.1657
  269MOL0     C36233   5.396   0.751   1.768 -0.7070 -0.0554 -0.1416
  269MOL0     C36234   5.499   0.813   1.847 -0.5117  0.6043 -0.0774
  269MOL0     C36235   5.782   1.174   1.985  0.4476  1.2170  0.4043
  269MOL0     C36236   5.792   1.308   2.020 -0.1416 -0.2264  0.0320
  269MOL0     C36237   5.909   1.359   2.065  0.2709 -0.2560  0.5069
  269MOL0     C36238   6.027   1.282   2.073 -1.0022 -0.1765 -0.8900
  269MOL0     O36239   6.154   1.320   2.119  0.8646 -0.0644 -0.8739
  269MOL0     C36240   6.180   1.462   2.113 -0.6661 -0.2300 -0.2620
  269MOL0     C36241   6.322   1.485   2.164  0.4577 -0.5851 -0.4559
  269MOL0     C36242   6.375   1.625   2.195 -0.4224 -0.9665  0.5167
  269MOL0     C36243   6.276   1.727   2.264  0.2189  0.0314  0.1915
  269MOL0     C36244   6.194   1.678   2.380  0.3484  0.4681  0.1221
  269MOL0     C36245   6.132   1.647   2.477 -0.0661 -0.5782  0.7045
  269MOL0     C36246   6.019   1.147   2.042  0.7628  0.1598 -0.0932
  269MOL0     C36247   5.900   1.098   1.999 -0.7279 -0.2472 -0.0990
  269MOL0     H36248   5.512   1.118   1.700 -0.7293  1.4990  1.0936
  269MOL0     H36249   5.330   1.023   1.574  4.1157  1.9464  0.9616
  269MOL0     H36250   5.143   0.934   1.506  0.7292  0.8497 -1.2679
  269MOL0     H36251   5.246   0.851   1.393 -0.8754  4.1646  1.0166
  269MOL0     H36252   5.021   0.775   1.343  2.0357  0.5646 -0.4096
  269MOL0     H36253   5.082   0.648   1.461 -0.1189  0.2755  0.5689
  269MOL0     H36254   4.881   0.677   1.548 -2.1123  1.4666  0.2106
  269MOL0     H36255   4.979   0.774   1.657  0.3140  0.2247  0.5862
  269MOL0     H36256   4.910   0.990   1.541 -3.9617  2.1532  3.2060
  269MOL0     H36257   4.809   0.900   1.424  0.2252 -1.0824  0.3473
  269MOL0     H36258   4.664   0.842   1.630  0.5278 -0.2803  0.4132
  269MOL0     H36259   4.769   0.956   1.720  2.1761 -0.8899 -0.3976
  269MOL0     H36260   4.733   1.140   1.570  1.2408 -1.6721 -2.3961
  269MOL0     H36261   4.620   1.052   1.481 -1.7860 -2.2764  0.6467
  269MOL0     H36262   4.570   1.119   1.774 -0.9534 -0.1151 -0.5932
  269MOL0     H36263   4.523   1.204   1.626 -1.3443 -0.0205 -1.5294
  269MOL0     H36264   4.441   0.935   1.724  4.8897  2.4742  1.4740
  269MOL0     H36265   4.415   0.989   1.552  2.5023  1.5097 -0.5474
  269MOL0     H36266   4.158   0.964   1.756  3.2322 -0.4660  2.5194
  269MOL0     H36267   3.891   1.221   1.689 -1.4526 -0.0166  2.5012
  269MOL0     H36268   3.915   1.068   1.762 -0.1671  0.1824  0.3696
  269MOL0     H36269   3.960   1.346   1.884 -3.0055 -0.1719  0.0020
  269MOL0     H36270   3.978   1.185   1.971  1.4307 -3.0745 -1.5386
  269MOL0     H36271   3.741   1.155   1.858 -0.0856  0.1500  0.1358
  269MOL0     H36272   3.736   1.333   1.867  0.7235  1.4166  1.0834
  269MOL0     H36273   3.791   1.339   2.110  4.3562 -1.1504  0.7384
  269MOL0     H36274   3.831   1.172   2.115  2.7543  2.6028  0.6120
  269MOL0     H36275   3.369   1.224   2.155  2.1803  0.3004 -1.4823
  269MOL0     H36276   3.185   1.143   2.251 -1.2163  1.2550  1.0848
  269MOL0     H36277   3.202   1.014   2.365  0.3345  0.4661  0.5002
  269MOL0     H36278   3.188   1.184   2.418 -0.4055  0.9568 -0.7003
  269MOL0     H36279   3.453   1.022   2.843  0.9584 -0.8241 -1.5097
  269MOL0     H36280   3.363   0.902   3.058 -1.4878  0.2184 -1.1782
  269MOL0     H36281   3.312   0.783   3.215 -0.8134 -0.9175  0.6034
  269MOL0     H36282   3.172   0.744   3.121 -1.0912  0.3680  2.3435
  269MOL0     H36283   3.106   0.671   3.318 -1.4639 -1.2312 -1.1668
  269MOL0     H36284   3.155   0.525   3.247 -1.3675  0.2734  2.0233
  269MOL0     H36285   3.378   0.538   3.370  0.3221 -0.1446 -0.1678
  269MOL0     H36286   3.248   0.513   3.476  1.5636 -4.5396 -2.0232
  269MOL0     H36287   3.368   0.791   3.420  1.9973 -0.1244 -0.7845
  269MOL0     H36288   3.229   0.776   3.508  0.8435  1.3735 -1.2146
  269MOL0     H36289   3.468   0.594   3.579 -1.9640 -0.8003 -1.1864
  269MOL0     H36290   3.327   0.608   3.674  0.6187 -1.8686  0.4002
  269MOL0     H36291   3.487   0.856   3.607  0.2851  1.5075  1.1585
  269MOL0     H36292   3.376   0.827   3.743  1.6051  0.5229  1.2886
  269MOL0     H36293   3.657   0.708   3.707  1.1002  1.2942  0.6382
  269MOL0     H36294   3.541   0.654   3.831 -0.0113  2.0937  2.7042
  269MOL0     H36295   3.702   0.799   3.929  0.8179  0.7842 -0.4032
  269MOL0     H36296   3.545   0.868   3.949  1.2349  1.1589  0.5577
  269MOL0     H36297   3.439   0.525   2.878 -0.2992 -0.9209 -1.6014
  269MOL0     H36298   3.498   0.644   2.666  0.0371  0.6690 -0.0748
  269MOL0     H36299   3.672   1.029   2.497 -2.3475  0.8599  2.4637
  269MOL0     H36300   3.768   1.135   2.320 -0.2703 -0.4527  0.6460
  269MOL0     H36301   5.344   0.656   1.781 -3.5815  1.0091 -2.6796
  269MOL0     H36302   5.539   0.764   1.935  0.1805  1.1850 -0.0690
  269MOL0     H36303   5.708   1.376   2.018 -0.9224 -1.0646  1.7373
  269MOL0     H36304   5.919   1.459   2.107  1.4424  0.1501 -0.6566
  269MOL0     H36305   6.167   1.506   2.014  0.2853 -0.7756 -0.6364
  269MOL0     H36306   6.108   1.511   2.180  0.3397  3.1844 -1.4772
  269MOL0     H36307   6.398   1.453   2.092  0.1557  1.4009 -1.7454
  269MOL0     H36308   6.333   1.425   2.254  1.1013 -1.4455 -1.0975
  269MOL0     H36309   6.408   1.669   2.101 -0.8136  0.2782  0.9476
  269MOL0     H36310   6.463   1.615   2.259 -0.5091  2.3941  1.3386
  269MOL0     H36311   6.196   1.745   2.191  1.3834 -0.7938 -1.3412
  269MOL0     H36312   6.323   1.825   2.276 -0.1738  0.2011  0.3535
  269MOL0     H36313   6.075   1.619   2.564 -0.5233 -1.6412  0.0882
  269MOL0     H36314   6.107   1.085   2.053  2.1568  1.8806 -0.9409
  269MOL0     H36315   5.907   0.990   1.986  1.1894 -0.6278  2.9313
  270MOL0     O36316   0.262   2.803  11.272  0.1391 -0.2723  0.2504
  270MOL0     C36317   0.355   2.716  11.282 -0.3572  0.2224 -0.3387
  270MOL0     O36318   0.379   2.609  11.202 -0.4307 -0.3007 -0.2236
  270MOL0     C36319   0.314   2.570  11.086 -0.7431  1.1539  0.5862
  270MOL0     C36320   0.379   2.465  11.004  0.7397 -0.5846  0.2178
  270MOL0     C36321   0.317   2.413  10.887 -0.9579  0.1414  0.2786
  270MOL0     C36322   0.187   2.454  10.855 -0.0983 -0.8835  0.0291
  270MOL0     O36323   0.126   2.403  10.746  0.3296 -0.6102  0.0507
  270MOL0     C36324   0.137   2.267  10.707 -0.7005 -1.0926  0.1695
  270MOL0     C36325   0.037   2.181  10.783  0.3725  0.5466 -0.0401
  270MOL0     C36326  -0.111   2.231  10.765  0.1542  0.5464  0.7010
  270MOL0     C36327  -0.217   2.149  10.838 -0.5354  0.0125  0.7088
  270MOL0     C36328  -0.346   2.206  10.772 -0.1266  0.0518 -0.8065
  270MOL0     C36329  -0.465   2.120  10.819  1.1197  0.1296  0.0773
  270MOL0     C36330  -0.598   2.156  10.755  0.1043  0.5593  1.0704
  270MOL0     C36331  -0.603   2.146  10.605  0.0318 -1.1853  0.7296
  270MOL0     N36332  -0.733   2.101  10.568  1.0664 -0.3914  0.5579
  270MOL0     C36333  -0.781   1.977  10.545 -0.5028  0.6329  0.2081
  270MOL0     C36334  -0.913   1.993  10.556  0.3254 -0.3742 -1.1395
  270MOL0     C36335  -1.007   1.879  10.535 -0.2372  0.0317  0.2135
  270MOL0     C36336  -1.076   1.877  10.394 -0.9730  0.6596 -0.2415
  270MOL0     C36337  -0.960   1.879  10.288 -0.2998  0.1679  0.1873
  270MOL0     C36338  -1.027   1.882  10.149  0.3492  0.5018 -0.0195
  270MOL0     O36339  -1.093   1.755  10.131  0.3146  0.6517  0.1027
  270MOL0     C36340  -1.230   1.741  10.135 -0.2076  0.2141 -0.0898
  270MOL0     C36341  -1.272   1.612  10.111  0.0382  0.9959  0.1377
  270MOL0     C36342  -1.409   1.580  10.113 -0.3954 -0.8070  0.8319
  270MOL0     C36343  -1.457   1.444  10.075 -0.0133  0.0071 -0.3071
  270MOL0     C36344  -1.500   1.689  10.150  0.5655  0.7833 -0.4288
  270MOL0     C36345  -1.644   1.666  10.159 -0.3209  0.1769  0.8414
  270MOL0     O36346  -1.723   1.762  10.104  0.2100 -0.4336 -0.4111
  270MOL0     C36347  -1.826   1.802  10.187  0.3576 -0.4139  0.1453
  270MOL0     C36348  -1.835   1.785  10.325  0.0357 -0.2584 -0.4973
  270MOL0     C36349  -1.949   1.827  10.401 -0.7897 -0.3265  0.1655
  270MOL0     C36350  -2.058   1.878  10.343  1.0201 -0.8815 -0.1667
  270MOL0     O36351  -2.177   1.914  10.404 -0.0687 -0.2142 -0.0312
  270MOL0     C36352  -2.228   1.797  10.480 -0.6007  1.0608  0.3965
  270MOL0     C36353  -2.374   1.826  10.516 -0.2615 -0.1219  0.2892
  270MOL0     C36354  -2.403   1.960  10.580 -0.6461  0.2171 -0.0218
  270MOL0     C36355  -2.547   1.967  10.644 -0.2949  0.1762 -0.1792
  270MOL0     C36356  -2.577   2.098  10.723 -0.5115 -0.5150 -0.0794
  270MOL0     C36357  -2.543   2.224  10.644 -0.2598  0.0462  0.0980
  270MOL0     C36358  -2.613   2.237  10.509 -0.3778  0.2898 -0.0103
  270MOL0     C36359  -2.583   2.375  10.437  0.0373  0.1119  0.4242
  270MOL0    Cl36360  -2.692   2.386  10.306  0.2609  0.8658  0.1214
  270MOL0     C36361  -2.052   1.901  10.203 -0.1566 -0.7485 -1.1112
  270MOL0     C36362  -1.936   1.857  10.128  0.4391 -0.1755  0.5936
  270MOL0     O36363  -1.679   1.555  10.200 -0.6848  0.8751  0.3830
  270MOL0     C36364  -1.456   1.819  10.175  0.0136 -0.1359 -0.0893
  270MOL0     C36365  -1.317   1.845  10.168  0.8252 -0.4236  0.5473
  270MOL0     N36366  -0.948   2.128  10.584 -0.2969  0.5418 -0.6376
  270MOL0     N36367  -0.838   2.184  10.585  0.0610 -0.2473  0.0797
  270MOL0     C36368   0.131   2.555  10.935 -0.0663  0.3607 -0.0768
  270MOL0     C36369   0.185   2.609  11.054  1.0274 -0.2801  0.4119
  270MOL0     C36370   0.453   2.743  11.394 -1.0076 -0.0308  0.0628
  270MOL0     C36371   0.431   2.857  11.475 -0.2339  0.1423  0.2622
  270MOL0     C36372   0.526   2.894  11.568  0.1199 -0.4891  0.3710
  270MOL0     C36373   0.638   2.820  11.584 -0.6186  0.3783  0.0636
  270MOL0     O36374   0.712   2.859  11.693  0.2590  0.3779 -0.0278
  270MOL0     C36375   0.714   2.757  11.790 -0.1716  0.2095 -0.7003
  270MOL0     C36376   0.693   2.804  11.936  0.0584 -0.5727 -0.2757
  270MOL0     C36377   0.562   2.892  11.952 -0.5337  0.5315  0.5035
  270MOL0     C36378   0.467   2.819  12.044  0.7012  0.7560  0.4453
  270MOL0     C36379   0.402   2.710  11.970 -0.9407  0.1254 -0.0983
  270MOL0     C36380   0.362   2.612  11.913  0.1662  0.0352 -0.5154
  270MOL0     C36381   0.672   2.721  11.494 -0.0372 -0.1306  0.8186
  270MOL0     C36382   0.570   2.675  11.404  0.1771 -0.3579 -0.0568
  270MOL0     H36383   0.471   2.421  11.039  0.6714  0.4818  1.8047
  270MOL0     H36384   0.375   2.350  10.822  2.0037  3.2219 -0.3482
  270MOL0     H36385   0.109   2.255  10.602 -2.1953 -1.9803  0.6277
  270MOL0     H36386   0.238   2.230  10.725  0.0063 -0.2273 -1.7796
  270MOL0     H36387   0.049   2.075  10.758  0.4659  0.8986 -1.5956
  270MOL0     H36388   0.063   2.196  10.888 -0.3324 -0.3219  0.2688
  270MOL0     H36389  -0.120   2.333  10.802 -1.7959 -0.0849  2.1460
  270MOL0     H36390  -0.128   2.218  10.658  1.1590 -0.5303  0.6546
  270MOL0     H36391  -0.197   2.042  10.826 -0.1217  0.2997 -1.5248
  270MOL0     H36392  -0.224   2.168  10.946 -0.2955 -0.1262  0.7510
  270MOL0     H36393  -0.360   2.308  10.811 -0.4148 -1.0059  2.0832
  270MOL0     H36394  -0.347   2.213  10.663 -1.1064 -0.2899 -0.8240
  270MOL0     H36395  -0.443   2.019  10.783 -1.4361 -0.4599 -0.0413
  270MOL0     H36396  -0.467   2.105  10.927  0.1795  1.1804  0.2264
  270MOL0     H36397  -0.659   2.076  10.798  1.3942 -0.0317  1.8519
  270MOL0     H36398  -0.634   2.257  10.775  2.3111  2.1412 -2.0117
  270MOL0     H36399  -0.520   2.084  10.568  0.1785 -1.0995  0.9121
  270MOL0     H36400  -0.595   2.244  10.557 -1.1442 -2.7228 -2.9602
  270MOL0     H36401  -0.719   1.889  10.536  0.2936  1.2421 -0.3442
  270MOL0     H36402  -0.956   1.783  10.549 -0.1255  0.1911  0.9338
  270MOL0     H36403  -1.088   1.883  10.609 -0.5561 -2.5804  0.1178
  270MOL0     H36404  -1.145   1.958  10.372 -1.5971 -0.0186 -0.8224
  270MOL0     H36405  -1.135   1.786  10.381 -1.8020  1.1291  0.1404
  270MOL0     H36406  -0.898   1.789  10.294 -0.3948  0.1653  3.7660
  270MOL0     H36407  -0.896   1.965  10.309 -2.6498  2.0921 -0.1351
  270MOL0     H36408  -0.953   1.892  10.069 -2.2502  2.6712 -2.3559
  270MOL0     H36409  -1.091   1.967  10.126  0.9603  0.4096 -2.3417
  270MOL0     H36410  -1.199   1.537  10.082 -4.4147 -3.5314 -0.7924
  270MOL0     H36411  -1.545   1.451  10.011  1.0749 -1.2389 -2.0215
  270MOL0     H36412  -1.383   1.381  10.026 -0.8783 -1.9818  0.8162
  270MOL0     H36413  -1.493   1.390  10.163 -2.5852  2.2562  0.1649
  270MOL0     H36414  -1.757   1.739  10.384 -0.7767  0.6035  1.3191
  270MOL0     H36415  -1.958   1.794  10.504 -1.0040 -1.3680 -0.1678
  270MOL0     H36416  -2.219   1.706  10.420  4.2783  0.8369  1.0670
  270MOL0     H36417  -2.179   1.778  10.576 -0.6819  0.0739  0.2495
  270MOL0     H36418  -2.439   1.833  10.428 -0.6941  1.7622  0.7100
  270MOL0     H36419  -2.413   1.746  10.580  0.4014  2.2250  3.9436
  270MOL0     H36420  -2.395   2.038  10.504  0.4081 -0.8896 -1.0797
  270MOL0     H36421  -2.326   1.981  10.655 -0.0228  0.7590 -0.8049
  270MOL0     H36422  -2.621   1.959  10.564  0.3860 -0.7877 -0.7356
  270MOL0     H36423  -2.565   1.882  10.710 -0.2812 -1.6377 -2.3960
  270MOL0     H36424  -2.519   2.089  10.815 -1.6279  0.3653  0.7236
  270MOL0     H36425  -2.681   2.103  10.755 -0.1919  1.9055  0.7267
  270MOL0     H36426  -2.582   2.314  10.692 -3.7475 -0.3291 -1.7036
  270MOL0     H36427  -2.435   2.219  10.627  0.1533  1.1262  2.1688
  270MOL0     H36428  -2.722   2.234  10.523 -0.3649  0.7089  0.2086
  270MOL0     H36429  -2.579   2.151  10.450 -0.2869  0.6748 -0.5256
  270MOL0     H36430  -2.593   2.467  10.497  1.4334  1.1899 -0.9262
  270MOL0     H36431  -2.479   2.365  10.406  0.0625 -2.7632  1.1291
  270MOL0     H36432  -2.144   1.945  10.165 -0.5993 -0.4264  0.2795
  270MOL0     H36433  -1.938   1.862  10.020 -0.8570  1.3557  0.6576
  270MOL0     H36434  -1.528   1.898  10.196 -1.4012 -0.6627 -2.5350
  270MOL0     H36435  -1.277   1.946  10.176  2.2558 -0.9416  0.3534
  270MOL0     H36436   0.026   2.570  10.911  0.1757 -1.6837 -2.8657
  270MOL0     H36437   0.131   2.685  11.109 -0.1157  0.8198 -2.0507
  270MOL0     H36438   0.341   2.916  11.465  0.9997  1.8375 -1.5112
  270MOL0     H36439   0.515   2.990  11.617 -1.1778 -1.0828  1.3052
  270MOL0     H36440   0.641   2.677  11.773  0.0054 -0.3752  1.1413
  270MOL0     H36441   0.813   2.712  11.781 -0.5926 -0.6292 -1.3079
  270MOL0     H36442   0.776   2.862  11.976 -0.6606  0.6985 -0.5600
  270MOL0     H36443   0.683   2.715  11.998  2.4338 -1.6009 -1.2573
  270MOL0     H36444   0.510   2.915  11.858 -1.8197 -3.1684  0.1729
  270MOL0     H36445   0.587   2.991  11.992 -2.1840  2.1657 -2.1907
  270MOL0     H36446   0.386   2.877  12.088 -0.7790  0.5269 -1.8146
  270MOL0     H36447   0.533   2.776  12.119  0.9473 -1.1407 -0.7836
  270MOL0     H36448   0.318   2.539  11.848 -0.9716  1.2703 -1.1855
  270MOL0     H36449   0.767   2.669  11.495  1.1254  1.5826 -3.0815
  270MOL0     H36450   0.596   2.604  11.326 -0.6854 -0.6004 -0.1227
  271MOL0     O36451  10.510   6.357   3.394 -0.0360 -0.3374  0.6268
  271MOL0     C36452  10.542   6.426   3.292 -0.0309  0.0893 -0.1129
  271MOL0     O36453  10.472   6.542   3.253  0.0288 -0.2377  0.1396
  271MOL0     C36454  10.339   6.560   3.296 -1.3706  0.8846  0.3732
  271MOL0     C36455  10.313   6.614   3.420  0.1687  0.5909  0.1454
  271MOL0     C36456  10.182   6.657   3.452 -0.2528  1.0309 -0.8146
  271MOL0     C36457  10.085   6.641   3.352 -0.8781 -0.5781 -0.3970
  271MOL0     O36458   9.971   6.688   3.402  0.1528 -0.0289  0.2175
  271MOL0     C36459   9.843   6.660   3.338 -0.4396  0.6347 -0.4746
  271MOL0     C36460   9.800   6.762   3.234 -0.0917 -0.4310 -0.3884
  271MOL0     C36461   9.661   6.770   3.184  0.7493  0.7309  0.4495
  271MOL0     C36462   9.561   6.819   3.287  0.2794  0.7264  0.1409
  271MOL0     C36463   9.421   6.805   3.222  0.2315 -0.1514 -0.7501
  271MOL0     C36464   9.376   6.907   3.116  0.4349  0.0259 -1.0879
  271MOL0     C36465   9.374   7.048   3.172 -0.0955 -0.7318  0.7525
  271MOL0     C36466   9.324   7.087   3.303  0.8814  0.3609  0.0228
  271MOL0     N36467   9.172   7.095   3.306 -0.5679 -0.0299 -0.4378
  271MOL0     C36468   9.094   6.976   3.322 -0.4877 -0.5127 -0.3199
  271MOL0     C36469   8.967   7.022   3.329 -0.7781  1.6213 -0.5806
  271MOL0     C36470   8.860   6.922   3.360 -1.0386 -0.5541 -0.3074
  271MOL0     C36471   8.721   6.985   3.332  0.2586 -0.1828  0.2836
  271MOL0     C36472   8.600   6.879   3.338  1.6320 -0.2565  0.0271
  271MOL0     C36473   8.463   6.950   3.302 -0.2619  0.0614  0.1967
  271MOL0     O36474   8.360   6.852   3.313 -0.7622  0.3834 -0.4882
  271MOL0     C36475   8.259   6.858   3.213  0.1364  0.3274 -0.2998
  271MOL0     C36476   8.196   6.972   3.171 -0.0230 -0.1903  0.6530
  271MOL0     C36477   8.087   6.965   3.077  0.5144 -0.5332  0.8371
  271MOL0     C36478   8.037   7.099   3.025  0.4786  0.4990  0.3802
  271MOL0     C36479   8.052   6.835   3.019  0.6233 -0.2861 -0.1912
  271MOL0     C36480   7.940   6.815   2.918 -1.1146 -0.2869 -0.2472
  271MOL0     O36481   7.912   6.692   2.876  0.0475 -0.3037 -0.7990
  271MOL0     C36482   7.839   6.685   2.761  0.3216  0.5476 -0.2309
  271MOL0     C36483   7.710   6.629   2.769  0.8882 -0.1750 -0.6831
  271MOL0     C36484   7.641   6.625   2.650  0.2832  0.1140  0.0405
  271MOL0     C36485   7.690   6.676   2.530 -0.6936  0.3104  0.6679
  271MOL0     O36486   7.611   6.631   2.425  1.0358  0.4754  0.1295
  271MOL0     C36487   7.638   6.667   2.290 -0.7641  0.4177  0.1998
  271MOL0     C36488   7.539   6.605   2.195  0.3316 -0.0281 -1.2040
  271MOL0     C36489   7.394   6.618   2.249 -0.2213 -0.1001 -0.5645
  271MOL0     C36490   7.299   6.562   2.146 -0.4091 -0.2852  0.6306
  271MOL0     C36491   7.150   6.582   2.191 -0.8600  0.5920  0.1159
  271MOL0     C36492   7.054   6.526   2.087 -0.1094  0.2177  0.0883
  271MOL0     C36493   6.906   6.558   2.119 -0.6585 -0.9014  0.2346
  271MOL0     C36494   6.858   6.682   2.049  0.0554 -0.5370 -0.0905
  271MOL0    Cl36495   6.688   6.722   2.106 -0.0569 -0.0111  0.2346
  271MOL0     C36496   7.815   6.730   2.524 -0.0187  0.2874 -0.5430
  271MOL0     C36497   7.887   6.741   2.641 -0.2594 -0.0019 -1.0065
  271MOL0     O36498   7.875   6.921   2.890  0.2336  0.5399 -0.3842
  271MOL0     C36499   8.112   6.719   3.063  0.5668  0.0459  0.1650
  271MOL0     C36500   8.211   6.731   3.161  0.3710  1.1055  0.4007
  271MOL0     N36501   8.963   7.160   3.325 -0.5057  0.3083  0.3673
  271MOL0     N36502   9.089   7.202   3.302 -0.5797  0.7362 -0.4004
  271MOL0     C36503  10.116   6.583   3.225  0.4894  0.0509  0.3565
  271MOL0     C36504  10.243   6.546   3.193 -0.1296  0.1626  0.1116
  271MOL0     C36505  10.671   6.407   3.233 -0.6312  0.2351  0.7071
  271MOL0     C36506  10.719   6.503   3.132  0.2720  0.1000 -1.3304
  271MOL0     C36507  10.843   6.486   3.075 -0.1359 -0.5248 -0.6114
  271MOL0     C36508  10.921   6.380   3.113 -0.6441 -0.0462 -0.0171
  271MOL0     O36509  11.046   6.349   3.068 -0.8715 -0.6290  0.6909
  271MOL0     C36510  11.126   6.438   2.994  0.4353  0.6985 -0.2320
  271MOL0     C36511  11.116   6.412   2.845 -0.0080  0.1509  0.5032
  271MOL0     C36512  11.223   6.490   2.765  0.1284  0.8482  0.0623
  271MOL0     C36513  11.221   6.473   2.617  0.0049  0.0381 -0.4732
  271MOL0     C36514  11.330   6.547   2.556 -0.6522  0.5794  0.0511
  271MOL0     C36515  11.430   6.600   2.527 -0.2955  0.4883 -1.1017
  271MOL0     C36516  10.886   6.300   3.214  0.3554 -0.6494  0.2824
  271MOL0     C36517  10.767   6.315   3.282  0.6492 -0.2726  0.5116
  271MOL0     H36518  10.399   6.613   3.486  0.9541 -3.1302 -0.6988
  271MOL0     H36519  10.147   6.696   3.547 -1.5626  0.9900 -1.2599
  271MOL0     H36520   9.824   6.556   3.311 -1.4433 -0.5121  3.9333
  271MOL0     H36521   9.774   6.666   3.422  0.9262  0.1018  0.7275
  271MOL0     H36522   9.840   6.860   3.259  1.0951 -0.7965 -0.7758
  271MOL0     H36523   9.854   6.744   3.140 -2.3594  0.7701 -1.9918
  271MOL0     H36524   9.655   6.838   3.098  1.7557  0.7197  0.3664
  271MOL0     H36525   9.630   6.669   3.154 -0.8857  1.5245 -0.6860
  271MOL0     H36526   9.568   6.757   3.377  1.8119 -2.0019 -1.6995
  271MOL0     H36527   9.590   6.918   3.322  0.9744  0.3628  0.6127
  271MOL0     H36528   9.406   6.709   3.172  0.4213 -1.1549  1.0422
  271MOL0     H36529   9.347   6.797   3.302  0.1474 -0.0178 -0.8149
  271MOL0     H36530   9.435   6.901   3.025  2.7178  1.8950  0.1489
  271MOL0     H36531   9.272   6.892   3.085  0.1214  1.6300 -0.9506
  271MOL0     H36532   9.480   7.075   3.168  0.2759 -2.2349 -0.8925
  271MOL0     H36533   9.331   7.119   3.101 -0.4981 -0.7902  0.9366
  271MOL0     H36534   9.364   7.186   3.326 -2.8782  1.9482  0.5114
  271MOL0     H36535   9.355   7.007   3.371 -3.3328 -2.0759 -0.5301
  271MOL0     H36536   9.136   6.876   3.315 -2.6850 -1.4493 -0.8134
  271MOL0     H36537   8.891   6.835   3.301  4.0790  0.3571  0.5657
  271MOL0     H36538   8.858   6.889   3.465 -1.8971  1.4359  0.3442
  271MOL0     H36539   8.712   7.033   3.235  0.2971  2.2592  1.4152
  271MOL0     H36540   8.698   7.068   3.400 -1.5606 -1.6080  1.5306
  271MOL0     H36541   8.586   6.836   3.438  1.3124 -2.0325 -0.7549
  271MOL0     H36542   8.607   6.790   3.275 -0.7133 -1.7113  1.6695
  271MOL0     H36543   8.460   6.997   3.203  0.7911  2.9512  1.4327
  271MOL0     H36544   8.447   7.028   3.377 -2.0446 -0.3303  0.2540
  271MOL0     H36545   8.226   7.070   3.208 -1.2925  1.6509 -2.7046
  271MOL0     H36546   8.072   7.104   2.921 -1.4801 -0.9286 -0.4266
  271MOL0     H36547   7.928   7.096   3.023  0.4386  1.5557  0.4022
  271MOL0     H36548   8.073   7.181   3.087 -0.3476  0.4391  0.9530
  271MOL0     H36549   7.653   6.616   2.860  0.6907 -0.1086 -0.7981
  271MOL0     H36550   7.538   6.592   2.660  0.6772 -0.7792  1.4726
  271MOL0     H36551   7.639   6.776   2.289 -2.2054  0.4738  1.0324
  271MOL0     H36552   7.735   6.619   2.271  0.3574  3.2289 -1.7348
  271MOL0     H36553   7.549   6.669   2.107 -1.0742  1.1862 -0.5193
  271MOL0     H36554   7.571   6.503   2.169  3.5918  0.7148 -0.4459
  271MOL0     H36555   7.371   6.723   2.269 -0.2921 -0.5998  2.5865
  271MOL0     H36556   7.383   6.567   2.345  1.3054  4.1409  2.1758
  271MOL0     H36557   7.316   6.609   2.049  0.5364 -1.4944  0.1872
  271MOL0     H36558   7.321   6.456   2.135 -0.3451 -0.1520 -0.6523
  271MOL0     H36559   7.149   6.690   2.203  0.2624  0.6258 -0.0228
  271MOL0     H36560   7.134   6.530   2.286  1.7273  0.2930  0.4717
  271MOL0     H36561   7.081   6.564   1.988 -0.6296 -0.8794 -0.4927
  271MOL0     H36562   7.069   6.418   2.085  0.1563  0.2633 -1.2748
  271MOL0     H36563   6.886   6.582   2.224 -1.8170  0.7027 -0.3074
  271MOL0     H36564   6.855   6.465   2.094  1.3297 -1.8496 -0.4762
  271MOL0     H36565   6.848   6.645   1.946 -3.4888 -0.1247 -0.0149
  271MOL0     H36566   6.932   6.762   2.061  1.3203 -1.7255  0.2688
  271MOL0     H36567   7.857   6.777   2.436  0.9560 -2.2486 -1.5257
  271MOL0     H36568   7.988   6.780   2.635 -1.2830  2.9484 -0.8483
  271MOL0     H36569   8.072   6.627   3.020 -1.8061  1.0033  0.1660
  271MOL0     H36570   8.269   6.644   3.190  0.0427  0.6535 -0.2844
  271MOL0     H36571  10.030   6.585   3.158 -0.0664  0.6816  1.0808
  271MOL0     H36572  10.268   6.505   3.096  1.1615  0.4563  0.3122
  271MOL0     H36573  10.666   6.592   3.100  2.3118  2.7511  1.9952
  271MOL0     H36574  10.874   6.563   3.005  1.7009  1.1855  1.8766
  271MOL0     H36575  11.109   6.543   3.022 -1.7123  0.9959 -2.3464
  271MOL0     H36576  11.232   6.422   3.018 -0.0034 -0.5170  1.0503
  271MOL0     H36577  11.016   6.444   2.814 -1.4284 -2.3738  2.0740
  271MOL0     H36578  11.120   6.304   2.824 -1.0214  0.3416 -0.8630
  271MOL0     H36579  11.324   6.471   2.803 -0.2640 -3.4375 -0.5619
  271MOL0     H36580  11.202   6.596   2.780 -0.9155  0.4748  1.4410
  271MOL0     H36581  11.121   6.498   2.580 -0.0586  2.3487  1.0376
  271MOL0     H36582  11.227   6.364   2.604 -2.9243 -0.6010  2.2974
  271MOL0     H36583  11.529   6.641   2.520  0.1224 -0.5503 -1.3931
  271MOL0     H36584  10.949   6.222   3.255  0.7943 -0.8462 -0.7526
  271MOL0     H36585  10.744   6.262   3.374 -1.5834  2.9227  2.0036
  272MOL0     O36586   9.846   4.737   2.193 -0.0143  0.0758  0.7066
  272MOL0     C36587   9.865   4.818   2.108  0.4305 -0.0194  0.8581
  272MOL0     O36588   9.762   4.881   2.038 -0.1166 -0.0184  0.8701
  272MOL0     C36589   9.638   4.846   2.072  0.6663 -0.4990  0.0821
  272MOL0     C36590   9.546   4.924   2.135  0.0579 -0.1408 -0.1711
  272MOL0     C36591   9.419   4.872   2.168  0.3820 -0.2360  0.8748
  272MOL0     C36592   9.385   4.739   2.141  0.3704  1.0301  0.6285
  272MOL0     O36593   9.272   4.673   2.158 -0.6339  0.0099 -0.2630
  272MOL0     C36594   9.158   4.731   2.212 -0.0673 -0.8276 -0.3176
  272MOL0     C36595   9.036   4.632   2.199  0.9796  0.2216  0.2723
  272MOL0     C36596   8.928   4.644   2.302 -0.2600 -0.2478  0.3666
  272MOL0     C36597   8.813   4.545   2.273  0.0719  0.0523  0.4185
  272MOL0     C36598   8.687   4.590   2.335 -0.1999 -1.2195  0.4427
  272MOL0     C36599   8.696   4.590   2.485 -0.4590 -0.6472  0.5263
  272MOL0     C36600   8.716   4.453   2.538 -0.0507 -0.4473  0.0321
  272MOL0     C36601   8.727   4.440   2.683  0.6436  0.6165 -0.0375
  272MOL0     N36602   8.744   4.311   2.749  0.4473  0.0684  0.1979
  272MOL0     C36603   8.752   4.184   2.698 -0.0909 -0.2677  0.1548
  272MOL0     C36604   8.775   4.109   2.802 -0.1412 -0.3802 -1.0738
  272MOL0     C36605   8.797   3.957   2.807  0.2429 -0.1856 -0.1600
  272MOL0     C36606   8.765   3.892   2.943 -0.5916 -0.1776 -0.3130
  272MOL0     C36607   8.756   3.739   2.939  0.6349  0.1682  0.2137
  272MOL0     C36608   8.888   3.675   2.984  0.0764  0.0022 -0.4306
  272MOL0     O36609   8.910   3.681   3.123 -0.3275 -0.7444  0.4952
  272MOL0     C36610   9.031   3.645   3.182  0.0125  0.3657 -0.0726
  272MOL0     C36611   9.050   3.671   3.320 -0.4055  0.1940 -0.1753
  272MOL0     C36612   9.168   3.639   3.391  0.8487  0.0739 -0.3487
  272MOL0     C36613   9.190   3.691   3.533  0.1521 -0.0319  0.0231
  272MOL0     C36614   9.271   3.572   3.322 -0.3136 -0.8240  0.1004
  272MOL0     C36615   9.407   3.547   3.387  1.2560  0.2433 -0.1638
  272MOL0     O36616   9.416   3.547   3.530  0.4301 -0.4214 -0.3122
  272MOL0     C36617   9.539   3.523   3.590 -0.5047 -0.1469  0.0836
  272MOL0     C36618   9.574   3.603   3.698 -0.3854 -0.2940 -1.4042
  272MOL0     C36619   9.676   3.560   3.783 -0.7127 -0.7055 -0.0935
  272MOL0     C36620   9.738   3.437   3.769  0.7782  0.1088 -0.2294
  272MOL0     O36621   9.832   3.387   3.857 -0.0685 -0.2953  0.3166
  272MOL0     C36622   9.906   3.476   3.938 -0.0601  0.2937 -0.6980
  272MOL0     C36623  10.020   3.406   4.007 -0.0010  0.1680 -1.0530
  272MOL0     C36624  10.110   3.335   3.906  0.4748 -0.3003  0.0499
  272MOL0     C36625  10.235   3.274   3.955 -0.4040 -0.0400 -0.1626
  272MOL0     C36626  10.266   3.151   3.872 -0.5049  0.7260  0.8171
  272MOL0     C36627  10.372   3.062   3.926 -0.7009  0.1870 -0.4476
  272MOL0     C36628  10.332   3.019   4.072 -0.3600  0.4631  0.2367
  272MOL0     C36629  10.405   2.896   4.110 -0.4350 -0.0122  0.5844
  272MOL0    Cl36630  10.369   2.848   4.274 -0.0971 -0.2713  0.2822
  272MOL0     C36631   9.711   3.364   3.655  0.2112  0.3499  0.4586
  272MOL0     C36632   9.609   3.407   3.572 -0.0557  0.0460  0.1963
  272MOL0     O36633   9.502   3.533   3.304  0.5514 -0.3154  0.2805
  272MOL0     C36634   9.259   3.549   3.184  0.6586  0.3522 -0.3772
  272MOL0     C36635   9.143   3.588   3.116  0.3000  0.0456 -0.0334
  272MOL0     N36636   8.766   4.186   2.915  0.0446  0.1802  0.1830
  272MOL0     N36637   8.757   4.311   2.879 -0.4900  0.6645 -0.6500
  272MOL0     C36638   9.479   4.663   2.076  0.2620  0.1380 -0.1796
  272MOL0     C36639   9.597   4.718   2.041  0.2249  0.1682 -0.2757
  272MOL0     C36640  10.001   4.871   2.078 -0.0925  0.3573  0.7770
  272MOL0     C36641  10.114   4.784   2.095 -0.7911  0.4204  0.1067
  272MOL0     C36642  10.243   4.829   2.078 -0.4469 -0.0043  0.6850
  272MOL0     C36643  10.266   4.952   2.022  0.3548 -0.9582  0.5855
  272MOL0     O36644  10.384   5.004   1.991  0.2033 -0.7623 -0.0525
  272MOL0     C36645  10.499   4.931   2.042 -0.3413 -0.5061 -1.1020
  272MOL0     C36646  10.561   4.846   1.927 -0.4459 -0.1504  0.0450
  272MOL0     C36647  10.617   4.930   1.811 -0.8988  0.4142 -0.5229
  272MOL0     C36648  10.670   4.848   1.697  0.1400  0.2709  1.1531
  272MOL0     C36649  10.770   4.751   1.739 -0.2225  1.0737 -0.7468
  272MOL0     C36650  10.855   4.679   1.781  0.3437  0.3872  0.5553
  272MOL0     C36651  10.160   5.039   1.986  0.0411  0.1788 -0.0929
  272MOL0     C36652  10.026   5.004   2.025  0.3581 -0.0732  0.8056
  272MOL0     H36653   9.578   5.020   2.174 -1.2302 -0.7951  2.7880
  272MOL0     H36654   9.355   4.940   2.222 -0.1236  0.0920 -0.1210
  272MOL0     H36655   9.176   4.740   2.320 -0.3901 -1.9425 -0.1600
  272MOL0     H36656   9.133   4.830   2.175  2.4285 -0.6372 -1.6613
  272MOL0     H36657   8.994   4.642   2.098  1.2787 -1.6421 -0.0759
  272MOL0     H36658   9.071   4.530   2.214 -3.6808 -1.4848  1.4728
  272MOL0     H36659   8.983   4.644   2.397  2.5191 -0.7496 -1.1347
  272MOL0     H36660   8.885   4.744   2.289  0.5513 -0.0994 -1.4237
  272MOL0     H36661   8.798   4.522   2.167 -2.0523 -0.6293  0.8256
  272MOL0     H36662   8.835   4.445   2.311 -1.0004 -1.0232 -1.6522
  272MOL0     H36663   8.646   4.686   2.301 -1.2566 -1.6986  0.3337
  272MOL0     H36664   8.612   4.517   2.304 -1.5160 -0.0469  0.7682
  272MOL0     H36665   8.775   4.656   2.522 -0.4579  0.4042 -1.2207
  272MOL0     H36666   8.604   4.640   2.519 -0.5395 -0.9681  0.7752
  272MOL0     H36667   8.642   4.378   2.508 -1.5311  1.3446 -1.0248
  272MOL0     H36668   8.808   4.406   2.502 -1.1357 -3.9964  1.3954
  272MOL0     H36669   8.644   4.493   2.731  0.5908 -0.7708  1.5326
  272MOL0     H36670   8.806   4.504   2.725 -1.3354  3.5736 -0.4839
  272MOL0     H36671   8.724   4.141   2.603 -1.7587 -1.1248  0.9752
  272MOL0     H36672   8.736   3.916   2.726  1.7926 -1.8320 -0.5533
  272MOL0     H36673   8.901   3.931   2.785  0.7977  0.4334  1.5320
  272MOL0     H36674   8.670   3.941   2.963 -0.2952  0.5411 -0.6376
  272MOL0     H36675   8.835   3.926   3.020  0.5183  0.0448 -1.3765
  272MOL0     H36676   8.727   3.702   2.840 -4.5624 -0.2790  1.6335
  272MOL0     H36677   8.673   3.719   3.007 -0.2274  0.5800 -0.6839
  272MOL0     H36678   8.970   3.724   2.929  2.7299 -3.6729 -0.1378
  272MOL0     H36679   8.892   3.569   2.959  0.9305  0.0592 -0.5761
  272MOL0     H36680   8.959   3.717   3.359 -1.4305 -0.7370 -1.3887
  272MOL0     H36681   9.099   3.731   3.578  1.8629  0.5143  3.2513
  272MOL0     H36682   9.205   3.605   3.598 -0.7286  0.4024  0.8286
  272MOL0     H36683   9.274   3.760   3.545  0.6342 -0.8202  1.3430
  272MOL0     H36684   9.522   3.698   3.703 -0.2380 -0.2952  1.4425
  272MOL0     H36685   9.700   3.632   3.861 -2.0248  0.4705 -0.7386
  272MOL0     H36686   9.946   3.560   3.882 -1.2910  2.1680  1.0627
  272MOL0     H36687   9.841   3.504   4.022 -0.8908 -0.9872 -0.8867
  272MOL0     H36688  10.084   3.482   4.052  2.5688 -1.2058 -2.1889
  272MOL0     H36689   9.993   3.338   4.088 -0.3523  0.9518 -0.5021
  272MOL0     H36690  10.148   3.410   3.836  3.0417 -0.1865  1.4447
  272MOL0     H36691  10.057   3.255   3.854  1.3159 -1.5069  0.9856
  272MOL0     H36692  10.322   3.340   3.944  1.6496 -2.0368  2.6531
  272MOL0     H36693  10.212   3.260   4.061  0.4947  1.3963  0.2507
  272MOL0     H36694  10.288   3.186   3.770  1.8968  0.7986  1.3049
  272MOL0     H36695  10.173   3.093   3.866 -0.1317  0.0187  1.7609
  272MOL0     H36696  10.388   2.970   3.868  0.1264  1.2050 -1.9038
  272MOL0     H36697  10.465   3.118   3.939 -1.1201  0.7118  0.3252
  272MOL0     H36698  10.223   3.009   4.075 -0.4430  0.6669 -1.3186
  272MOL0     H36699  10.357   3.101   4.139 -0.1066  0.7360 -0.1861
  272MOL0     H36700  10.513   2.909   4.101 -0.7180  1.6754 -1.1493
  272MOL0     H36701  10.380   2.818   4.038 -2.2471  0.8139  0.2476
  272MOL0     H36702   9.761   3.268   3.649 -1.6805 -0.6558 -0.2300
  272MOL0     H36703   9.581   3.327   3.504 -2.3429  0.3070  0.7575
  272MOL0     H36704   9.342   3.518   3.121 -0.0857 -1.6718 -0.4653
  272MOL0     H36705   9.137   3.570   3.009  2.7200  3.5369 -0.9375
  272MOL0     H36706   9.462   4.558   2.054  1.4559  0.1515 -1.3217
  272MOL0     H36707   9.667   4.651   1.992 -0.3999  0.6939 -1.9416
  272MOL0     H36708  10.089   4.680   2.114 -0.7859  0.8666  2.9957
  272MOL0     H36709  10.325   4.762   2.101 -0.1391 -0.9321 -2.6006
  272MOL0     H36710  10.578   5.005   2.057 -0.7500 -0.3917  0.6387
  272MOL0     H36711  10.480   4.893   2.142 -0.9878 -0.4585 -1.2022
  272MOL0     H36712  10.490   4.770   1.891  0.4581 -1.3340  0.6911
  272MOL0     H36713  10.640   4.784   1.970  1.9417  0.9892 -2.4485
  272MOL0     H36714  10.701   4.984   1.855 -0.5174 -1.7074  1.5932
  272MOL0     H36715  10.541   5.004   1.785 -2.5136  0.0283  2.5215
  272MOL0     H36716  10.704   4.913   1.617 -2.0176  1.5727  1.2046
  272MOL0     H36717  10.582   4.799   1.655 -0.4820 -0.9278  3.6657
  272MOL0     H36718  10.938   4.630   1.828  0.0114 -0.4711  0.2631
  272MOL0     H36719  10.184   5.129   1.931 -1.5299  0.0033 -1.1276
  272MOL0     H36720   9.941   5.067   1.998  1.5224  0.7587 -1.0847
  273MOL0     O36721   9.912   8.596  10.948  0.0089 -0.1602 -0.6848
  273MOL0     C36722   9.865   8.542  10.847 -0.0223 -0.7533  0.1892
  273MOL0     O36723   9.743   8.571  10.794  0.4367 -0.2982  0.6954
  273MOL0     C36724   9.651   8.654  10.865  0.1847 -0.4625  0.9384
  273MOL0     C36725   9.686   8.794  10.880  0.3622 -0.0256  0.0134
  273MOL0     C36726   9.584   8.875  10.933  0.1567 -0.2963 -0.4211
  273MOL0     C36727   9.468   8.826  10.979  0.2247 -0.7358  0.3814
  273MOL0     O36728   9.401   8.919  11.057  0.0841 -0.3626  0.0277
  273MOL0     C36729   9.253   8.919  11.033 -0.5829  0.3881 -0.3856
  273MOL0     C36730   9.183   9.019  11.127  0.1599 -0.0129 -0.5409
  273MOL0     C36731   9.227   9.160  11.110 -0.2085 -0.3328  0.2994
  273MOL0     C36732   9.162   9.265  11.195  0.4507  0.8040 -0.0375
  273MOL0     C36733   9.018   9.296  11.168  0.0669  0.7034 -0.2943
  273MOL0     C36734   8.960   9.406  11.259 -1.2599  0.2504 -0.1285
  273MOL0     C36735   8.849   9.480  11.201 -0.8036 -0.7995  0.1720
  273MOL0     C36736   8.794   9.582  11.299  1.1618  0.0344  0.3121
  273MOL0     N36737   8.666   9.622  11.242 -0.5617  0.0049  0.0065
  273MOL0     C36738   8.563   9.528  11.231  0.2288 -0.1867  1.2817
  273MOL0     C36739   8.472   9.593  11.162  0.5125 -0.3396  0.2632
  273MOL0     C36740   8.337   9.532  11.127  0.4571  0.2943 -0.2751
  273MOL0     C36741   8.263   9.630  11.036  0.1479  0.4662 -0.1781
  273MOL0     C36742   8.315   9.617  10.891 -0.2238 -0.4883 -0.4986
  273MOL0     C36743   8.195   9.567  10.801  0.8564  0.2317 -0.1130
  273MOL0     O36744   8.226   9.600  10.666 -0.1266  0.2648  0.2537
  273MOL0     C36745   8.297   9.522  10.592 -0.0516 -0.5135 -0.4867
  273MOL0     C36746   8.383   9.412  10.627 -0.4415  0.0541 -0.5142
  273MOL0     C36747   8.448   9.337  10.532  0.2940 -0.2573  0.0062
  273MOL0     C36748   8.532   9.227  10.583 -0.9611  0.0807 -0.5307
  273MOL0     C36749   8.444   9.382  10.398  0.7130  0.0559 -0.2480
  273MOL0     C36750   8.504   9.303  10.288  0.1031 -0.6888 -0.0867
  273MOL0     O36751   8.524   9.379  10.172  0.0678  0.7375  0.4239
  273MOL0     C36752   8.589   9.318  10.073 -0.0922 -0.0920 -0.3173
  273MOL0     C36753   8.550   9.354   9.947 -0.4243  0.2829 -0.4756
  273MOL0     C36754   8.611   9.304   9.832  0.0568 -0.2403 -1.0582
  273MOL0     C36755   8.704   9.202   9.846 -1.0267 -0.1978  0.0515
  273MOL0     O36756   8.747   9.143   9.726  0.5292 -0.0386  0.0002
  273MOL0     C36757   8.857   9.044   9.729  0.8226 -0.4198  0.5566
  273MOL0     C36758   8.902   9.023   9.582  0.5044  0.1357 -0.4016
  273MOL0     C36759   9.004   8.912   9.550  0.3257  0.2375  0.2504
  273MOL0     C36760   9.048   8.904   9.408 -0.1122  0.3736  0.0975
  273MOL0     C36761   9.164   8.808   9.404  0.0530 -0.0480 -0.1133
  273MOL0     C36762   9.292   8.870   9.451 -0.6176  0.3694 -0.4902
  273MOL0     C36763   9.399   8.763   9.414 -0.1570  0.8312 -0.1407
  273MOL0     C36764   9.534   8.815   9.455  0.4518  1.2790  0.5510
  273MOL0    Cl36765   9.677   8.725   9.386  0.1588  0.4503 -0.0381
  273MOL0     C36766   8.760   9.175   9.973  0.8280 -0.2143  0.0986
  273MOL0     C36767   8.695   9.230  10.083 -0.5573 -0.6007 -0.7287
  273MOL0     O36768   8.518   9.184  10.298  0.3037  0.2933  0.8470
  273MOL0     C36769   8.366   9.494  10.367 -0.3606  0.3405 -0.2373
  273MOL0     C36770   8.299   9.564  10.462 -0.2269 -0.2245  0.2034
  273MOL0     N36771   8.516   9.721  11.144  0.3603 -0.1876  0.0345
  273MOL0     N36772   8.642   9.740  11.179  1.0017  0.5375  0.7517
  273MOL0     C36773   9.439   8.691  10.963  0.4116  0.4695  0.2979
  273MOL0     C36774   9.527   8.601  10.908 -0.6135 -0.3690  0.9141
  273MOL0     C36775   9.939   8.444  10.770 -0.2410  0.1201 -0.1154
  273MOL0     C36776   9.888   8.385  10.643  0.5598  0.3104 -0.1200
  273MOL0     C36777   9.970   8.306  10.569 -0.4379  0.3535 -0.1285
  273MOL0     C36778  10.107   8.283  10.607 -0.4339 -0.3990 -0.0988
  273MOL0     O36779  10.201   8.228  10.518  0.4346  0.5195 -0.0508
  273MOL0     C36780  10.342   8.248  10.520 -0.7852 -0.1610 -1.0349
  273MOL0     C36781  10.413   8.192  10.395  0.0087 -1.0961 -0.2171
  273MOL0     C36782  10.355   8.048  10.367  0.4524 -0.0176 -0.8769
  273MOL0     C36783  10.428   7.987  10.250  0.8574  0.0982 -1.0843
  273MOL0     C36784  10.385   8.043  10.121 -0.4484  0.4889  0.1989
  273MOL0     C36785  10.343   8.103  10.029  0.8974  0.7041  0.6131
  273MOL0     C36786  10.152   8.324  10.737 -0.4323 -1.0302 -0.2928
  273MOL0     C36787  10.070   8.414  10.810 -0.2032  0.0263  0.2470
  273MOL0     H36788   9.778   8.836  10.841  0.8605 -1.5228 -0.4659
  273MOL0     H36789   9.600   8.982  10.931 -0.1787 -0.2412 -2.9159
  273MOL0     H36790   9.244   8.962  10.933  1.9515 -2.0253 -1.7555
  273MOL0     H36791   9.213   8.817  11.031  1.3924 -0.4626  0.5566
  273MOL0     H36792   9.076   9.019  11.103  0.3377 -0.3646 -1.3685
  273MOL0     H36793   9.184   8.982  11.230 -1.5433 -0.9823 -0.8195
  273MOL0     H36794   9.333   9.159  11.136  0.2460  0.7347 -1.3832
  273MOL0     H36795   9.240   9.185  11.005  2.7588  2.2918  1.1524
  273MOL0     H36796   9.160   9.223  11.296 -2.9783 -0.0115 -0.2987
  273MOL0     H36797   9.220   9.358  11.198  1.9832 -0.1466  0.5749
  273MOL0     H36798   9.020   9.333  11.065  2.2030 -1.1022 -0.9793
  273MOL0     H36799   8.954   9.208  11.176 -1.0149  1.5502  0.5740
  273MOL0     H36800   8.936   9.362  11.356  0.4217 -0.1019  0.1552
  273MOL0     H36801   9.034   9.486  11.270 -0.1668 -0.4624 -1.9226
  273MOL0     H36802   8.886   9.537  11.115  0.2136  2.6429  2.6769
  273MOL0     H36803   8.781   9.401  11.169  0.1759 -1.8191  0.5388
  273MOL0     H36804   8.857   9.671  11.296  1.3943 -0.1329 -2.6055
  273MOL0     H36805   8.766   9.556  11.402 -1.5022  1.5083  0.0622
  273MOL0     H36806   8.549   9.423  11.255 -0.0999 -0.4297  0.0789
  273MOL0     H36807   8.351   9.432  11.084 -1.8031 -1.1879  2.1235
  273MOL0     H36808   8.284   9.519  11.222  2.2232  1.2813  0.9049
  273MOL0     H36809   8.277   9.731  11.074 -1.1510  0.7045 -0.2964
  273MOL0     H36810   8.155   9.614  11.045 -0.1932  3.1693  1.6827
  273MOL0     H36811   8.395   9.543  10.883 -1.2464 -1.5726 -1.1169
  273MOL0     H36812   8.357   9.713  10.861 -0.3217 -1.0559 -2.5808
  273MOL0     H36813   8.098   9.613  10.822 -0.0853 -1.1234 -1.3134
  273MOL0     H36814   8.184   9.459  10.808 -0.2090  0.3729  0.6704
  273MOL0     H36815   8.404   9.379  10.729 -1.8989  0.3658 -0.0876
  273MOL0     H36816   8.632   9.251  10.546 -1.1475  2.3912  0.2985
  273MOL0     H36817   8.537   9.218  10.692 -1.7858  1.4343 -0.3553
  273MOL0     H36818   8.487   9.136  10.540 -0.9335 -0.7940  1.2185
  273MOL0     H36819   8.473   9.431   9.943  0.0373  1.1271  3.2335
  273MOL0     H36820   8.560   9.341   9.744 -0.7476  0.8237 -0.1728
  273MOL0     H36821   8.950   9.074   9.779  1.1056  0.9841 -0.7487
  273MOL0     H36822   8.819   8.951   9.773  0.2364  0.6570  2.4505
  273MOL0     H36823   8.816   9.010   9.517  0.1607  1.1497 -0.1737
  273MOL0     H36824   8.961   9.113   9.558  0.5667  0.1726 -0.1179
  273MOL0     H36825   8.965   8.819   9.591  3.2378 -0.5563  1.4396
  273MOL0     H36826   9.084   8.928   9.622 -0.6061  0.2587  1.3161
  273MOL0     H36827   8.968   8.870   9.342 -0.0982  1.3959 -0.4735
  273MOL0     H36828   9.090   9.002   9.381  0.0394  0.7386  1.5488
  273MOL0     H36829   9.167   8.780   9.299 -1.3335  1.4213 -0.5825
  273MOL0     H36830   9.146   8.717   9.461 -2.7851 -0.5363 -1.6217
  273MOL0     H36831   9.309   8.961   9.393  0.8388  1.2539  1.2155
  273MOL0     H36832   9.297   8.887   9.559 -0.2392 -0.6505 -0.3383
  273MOL0     H36833   9.393   8.734   9.309  1.1683 -2.3027  0.5475
  273MOL0     H36834   9.379   8.669   9.465 -0.1952  0.6390 -0.5091
  273MOL0     H36835   9.550   8.811   9.564  1.1722  0.9875  0.4425
  273MOL0     H36836   9.551   8.917   9.419  2.0184  0.5998 -0.7477
  273MOL0     H36837   8.844   9.107   9.984 -0.1950 -1.3204  1.3716
  273MOL0     H36838   8.720   9.214  10.188 -0.2390  0.6693 -0.5882
  273MOL0     H36839   8.354   9.528  10.264  2.4187  1.7952 -0.1800
  273MOL0     H36840   8.255   9.657  10.427  0.7576 -0.6373 -2.4065
  273MOL0     H36841   9.348   8.656  11.011 -0.1392 -1.1144 -1.7338
  273MOL0     H36842   9.515   8.495  10.886  0.6518  0.0351 -2.2663
  273MOL0     H36843   9.790   8.418  10.609  0.8062 -1.6591 -3.1146
  273MOL0     H36844   9.929   8.265  10.477 -1.0784  1.2263 -0.2401
  273MOL0     H36845  10.363   8.355  10.530 -2.3226  0.0110  1.0937
  273MOL0     H36846  10.378   8.199  10.611  0.3345 -1.1844 -1.9976
  273MOL0     H36847  10.521   8.198  10.406  0.5264 -1.9798 -3.6219
  273MOL0     H36848  10.394   8.253  10.306 -0.8588 -0.1009  0.6108
  273MOL0     H36849  10.250   8.068  10.348  1.3026  2.0412 -4.0592
  273MOL0     H36850  10.371   7.984  10.456 -1.1757  1.7547  0.7717
  273MOL0     H36851  10.424   7.878  10.249  2.0313  0.0358 -0.7502
  273MOL0     H36852  10.535   8.011  10.261  0.8493 -0.3608  0.1110
  273MOL0     H36853  10.300   8.142   9.940  3.5033  2.0734 -0.1576
  273MOL0     H36854  10.248   8.317  10.786 -0.2292  2.6820  0.1016
  273MOL0     H36855  10.098   8.465  10.901 -0.4890  2.9753 -1.1913
  274MOL0     O36856   2.975   7.666   7.496  0.2709  0.6690 -0.3855
  274MOL0     C36857   2.995   7.566   7.431 -0.0858  0.0052  0.4214
  274MOL0     O36858   2.900   7.510   7.347  0.3590  0.6009  0.4946
  274MOL0     C36859   2.781   7.576   7.344  0.6628 -0.1258 -0.0483
  274MOL0     C36860   2.763   7.677   7.248 -0.1286  0.0162  0.4909
  274MOL0     C36861   2.637   7.739   7.236  0.1215 -0.0788  0.2798
  274MOL0     C36862   2.525   7.701   7.309  0.3455  0.0972  0.3377
  274MOL0     O36863   2.412   7.775   7.300 -0.4539 -0.6638  0.0226
  274MOL0     C36864   2.289   7.704   7.319  0.1496 -0.3049  0.1729
  274MOL0     C36865   2.162   7.777   7.274  0.3561  0.2007 -0.8414
  274MOL0     C36866   2.160   7.767   7.116 -0.4294  0.4350  0.4504
  274MOL0     C36867   2.042   7.840   7.046 -0.0024  0.6848 -0.1137
  274MOL0     C36868   1.917   7.855   7.136 -0.6686 -1.4984 -0.6660
  274MOL0     C36869   1.801   7.937   7.065  1.0504 -0.1924 -0.6105
  274MOL0     C36870   1.674   7.913   7.138  0.4700 -0.1999  0.1160
  274MOL0     C36871   1.570   7.997   7.060  0.6351 -0.3026 -0.5809
  274MOL0     N36872   1.435   7.995   7.108  0.6379  1.0000  0.4902
  274MOL0     C36873   1.383   8.049   7.222 -0.6680 -0.1640  0.1344
  274MOL0     C36874   1.252   8.022   7.222 -0.0949  0.1861  0.4803
  274MOL0     C36875   1.153   8.057   7.323 -0.3194 -0.1909 -0.2702
  274MOL0     C36876   1.124   7.918   7.391 -0.5563 -0.8039  0.6446
  274MOL0     C36877   1.037   7.941   7.518 -0.1697  0.2424  1.2761
  274MOL0     C36878   0.902   8.011   7.493  0.5415 -0.5735 -0.6285
  274MOL0     O36879   0.816   7.920   7.419  0.1716  1.3636  0.5553
  274MOL0     C36880   0.674   7.928   7.445  0.1336  1.0836  0.4910
  274MOL0     C36881   0.605   7.809   7.431 -0.7740 -0.9956 -0.1672
  274MOL0     C36882   0.462   7.794   7.452  0.9535  0.5087  0.6752
  274MOL0     C36883   0.399   7.657   7.436  0.6266 -0.1207  0.3894
  274MOL0     C36884   0.393   7.913   7.483 -0.2033 -0.1977  0.4082
  274MOL0     C36885   0.248   7.922   7.516  0.1612 -1.1885  0.6414
  274MOL0     O36886   0.209   8.049   7.555  0.1166  0.6309  0.3047
  274MOL0     C36887   0.072   8.061   7.601  0.2090  0.0627  0.4602
  274MOL0     C36888  -0.034   8.043   7.509  0.0839  0.4862 -0.0084
  274MOL0     C36889  -0.164   8.042   7.554 -0.5678  0.0758  0.3096
  274MOL0     C36890  -0.190   8.064   7.694 -0.3441  0.1163 -0.3281
  274MOL0     O36891  -0.314   8.069   7.750 -0.3693  0.0574  0.0187
  274MOL0     C36892  -0.425   8.026   7.666 -0.1410 -0.5170 -0.0682
  274MOL0     C36893  -0.557   8.002   7.740  1.2547  0.0549 -0.6860
  274MOL0     C36894  -0.680   8.044   7.655 -0.3501 -0.0196  0.6237
  274MOL0     C36895  -0.812   8.012   7.721 -0.4791  0.2173  0.4532
  274MOL0     C36896  -0.921   8.092   7.663 -0.2313  0.1569 -1.0564
  274MOL0     C36897  -0.945   8.068   7.509 -0.4851 -0.1869 -0.2526
  274MOL0     C36898  -1.081   8.138   7.469 -0.2837 -0.6822 -0.3094
  274MOL0     C36899  -1.109   8.106   7.326 -0.8197  0.1443 -0.5217
  274MOL0    Cl36900  -1.016   8.195   7.203  0.0101 -0.0764 -0.0472
  274MOL0     C36901  -0.086   8.093   7.784 -0.4622  0.3401  0.4634
  274MOL0     C36902   0.046   8.095   7.725 -0.2330 -0.4034  0.1289
  274MOL0     O36903   0.168   7.829   7.493 -1.0554  0.1241 -0.0743
  274MOL0     C36904   0.463   8.037   7.489 -0.1926  0.2240  0.3845
  274MOL0     C36905   0.604   8.046   7.465  0.3628  0.5431  0.4044
  274MOL0     N36906   1.216   7.959   7.100 -0.0107  0.2872  0.2082
  274MOL0     N36907   1.324   7.949   7.032  0.2662 -0.2752 -0.2828
  274MOL0     C36908   2.544   7.586   7.404  0.0838 -1.2141 -0.3284
  274MOL0     C36909   2.670   7.527   7.421 -0.1384 -0.0230  0.4510
  274MOL0     C36910   3.126   7.498   7.435  0.5489  0.7736  0.5803
  274MOL0     C36911   3.242   7.554   7.490  0.0093  0.1965  0.7865
  274MOL0     C36912   3.363   7.499   7.460 -0.6030 -0.4512 -0.2640
  274MOL0     C36913   3.378   7.387   7.377 -0.5934  0.6689 -0.4414
  274MOL0     O36914   3.502   7.330   7.363 -0.3580  0.1143 -0.3415
  274MOL0     C36915   3.538   7.273   7.233 -0.6749 -0.1003 -0.0707
  274MOL0     C36916   3.574   7.381   7.136  0.9380  0.7126  0.4481
  274MOL0     C36917   3.725   7.407   7.122  0.4729  1.1461 -0.1436
  274MOL0     C36918   3.782   7.388   6.976  0.0396  0.1197 -0.9801
  274MOL0     C36919   3.784   7.238   6.954 -0.4555 -0.3257 -0.1357
  274MOL0     C36920   3.797   7.122   6.912  0.9226  0.2979 -0.3715
  274MOL0     C36921   3.266   7.336   7.313 -0.1100  0.0375 -0.1870
  274MOL0     C36922   3.142   7.388   7.350 -0.0904 -0.3617  0.1327
  274MOL0     H36923   2.851   7.722   7.203  1.2946 -0.3017  2.7664
  274MOL0     H36924   2.632   7.829   7.175  0.9019  1.2762  2.1272
  274MOL0     H36925   2.302   7.614   7.258  1.0150  0.8218 -1.3687
  274MOL0     H36926   2.278   7.690   7.427  1.7871 -1.5177  0.2266
  274MOL0     H36927   2.079   7.729   7.327 -0.9067 -0.1301 -2.9631
  274MOL0     H36928   2.162   7.879   7.311  2.3841  0.7532 -2.2099
  274MOL0     H36929   2.247   7.827   7.087 -1.0343  0.6382 -1.0276
  274MOL0     H36930   2.176   7.664   7.085 -2.5451 -0.3828  1.8670
  274MOL0     H36931   2.070   7.938   7.007  1.6808 -0.1619 -1.1482
  274MOL0     H36932   2.002   7.783   6.962 -0.1206 -1.7082  1.4590
  274MOL0     H36933   1.890   7.751   7.157 -1.9284 -1.6531 -2.7321
  274MOL0     H36934   1.940   7.906   7.229  0.0270 -0.0891 -1.5850
  274MOL0     H36935   1.837   8.041   7.064 -0.0043  0.1948 -2.0099
  274MOL0     H36936   1.790   7.902   6.962  0.0398  0.7851 -0.8586
  274MOL0     H36937   1.648   7.808   7.126 -0.7871  0.0203  0.7208
  274MOL0     H36938   1.676   7.947   7.242  1.5095 -1.6672  0.6095
  274MOL0     H36939   1.575   7.955   6.959  1.8017 -1.5127 -0.0636
  274MOL0     H36940   1.600   8.102   7.054 -0.4853  0.1784  1.2549
  274MOL0     H36941   1.440   8.103   7.298  0.9888 -3.3996  1.3698
  274MOL0     H36942   1.191   8.129   7.396 -2.2134 -0.6108  1.2171
  274MOL0     H36943   1.066   8.104   7.274 -0.0423  2.0886  1.2529
  274MOL0     H36944   1.220   7.870   7.411 -1.1978 -1.3490  2.6721
  274MOL0     H36945   1.073   7.847   7.326  1.3655 -1.0016 -0.7610
  274MOL0     H36946   1.097   8.000   7.587  0.7056  3.3789 -1.8810
  274MOL0     H36947   1.030   7.837   7.552  1.5952 -0.2510  0.2788
  274MOL0     H36948   0.909   8.099   7.428 -1.2207  0.5767  0.6560
  274MOL0     H36949   0.871   8.052   7.590 -1.0784  3.6122 -2.6925
  274MOL0     H36950   0.669   7.726   7.403  0.3067 -0.5068  0.8070
  274MOL0     H36951   0.472   7.576   7.424 -0.2565 -1.1789  1.8134
  274MOL0     H36952   0.347   7.620   7.525 -0.9259 -0.6057 -0.6684
  274MOL0     H36953   0.334   7.649   7.348 -2.2698 -1.1417  2.4794
  274MOL0     H36954  -0.014   8.023   7.404  1.5215  1.2574  0.0883
  274MOL0     H36955  -0.241   8.044   7.476 -1.8813 -1.4598  1.5063
  274MOL0     H36956  -0.434   8.113   7.601  0.2260 -0.4744 -0.0646
  274MOL0     H36957  -0.408   7.939   7.602  0.3205  0.7329 -1.7042
  274MOL0     H36958  -0.565   7.902   7.785  0.9851  1.7445  3.4567
  274MOL0     H36959  -0.564   8.072   7.824  2.7471  1.8927 -2.0218
  274MOL0     H36960  -0.673   7.998   7.556 -3.3893 -0.9117  0.7217
  274MOL0     H36961  -0.672   8.151   7.633 -0.3760  0.5949  3.2973
  274MOL0     H36962  -0.838   7.908   7.696 -1.0890  0.5539 -0.3566
  274MOL0     H36963  -0.800   8.032   7.828  0.6572 -0.4809  0.4675
  274MOL0     H36964  -0.898   8.199   7.673 -0.2870  0.0248  0.8064
  274MOL0     H36965  -1.017   8.080   7.715  0.8589 -1.0779  0.7918
  274MOL0     H36966  -0.857   8.096   7.451 -0.3108 -0.5146 -0.1444
  274MOL0     H36967  -0.949   7.961   7.490 -0.5013  0.1040 -2.0933
  274MOL0     H36968  -1.092   8.245   7.488 -2.3097 -0.9052  0.0014
  274MOL0     H36969  -1.163   8.081   7.514  0.1442 -3.4669 -2.7595
  274MOL0     H36970  -1.213   8.134   7.311  0.0290  2.8477 -2.0527
  274MOL0     H36971  -1.086   8.000   7.308  2.0682  0.7934 -1.2437
  274MOL0     H36972  -0.109   8.122   7.886 -1.9795  0.1151  0.1975
  274MOL0     H36973   0.115   8.113   7.807 -1.3496  1.6719  0.6936
  274MOL0     H36974   0.414   8.132   7.508  0.0723  0.0898  1.8864
  274MOL0     H36975   0.661   8.138   7.459  3.5471 -1.3062  0.5676
  274MOL0     H36976   2.459   7.559   7.466 -2.3849  0.3983 -2.8128
  274MOL0     H36977   2.696   7.443   7.484 -0.8570 -1.6559 -1.3151
  274MOL0     H36978   3.257   7.650   7.538 -1.2908  0.1344  1.3474
  274MOL0     H36979   3.454   7.540   7.504 -0.1546 -1.9110  0.2258
  274MOL0     H36980   3.627   7.210   7.239 -0.5374  0.1353  0.4257
  274MOL0     H36981   3.460   7.212   7.187  0.2235 -0.8132 -0.6786
  274MOL0     H36982   3.525   7.475   7.166 -0.6565 -0.4775  1.7845
  274MOL0     H36983   3.536   7.356   7.037 -2.9965  2.1737  1.3895
  274MOL0     H36984   3.779   7.337   7.186 -2.4541 -0.9415  0.2529
  274MOL0     H36985   3.744   7.511   7.149  0.0148  1.7396 -1.9438
  274MOL0     H36986   3.882   7.428   6.960 -0.1107  0.4203 -1.1757
  274MOL0     H36987   3.714   7.438   6.906 -1.6128  0.3896  0.7220
  274MOL0     H36988   3.801   7.022   6.875 -0.9759  0.4636 -1.1412
  274MOL0     H36989   3.283   7.262   7.236  2.0514  0.4570 -0.1845
  274MOL0     H36990   3.057   7.343   7.301  2.5328 -3.8022 -1.6858
  275MOL0     O36991   2.231   7.874   7.658 -0.1411 -0.0392 -0.2314
  275MOL0     C36992   2.267   7.973   7.605  0.1069 -0.0994 -0.0015
  275MOL0     O36993   2.184   8.078   7.566  0.0270  0.2938  0.5952
  275MOL0     C36994   2.046   8.072   7.553 -0.2405 -0.1557 -0.0079
  275MOL0     C36995   1.972   7.956   7.530 -0.3978 -0.2550  0.5324
  275MOL0     C36996   1.836   7.954   7.531  0.3517 -0.4604 -0.3362
  275MOL0     C36997   1.762   8.071   7.557 -0.7721 -0.1981  0.0994
  275MOL0     O36998   1.624   8.073   7.568 -1.0229  0.0108 -0.2159
  275MOL0     C36999   1.553   7.952   7.582 -0.0664  0.8610 -0.2596
  275MOL0     C37000   1.416   7.975   7.636 -0.1650 -0.0841  0.5045
  275MOL0     C37001   1.413   8.060   7.762 -0.0810 -0.9655 -0.3763
  275MOL0     C37002   1.471   7.991   7.887 -0.2605 -0.0536  0.2780
  275MOL0     C37003   1.422   7.848   7.914  0.4849 -0.3445  0.2203
  275MOL0     C37004   1.267   7.828   7.937  0.3116 -0.2771 -0.3883
  275MOL0     C37005   1.221   7.692   7.887  0.0091 -0.5620 -0.1803
  275MOL0     C37006   1.075   7.662   7.915  0.0063  0.2794 -0.9289
  275MOL0     N37007   0.978   7.757   7.869 -0.1918  0.1219  1.0746
  275MOL0     C37008   0.926   7.863   7.932 -0.2432  0.0097  0.9189
  275MOL0     C37009   0.818   7.917   7.860 -0.7319  0.2164  0.3968
  275MOL0     C37010   0.730   8.025   7.904  0.6673 -0.1388 -0.7343
  275MOL0     C37011   0.596   7.999   7.830  0.1545 -0.2190  0.3109
  275MOL0     C37012   0.541   7.871   7.881 -0.9300  0.7848  0.7100
  275MOL0     C37013   0.403   7.845   7.831 -0.3991  0.4616  0.0810
  275MOL0     O37014   0.357   7.744   7.917  0.1337  0.1117 -0.1280
  275MOL0     C37015   0.226   7.697   7.902 -0.2445 -0.2849  0.1634
  275MOL0     C37016   0.192   7.600   8.004 -0.1753 -0.6529  0.2745
  275MOL0     C37017   0.060   7.560   8.012 -0.5201  0.2178 -0.2435
  275MOL0     C37018   0.035   7.466   8.127  0.0335 -0.1961 -0.3480
  275MOL0     C37019  -0.034   7.608   7.922  0.0242  0.7500 -0.1366
  275MOL0     C37020  -0.180   7.582   7.926 -0.1898  0.6525 -0.4404
  275MOL0     O37021  -0.247   7.616   7.813 -0.2928 -0.0361  0.4724
  275MOL0     C37022  -0.371   7.566   7.788 -0.2726  0.2443  0.5354
  275MOL0     C37023  -0.440   7.635   7.688  0.4398 -0.7662  0.6795
  275MOL0     C37024  -0.575   7.604   7.659  0.0540  0.1445 -0.7404
  275MOL0     C37025  -0.649   7.504   7.727 -0.3178 -0.5525  1.0294
  275MOL0     O37026  -0.790   7.488   7.713  0.2251  0.1382  0.8972
  275MOL0     C37027  -0.885   7.593   7.703 -0.1409 -0.1623  0.2058
  275MOL0     C37028  -0.943   7.612   7.565 -0.7276  0.0857 -0.8039
  275MOL0     C37029  -1.052   7.713   7.563 -0.5331 -0.3137 -0.3226
  275MOL0     C37030  -1.191   7.650   7.585 -0.0633 -0.0476 -0.0760
  275MOL0     C37031  -1.309   7.744   7.582 -0.0402  0.6439 -0.1389
  275MOL0     C37032  -1.349   7.810   7.451 -0.5762 -0.6046 -0.4432
  275MOL0     C37033  -1.399   7.712   7.340  0.1994  0.3410  0.5367
  275MOL0     C37034  -1.531   7.650   7.378 -0.3707 -0.2995 -0.3898
  275MOL0    Cl37035  -1.678   7.761   7.358  0.1462  0.0541 -0.1178
  275MOL0     C37036  -0.566   7.425   7.813  0.0125  0.7994  0.2687
  275MOL0     C37037  -0.429   7.455   7.846  0.1814 -0.3817 -0.4062
  275MOL0     O37038  -0.231   7.541   8.031  0.3843 -0.3875  0.1242
  275MOL0     C37039   0.010   7.694   7.821 -0.5314 -0.3322 -0.4420
  275MOL0     C37040   0.134   7.742   7.813 -0.5143 -0.5403 -0.1537
  275MOL0     N37041   0.817   7.834   7.743  0.3254  0.2174  0.4809
  275MOL0     N37042   0.904   7.739   7.760 -0.1194  0.1485 -0.0026
  275MOL0     C37043   1.831   8.192   7.560 -0.4992  0.2291  0.7964
  275MOL0     C37044   1.974   8.193   7.562  0.0587  1.1881 -0.2801
  275MOL0     C37045   2.412   7.991   7.578 -0.0095 -0.9181 -0.4737
  275MOL0     C37046   2.454   8.107   7.510  0.0817 -0.2321 -0.0003
  275MOL0     C37047   2.588   8.138   7.481 -0.8431 -0.0201 -0.3279
  275MOL0     C37048   2.677   8.049   7.514 -0.3156  0.2295 -0.9278
  275MOL0     O37049   2.807   8.076   7.484  0.2998  0.2480 -0.0841
  275MOL0     C37050   2.906   7.973   7.479  0.4632  0.1761  0.0513
  275MOL0     C37051   3.046   8.028   7.444  0.1729 -0.8886  1.0957
  275MOL0     C37052   3.064   8.102   7.309 -0.5490  0.6310  0.6586
  275MOL0     C37053   3.035   8.003   7.193  0.1730 -0.6439  0.1001
  275MOL0     C37054   3.106   7.877   7.201  0.8194 -0.8234  0.3842
  275MOL0     C37055   3.155   7.769   7.189 -0.2656  0.2018 -0.4276
  275MOL0     C37056   2.641   7.927   7.573  0.1901  0.2507  0.2759
  275MOL0     C37057   2.506   7.897   7.602 -0.1808  0.4352 -0.3921
  275MOL0     H37058   2.014   7.856   7.521 -1.4925 -0.5791 -1.9236
  275MOL0     H37059   1.782   7.860   7.530  0.3490 -0.4726  0.4492
  275MOL0     H37060   1.535   7.896   7.490 -0.8489 -1.2941  1.1258
  275MOL0     H37061   1.605   7.890   7.655 -1.0736 -0.7717 -0.8794
  275MOL0     H37062   1.370   8.033   7.555 -0.8820  0.1355  1.0664
  275MOL0     H37063   1.364   7.880   7.645 -1.4045  0.4802 -0.3105
  275MOL0     H37064   1.465   8.154   7.741 -1.7510  0.2835  0.7875
  275MOL0     H37065   1.312   8.101   7.768 -0.1434 -0.5131 -3.0002
  275MOL0     H37066   1.579   7.979   7.878  0.0271 -0.3537  3.1562
  275MOL0     H37067   1.452   8.048   7.978 -0.2295  0.8800 -0.2834
  275MOL0     H37068   1.451   7.775   7.839 -0.2590 -2.5108  1.9464
  275MOL0     H37069   1.476   7.820   8.005  1.3267 -1.7733 -0.6873
  275MOL0     H37070   1.256   7.829   8.045  0.6245  0.1781 -0.3612
  275MOL0     H37071   1.202   7.906   7.896  0.9489  0.1803 -0.5405
  275MOL0     H37072   1.235   7.678   7.780  2.8258  2.6785 -0.4129
  275MOL0     H37073   1.280   7.609   7.928 -1.5178 -1.6490 -0.0974
  275MOL0     H37074   1.069   7.651   8.024  1.8514 -0.2670 -0.8412
  275MOL0     H37075   1.057   7.563   7.872  0.2283 -0.1531 -0.0457
  275MOL0     H37076   0.958   7.900   8.029 -2.6023  0.1957  1.6903
  275MOL0     H37077   0.711   8.019   8.012 -1.0001 -4.2213 -1.0789
  275MOL0     H37078   0.781   8.113   7.864  1.3773 -1.3861 -2.7345
  275MOL0     H37079   0.606   7.990   7.722  0.6535 -1.5527  0.4521
  275MOL0     H37080   0.525   8.079   7.854 -1.9493 -2.7248  3.2126
  275MOL0     H37081   0.547   7.885   7.989  2.6842  0.4995  0.6735
  275MOL0     H37082   0.604   7.783   7.867 -0.2006  1.0056  2.3554
  275MOL0     H37083   0.413   7.812   7.728  0.9715  1.4370 -0.1369
  275MOL0     H37084   0.345   7.936   7.847 -1.5818 -0.3127  0.2722
  275MOL0     H37085   0.272   7.560   8.066  0.0917 -0.5366  0.0096
  275MOL0     H37086   0.002   7.370   8.086  0.0490 -0.3489 -0.0000
  275MOL0     H37087   0.126   7.447   8.185 -1.2214  0.2919  1.9047
  275MOL0     H37088  -0.042   7.506   8.193  1.4062 -0.2243  1.3378
  275MOL0     H37089  -0.395   7.720   7.639  0.4809 -2.5864 -2.7402
  275MOL0     H37090  -0.626   7.669   7.589  0.6392  1.8586  0.3831
  275MOL0     H37091  -0.972   7.580   7.769 -2.4754  2.7578 -2.0132
  275MOL0     H37092  -0.843   7.689   7.732 -2.6073  0.4720  1.9776
  275MOL0     H37093  -0.868   7.653   7.496  0.9800 -2.9945 -0.9465
  275MOL0     H37094  -0.967   7.514   7.522  1.0603 -0.9175  0.3763
  275MOL0     H37095  -1.042   7.758   7.464 -0.9269 -1.5320 -0.9367
  275MOL0     H37096  -1.037   7.789   7.641 -1.3071 -0.4661 -0.0151
  275MOL0     H37097  -1.198   7.564   7.518 -1.1245  0.5350 -0.7495
  275MOL0     H37098  -1.195   7.612   7.687  1.6372 -0.0032  0.0291
  275MOL0     H37099  -1.278   7.825   7.648 -0.8334 -1.5305  3.1105
  275MOL0     H37100  -1.401   7.698   7.619 -1.7905 -0.1589 -4.6977
  275MOL0     H37101  -1.422   7.891   7.461 -0.8546 -0.5355 -2.5376
  275MOL0     H37102  -1.263   7.858   7.403 -0.2217 -0.8888 -0.0934
  275MOL0     H37103  -1.322   7.634   7.334  0.7459  0.6219  2.8413
  275MOL0     H37104  -1.402   7.765   7.244  0.7268 -0.9026 -0.1835
  275MOL0     H37105  -1.531   7.610   7.480  0.8334  1.4639  0.3433
  275MOL0     H37106  -1.545   7.560   7.316  0.3126 -0.4995 -0.2639
  275MOL0     H37107  -0.623   7.342   7.854 -2.8550  3.5736  2.3822
  275MOL0     H37108  -0.378   7.396   7.921  0.0790  1.3128  1.0763
  275MOL0     H37109  -0.062   7.747   7.759 -1.4772  0.6755  1.4056
  275MOL0     H37110   0.166   7.808   7.733  1.0408 -1.5039 -0.3699
  275MOL0     H37111   1.765   8.279   7.562 -1.8845 -0.7869  0.9428
  275MOL0     H37112   2.033   8.282   7.580  2.1013  0.0648 -1.0257
  275MOL0     H37113   2.384   8.179   7.470 -0.7277 -1.4595 -0.8517
  275MOL0     H37114   2.610   8.224   7.419 -1.2086 -0.9870 -1.8341
  275MOL0     H37115   2.925   7.927   7.576  2.2403  0.3698 -0.1777
  275MOL0     H37116   2.874   7.886   7.420 -1.1569 -0.3106  1.5806
  275MOL0     H37117   3.121   7.948   7.454 -0.4577 -1.1785  5.1490
  275MOL0     H37118   3.057   8.108   7.517 -4.3535  0.2651  0.8258
  275MOL0     H37119   3.168   8.135   7.301 -0.8622  1.0281 -3.7445
  275MOL0     H37120   3.013   8.199   7.300 -1.1674  0.5104  2.3655
  275MOL0     H37121   3.043   8.041   7.091 -0.4108  1.7062  0.8429
  275MOL0     H37122   2.926   8.003   7.208 -0.0408  4.4026  0.5222
  275MOL0     H37123   3.214   7.680   7.193  0.0455  0.3999 -0.6127
  275MOL0     H37124   2.717   7.852   7.592 -1.9856 -1.9829  0.6114
  275MOL0     H37125   2.488   7.797   7.639 -0.7575  1.1088  1.2430
  276MOL0     O37126  10.738   9.047   0.271 -0.5959 -0.4273 -0.1759
  276MOL0     C37127  10.753   8.921   0.273  0.4809 -0.9871  0.2579
  276MOL0     O37128  10.677   8.830   0.357  0.5442 -0.2451  0.4725
  276MOL0     C37129  10.563   8.865   0.429 -0.0236  0.8042  0.7142
  276MOL0     C37130  10.501   8.989   0.434  0.1706  0.4206  0.0068
  276MOL0     C37131  10.395   9.003   0.524 -0.0313 -0.3688  0.3762
  276MOL0     C37132  10.347   8.895   0.600  0.5823 -0.2355 -0.2674
  276MOL0     O37133  10.233   8.910   0.668  0.5053 -0.6005 -0.1154
  276MOL0     C37134  10.162   8.799   0.727  1.2042  0.1579  0.7011
  276MOL0     C37135  10.015   8.847   0.759 -0.4627 -0.3178 -0.3636
  276MOL0     C37136   9.930   8.760   0.858  0.0823  0.2334 -1.3404
  276MOL0     C37137   9.782   8.768   0.832  0.0579  0.4011 -0.3943
  276MOL0     C37138   9.683   8.705   0.940 -1.1549  0.4756 -0.2446
  276MOL0     C37139   9.736   8.590   1.031 -0.8545 -0.8753 -0.2730
  276MOL0     C37140   9.630   8.551   1.139  0.4431  0.0340  0.3453
  276MOL0     C37141   9.566   8.419   1.103  0.8577  0.6139 -0.1804
  276MOL0     N37142   9.460   8.402   1.200  0.3273  0.4378 -0.5326
  276MOL0     C37143   9.468   8.396   1.337  0.3603 -0.1238  0.5546
  276MOL0     C37144   9.351   8.352   1.377  0.3167  0.1918  0.1103
  276MOL0     C37145   9.321   8.322   1.520  0.0620 -0.0031 -0.1804
  276MOL0     C37146   9.244   8.430   1.587  0.7170  0.7342  0.4547
  276MOL0     C37147   9.113   8.468   1.510  0.3301  0.4243 -0.7447
  276MOL0     C37148   8.993   8.518   1.602  0.4464 -0.5456  0.4420
  276MOL0     O37149   8.885   8.576   1.520 -0.3052  0.5206  0.1611
  276MOL0     C37150   8.830   8.691   1.563  0.2212 -0.3044  0.0654
  276MOL0     C37151   8.895   8.814   1.546 -0.0541  0.7802  0.0551
  276MOL0     C37152   8.837   8.929   1.602 -0.0320 -0.0499  0.2242
  276MOL0     C37153   8.923   9.048   1.622  0.1424 -0.4502  0.9101
  276MOL0     C37154   8.705   8.928   1.658  0.3008 -0.4790  0.5251
  276MOL0     C37155   8.626   9.035   1.722  1.1721  0.8431  1.0837
  276MOL0     O37156   8.511   8.999   1.786  0.3396  0.4604 -0.0971
  276MOL0     C37157   8.433   9.094   1.827  1.0109 -0.2140 -0.0145
  276MOL0     C37158   8.413   9.133   1.963  0.2098 -0.8547 -0.0306
  276MOL0     C37159   8.310   9.240   1.997 -0.8788 -0.0244  1.0310
  276MOL0     C37160   8.237   9.302   1.892  0.0924 -0.5084  0.2036
  276MOL0     O37161   8.138   9.400   1.913 -0.3015 -1.1193  0.2590
  276MOL0     C37162   8.160   9.479   2.033 -0.7495 -0.0397  0.0652
  276MOL0     C37163   8.063   9.599   2.033  0.5774  0.2213 -0.3124
  276MOL0     C37164   8.112   9.710   1.941 -0.8285  0.7880 -0.3865
  276MOL0     C37165   8.196   9.819   2.010 -0.7133 -0.1864 -0.5435
  276MOL0     C37166   8.276   9.910   1.917 -0.8541  0.8394  0.7874
  276MOL0     C37167   8.391   9.845   1.843 -0.0615 -0.6885 -0.1633
  276MOL0     C37168   8.477   9.945   1.763  0.2009 -0.6669 -0.2658
  276MOL0     C37169   8.556   9.881   1.655 -0.2210  0.1634 -0.1389
  276MOL0    Cl37170   8.675   9.985   1.562 -0.4818  0.0829 -0.3967
  276MOL0     C37171   8.254   9.258   1.765 -0.7136 -0.1154  0.2588
  276MOL0     C37172   8.348   9.154   1.730  0.4872 -0.0210  0.0657
  276MOL0     O37173   8.677   9.148   1.731  0.4013 -0.3217 -1.2599
  276MOL0     C37174   8.635   8.803   1.649  0.3005 -0.3663  0.3004
  276MOL0     C37175   8.699   8.679   1.611  0.0425  0.8199 -0.0076
  276MOL0     N37176   9.269   8.335   1.267 -0.3338 -0.5302  0.3622
  276MOL0     N37177   9.338   8.359   1.164  0.8371 -0.3141  0.6228
  276MOL0     C37178  10.407   8.773   0.582 -0.9010  0.5653  0.0681
  276MOL0     C37179  10.513   8.762   0.497  0.1341  0.1581 -0.1862
  276MOL0     C37180  10.871   8.853   0.201 -0.4742  0.5086 -0.0755
  276MOL0     C37181  10.947   8.924   0.107 -0.3462 -0.0649 -0.3903
  276MOL0     C37182  11.055   8.882   0.040 -0.5362  0.0751 -0.2520
  276MOL0     C37183  11.097   8.750   0.072 -0.2188  0.9808  0.5467
  276MOL0     O37184  11.203   8.685   0.010 -0.1385  0.3719  0.1032
  276MOL0     C37185  11.296   8.757  -0.074 -0.6403 -0.1031 -0.4959
  276MOL0     C37186  11.389   8.839   0.021 -0.0229 -0.3243  0.4061
  276MOL0     C37187  11.505   8.914  -0.053 -0.0633  0.2695  0.0093
  276MOL0     C37188  11.589   8.994   0.034  0.2191  0.5168  0.1510
  276MOL0     C37189  11.522   9.098   0.115 -0.0796  0.0769 -0.1804
  276MOL0     C37190  11.466   9.196   0.169 -0.6570  0.3587 -0.5232
  276MOL0     C37191  11.028   8.677   0.171  0.3837  0.0848  0.5706
  276MOL0     C37192  10.919   8.729   0.244 -0.4146 -0.5431  0.3494
  276MOL0     H37193  10.526   9.073   0.370 -0.9933  0.3878 -0.5346
  276MOL0     H37194  10.356   9.104   0.534  0.0817 -0.2156 -0.6288
  276MOL0     H37195  10.157   8.717   0.654 -0.2348 -0.7608  1.7864
  276MOL0     H37196  10.218   8.760   0.813  1.4127 -0.4991  0.2787
  276MOL0     H37197  10.008   8.949   0.798 -0.5403  0.2424 -1.7709
  276MOL0     H37198   9.974   8.832   0.658  1.5778  0.6329 -1.4122
  276MOL0     H37199   9.963   8.658   0.839 -1.4403 -0.5931  0.2078
  276MOL0     H37200   9.950   8.794   0.960 -0.7086  0.3493 -1.2141
  276MOL0     H37201   9.754   8.874   0.824 -3.3249 -0.3986 -0.5020
  276MOL0     H37202   9.763   8.711   0.741 -0.0686 -0.0625 -0.0767
  276MOL0     H37203   9.659   8.790   1.004  2.2322 -0.7591  3.0216
  276MOL0     H37204   9.593   8.672   0.887 -2.0328  1.3314  0.6519
  276MOL0     H37205   9.764   8.504   0.969  1.9866 -1.0218  1.0444
  276MOL0     H37206   9.818   8.637   1.086 -0.8179  1.8243 -2.4310
  276MOL0     H37207   9.673   8.544   1.240 -0.3508 -1.2282  0.6128
  276MOL0     H37208   9.551   8.626   1.145 -1.1750 -1.3518 -2.1613
  276MOL0     H37209   9.644   8.344   1.118  1.2217  1.2071  1.0343
  276MOL0     H37210   9.530   8.419   1.000  1.9730  0.4667 -0.5832
  276MOL0     H37211   9.552   8.424   1.400  0.6046  2.0058 -0.6090
  276MOL0     H37212   9.270   8.226   1.530 -1.5634  0.9208  0.8719
  276MOL0     H37213   9.420   8.326   1.566 -0.0303 -0.3783  0.0523
  276MOL0     H37214   9.304   8.521   1.598  0.6740  0.8186 -0.0034
  276MOL0     H37215   9.203   8.401   1.685 -1.4614  1.7192 -0.0919
  276MOL0     H37216   9.075   8.382   1.453  1.9155 -0.1115 -1.0476
  276MOL0     H37217   9.141   8.542   1.434  1.7013 -0.3885 -1.0812
  276MOL0     H37218   9.020   8.604   1.665 -0.4484  0.8908 -1.0486
  276MOL0     H37219   8.952   8.437   1.663  0.8357 -0.8324  0.3237
  276MOL0     H37220   8.995   8.810   1.505 -0.8588 -0.6732 -1.9387
  276MOL0     H37221   8.966   9.068   1.720  1.1478 -1.8720  0.7894
  276MOL0     H37222   9.010   9.050   1.556 -0.6551  1.1620 -0.1810
  276MOL0     H37223   8.869   9.139   1.592 -1.7102 -1.9537 -0.5556
  276MOL0     H37224   8.469   9.081   2.040  0.0730 -3.0738 -1.3332
  276MOL0     H37225   8.308   9.265   2.102 -0.1684 -1.3958  1.3948
  276MOL0     H37226   8.145   9.423   2.125 -1.5256  0.9689  0.5661
  276MOL0     H37227   8.258   9.528   2.032 -1.0502  0.6109 -1.7859
  276MOL0     H37228   7.968   9.558   1.998  1.3196 -1.7364 -0.1211
  276MOL0     H37229   8.054   9.636   2.136  0.3966  0.4412 -0.4058
  276MOL0     H37230   8.028   9.760   1.893 -3.1409 -0.5461  1.9945
  276MOL0     H37231   8.166   9.666   1.857  1.0125  1.4688  0.3965
  276MOL0     H37232   8.127   9.887   2.061  0.9966  0.9810  0.2939
  276MOL0     H37233   8.263   9.775   2.085 -2.2712 -0.5639  0.6968
  276MOL0     H37234   8.312   9.994   1.978  1.9336  0.8090 -0.6508
  276MOL0     H37235   8.214   9.954   1.838 -0.9383 -0.7891 -0.0897
  276MOL0     H37236   8.453   9.785   1.910 -0.3074  1.1249  1.7950
  276MOL0     H37237   8.334   9.782   1.774  0.0126 -0.4708 -0.4246
  276MOL0     H37238   8.543  10.012   1.820 -0.4804  2.9524 -3.3295
  276MOL0     H37239   8.399  10.009   1.720 -0.9040 -0.5170  1.8464
  276MOL0     H37240   8.492   9.829   1.583  0.2688 -0.6005 -0.0276
  276MOL0     H37241   8.615   9.810   1.713 -3.3658 -0.4808  2.5839
  276MOL0     H37242   8.211   9.312   1.681 -1.0631  0.8999  1.0705
  276MOL0     H37243   8.355   9.125   1.626 -0.8437 -0.3769  0.0500
  276MOL0     H37244   8.529   8.795   1.671 -1.3492  3.3601 -4.4597
  276MOL0     H37245   8.653   8.581   1.616  0.6850  0.5693  1.7229
  276MOL0     H37246  10.370   8.684   0.632  0.2583 -1.0459 -1.8459
  276MOL0     H37247  10.561   8.666   0.483  2.4504  1.3882 -1.4019
  276MOL0     H37248  10.896   9.013   0.072  0.6877  0.1007 -1.5693
  276MOL0     H37249  11.102   8.951  -0.031 -0.2727  0.0323 -0.1202
  276MOL0     H37250  11.359   8.687  -0.129  0.2337 -0.4005  0.8151
  276MOL0     H37251  11.241   8.823  -0.141  0.0565  0.9706 -0.0544
  276MOL0     H37252  11.432   8.764   0.089 -0.9220 -1.3716 -0.1385
  276MOL0     H37253  11.336   8.910   0.085 -0.0359 -0.9531  1.1090
  276MOL0     H37254  11.465   8.983  -0.128 -1.2738  0.0719  0.4375
  276MOL0     H37255  11.560   8.834  -0.102 -2.1113 -2.0265  1.2063
  276MOL0     H37256  11.671   9.038  -0.024  0.1017 -0.0761 -0.4828
  276MOL0     H37257  11.655   8.934   0.098  2.7887  3.9639  1.0677
  276MOL0     H37258  11.430   9.291   0.206 -1.4575  0.8120 -2.3645
  276MOL0     H37259  11.062   8.579   0.202  0.1235  0.1528  1.0977
  276MOL0     H37260  10.885   8.671   0.330  2.1398 -1.5457  0.7656
  277MOL0     O37261   3.861   2.998   0.417  0.1879 -0.1509 -0.3419
  277MOL0     C37262   3.898   3.072   0.330  0.4360  0.2190  0.5067
  277MOL0     O37263   3.818   3.159   0.254 -0.2259 -0.4424  0.2177
  277MOL0     C37264   3.683   3.157   0.277  0.7640 -0.2022  0.2235
  277MOL0     C37265   3.610   3.280   0.288 -0.1102  1.1777 -0.0101
  277MOL0     C37266   3.470   3.292   0.305  0.4595 -0.3037  0.1693
  277MOL0     C37267   3.396   3.172   0.313  0.0335 -0.2267  0.2927
  277MOL0     O37268   3.264   3.169   0.350 -0.3817  0.1878 -0.8051
  277MOL0     C37269   3.182   3.282   0.325  0.3135 -0.7304 -0.7122
  277MOL0     C37270   3.063   3.230   0.235 -0.5644  0.4571 -0.0855
  277MOL0     C37271   2.961   3.158   0.325  0.5951 -0.1122 -0.0255
  277MOL0     C37272   2.830   3.122   0.259 -0.5782 -0.2801 -0.6578
  277MOL0     C37273   2.730   3.073   0.377  0.1756 -0.7376  0.1544
  277MOL0     C37274   2.610   3.011   0.323  0.2883 -0.1921  0.3052
  277MOL0     C37275   2.530   3.094   0.220 -0.1898  0.3058 -0.4719
  277MOL0     C37276   2.379   3.067   0.218  0.0996  0.2301  0.5789
  277MOL0     N37277   2.313   3.104   0.095 -0.0726 -0.3493  0.1819
  277MOL0     C37278   2.296   3.237   0.059 -0.3494 -0.0198 -0.4782
  277MOL0     C37279   2.258   3.227  -0.064  0.5150 -0.0559 -0.3785
  277MOL0     C37280   2.229   3.338  -0.157 -0.7070 -1.3308 -0.0142
  277MOL0     C37281   2.118   3.432  -0.107  0.0863 -0.1310 -0.5915
  277MOL0     C37282   1.984   3.355  -0.077  0.3737 -0.4987 -0.1065
  277MOL0     C37283   1.873   3.429  -0.144  1.0730  0.7800  0.6259
  277MOL0     O37284   1.748   3.356  -0.108 -0.1203 -0.3589  0.1112
  277MOL0     C37285   1.629   3.403  -0.162  0.1928 -0.6283 -0.8193
  277MOL0     C37286   1.610   3.515  -0.244 -0.1686  0.0370 -0.1659
  277MOL0     C37287   1.490   3.557  -0.303 -0.5142 -0.1747  1.3550
  277MOL0     C37288   1.496   3.682  -0.401  0.2860 -0.2229  0.0112
  277MOL0     C37289   1.375   3.489  -0.276  0.2928 -0.1677 -0.5717
  277MOL0     C37290   1.241   3.520  -0.334 -0.0058 -0.3233 -0.5175
  277MOL0     O37291   1.149   3.410  -0.346 -0.0931 -0.4734  0.0159
  277MOL0     C37292   1.027   3.428  -0.406 -0.4738  0.2652 -0.3563
  277MOL0     C37293   0.993   3.519  -0.508 -0.5742  0.2698  0.9884
  277MOL0     C37294   0.875   3.504  -0.586  0.4184  0.1554 -0.1175
  277MOL0     C37295   0.779   3.400  -0.562  0.0699  0.4140 -1.2809
  277MOL0     O37296   0.678   3.367  -0.645 -0.4648  0.9344 -0.5044
  277MOL0     C37297   0.594   3.269  -0.604  0.6697  0.7554 -0.9135
  277MOL0     C37298   0.475   3.269  -0.701  0.1432 -0.0639 -0.6451
  277MOL0     C37299   0.471   3.152  -0.792 -0.1451 -0.2632  0.3898
  277MOL0     C37300   0.343   3.140  -0.886  1.1108 -0.4487  0.0876
  277MOL0     C37301   0.340   3.000  -0.950 -0.1084  0.5722  0.1558
  277MOL0     C37302   0.221   2.955  -1.043  0.7576  0.2497 -0.8202
  277MOL0     C37303   0.085   3.014  -0.984  0.3487 -0.6862  0.3944
  277MOL0     C37304  -0.029   2.924  -1.028 -0.0144 -0.8109 -0.4887
  277MOL0    Cl37305  -0.061   2.938  -1.202  0.3794 -0.3589 -0.1277
  277MOL0     C37306   0.804   3.318  -0.443  0.0815 -0.0567 -0.0973
  277MOL0     C37307   0.932   3.334  -0.387  0.4206 -0.1201 -0.5417
  277MOL0     O37308   1.219   3.642  -0.333  0.2449 -0.3490 -0.2888
  277MOL0     C37309   1.380   3.382  -0.183 -0.4404  0.4701 -0.0017
  277MOL0     C37310   1.503   3.338  -0.144 -0.8855 -0.3618  0.1766
  277MOL0     N37311   2.214   3.093  -0.084  0.6511 -0.9625 -0.3872
  277MOL0     N37312   2.258   3.021   0.009  0.2233 -0.1574  0.7363
  277MOL0     C37313   3.461   3.047   0.302  0.8857 -0.1509 -0.3252
  277MOL0     C37314   3.601   3.045   0.280  0.4823 -0.1659 -0.4614
  277MOL0     C37315   4.044   3.081   0.304 -0.2791  0.5656  0.8661
  277MOL0     C37316   4.092   3.164   0.204  0.2166 -0.7311 -0.2437
  277MOL0     C37317   4.231   3.157   0.167 -0.3210  0.3809 -0.1959
  277MOL0     C37318   4.320   3.076   0.232  0.5794 -0.4613 -0.0900
  277MOL0     O37319   4.454   3.058   0.189  0.2366 -0.6644  0.6175
  277MOL0     C37320   4.548   2.993   0.277 -0.1802 -0.3866  0.1014
  277MOL0     C37321   4.691   3.030   0.235  1.2087  0.7349  0.2195
  277MOL0     C37322   4.721   3.170   0.271 -1.3860  0.7578  0.3650
  277MOL0     C37323   4.872   3.199   0.253 -0.1798  0.3194  0.1826
  277MOL0     C37324   4.930   3.175   0.118 -0.3520  0.3605 -0.2099
  277MOL0     C37325   4.987   3.146   0.019  0.1822 -0.2905  0.6246
  277MOL0     C37326   4.271   3.001   0.345  0.5330 -0.5662 -0.1158
  277MOL0     C37327   4.134   3.004   0.382 -0.3546 -0.4746  0.9052
  277MOL0     H37328   3.658   3.378   0.283  0.3049  0.9693 -0.1112
  277MOL0     H37329   3.431   3.391   0.325 -1.9982 -1.5876  2.3391
  277MOL0     H37330   3.152   3.338   0.413  0.8507  1.3659 -1.7927
  277MOL0     H37331   3.226   3.360   0.261  1.7719  0.4232  1.5289
  277MOL0     H37332   3.017   3.318   0.188  1.3712 -0.4051 -3.9351
  277MOL0     H37333   3.104   3.158   0.164  2.2024  1.4232  0.4401
  277MOL0     H37334   3.012   3.068   0.360  1.0733 -0.3261 -1.2255
  277MOL0     H37335   2.926   3.216   0.411  0.8158 -2.5981  1.8564
  277MOL0     H37336   2.787   3.211   0.212  2.9486  2.4979  0.9195
  277MOL0     H37337   2.846   3.040   0.189  0.1395 -1.0577  0.3966
  277MOL0     H37338   2.779   3.012   0.454 -1.3937  0.2719  2.0521
  277MOL0     H37339   2.698   3.159   0.437  0.6133  0.1139 -0.7983
  277MOL0     H37340   2.646   2.918   0.281 -1.5069 -0.8294  0.0703
  277MOL0     H37341   2.547   2.989   0.410  1.1192 -1.7781  0.5440
  277MOL0     H37342   2.536   3.201   0.240 -2.8625  0.9181 -2.3764
  277MOL0     H37343   2.568   3.073   0.119  0.1095  0.4204 -0.3830
  277MOL0     H37344   2.322   3.103   0.304 -1.1408 -1.5796  0.5746
  277MOL0     H37345   2.369   2.958   0.217 -0.7966  0.2172  3.2087
  277MOL0     H37346   2.331   3.327   0.108  1.4537 -0.4509 -0.9225
  277MOL0     H37347   2.315   3.404  -0.167  2.2523 -4.7489  0.8715
  277MOL0     H37348   2.207   3.300  -0.258 -2.0138  0.1186 -0.3165
  277MOL0     H37349   2.098   3.507  -0.184  1.9705  0.8761 -0.1438
  277MOL0     H37350   2.141   3.489  -0.016  0.9812  2.5913 -2.4021
  277MOL0     H37351   1.973   3.335   0.030  2.4571  0.5038  0.3387
  277MOL0     H37352   1.990   3.254  -0.120  1.6503 -0.8458  0.8392
  277MOL0     H37353   1.882   3.441  -0.252  0.3563  2.0588  0.6876
  277MOL0     H37354   1.860   3.534  -0.114  1.4001  0.8783  0.4349
  277MOL0     H37355   1.700   3.568  -0.274 -0.6526  1.1121  0.2359
  277MOL0     H37356   1.593   3.692  -0.450 -0.0375 -0.9585 -0.8028
  277MOL0     H37357   1.420   3.659  -0.476  0.7461 -0.9057 -0.2625
  277MOL0     H37358   1.468   3.768  -0.340 -3.4420 -1.6909  0.5975
  277MOL0     H37359   1.056   3.601  -0.539 -0.0149 -0.6794 -0.5084
  277MOL0     H37360   0.859   3.585  -0.657  1.9219  1.4549  0.9679
  277MOL0     H37361   0.632   3.166  -0.606 -2.0055 -0.3714  0.9323
  277MOL0     H37362   0.558   3.286  -0.502  0.2700 -0.2146 -0.8799
  277MOL0     H37363   0.381   3.268  -0.644  1.1267 -0.9728  1.0414
  277MOL0     H37364   0.458   3.358  -0.762 -3.3279 -1.4237 -1.8944
  277MOL0     H37365   0.481   3.064  -0.729 -0.4342 -1.7014 -1.4987
  277MOL0     H37366   0.558   3.168  -0.858  0.0811 -0.7581  0.5628
  277MOL0     H37367   0.255   3.162  -0.826  1.0529  2.0241 -0.8116
  277MOL0     H37368   0.348   3.222  -0.958 -1.8360 -1.0735 -0.9481
  277MOL0     H37369   0.335   2.930  -0.866 -1.5813  2.0945  1.4056
  277MOL0     H37370   0.432   2.973  -1.002  0.9156  0.7497  1.7951
  277MOL0     H37371   0.233   2.995  -1.144 -0.8113 -2.3462 -2.1618
  277MOL0     H37372   0.212   2.846  -1.049 -2.3855  0.1166  2.5268
  277MOL0     H37373   0.072   3.119  -1.015 -2.4199 -0.8148  0.9521
  277MOL0     H37374   0.089   3.004  -0.875  1.6023  1.6285  0.6385
  277MOL0     H37375  -0.120   2.943  -0.970  0.0618  2.7985 -1.3381
  277MOL0     H37376  -0.003   2.819  -1.012 -1.3370 -0.9588  0.9537
  277MOL0     H37377   0.742   3.235  -0.410  0.1837 -0.0914  0.0099
  277MOL0     H37378   0.952   3.257  -0.314  0.6001  0.9031  0.5221
  277MOL0     H37379   1.288   3.336  -0.148 -0.8025  1.5241  0.4856
  277MOL0     H37380   1.511   3.254  -0.076  2.0317  1.0527  1.7837
  277MOL0     H37381   3.402   2.956   0.303  0.5686 -0.1482 -4.0724
  277MOL0     H37382   3.652   2.952   0.256  0.3090  0.1853 -2.3581
  277MOL0     H37383   4.035   3.234   0.144 -0.6580 -0.1925  1.1700
  277MOL0     H37384   4.274   3.208   0.082  1.0959  1.9881  1.4165
  277MOL0     H37385   4.538   3.025   0.381 -2.9781  0.1781 -0.2704
  277MOL0     H37386   4.520   2.889   0.259 -1.7015  0.1186 -0.6520
  277MOL0     H37387   4.703   3.007   0.129 -1.9817 -0.5173  0.0164
  277MOL0     H37388   4.747   2.961   0.298  0.0243  0.3290  0.8648
  277MOL0     H37389   4.700   3.185   0.378 -1.2077 -1.7136  0.7964
  277MOL0     H37390   4.657   3.236   0.212 -4.3202 -1.0112  1.3484
  277MOL0     H37391   4.937   3.167   0.335 -0.3603 -0.3137  0.0886
  277MOL0     H37392   4.870   3.307   0.268  2.9625  0.0996  3.3684
  277MOL0     H37393   5.043   3.108  -0.064 -0.1690  0.5013  0.0213
  277MOL0     H37394   4.328   2.931   0.406 -1.6023 -0.9363  1.6102
  277MOL0     H37395   4.083   2.940   0.453 -0.3572 -1.0836  0.3650
  278MOL0     O37396   0.300   9.483   4.599  0.0926 -0.1565 -0.2915
  278MOL0     C37397   0.381   9.447   4.514  0.0598  0.4872 -0.1518
  278MOL0     O37398   0.349   9.376   4.403 -0.1159 -0.4896 -0.7308
  278MOL0     C37399   0.212   9.351   4.380  0.5390 -0.0988 -0.3520
  278MOL0     C37400   0.156   9.409   4.268 -0.0983 -0.2450 -0.3703
  278MOL0     C37401   0.028   9.387   4.227  0.0181 -0.0282 -0.7010
  278MOL0     C37402  -0.054   9.298   4.301  0.1984 -0.2274  0.0505
  278MOL0     O37403  -0.182   9.285   4.254 -0.8688  0.2282  0.2590
  278MOL0     C37404  -0.259   9.178   4.311 -0.9930 -0.7712 -0.6909
  278MOL0     C37405  -0.384   9.156   4.230  0.1802 -0.1941 -0.0270
  278MOL0     C37406  -0.353   9.118   4.078 -0.9043  0.2853 -1.3354
  278MOL0     C37407  -0.479   9.126   3.990  0.4889 -0.2959 -0.2591
  278MOL0     C37408  -0.464   9.074   3.846  0.4016  0.5254 -0.5727
  278MOL0     C37409  -0.603   9.074   3.774 -0.9784  0.3240 -0.0506
  278MOL0     C37410  -0.598   9.067   3.621 -0.4838  0.7990  0.1265
  278MOL0     C37411  -0.517   8.936   3.571  1.4370 -0.0895  0.1531
  278MOL0     N37412  -0.535   8.908   3.422  0.2354 -0.1908  0.1408
  278MOL0     C37413  -0.511   9.004   3.324 -0.0391  0.7253 -0.7233
  278MOL0     C37414  -0.510   8.927   3.210 -0.0733  0.1434  0.4374
  278MOL0     C37415  -0.512   8.949   3.068 -0.0739 -0.0109  0.3411
  278MOL0     C37416  -0.410   9.053   3.029  0.5703 -1.1775 -0.7381
  278MOL0     C37417  -0.432   9.108   2.891  0.5582  0.0559  0.0148
  278MOL0     C37418  -0.565   9.174   2.856 -0.3307  0.5474 -0.6893
  278MOL0     O37419  -0.630   9.243   2.968 -0.2683 -0.3440  0.2627
  278MOL0     C37420  -0.748   9.316   2.941 -0.4111 -0.1568 -0.7494
  278MOL0     C37421  -0.811   9.342   2.824  0.7241  0.3875 -0.2162
  278MOL0     C37422  -0.936   9.413   2.822 -0.6020  0.1702  0.1488
  278MOL0     C37423  -0.983   9.457   2.686 -0.0472  0.4369 -0.0166
  278MOL0     C37424  -1.004   9.439   2.942  0.4529  0.5446 -0.4953
  278MOL0     C37425  -1.131   9.521   2.949  0.2390  0.5410 -0.6759
  278MOL0     O37426  -1.185   9.573   2.837 -0.4162  0.4124  0.1651
  278MOL0     C37427  -1.300   9.652   2.858 -0.5519 -0.3001 -0.3265
  278MOL0     C37428  -1.289   9.781   2.905 -0.1554 -0.1591 -0.3789
  278MOL0     C37429  -1.397   9.851   2.945  0.1294 -0.3939 -0.0155
  278MOL0     C37430  -1.527   9.798   2.937  0.5924 -0.3437  0.0092
  278MOL0     O37431  -1.628   9.866   3.008  0.2115  0.1268  0.0064
  278MOL0     C37432  -1.761   9.842   2.959  0.1265  0.1957 -0.6978
  278MOL0     C37433  -1.861   9.937   3.032  0.4138 -0.4752  0.2416
  278MOL0     C37434  -1.833   9.938   3.179  0.3714  0.3514 -0.0195
  278MOL0     C37435  -1.904  10.046   3.252  0.5247 -0.0056 -0.4440
  278MOL0     C37436  -2.048  10.081   3.199 -0.0227  0.2783 -0.4587
  278MOL0     C37437  -2.084  10.209   3.291  0.0800  0.0276 -0.1781
  278MOL0     C37438  -2.227  10.261   3.267 -0.2130 -0.3672  0.3735
  278MOL0     C37439  -2.226  10.383   3.174 -0.6178  0.7877 -0.9775
  278MOL0    Cl37440  -2.391  10.454   3.196 -0.1188 -0.3796  0.0090
  278MOL0     C37441  -1.541   9.672   2.873  0.4693 -0.1738 -0.5375
  278MOL0     C37442  -1.422   9.598   2.841  0.0885 -0.6748 -0.3111
  278MOL0     O37443  -1.185   9.530   3.062 -0.1483 -0.9331  0.0679
  278MOL0     C37444  -0.928   9.415   3.065  0.2204  0.2103  0.0298
  278MOL0     C37445  -0.809   9.357   3.060  0.5326  1.1052  0.2580
  278MOL0     N37446  -0.510   8.796   3.251  0.6369  0.9157  0.5797
  278MOL0     N37447  -0.520   8.782   3.376  0.0004 -0.6049 -0.0082
  278MOL0     C37448  -0.007   9.253   4.417 -0.2465  0.2571 -1.0473
  278MOL0     C37449   0.121   9.277   4.455 -0.6332  0.0029  0.8208
  278MOL0     C37450   0.525   9.460   4.550  0.1010 -0.6412 -1.3562
  278MOL0     C37451   0.629   9.426   4.465  0.6119 -0.1471 -0.0094
  278MOL0     C37452   0.763   9.435   4.511  0.2938  0.6353  0.5590
  278MOL0     C37453   0.798   9.478   4.631 -0.0417  0.6021 -0.3515
  278MOL0     O37454   0.934   9.500   4.647  0.0640  0.0036 -0.3992
  278MOL0     C37455   0.979   9.529   4.789  0.4127  0.5901 -0.4741
  278MOL0     C37456   0.960   9.677   4.831 -0.3899 -0.3186  0.0929
  278MOL0     C37457   1.033   9.724   4.958  0.5643  0.1506  0.1026
  278MOL0     C37458   1.023   9.877   4.981 -0.0322  0.6562 -0.4174
  278MOL0     C37459   0.879   9.922   4.979  0.2738  0.3354 -0.7402
  278MOL0     C37460   0.772   9.974   4.978  0.5106 -0.2805  0.0325
  278MOL0     C37461   0.696   9.519   4.721  0.8408  0.1985  0.2308
  278MOL0     C37462   0.559   9.511   4.679  0.3191  0.0685 -0.8606
  278MOL0     H37463   0.199   9.491   4.212  0.0741  0.2220  0.4262
  278MOL0     H37464  -0.004   9.431   4.133  1.3665 -4.4055 -3.5529
  278MOL0     H37465  -0.200   9.087   4.318  0.2520  0.1177  1.7480
  278MOL0     H37466  -0.292   9.193   4.415 -2.1387 -1.0622 -0.9974
  278MOL0     H37467  -0.446   9.074   4.269 -0.9833 -1.1424 -3.5050
  278MOL0     H37468  -0.433   9.254   4.233  2.2624  0.8990  2.6017
  278MOL0     H37469  -0.284   9.188   4.031 -0.4980 -0.2333 -1.5207
  278MOL0     H37470  -0.306   9.020   4.065  0.2324  0.7239 -0.6719
  278MOL0     H37471  -0.557   9.072   4.044  1.3152 -0.1705  1.0859
  278MOL0     H37472  -0.506   9.232   3.982  3.0259  0.4516  0.2048
  278MOL0     H37473  -0.389   9.126   3.786 -0.5320  0.6240 -1.6960
  278MOL0     H37474  -0.424   8.973   3.848 -0.8602 -0.0131  2.2020
  278MOL0     H37475  -0.674   9.000   3.811  0.9975 -1.8808 -0.4352
  278MOL0     H37476  -0.662   9.164   3.797  0.1332  0.6298  1.7971
  278MOL0     H37477  -0.696   9.064   3.572  0.1033 -1.1580 -1.0189
  278MOL0     H37478  -0.557   9.160   3.581  0.9466 -0.2407 -0.9296
  278MOL0     H37479  -0.567   8.858   3.629 -4.0358  3.0135  0.3244
  278MOL0     H37480  -0.412   8.945   3.598  2.6507 -4.5248 -2.1787
  278MOL0     H37481  -0.498   9.112   3.329  4.0853  0.3547  0.1268
  278MOL0     H37482  -0.509   8.859   3.006 -3.1349  1.5571 -2.3888
  278MOL0     H37483  -0.613   8.986   3.048 -0.1303  0.4408  1.3910
  278MOL0     H37484  -0.307   9.018   3.038  0.6365 -0.7317  0.4835
  278MOL0     H37485  -0.420   9.140   3.094  0.3341 -1.3145 -0.5879
  278MOL0     H37486  -0.425   9.022   2.824 -0.2404  2.1080 -2.9124
  278MOL0     H37487  -0.355   9.179   2.858 -1.0986  1.2168 -1.5359
  278MOL0     H37488  -0.636   9.104   2.811  0.5246 -0.1237 -1.0335
  278MOL0     H37489  -0.535   9.236   2.771 -2.2361 -0.4151 -2.1335
  278MOL0     H37490  -0.760   9.310   2.734 -0.1672  0.6280 -0.8165
  278MOL0     H37491  -1.007   9.564   2.686 -1.2368  0.2137  2.0897
  278MOL0     H37492  -0.899   9.445   2.617  0.5849  0.9660  0.6442
  278MOL0     H37493  -1.066   9.400   2.643  0.7159 -0.5010 -0.2855
  278MOL0     H37494  -1.189   9.823   2.908 -0.6798  1.0677  1.1517
  278MOL0     H37495  -1.409   9.953   2.980  0.9470  0.3218 -1.7183
  278MOL0     H37496  -1.776   9.848   2.851 -1.4650 -1.9583 -0.6667
  278MOL0     H37497  -1.778   9.739   2.991 -1.9665  0.6039 -0.3516
  278MOL0     H37498  -1.840  10.034   2.986  0.4776 -0.8136 -0.4557
  278MOL0     H37499  -1.965   9.913   3.008  0.4600  0.7797 -1.3653
  278MOL0     H37500  -1.728   9.958   3.201 -0.0997  3.0036  0.1068
  278MOL0     H37501  -1.851   9.846   3.236 -1.0708 -0.0001 -1.0021
  278MOL0     H37502  -1.917  10.009   3.354 -1.6746 -0.5640 -0.8594
  278MOL0     H37503  -1.837  10.132   3.261  2.3548 -1.4640  0.6460
  278MOL0     H37504  -2.117   9.997   3.212 -0.8924  1.2171  1.3411
  278MOL0     H37505  -2.036  10.111   3.094  1.4369  1.1278 -0.0775
  278MOL0     H37506  -2.091  10.176   3.395  0.4655  0.5024  0.0054
  278MOL0     H37507  -1.999  10.278   3.285  0.9315 -1.0689 -1.0931
  278MOL0     H37508  -2.279  10.288   3.359 -0.7259 -1.6201  0.4644
  278MOL0     H37509  -2.276  10.179   3.214  1.8457 -2.0494  0.9223
  278MOL0     H37510  -2.219  10.368   3.066  2.4252 -1.5145 -0.5836
  278MOL0     H37511  -2.144  10.447   3.209  0.8321 -1.4277 -0.1528
  278MOL0     H37512  -1.642   9.633   2.868  0.2963  0.2883 -0.7129
  278MOL0     H37513  -1.426   9.502   2.790 -0.5489 -0.3617 -0.8731
  278MOL0     H37514  -0.972   9.447   3.159  1.0627 -0.4169  0.6531
  278MOL0     H37515  -0.752   9.357   3.153  0.9032  3.4901  0.0879
  278MOL0     H37516  -0.061   9.186   4.483  1.9888  1.2254  1.9552
  278MOL0     H37517   0.147   9.223   4.546  1.9956 -0.7713 -0.2848
  278MOL0     H37518   0.594   9.377   4.374  0.3469 -1.2586  0.6676
  278MOL0     H37519   0.841   9.395   4.447 -0.0933  0.5771  0.1181
  278MOL0     H37520   0.918   9.483   4.867 -0.5553  2.4022 -0.1042
  278MOL0     H37521   1.084   9.499   4.795 -0.0760 -1.2050 -0.2622
  278MOL0     H37522   0.856   9.709   4.839  0.7515  3.3289  2.6218
  278MOL0     H37523   1.014   9.734   4.754 -0.2823 -1.4915 -0.7419
  278MOL0     H37524   1.138   9.695   4.960 -0.2684 -3.4436  2.7053
  278MOL0     H37525   0.989   9.673   5.045 -0.5430 -2.5419 -1.8958
  278MOL0     H37526   1.083   9.943   4.918  0.5054  1.0375  0.4888
  278MOL0     H37527   1.059   9.887   5.083 -0.1615 -4.4970  0.4289
  278MOL0     H37528   0.675  10.021   4.981  0.9095  0.5333  0.4089
  278MOL0     H37529   0.708   9.572   4.815 -1.4710 -0.3812  0.9247
  278MOL0     H37530   0.487   9.548   4.751  1.7022  0.2744  0.4794
  279MOL0     O37531   8.480   6.306   9.821 -1.0561  0.6793 -0.7415
  279MOL0     C37532   8.561   6.343   9.907 -0.0724  0.3464 -0.0637
  279MOL0     O37533   8.535   6.435  10.004  0.2222  0.9438  0.2519
  279MOL0     C37534   8.415   6.509   9.993  0.4009 -0.1856  0.2976
  279MOL0     C37535   8.428   6.643   9.966 -0.1790  0.7071  0.0239
  279MOL0     C37536   8.322   6.725   9.973  0.6856  0.2443  0.3945
  279MOL0     C37537   8.192   6.673  10.017 -0.0005  0.3539 -0.0194
  279MOL0     O37538   8.088   6.764  10.023  0.1268  0.5066  0.3081
  279MOL0     C37539   7.968   6.717   9.954  0.0223 -0.9795 -0.6612
  279MOL0     C37540   7.879   6.841   9.928 -0.8366 -0.2309  0.1325
  279MOL0     C37541   7.735   6.798   9.883  0.0541  0.4741  0.1877
  279MOL0     C37542   7.674   6.914   9.806 -0.1035  0.6801  0.2447
  279MOL0     C37543   7.527   6.924   9.819 -0.4582  0.0861  0.4391
  279MOL0     C37544   7.464   7.035   9.736 -0.4149  0.1690 -0.2394
  279MOL0     C37545   7.315   7.029   9.747 -1.0087  0.7218  0.6334
  279MOL0     C37546   7.245   7.084   9.621  0.4314  0.7420  0.2142
  279MOL0     N37547   7.103   7.084   9.622  0.1335  0.2562  0.2478
  279MOL0     C37548   7.008   7.174   9.648 -1.0699 -0.1815 -0.4749
  279MOL0     C37549   6.890   7.110   9.630  0.1821  0.9241 -0.4798
  279MOL0     C37550   6.755   7.166   9.647  0.4151 -0.0713 -0.4544
  279MOL0     C37551   6.713   7.236   9.522  0.9531  0.0204  0.2399
  279MOL0     C37552   6.675   7.142   9.404 -0.0694 -0.3083 -0.2911
  279MOL0     C37553   6.571   7.028   9.421 -0.2855  0.0064 -0.1904
  279MOL0     O37554   6.484   7.051   9.530 -0.0780 -0.5581 -0.5600
  279MOL0     C37555   6.383   7.138   9.524  1.0775  0.5596 -0.4104
  279MOL0     C37556   6.301   7.145   9.641 -0.3740 -0.0365 -0.4609
  279MOL0     C37557   6.181   7.225   9.648 -0.0484 -0.3110  0.0634
  279MOL0     C37558   6.083   7.220   9.766  0.1655 -0.4263  0.0830
  279MOL0     C37559   6.136   7.296   9.527 -1.0210  0.5320  0.0013
  279MOL0     C37560   6.012   7.361   9.498  1.3681  0.0015  0.1743
  279MOL0     O37561   5.962   7.354   9.376  0.1561  0.4920  0.4356
  279MOL0     C37562   5.842   7.424   9.354 -0.3040 -0.3978  0.1567
  279MOL0     C37563   5.832   7.556   9.313  0.3198 -0.7860 -0.2919
  279MOL0     C37564   5.715   7.613   9.268  0.0341 -0.3449 -0.7582
  279MOL0     C37565   5.591   7.546   9.252  1.1196  0.4725  0.3188
  279MOL0     O37566   5.478   7.595   9.191  0.6352 -0.1321  1.0232
  279MOL0     C37567   5.425   7.720   9.236  0.0953 -0.9667  0.7479
  279MOL0     C37568   5.281   7.698   9.286 -0.9727  0.7782  0.2260
  279MOL0     C37569   5.168   7.688   9.174 -0.0917 -0.1370 -0.0691
  279MOL0     C37570   5.105   7.830   9.164  0.5346 -0.6597 -0.1955
  279MOL0     C37571   5.191   7.941   9.120 -0.6615 -0.3344 -1.3678
  279MOL0     C37572   5.102   8.064   9.086  0.7879  0.9205  0.2438
  279MOL0     C37573   5.036   8.120   9.212  0.3516  0.4373 -1.0010
  279MOL0     C37574   4.981   8.260   9.178 -0.9568  0.1430  0.2165
  279MOL0    Cl37575   4.866   8.255   9.041 -0.0046 -0.1534 -0.3443
  279MOL0     C37576   5.608   7.405   9.262  0.2248 -0.1053 -0.2619
  279MOL0     C37577   5.728   7.347   9.321 -0.3403 -0.1388 -0.0129
  279MOL0     O37578   5.962   7.431   9.588 -0.1618  0.4459  0.9136
  279MOL0     C37579   6.221   7.287   9.410  0.4378  0.9162 -0.3439
  279MOL0     C37580   6.343   7.214   9.417  0.5783  0.1368  0.7825
  279MOL0     N37581   6.918   6.979   9.586 -0.4520 -0.7366 -0.5160
  279MOL0     N37582   7.043   6.973   9.567 -0.5839  0.2453  0.4375
  279MOL0     C37583   8.173   6.533  10.021 -0.0523 -1.2294  0.2094
  279MOL0     C37584   8.289   6.458  10.018  0.0414 -0.5765 -0.2184
  279MOL0     C37585   8.691   6.279   9.911  0.4129  0.2619 -0.8072
  279MOL0     C37586   8.760   6.265  10.030  0.3733  0.5113  0.2150
  279MOL0     C37587   8.885   6.201  10.027 -0.6170 -0.1658  0.1205
  279MOL0     C37588   8.940   6.147   9.907 -0.1044 -0.0826  0.4229
  279MOL0     O37589   9.057   6.078   9.891  0.5738 -0.6754  0.4116
  279MOL0     C37590   9.136   6.055  10.006 -0.3325  0.4913 -0.0852
  279MOL0     C37591   9.285   6.041   9.969  0.3675  1.0356  0.8115
  279MOL0     C37592   9.349   5.956  10.086 -0.1093 -0.8811 -0.1381
  279MOL0     C37593   9.502   5.933  10.055 -0.2726  0.0263 -0.4577
  279MOL0     C37594   9.563   5.827  10.137  0.8307  0.5828  0.4820
  279MOL0     C37595   9.591   5.729  10.210  0.1608  0.4996  0.8805
  279MOL0     C37596   8.859   6.148   9.790 -0.0764 -0.0693  0.1873
  279MOL0     C37597   8.736   6.218   9.793 -0.2842 -0.6971 -1.1885
  279MOL0     H37598   8.522   6.686   9.934 -0.5784  1.3607 -0.2916
  279MOL0     H37599   8.321   6.830   9.947  1.9683 -0.3324 -2.2940
  279MOL0     H37600   7.987   6.672   9.856 -0.4091  2.9217 -2.7156
  279MOL0     H37601   7.896   6.660  10.014 -1.1456 -0.0600 -1.1671
  279MOL0     H37602   7.895   6.896  10.021  2.0656 -0.2037 -0.2912
  279MOL0     H37603   7.933   6.911   9.864  4.0090 -0.5551  3.3142
  279MOL0     H37604   7.732   6.704   9.828 -0.0257  1.1028 -0.9050
  279MOL0     H37605   7.679   6.791   9.977  0.4043 -0.2415  0.3500
  279MOL0     H37606   7.722   7.007   9.837  0.4524  0.5743 -0.2768
  279MOL0     H37607   7.692   6.886   9.702  2.9436 -0.4465  0.9610
  279MOL0     H37608   7.489   6.831   9.775 -0.2720  0.0349  0.3862
  279MOL0     H37609   7.488   6.926   9.922  0.3740 -0.4914  0.7738
  279MOL0     H37610   7.505   7.125   9.781  1.0233  0.2166 -1.5620
  279MOL0     H37611   7.505   7.024   9.635  0.5898  1.2271  0.0313
  279MOL0     H37612   7.284   6.924   9.757  1.8425 -0.0573  2.7204
  279MOL0     H37613   7.292   7.088   9.837 -1.0169  4.5233 -1.6421
  279MOL0     H37614   7.281   7.021   9.538 -1.7000 -2.0774  1.2620
  279MOL0     H37615   7.271   7.189   9.611 -2.9541  1.6287 -0.6539
  279MOL0     H37616   7.033   7.271   9.691 -0.9017 -0.6296  0.4852
  279MOL0     H37617   6.687   7.092   9.688 -0.0822  0.2364 -0.7119
  279MOL0     H37618   6.764   7.246   9.721 -5.2662  0.7367 -0.2125
  279MOL0     H37619   6.789   7.308   9.490  1.8753 -0.3440  1.4939
  279MOL0     H37620   6.625   7.293   9.554 -0.4049 -1.1881 -1.2090
  279MOL0     H37621   6.773   7.102   9.376 -0.5015 -0.5749 -1.4597
  279MOL0     H37622   6.644   7.198   9.315  1.2173 -1.7275 -1.7056
  279MOL0     H37623   6.621   6.930   9.430  0.6672  0.2168 -2.4091
  279MOL0     H37624   6.525   7.014   9.323  0.7405 -1.6067 -0.5026
  279MOL0     H37625   6.336   7.085   9.724 -2.0785 -0.0708  0.2752
  279MOL0     H37626   6.075   7.321   9.808 -1.0254 -1.1141  1.5565
  279MOL0     H37627   5.988   7.179   9.732  0.4496 -2.5589  1.7169
  279MOL0     H37628   6.121   7.152   9.842  0.9836 -0.8351 -0.6650
  279MOL0     H37629   5.918   7.621   9.309 -0.0364 -0.0263  2.5045
  279MOL0     H37630   5.727   7.718   9.241  1.3443  0.4292  2.3426
  279MOL0     H37631   5.473   7.764   9.324 -1.0238  5.2215 -1.2165
  279MOL0     H37632   5.429   7.795   9.157  2.3508 -0.4267  1.3175
  279MOL0     H37633   5.282   7.602   9.340  2.1105 -0.1064 -1.1592
  279MOL0     H37634   5.244   7.779   9.349 -2.2168  0.9954 -0.7457
  279MOL0     H37635   5.089   7.627   9.217  0.1366  0.8977  1.9306
  279MOL0     H37636   5.204   7.643   9.081 -1.0843 -1.0059 -0.0423
  279MOL0     H37637   5.014   7.821   9.104 -2.3286 -2.5807  4.0272
  279MOL0     H37638   5.076   7.857   9.266  0.3056 -1.5487 -0.0249
  279MOL0     H37639   5.256   7.913   9.037  0.7553 -2.7193  0.4149
  279MOL0     H37640   5.265   7.971   9.194 -2.0397 -1.0706  0.3826
  279MOL0     H37641   5.165   8.138   9.035  0.9358  1.6769  1.4961
  279MOL0     H37642   5.027   8.031   9.013  1.7078 -2.3258  0.6037
  279MOL0     H37643   5.099   8.109   9.301 -0.8810 -1.6085 -0.3062
  279MOL0     H37644   4.953   8.058   9.245  2.4829 -1.4047  1.3535
  279MOL0     H37645   5.066   8.327   9.171 -1.0308  0.0675 -2.6509
  279MOL0     H37646   4.921   8.296   9.262 -3.8200 -1.3546 -1.0041
  279MOL0     H37647   5.523   7.341   9.239  0.1754  0.5421 -2.0594
  279MOL0     H37648   5.732   7.239   9.336 -0.3844 -0.1246  0.1023
  279MOL0     H37649   6.210   7.337   9.314 -1.2868 -0.7179 -1.0585
  279MOL0     H37650   6.401   7.217   9.325 -2.3021  0.4354 -1.1899
  279MOL0     H37651   8.074   6.492  10.039  0.0149 -1.5002 -0.0416
  279MOL0     H37652   8.289   6.351  10.039 -0.5172 -1.2702 -3.2959
  279MOL0     H37653   8.724   6.295  10.128  0.7118  2.1571 -0.1220
  279MOL0     H37654   8.939   6.194  10.121  0.8273  0.0788 -0.6662
  279MOL0     H37655   9.129   6.139  10.077 -2.3992 -0.1014  0.4768
  279MOL0     H37656   9.099   5.974  10.069  3.6190 -1.0489  0.5731
  279MOL0     H37657   9.327   6.141   9.959 -2.5100  2.1198 -2.7544
  279MOL0     H37658   9.297   5.987   9.874 -2.2630 -1.8846  1.9334
  279MOL0     H37659   9.299   5.858  10.086  0.0959 -1.0258 -2.0022
  279MOL0     H37660   9.349   6.007  10.183  2.7509 -0.0338 -0.4895
  279MOL0     H37661   9.559   6.027  10.055 -1.7098  0.9370 -1.3106
  279MOL0     H37662   9.519   5.892   9.955  0.5900  0.0457 -0.3268
  279MOL0     H37663   9.598   5.655  10.287  1.7956  1.5897  1.8484
  279MOL0     H37664   8.890   6.106   9.695 -1.5741 -2.4981  0.7065
  279MOL0     H37665   8.675   6.214   9.704  1.2061 -0.8258 -2.2376
  280MOL0     O37666   5.612   6.965   7.504 -0.8279 -0.1055  0.2130
  280MOL0     C37667   5.581   6.872   7.579 -0.2714  0.5875 -0.6214
  280MOL0     O37668   5.457   6.827   7.595  0.7364 -0.2667 -0.2792
  280MOL0     C37669   5.357   6.899   7.534 -0.1851 -0.7888 -0.6850
  280MOL0     C37670   5.270   6.822   7.467  0.6317  1.3678 -0.4839
  280MOL0     C37671   5.162   6.872   7.396  0.6522 -0.1747 -0.4736
  280MOL0     C37672   5.125   6.999   7.419  0.3744  0.3946  0.2771
  280MOL0     O37673   5.017   7.049   7.346 -0.5833  0.7538  0.0540
  280MOL0     C37674   4.976   7.185   7.380 -0.9043  1.0187  0.7185
  280MOL0     C37675   4.844   7.202   7.311  1.0109  0.4694 -0.2148
  280MOL0     C37676   4.719   7.149   7.386  0.7733  0.7003 -1.1326
  280MOL0     C37677   4.592   7.169   7.303  0.0689 -0.1204 -0.2009
  280MOL0     C37678   4.471   7.096   7.361 -0.0563  0.4557  0.6801
  280MOL0     C37679   4.345   7.100   7.269 -0.2951  0.3323  0.6493
  280MOL0     C37680   4.291   7.245   7.255 -0.6333 -0.2749  0.8902
  280MOL0     C37681   4.156   7.258   7.173 -0.2069  0.5869  0.3055
  280MOL0     N37682   4.056   7.175   7.225 -0.5440  0.1414  0.8358
  280MOL0     C37683   4.013   7.180   7.352 -0.4666  0.1124  0.0122
  280MOL0     C37684   3.921   7.076   7.358 -0.7975 -0.1248 -0.3167
  280MOL0     C37685   3.842   7.030   7.477 -0.0416  0.4429 -1.0527
  280MOL0     C37686   3.690   7.038   7.452 -0.1512  0.2477  0.3146
  280MOL0     C37687   3.606   6.951   7.554  0.2520 -0.0993  0.0695
  280MOL0     C37688   3.463   6.923   7.502  0.4239 -0.3012  0.2813
  280MOL0     O37689   3.396   7.044   7.494  0.0938 -0.8827 -0.0541
  280MOL0     C37690   3.274   7.021   7.546  1.6006 -0.0823  0.6079
  280MOL0     C37691   3.166   6.995   7.464  0.4490 -0.4493  0.1796
  280MOL0     C37692   3.042   6.973   7.512  0.7300  0.3653 -0.4537
  280MOL0     C37693   2.937   6.954   7.399 -0.7260  0.0923  0.5168
  280MOL0     C37694   3.009   6.996   7.648 -0.5986  0.6654 -0.5751
  280MOL0     C37695   2.876   6.973   7.710  0.4414  0.0403  0.5756
  280MOL0     O37696   2.848   7.008   7.838 -0.2089  0.2266 -0.2287
  280MOL0     C37697   2.714   7.006   7.873 -1.4266 -0.3257  0.2444
  280MOL0     C37698   2.610   7.055   7.802  0.1884 -0.6249 -0.2723
  280MOL0     C37699   2.486   7.067   7.860  0.1689 -0.7338  0.4641
  280MOL0     C37700   2.468   7.046   8.001  0.7096 -0.0280  0.7635
  280MOL0     O37701   2.343   7.074   8.051  0.0921  0.3362 -0.1565
  280MOL0     C37702   2.306   7.004   8.169 -0.2594 -0.2035  0.3602
  280MOL0     C37703   2.150   7.000   8.199  0.8685  0.3642 -0.1814
  280MOL0     C37704   2.056   7.122   8.156 -0.1691 -0.1983 -0.5585
  280MOL0     C37705   1.994   7.096   8.015  0.5474  0.5567 -0.1221
  280MOL0     C37706   1.896   7.200   7.960 -0.4018 -0.4606  0.0082
  280MOL0     C37707   1.778   7.233   8.053 -0.1107 -0.4865  0.0331
  280MOL0     C37708   1.691   7.340   8.008  0.9716  1.0223  0.6778
  280MOL0     C37709   1.601   7.309   7.886 -0.3763 -0.1439  0.5315
  280MOL0    Cl37710   1.480   7.441   7.872  0.2401 -0.0359 -0.4320
  280MOL0     C37711   2.577   6.986   8.071  0.7456  0.1197  0.1525
  280MOL0     C37712   2.697   6.975   8.005  0.2473  0.9290 -0.4344
  280MOL0     O37713   2.796   6.913   7.633 -0.0956  0.2006 -0.6085
  280MOL0     C37714   3.116   7.036   7.733 -0.0319 -0.6369 -0.0797
  280MOL0     C37715   3.245   7.052   7.681 -0.5220 -0.0962 -0.0637
  280MOL0     N37716   3.921   7.010   7.241  0.0005 -0.0407  0.0581
  280MOL0     N37717   4.000   7.067   7.161 -0.3511 -0.6609  0.7498
  280MOL0     C37718   5.202   7.079   7.502 -0.3596  0.2794 -1.1678
  280MOL0     C37719   5.319   7.030   7.565  0.0516  0.1298  0.6720
  280MOL0     C37720   5.684   6.794   7.647 -0.3819 -0.7460  0.4880
  280MOL0     C37721   5.664   6.659   7.680 -0.2362  0.5901  0.1738
  280MOL0     C37722   5.767   6.576   7.736 -0.9477  0.5228 -0.0911
  280MOL0     C37723   5.897   6.625   7.761  0.0520 -0.0146  0.0595
  280MOL0     O37724   5.983   6.525   7.809  0.2737 -0.5547  0.4635
  280MOL0     C37725   6.122   6.573   7.836 -0.3870 -0.3069  0.0880
  280MOL0     C37726   6.219   6.568   7.717 -0.0194  0.6320 -0.3819
  280MOL0     C37727   6.361   6.615   7.758  0.4044 -0.4203  0.4955
  280MOL0     C37728   6.444   6.645   7.629 -0.4479 -0.0165 -0.6798
  280MOL0     C37729   6.591   6.653   7.664 -0.2128 -0.8761 -0.1258
  280MOL0     C37730   6.708   6.654   7.670  0.2046  0.0351 -0.5222
  280MOL0     C37731   5.924   6.756   7.719 -0.8015  0.2009 -0.7970
  280MOL0     C37732   5.822   6.840   7.666 -0.5395 -0.1850 -0.4784
  280MOL0     H37733   5.287   6.715   7.462 -0.6993  1.1112  0.0285
  280MOL0     H37734   5.107   6.802   7.335 -0.5613 -0.3646  0.7861
  280MOL0     H37735   4.959   7.198   7.487 -1.3401  1.5827  0.5815
  280MOL0     H37736   5.038   7.265   7.340 -0.1611  0.1411  0.0472
  280MOL0     H37737   4.828   7.308   7.293  3.1638  0.5465 -2.0499
  280MOL0     H37738   4.855   7.156   7.212 -0.5776 -1.4134  0.3987
  280MOL0     H37739   4.740   7.045   7.410  1.7496  0.4499 -2.8807
  280MOL0     H37740   4.721   7.201   7.483 -0.9067 -2.0666  0.5208
  280MOL0     H37741   4.574   7.277   7.301  2.3846  0.3149 -0.3276
  280MOL0     H37742   4.608   7.139   7.199 -0.0452 -0.1291 -0.2158
  280MOL0     H37743   4.522   7.000   7.367  0.7467  0.5907 -2.2255
  280MOL0     H37744   4.451   7.128   7.464 -0.6380  0.4309  0.5789
  280MOL0     H37745   4.360   7.062   7.167 -2.0978  0.1665  0.4161
  280MOL0     H37746   4.267   7.035   7.309 -1.1394 -1.0093 -2.8126
  280MOL0     H37747   4.285   7.294   7.353 -0.0730  0.7116  0.4419
  280MOL0     H37748   4.371   7.297   7.202 -0.6777 -0.8750  0.2274
  280MOL0     H37749   4.177   7.243   7.067  2.5221 -0.1426  0.8693
  280MOL0     H37750   4.121   7.361   7.182 -0.1303  0.6820 -0.4497
  280MOL0     H37751   4.031   7.253   7.430  0.7743  0.0639 -0.2056
  280MOL0     H37752   3.879   6.931   7.505  2.4779  1.2821 -1.1809
  280MOL0     H37753   3.873   7.095   7.559  1.3974 -1.0688 -0.3309
  280MOL0     H37754   3.673   7.003   7.350 -3.4837 -3.4325  1.8314
  280MOL0     H37755   3.662   7.144   7.453 -3.4734 -0.4973 -0.4442
  280MOL0     H37756   3.607   6.995   7.654 -1.4353 -0.5880  0.3267
  280MOL0     H37757   3.639   6.847   7.561 -2.0294 -0.9858 -1.2829
  280MOL0     H37758   3.417   6.853   7.572 -0.3401 -0.3773 -0.2778
  280MOL0     H37759   3.464   6.873   7.405 -0.1622 -1.1812  0.7100
  280MOL0     H37760   3.174   7.004   7.356  1.5273 -0.4218  0.2536
  280MOL0     H37761   2.959   7.020   7.314 -0.6115 -0.4077  0.1553
  280MOL0     H37762   2.932   6.854   7.355 -1.8165  1.1669 -2.0746
  280MOL0     H37763   2.832   6.979   7.417 -0.8523  1.5455 -1.7620
  280MOL0     H37764   2.611   7.071   7.695 -1.2796 -0.2047 -0.2466
  280MOL0     H37765   2.393   7.094   7.811  0.9622 -1.0043 -1.2691
  280MOL0     H37766   2.347   6.902   8.169  1.9006  0.6108  0.7316
  280MOL0     H37767   2.351   7.059   8.252 -1.3264  1.2103  0.0432
  280MOL0     H37768   2.118   6.909   8.147  0.4467 -1.3373  2.8165
  280MOL0     H37769   2.133   6.963   8.300  0.8230 -1.1333 -0.7144
  280MOL0     H37770   2.112   7.215   8.143 -0.2318  0.5561  3.3606
  280MOL0     H37771   1.974   7.156   8.220 -0.3473 -0.2922 -0.7320
  280MOL0     H37772   2.073   7.095   7.939 -1.1678 -0.7592 -2.0088
  280MOL0     H37773   1.944   6.998   8.013 -0.6524  1.0954 -3.1985
  280MOL0     H37774   1.868   7.192   7.854  0.4440  1.9948 -0.4484
  280MOL0     H37775   1.958   7.290   7.957  1.1343 -1.5009 -2.0730
  280MOL0     H37776   1.708   7.151   8.066 -2.9757  1.2612 -2.7702
  280MOL0     H37777   1.815   7.278   8.146 -1.5223  1.5895 -0.3353
  280MOL0     H37778   1.752   7.422   7.969  0.7074  1.2784  0.7936
  280MOL0     H37779   1.634   7.370   8.096  1.3644 -0.1561  1.3606
  280MOL0     H37780   1.559   7.208   7.895  2.2658 -1.3832 -0.1494
  280MOL0     H37781   1.660   7.308   7.794  0.2067 -1.4537  0.8869
  280MOL0     H37782   2.570   6.949   8.172  1.2769  1.1879  0.5937
  280MOL0     H37783   2.766   6.926   8.073 -1.1931 -0.9682 -0.2602
  280MOL0     H37784   3.094   7.083   7.829  0.4965  1.0080 -0.7168
  280MOL0     H37785   3.332   7.088   7.735 -1.5312  0.0503  1.5343
  280MOL0     H37786   5.183   7.183   7.527  0.0852  0.1928 -0.4122
  280MOL0     H37787   5.373   7.088   7.639  2.0171  0.7798 -1.1817
  280MOL0     H37788   5.566   6.619   7.657 -1.2680  2.7814  0.4859
  280MOL0     H37789   5.741   6.475   7.767 -0.2789  0.6800  1.0310
  280MOL0     H37790   6.118   6.668   7.890 -3.2834 -2.2413  3.6816
  280MOL0     H37791   6.163   6.506   7.911  1.2969 -0.5081 -0.9623
  280MOL0     H37792   6.176   6.614   7.627 -2.0636  3.1485  1.6860
  280MOL0     H37793   6.217   6.460   7.702 -3.6019  0.6857 -1.1876
  280MOL0     H37794   6.406   6.540   7.824  1.3782  0.9847  1.4965
  280MOL0     H37795   6.342   6.708   7.813 -1.8891  0.4135 -1.5438
  280MOL0     H37796   6.398   6.728   7.575  1.0680  2.0462  1.0437
  280MOL0     H37797   6.427   6.557   7.566  1.0760 -1.4622  0.8120
  280MOL0     H37798   6.815   6.657   7.669  0.2840  0.0319  1.9788
  280MOL0     H37799   6.024   6.787   7.748 -0.1190 -3.2300  1.1860
  280MOL0     H37800   5.848   6.944   7.652  1.6762 -0.7358 -0.9385
  281MOL0     O37801   6.935   8.404   9.218 -0.4894 -0.0487 -0.4402
  281MOL0     C37802   7.045   8.382   9.268 -0.8672  0.1726 -0.1343
  281MOL0     O37803   7.071   8.399   9.404  0.0050  0.4575 -0.4817
  281MOL0     C37804   6.979   8.466   9.484 -0.4869 -0.3037  0.6869
  281MOL0     C37805   6.863   8.401   9.528 -0.7565  0.3076 -0.6018
  281MOL0     C37806   6.757   8.461   9.591 -0.1344 -0.1910 -0.4813
  281MOL0     C37807   6.755   8.600   9.609 -0.8881 -0.0515 -0.0523
  281MOL0     O37808   6.649   8.656   9.666 -0.4262  0.1394 -0.5207
  281MOL0     C37809   6.607   8.781   9.625  0.1370  0.1790  0.9638
  281MOL0     C37810   6.458   8.788   9.600 -0.0844 -0.1385 -0.4020
  281MOL0     C37811   6.428   8.930   9.573  0.0690 -0.8471 -0.4797
  281MOL0     C37812   6.287   8.946   9.521 -0.0930 -0.5785  0.4290
  281MOL0     C37813   6.270   9.094   9.468  0.4631 -0.2440 -0.5475
  281MOL0     C37814   6.122   9.124   9.434  0.3031  0.3275  0.0110
  281MOL0     C37815   6.087   9.257   9.364  0.1887  1.6543  0.2075
  281MOL0     C37816   6.172   9.299   9.246  0.1171 -0.1491  0.1451
  281MOL0     N37817   6.130   9.433   9.195  0.3726  0.2937  0.3470
  281MOL0     C37818   6.036   9.456   9.096  0.7285 -0.2757  0.1927
  281MOL0     C37819   6.036   9.588   9.063  0.0212  0.9224  0.4385
  281MOL0     C37820   5.960   9.652   8.953  0.3291 -0.2022 -0.0369
  281MOL0     C37821   5.809   9.670   8.992 -0.4949  0.6064 -0.1137
  281MOL0     C37822   5.793   9.753   9.117  0.2166  0.0069  0.6681
  281MOL0     C37823   5.639   9.768   9.152 -0.0971 -1.2541 -0.8692
  281MOL0     O37824   5.569   9.645   9.161 -0.2621  0.2872 -0.2811
  281MOL0     C37825   5.445   9.621   9.219 -0.3048 -0.3113  0.5347
  281MOL0     C37826   5.408   9.491   9.252  0.2418  0.6995 -0.4606
  281MOL0     C37827   5.275   9.454   9.279  0.2580 -0.1973 -0.6704
  281MOL0     C37828   5.250   9.307   9.304 -0.1103  0.8565  1.1514
  281MOL0     C37829   5.173   9.561   9.300  0.2116 -0.5022 -0.2635
  281MOL0     C37830   5.027   9.532   9.325  0.2612 -0.4513 -0.0898
  281MOL0     O37831   4.982   9.404   9.346 -0.6354  0.5330 -1.2854
  281MOL0     C37832   4.847   9.370   9.325  0.0863 -0.2546  0.3570
  281MOL0     C37833   4.726   9.448   9.361 -0.3355  1.0008 -0.1299
  281MOL0     C37834   4.601   9.392   9.336 -0.2113 -0.1800 -0.4571
  281MOL0     C37835   4.583   9.270   9.265 -0.1860  0.2832 -0.5690
  281MOL0     O37836   4.458   9.216   9.241 -0.1127 -0.4734 -0.3136
  281MOL0     C37837   4.340   9.291   9.251  0.2231 -0.3261  0.2668
  281MOL0     C37838   4.272   9.295   9.394 -0.1174 -0.5450  0.4466
  281MOL0     C37839   4.119   9.324   9.393 -0.2602  0.1106 -0.0676
  281MOL0     C37840   4.075   9.470   9.349 -0.3730 -0.2330 -0.5978
  281MOL0     C37841   3.922   9.488   9.313 -0.1856 -0.2805  0.4100
  281MOL0     C37842   3.909   9.634   9.274  0.7834 -0.1253 -0.4964
  281MOL0     C37843   3.759   9.645   9.235 -0.1036  0.8813 -0.7712
  281MOL0     C37844   3.731   9.792   9.197 -0.5156  0.4465  0.4841
  281MOL0    Cl37845   3.566   9.823   9.152 -0.6597 -0.2089  0.1724
  281MOL0     C37846   4.695   9.193   9.237 -0.7237 -0.0825 -0.9962
  281MOL0     C37847   4.827   9.245   9.266 -0.9740  0.5923  1.1677
  281MOL0     O37848   4.956   9.631   9.319 -0.3570 -0.0880 -0.3974
  281MOL0     C37849   5.222   9.692   9.283  0.7887 -0.4989  0.2354
  281MOL0     C37850   5.351   9.725   9.241 -0.0327  1.1071  0.3590
  281MOL0     N37851   6.131   9.650   9.148 -0.7172 -0.0132  0.2217
  281MOL0     N37852   6.193   9.555   9.218  0.2047  0.0632  0.0878
  281MOL0     C37853   6.871   8.667   9.564 -0.4414  0.4976 -0.6116
  281MOL0     C37854   6.981   8.600   9.515 -0.5555 -0.1389 -0.4690
  281MOL0     C37855   7.148   8.309   9.183 -0.0724  1.0796 -0.1782
  281MOL0     C37856   7.265   8.261   9.239  0.1427  0.6556  0.7017
  281MOL0     C37857   7.364   8.191   9.163  0.3807  0.0543  1.0088
  281MOL0     C37858   7.351   8.174   9.026 -0.6543 -0.0309 -0.3026
  281MOL0     O37859   7.449   8.117   8.958  0.1485 -0.0771  0.1654
  281MOL0     C37860   7.543   8.206   8.906 -0.0918  0.1738  0.1693
  281MOL0     C37861   7.640   8.141   8.805  0.7304 -0.8554 -0.6105
  281MOL0     C37862   7.711   8.029   8.881 -1.4178  0.6188 -0.0697
  281MOL0     C37863   7.792   8.068   9.004 -0.2262  0.1779  0.5379
  281MOL0     C37864   7.924   8.133   8.969 -0.0366 -0.1699  0.3655
  281MOL0     C37865   8.025   8.192   8.941  0.2281  0.1420 -0.1209
  281MOL0     C37866   7.230   8.224   8.963 -0.4171  0.3719  0.2189
  281MOL0     C37867   7.132   8.289   9.047  0.2505  1.1440  0.4891
  281MOL0     H37868   6.856   8.294   9.511 -0.2296  0.2371 -0.4032
  281MOL0     H37869   6.676   8.395   9.621  0.8553 -0.2008  2.6378
  281MOL0     H37870   6.627   8.853   9.706  1.6798 -0.1129  0.8787
  281MOL0     H37871   6.653   8.816   9.532 -3.0273 -0.1365 -0.8379
  281MOL0     H37872   6.432   8.733   9.509  0.3177 -2.9644  1.0723
  281MOL0     H37873   6.398   8.741   9.679 -3.1872  4.1195  0.0814
  281MOL0     H37874   6.436   8.995   9.660 -0.4070  2.1407 -2.5165
  281MOL0     H37875   6.492   8.971   9.494  0.5710 -0.0152  0.3401
  281MOL0     H37876   6.270   8.885   9.433 -0.8758  1.8899 -1.2604
  281MOL0     H37877   6.215   8.918   9.599 -0.8815  0.3693  0.0768
  281MOL0     H37878   6.310   9.157   9.547 -0.5532 -2.1528  1.6121
  281MOL0     H37879   6.334   9.118   9.382 -0.4987  0.4155 -1.1016
  281MOL0     H37880   6.073   9.045   9.376 -2.8160  0.9408  1.5696
  281MOL0     H37881   6.069   9.112   9.529  0.1606 -3.0404 -0.3716
  281MOL0     H37882   5.985   9.258   9.324  0.6236  0.0604 -1.0862
  281MOL0     H37883   6.105   9.337   9.436  2.4389  0.4449  1.1199
  281MOL0     H37884   6.158   9.223   9.168 -1.6042 -0.1607  0.4326
  281MOL0     H37885   6.277   9.294   9.279 -0.2718 -3.2161  1.2970
  281MOL0     H37886   5.971   9.377   9.059  0.5807 -0.8739  1.6986
  281MOL0     H37887   5.996   9.752   8.929  1.0690 -1.2068 -3.8297
  281MOL0     H37888   5.973   9.604   8.856  0.4661 -0.4202  0.0871
  281MOL0     H37889   5.762   9.572   9.000 -0.2689  0.4767 -0.3512
  281MOL0     H37890   5.782   9.737   8.910 -1.4793  2.7876  1.8720
  281MOL0     H37891   5.837   9.851   9.097  0.9813 -0.3626  0.4946
  281MOL0     H37892   5.838   9.702   9.202 -0.6299  0.7769  1.6051
  281MOL0     H37893   5.594   9.836   9.080  2.4207  2.6863  0.9375
  281MOL0     H37894   5.656   9.819   9.248  0.4279 -1.8957 -0.6110
  281MOL0     H37895   5.479   9.414   9.222 -0.6149 -0.1023 -0.4499
  281MOL0     H37896   5.186   9.298   9.392  0.3733 -4.0496  1.2594
  281MOL0     H37897   5.211   9.266   9.212  1.5285  1.3670  0.1770
  281MOL0     H37898   5.335   9.241   9.324 -0.1358 -0.3457 -2.1465
  281MOL0     H37899   4.719   9.543   9.414 -1.2348  0.5664  0.5592
  281MOL0     H37900   4.517   9.453   9.367  2.4093  2.8354  1.2934
  281MOL0     H37901   4.352   9.395   9.217 -1.4677  0.0554  0.7320
  281MOL0     H37902   4.270   9.243   9.182  0.1109 -1.5848  1.2184
  281MOL0     H37903   4.295   9.195   9.434  0.1857 -0.9102 -0.6095
  281MOL0     H37904   4.322   9.376   9.449  3.7657 -2.0873 -0.4204
  281MOL0     H37905   4.089   9.297   9.494  0.3546 -2.3865 -0.4934
  281MOL0     H37906   4.064   9.255   9.328 -1.5200 -0.4555  1.5300
  281MOL0     H37907   4.099   9.540   9.429 -1.4524  0.5359 -0.9222
  281MOL0     H37908   4.148   9.490   9.271  2.3909  0.9793  2.0965
  281MOL0     H37909   3.868   9.456   9.402  1.4007  1.1963  1.9711
  281MOL0     H37910   3.889   9.419   9.235 -0.2839  2.3690 -2.0596
  281MOL0     H37911   3.926   9.699   9.360  0.9257 -1.6900  0.7006
  281MOL0     H37912   3.981   9.662   9.196  1.5395  1.2970  0.6717
  281MOL0     H37913   3.697   9.610   9.318  0.1072 -0.2086 -1.0584
  281MOL0     H37914   3.741   9.592   9.141 -3.5416 -0.4157  0.4736
  281MOL0     H37915   3.799   9.811   9.113  0.9255 -1.1023  1.2471
  281MOL0     H37916   3.753   9.857   9.282  0.0351 -0.3476  0.9626
  281MOL0     H37917   4.684   9.098   9.187 -0.5194 -1.0063  0.6531
  281MOL0     H37918   4.916   9.183   9.258 -2.8918 -2.1837 -0.3174
  281MOL0     H37919   5.149   9.772   9.278  1.4218  0.0501 -0.7017
  281MOL0     H37920   5.377   9.824   9.204 -2.8843  1.3311 -1.3925
  281MOL0     H37921   6.865   8.773   9.583 -0.5679  0.0912  1.9567
  281MOL0     H37922   7.074   8.652   9.494 -1.0413  1.5067  1.2176
  281MOL0     H37923   7.286   8.284   9.343 -1.0368  0.8948  0.9067
  281MOL0     H37924   7.456   8.153   9.207 -0.1595 -1.4114  0.9233
  281MOL0     H37925   7.489   8.277   8.842 -1.0351 -1.1826 -0.5962
  281MOL0     H37926   7.594   8.265   8.983  3.1371 -3.5698  1.2222
  281MOL0     H37927   7.703   8.218   8.762  0.4816  0.4855  1.3109
  281MOL0     H37928   7.576   8.093   8.730 -0.1631 -0.1558 -0.3072
  281MOL0     H37929   7.775   7.979   8.808 -2.9729 -0.6131 -0.6569
  281MOL0     H37930   7.646   7.946   8.909  0.4327 -1.0237 -0.4328
  281MOL0     H37931   7.811   7.972   9.054 -1.4831 -2.3642 -3.4148
  281MOL0     H37932   7.737   8.118   9.084  0.0952  2.1531 -0.4170
  281MOL0     H37933   8.116   8.243   8.918 -0.3777  0.5076 -1.8461
  281MOL0     H37934   7.216   8.212   8.856  4.2621 -0.8708 -0.5142
  281MOL0     H37935   7.039   8.298   8.993  0.2644 -0.3342  0.1697
  282MOL0     O37936   6.862   4.400   3.435 -0.2397  0.4117 -0.0196
  282MOL0     C37937   6.903   4.435   3.324  0.0117  0.0416 -0.1143
  282MOL0     O37938   6.830   4.466   3.213  0.0318 -0.6425  0.2170
  282MOL0     C37939   6.699   4.442   3.224 -0.1029  0.1461 -0.8132
  282MOL0     C37940   6.645   4.337   3.159 -0.8136 -0.3343 -0.0055
  282MOL0     C37941   6.508   4.317   3.156 -0.1101 -0.0707  0.2474
  282MOL0     C37942   6.417   4.403   3.230  0.0519  0.9557  0.1657
  282MOL0     O37943   6.282   4.390   3.236 -0.4279  0.4979  0.3328
  282MOL0     C37944   6.229   4.271   3.173 -0.0899  0.4874  0.6462
  282MOL0     C37945   6.080   4.283   3.195  1.0477  0.6004 -0.8159
  282MOL0     C37946   5.985   4.181   3.124  0.0696 -0.9475 -0.6367
  282MOL0     C37947   5.845   4.225   3.128 -0.3723  0.1081  0.3054
  282MOL0     C37948   5.761   4.125   3.040  0.1366 -0.3295  0.3046
  282MOL0     C37949   5.611   4.166   3.029 -0.6246 -0.1530  0.8080
  282MOL0     C37950   5.530   4.046   2.976 -0.7786  0.5163  0.2553
  282MOL0     C37951   5.385   4.068   2.978 -0.1155 -0.2969  0.1486
  282MOL0     N37952   5.327   4.155   2.873 -0.2483 -0.3453  0.0843
  282MOL0     C37953   5.269   4.111   2.762  0.5145 -0.0237 -0.9999
  282MOL0     C37954   5.235   4.227   2.692 -0.4757  0.4700 -0.9185
  282MOL0     C37955   5.183   4.227   2.545  0.2414  0.6448 -1.2842
  282MOL0     C37956   5.033   4.182   2.541  0.0993 -0.0166  0.6615
  282MOL0     C37957   4.979   4.147   2.403 -0.1317 -0.4589  0.3731
  282MOL0     C37958   4.834   4.104   2.428 -1.0561  0.0449 -0.8620
  282MOL0     O37959   4.748   4.211   2.454 -0.3683  0.7535  0.7159
  282MOL0     C37960   4.622   4.198   2.409 -0.3214 -0.1211 -0.2610
  282MOL0     C37961   4.586   4.229   2.273  0.3910  0.4964 -0.2228
  282MOL0     C37962   4.461   4.212   2.222 -0.5028  0.2393 -0.3356
  282MOL0     C37963   4.439   4.261   2.078 -0.0539  0.1125 -1.2157
  282MOL0     C37964   4.365   4.156   2.303  0.1816  0.6829 -0.1492
  282MOL0     C37965   4.227   4.123   2.258  0.6512  0.1691  0.5266
  282MOL0     O37966   4.128   4.118   2.362 -0.4867  0.2400 -0.6906
  282MOL0     C37967   3.992   4.094   2.335 -0.7175  0.7082  0.8971
  282MOL0     C37968   3.953   4.019   2.219  0.1817  0.4710 -0.8156
  282MOL0     C37969   3.821   3.976   2.202  0.2395 -0.1763 -0.3718
  282MOL0     C37970   3.720   4.035   2.283  0.5032  0.4178  0.7661
  282MOL0     O37971   3.591   4.034   2.233  0.0364 -0.8282 -0.4495
  282MOL0     C37972   3.495   4.121   2.292  0.2009 -0.4779 -0.5513
  282MOL0     C37973   3.354   4.128   2.231  0.2224 -0.7561 -0.5331
  282MOL0     C37974   3.239   4.110   2.333 -0.7306  0.9129 -0.8993
  282MOL0     C37975   3.099   4.112   2.281  0.4643 -0.5166 -0.5324
  282MOL0     C37976   2.997   4.077   2.393  0.3824  0.0802 -0.0774
  282MOL0     C37977   2.853   4.071   2.336 -0.4731 -0.3828  0.4709
  282MOL0     C37978   2.745   4.060   2.455  0.4083  0.7921  0.0207
  282MOL0     C37979   2.636   3.954   2.423  0.0154 -0.0913  0.5341
  282MOL0    Cl37980   2.561   4.032   2.279  0.1762 -0.1356  0.1248
  282MOL0     C37981   3.763   4.109   2.399  0.1315  0.1673 -0.4610
  282MOL0     C37982   3.900   4.134   2.424 -0.9359 -0.1509  0.5931
  282MOL0     O37983   4.194   4.129   2.143 -0.3744  0.4393 -0.0317
  282MOL0     C37984   4.394   4.128   2.439 -0.1357 -0.8708 -0.4862
  282MOL0     C37985   4.517   4.159   2.490  0.5124  0.7367  0.1285
  282MOL0     N37986   5.240   4.327   2.778  0.1643  0.2447 -0.7634
  282MOL0     N37987   5.311   4.294   2.883  0.6689  0.1539  0.4701
  282MOL0     C37988   6.468   4.512   3.293 -0.0393 -0.8590 -0.6323
  282MOL0     C37989   6.609   4.537   3.290 -0.1869  0.4090  0.2133
  282MOL0     C37990   7.055   4.468   3.332 -0.1911 -0.2631 -0.2022
  282MOL0     C37991   7.120   4.518   3.223  0.3385 -0.2057 -0.4728
  282MOL0     C37992   7.248   4.564   3.236 -0.3673  0.1100  0.0888
  282MOL0     C37993   7.324   4.553   3.356  0.2118 -0.7198 -0.3203
  282MOL0     O37994   7.457   4.581   3.356  0.3333  0.9835 -0.6624
  282MOL0     C37995   7.497   4.700   3.282 -0.2158 -0.4671  0.2648
  282MOL0     C37996   7.629   4.749   3.329  0.0532 -0.6462 -0.1145
  282MOL0     C37997   7.658   4.898   3.292 -0.0055 -0.3520  0.6719
  282MOL0     C37998   7.684   4.933   3.146 -0.8099 -0.8577 -0.8820
  282MOL0     C37999   7.819   4.886   3.108 -0.2413  0.7626 -0.1392
  282MOL0     C38000   7.924   4.832   3.079 -0.0785 -0.3395  0.1968
  282MOL0     C38001   7.259   4.503   3.466 -0.3070 -0.2305  0.3425
  282MOL0     C38002   7.127   4.466   3.455 -0.3617 -0.6682  0.0020
  282MOL0     H38003   6.718   4.276   3.108  3.2657  2.1915  2.2970
  282MOL0     H38004   6.484   4.232   3.094  1.0567  0.0365 -0.3688
  282MOL0     H38005   6.244   4.264   3.065  1.3476  1.4421  0.7586
  282MOL0     H38006   6.279   4.183   3.213  1.9684  1.4081  0.2383
  282MOL0     H38007   6.059   4.272   3.301  0.0122  2.4857 -0.7793
  282MOL0     H38008   6.046   4.384   3.168  0.7343  0.4814 -0.8726
  282MOL0     H38009   6.026   4.170   3.023  1.7866 -3.3087  0.2406
  282MOL0     H38010   5.996   4.085   3.175 -0.2644 -0.8878 -0.4515
  282MOL0     H38011   5.812   4.220   3.232  2.2900 -1.7436  1.1711
  282MOL0     H38012   5.838   4.325   3.084 -1.3501 -0.6475 -1.3486
  282MOL0     H38013   5.800   4.114   2.938  1.0901  0.7837  0.5211
  282MOL0     H38014   5.754   4.028   3.089 -2.0224 -0.6915 -0.6087
  282MOL0     H38015   5.584   4.187   3.133 -0.6278  1.8577  0.4343
  282MOL0     H38016   5.587   4.253   2.968 -0.8779  0.0883  1.2534
  282MOL0     H38017   5.552   4.020   2.872 -2.6777 -2.5479  0.4758
  282MOL0     H38018   5.563   3.964   3.040  3.9919  2.9816  1.3826
  282MOL0     H38019   5.364   4.128   3.067  0.3431 -0.0478  0.0916
  282MOL0     H38020   5.323   3.979   2.967 -0.4743  0.0077 -0.3272
  282MOL0     H38021   5.264   4.009   2.726  0.0483 -1.2296  2.1623
  282MOL0     H38022   5.184   4.330   2.509  0.9632  1.2323  0.3160
  282MOL0     H38023   5.242   4.157   2.484 -0.8629 -3.2582  1.7048
  282MOL0     H38024   4.975   4.262   2.589  1.3184 -0.2957  2.7244
  282MOL0     H38025   5.027   4.091   2.601  1.5513  0.1030  1.0254
  282MOL0     H38026   5.040   4.067   2.360 -1.4328 -1.3826  0.1694
  282MOL0     H38027   4.976   4.224   2.326  1.3582  0.0811  0.8391
  282MOL0     H38028   4.829   4.047   2.522 -0.7995 -1.4151 -1.6989
  282MOL0     H38029   4.797   4.042   2.346 -1.5330  0.4516 -0.9590
  282MOL0     H38030   4.663   4.278   2.214 -0.2156  1.2683 -0.3980
  282MOL0     H38031   4.436   4.169   2.018 -0.9740 -1.3031  0.9038
  282MOL0     H38032   4.344   4.315   2.067 -1.4391 -1.8979  0.1369
  282MOL0     H38033   4.525   4.321   2.048 -0.8938  2.3630  0.6220
  282MOL0     H38034   4.020   3.973   2.148  2.5884  0.4166  1.3211
  282MOL0     H38035   3.787   3.913   2.121  0.0880 -1.3582  0.5867
  282MOL0     H38036   3.486   4.079   2.393 -1.2576  0.0746 -0.4248
  282MOL0     H38037   3.540   4.221   2.293 -1.3524  0.2829 -2.1945
  282MOL0     H38038   3.341   4.228   2.190 -2.2511 -0.9327 -0.3306
  282MOL0     H38039   3.340   4.051   2.154 -2.7118  0.1226 -0.9785
  282MOL0     H38040   3.241   4.198   2.398 -3.0077  0.4091 -0.0550
  282MOL0     H38041   3.247   4.018   2.390  4.0902 -0.3517 -3.1034
  282MOL0     H38042   3.072   4.205   2.230  0.1422  0.8013  1.9184
  282MOL0     H38043   3.097   4.030   2.208 -1.3946 -0.8911 -0.1049
  282MOL0     H38044   2.994   4.156   2.469 -2.4367 -0.5882  0.6393
  282MOL0     H38045   3.022   3.983   2.442 -0.5502  0.9992  2.3543
  282MOL0     H38046   2.840   4.164   2.279 -0.5225 -1.5986 -1.5747
  282MOL0     H38047   2.845   3.989   2.264  1.0979  0.6611 -0.9863
  282MOL0     H38048   2.697   4.156   2.475  0.1663  0.5050  0.8674
  282MOL0     H38049   2.805   4.030   2.542  2.3424  4.0596 -0.0510
  282MOL0     H38050   2.569   3.964   2.508 -1.1923 -2.3159 -0.0817
  282MOL0     H38051   2.670   3.853   2.400  0.6659 -0.0180  1.1398
  282MOL0     H38052   3.692   4.147   2.472  2.6216 -1.5178  3.0868
  282MOL0     H38053   3.939   4.179   2.514 -0.5563  0.8570 -0.0498
  282MOL0     H38054   4.323   4.093   2.513  0.9413  1.3470  1.7764
  282MOL0     H38055   4.533   4.139   2.595  0.7936  2.2438  0.4045
  282MOL0     H38056   6.395   4.570   3.349  0.0016 -1.6091  0.2159
  282MOL0     H38057   6.646   4.628   3.338 -2.3673  0.1389  2.6242
  282MOL0     H38058   7.065   4.544   3.134  3.0744  0.5484 -2.0465
  282MOL0     H38059   7.297   4.591   3.143 -1.4158 -1.0596 -0.8272
  282MOL0     H38060   7.509   4.673   3.177 -1.4033 -2.5872  0.6036
  282MOL0     H38061   7.418   4.774   3.295 -0.0737 -0.4490  1.0581
  282MOL0     H38062   7.709   4.685   3.291 -0.3944 -2.5457  1.9755
  282MOL0     H38063   7.628   4.746   3.438 -1.8750 -0.4178 -0.0873
  282MOL0     H38064   7.754   4.913   3.344  0.5095 -0.0635 -0.3413
  282MOL0     H38065   7.593   4.966   3.348 -0.6884 -0.3343 -0.1407
  282MOL0     H38066   7.684   5.042   3.135  1.8359 -0.3883  2.2647
  282MOL0     H38067   7.601   4.895   3.086  0.4133 -0.3593 -2.9902
  282MOL0     H38068   8.018   4.793   3.046  0.6234  0.9312  0.6535
  282MOL0     H38069   7.314   4.480   3.557  1.8244 -2.3065 -1.3259
  282MOL0     H38070   7.083   4.437   3.549 -0.4884  1.4640  0.6596
  283MOL0     O38071   8.380   3.101   2.401  1.2594 -0.2533  0.8527
  283MOL0     C38072   8.437   3.213   2.416  0.8744  0.1165 -0.1278
  283MOL0     O38073   8.368   3.329   2.436 -0.0205  0.1149  0.3919
  283MOL0     C38074   8.234   3.325   2.446  0.1777 -1.0241 -0.3229
  283MOL0     C38075   8.155   3.237   2.528  0.1837  0.8780 -0.1195
  283MOL0     C38076   8.013   3.245   2.527 -0.1196  0.1175  0.2819
  283MOL0     C38077   7.943   3.334   2.444  0.6117 -0.3089 -0.5416
  283MOL0     O38078   7.799   3.331   2.452 -0.7543 -0.3665  0.1495
  283MOL0     C38079   7.727   3.420   2.369  0.7179  0.1084  0.3720
  283MOL0     C38080   7.574   3.416   2.399  0.0335  0.2217  0.9653
  283MOL0     C38081   7.484   3.507   2.318 -0.7078  0.7048 -0.0997
  283MOL0     C38082   7.344   3.489   2.354 -0.4405  0.0004 -0.0790
  283MOL0     C38083   7.248   3.587   2.293  0.0451 -0.1057  0.1528
  283MOL0     C38084   7.108   3.563   2.346 -0.9279  0.3610  0.2021
  283MOL0     C38085   6.990   3.651   2.286  0.1269 -0.1010 -0.8881
  283MOL0     C38086   6.950   3.595   2.148  0.3642  0.5993  0.2856
  283MOL0     N38087   6.813   3.626   2.107  0.0838  0.3866 -0.1403
  283MOL0     C38088   6.705   3.558   2.166  0.6914 -0.4410 -0.5783
  283MOL0     C38089   6.599   3.636   2.139  0.6049 -0.4456 -0.7918
  283MOL0     C38090   6.459   3.613   2.202 -0.0657 -0.1297 -0.4979
  283MOL0     C38091   6.349   3.570   2.115 -0.3694  1.2092  0.4012
  283MOL0     C38092   6.299   3.696   2.040 -0.0880  0.6476  0.2038
  283MOL0     C38093   6.156   3.671   1.975 -1.5341 -0.7610 -0.0677
  283MOL0     O38094   6.078   3.782   2.035 -0.2091 -0.1956  0.1951
  283MOL0     C38095   5.939   3.766   2.028  0.7088 -1.2379  0.5265
  283MOL0     C38096   5.856   3.842   2.101  0.3881  0.4455  0.1470
  283MOL0     C38097   5.711   3.831   2.084 -0.8879 -0.9228  0.7238
  283MOL0     C38098   5.628   3.911   2.177 -0.1844  0.3189  0.1345
  283MOL0     C38099   5.659   3.739   1.991 -0.2823  0.1747  0.3572
  283MOL0     C38100   5.511   3.708   1.982 -0.2235  0.6679  0.1574
  283MOL0     O38101   5.487   3.600   1.902  0.0325 -0.1266  0.1233
  283MOL0     C38102   5.358   3.589   1.859  0.3801 -0.4054 -0.2201
  283MOL0     C38103   5.272   3.485   1.906 -0.4700  0.3367  0.4661
  283MOL0     C38104   5.146   3.459   1.847 -0.4642 -0.4638  0.0325
  283MOL0     C38105   5.088   3.557   1.760  0.3504  0.0109  0.3290
  283MOL0     O38106   4.956   3.542   1.718 -0.6112 -0.4702 -0.5570
  283MOL0     C38107   4.886   3.665   1.687  0.2930 -0.0328 -0.0190
  283MOL0     C38108   4.735   3.641   1.696 -0.7710 -0.2513  0.6458
  283MOL0     C38109   4.696   3.528   1.600  0.4719 -0.9902 -0.0029
  283MOL0     C38110   4.550   3.507   1.607  0.8772 -0.2241  0.0680
  283MOL0     C38111   4.507   3.397   1.510 -0.0086 -0.2972  0.5084
  283MOL0     C38112   4.354   3.390   1.502  0.1956 -0.0508  0.1172
  283MOL0     C38113   4.306   3.280   1.408 -0.6320 -0.2483 -0.8751
  283MOL0     C38114   4.157   3.301   1.378 -0.2530  0.2301  0.4510
  283MOL0    Cl38115   4.110   3.159   1.289 -0.1277  0.0261 -0.1437
  283MOL0     C38116   5.170   3.665   1.719 -0.6329  0.0078  0.2835
  283MOL0     C38117   5.299   3.677   1.767 -0.4919  0.6612 -0.3099
  283MOL0     O38118   5.425   3.789   2.017  0.1535 -0.9290 -0.7617
  283MOL0     C38119   5.742   3.673   1.903 -0.5621  0.4346 -0.7293
  283MOL0     C38120   5.882   3.685   1.933 -0.2662  0.2388  0.0033
  283MOL0     N38121   6.634   3.744   2.069  0.6032  0.3537 -0.2198
  283MOL0     N38122   6.765   3.744   2.062  0.2691  0.2134  0.1789
  283MOL0     C38123   8.016   3.409   2.354  0.6126  0.4193  0.0720
  283MOL0     C38124   8.158   3.411   2.367  0.2688  0.3372  0.5534
  283MOL0     C38125   8.583   3.222   2.406  0.1685 -0.4288  0.4644
  283MOL0     C38126   8.656   3.106   2.403 -0.4095 -0.6445  0.8882
  283MOL0     C38127   8.797   3.109   2.381  0.2061 -0.1070 -0.2198
  283MOL0     C38128   8.873   3.226   2.369 -0.3109  0.2878 -0.3791
  283MOL0     O38129   9.013   3.220   2.375 -0.2929  0.2387 -0.2828
  283MOL0     C38130   9.066   3.104   2.310 -0.0888 -0.7509  0.2495
  283MOL0     C38131   9.208   3.139   2.269  0.1920  0.1094  0.0289
  283MOL0     C38132   9.304   3.105   2.383 -1.2752  0.0705  1.4497
  283MOL0     C38133   9.455   3.127   2.337  1.0175 -0.2742  0.8834
  283MOL0     C38134   9.496   3.076   2.202  0.1453 -0.1164 -0.3089
  283MOL0     C38135   9.533   3.042   2.091  0.1090  0.3420 -0.1801
  283MOL0     C38136   8.802   3.340   2.390 -0.0206 -0.5541  0.5060
  283MOL0     C38137   8.655   3.348   2.401  0.2345 -0.6876 -0.8286
  283MOL0     H38138   8.209   3.164   2.587  0.7227  2.3393  1.2749
  283MOL0     H38139   7.962   3.182   2.599  0.5835  0.3904  1.0454
  283MOL0     H38140   7.767   3.521   2.377 -0.1941  0.4943  0.2218
  283MOL0     H38141   7.728   3.394   2.263  0.4127  2.7463 -0.3335
  283MOL0     H38142   7.544   3.311   2.391 -0.4296  0.4883 -2.0919
  283MOL0     H38143   7.559   3.458   2.499 -2.7943  3.9097 -0.7595
  283MOL0     H38144   7.502   3.610   2.349  1.7566  0.6122 -0.9683
  283MOL0     H38145   7.497   3.491   2.211  3.2185  0.2974  0.2665
  283MOL0     H38146   7.313   3.386   2.332 -0.0598 -0.7010  2.3123
  283MOL0     H38147   7.339   3.507   2.462  0.2465  0.3848 -0.1021
  283MOL0     H38148   7.277   3.689   2.318  0.8914 -0.2845 -0.0692
  283MOL0     H38149   7.251   3.572   2.184 -1.7754  0.9186 -0.0838
  283MOL0     H38150   7.077   3.458   2.337 -1.3247  0.4214  0.8289
  283MOL0     H38151   7.114   3.578   2.454  1.7968  3.2972 -0.2120
  283MOL0     H38152   6.906   3.652   2.356 -0.6833  0.7331 -1.8471
  283MOL0     H38153   7.040   3.747   2.271 -2.4381  1.0265 -3.1878
  283MOL0     H38154   6.971   3.488   2.148  1.8453  0.8595 -0.7668
  283MOL0     H38155   7.015   3.620   2.063  1.8582 -3.3542  0.0639
  283MOL0     H38156   6.696   3.472   2.232 -0.8971  0.4672  0.4379
  283MOL0     H38157   6.466   3.532   2.275 -2.3336  0.7072  0.7528
  283MOL0     H38158   6.429   3.702   2.259 -0.1488 -1.8994  2.4083
  283MOL0     H38159   6.266   3.532   2.175 -1.1151  0.6496 -0.9472
  283MOL0     H38160   6.383   3.490   2.048  1.2088  1.4056  0.9121
  283MOL0     H38161   6.368   3.721   1.959 -1.1110  1.3079 -0.4765
  283MOL0     H38162   6.303   3.780   2.109  0.4894  0.2164  0.7160
  283MOL0     H38163   6.123   3.570   2.001  1.7545 -1.5789  1.4172
  283MOL0     H38164   6.161   3.688   1.867 -1.2993  0.7173  0.1619
  283MOL0     H38165   5.901   3.910   2.173 -0.9833  2.0568 -0.4484
  283MOL0     H38166   5.682   3.980   2.242  0.4787  0.9471 -1.0559
  283MOL0     H38167   5.563   3.976   2.119  0.5685 -0.6060 -1.8528
  283MOL0     H38168   5.564   3.844   2.235  1.0674  0.7240  2.0917
  283MOL0     H38169   5.320   3.411   1.971  0.2562  0.2119 -0.1905
  283MOL0     H38170   5.089   3.369   1.868 -0.9488  0.3195  2.4429
  283MOL0     H38171   4.919   3.741   1.758  0.1767 -0.9927  1.0771
  283MOL0     H38172   4.915   3.699   1.587 -1.8938  1.1190 -0.3244
  283MOL0     H38173   4.714   3.607   1.797  0.2256 -1.3162  0.5245
  283MOL0     H38174   4.675   3.729   1.672  0.9450  0.4532 -1.5322
  283MOL0     H38175   4.748   3.437   1.631  2.0800  0.5400  2.1229
  283MOL0     H38176   4.743   3.549   1.504 -3.5480  2.2894 -1.5631
  283MOL0     H38177   4.505   3.483   1.704 -2.7204  1.6834 -0.9454
  283MOL0     H38178   4.494   3.596   1.575 -0.9025 -0.8580  1.2878
  283MOL0     H38179   4.553   3.309   1.557  2.2143  0.6436  0.2371
  283MOL0     H38180   4.553   3.412   1.412 -0.5324 -0.6580  0.2033
  283MOL0     H38181   4.319   3.379   1.605  2.1553  0.7083  0.9145
  283MOL0     H38182   4.330   3.486   1.455  1.9029  0.1161 -0.4921
  283MOL0     H38183   4.324   3.192   1.470 -0.5043  2.1804  2.8576
  283MOL0     H38184   4.362   3.272   1.314 -2.2415  0.5714 -1.9749
  283MOL0     H38185   4.139   3.386   1.310 -1.2745  0.5879  1.1388
  283MOL0     H38186   4.100   3.311   1.471 -1.7132  1.1811 -0.4948
  283MOL0     H38187   5.127   3.728   1.643 -1.3196 -1.8510 -0.9490
  283MOL0     H38188   5.355   3.763   1.733 -0.8112  1.0495  0.1339
  283MOL0     H38189   5.708   3.601   1.829  0.2457  0.1418 -0.8242
  283MOL0     H38190   5.942   3.618   1.872  1.1870  0.4149  1.1932
  283MOL0     H38191   7.971   3.468   2.275 -0.3724 -0.9435 -0.4374
  283MOL0     H38192   8.222   3.469   2.300  1.1021 -0.2869  0.7880
  283MOL0     H38193   8.605   3.010   2.398 -0.6527 -0.4727 -0.5312
  283MOL0     H38194   8.859   3.020   2.379  0.8373  0.3098  0.0926
  283MOL0     H38195   9.063   3.020   2.380  0.7152  1.0890  2.6188
  283MOL0     H38196   9.001   3.083   2.224  1.5293 -0.0714 -1.2097
  283MOL0     H38197   9.223   3.235   2.220  0.4299  0.4738  0.7975
  283MOL0     H38198   9.221   3.062   2.193 -2.8296 -0.4393 -0.0627
  283MOL0     H38199   9.291   2.997   2.398 -2.6270 -0.3045 -1.5615
  283MOL0     H38200   9.286   3.158   2.477 -1.0424 -2.3017  2.9093
  283MOL0     H38201   9.514   3.072   2.410 -1.3062 -1.5296  1.9032
  283MOL0     H38202   9.476   3.234   2.346 -1.0345  0.3902 -1.2244
  283MOL0     H38203   9.555   3.017   1.989 -2.6624 -0.3682 -0.6737
  283MOL0     H38204   8.846   3.439   2.391  0.9553 -0.9550 -0.4979
  283MOL0     H38205   8.607   3.442   2.425 -0.0435 -1.2040  0.8163
  284MOL0     O38206  10.390   7.226   0.757  0.0739 -0.7819 -0.5999
  284MOL0     C38207  10.438   7.339   0.745 -0.4542 -0.2276 -0.5181
  284MOL0     O38208  10.375   7.461   0.752  0.2358 -0.2581  0.3654
  284MOL0     C38209  10.247   7.460   0.805  0.1209 -0.2575 -0.2398
  284MOL0     C38210  10.157   7.543   0.741 -0.4579 -0.4837 -0.1495
  284MOL0     C38211  10.028   7.553   0.789 -0.2761  0.9721  0.3309
  284MOL0     C38212   9.996   7.488   0.913 -0.2861  0.1499  0.4881
  284MOL0     O38213   9.870   7.486   0.972 -0.2040  0.0368  0.1022
  284MOL0     C38214   9.763   7.543   0.899 -0.1039  0.2828 -0.7475
  284MOL0     C38215   9.644   7.507   0.977  1.2403 -0.4596  0.6549
  284MOL0     C38216   9.516   7.565   0.912  0.4653 -0.0209 -0.4128
  284MOL0     C38217   9.387   7.500   0.954  0.0406 -0.1733 -0.0578
  284MOL0     C38218   9.277   7.588   0.900 -1.0711 -0.8691  0.9345
  284MOL0     C38219   9.143   7.531   0.934 -1.0712 -0.0818 -0.9653
  284MOL0     C38220   9.034   7.567   0.836  1.0250  0.1787 -0.5041
  284MOL0     C38221   9.036   7.458   0.720  0.1305 -0.0908  0.0788
  284MOL0     N38222   8.956   7.342   0.753 -0.2433 -0.0665  0.5809
  284MOL0     C38223   8.836   7.310   0.698 -0.5360 -0.0370 -0.0042
  284MOL0     C38224   8.805   7.193   0.760 -0.2254 -0.3317  0.4069
  284MOL0     C38225   8.679   7.111   0.719 -0.0279  0.4061 -0.4917
  284MOL0     C38226   8.590   7.073   0.843 -0.0443 -0.1341 -0.0476
  284MOL0     C38227   8.544   6.926   0.838  0.5704  0.0335 -0.4065
  284MOL0     C38228   8.443   6.920   0.736  0.5423 -0.5325  0.2413
  284MOL0     O38229   8.312   6.962   0.771  0.4908 -0.6615 -0.3978
  284MOL0     C38230   8.222   6.991   0.666  1.0728 -0.3521  0.2305
  284MOL0     C38231   8.228   6.937   0.533  0.2424  0.4507 -0.5243
  284MOL0     C38232   8.119   6.967   0.450  1.1435 -0.7356  0.3251
  284MOL0     C38233   8.130   6.929   0.299  1.2965  0.3894 -0.4544
  284MOL0     C38234   8.012   7.047   0.500  0.5043 -0.0792  0.0240
  284MOL0     C38235   7.891   7.087   0.426 -0.0382  0.8586 -0.3610
  284MOL0     O38236   7.876   7.028   0.298  0.1752  0.1470  0.5376
  284MOL0     C38237   7.756   7.038   0.228 -0.0048 -0.0581 -0.6262
  284MOL0     C38238   7.626   6.999   0.286 -0.2807 -0.8434 -0.1384
  284MOL0     C38239   7.516   6.993   0.198  0.8794 -0.8300  0.0049
  284MOL0     C38240   7.531   7.030   0.058  0.6003 -0.1140 -0.6978
  284MOL0     O38241   7.420   7.038  -0.028  0.0128 -0.2952  0.2237
  284MOL0     C38242   7.290   7.038   0.034 -0.0806  0.3910  0.3817
  284MOL0     C38243   7.181   7.103  -0.049 -0.2657 -0.1913  0.5482
  284MOL0     C38244   7.215   7.239  -0.117  0.8647 -0.7476 -0.3308
  284MOL0     C38245   7.081   7.309  -0.137 -1.1313 -0.4632  0.7712
  284MOL0     C38246   7.119   7.456  -0.168  0.1954  0.3995 -0.7556
  284MOL0     C38247   7.005   7.557  -0.147  0.3524 -0.0810  0.1104
  284MOL0     C38248   7.049   7.684  -0.211  0.1302 -0.5770 -0.1968
  284MOL0     C38249   6.922   7.765  -0.224  0.1307 -0.2612 -0.7079
  284MOL0    Cl38250   6.826   7.793  -0.077 -0.3096 -0.3677 -0.2048
  284MOL0     C38251   7.655   7.068   0.010  0.4747  0.4073  0.2081
  284MOL0     C38252   7.765   7.065   0.089  0.4170  0.1954 -0.3028
  284MOL0     O38253   7.798   7.137   0.486 -0.0963  0.6834 -0.9344
  284MOL0     C38254   8.011   7.097   0.633 -0.7556  0.4183  0.4654
  284MOL0     C38255   8.117   7.067   0.711  0.8930  0.6738  1.1331
  284MOL0     N38256   8.915   7.147   0.829  0.5196 -0.0764 -0.1158
  284MOL0     N38257   9.003   7.245   0.831 -0.0767  0.6359  0.1453
  284MOL0     C38258  10.096   7.416   0.987  0.4255  0.9522  0.4426
  284MOL0     C38259  10.220   7.397   0.925 -0.4197 -0.0448 -0.8263
  284MOL0     C38260  10.573   7.353   0.675 -0.3944 -0.6052 -0.1975
  284MOL0     C38261  10.654   7.470   0.685 -0.5381 -0.5804 -0.5387
  284MOL0     C38262  10.782   7.475   0.634  0.8737  0.1301 -0.0662
  284MOL0     C38263  10.843   7.359   0.581  0.5993  0.1550  0.5736
  284MOL0     O38264  10.973   7.346   0.515 -0.0291  0.0324  0.5352
  284MOL0     C38265  11.043   7.471   0.511 -0.1139  0.2747  0.0081
  284MOL0     C38266  11.159   7.438   0.415  0.8533 -0.5127 -0.0787
  284MOL0     C38267  11.253   7.324   0.463  0.0402 -0.0603  0.0370
  284MOL0     C38268  11.290   7.230   0.349 -0.3904 -0.3883 -0.1034
  284MOL0     C38269  11.406   7.284   0.277 -0.3989  0.2257  0.1925
  284MOL0     C38270  11.502   7.315   0.210 -0.6336  0.3959 -0.1981
  284MOL0     C38271  10.758   7.246   0.568  0.1574 -0.3878  1.0063
  284MOL0     C38272  10.625   7.239   0.610  0.2281 -0.4303 -0.3945
  284MOL0     H38273  10.180   7.595   0.648 -0.2455 -0.8578 -0.3081
  284MOL0     H38274   9.948   7.593   0.727  0.2472 -1.3319 -2.0174
  284MOL0     H38275   9.777   7.652   0.896  3.0354  0.0919  1.7679
  284MOL0     H38276   9.758   7.493   0.802  2.9127 -2.0537  0.1446
  284MOL0     H38277   9.639   7.399   0.991  2.3926 -0.5749  0.3179
  284MOL0     H38278   9.648   7.548   1.078 -0.9628  1.4833  0.0443
  284MOL0     H38279   9.514   7.667   0.953  0.7796 -0.6634  1.2720
  284MOL0     H38280   9.521   7.555   0.803 -1.5841  1.1884 -0.6859
  284MOL0     H38281   9.368   7.401   0.911 -0.4212  0.0752 -0.4376
  284MOL0     H38282   9.380   7.497   1.063 -1.9188 -4.0697 -0.1226
  284MOL0     H38283   9.282   7.691   0.938 -4.2577 -0.6532  1.0173
  284MOL0     H38284   9.301   7.582   0.794 -0.4773 -0.8961  1.0623
  284MOL0     H38285   9.149   7.422   0.935  1.9650  0.0145 -0.0349
  284MOL0     H38286   9.109   7.575   1.028 -0.2650  0.7536 -1.0440
  284MOL0     H38287   8.935   7.569   0.882  1.5008  0.5389  0.5416
  284MOL0     H38288   9.058   7.669   0.804 -0.8838  0.6078 -0.7079
  284MOL0     H38289   9.142   7.443   0.695  0.8884  2.7935  1.1418
  284MOL0     H38290   8.991   7.509   0.634 -2.1931 -1.6251  0.3183
  284MOL0     H38291   8.773   7.369   0.632 -0.1574  1.2791  0.7828
  284MOL0     H38292   8.623   7.151   0.634  1.4656  0.9035 -1.2735
  284MOL0     H38293   8.724   7.018   0.684 -0.1858 -0.3501  1.2412
  284MOL0     H38294   8.509   7.147   0.842  0.7708  0.7920 -1.7028
  284MOL0     H38295   8.649   7.081   0.934  1.8702  1.0574 -1.3265
  284MOL0     H38296   8.510   6.895   0.938 -0.2489 -1.7193 -1.1867
  284MOL0     H38297   8.624   6.855   0.816 -1.0359 -2.1606  0.4759
  284MOL0     H38298   8.438   6.814   0.708  0.9098 -0.9753  1.7383
  284MOL0     H38299   8.474   6.977   0.648 -0.6722 -1.1234 -0.6039
  284MOL0     H38300   8.311   6.876   0.498 -2.3751 -3.2400 -0.9552
  284MOL0     H38301   8.167   7.019   0.249  1.0181  0.3522 -0.7273
  284MOL0     H38302   8.219   6.867   0.287  1.4340  0.5566 -0.3114
  284MOL0     H38303   8.040   6.871   0.277  1.6269 -0.8382  1.2116
  284MOL0     H38304   7.612   6.975   0.391  1.7197 -5.6772 -0.7295
  284MOL0     H38305   7.419   6.955   0.227 -0.6278 -0.1497 -3.6220
  284MOL0     H38306   7.254   6.938   0.059 -3.3160  0.9231 -1.4946
  284MOL0     H38307   7.299   7.090   0.130  0.6228 -1.0918  1.1633
  284MOL0     H38308   7.169   7.036  -0.135 -1.0360  1.1007 -0.3929
  284MOL0     H38309   7.093   7.114   0.015  0.1287  0.9001  0.9316
  284MOL0     H38310   7.273   7.228  -0.209  0.3197 -0.4240 -0.7163
  284MOL0     H38311   7.275   7.300  -0.049 -0.6216  2.3941 -1.6632
  284MOL0     H38312   7.032   7.257  -0.219  0.4645 -3.3625  1.4870
  284MOL0     H38313   7.013   7.308  -0.052 -2.2386 -2.4194 -0.0747
  284MOL0     H38314   7.157   7.462  -0.270  1.6804  1.5312 -0.1740
  284MOL0     H38315   7.198   7.486  -0.098 -0.0803  1.3760 -0.8435
  284MOL0     H38316   6.909   7.520  -0.186 -0.8042 -0.0038  2.6359
  284MOL0     H38317   6.986   7.568  -0.040  0.2768  0.2205  0.0665
  284MOL0     H38318   7.086   7.665  -0.313 -0.3599  0.6239 -0.6112
  284MOL0     H38319   7.126   7.731  -0.150 -1.7086  1.0538  0.9939
  284MOL0     H38320   6.851   7.716  -0.291  0.9416 -1.4544 -0.7272
  284MOL0     H38321   6.955   7.864  -0.258  2.4326 -0.1316  1.5913
  284MOL0     H38322   7.677   7.091  -0.093  1.2938  2.2945  0.7576
  284MOL0     H38323   7.854   7.091   0.034 -0.3139  0.5626 -1.3567
  284MOL0     H38324   7.950   7.174   0.679  2.3720  2.0282  2.3032
  284MOL0     H38325   8.116   7.118   0.807 -3.1228  0.3342  1.4538
  284MOL0     H38326  10.077   7.366   1.081 -0.3088 -4.0500 -2.0231
  284MOL0     H38327  10.296   7.329   0.962 -1.2330 -2.3314 -3.0897
  284MOL0     H38328  10.620   7.554   0.745 -0.2510 -0.6843 -0.2299
  284MOL0     H38329  10.829   7.573   0.636  1.4058 -0.1275  0.5332
  284MOL0     H38330  10.982   7.557   0.482  0.4738  1.0922  1.1105
  284MOL0     H38331  11.080   7.506   0.608  1.4753 -0.8286 -0.1621
  284MOL0     H38332  11.225   7.523   0.397  1.8638 -1.5040 -1.2453
  284MOL0     H38333  11.128   7.416   0.313  0.9049 -1.2422  0.0574
  284MOL0     H38334  11.201   7.260   0.536 -0.9462 -2.6563 -2.7443
  284MOL0     H38335  11.343   7.361   0.513 -0.5268 -0.9154  1.7770
  284MOL0     H38336  11.195   7.211   0.298 -0.6359 -1.0499  0.5756
  284MOL0     H38337  11.334   7.144   0.401 -1.2101 -0.0498  1.2049
  284MOL0     H38338  11.576   7.351   0.142  0.2105 -0.3042  0.3364
  284MOL0     H38339  10.797   7.165   0.507 -3.1818 -1.2894 -0.1596
  284MOL0     H38340  10.558   7.156   0.594 -0.6679  0.5349 -1.9572
  285MOL0     O38341   5.159   5.128   8.820  0.0201 -0.3597 -0.1795
  285MOL0     C38342   5.200   5.025   8.869  0.0759  1.0615 -0.0366
  285MOL0     O38343   5.121   4.925   8.909 -0.4052  0.3611 -0.0762
  285MOL0     C38344   4.986   4.915   8.872  0.0973  0.5330 -0.2079
  285MOL0     C38345   4.893   5.026   8.866  0.1987 -0.0149 -0.2619
  285MOL0     C38346   4.757   5.007   8.834  0.3257 -0.8858 -0.2678
  285MOL0     C38347   4.705   4.878   8.799 -0.7295  0.1890 -0.5509
  285MOL0     O38348   4.583   4.837   8.759  0.5877  0.1822  0.9473
  285MOL0     C38349   4.465   4.917   8.802 -0.7769  0.3643  0.6869
  285MOL0     C38350   4.354   4.817   8.839 -0.0747  0.3354  0.6067
  285MOL0     C38351   4.234   4.901   8.893 -0.0715 -0.9533  0.4121
  285MOL0     C38352   4.119   4.804   8.916  0.5368 -1.0323 -0.4222
  285MOL0     C38353   4.000   4.882   8.971 -0.2798 -0.1059 -0.2412
  285MOL0     C38354   3.862   4.813   8.964  1.0390 -0.1375  0.1775
  285MOL0     C38355   3.761   4.896   9.031  0.6541  0.0311 -1.4918
  285MOL0     C38356   3.626   4.827   9.051  0.0086  0.3106 -0.5394
  285MOL0     N38357   3.527   4.851   8.944  0.1562 -0.7170  0.6228
  285MOL0     C38358   3.397   4.865   8.959  0.0277 -0.2356 -0.7227
  285MOL0     C38359   3.346   4.912   8.841 -0.1229 -0.7265  0.8294
  285MOL0     C38360   3.201   4.938   8.813 -0.8305 -0.8086 -0.5533
  285MOL0     C38361   3.150   5.056   8.898 -0.4306  0.2446  0.6532
  285MOL0     C38362   2.997   5.074   8.883  0.1315 -0.4402 -0.3230
  285MOL0     C38363   2.942   5.120   8.751 -0.2253  0.6690  1.3524
  285MOL0     O38364   2.925   5.263   8.746  0.2553 -0.3415 -0.2138
  285MOL0     C38365   2.820   5.323   8.817  0.7902  0.5634 -0.2266
  285MOL0     C38366   2.700   5.257   8.846  0.4173  0.2943 -1.9674
  285MOL0     C38367   2.610   5.317   8.934  0.2714 -0.3046  0.0828
  285MOL0     C38368   2.520   5.216   8.999 -0.1681  0.8101 -0.6560
  285MOL0     C38369   2.615   5.453   8.967  0.5530 -0.4413  0.4944
  285MOL0     C38370   2.524   5.528   9.050 -0.6897  0.1535 -0.8240
  285MOL0     O38371   2.518   5.666   9.039 -0.0658 -0.3368 -0.2448
  285MOL0     C38372   2.445   5.724   9.136  0.1357 -0.5583 -0.8064
  285MOL0     C38373   2.521   5.785   9.239  0.2498  0.0305  0.4582
  285MOL0     C38374   2.453   5.858   9.345  0.2260 -0.2243 -0.0046
  285MOL0     C38375   2.316   5.855   9.356 -0.6586  0.5465  0.4244
  285MOL0     O38376   2.256   5.929   9.462 -0.3154  0.0387 -0.3969
  285MOL0     C38377   2.122   5.975   9.428  0.0357  0.1720  0.3134
  285MOL0     C38378   2.070   6.080   9.536 -0.1388  1.0182  0.1140
  285MOL0     C38379   1.936   6.135   9.486 -0.6643 -0.5455 -0.3623
  285MOL0     C38380   1.853   6.175   9.615  0.7614  0.1774 -0.6626
  285MOL0     C38381   1.733   6.261   9.573  0.3614  0.5604  0.4098
  285MOL0     C38382   1.769   6.410   9.571  0.2905 -0.2280  0.1535
  285MOL0     C38383   1.656   6.507   9.545 -0.0116  0.1842 -0.2662
  285MOL0     C38384   1.577   6.547   9.668 -0.6935  0.6383 -0.5456
  285MOL0    Cl38385   1.416   6.572   9.605 -0.0696 -0.0164 -0.4577
  285MOL0     C38386   2.242   5.793   9.248 -0.5543  0.4462 -0.0664
  285MOL0     C38387   2.307   5.730   9.139 -0.4136  0.5477  1.1765
  285MOL0     O38388   2.454   5.460   9.125  0.2807 -0.0742  0.0335
  285MOL0     C38389   2.723   5.524   8.921 -1.0382 -0.1557  0.2726
  285MOL0     C38390   2.816   5.461   8.839 -0.3024 -0.1662  0.5086
  285MOL0     N38391   3.447   4.903   8.742  0.5138  0.4981  0.0672
  285MOL0     N38392   3.552   4.869   8.811 -0.5098  0.0577  0.1585
  285MOL0     C38393   4.800   4.776   8.801  0.1117  0.3608  0.1451
  285MOL0     C38394   4.932   4.791   8.832 -0.7728 -0.0129  0.1088
  285MOL0     C38395   5.346   5.013   8.882 -0.4894  0.3941 -0.5608
  285MOL0     C38396   5.403   4.897   8.934  0.0440  0.4575 -0.2125
  285MOL0     C38397   5.543   4.904   8.956 -0.3641  0.0501 -0.3508
  285MOL0     C38398   5.627   5.013   8.936  0.9216 -0.4121  0.1586
  285MOL0     O38399   5.761   5.026   8.962  0.4534 -0.8359  0.2364
  285MOL0     C38400   5.834   4.906   8.975 -0.2623 -0.4483  0.2673
  285MOL0     C38401   5.972   4.904   8.920  0.5563  0.1421  0.0860
  285MOL0     C38402   5.982   4.988   8.789  0.0513 -0.4206 -0.6326
  285MOL0     C38403   6.109   4.944   8.717 -0.1746 -0.4722  0.2648
  285MOL0     C38404   6.109   5.011   8.582 -0.7882  0.1034 -0.3412
  285MOL0     C38405   6.135   5.059   8.474  0.4382 -0.1422  0.2794
  285MOL0     C38406   5.566   5.117   8.874  0.1471  0.3234 -0.2515
  285MOL0     C38407   5.425   5.119   8.851  0.6858 -0.7155  0.1108
  285MOL0     H38408   4.924   5.129   8.879  1.3607 -0.2882 -0.7779
  285MOL0     H38409   4.696   5.097   8.834  0.0849 -0.9750  2.5502
  285MOL0     H38410   4.502   4.972   8.889 -0.0687  1.1370 -0.0849
  285MOL0     H38411   4.442   4.989   8.724  1.5593  1.3983  0.8749
  285MOL0     H38412   4.307   4.770   8.752 -0.4318  0.1331  0.9057
  285MOL0     H38413   4.380   4.753   8.923  1.1036  2.3165  1.8390
  285MOL0     H38414   4.267   4.961   8.978  2.2576 -0.8161 -0.5114
  285MOL0     H38415   4.198   4.970   8.815  0.3025 -0.9862  0.2081
  285MOL0     H38416   4.080   4.761   8.824 -1.2400  0.2984 -0.3522
  285MOL0     H38417   4.142   4.736   8.998 -2.3674 -0.4506  0.9987
  285MOL0     H38418   4.025   4.905   9.074 -0.9951  0.7438 -0.2477
  285MOL0     H38419   3.977   4.970   8.911 -3.1586  0.5174  1.5600
  285MOL0     H38420   3.821   4.802   8.863 -1.6062  1.8233  0.9220
  285MOL0     H38421   3.871   4.714   9.010  2.0356 -1.0162 -1.7735
  285MOL0     H38422   3.791   4.926   9.132 -1.2010 -0.3928 -0.7675
  285MOL0     H38423   3.742   4.989   8.977 -1.8894  2.2053  2.6040
  285MOL0     H38424   3.582   4.851   9.148  1.1987 -1.3086  0.4666
  285MOL0     H38425   3.642   4.719   9.060 -0.0508  0.3754  0.4352
  285MOL0     H38426   3.345   4.854   9.054  1.3722  1.0668  0.2060
  285MOL0     H38427   3.195   4.954   8.705  0.6574 -1.5067 -0.7701
  285MOL0     H38428   3.144   4.846   8.827  1.1309 -1.6076  3.6830
  285MOL0     H38429   3.198   5.138   8.845  0.4225 -0.9052 -0.4121
  285MOL0     H38430   3.181   5.033   9.001  1.7410  0.2386  0.0378
  285MOL0     H38431   2.969   5.147   8.959 -2.2804 -0.6477 -0.9072
  285MOL0     H38432   2.947   4.980   8.908 -1.0208  0.5389  1.3153
  285MOL0     H38433   2.850   5.070   8.720 -0.6550  1.8955  0.5831
  285MOL0     H38434   3.023   5.093   8.682 -2.4811  0.1256 -1.2414
  285MOL0     H38435   2.703   5.152   8.819 -0.0273  0.5951 -3.2395
  285MOL0     H38436   2.542   5.197   9.104  0.0145 -2.5526 -1.1773
  285MOL0     H38437   2.416   5.250   9.000 -0.8369 -1.0748 -1.3134
  285MOL0     H38438   2.518   5.116   8.954 -1.2132  0.9418 -0.9076
  285MOL0     H38439   2.630   5.783   9.234  0.3142 -1.0069  1.7507
  285MOL0     H38440   2.526   5.906   9.410  2.3006 -0.9277 -1.7043
  285MOL0     H38441   2.125   6.026   9.331  0.2979 -1.1900 -0.4320
  285MOL0     H38442   2.058   5.886   9.428  0.4992 -0.2061  2.1491
  285MOL0     H38443   2.052   6.009   9.618 -4.3380  0.7152 -0.8653
  285MOL0     H38444   2.142   6.161   9.553 -0.2958  1.0139  0.8505
  285MOL0     H38445   1.877   6.079   9.413 -0.1677 -0.5331 -0.7785
  285MOL0     H38446   1.956   6.226   9.429  0.9818 -0.5487  0.1512
  285MOL0     H38447   1.824   6.079   9.659 -1.4821 -0.6385 -3.6122
  285MOL0     H38448   1.906   6.233   9.691 -1.2340  0.8800  0.2688
  285MOL0     H38449   1.656   6.268   9.651  3.0486  2.8048  3.0918
  285MOL0     H38450   1.699   6.218   9.478  2.7475 -1.7593  0.4837
  285MOL0     H38451   1.814   6.444   9.664  1.0779 -1.0114  0.0681
  285MOL0     H38452   1.846   6.423   9.494 -0.9863  2.2897 -0.8287
  285MOL0     H38453   1.583   6.462   9.477 -1.9973 -2.3238  3.2155
  285MOL0     H38454   1.689   6.600   9.497 -2.0209  1.8852  1.4501
  285MOL0     H38455   1.612   6.640   9.714  0.0340 -0.0180  0.2486
  285MOL0     H38456   1.562   6.476   9.750 -1.3140  3.3893  1.9075
  285MOL0     H38457   2.134   5.794   9.238 -0.6554  0.4963  0.9410
  285MOL0     H38458   2.259   5.672   9.060  0.4772  1.5941 -0.1799
  285MOL0     H38459   2.743   5.627   8.949  0.3892 -0.2595 -0.2555
  285MOL0     H38460   2.906   5.517   8.814  0.1935 -0.8584  0.6947
  285MOL0     H38461   4.770   4.674   8.782  1.5469  0.2867 -2.0615
  285MOL0     H38462   4.995   4.703   8.823 -0.0592  0.2142  2.2313
  285MOL0     H38463   5.336   4.815   8.958 -0.6307  2.2683  5.6693
  285MOL0     H38464   5.596   4.819   8.999 -2.4632 -1.9871 -1.5433
  285MOL0     H38465   5.842   4.887   9.082  1.3734 -1.3207  0.0213
  285MOL0     H38466   5.781   4.821   8.932 -0.6677  0.0629 -0.2742
  285MOL0     H38467   6.010   4.802   8.906  0.3987  0.1685 -0.5569
  285MOL0     H38468   6.041   4.951   8.990  0.5065  1.4874 -0.7265
  285MOL0     H38469   5.984   5.087   8.836 -0.5153 -0.9279  0.4781
  285MOL0     H38470   5.898   4.972   8.721  1.3611 -2.3577 -1.9220
  285MOL0     H38471   6.114   4.835   8.713  0.9312 -0.5027  1.7748
  285MOL0     H38472   6.197   4.962   8.780 -1.2134 -3.7388  2.9454
  285MOL0     H38473   6.161   5.107   8.381  1.0166  1.1890  1.0888
  285MOL0     H38474   5.633   5.199   8.852  0.6209  0.0764  0.2705
  285MOL0     H38475   5.374   5.208   8.816 -0.9649 -2.4343 -2.1057
  286MOL0     O38476   4.584   5.270   3.297 -0.5466  0.1110 -0.3120
  286MOL0     C38477   4.638   5.370   3.259  0.7559 -0.8036 -0.3512
  286MOL0     O38478   4.577   5.482   3.216 -0.3763  0.1832 -0.0812
  286MOL0     C38479   4.448   5.515   3.237 -0.4469  0.0562  0.4988
  286MOL0     C38480   4.410   5.576   3.357 -0.3554  0.6029 -0.8857
  286MOL0     C38481   4.280   5.631   3.377  0.5757  0.4620 -0.4902
  286MOL0     C38482   4.182   5.614   3.273 -0.3959 -0.2018  0.2922
  286MOL0     O38483   4.056   5.669   3.300 -0.0391  0.2431 -0.7199
  286MOL0     C38484   3.944   5.580   3.272 -0.0030  0.0366  0.7953
  286MOL0     C38485   3.840   5.619   3.368 -0.5971  0.6203 -0.3329
  286MOL0     C38486   3.705   5.559   3.327  0.3235  0.4206  0.1665
  286MOL0     C38487   3.578   5.628   3.372  0.2261  0.4607  1.1980
  286MOL0     C38488   3.443   5.558   3.325  0.3309  0.2501 -0.2775
  286MOL0     C38489   3.320   5.638   3.375 -0.1154 -0.7842 -0.6675
  286MOL0     C38490   3.202   5.584   3.313  0.0905  0.4407 -0.2304
  286MOL0     C38491   3.081   5.666   3.365  0.0441  0.1347 -0.1797
  286MOL0     N38492   2.971   5.690   3.274  0.0855 -0.6980 -0.8655
  286MOL0     C38493   2.981   5.768   3.165 -0.2981 -0.2167  0.3804
  286MOL0     C38494   2.852   5.774   3.129 -1.3525  0.2483 -0.5079
  286MOL0     C38495   2.802   5.839   3.010  0.0140 -0.4845  0.2089
  286MOL0     C38496   2.910   5.923   2.937 -0.9589  0.4753 -0.7002
  286MOL0     C38497   2.849   6.005   2.825  0.0400 -0.4061 -0.8662
  286MOL0     C38498   2.818   5.921   2.708 -0.3582 -0.6992  0.9253
  286MOL0     O38499   2.796   6.008   2.592 -0.2505  0.2362 -0.6212
  286MOL0     C38500   2.682   6.073   2.563 -0.1437 -0.4151  0.4384
  286MOL0     C38501   2.665   6.127   2.435  0.0359  1.0359 -0.1295
  286MOL0     C38502   2.547   6.189   2.399  0.6623  0.4623  0.0115
  286MOL0     C38503   2.547   6.232   2.254 -0.1795  0.3675 -1.2878
  286MOL0     C38504   2.435   6.204   2.486 -0.1871 -0.1966 -0.2032
  286MOL0     C38505   2.301   6.255   2.453  0.8955 -0.2518 -0.4870
  286MOL0     O38506   2.210   6.261   2.552  0.2257  0.6470  0.4447
  286MOL0     C38507   2.075   6.273   2.535  0.3527  0.1478  0.4068
  286MOL0     C38508   2.021   6.374   2.454 -0.1194 -0.0607 -1.5909
  286MOL0     C38509   1.879   6.376   2.449 -0.3672 -0.7879 -0.8771
  286MOL0     C38510   1.805   6.298   2.530  0.9092 -0.0508 -0.7418
  286MOL0     O38511   1.670   6.309   2.530  0.3048 -0.0136 -0.3259
  286MOL0     C38512   1.610   6.437   2.535  0.2136 -0.7444  0.8322
  286MOL0     C38513   1.457   6.439   2.581  0.2565  0.3064  0.6126
  286MOL0     C38514   1.369   6.341   2.493 -0.0893  0.0531 -0.7726
  286MOL0     C38515   1.218   6.354   2.518 -0.0413 -0.4242  0.2620
  286MOL0     C38516   1.135   6.286   2.413 -0.7301  0.6591  0.8156
  286MOL0     C38517   0.989   6.304   2.429 -0.5888  0.1494 -0.4329
  286MOL0     C38518   0.928   6.265   2.569 -0.4541 -0.1361 -0.1677
  286MOL0     C38519   0.915   6.126   2.584 -0.4954  0.6093 -0.3562
  286MOL0    Cl38520   0.823   6.095   2.729  0.1295  0.0269 -0.3553
  286MOL0     C38521   1.856   6.211   2.625  0.1462 -0.7224 -0.5165
  286MOL0     C38522   1.995   6.199   2.620 -0.5036 -0.4751  0.2275
  286MOL0     O38523   2.277   6.282   2.338  0.8947 -0.3977 -0.0478
  286MOL0     C38524   2.454   6.142   2.615 -0.2384 -0.5407 -0.5804
  286MOL0     C38525   2.574   6.078   2.654  0.4398  0.1514  0.0983
  286MOL0     N38526   2.770   5.698   3.217 -0.7926 -0.4217 -0.3311
  286MOL0     N38527   2.847   5.644   3.304 -0.2897  0.0398 -0.4002
  286MOL0     C38528   4.222   5.546   3.156  0.8042 -0.9857 -0.0031
  286MOL0     C38529   4.351   5.500   3.137  0.0395  0.0939  0.6016
  286MOL0     C38530   4.786   5.379   3.253  0.6570 -0.0490 -0.3059
  286MOL0     C38531   4.855   5.298   3.344  0.7314 -0.1721  0.5021
  286MOL0     C38532   4.997   5.310   3.343 -0.9328  0.7060 -0.2760
  286MOL0     C38533   5.070   5.400   3.269  0.5375 -0.1683  0.3640
  286MOL0     O38534   5.208   5.399   3.263  0.6473  0.1460 -0.4618
  286MOL0     C38535   5.274   5.505   3.334  0.8696  0.2344 -0.3564
  286MOL0     C38536   5.260   5.511   3.487  0.9297  1.0802  0.1063
  286MOL0     C38537   5.310   5.389   3.566 -1.0148  0.0818  0.0231
  286MOL0     C38538   5.273   5.426   3.714 -0.1152  0.4044 -0.1985
  286MOL0     C38539   5.129   5.393   3.723 -0.3867  0.6539 -0.6214
  286MOL0     C38540   5.014   5.357   3.748 -0.1326 -0.0580 -0.6317
  286MOL0     C38541   4.996   5.485   3.193  0.0783 -1.0362  0.7470
  286MOL0     C38542   4.859   5.481   3.179  0.6604  0.8357 -0.7602
  286MOL0     H38543   4.467   5.586   3.450 -2.9918  1.4007  0.7475
  286MOL0     H38544   4.248   5.670   3.473  0.4158 -0.9807  0.0704
  286MOL0     H38545   3.910   5.587   3.168  0.7440  0.8889  0.5957
  286MOL0     H38546   3.971   5.474   3.278 -0.3327 -0.6518 -4.7056
  286MOL0     H38547   3.871   5.580   3.466  0.8153  0.4027 -0.8487
  286MOL0     H38548   3.836   5.725   3.392  0.5978  1.0289 -1.7999
  286MOL0     H38549   3.704   5.565   3.218  3.2206  1.3488  0.0988
  286MOL0     H38550   3.709   5.455   3.363  1.2277 -0.7648 -2.9936
  286MOL0     H38551   3.580   5.643   3.480 -1.4773  1.8688  1.0893
  286MOL0     H38552   3.578   5.730   3.331 -2.8382  0.6275  1.4144
  286MOL0     H38553   3.442   5.546   3.216  0.2631 -0.9811 -0.1614
  286MOL0     H38554   3.454   5.461   3.374  0.3963 -0.2955 -1.3432
  286MOL0     H38555   3.315   5.647   3.484 -2.0395 -2.4335 -0.5591
  286MOL0     H38556   3.339   5.737   3.332  3.7110 -1.5923 -1.2012
  286MOL0     H38557   3.203   5.574   3.204 -0.1279 -0.4467 -0.1559
  286MOL0     H38558   3.198   5.479   3.341 -2.4065  0.6777  0.6057
  286MOL0     H38559   3.120   5.765   3.387  2.7680 -1.1092  1.0848
  286MOL0     H38560   3.051   5.623   3.461 -1.0406 -1.0730 -1.0268
  286MOL0     H38561   3.073   5.811   3.126 -0.5376  0.1683  0.2356
  286MOL0     H38562   2.757   5.762   2.948  1.3815 -2.5701  1.6714
  286MOL0     H38563   2.722   5.901   3.051 -1.8035 -3.1955  1.0472
  286MOL0     H38564   2.994   5.861   2.903  0.4485  2.6370 -1.4509
  286MOL0     H38565   2.953   6.001   3.001 -0.7433  1.0821 -1.5584
  286MOL0     H38566   2.922   6.080   2.793  1.6644 -2.1876 -1.5251
  286MOL0     H38567   2.756   6.057   2.848 -0.1300 -1.3575  0.7864
  286MOL0     H38568   2.744   5.841   2.716 -0.1099 -1.2065 -1.2511
  286MOL0     H38569   2.912   5.868   2.686 -0.3817 -0.9451  1.4199
  286MOL0     H38570   2.750   6.115   2.369  2.9057  1.8617  3.1132
  286MOL0     H38571   2.651   6.261   2.233  1.0861 -1.6239  1.5033
  286MOL0     H38572   2.525   6.151   2.184 -1.0300 -0.7996  0.2732
  286MOL0     H38573   2.486   6.319   2.228  1.6129  1.6007 -1.5542
  286MOL0     H38574   2.078   6.432   2.383  1.7507 -1.8737 -1.6764
  286MOL0     H38575   1.834   6.431   2.367 -0.4438  3.4791  1.6882
  286MOL0     H38576   1.667   6.507   2.597  0.0400  0.1946 -0.0350
  286MOL0     H38577   1.621   6.487   2.439 -1.7259  0.0420  0.9722
  286MOL0     H38578   1.456   6.417   2.688 -1.0286 -0.2246  0.5158
  286MOL0     H38579   1.429   6.543   2.561 -1.7279 -0.4960 -1.1997
  286MOL0     H38580   1.396   6.239   2.523  0.4412  0.5167  0.4244
  286MOL0     H38581   1.390   6.361   2.388  0.3438  1.1916 -0.4879
  286MOL0     H38582   1.211   6.314   2.620 -2.2575  1.8323  1.0864
  286MOL0     H38583   1.184   6.458   2.516  3.0599  0.6923 -1.0468
  286MOL0     H38584   1.166   6.181   2.410 -2.1761  0.2185 -1.5662
  286MOL0     H38585   1.163   6.322   2.313  1.6663  1.7616  1.7970
  286MOL0     H38586   0.978   6.412   2.418 -1.1497  0.1819  0.3819
  286MOL0     H38587   0.930   6.255   2.351 -0.3112  0.3999 -0.8060
  286MOL0     H38588   0.828   6.309   2.578 -1.0208 -1.2876 -0.6624
  286MOL0     H38589   0.983   6.307   2.653  1.0610 -0.1522 -1.1106
  286MOL0     H38590   1.012   6.077   2.593 -2.5362 -4.1183 -1.1036
  286MOL0     H38591   0.859   6.076   2.503 -0.6018  1.8583 -1.0923
  286MOL0     H38592   1.798   6.145   2.687  0.9395  0.2207  1.3328
  286MOL0     H38593   2.032   6.135   2.699 -2.5074  1.1638  2.6311
  286MOL0     H38594   2.378   6.168   2.688 -0.9173  0.0833 -1.4790
  286MOL0     H38595   2.583   6.032   2.753  1.3172 -2.8141 -1.2312
  286MOL0     H38596   4.146   5.536   3.079  1.8930  4.0378 -2.1736
  286MOL0     H38597   4.365   5.459   3.038 -0.6696 -1.5509  1.1556
  286MOL0     H38598   4.803   5.229   3.409  1.0682 -1.2791 -0.3793
  286MOL0     H38599   5.051   5.233   3.397 -2.7132  0.6392  1.5495
  286MOL0     H38600   5.379   5.506   3.302  1.4267 -3.7200  0.7995
  286MOL0     H38601   5.232   5.592   3.283 -1.0024  0.4575  1.4278
  286MOL0     H38602   5.154   5.524   3.511  1.0232  1.5624  0.2692
  286MOL0     H38603   5.316   5.602   3.510 -1.4127  2.4197  0.8356
  286MOL0     H38604   5.418   5.377   3.553 -1.1027  0.6209 -1.4041
  286MOL0     H38605   5.263   5.298   3.530 -2.0194  0.2743  0.8040
  286MOL0     H38606   5.297   5.530   3.740  2.5113 -0.0879 -0.3440
  286MOL0     H38607   5.328   5.355   3.776  3.5936  1.6337 -1.7732
  286MOL0     H38608   4.921   5.317   3.781  0.6017 -4.8708 -3.5712
  286MOL0     H38609   5.056   5.556   3.138 -2.1210  1.4202  1.3136
  286MOL0     H38610   4.811   5.557   3.117  1.6500  0.2544 -2.2943
  287MOL0     O38611   6.829   3.180   6.453 -0.1668 -0.1182  0.6739
  287MOL0     C38612   6.901   3.194   6.352 -0.0078  0.5812  0.8012
  287MOL0     O38613   6.857   3.244   6.226 -0.6266 -0.6717 -0.0733
  287MOL0     C38614   6.720   3.252   6.203  0.1336 -0.1987  0.2348
  287MOL0     C38615   6.670   3.382   6.180 -0.8786  0.9066 -0.5687
  287MOL0     C38616   6.533   3.395   6.170 -0.1633  0.3602 -0.1459
  287MOL0     C38617   6.441   3.291   6.188  0.3549  0.7678 -0.1880
  287MOL0     O38618   6.309   3.323   6.178  0.3496 -0.1854 -0.8322
  287MOL0     C38619   6.214   3.221   6.203 -0.8532 -0.7938  0.0646
  287MOL0     C38620   6.068   3.273   6.204 -0.9458  0.1184  1.8856
  287MOL0     C38621   6.009   3.279   6.065  0.0708  0.2071  0.8686
  287MOL0     C38622   5.855   3.303   6.072 -0.4102  0.2724  0.8352
  287MOL0     C38623   5.802   3.338   5.936 -0.0128  0.2208  0.1541
  287MOL0     C38624   5.651   3.349   5.920  0.2301  0.6866 -0.6109
  287MOL0     C38625   5.586   3.485   5.937  0.5122 -0.3151 -1.4816
  287MOL0     C38626   5.438   3.493   5.950  0.2206  0.5710  0.6214
  287MOL0     N38627   5.375   3.414   5.832  0.1310  0.1311 -0.0585
  287MOL0     C38628   5.367   3.437   5.699  0.0078  0.0328 -0.4921
  287MOL0     C38629   5.295   3.340   5.649  0.6618  0.2521 -0.2821
  287MOL0     C38630   5.272   3.302   5.507  0.0457  0.1497  0.6691
  287MOL0     C38631   5.147   3.363   5.453  0.2990  0.0729 -0.1355
  287MOL0     C38632   5.023   3.314   5.529 -0.4682 -1.2079 -0.5763
  287MOL0     C38633   4.902   3.313   5.440  0.2520  0.2667 -0.2833
  287MOL0     O38634   4.802   3.237   5.511 -0.0222 -0.0067  0.3687
  287MOL0     C38635   4.674   3.241   5.463 -0.7027  0.3510 -0.8500
  287MOL0     C38636   4.569   3.236   5.551  0.0730  0.0203 -0.2953
  287MOL0     C38637   4.433   3.227   5.511  0.0711 -0.0964  0.2190
  287MOL0     C38638   4.338   3.194   5.625  0.0830 -1.5165 -0.2259
  287MOL0     C38639   4.390   3.233   5.380 -0.0733 -0.5772  0.1885
  287MOL0     C38640   4.258   3.209   5.326 -0.4613 -0.0217  0.3185
  287MOL0     O38641   4.156   3.211   5.418  0.8007  1.3226 -0.8767
  287MOL0     C38642   4.027   3.177   5.390 -0.9824  0.6796 -0.4942
  287MOL0     C38643   3.963   3.215   5.269  0.1151  0.3751 -0.1667
  287MOL0     C38644   3.828   3.181   5.243  0.7911  0.5721  0.7731
  287MOL0     C38645   3.758   3.098   5.336  0.0672 -0.0294  0.1788
  287MOL0     O38646   3.625   3.082   5.311  0.3290 -0.1500 -0.1540
  287MOL0     C38647   3.527   3.034   5.419 -1.6025  0.6942  0.4036
  287MOL0     C38648   3.382   3.040   5.380  0.4931  0.4506 -0.1726
  287MOL0     C38649   3.276   2.962   5.462  0.0011  0.5243 -0.4323
  287MOL0     C38650   3.144   2.965   5.374 -0.2423  0.0435  0.9842
  287MOL0     C38651   3.021   2.910   5.449 -0.3416 -0.2778  0.6876
  287MOL0     C38652   2.897   2.913   5.354 -0.8075  0.3333  0.3105
  287MOL0     C38653   2.774   2.857   5.425  0.4305 -0.1167 -0.1057
  287MOL0     C38654   2.725   2.918   5.559 -0.8665 -0.7244  0.2087
  287MOL0    Cl38655   2.598   2.824   5.629 -0.0466  0.4144  0.1351
  287MOL0     C38656   3.830   3.040   5.449 -0.0813 -0.1162 -0.0956
  287MOL0     C38657   3.961   3.088   5.481 -0.2813  0.0248  0.4021
  287MOL0     O38658   4.238   3.189   5.205  0.2928  0.3464  0.6878
  287MOL0     C38659   4.501   3.258   5.287  0.7878  0.1187 -0.4042
  287MOL0     C38660   4.636   3.266   5.326 -0.5159  0.6617  0.1296
  287MOL0     N38661   5.266   3.250   5.752 -0.0320  0.0075  0.1520
  287MOL0     N38662   5.319   3.292   5.862  0.1992 -0.1949  0.7170
  287MOL0     C38663   6.502   3.162   6.212 -0.3000 -0.2017 -0.4457
  287MOL0     C38664   6.639   3.139   6.219 -0.4118 -0.4305 -0.8089
  287MOL0     C38665   7.045   3.177   6.374  0.7330  0.1876 -0.1881
  287MOL0     C38666   7.140   3.262   6.303  0.7702 -0.2241  0.8849
  287MOL0     C38667   7.275   3.256   6.330 -0.3529  0.2243  0.2993
  287MOL0     C38668   7.323   3.166   6.427  0.0388 -0.2058  0.8086
  287MOL0     O38669   7.457   3.168   6.455 -0.0890 -0.0416  0.3974
  287MOL0     C38670   7.505   3.067   6.548 -0.5968 -0.4447 -0.4184
  287MOL0     C38671   7.659   3.048   6.539  0.7879 -0.0063 -0.2882
  287MOL0     C38672   7.724   3.063   6.404 -0.8063 -0.5286  0.1445
  287MOL0     C38673   7.870   3.021   6.424  0.4185  0.4839 -0.4500
  287MOL0     C38674   7.939   3.122   6.494  0.2991  1.1120  0.0198
  287MOL0     C38675   7.998   3.206   6.557  0.4776 -0.3946 -0.4831
  287MOL0     C38676   7.233   3.077   6.478  0.1741 -0.3711 -0.7215
  287MOL0     C38677   7.095   3.073   6.460 -0.2062  0.0221 -0.0420
  287MOL0     H38678   6.735   3.467   6.165 -2.2737  2.0333 -0.4431
  287MOL0     H38679   6.490   3.489   6.135  0.5580  0.7752  0.0736
  287MOL0     H38680   6.225   3.141   6.129 -2.1730  1.6403 -2.9859
  287MOL0     H38681   6.226   3.174   6.301 -2.7999 -1.3858  0.0569
  287MOL0     H38682   6.006   3.201   6.258 -1.2181 -1.4230 -0.3485
  287MOL0     H38683   6.062   3.371   6.254 -1.2486  0.4141  1.2781
  287MOL0     H38684   6.060   3.340   5.990 -0.1714  1.9889  2.0952
  287MOL0     H38685   6.033   3.184   6.015  1.9388  1.2559 -0.3459
  287MOL0     H38686   5.814   3.207   6.106  0.0070 -0.3227 -0.2838
  287MOL0     H38687   5.826   3.374   6.149  0.5270 -1.4435  2.8533
  287MOL0     H38688   5.852   3.429   5.903  2.0955  0.1822  2.8708
  287MOL0     H38689   5.825   3.263   5.860 -2.3943  0.6994 -1.1391
  287MOL0     H38690   5.613   3.304   5.827  0.7016 -0.9911 -0.0322
  287MOL0     H38691   5.606   3.285   5.997  1.5867 -0.7883 -0.9821
  287MOL0     H38692   5.625   3.537   6.025  1.0873 -2.4078 -0.4423
  287MOL0     H38693   5.624   3.535   5.847  0.3047  0.8270 -0.9478
  287MOL0     H38694   5.413   3.598   5.932 -1.6570 -0.0317 -0.5518
  287MOL0     H38695   5.383   3.466   6.040  0.5330  1.5104  1.1121
  287MOL0     H38696   5.420   3.513   5.643  1.3330 -0.6807 -0.2345
  287MOL0     H38697   5.359   3.343   5.453  1.7092 -1.4711  1.9792
  287MOL0     H38698   5.266   3.194   5.491 -0.2627 -0.6300  5.0257
  287MOL0     H38699   5.142   3.347   5.345  0.9242  0.1022 -0.1736
  287MOL0     H38700   5.155   3.470   5.470 -1.3760  0.1611  0.2348
  287MOL0     H38701   5.001   3.383   5.611 -2.7268 -0.6828 -1.5581
  287MOL0     H38702   5.042   3.214   5.568  1.6710 -0.3137  0.9236
  287MOL0     H38703   4.933   3.253   5.354 -1.4861 -0.0117 -0.7673
  287MOL0     H38704   4.880   3.416   5.407  0.8021  0.1181 -1.1545
  287MOL0     H38705   4.585   3.228   5.658 -0.0081 -0.2520 -0.3019
  287MOL0     H38706   4.393   3.163   5.714  1.0122  0.4520 -0.0642
  287MOL0     H38707   4.271   3.276   5.650  2.5656  0.6771 -0.3193
  287MOL0     H38708   4.276   3.107   5.605 -2.0232 -0.4347  1.2879
  287MOL0     H38709   4.007   3.273   5.187  0.0266 -0.1005 -0.5531
  287MOL0     H38710   3.777   3.217   5.154  1.0813  1.0305  0.7904
  287MOL0     H38711   3.550   2.928   5.438 -1.1801  0.5735 -0.7159
  287MOL0     H38712   3.553   3.084   5.513  1.6288 -1.1352  0.6189
  287MOL0     H38713   3.356   3.145   5.366  0.5147  0.0259 -4.4328
  287MOL0     H38714   3.373   2.987   5.285 -0.5244  0.2089  0.0445
  287MOL0     H38715   3.241   3.002   5.557  0.6377 -0.6021  0.2976
  287MOL0     H38716   3.320   2.868   5.495  0.0845  0.3785 -0.9370
  287MOL0     H38717   3.124   3.071   5.355  1.9614  0.4309  0.6274
  287MOL0     H38718   3.156   2.924   5.273  0.2516  0.7194  0.7652
  287MOL0     H38719   3.006   2.968   5.540 -1.2266  4.3307 -2.0883
  287MOL0     H38720   3.046   2.806   5.471 -1.8183 -0.9109 -0.4715
  287MOL0     H38721   2.883   3.013   5.314  0.4150 -1.0392 -4.0646
  287MOL0     H38722   2.918   2.854   5.264  0.5671  0.9161  0.2268
  287MOL0     H38723   2.800   2.752   5.444  0.5085 -0.6116 -2.6451
  287MOL0     H38724   2.695   2.865   5.350  1.7191  1.7656 -1.3548
  287MOL0     H38725   2.682   3.013   5.528 -0.1252 -0.7410 -0.9500
  287MOL0     H38726   2.815   2.933   5.620  1.9695  1.1723 -3.9560
  287MOL0     H38727   3.787   2.970   5.519 -2.4605  0.4159 -0.9057
  287MOL0     H38728   4.005   3.044   5.569  1.1683 -2.7778 -1.5669
  287MOL0     H38729   4.470   3.246   5.184 -1.6324 -1.7683  0.4565
  287MOL0     H38730   4.713   3.289   5.253 -0.1398  2.5137  1.0303
  287MOL0     H38731   6.438   3.074   6.219  0.8459 -0.9624  0.9056
  287MOL0     H38732   6.676   3.040   6.244 -0.5414 -0.7694 -1.9266
  287MOL0     H38733   7.099   3.335   6.234 -1.3047 -2.6137 -0.5948
  287MOL0     H38734   7.344   3.323   6.279 -1.6848  3.0430  1.9271
  287MOL0     H38735   7.482   3.065   6.655  3.1841 -2.5939  0.5260
  287MOL0     H38736   7.473   2.967   6.514  1.4364 -1.0738 -0.5749
  287MOL0     H38737   7.666   2.943   6.568  0.3479 -0.1953 -0.8497
  287MOL0     H38738   7.707   3.101   6.622  2.5451 -3.0721  0.8044
  287MOL0     H38739   7.707   3.163   6.365  1.6792  0.7960  2.1177
  287MOL0     H38740   7.675   2.989   6.340 -1.6230 -1.9003  2.2251
  287MOL0     H38741   7.912   3.006   6.324 -0.1413  3.4278 -1.2101
  287MOL0     H38742   7.877   2.931   6.486  1.9357  0.1032 -1.1301
  287MOL0     H38743   8.075   3.262   6.606  0.5095 -2.0684  1.5340
  287MOL0     H38744   7.264   3.005   6.553  2.6163  3.2708  2.1404
  287MOL0     H38745   7.022   3.006   6.504 -0.3411 -1.7582 -2.7814
  288MOL0     O38746   2.382   4.533  10.236  0.2098  0.9465  0.7681
  288MOL0     C38747   2.464   4.451  10.194  0.3434  0.0408  0.3400
  288MOL0     O38748   2.437   4.345  10.116 -0.4833  0.0378  0.1118
  288MOL0     C38749   2.316   4.332  10.053  0.5210 -0.0788  0.4452
  288MOL0     C38750   2.253   4.435   9.971 -0.9968 -0.2953 -0.2837
  288MOL0     C38751   2.129   4.415   9.914 -0.7667  0.3063  0.2485
  288MOL0     C38752   2.063   4.294   9.932  0.1744  0.1410  0.4322
  288MOL0     O38753   1.934   4.281   9.878 -0.4557  0.2673  0.1241
  288MOL0     C38754   1.859   4.396   9.849 -0.3021  0.5678  0.2360
  288MOL0     C38755   1.708   4.350   9.838 -0.3435  0.5388 -0.1085
  288MOL0     C38756   1.624   4.462   9.772  0.5010 -0.9155 -0.9774
  288MOL0     C38757   1.478   4.428   9.770  0.3418  0.1960 -0.0750
  288MOL0     C38758   1.407   4.488   9.644 -0.3836  0.2897 -0.1268
  288MOL0     C38759   1.262   4.441   9.646  0.4212 -0.2837 -1.2418
  288MOL0     C38760   1.187   4.475   9.517 -1.3251  0.5115 -0.1220
  288MOL0     C38761   1.071   4.375   9.489 -0.3972 -0.0552  0.0195
  288MOL0     N38762   0.965   4.386   9.596 -0.1225  0.6275  0.0042
  288MOL0     C38763   0.879   4.492   9.600  0.8203 -0.0414  0.1252
  288MOL0     C38764   0.827   4.498   9.723  0.6100 -0.1838 -0.0313
  288MOL0     C38765   0.722   4.593   9.762 -0.2161 -0.5817 -0.4041
  288MOL0     C38766   0.585   4.574   9.706  0.0443  0.3076  0.2452
  288MOL0     C38767   0.571   4.585   9.549  0.5390  0.2389 -0.5142
  288MOL0     C38768   0.432   4.521   9.503 -0.5878 -0.3858  0.3616
  288MOL0     O38769   0.333   4.617   9.525  0.1880 -0.3971  0.6313
  288MOL0     C38770   0.208   4.573   9.548 -0.3305  0.0197 -0.5185
  288MOL0     C38771   0.154   4.460   9.488  0.4283 -0.1163 -0.2055
  288MOL0     C38772   0.030   4.404   9.523  0.3729 -0.0930 -0.7572
  288MOL0     C38773  -0.014   4.281   9.450 -0.5270  0.6030  0.2111
  288MOL0     C38774  -0.050   4.469   9.624 -0.3685  0.9767 -0.8935
  288MOL0     C38775  -0.195   4.443   9.661  0.3520  1.2823 -0.2764
  288MOL0     O38776  -0.248   4.516   9.765  0.2694  0.0068  0.5418
  288MOL0     C38777  -0.381   4.492   9.798  0.7206 -0.2426  0.2270
  288MOL0     C38778  -0.420   4.368   9.861  0.0707  0.0510 -0.0760
  288MOL0     C38779  -0.552   4.353   9.910 -0.8503 -0.3679 -0.7471
  288MOL0     C38780  -0.644   4.454   9.896  0.5437 -0.3289  0.4399
  288MOL0     O38781  -0.774   4.429   9.932 -0.0351  0.4125  0.3209
  288MOL0     C38782  -0.872   4.466   9.839  0.0588  0.3436 -0.4170
  288MOL0     C38783  -1.004   4.460   9.921  0.4031  0.2785  0.4884
  288MOL0     C38784  -1.133   4.499   9.843 -0.6437  0.8421 -0.6263
  288MOL0     C38785  -1.258   4.519   9.940 -0.2795  0.3197  0.8046
  288MOL0     C38786  -1.381   4.587   9.879  0.4230  0.3097  0.5024
  288MOL0     C38787  -1.466   4.495   9.790 -0.0899 -0.1299  0.3038
  288MOL0     C38788  -1.597   4.564   9.753  0.1246  0.7697  0.0970
  288MOL0     C38789  -1.675   4.487   9.644  0.3506 -0.0564  0.0834
  288MOL0    Cl38790  -1.773   4.341   9.686  0.5532  0.0414 -0.5650
  288MOL0     C38791  -0.600   4.573   9.828  0.2869 -0.6918  0.3030
  288MOL0     C38792  -0.476   4.593   9.786 -0.2036  0.4759  0.5041
  288MOL0     O38793  -0.254   4.356   9.595 -0.4511 -0.2652  0.7159
  288MOL0     C38794   0.017   4.572   9.694  0.1029 -1.0795  0.8116
  288MOL0     C38795   0.140   4.631   9.661  0.5319  0.0294 -0.0995
  288MOL0     N38796   0.877   4.390   9.800  0.0494 -0.1529  0.4599
  288MOL0     N38797   0.959   4.326   9.722 -0.1484  0.2642  0.7708
  288MOL0     C38798   2.129   4.186   9.991 -0.0822 -0.3508 -0.0934
  288MOL0     C38799   2.254   4.207  10.050  0.5012 -0.1853  0.7679
  288MOL0     C38800   2.610   4.471  10.229 -0.4920  0.0011  0.5684
  288MOL0     C38801   2.713   4.380  10.195  0.1501 -0.7027 -0.5159
  288MOL0     C38802   2.850   4.403  10.215  0.3338 -0.2159 -0.0803
  288MOL0     C38803   2.893   4.517  10.289 -0.0401  0.1705  0.3796
  288MOL0     O38804   3.029   4.525  10.309  0.2071  0.4597 -0.1572
  288MOL0     C38805   3.071   4.658  10.337 -0.1135 -0.2972 -0.5309
  288MOL0     C38806   3.220   4.666  10.300  0.2134  0.3163  0.4258
  288MOL0     C38807   3.287   4.778  10.374  0.5878  0.2888  0.0589
  288MOL0     C38808   3.409   4.836  10.289  0.4912 -0.1889  0.1882
  288MOL0     C38809   3.363   4.941  10.197 -0.0861 -1.3599  0.4400
  288MOL0     C38810   3.334   5.019  10.111 -0.5839 -0.1326 -0.1895
  288MOL0     C38811   2.788   4.606  10.334 -0.2254  1.0302 -0.1972
  288MOL0     C38812   2.646   4.589  10.300 -0.3295  0.5710  0.3204
  288MOL0     H38813   2.303   4.530   9.954 -3.3861  1.2897  1.0255
  288MOL0     H38814   2.099   4.493   9.845  1.6599  3.4096  2.3653
  288MOL0     H38815   1.860   4.463   9.935 -1.0687 -0.6894  1.2710
  288MOL0     H38816   1.890   4.430   9.749  0.5862 -2.1437 -0.5106
  288MOL0     H38817   1.700   4.255   9.784  2.1109 -0.4355  1.0763
  288MOL0     H38818   1.669   4.341   9.940 -0.3615  1.0556 -0.0697
  288MOL0     H38819   1.637   4.557   9.825  0.0407 -0.2128 -2.0967
  288MOL0     H38820   1.668   4.477   9.674  0.8720  1.4648 -0.5144
  288MOL0     H38821   1.472   4.319   9.768  3.8977 -0.1515  0.7376
  288MOL0     H38822   1.431   4.466   9.861  0.2216  0.5063 -0.2660
  288MOL0     H38823   1.415   4.597   9.646  0.5330  0.2255  1.3234
  288MOL0     H38824   1.468   4.455   9.558  2.9603  0.6973  1.8883
  288MOL0     H38825   1.253   4.334   9.669  0.7427 -0.3064 -1.2083
  288MOL0     H38826   1.214   4.493   9.728  1.1292 -1.7498  0.1484
  288MOL0     H38827   1.153   4.579   9.525  0.1298  1.0345 -0.4710
  288MOL0     H38828   1.252   4.458   9.431 -0.7165 -1.8459  0.7152
  288MOL0     H38829   1.127   4.281   9.492  3.9302  2.2556 -0.2934
  288MOL0     H38830   1.028   4.404   9.393  0.7928 -0.7285 -0.7494
  288MOL0     H38831   0.852   4.564   9.524 -2.3491 -0.8208  0.3658
  288MOL0     H38832   0.714   4.573   9.869  2.6459  1.1434  0.2326
  288MOL0     H38833   0.764   4.693   9.749 -2.7638  0.4203 -1.7367
  288MOL0     H38834   0.525   4.653   9.751 -0.8180 -0.6250  0.7714
  288MOL0     H38835   0.540   4.481   9.740 -1.1657  0.3079 -1.2422
  288MOL0     H38836   0.646   4.535   9.487  1.2905 -2.2893  2.1778
  288MOL0     H38837   0.557   4.689   9.518 -1.7869 -0.0877 -0.7142
  288MOL0     H38838   0.421   4.424   9.554 -1.1201 -2.0272 -2.6360
  288MOL0     H38839   0.434   4.485   9.400 -1.1025  1.8164 -0.4683
  288MOL0     H38840   0.200   4.419   9.399 -1.6045  1.6001 -2.1780
  288MOL0     H38841  -0.066   4.297   9.355  0.8989  1.5852 -0.4383
  288MOL0     H38842   0.070   4.213   9.436 -1.7975 -0.4991 -2.9759
  288MOL0     H38843  -0.073   4.215   9.515  1.5405 -1.1945  0.3829
  288MOL0     H38844  -0.351   4.285   9.873  0.2010  0.1428 -0.1867
  288MOL0     H38845  -0.572   4.258   9.960  3.1832 -1.5039 -0.9007
  288MOL0     H38846  -0.864   4.568   9.800 -3.5874  0.2272 -1.9097
  288MOL0     H38847  -0.868   4.396   9.755  1.2240  1.3346 -1.2153
  288MOL0     H38848  -1.018   4.358   9.958  2.9502 -0.2773  0.1006
  288MOL0     H38849  -0.991   4.534  10.001  2.1905 -0.4876  0.9662
  288MOL0     H38850  -1.161   4.414   9.780  3.9694 -2.4348  1.1683
  288MOL0     H38851  -1.115   4.583   9.775  0.3212  2.2316  1.2371
  288MOL0     H38852  -1.281   4.423   9.988 -0.4935 -0.5469 -0.9609
  288MOL0     H38853  -1.219   4.579  10.022 -0.4989 -2.4884  3.1536
  288MOL0     H38854  -1.344   4.676   9.827  0.1891  0.5248  0.7006
  288MOL0     H38855  -1.451   4.622   9.956 -1.4897  4.5097 -2.7109
  288MOL0     H38856  -1.405   4.462   9.706 -3.4558 -0.4561 -2.2092
  288MOL0     H38857  -1.495   4.408   9.851  1.6984 -0.9024  0.1210
  288MOL0     H38858  -1.567   4.665   9.724  0.2007  0.5236 -0.6885
  288MOL0     H38859  -1.666   4.578   9.837 -1.9245  0.5939 -1.5013
  288MOL0     H38860  -1.613   4.459   9.558 -2.1226  0.0832 -1.8736
  288MOL0     H38861  -1.751   4.560   9.614  1.7143  2.0195  1.5078
  288MOL0     H38862  -0.680   4.644   9.808 -1.0604 -1.2716  3.0673
  288MOL0     H38863  -0.441   4.681   9.733 -1.1460  0.4056 -0.2468
  288MOL0     H38864  -0.026   4.622   9.780  2.3651  2.1688  0.2242
  288MOL0     H38865   0.181   4.707   9.727 -0.1436 -1.3768  2.0406
  288MOL0     H38866   2.082   4.088   9.993 -1.3258  0.2052  2.8239
  288MOL0     H38867   2.308   4.126  10.098  0.8833  0.5733  1.6578
  288MOL0     H38868   2.690   4.297  10.129 -1.3258  1.2738 -2.6323
  288MOL0     H38869   2.924   4.333  10.178  0.8380  1.5929 -2.8730
  288MOL0     H38870   3.011   4.734  10.287 -0.7517 -0.3370  0.1568
  288MOL0     H38871   3.048   4.675  10.443  0.3549  1.6399 -0.7000
  288MOL0     H38872   3.216   4.680  10.192 -2.4230 -1.3315  0.2271
  288MOL0     H38873   3.271   4.571  10.319  0.2246 -0.0818 -1.4373
  288MOL0     H38874   3.306   4.741  10.475  2.3579  3.9467  1.2413
  288MOL0     H38875   3.223   4.865  10.390 -0.3041 -0.2731 -0.3844
  288MOL0     H38876   3.463   4.757  10.236  0.3428 -0.1247 -0.0582
  288MOL0     H38877   3.479   4.884  10.358  2.4399  2.5718 -3.3589
  288MOL0     H38878   3.328   5.089  10.030 -0.3703  1.2162  0.9213
  288MOL0     H38879   2.798   4.698  10.391 -5.3988  1.4292  0.5581
  288MOL0     H38880   2.579   4.668  10.331 -1.0561  0.0165  0.1849
  289MOL0     O38881  10.360   4.830   6.741  0.0611 -0.1456 -0.6459
  289MOL0     C38882  10.448   4.744   6.743 -0.7040 -0.9630  0.8141
  289MOL0     O38883  10.440   4.628   6.810 -0.7210 -0.4638  0.1949
  289MOL0     C38884  10.347   4.598   6.907  0.3448 -0.0898  0.5762
  289MOL0     C38885  10.282   4.476   6.910  0.1829  1.1761 -0.4757
  289MOL0     C38886  10.184   4.449   7.007  0.5472 -0.0777  0.2248
  289MOL0     C38887  10.155   4.545   7.102  0.4371  0.2880  0.3666
  289MOL0     O38888  10.050   4.529   7.194 -0.5857 -0.2421  0.4818
  289MOL0     C38889   9.959   4.419   7.186  0.4222 -0.5491  0.8006
  289MOL0     C38890   9.852   4.435   7.290  0.3304  0.3583  0.0412
  289MOL0     C38891   9.741   4.336   7.260  0.6005  0.2148 -0.3064
  289MOL0     C38892   9.754   4.195   7.330  0.1473  0.6277  0.8703
  289MOL0     C38893   9.619   4.114   7.321 -0.3809  0.3537  0.5186
  289MOL0     C38894   9.596   4.063   7.182  0.0972  1.1560 -0.8283
  289MOL0     C38895   9.474   3.964   7.171  0.2017  0.0653 -0.0531
  289MOL0     C38896   9.333   4.022   7.181 -0.3058  0.1674  0.4217
  289MOL0     N38897   9.236   3.922   7.143 -0.0430 -0.1005  0.2661
  289MOL0     C38898   9.234   3.832   7.042  0.9651 -0.7908  0.9358
  289MOL0     C38899   9.114   3.765   7.041 -0.2864 -0.0952 -0.3464
  289MOL0     C38900   9.092   3.661   6.938  0.2051 -0.5801  0.3435
  289MOL0     C38901   9.036   3.539   6.999  0.4398  0.3669  1.5606
  289MOL0     C38902   8.897   3.549   7.063 -0.2897 -0.1469 -0.8006
  289MOL0     C38903   8.794   3.612   6.975  0.4383 -0.2457  0.3699
  289MOL0     O38904   8.668   3.615   7.033  0.2730 -0.0442 -0.3132
  289MOL0     C38905   8.573   3.525   7.003  0.1033 -0.2635  0.3933
  289MOL0     C38906   8.595   3.407   6.933 -0.4463  0.6809  0.6876
  289MOL0     C38907   8.497   3.314   6.906 -0.0162 -0.8882 -0.3601
  289MOL0     C38908   8.537   3.192   6.818 -0.1320  1.1119 -0.2491
  289MOL0     C38909   8.362   3.344   6.956 -0.5024 -0.0981  0.4868
  289MOL0     C38910   8.243   3.256   6.936  0.6623  0.1684 -0.8476
  289MOL0     O38911   8.129   3.298   6.975 -0.1434  0.3580  0.4788
  289MOL0     C38912   8.011   3.243   6.954  0.2125  0.9428  0.4113
  289MOL0     C38913   7.976   3.137   6.865 -0.1844 -0.0767 -0.1234
  289MOL0     C38914   7.848   3.087   6.853 -0.1689 -0.7023  0.4034
  289MOL0     C38915   7.744   3.124   6.944 -0.5658  0.3987  0.0458
  289MOL0     O38916   7.613   3.091   6.907 -0.1585  0.0775  0.8688
  289MOL0     C38917   7.533   2.990   6.983 -0.2157 -0.0634  0.1158
  289MOL0     C38918   7.393   3.037   7.017  0.3734 -0.6411 -0.5253
  289MOL0     C38919   7.298   3.042   6.886  0.2350  0.1190  0.2358
  289MOL0     C38920   7.158   3.084   6.929 -0.0663 -0.7280 -0.3802
  289MOL0     C38921   7.056   3.018   6.848  0.0350  0.0413 -0.2546
  289MOL0     C38922   6.919   3.088   6.875 -0.0558 -0.4642 -0.3154
  289MOL0     C38923   6.809   3.019   6.787  0.0124 -0.7087 -0.4189
  289MOL0     C38924   6.682   3.098   6.800  0.0384  0.2792  0.0563
  289MOL0    Cl38925   6.602   3.050   6.947  0.3291  0.6053  0.4336
  289MOL0     C38926   7.777   3.228   7.035  0.1203 -0.1928 -0.2792
  289MOL0     C38927   7.912   3.285   7.038  0.5337 -0.2006  0.5849
  289MOL0     O38928   8.269   3.139   6.919 -0.2193 -0.4735 -1.0473
  289MOL0     C38929   8.343   3.468   7.016  0.1260 -0.1846  0.4847
  289MOL0     C38930   8.442   3.564   7.027  0.0836  0.2736 -1.2297
  289MOL0     N38931   9.037   3.831   7.131  0.7156  0.6912  0.2012
  289MOL0     N38932   9.109   3.923   7.192  0.1589  0.2908  0.3017
  289MOL0     C38933  10.230   4.663   7.107  0.6171 -0.4022 -0.0778
  289MOL0     C38934  10.326   4.692   7.009 -0.0044 -0.2974 -0.4276
  289MOL0     C38935  10.566   4.763   6.661 -0.2490 -0.2099  0.5697
  289MOL0     C38936  10.675   4.676   6.675 -0.0258  0.0185  0.2024
  289MOL0     C38937  10.788   4.702   6.593  0.1349 -0.3624  0.8808
  289MOL0     C38938  10.789   4.805   6.496  1.0655 -0.5932 -0.2548
  289MOL0     O38939  10.898   4.828   6.420  0.2615 -0.0362  0.2102
  289MOL0     C38940  10.975   4.946   6.452 -0.1990 -0.4491 -0.4208
  289MOL0     C38941  11.111   4.894   6.513 -0.1598 -0.1948  0.1137
  289MOL0     C38942  11.202   4.836   6.408 -0.5650  0.5051  0.1732
  289MOL0     C38943  11.236   4.949   6.306 -0.2979 -0.3776 -0.5376
  289MOL0     C38944  11.365   4.905   6.243  0.0330 -0.0203 -0.1695
  289MOL0     C38945  11.471   4.891   6.182  1.1685  0.1723  0.3682
  289MOL0     C38946  10.675   4.884   6.478 -0.4224  0.2460  0.2415
  289MOL0     C38947  10.573   4.868   6.561 -0.0997  0.0136 -0.6656
  289MOL0     H38948  10.294   4.395   6.839 -3.7441 -1.1142  1.1487
  289MOL0     H38949  10.140   4.350   7.001  1.3025 -0.3699 -1.0245
  289MOL0     H38950   9.914   4.417   7.086  0.1939  0.4139  0.8681
  289MOL0     H38951  10.018   4.329   7.205  1.1788 -0.0937  0.6647
  289MOL0     H38952   9.887   4.423   7.393  0.7331  1.5306  0.0509
  289MOL0     H38953   9.819   4.538   7.284 -0.4700  0.1857  1.2446
  289MOL0     H38954   9.649   4.381   7.298 -0.3095 -0.6610 -1.3678
  289MOL0     H38955   9.726   4.323   7.152  1.5301  0.1656 -0.4407
  289MOL0     H38956   9.832   4.141   7.276  0.7256  1.2074  1.1025
  289MOL0     H38957   9.789   4.204   7.434  0.2546  1.9471  0.7341
  289MOL0     H38958   9.628   4.026   7.384  0.5809 -1.6399 -2.2127
  289MOL0     H38959   9.532   4.172   7.354 -1.3660  0.0386 -1.3284
  289MOL0     H38960   9.596   4.138   7.103  3.3935 -0.3549 -2.4355
  289MOL0     H38961   9.689   4.015   7.149 -0.9644 -2.7036  1.1646
  289MOL0     H38962   9.474   3.917   7.072 -0.2096 -2.8066  1.2012
  289MOL0     H38963   9.486   3.890   7.251 -3.5011 -0.2438  0.3581
  289MOL0     H38964   9.321   4.103   7.108 -0.9945 -0.4259 -0.1472
  289MOL0     H38965   9.316   4.063   7.281 -1.4582  1.5991 -0.3141
  289MOL0     H38966   9.315   3.817   6.972  0.0999 -0.3386 -0.1980
  289MOL0     H38967   9.028   3.684   6.853  1.3786 -0.7996 -0.6331
  289MOL0     H38968   9.190   3.643   6.892 -0.3241 -1.9940 -0.2811
  289MOL0     H38969   9.112   3.500   7.067  1.9624 -3.0152 -1.7405
  289MOL0     H38970   9.031   3.465   6.918  0.0169  0.5755  1.3927
  289MOL0     H38971   8.898   3.604   7.157 -1.3756  0.7341 -1.2740
  289MOL0     H38972   8.869   3.450   7.099 -0.6129  1.6372  4.8103
  289MOL0     H38973   8.790   3.555   6.882 -1.4025  0.4792 -0.0287
  289MOL0     H38974   8.829   3.713   6.951  0.1073  0.2479  1.8772
  289MOL0     H38975   8.694   3.368   6.910 -1.9576 -2.8644 -0.5310
  289MOL0     H38976   8.642   3.196   6.785  0.6789 -2.2704  1.4546
  289MOL0     H38977   8.529   3.096   6.870 -2.7327 -0.8018 -3.7290
  289MOL0     H38978   8.480   3.185   6.725  0.9588 -1.3763 -0.8269
  289MOL0     H38979   8.046   3.088   6.798 -1.2666  0.1749 -1.4683
  289MOL0     H38980   7.821   3.008   6.784  1.3302 -0.5678 -0.3802
  289MOL0     H38981   7.529   2.896   6.927  1.9546 -1.4896  2.1540
  289MOL0     H38982   7.586   2.973   7.077  0.0281 -1.3190 -0.2289
  289MOL0     H38983   7.349   2.972   7.094 -1.5795 -0.5383 -1.4896
  289MOL0     H38984   7.389   3.140   7.052 -2.5518 -0.0571 -2.2028
  289MOL0     H38985   7.292   2.945   6.836  0.5399  0.0728  0.2856
  289MOL0     H38986   7.337   3.115   6.814  1.5103 -0.8144 -0.0594
  289MOL0     H38987   7.138   3.053   7.032 -2.3878  1.8351  0.0489
  289MOL0     H38988   7.146   3.192   6.920 -1.3490 -0.9330 -1.4488
  289MOL0     H38989   7.041   2.911   6.866 -0.8102  0.5559  2.7921
  289MOL0     H38990   7.076   3.022   6.741 -2.1071 -1.3936 -0.7649
  289MOL0     H38991   6.898   3.080   6.982  2.0920 -0.0409  0.1735
  289MOL0     H38992   6.930   3.195   6.858 -1.7928  0.2861  2.7010
  289MOL0     H38993   6.782   2.918   6.819  0.7456 -0.0379  2.5986
  289MOL0     H38994   6.843   3.021   6.683  3.0252 -0.5596  0.4803
  289MOL0     H38995   6.613   3.079   6.717 -1.2807  0.2465  1.1114
  289MOL0     H38996   6.686   3.206   6.783  1.4504  0.6810  2.4924
  289MOL0     H38997   7.694   3.254   7.100 -0.8938 -3.7205  0.0693
  289MOL0     H38998   7.936   3.380   7.085 -3.4205  1.4965 -0.4164
  289MOL0     H38999   8.251   3.503   7.060  1.3088  1.0545  2.1024
  289MOL0     H39000   8.421   3.662   7.068  2.7974  1.8603 -3.3527
  289MOL0     H39001  10.218   4.720   7.198  3.1226  0.4158 -0.1683
  289MOL0     H39002  10.386   4.781   7.021 -0.0645 -0.1508 -1.1670
  289MOL0     H39003  10.669   4.590   6.740 -0.9375  0.9612  1.3985
  289MOL0     H39004  10.864   4.625   6.604 -0.9080 -1.2029  3.0040
  289MOL0     H39005  10.997   5.011   6.367 -2.1000  1.3012  0.3446
  289MOL0     H39006  10.925   5.003   6.531 -0.7415 -1.0666 -0.3066
  289MOL0     H39007  11.080   4.817   6.584  3.4106 -2.0135 -0.0295
  289MOL0     H39008  11.165   4.972   6.569 -0.0640  0.7027 -1.1914
  289MOL0     H39009  11.164   4.750   6.350 -0.6029 -0.6881  1.8972
  289MOL0     H39010  11.288   4.794   6.461 -2.3825 -1.0112  2.1009
  289MOL0     H39011  11.229   5.046   6.357  2.4415 -0.3650 -0.0467
  289MOL0     H39012  11.160   4.956   6.227 -1.3039  4.5402  0.5103
  289MOL0     H39013  11.562   4.899   6.127 -1.2526 -1.2505 -4.4228
  289MOL0     H39014  10.681   4.956   6.397 -1.9601  0.1164 -0.0165
  289MOL0     H39015  10.489   4.937   6.560  2.6780  3.7037 -1.6100
  290MOL0     O39016   4.078  10.840  10.010 -0.5521  0.6042  0.5366
  290MOL0     C39017   4.105  10.791  10.122 -1.1001 -0.3402  0.2180
  290MOL0     O39018   4.011  10.743  10.205 -0.5418  0.5460  0.4839
  290MOL0     C39019   3.883  10.740  10.163 -0.3584  0.5957 -0.1275
  290MOL0     C39020   3.823  10.615  10.152  0.0251  0.1107 -0.3385
  290MOL0     C39021   3.686  10.608  10.120 -0.3378 -0.4314  0.2116
  290MOL0     C39022   3.610  10.725  10.105 -0.1154 -0.1054 -0.5176
  290MOL0     O39023   3.475  10.716  10.070 -0.0201  0.0231  0.5939
  290MOL0     C39024   3.384  10.805  10.134 -0.5395 -0.1989  0.4803
  290MOL0     C39025   3.400  10.803  10.287  0.0993 -0.5683  0.1771
  290MOL0     C39026   3.398  10.667  10.358  0.2083 -1.0932 -0.3298
  290MOL0     C39027   3.424  10.679  10.506  0.5205 -0.9337  0.0497
  290MOL0     C39028   3.562  10.730  10.551  0.1760 -0.6048  0.5960
  290MOL0     C39029   3.684  10.679  10.475 -0.1805 -0.7847  0.2414
  290MOL0     C39030   3.814  10.749  10.517  0.2271  0.0936  0.5060
  290MOL0     C39031   3.852  10.760  10.662  0.3646 -0.5109  0.6147
  290MOL0     N39032   3.935  10.870  10.695 -0.4450  0.5286 -0.3668
  290MOL0     C39033   4.053  10.914  10.641  0.6284  0.8916 -0.6205
  290MOL0     C39034   4.114  10.986  10.733 -0.3022 -0.1927  0.0869
  290MOL0     C39035   4.238  11.051  10.721 -0.4741  0.1111  0.0529
  290MOL0     C39036   4.346  11.003  10.816  0.3877 -1.1795 -0.4195
  290MOL0     C39037   4.384  10.856  10.801 -0.5812  0.6125  0.1408
  290MOL0     C39038   4.512  10.820  10.884 -0.4602 -0.3957 -0.2231
  290MOL0     O39039   4.634  10.861  10.813 -0.1580 -0.3839 -0.2889
  290MOL0     C39040   4.755  10.825  10.872  0.2404  0.1512 -0.2680
  290MOL0     C39041   4.869  10.863  10.802  0.2599 -0.8846  0.0479
  290MOL0     C39042   4.996  10.828  10.837  0.0616 -0.4117 -0.2066
  290MOL0     C39043   5.112  10.865  10.751 -0.0820 -0.1506 -0.2169
  290MOL0     C39044   5.011  10.749  10.956 -0.5682  0.2382 -0.0602
  290MOL0     C39045   5.144  10.704  11.000  0.0366 -0.5099 -0.2669
  290MOL0     O39046   5.240  10.802  11.026 -0.2974 -0.1807  0.1106
  290MOL0     C39047   5.365  10.759  11.063 -0.0230  0.0353  0.9495
  290MOL0     C39048   5.423  10.792  11.185  0.6218  0.7262  0.7638
  290MOL0     C39049   5.556  10.743  11.222  0.5306 -0.2803  0.2631
  290MOL0     C39050   5.630  10.667  11.134 -0.6339 -0.1479 -0.6736
  290MOL0     O39051   5.752  10.627  11.174  0.0922 -0.6747  0.6660
  290MOL0     C39052   5.858  10.611  11.075  0.8061  0.1890 -0.0933
  290MOL0     C39053   5.990  10.627  11.154  0.5771  0.5575 -0.8085
  290MOL0     C39054   6.114  10.643  11.068 -0.2982 -0.6666  0.0382
  290MOL0     C39055   6.237  10.604  11.149 -0.7479  0.3977  0.1996
  290MOL0     C39056   6.363  10.598  11.058 -0.1893 -0.6701  0.9268
  290MOL0     C39057   6.437  10.471  11.093 -0.7741  0.8037  0.1078
  290MOL0     C39058   6.503  10.476  11.236  0.1774  0.4870 -0.3167
  290MOL0     C39059   6.568  10.343  11.262 -0.3601 -0.1102 -0.8716
  290MOL0    Cl39060   6.447  10.199  11.261 -0.1890  0.3996  0.1031
  290MOL0     C39061   5.579  10.644  11.005  0.3410  0.1846 -0.0823
  290MOL0     C39062   5.450  10.689  10.976 -0.9374  0.1524 -0.4724
  290MOL0     O39063   5.147  10.585  11.030 -0.8185  0.1147 -0.1390
  290MOL0     C39064   4.900  10.710  11.031  0.3103  0.4649 -0.4793
  290MOL0     C39065   4.773  10.741  10.980  0.2633  1.7932 -0.4905
  290MOL0     N39066   4.030  11.005  10.844  0.0979 -0.5552  0.2181
  290MOL0     N39067   3.923  10.933  10.818 -1.0915  0.5216 -0.0956
  290MOL0     C39068   3.678  10.844  10.105 -0.3021 -0.1993  0.2022
  290MOL0     C39069   3.812  10.855  10.135 -0.0164  0.2917  0.4001
  290MOL0     C39070   4.247  10.798  10.165 -0.1621 -0.6065 -0.1692
  290MOL0     C39071   4.297  10.750  10.288  0.1694  0.3985 -0.5113
  290MOL0     C39072   4.437  10.753  10.315 -0.3625  0.7774 -0.3726
  290MOL0     C39073   4.516  10.822  10.222  0.0451  0.4879  0.0955
  290MOL0     O39074   4.646  10.814  10.260  0.2060  0.7293  1.0483
  290MOL0     C39075   4.726  10.927  10.218 -0.2021 -0.1406  0.4032
  290MOL0     C39076   4.862  10.922  10.272 -0.3386  0.5995  0.2606
  290MOL0     C39077   4.954  11.026  10.221 -0.2809 -0.2632 -0.9075
  290MOL0     C39078   5.072  11.054  10.319  0.1971 -0.9196  0.1092
  290MOL0     C39079   5.029  11.129  10.436  0.8049 -0.2270 -0.0870
  290MOL0     C39080   4.976  11.188  10.522  1.0309  0.3381 -0.7235
  290MOL0     C39081   4.468  10.884  10.112 -0.3846  0.4585  0.9343
  290MOL0     C39082   4.331  10.876  10.082 -0.0339 -0.8925 -1.1722
  290MOL0     H39083   3.889  10.530  10.166  0.2192  0.5364  1.7371
  290MOL0     H39084   3.643  10.511  10.099 -1.4715 -0.5422  2.7358
  290MOL0     H39085   3.403  10.907  10.099  1.7721 -0.8956 -0.4647
  290MOL0     H39086   3.281  10.779  10.106 -0.3369 -0.5484  0.0395
  290MOL0     H39087   3.492  10.861  10.300 -0.8588  1.0699 -0.1185
  290MOL0     H39088   3.319  10.868  10.320  2.4295  3.0340 -0.6325
  290MOL0     H39089   3.296  10.633  10.339 -1.0366  2.1446 -0.1870
  290MOL0     H39090   3.470  10.605  10.304  1.5879 -0.4373  0.6838
  290MOL0     H39091   3.343  10.735  10.554  0.2936  0.0702 -1.4318
  290MOL0     H39092   3.407  10.581  10.551  2.3333 -0.3411  2.1932
  290MOL0     H39093   3.549  10.836  10.531  1.6126 -0.2658  1.3226
  290MOL0     H39094   3.580  10.723  10.659 -2.3455 -0.3917  1.0727
  290MOL0     H39095   3.693  10.571  10.494  2.1598 -0.7880 -0.5147
  290MOL0     H39096   3.663  10.711  10.373  0.4787  3.5573  1.3030
  290MOL0     H39097   3.894  10.684  10.479 -1.4588 -1.2781 -0.8692
  290MOL0     H39098   3.825  10.844  10.465  1.4569  0.6892  1.7779
  290MOL0     H39099   3.880  10.661  10.701 -1.2509 -2.1235 -2.0571
  290MOL0     H39100   3.757  10.781  10.713  0.6051 -0.6067  1.1086
  290MOL0     H39101   4.106  10.880  10.553  1.2932  0.4243 -0.0558
  290MOL0     H39102   4.268  11.051  10.616  0.0517  1.2521  0.1972
  290MOL0     H39103   4.219  11.158  10.737  0.2760 -0.0720  2.4184
  290MOL0     H39104   4.333  11.032  10.921 -1.1358  0.5814 -1.0279
  290MOL0     H39105   4.438  11.057  10.791  0.8224  0.0665  3.1353
  290MOL0     H39106   4.408  10.835  10.696  1.5387 -1.5821  0.9759
  290MOL0     H39107   4.298  10.799  10.836 -1.0204  0.4939 -1.0796
  290MOL0     H39108   4.519  10.713  10.905  1.7158 -0.0173  1.2710
  290MOL0     H39109   4.524  10.876  10.978 -1.8710  1.3597 -1.0223
  290MOL0     H39110   4.855  10.916  10.708  1.3129 -0.6771  0.0000
  290MOL0     H39111   5.089  10.957  10.697  0.7419  3.0138  4.2489
  290MOL0     H39112   5.205  10.878  10.808 -1.4097  0.9967  1.7914
  290MOL0     H39113   5.115  10.789  10.672  1.1764 -1.4613  1.0196
  290MOL0     H39114   5.353  10.850  11.244 -2.1924  0.4089 -2.0049
  290MOL0     H39115   5.602  10.763  11.318 -1.1901  1.9662  0.6737
  290MOL0     H39116   5.858  10.520  11.015 -1.0342  2.5418 -4.0917
  290MOL0     H39117   5.852  10.684  10.994 -0.1731 -0.2831 -0.4629
  290MOL0     H39118   5.987  10.714  11.220 -0.0241  0.7826 -1.1261
  290MOL0     H39119   6.011  10.537  11.213 -0.1421  0.9919  0.1430
  290MOL0     H39120   6.123  10.745  11.029 -0.6414 -0.3267  0.8344
  290MOL0     H39121   6.105  10.575  10.983  2.1969  0.6526 -1.4090
  290MOL0     H39122   6.265  10.681  11.222  3.1744 -1.2846  0.7037
  290MOL0     H39123   6.212  10.515  11.207  0.6818 -0.8194 -0.9703
  290MOL0     H39124   6.418  10.690  11.082 -1.5885  0.9527 -1.5966
  290MOL0     H39125   6.334  10.612  10.954 -0.1032  0.6167  1.0554
  290MOL0     H39126   6.367  10.387  11.095  1.1826 -0.9145 -0.0122
  290MOL0     H39127   6.511  10.445  11.017 -0.0857  1.6810  0.4716
  290MOL0     H39128   6.434  10.490  11.319  0.0302 -0.6445 -0.2386
  290MOL0     H39129   6.580  10.554  11.242 -0.1343  0.7134  0.9583
  290MOL0     H39130   6.619  10.349  11.358 -0.3746 -1.2773 -0.7805
  290MOL0     H39131   6.643  10.322  11.185  1.2475  1.4291  0.2141
  290MOL0     H39132   5.635  10.594  10.926  0.4416 -2.0174  1.2902
  290MOL0     H39133   5.398  10.660  10.885 -1.0520 -0.0526 -0.3415
  290MOL0     H39134   4.914  10.647  11.119 -2.5564  0.5425  0.1584
  290MOL0     H39135   4.692  10.709  11.046  1.0094 -0.5855 -0.6108
  290MOL0     H39136   3.629  10.937  10.079 -0.5293 -0.5032 -0.4666
  290MOL0     H39137   3.866  10.947  10.151  0.9215  0.5708 -3.3745
  290MOL0     H39138   4.232  10.704  10.362  0.1981  0.2018 -0.6077
  290MOL0     H39139   4.477  10.708  10.405 -0.2808  1.4315 -0.0718
  290MOL0     H39140   4.738  10.904  10.112  1.1608  0.5280  0.3980
  290MOL0     H39141   4.676  11.024  10.225 -0.0538  0.0016 -0.4155
  290MOL0     H39142   4.914  10.830  10.244  0.6813  1.7723 -2.0928
  290MOL0     H39143   4.850  10.917  10.380 -0.5174 -0.3404  0.2024
  290MOL0     H39144   4.912  11.126  10.206 -0.2685 -0.3913 -1.8553
  290MOL0     H39145   5.007  10.997  10.130 -0.1796  0.9521 -1.2614
  290MOL0     H39146   5.157  11.109  10.278 -1.4251  2.0908  0.5249
  290MOL0     H39147   5.108  10.953  10.343 -2.7609 -1.7956  1.3352
  290MOL0     H39148   4.920  11.243  10.596  1.4474  0.2241 -0.3240
  290MOL0     H39149   4.523  10.937  10.036 -1.1007 -0.6641 -0.4251
  290MOL0     H39150   4.301  10.921   9.987 -0.7436 -1.3856 -1.1928
  291MOL0     O39151   9.358  10.677   9.320 -0.2559  0.1335  0.0455
  291MOL0     C39152   9.349  10.795   9.302 -0.2205  0.2835 -0.3083
  291MOL0     O39153   9.236  10.869   9.314 -0.1943  0.8870  0.2047
  291MOL0     C39154   9.113  10.809   9.325 -0.5544 -0.4021 -0.8872
  291MOL0     C39155   9.033  10.795   9.214  1.1463  0.0117  0.2985
  291MOL0     C39156   8.900  10.751   9.210 -0.0723  0.8909 -0.0546
  291MOL0     C39157   8.852  10.695   9.330  0.0179 -0.4156 -0.1707
  291MOL0     O39158   8.718  10.653   9.323  0.3442 -0.4189  0.1536
  291MOL0     C39159   8.682  10.538   9.399 -0.1342  0.4072  0.4131
  291MOL0     C39160   8.534  10.493   9.374  0.3551 -0.1777 -0.4023
  291MOL0     C39161   8.515  10.351   9.430 -0.2296  0.4395 -0.2711
  291MOL0     C39162   8.370  10.300   9.409 -0.3338 -0.6481  0.1972
  291MOL0     C39163   8.272  10.323   9.529  1.0907  0.0394  0.4172
  291MOL0     C39164   8.149  10.229   9.510  0.9087 -0.3030 -0.4840
  291MOL0     C39165   8.047  10.233   9.627 -0.1504 -0.9830 -0.2855
  291MOL0     C39166   8.072  10.125   9.737  0.5123 -0.0009  0.4592
  291MOL0     N39167   7.941  10.112   9.799 -0.0174  1.0579 -0.3590
  291MOL0     C39168   7.910  10.149   9.926  0.0943  0.4164 -0.7989
  291MOL0     C39169   7.781  10.122   9.945 -0.3923  0.9280 -0.2548
  291MOL0     C39170   7.695  10.149  10.062  0.4574  0.6252  0.3991
  291MOL0     C39171   7.633  10.027  10.126  0.1897  0.8367 -0.0744
  291MOL0     C39172   7.543  10.064  10.254 -0.9204 -0.6033  0.5728
  291MOL0     C39173   7.628  10.102  10.379  0.4304  0.3795  0.4083
  291MOL0     O39174   7.550  10.146  10.495  0.4269 -0.2743 -0.1698
  291MOL0     C39175   7.475  10.048  10.566 -0.3600  0.3367 -0.1597
  291MOL0     C39176   7.535   9.933  10.608 -0.1494 -0.6909 -0.2077
  291MOL0     C39177   7.460   9.845  10.683  0.1181  0.1452  0.1336
  291MOL0     C39178   7.525   9.715  10.716  0.2511  0.3411 -0.2635
  291MOL0     C39179   7.326   9.872  10.720 -0.4006 -0.1675 -0.4249
  291MOL0     C39180   7.238   9.767  10.790 -0.1532 -0.4429 -0.1177
  291MOL0     O39181   7.106   9.753  10.749 -0.1566 -0.0233 -0.2483
  291MOL0     C39182   7.008   9.676  10.809  0.3787  0.0047 -0.1672
  291MOL0     C39183   6.887   9.663  10.740 -0.7157  0.1923 -0.1480
  291MOL0     C39184   6.781   9.593  10.786 -0.6140 -0.2025  0.3093
  291MOL0     C39185   6.784   9.531  10.910 -0.6564 -0.9021  0.3047
  291MOL0     O39186   6.671   9.463  10.958 -0.7118  0.1409 -0.2286
  291MOL0     C39187   6.703   9.348  11.046 -0.0421  0.0603  0.5423
  291MOL0     C39188   6.573   9.259  11.068 -0.7610 -0.6079  0.4036
  291MOL0     C39189   6.475   9.335  11.140  1.2241 -0.4990 -0.1342
  291MOL0     C39190   6.335   9.269  11.172  0.2466 -0.4362  0.6067
  291MOL0     C39191   6.338   9.163  11.278  0.4488  0.3388  0.1665
  291MOL0     C39192   6.208   9.111  11.318 -0.2154 -0.2189  0.0919
  291MOL0     C39193   6.166   8.990  11.225  0.7363  0.3272 -0.0435
  291MOL0     C39194   6.042   8.919  11.284  0.1702  0.0800 -0.0899
  291MOL0    Cl39195   6.011   8.775  11.197  0.1446 -0.1402  0.6006
  291MOL0     C39196   6.902   9.545  10.985 -0.3903  0.2013  0.9742
  291MOL0     C39197   7.026   9.611  10.939  0.2266  0.5259  0.6166
  291MOL0     O39198   7.291   9.712  10.883 -0.1567  0.0126 -0.2849
  291MOL0     C39199   7.276   9.989  10.675  0.0915 -0.1801  0.2308
  291MOL0     C39200   7.345  10.081  10.607 -0.8754 -0.4718 -0.5648
  291MOL0     N39201   7.731  10.058   9.831 -0.5698  0.1683  0.1454
  291MOL0     N39202   7.833  10.051   9.746  0.4403  0.4418 -0.0139
  291MOL0     C39203   8.929  10.708   9.442  0.7407  0.8439 -0.1636
  291MOL0     C39204   9.056  10.769   9.442 -0.6115 -0.2033 -1.4560
  291MOL0     C39205   9.488  10.856   9.274  0.5754  0.6550 -0.1605
  291MOL0     C39206   9.616  10.807   9.332  0.1930  0.0331  0.0326
  291MOL0     C39207   9.739  10.865   9.306 -0.0591  0.1982 -0.6469
  291MOL0     C39208   9.748  10.981   9.220  0.2223  0.7828 -0.3152
  291MOL0     O39209   9.866  11.045   9.210 -0.3082  0.1252 -0.0754
  291MOL0     C39210   9.878  11.138   9.104 -0.6874 -0.3912 -0.9004
  291MOL0     C39211  10.025  11.177   9.088 -1.2446  0.4866 -0.3585
  291MOL0     C39212  10.127  11.059   9.065 -0.7459 -0.4357 -0.1858
  291MOL0     C39213  10.277  11.112   9.064 -0.1886 -0.0374 -0.4543
  291MOL0     C39214  10.302  11.198   8.948 -0.0051 -0.0543 -0.1360
  291MOL0     C39215  10.320  11.255   8.841 -0.0682 -0.2404 -0.6288
  291MOL0     C39216   9.622  11.038   9.184 -0.4124  0.1245  0.9679
  291MOL0     C39217   9.501  10.971   9.199 -0.0978 -0.5709 -0.5103
  291MOL0     H39218   9.072  10.821   9.116 -0.5018  1.4861 -0.0239
  291MOL0     H39219   8.844  10.765   9.119  0.5954  2.1679 -0.2878
  291MOL0     H39220   8.748  10.454   9.377 -1.4771 -1.1602  2.0397
  291MOL0     H39221   8.690  10.555   9.507  3.2592  0.6496  0.2418
  291MOL0     H39222   8.465  10.561   9.424  0.3994 -1.1930  1.0972
  291MOL0     H39223   8.504  10.504   9.269 -0.4891  3.9623  0.1005
  291MOL0     H39224   8.587  10.283   9.383 -0.3473 -1.1976  1.7333
  291MOL0     H39225   8.548  10.342   9.534 -0.9604 -2.9450 -0.2175
  291MOL0     H39226   8.336  10.343   9.315  0.7090 -0.8100 -0.2735
  291MOL0     H39227   8.388  10.192   9.403  1.7400 -0.3482  0.2926
  291MOL0     H39228   8.318  10.289   9.622 -0.4751 -2.9477  0.2120
  291MOL0     H39229   8.236  10.426   9.531 -2.1142 -0.9811  0.5943
  291MOL0     H39230   8.103  10.256   9.414  2.0311  0.3075 -0.8702
  291MOL0     H39231   8.175  10.123   9.503  1.7958 -0.0996 -0.4400
  291MOL0     H39232   8.036  10.335   9.664 -1.2807 -1.0819 -0.3313
  291MOL0     H39233   7.951  10.214   9.578 -1.2313 -1.6558  1.9744
  291MOL0     H39234   8.147  10.158   9.809 -3.2639  0.7601  4.4426
  291MOL0     H39235   8.104  10.030   9.692 -2.8165 -2.5711  3.0087
  291MOL0     H39236   7.981  10.188   9.998 -0.9057 -0.0820  0.4911
  291MOL0     H39237   7.747  10.208  10.139  2.2105 -0.1752 -0.1259
  291MOL0     H39238   7.608  10.207  10.030 -0.0957 -0.3691  0.0539
  291MOL0     H39239   7.716   9.960  10.153 -0.8692 -1.9806 -3.0920
  291MOL0     H39240   7.569   9.981  10.049 -1.7224  1.1991  1.2297
  291MOL0     H39241   7.490   9.971  10.278  1.1779 -1.5060  1.9878
  291MOL0     H39242   7.468  10.139  10.227 -0.2437 -0.2711 -0.4453
  291MOL0     H39243   7.709  10.173  10.359  1.0803  0.0309  1.6467
  291MOL0     H39244   7.680  10.009  10.404  1.8238  0.2324 -2.6899
  291MOL0     H39245   7.631   9.895  10.575  0.6507 -0.9479  2.2511
  291MOL0     H39246   7.559   9.719  10.820  0.0545  1.8701 -0.2375
  291MOL0     H39247   7.476   9.620  10.689  0.0161  0.9687 -2.2193
  291MOL0     H39248   7.614   9.702  10.654 -0.5467  1.1870 -1.6382
  291MOL0     H39249   6.904   9.695  10.638  1.5485  1.4153  0.5492
  291MOL0     H39250   6.694   9.583  10.722 -0.9798 -1.5449  0.9854
  291MOL0     H39251   6.786   9.283  11.016  0.1945  0.9323 -0.7993
  291MOL0     H39252   6.738   9.384  11.143  0.5942  0.1856  0.2749
  291MOL0     H39253   6.523   9.228  10.976 -1.5225  0.6308  0.3743
  291MOL0     H39254   6.605   9.174  11.128  3.2387  2.4486  3.1684
  291MOL0     H39255   6.451   9.426  11.085 -0.3648 -0.9537 -0.2671
  291MOL0     H39256   6.512   9.370  11.237  1.1202  0.5605 -0.4696
  291MOL0     H39257   6.267   9.347  11.207 -0.4847 -0.9563  0.3513
  291MOL0     H39258   6.301   9.225  11.079  0.8409 -0.9496  0.6229
  291MOL0     H39259   6.386   9.207  11.366 -0.6720  0.0973  0.9126
  291MOL0     H39260   6.402   9.079  11.252 -2.1922 -1.8150  0.2223
  291MOL0     H39261   6.217   9.067  11.418  1.0944 -1.3908 -0.4992
  291MOL0     H39262   6.136   9.192  11.328 -2.3879 -2.1307  0.7640
  291MOL0     H39263   6.246   8.916  11.223 -1.0712 -1.7272 -2.1401
  291MOL0     H39264   6.160   9.023  11.121  1.4935  1.1626  0.1711
  291MOL0     H39265   5.955   8.985  11.298 -1.5540 -0.0180 -6.9192
  291MOL0     H39266   6.065   8.872  11.380  0.6186 -1.7366 -1.0477
  291MOL0     H39267   6.901   9.514  11.089  1.7159  0.7677  1.2123
  291MOL0     H39268   7.115   9.622  11.000  1.7997  1.4817 -1.7073
  291MOL0     H39269   7.171  10.005  10.696 -0.7814  0.5813 -3.8452
  291MOL0     H39270   7.307  10.180  10.582  2.7840  1.3112  0.2413
  291MOL0     H39271   8.891  10.672   9.537 -0.5425  4.8889  1.0463
  291MOL0     H39272   9.115  10.791   9.531 -2.0514 -0.6674 -0.3407
  291MOL0     H39273   9.606  10.723   9.400  0.0007 -2.2040 -2.5864
  291MOL0     H39274   9.833  10.817   9.334  0.2443 -0.4359 -2.6400
  291MOL0     H39275   9.832  11.091   9.017 -2.3447 -2.7263  1.0591
  291MOL0     H39276   9.826  11.233   9.121  1.4818  0.6215  0.6124
  291MOL0     H39277  10.051  11.232   9.178 -1.0762  1.3724 -0.9361
  291MOL0     H39278  10.036  11.251   9.008 -3.1856  0.9813 -0.1966
  291MOL0     H39279  10.099  11.012   8.971  1.0963 -1.8381 -0.0993
  291MOL0     H39280  10.119  10.985   9.146  0.8736 -0.6284 -0.1802
  291MOL0     H39281  10.336  11.020   9.064 -0.6095 -0.3370  0.8024
  291MOL0     H39282  10.301  11.170   9.154 -1.5565  1.3383 -0.9415
  291MOL0     H39283  10.326  11.295   8.742 -0.4712 -2.9565 -1.8200
  291MOL0     H39284   9.620  11.129   9.125  3.7434 -0.8220 -0.9974
  291MOL0     H39285   9.405  11.006   9.165 -0.3094 -0.6506  0.0007
  292MOL0     O39286   5.122  10.986   2.693 -0.5129  0.0657  0.2073
  292MOL0     C39287   5.090  11.077   2.776 -0.2957 -0.5764  0.4535
  292MOL0     O39288   4.959  11.115   2.808  0.3385 -0.0730  0.2610
  292MOL0     C39289   4.847  11.038   2.769 -0.9325  0.1221  0.0750
  292MOL0     C39290   4.844  10.898   2.784 -0.7223  0.1946  0.5060
  292MOL0     C39291   4.727  10.827   2.754 -0.7120 -0.8658  0.3459
  292MOL0     C39292   4.607  10.895   2.707 -0.5917  0.4379  0.2928
  292MOL0     O39293   4.490  10.830   2.675  0.5031  0.4596  0.8578
  292MOL0     C39294   4.492  10.679   2.661 -0.9411  0.7102  0.3382
  292MOL0     C39295   4.355  10.618   2.670 -0.4473 -0.4435 -0.1878
  292MOL0     C39296   4.267  10.651   2.538 -0.8482  0.1822  0.5614
  292MOL0     C39297   4.127  10.649   2.585  0.2394 -1.3043  0.1273
  292MOL0     C39298   4.030  10.660   2.474 -0.3474  0.1884  0.0017
  292MOL0     C39299   4.021  10.540   2.382 -0.3983 -0.0025 -1.5514
  292MOL0     C39300   3.985  10.575   2.236 -0.3873 -0.2055 -0.2058
  292MOL0     C39301   3.852  10.648   2.227  0.0906  0.1377  0.4724
  292MOL0     N39302   3.735  10.566   2.242 -0.3430 -0.0441 -0.2442
  292MOL0     C39303   3.674  10.554   2.366 -0.2762  0.3059 -0.1967
  292MOL0     C39304   3.588  10.449   2.350 -0.1309  0.0965  0.0242
  292MOL0     C39305   3.485  10.409   2.446  0.5084  0.8271 -0.6028
  292MOL0     C39306   3.335  10.432   2.407 -0.3327 -0.1365 -0.6506
  292MOL0     C39307   3.306  10.588   2.411 -0.2553  0.6077 -0.0338
  292MOL0     C39308   3.169  10.618   2.342  0.2227 -0.0948  0.2581
  292MOL0     O39309   3.063  10.546   2.418 -0.4087  0.2844  0.0919
  292MOL0     C39310   2.946  10.512   2.353  0.2237  0.3417 -0.6717
  292MOL0     C39311   2.853  10.427   2.428 -0.2735 -0.5577  0.3148
  292MOL0     C39312   2.730  10.391   2.379  0.8365 -0.8526 -0.2521
  292MOL0     C39313   2.643  10.294   2.448 -0.2932 -0.3649 -0.6839
  292MOL0     C39314   2.687  10.442   2.253  1.2410 -0.8236  0.7169
  292MOL0     C39315   2.564  10.409   2.189  0.6207  0.7504  0.0493
  292MOL0     O39316   2.549  10.285   2.145  0.4095  0.0910 -0.9530
  292MOL0     C39317   2.432  10.250   2.081  1.0342 -0.7027 -0.0574
  292MOL0     C39318   2.439  10.216   1.944 -0.7261  0.2296 -0.4463
  292MOL0     C39319   2.320  10.176   1.879  0.3951  0.1809 -0.7416
  292MOL0     C39320   2.192  10.176   1.947 -0.1923 -0.3615 -0.1388
  292MOL0     O39321   2.072  10.131   1.893 -0.1189 -0.3051  0.4217
  292MOL0     C39322   2.081  10.098   1.748 -0.9832  0.2139  0.1851
  292MOL0     C39323   1.945  10.067   1.705  0.4478 -0.7086  0.5028
  292MOL0     C39324   1.862  10.198   1.706 -0.1857  0.9377  0.1306
  292MOL0     C39325   1.710  10.180   1.724  1.2061  0.2235 -0.6304
  292MOL0     C39326   1.627  10.194   1.591  0.2078  0.1235 -0.4948
  292MOL0     C39327   1.486  10.143   1.597  0.3451 -0.0676  0.6174
  292MOL0     C39328   1.418  10.165   1.468  0.1282 -0.1285 -0.6931
  292MOL0     C39329   1.272  10.154   1.482  0.6015  0.7378  0.1364
  292MOL0    Cl39330   1.204  10.283   1.592  0.3689 -0.1486 -0.2185
  292MOL0     C39331   2.187  10.214   2.081 -0.2102 -0.8830  0.1244
  292MOL0     C39332   2.303  10.259   2.147  0.7814  0.1558 -0.4023
  292MOL0     O39333   2.490  10.503   2.170  0.9729  0.8511  0.3127
  292MOL0     C39334   2.775  10.527   2.183 -0.3682  0.2540 -0.1127
  292MOL0     C39335   2.904  10.553   2.228 -0.4934 -0.2140  0.1220
  292MOL0     N39336   3.596  10.406   2.215  0.1728  0.1357 -0.4211
  292MOL0     N39337   3.689  10.473   2.155  0.5967  0.2540  0.9151
  292MOL0     C39338   4.613  11.032   2.695 -0.7294  1.0792  0.1170
  292MOL0     C39339   4.730  11.099   2.723  0.7238  0.3907 -0.4207
  292MOL0     C39340   5.200  11.147   2.836  0.0198 -0.3671  0.1884
  292MOL0     C39341   5.198  11.285   2.850 -0.2774 -0.2310 -0.0686
  292MOL0     C39342   5.304  11.355   2.907  0.0936  0.7175 -0.1569
  292MOL0     C39343   5.419  11.282   2.945  0.5667 -0.5570  0.7480
  292MOL0     O39344   5.528  11.354   2.984 -1.1689  0.0501 -0.4690
  292MOL0     C39345   5.550  11.352   3.126  1.0497 -0.1277  0.8898
  292MOL0     C39346   5.659  11.448   3.151  0.1589  1.0727  0.3762
  292MOL0     C39347   5.611  11.594   3.109  0.3467 -0.3355 -0.2884
  292MOL0     C39348   5.643  11.703   3.216  0.5060  0.1824  0.1380
  292MOL0     C39349   5.630  11.836   3.154  0.6950 -0.4300 -0.7130
  292MOL0     C39350   5.606  11.947   3.120 -0.0627 -0.5226 -0.3165
  292MOL0     C39351   5.428  11.140   2.928 -0.4078 -0.2310  0.4479
  292MOL0     C39352   5.315  11.078   2.869 -0.6024  0.3675  0.0937
  292MOL0     H39353   4.931  10.848   2.824  2.0148  2.3894 -2.1748
  292MOL0     H39354   4.740  10.720   2.767 -2.2773 -1.0399  0.6452
  292MOL0     H39355   4.529  10.660   2.560  0.7107  0.0945  1.0315
  292MOL0     H39356   4.569  10.623   2.713 -1.7902 -1.6787 -0.8191
  292MOL0     H39357   4.363  10.511   2.689 -0.2747 -0.0769  2.0386
  292MOL0     H39358   4.303  10.667   2.753 -1.4980 -1.0789 -0.4527
  292MOL0     H39359   4.290  10.752   2.503 -0.7687  0.5054  1.5041
  292MOL0     H39360   4.283  10.585   2.452  2.1621  1.7137 -0.1956
  292MOL0     H39361   4.109  10.559   2.645  2.7225 -1.8101  0.2298
  292MOL0     H39362   4.129  10.739   2.647  0.4831 -0.0387 -1.6191
  292MOL0     H39363   3.932  10.685   2.516 -1.0276  0.8113 -1.8663
  292MOL0     H39364   4.067  10.749   2.422 -0.3417  0.6702  0.8236
  292MOL0     H39365   4.111  10.478   2.381 -0.2762  0.1769 -1.8928
  292MOL0     H39366   3.949  10.468   2.424  0.9502 -0.2595  0.4554
  292MOL0     H39367   4.063  10.637   2.190  0.2577 -0.9568 -0.1430
  292MOL0     H39368   3.984  10.475   2.192  0.5591 -0.3683  0.1235
  292MOL0     H39369   3.856  10.708   2.135  1.3994 -0.8273 -0.1348
  292MOL0     H39370   3.849  10.730   2.299 -3.1750  1.0757 -0.5328
  292MOL0     H39371   3.675  10.609   2.460 -1.7349  0.1728 -0.0734
  292MOL0     H39372   3.491  10.303   2.471 -0.6341  1.5430  3.4499
  292MOL0     H39373   3.507  10.460   2.541 -1.1251 -0.6190  0.6059
  292MOL0     H39374   3.271  10.371   2.473  0.6430  0.8098  1.2489
  292MOL0     H39375   3.324  10.400   2.303 -2.2868  0.3712 -0.6404
  292MOL0     H39376   3.378  10.650   2.358 -1.9417  1.8896 -0.9197
  292MOL0     H39377   3.316  10.622   2.514  1.8958  0.1814 -0.0660
  292MOL0     H39378   3.179  10.589   2.237  0.9324 -2.7729  0.9742
  292MOL0     H39379   3.149  10.725   2.346  0.8250 -0.0031  2.5788
  292MOL0     H39380   2.904  10.398   2.518  0.6691  1.7267  0.5901
  292MOL0     H39381   2.538  10.312   2.424 -1.2015 -3.5217  0.3316
  292MOL0     H39382   2.665  10.189   2.426 -1.4557 -0.4585 -1.4829
  292MOL0     H39383   2.654  10.315   2.555  2.6741 -0.4399 -0.8762
  292MOL0     H39384   2.527  10.206   1.883 -0.1393 -0.3603  0.4846
  292MOL0     H39385   2.329  10.128   1.782  2.2715  1.0785 -1.0547
  292MOL0     H39386   2.119  10.176   1.682  3.2519 -0.0311  1.9830
  292MOL0     H39387   2.149  10.013   1.736 -2.6751 -1.8848  3.8295
  292MOL0     H39388   1.948  10.042   1.599  0.7629  1.1480  0.0571
  292MOL0     H39389   1.907   9.980   1.761 -2.2521  0.7301  1.0714
  292MOL0     H39390   1.884  10.234   1.605  1.4510 -0.7221 -0.1413
  292MOL0     H39391   1.900  10.277   1.771  1.5439  2.4734 -2.6074
  292MOL0     H39392   1.711  10.078   1.763  0.3521  1.4997  3.0699
  292MOL0     H39393   1.680  10.247   1.805  2.2247 -0.8786  0.7201
  292MOL0     H39394   1.686  10.154   1.507  1.4716  0.8607  0.0067
  292MOL0     H39395   1.619  10.297   1.557  0.5204  0.1221 -0.5840
  292MOL0     H39396   1.477  10.036   1.617 -0.6922 -0.5813 -2.2513
  292MOL0     H39397   1.432  10.207   1.668  1.3908  1.6744 -0.0831
  292MOL0     H39398   1.456  10.106   1.384 -1.3283  2.5547 -3.4451
  292MOL0     H39399   1.424  10.267   1.427  0.9568  0.8693  1.7021
  292MOL0     H39400   1.250  10.054   1.520 -0.8527  1.4823  1.3445
  292MOL0     H39401   1.238  10.156   1.379  0.6377 -5.0825 -0.3162
  292MOL0     H39402   2.087  10.205   2.120  0.7402 -1.1449  2.6968
  292MOL0     H39403   2.306  10.304   2.246  0.7565  1.6909 -1.0641
  292MOL0     H39404   2.749  10.562   2.083  0.3431 -1.1659 -0.8378
  292MOL0     H39405   2.967  10.619   2.168  1.3553  0.1578  2.3104
  292MOL0     H39406   4.526  11.086   2.659  0.3810  2.2549 -0.9153
  292MOL0     H39407   4.723  11.208   2.721 -1.7625  0.2889  0.0009
  292MOL0     H39408   5.110  11.340   2.820 -1.3491 -1.2554  1.0626
  292MOL0     H39409   5.299  11.456   2.946 -0.5579  0.1522  1.3153
  292MOL0     H39410   5.452  11.373   3.171  0.9094 -0.3931  0.7078
  292MOL0     H39411   5.583  11.259   3.173  1.5039  0.4984  1.8539
  292MOL0     H39412   5.744  11.432   3.083 -0.1095  1.4117 -0.0463
  292MOL0     H39413   5.687  11.450   3.256  2.8322  0.7997 -0.2402
  292MOL0     H39414   5.502  11.595   3.097  0.4335  2.0205 -1.5681
  292MOL0     H39415   5.656  11.623   3.013 -1.5468  0.5946 -0.9481
  292MOL0     H39416   5.744  11.680   3.253 -0.4668 -2.6078  1.3462
  292MOL0     H39417   5.573  11.694   3.299 -2.1514  0.1922 -1.9850
  292MOL0     H39418   5.587  12.049   3.091 -2.4186 -0.9418 -0.5036
  292MOL0     H39419   5.518  11.095   2.968 -0.9864 -0.5536  1.3996
  292MOL0     H39420   5.315  10.970   2.861  0.7313  0.4418 -1.1785
  293MOL0     O39421   4.281  10.493   1.997 -0.1095  0.3991  0.4258
  293MOL0     C39422   4.364  10.406   2.018  0.1948 -0.1997  0.0070
  293MOL0     O39423   4.337  10.277   2.016 -0.6508 -0.2688 -0.5330
  293MOL0     C39424   4.206  10.230   2.015  0.2593 -0.5201 -0.0029
  293MOL0     C39425   4.137  10.202   2.135  0.8879  0.5341 -0.7102
  293MOL0     C39426   4.005  10.147   2.122 -0.1596 -0.1649  0.5247
  293MOL0     C39427   3.944  10.133   2.001 -0.2642  0.0719 -0.2401
  293MOL0     O39428   3.823  10.076   1.995 -0.1155 -0.3459  0.1452
  293MOL0     C39429   3.728  10.173   1.957  0.0109 -0.4387  0.6769
  293MOL0     C39430   3.593  10.107   1.931 -0.1043  0.6406  0.2799
  293MOL0     C39431   3.487  10.210   1.919  0.5388  0.5746 -1.1255
  293MOL0     C39432   3.360  10.140   1.863  0.1814  0.1064  0.0864
  293MOL0     C39433   3.244  10.236   1.828 -0.5564 -0.6054  0.0589
  293MOL0     C39434   3.108  10.167   1.822  0.7744  0.1845 -0.2771
  293MOL0     C39435   2.998  10.271   1.784  0.2200 -0.1445  0.2555
  293MOL0     C39436   2.973  10.373   1.897 -0.1258 -0.2756 -0.0766
  293MOL0     N39437   2.877  10.466   1.860  0.0650  0.0397 -0.0278
  293MOL0     C39438   2.742  10.434   1.859  0.3785 -0.0560 -0.7251
  293MOL0     C39439   2.683  10.544   1.807 -0.5176  0.3365  0.2532
  293MOL0     C39440   2.538  10.572   1.792  0.6890  0.6146 -0.5131
  293MOL0     C39441   2.471  10.468   1.703 -0.5322  0.0913 -0.1291
  293MOL0     C39442   2.322  10.475   1.696 -0.4620 -0.0734 -0.9510
  293MOL0     C39443   2.269  10.421   1.562 -0.2498 -0.4492  0.6687
  293MOL0     O39444   2.126  10.435   1.570 -0.0065 -0.2988  0.2952
  293MOL0     C39445   2.058  10.442   1.447 -0.4810  0.5336 -0.5786
  293MOL0     C39446   1.921  10.474   1.444 -0.2676  0.0738  0.3514
  293MOL0     C39447   1.850  10.468   1.319 -0.3335  0.6886 -0.2756
  293MOL0     C39448   1.704  10.503   1.333  0.1285  0.0951  0.1637
  293MOL0     C39449   1.921  10.449   1.196  0.1009 -1.1115 -0.1710
  293MOL0     C39450   1.867  10.457   1.056 -0.6393  0.4811 -0.7502
  293MOL0     O39451   1.952  10.449   0.951  0.3840 -0.7070 -0.0918
  293MOL0     C39452   1.923  10.487   0.820  0.1792  0.4888  0.7926
  293MOL0     C39453   2.022  10.429   0.732  0.8708 -0.3450  0.2264
  293MOL0     C39454   1.993  10.438   0.593 -0.0284  0.8799 -0.6618
  293MOL0     C39455   1.870  10.488   0.554 -0.3205 -0.0054  0.5740
  293MOL0     O39456   1.844  10.485   0.417  0.1611 -0.3669  0.1083
  293MOL0     C39457   1.723  10.533   0.352 -0.2728  0.7115 -0.0538
  293MOL0     C39458   1.696  10.460   0.221  0.9779 -0.1041 -0.6378
  293MOL0     C39459   1.805  10.488   0.114  0.1349 -0.4901 -0.2047
  293MOL0     C39460   1.773  10.462  -0.038  0.2070  0.3405  0.3666
  293MOL0     C39461   1.881  10.491  -0.128 -0.1291  0.3043  1.0870
  293MOL0     C39462   1.835  10.461  -0.272 -0.4151 -0.0057 -0.6523
  293MOL0     C39463   1.950  10.471  -0.370  0.0456  0.0326 -0.5269
  293MOL0     C39464   2.053  10.363  -0.361 -0.3136 -0.2097 -0.0868
  293MOL0    Cl39465   1.996  10.193  -0.379  0.1831  0.3627 -0.0682
  293MOL0     C39466   1.785  10.559   0.644 -0.4423 -0.0484  0.4188
  293MOL0     C39467   1.806  10.548   0.781 -0.5078 -0.0619  1.1362
  293MOL0     O39468   1.747  10.461   1.043  0.4875 -0.6822  0.7980
  293MOL0     C39469   2.057  10.402   1.203  0.5253 -0.1562 -0.2765
  293MOL0     C39470   2.120  10.403   1.321 -0.5652 -0.4867 -0.6426
  293MOL0     N39471   2.779  10.645   1.797 -0.4829  0.2631  0.7880
  293MOL0     N39472   2.902  10.595   1.830  0.9228 -0.6780  0.0582
  293MOL0     C39473   4.011  10.170   1.891 -0.0554  0.0906 -0.5886
  293MOL0     C39474   4.147  10.210   1.896 -0.0845  0.1163 -0.4217
  293MOL0     C39475   4.506  10.441   1.986  0.4046  0.1231 -0.2196
  293MOL0     C39476   4.607  10.342   2.005  0.0634  0.0915 -0.6625
  293MOL0     C39477   4.736  10.380   1.994  0.2948 -0.1242  0.2387
  293MOL0     C39478   4.775  10.510   1.954  0.4613  0.5853  0.7711
  293MOL0     O39479   4.904  10.543   1.920  0.1074  0.2614 -0.4330
  293MOL0     C39480   5.012  10.451   1.945 -0.2944  0.5099 -0.4338
  293MOL0     C39481   5.143  10.495   1.874 -0.1881  0.0984  0.4805
  293MOL0     C39482   5.127  10.517   1.726 -0.3190 -0.7335 -0.0701
  293MOL0     C39483   5.262  10.553   1.663 -0.4067  0.1446 -0.0523
  293MOL0     C39484   5.270  10.522   1.517  0.3827  0.0868 -0.6198
  293MOL0     C39485   5.283  10.474   1.406 -0.3689 -0.5622 -0.1708
  293MOL0     C39486   4.676  10.604   1.923 -1.2098 -0.1036  0.3330
  293MOL0     C39487   4.541  10.572   1.948 -0.0004 -0.2693  0.0690
  293MOL0     H39488   4.174  10.240   2.230  2.8512  1.3053 -1.7297
  293MOL0     H39489   3.949  10.129   2.213  1.2581 -0.1569  1.4363
  293MOL0     H39490   3.713  10.238   2.043 -0.7861  1.8088 -1.0752
  293MOL0     H39491   3.757  10.232   1.870 -0.1047 -0.9698  0.2720
  293MOL0     H39492   3.600  10.045   1.841  0.4295 -0.2527  0.9325
  293MOL0     H39493   3.575  10.044   2.018  1.4302 -0.7005 -0.3122
  293MOL0     H39494   3.461  10.256   2.015  0.7733  0.0886 -0.8270
  293MOL0     H39495   3.523  10.297   1.865 -0.3402  4.7166  4.1155
  293MOL0     H39496   3.390  10.095   1.768 -2.0891  3.0642 -2.2338
  293MOL0     H39497   3.325  10.058   1.926  0.9599 -1.0601 -0.9572
  293MOL0     H39498   3.231  10.322   1.894 -0.1450  1.2408 -2.1584
  293MOL0     H39499   3.263  10.295   1.739  0.6071  0.1594  0.7818
  293MOL0     H39500   3.109  10.100   1.735  0.3255  0.7769 -0.7526
  293MOL0     H39501   3.085  10.124   1.920 -3.6465  1.9128 -0.3096
  293MOL0     H39502   3.029  10.318   1.689  1.0579 -1.4012 -0.1160
  293MOL0     H39503   2.906  10.219   1.760 -0.0750  2.0103 -4.4212
  293MOL0     H39504   3.062  10.434   1.916 -0.5520  0.4502 -0.3643
  293MOL0     H39505   2.943  10.322   1.989 -1.4950 -1.0629 -0.9307
  293MOL0     H39506   2.706  10.334   1.879  0.8605 -0.3647 -1.3445
  293MOL0     H39507   2.494  10.572   1.892  1.7721 -0.4707 -0.0104
  293MOL0     H39508   2.525  10.672   1.750 -0.1269  1.1433  0.9370
  293MOL0     H39509   2.485  10.367   1.744 -2.4049  0.7925  2.5020
  293MOL0     H39510   2.515  10.469   1.603  0.6262 -0.7645  0.3438
  293MOL0     H39511   2.305  10.582   1.709  1.8808 -0.0348  3.6519
  293MOL0     H39512   2.275  10.415   1.775  0.4397  0.1728 -0.2205
  293MOL0     H39513   2.304  10.318   1.554  0.3046 -0.3860  2.1054
  293MOL0     H39514   2.305  10.493   1.487 -1.5218  2.1415  2.3826
  293MOL0     H39515   1.872  10.517   1.531  0.2489 -1.5897  1.4938
  293MOL0     H39516   1.647  10.414   1.303  1.2966 -0.2672 -1.1436
  293MOL0     H39517   1.683  10.540   1.433 -1.4805 -1.0218  0.2719
  293MOL0     H39518   1.670  10.578   1.261 -3.0992 -1.3908 -0.0180
  293MOL0     H39519   2.117  10.385   0.760  1.5366  0.8384 -0.1096
  293MOL0     H39520   2.054  10.391   0.516 -2.0721 -0.7767 -1.3383
  293MOL0     H39521   1.634  10.516   0.414 -1.2124  0.4238 -1.4377
  293MOL0     H39522   1.734  10.638   0.324 -2.2945  0.3031 -2.7946
  293MOL0     H39523   1.696  10.351   0.225  0.5449 -0.1146 -0.8982
  293MOL0     H39524   1.600  10.496   0.184  1.8144  2.4207 -0.6015
  293MOL0     H39525   1.901  10.440   0.136 -0.9876 -2.7369  0.1355
  293MOL0     H39526   1.828  10.595   0.108  0.9341 -0.6616 -0.3389
  293MOL0     H39527   1.739  10.358  -0.043 -1.9667  0.8564  2.3754
  293MOL0     H39528   1.687  10.522  -0.068  1.8351  1.1524 -3.0497
  293MOL0     H39529   1.973  10.435  -0.107  1.3319  1.4422 -1.7053
  293MOL0     H39530   1.902  10.598  -0.119  2.3271  0.1172 -1.0342
  293MOL0     H39531   1.795  10.359  -0.272  1.6307 -0.9468  2.7711
  293MOL0     H39532   1.763  10.537  -0.305 -0.9640  1.2627  3.0725
  293MOL0     H39533   2.000  10.567  -0.356 -1.0540  0.2456  2.7873
  293MOL0     H39534   1.908  10.472  -0.472 -1.0434  0.1651 -0.0957
  293MOL0     H39535   2.120  10.377  -0.276  0.6834 -2.7379 -0.3501
  293MOL0     H39536   2.120  10.389  -0.443 -0.8820  3.2638  0.4244
  293MOL0     H39537   1.695  10.606   0.606 -0.5803 -0.3038  0.4252
  293MOL0     H39538   1.739  10.601   0.848  2.1647  5.8621 -0.2230
  293MOL0     H39539   2.115  10.366   1.118 -1.3125 -1.3194 -1.0903
  293MOL0     H39540   2.227  10.387   1.313 -0.4955  0.0274 -0.8368
  293MOL0     H39541   3.962  10.168   1.794 -1.6699  1.1486  0.1796
  293MOL0     H39542   4.208  10.231   1.809 -0.1187 -0.2738 -0.5392
  293MOL0     H39543   4.598  10.237   2.030  1.6128  0.0933  0.0131
  293MOL0     H39544   4.804  10.296   2.007 -2.2417 -2.5486 -0.9590
  293MOL0     H39545   5.033  10.463   2.051  0.8862  1.5485 -0.7672
  293MOL0     H39546   4.988  10.347   1.919  0.4267 -0.2558  1.7700
  293MOL0     H39547   5.226  10.427   1.894  0.3164  0.5662  0.0134
  293MOL0     H39548   5.172  10.595   1.909 -2.4859  0.7560  0.6262
  293MOL0     H39549   5.057  10.600   1.715 -0.4195 -0.3144  2.9234
  293MOL0     H39550   5.098  10.421   1.683  0.8766 -2.2085  2.2432
  293MOL0     H39551   5.345  10.496   1.707 -0.7535  0.6437  1.2837
  293MOL0     H39552   5.295  10.656   1.676  1.6693 -0.4428 -0.2065
  293MOL0     H39553   5.303  10.423   1.314 -0.2952 -2.0424  0.6275
  293MOL0     H39554   4.716  10.702   1.900  0.4398 -1.0428 -1.0052
  293MOL0     H39555   4.462  10.645   1.938  1.5588  1.7971  1.7396
  294MOL0     O39556   3.237   4.973   7.620 -1.0054  0.8509  0.7672
  294MOL0     C39557   3.233   4.857   7.594  0.2316  0.5162 -0.1844
  294MOL0     O39558   3.126   4.782   7.614 -0.0018 -0.6014 -0.6583
  294MOL0     C39559   3.000   4.841   7.646 -0.2451 -0.0086 -0.4438
  294MOL0     C39560   2.955   4.974   7.633 -0.3280 -0.1288  0.2987
  294MOL0     C39561   2.828   5.018   7.674  0.4703 -0.1875 -0.7459
  294MOL0     C39562   2.742   4.914   7.718  0.0211 -0.4857 -0.3634
  294MOL0     O39563   2.617   4.952   7.763 -0.2927  0.0063  0.0849
  294MOL0     C39564   2.526   4.963   7.653 -0.6419 -0.2085  0.7525
  294MOL0     C39565   2.398   4.893   7.684 -0.5997  0.5638 -1.4103
  294MOL0     C39566   2.295   4.868   7.569  0.3877 -0.2805 -0.0723
  294MOL0     C39567   2.156   4.869   7.624 -0.4557  0.4104 -0.4427
  294MOL0     C39568   2.049   4.844   7.525 -0.1214 -0.4541 -0.7285
  294MOL0     C39569   1.914   4.870   7.588 -0.1625 -0.6040 -0.1884
  294MOL0     C39570   1.795   4.830   7.494  0.0360  0.4794 -0.2322
  294MOL0     C39571   1.666   4.807   7.572 -0.6934 -0.2652 -0.8132
  294MOL0     N39572   1.615   4.926   7.637  0.2227 -0.7968 -0.3338
  294MOL0     C39573   1.541   5.024   7.575  0.2401 -0.0932  0.2539
  294MOL0     C39574   1.503   5.104   7.679 -0.4026 -0.0064 -0.4110
  294MOL0     C39575   1.399   5.207   7.657  0.4619  0.4803  0.1535
  294MOL0     C39576   1.264   5.183   7.743 -0.7220  0.0244 -1.0243
  294MOL0     C39577   1.166   5.299   7.697  0.0499 -0.1946  0.2732
  294MOL0     C39578   1.028   5.266   7.755 -0.6511 -1.0151  0.5452
  294MOL0     O39579   0.943   5.376   7.707  0.3487 -0.5245 -0.6531
  294MOL0     C39580   0.819   5.400   7.766 -0.4960  0.2849  0.9784
  294MOL0     C39581   0.756   5.314   7.838 -0.0082 -0.0534  0.4905
  294MOL0     C39582   0.624   5.330   7.889  0.2298  0.4993 -0.1561
  294MOL0     C39583   0.565   5.218   7.980  0.0202  0.0695 -0.3666
  294MOL0     C39584   0.558   5.453   7.866 -0.5421 -0.3874 -0.7679
  294MOL0     C39585   0.427   5.495   7.927  0.0044 -0.6005  0.0031
  294MOL0     O39586   0.355   5.399   7.989 -0.4842 -0.5014  0.6983
  294MOL0     C39587   0.219   5.415   8.022 -0.0177  0.3259 -0.3561
  294MOL0     C39588   0.131   5.312   7.983  0.1645  0.9188 -0.9453
  294MOL0     C39589  -0.008   5.322   8.016 -0.6671  0.6714  0.3746
  294MOL0     C39590  -0.062   5.433   8.079 -0.7199 -0.4640 -0.9729
  294MOL0     O39591  -0.193   5.428   8.121  0.0877  0.3847 -0.1476
  294MOL0     C39592  -0.280   5.541   8.117  1.4864 -0.3605 -0.5301
  294MOL0     C39593  -0.420   5.510   8.183 -0.1196  0.1026  0.2722
  294MOL0     C39594  -0.499   5.406   8.105 -0.5633  0.1734  0.0572
  294MOL0     C39595  -0.525   5.297   8.202  0.4526  0.8922 -0.1249
  294MOL0     C39596  -0.597   5.174   8.141  0.9688  0.3828  0.0669
  294MOL0     C39597  -0.509   5.041   8.165 -0.6694  0.2612 -0.0854
  294MOL0     C39598  -0.381   5.030   8.074 -0.0844  0.8500  0.9570
  294MOL0     C39599  -0.417   4.964   7.939 -0.8439  0.4279 -0.3725
  294MOL0    Cl39600  -0.281   4.936   7.835  0.0869 -0.0168 -0.4159
  294MOL0     C39601   0.026   5.540   8.108  0.1355 -0.0539  0.4983
  294MOL0     C39602   0.167   5.536   8.084 -0.2130  0.3147 -0.0222
  294MOL0     O39603   0.382   5.601   7.896  0.3072 -0.2048  0.2943
  294MOL0     C39604   0.622   5.541   7.776 -0.6303 -0.3091 -0.3281
  294MOL0     C39605   0.752   5.518   7.731  0.3786  0.2276  0.3804
  294MOL0     N39606   1.553   5.049   7.801 -0.0220  0.5543  0.8174
  294MOL0     N39607   1.628   4.950   7.769 -0.1120 -0.7073 -0.2574
  294MOL0     C39608   2.792   4.785   7.730  0.1689 -0.4529 -0.8497
  294MOL0     C39609   2.918   4.748   7.707 -0.0501 -0.4992  1.1069
  294MOL0     C39610   3.349   4.782   7.525 -0.1729 -0.4357 -0.0345
  294MOL0     C39611   3.333   4.651   7.478  0.4523  1.4081 -0.2727
  294MOL0     C39612   3.436   4.584   7.413 -0.0080  0.3449 -0.1045
  294MOL0     C39613   3.554   4.646   7.384  0.0619 -0.6211 -0.5673
  294MOL0     O39614   3.648   4.575   7.310  0.1408 -0.1674 -0.1593
  294MOL0     C39615   3.791   4.600   7.330  0.2910  0.5698  0.3294
  294MOL0     C39616   3.877   4.500   7.257 -0.4200 -0.7749  0.6121
  294MOL0     C39617   3.873   4.361   7.319 -0.6830 -0.0490  0.1080
  294MOL0     C39618   3.983   4.275   7.265  0.1256 -0.3392  0.2463
  294MOL0     C39619   4.117   4.321   7.314 -0.3181 -0.2581  0.6554
  294MOL0     C39620   4.227   4.358   7.341  0.8302  0.3699  0.8543
  294MOL0     C39621   3.580   4.774   7.441  0.2207 -0.4867  0.7864
  294MOL0     C39622   3.472   4.837   7.512 -0.2106 -0.5329  0.8220
  294MOL0     H39623   3.010   5.059   7.594 -3.4893  1.9296 -0.0243
  294MOL0     H39624   2.790   5.118   7.654 -2.8263 -1.4041 -1.2286
  294MOL0     H39625   2.511   5.071   7.641  3.0025  0.5361  1.6206
  294MOL0     H39626   2.573   4.910   7.570  1.8688  0.6831  1.5109
  294MOL0     H39627   2.416   4.790   7.719 -1.0263  1.7073  2.6878
  294MOL0     H39628   2.353   4.943   7.770 -0.2123 -0.0030 -0.8674
  294MOL0     H39629   2.305   4.942   7.489 -3.0783  1.2398  0.7000
  294MOL0     H39630   2.314   4.770   7.524  1.2817  0.4334 -1.3407
  294MOL0     H39631   2.155   4.805   7.712 -0.4300  1.2527  0.1854
  294MOL0     H39632   2.139   4.969   7.664 -0.4781  1.2951 -2.5314
  294MOL0     H39633   2.053   4.912   7.439 -0.8522 -1.2221 -1.3781
  294MOL0     H39634   2.046   4.739   7.494 -3.5548 -1.0954  1.2821
  294MOL0     H39635   1.898   4.798   7.668 -1.8579 -0.7566 -0.6434
  294MOL0     H39636   1.908   4.970   7.632  2.8778 -0.4281  0.0373
  294MOL0     H39637   1.774   4.908   7.421 -2.8604 -0.0854 -0.1497
  294MOL0     H39638   1.814   4.738   7.438 -0.5110 -0.3073  0.8262
  294MOL0     H39639   1.683   4.723   7.640  0.9303  1.5776  1.2077
  294MOL0     H39640   1.597   4.773   7.494  1.0060 -1.6176 -1.7911
  294MOL0     H39641   1.512   5.021   7.470 -2.0520 -0.2123  0.8327
  294MOL0     H39642   1.434   5.310   7.674 -0.9905  1.4268 -2.1089
  294MOL0     H39643   1.365   5.209   7.554 -0.4438 -0.8069  0.4109
  294MOL0     H39644   1.283   5.173   7.850 -0.6791 -0.4715 -1.0742
  294MOL0     H39645   1.225   5.088   7.705 -1.0426 -0.2107 -0.1193
  294MOL0     H39646   1.160   5.304   7.588 -1.6969  1.0319  0.3777
  294MOL0     H39647   1.207   5.393   7.736 -2.2188  0.2362  1.8305
  294MOL0     H39648   1.033   5.263   7.865  1.2842 -0.2461  0.5160
  294MOL0     H39649   0.992   5.172   7.714  0.3955 -0.8371 -0.8712
  294MOL0     H39650   0.802   5.223   7.873  2.9741  0.8291 -0.8086
  294MOL0     H39651   0.639   5.139   7.989  1.6446  1.4623 -0.7996
  294MOL0     H39652   0.551   5.265   8.078  1.0565  1.0950 -0.6846
  294MOL0     H39653   0.468   5.177   7.952  0.0631 -0.3332  0.0755
  294MOL0     H39654   0.161   5.226   7.924 -1.1184  0.1389 -0.5067
  294MOL0     H39655  -0.075   5.249   7.971  1.6213 -0.8642 -0.7083
  294MOL0     H39656  -0.243   5.627   8.175 -0.9691 -0.6261  1.5863
  294MOL0     H39657  -0.290   5.575   8.013  1.4390 -1.2525 -0.8195
  294MOL0     H39658  -0.397   5.479   8.286  4.1749 -0.2928 -0.6209
  294MOL0     H39659  -0.477   5.603   8.179  1.8842  1.3839 -0.3498
  294MOL0     H39660  -0.436   5.364   8.026  0.3918  0.6256  0.5567
  294MOL0     H39661  -0.586   5.459   8.066 -0.4473  0.8279  0.6649
  294MOL0     H39662  -0.429   5.261   8.240  0.8739 -0.1877 -2.0471
  294MOL0     H39663  -0.593   5.327   8.282 -0.1051  0.1252 -0.2969
  294MOL0     H39664  -0.622   5.197   8.037  1.6076 -3.7806 -1.1498
  294MOL0     H39665  -0.698   5.159   8.181 -0.0292 -0.6048 -2.6115
  294MOL0     H39666  -0.467   5.040   8.266 -2.0074 -0.8397  0.4930
  294MOL0     H39667  -0.564   4.949   8.141  0.3222  0.1458 -2.0898
  294MOL0     H39668  -0.301   4.975   8.126  0.5401  0.1594 -0.6706
  294MOL0     H39669  -0.333   5.126   8.053 -0.4017  0.6625 -0.7012
  294MOL0     H39670  -0.487   5.024   7.881  1.1738  2.1391 -1.1880
  294MOL0     H39671  -0.463   4.865   7.951  0.0841 -0.3685 -2.7889
  294MOL0     H39672  -0.023   5.607   8.177 -2.0645 -0.6625 -0.3781
  294MOL0     H39673   0.227   5.618   8.122 -0.6005  0.9816 -0.8294
  294MOL0     H39674   0.580   5.633   7.737  1.7102  0.3897 -1.3611
  294MOL0     H39675   0.802   5.594   7.672 -1.7610  0.4978 -1.1764
  294MOL0     H39676   2.715   4.712   7.753  0.5766  0.1513  3.1587
  294MOL0     H39677   2.955   4.647   7.724 -0.3894 -1.0398 -0.9769
  294MOL0     H39678   3.247   4.585   7.484  1.2868  0.4340  2.3132
  294MOL0     H39679   3.429   4.482   7.376  0.1448  1.1991 -2.7267
  294MOL0     H39680   3.815   4.701   7.296 -0.4711  1.3120  1.9162
  294MOL0     H39681   3.821   4.594   7.435  1.7813 -0.1851 -0.1187
  294MOL0     H39682   3.982   4.531   7.264 -0.3615 -1.1068  1.2237
  294MOL0     H39683   3.847   4.493   7.152 -0.9019  1.5789  0.5409
  294MOL0     H39684   3.777   4.322   7.284 -0.6264  0.8539 -1.1188
  294MOL0     H39685   3.882   4.359   7.428  0.8504 -1.8588  0.0012
  294MOL0     H39686   3.987   4.266   7.156 -0.5252  1.5681  0.0282
  294MOL0     H39687   3.955   4.180   7.312 -0.7627 -0.2927 -0.1793
  294MOL0     H39688   4.328   4.390   7.356  0.9510 -0.0769  1.0003
  294MOL0     H39689   3.678   4.821   7.439  1.1604 -2.2609 -2.8842
  294MOL0     H39690   3.485   4.936   7.554 -0.5105 -0.8676  1.7121
  295MOL0     O39691   9.427   1.034   5.838 -0.8895  0.7881 -1.0267
  295MOL0     C39692   9.514   0.946   5.857 -0.0669 -0.6968  0.6566
  295MOL0     O39693   9.493   0.826   5.923  0.8007 -0.4424  0.2100
  295MOL0     C39694   9.356   0.788   5.952  0.9028 -0.4929  0.2819
  295MOL0     C39695   9.301   0.799   6.084  0.7914 -0.3766 -0.1195
  295MOL0     C39696   9.158   0.784   6.110  0.1126  1.2804  0.1659
  295MOL0     C39697   9.075   0.769   6.001 -0.1378  0.2900 -0.0516
  295MOL0     O39698   8.934   0.766   6.009  0.1887 -0.8340  0.0269
  295MOL0     C39699   8.859   0.759   6.133  0.6868  0.1729  0.1834
  295MOL0     C39700   8.714   0.810   6.127  0.4532 -0.2687 -0.8486
  295MOL0     C39701   8.639   0.756   6.249 -0.2721  0.0893 -0.1320
  295MOL0     C39702   8.493   0.803   6.240 -0.1718  0.3415  0.1952
  295MOL0     C39703   8.401   0.738   6.336  0.4624 -0.3040  0.0702
  295MOL0     C39704   8.256   0.793   6.330 -0.2221  0.0570 -0.6634
  295MOL0     C39705   8.180   0.727   6.436 -0.4167 -0.7155 -0.4676
  295MOL0     C39706   8.033   0.736   6.390  1.1999 -0.2729  0.1536
  295MOL0     N39707   7.960   0.635   6.474 -0.2574 -0.0419  0.2735
  295MOL0     C39708   7.959   0.498   6.465 -0.5814  0.3460  0.3174
  295MOL0     C39709   7.872   0.450   6.554 -0.4105 -0.6274  0.5218
  295MOL0     C39710   7.842   0.306   6.582  0.4440 -0.2468  0.4939
  295MOL0     C39711   7.717   0.257   6.513 -0.4516  0.1713 -0.3418
  295MOL0     C39712   7.618   0.199   6.618 -0.6197 -0.1593  0.5313
  295MOL0     C39713   7.667   0.050   6.656 -0.0489  0.6314  0.0951
  295MOL0     O39714   7.558  -0.045   6.633  0.8167 -0.8996 -0.7546
  295MOL0     C39715   7.456  -0.033   6.725 -0.2870 -0.2264  0.7145
  295MOL0     C39716   7.353  -0.119   6.679  0.0030  0.0572 -0.5026
  295MOL0     C39717   7.232  -0.116   6.735  0.7856 -0.4191  0.0301
  295MOL0     C39718   7.134  -0.207   6.668 -0.1650  0.3632  0.5279
  295MOL0     C39719   7.201  -0.036   6.852  0.2615  0.8955  0.9947
  295MOL0     C39720   7.072  -0.033   6.926 -0.7888  0.0876  0.0258
  295MOL0     O39721   7.024  -0.155   6.948  1.0338 -0.5663 -0.1476
  295MOL0     C39722   6.905  -0.179   7.014 -0.0727  0.6301  0.7905
  295MOL0     C39723   6.899  -0.124   7.149  0.5894 -0.1248  0.8230
  295MOL0     C39724   6.769  -0.139   7.219  0.4336  0.6615  0.3331
  295MOL0     C39725   6.678  -0.229   7.163 -0.1711  0.4267 -0.3961
  295MOL0     O39726   6.566  -0.278   7.225  0.3425 -0.3000 -0.5944
  295MOL0     C39727   6.538  -0.225   7.361  0.0036  0.0961  0.2179
  295MOL0     C39728   6.434  -0.312   7.422 -0.4644  0.4358 -0.0578
  295MOL0     C39729   6.334  -0.235   7.505 -1.3207 -0.2547 -0.6560
  295MOL0     C39730   6.387  -0.197   7.648 -0.3134  0.8164  0.3809
  295MOL0     C39731   6.277  -0.132   7.733 -1.4012  0.5771  0.2717
  295MOL0     C39732   6.334  -0.112   7.873  0.3109 -0.1011  0.6929
  295MOL0     C39733   6.223  -0.082   7.972  0.3929  0.1428  0.1371
  295MOL0     C39734   6.284  -0.027   8.107 -0.1025  0.0265  0.6779
  295MOL0    Cl39735   6.138   0.015   8.213 -0.0466  0.0480  0.4737
  295MOL0     C39736   6.694  -0.288   7.035 -0.8090  1.4154  0.1950
  295MOL0     C39737   6.806  -0.258   6.956 -0.9733 -0.8721 -0.2630
  295MOL0     O39738   7.018   0.073   6.960  0.1615  0.1297 -0.6429
  295MOL0     C39739   7.304   0.047   6.897  0.2266  0.3042  0.0017
  295MOL0     C39740   7.429   0.050   6.831 -0.9980  0.4336 -0.2389
  295MOL0     N39741   7.838   0.562   6.633  0.7277  0.4762  0.8226
  295MOL0     N39742   7.884   0.672   6.575 -0.1298 -0.3345 -0.4862
  295MOL0     C39743   9.126   0.761   5.871 -0.4266 -0.0457  0.6145
  295MOL0     C39744   9.265   0.778   5.843  0.3036 -0.6447 -0.3285
  295MOL0     C39745   9.650   0.977   5.800  0.1798  1.0584 -0.5625
  295MOL0     C39746   9.690   1.113   5.784  0.2453 -0.1849 -0.3815
  295MOL0     C39747   9.822   1.149   5.749 -1.5567 -0.1812  0.0178
  295MOL0     C39748   9.924   1.043   5.734 -0.2793  0.5352 -0.0371
  295MOL0     O39749  10.051   1.061   5.690 -1.0281 -0.6809  0.1853
  295MOL0     C39750  10.107   1.191   5.652  0.5612  0.1981  0.6326
  295MOL0     C39751  10.171   1.276   5.763  0.4746 -0.3219 -0.1759
  295MOL0     C39752  10.288   1.205   5.828  0.3665  0.2826 -0.5803
  295MOL0     C39753  10.320   1.275   5.959 -0.4713 -0.0538 -0.3515
  295MOL0     C39754  10.405   1.184   6.040  0.5985  0.1877 -0.2399
  295MOL0     C39755  10.477   1.107   6.106  0.7490  0.0340 -0.2571
  295MOL0     C39756   9.886   0.912   5.759 -0.8200 -0.2802 -0.3985
  295MOL0     C39757   9.750   0.879   5.786  0.4432  0.4619 -0.2792
  295MOL0     H39758   9.366   0.812   6.170  1.2158  0.6446 -0.5793
  295MOL0     H39759   9.118   0.808   6.208  1.5001 -0.1401  1.1125
  295MOL0     H39760   8.859   0.652   6.156  0.5683  0.0621 -0.3152
  295MOL0     H39761   8.917   0.801   6.216  3.0573 -0.0466 -1.2571
  295MOL0     H39762   8.719   0.918   6.137 -2.0114 -0.0307 -1.5666
  295MOL0     H39763   8.671   0.778   6.032  1.8060 -0.5109 -1.4047
  295MOL0     H39764   8.645   0.647   6.245  2.8917  0.0474  1.8795
  295MOL0     H39765   8.676   0.796   6.344 -1.1624 -0.1134  0.3099
  295MOL0     H39766   8.485   0.912   6.255 -1.0442  0.4344 -0.8173
  295MOL0     H39767   8.452   0.779   6.142 -0.7189  0.8756  0.2847
  295MOL0     H39768   8.403   0.630   6.318  0.6461 -0.6748  2.0171
  295MOL0     H39769   8.432   0.753   6.440  2.2194  0.6425 -0.5534
  295MOL0     H39770   8.269   0.900   6.346  0.6992 -0.4879  3.1416
  295MOL0     H39771   8.216   0.764   6.232 -3.4441  1.7240  0.0501
  295MOL0     H39772   8.221   0.628   6.452  3.9213  0.8970 -0.3594
  295MOL0     H39773   8.187   0.782   6.530 -2.2122 -0.8567 -0.2024
  295MOL0     H39774   8.016   0.707   6.286 -0.6910 -0.5749  0.5168
  295MOL0     H39775   8.000   0.837   6.417  0.9445 -0.8243  2.0302
  295MOL0     H39776   8.026   0.436   6.405 -2.8129 -0.4644 -1.4828
  295MOL0     H39777   7.931   0.251   6.549  0.7126  0.7349 -0.4539
  295MOL0     H39778   7.828   0.284   6.688  1.1142 -3.3937  0.0272
  295MOL0     H39779   7.731   0.190   6.427  1.2224 -0.3114  0.2544
  295MOL0     H39780   7.668   0.346   6.472 -1.7690 -0.2591  0.2470
  295MOL0     H39781   7.522   0.193   6.566 -0.4656  0.2271  0.1980
  295MOL0     H39782   7.610   0.255   6.711  1.5975 -0.4314  0.9627
  295MOL0     H39783   7.708   0.048   6.757  1.9585  0.7597 -0.6715
  295MOL0     H39784   7.750   0.019   6.593 -0.2762 -1.4088  0.7376
  295MOL0     H39785   7.389  -0.172   6.591  1.5728 -0.6097  0.4706
  295MOL0     H39786   7.148  -0.309   6.706  0.8164 -1.7072 -4.6137
  295MOL0     H39787   7.032  -0.170   6.678  0.5467  3.2828 -1.5828
  295MOL0     H39788   7.147  -0.229   6.562 -0.7442 -0.6624  0.6560
  295MOL0     H39789   6.978  -0.064   7.195  2.0835 -2.5625  1.6348
  295MOL0     H39790   6.776  -0.107   7.323 -2.4171  2.2461  0.1378
  295MOL0     H39791   6.617  -0.235   7.435 -0.5522  0.4511  0.8680
  295MOL0     H39792   6.510  -0.120   7.355  1.0251  0.4349  1.0588
  295MOL0     H39793   6.381  -0.350   7.334 -0.6916  0.4224  0.0837
  295MOL0     H39794   6.465  -0.396   7.485 -0.6586  1.5470  1.5900
  295MOL0     H39795   6.235  -0.280   7.510 -0.1045 -2.9519  1.8793
  295MOL0     H39796   6.312  -0.139   7.458  1.0804  0.4589 -0.4541
  295MOL0     H39797   6.412  -0.288   7.703  0.4177  0.4482 -0.5314
  295MOL0     H39798   6.472  -0.129   7.653 -1.1729  2.0332 -0.8776
  295MOL0     H39799   6.183  -0.187   7.723 -1.9080  1.6698 -1.2520
  295MOL0     H39800   6.262  -0.028   7.702 -0.8397  0.5267 -0.1868
  295MOL0     H39801   6.399  -0.192   7.908 -0.4705 -1.1685 -0.2105
  295MOL0     H39802   6.405  -0.028   7.868  0.1232  0.0117 -0.5790
  295MOL0     H39803   6.171  -0.177   7.988 -0.0664 -0.3095 -3.1844
  295MOL0     H39804   6.157  -0.010   7.923 -0.2268  0.0461  0.8045
  295MOL0     H39805   6.334   0.068   8.085 -0.7359  0.2090 -0.0361
  295MOL0     H39806   6.353  -0.100   8.151  0.4465 -1.4581 -2.3742
  295MOL0     H39807   6.633  -0.376   7.015 -0.7748  1.3522  0.3696
  295MOL0     H39808   6.803  -0.297   6.855  1.0033  1.3179 -1.2734
  295MOL0     H39809   7.295   0.102   6.990 -2.1430 -0.6340  0.4027
  295MOL0     H39810   7.504   0.122   6.865 -0.7472  0.0368  0.0654
  295MOL0     H39811   9.054   0.757   5.789 -1.6909  0.4403  1.6661
  295MOL0     H39812   9.297   0.768   5.740 -1.5042  0.3861 -1.0343
  295MOL0     H39813   9.626   1.200   5.793  1.8792  0.9111  1.5572
  295MOL0     H39814   9.842   1.255   5.738 -0.5686 -0.2646  0.7868
  295MOL0     H39815  10.182   1.162   5.577 -0.5003 -2.3964  0.4915
  295MOL0     H39816  10.037   1.261   5.605 -0.1233 -1.8427 -1.6074
  295MOL0     H39817  10.091   1.290   5.836  1.3191 -2.0023  1.1317
  295MOL0     H39818  10.198   1.376   5.728  2.3104 -0.7216 -0.0023
  295MOL0     H39819  10.382   1.203   5.773  0.7412  1.7545 -0.0446
  295MOL0     H39820  10.253   1.105   5.857 -0.0307  0.6662  0.3052
  295MOL0     H39821  10.231   1.298   6.017  0.1101  0.7148  0.2579
  295MOL0     H39822  10.367   1.372   5.935 -1.4361  0.3559 -0.6442
  295MOL0     H39823  10.539   1.046   6.168 -1.7498 -1.3136  1.1010
  295MOL0     H39824   9.954   0.829   5.746  0.8193  0.8083  0.7272
  295MOL0     H39825   9.727   0.775   5.809 -1.2415  0.8522 -0.0181
  296MOL0     O39826   8.233   9.444   0.643 -0.7365 -0.4850 -0.0913
  296MOL0     C39827   8.270   9.492   0.534 -1.0791 -0.4948 -0.1405
  296MOL0     O39828   8.194   9.575   0.455 -0.6552  0.1177  0.1275
  296MOL0     C39829   8.063   9.603   0.488  0.0195 -0.7145  0.0620
  296MOL0     C39830   7.993   9.594   0.607  0.3011  0.2233  0.4201
  296MOL0     C39831   7.867   9.644   0.629  0.0078 -0.2192 -0.1123
  296MOL0     C39832   7.801   9.707   0.520 -0.0843 -0.4433  0.6605
  296MOL0     O39833   7.670   9.747   0.514 -0.3007 -0.7757 -0.2679
  296MOL0     C39834   7.592   9.753   0.635  0.2001 -0.0827  0.8128
  296MOL0     C39835   7.443   9.771   0.602 -0.8230  0.2544 -0.1845
  296MOL0     C39836   7.408   9.913   0.547  0.5638  0.2992  0.4410
  296MOL0     C39837   7.264   9.905   0.486  0.2625 -0.5411  0.4988
  296MOL0     C39838   7.143   9.912   0.583  0.3016 -0.6044  0.5497
  296MOL0     C39839   7.021   9.866   0.501  0.1079  0.4700  0.2343
  296MOL0     C39840   6.897   9.821   0.581 -0.0627  0.0965  0.4230
  296MOL0     C39841   6.793   9.772   0.470  0.3586  0.0765 -0.3218
  296MOL0     N39842   6.662   9.727   0.517  0.0520  0.4968 -0.5720
  296MOL0     C39843   6.649   9.645   0.627  0.0237 -0.2505  0.5007
  296MOL0     C39844   6.519   9.620   0.639 -0.3299 -0.3488  1.1150
  296MOL0     C39845   6.459   9.523   0.734 -0.2807 -0.1620  0.4132
  296MOL0     C39846   6.301   9.541   0.750 -0.0473  0.3538  0.0951
  296MOL0     C39847   6.257   9.663   0.831  0.3738  0.2114  0.7610
  296MOL0     C39848   6.119   9.648   0.880  0.4832  0.2113 -0.4215
  296MOL0     O39849   6.033   9.644   0.772 -0.1318 -0.0970 -0.1992
  296MOL0     C39850   5.896   9.608   0.796  0.1201 -0.8719 -0.4517
  296MOL0     C39851   5.836   9.572   0.914  0.2490  0.0301 -0.1719
  296MOL0     C39852   5.695   9.539   0.923  0.5643 -0.0936  0.4232
  296MOL0     C39853   5.635   9.533   1.066 -0.3613  0.5220  0.0626
  296MOL0     C39854   5.619   9.544   0.800 -0.3545  0.1952  0.1879
  296MOL0     C39855   5.476   9.527   0.795  0.0016  0.6382 -0.0812
  296MOL0     O39856   5.405   9.602   0.699 -0.0851 -0.2209 -0.1254
  296MOL0     C39857   5.269   9.603   0.700  0.0258 -0.6684  0.1726
  296MOL0     C39858   5.211   9.689   0.614  0.1873 -0.1815  0.6074
  296MOL0     C39859   5.080   9.719   0.598 -0.2957  1.1029  0.1032
  296MOL0     C39860   4.990   9.652   0.686 -0.6413 -0.2243  0.2751
  296MOL0     O39861   4.858   9.673   0.650 -0.2810  0.3409  0.1789
  296MOL0     C39862   4.768   9.561   0.636  0.4967 -0.2290  0.4449
  296MOL0     C39863   4.657   9.604   0.538  0.1063  1.3525 -0.3440
  296MOL0     C39864   4.711   9.636   0.394 -0.0002  0.2277 -0.1833
  296MOL0     C39865   4.703   9.790   0.376  0.1685  0.0415 -0.0658
  296MOL0     C39866   4.713   9.838   0.234 -1.0303 -0.5388  0.0440
  296MOL0     C39867   4.851   9.797   0.170 -0.3773  0.4706 -0.1046
  296MOL0     C39868   4.968   9.862   0.241 -0.0029  0.3429 -0.2427
  296MOL0     C39869   5.105   9.827   0.177 -0.3892 -0.3410  0.4427
  296MOL0    Cl39870   5.255   9.902   0.242  0.2456  0.0452 -0.1036
  296MOL0     C39871   5.047   9.560   0.777 -0.0455  0.2445 -0.4440
  296MOL0     C39872   5.179   9.538   0.791 -0.3008 -0.4914  0.3623
  296MOL0     O39873   5.434   9.442   0.868 -0.3056  0.7195  0.5815
  296MOL0     C39874   5.682   9.585   0.682 -0.3810  0.4874 -0.4808
  296MOL0     C39875   5.823   9.604   0.679  0.3505  0.8586 -0.2297
  296MOL0     N39876   6.451   9.700   0.546  0.3246  0.2585 -0.4022
  296MOL0     N39877   6.539   9.765   0.484  0.3516 -0.2482 -0.0234
  296MOL0     C39878   7.856   9.706   0.395 -0.7368 -0.0815  0.4627
  296MOL0     C39879   7.991   9.651   0.377  0.3547 -0.0107 -0.3566
  296MOL0     C39880   8.391   9.426   0.471  0.9642  0.1534 -0.2279
  296MOL0     C39881   8.454   9.485   0.350  0.8932 -0.0255 -0.4895
  296MOL0     C39882   8.569   9.432   0.305  0.5371  0.3555 -0.2014
  296MOL0     C39883   8.641   9.342   0.373  0.4535  0.4552 -0.7921
  296MOL0     O39884   8.766   9.319   0.321  1.1784  0.8649 -0.2278
  296MOL0     C39885   8.846   9.217   0.391 -1.0229 -0.4891 -0.2430
  296MOL0     C39886   8.995   9.230   0.342  0.1699 -0.2111 -0.2443
  296MOL0     C39887   9.060   9.342   0.420 -0.4604 -0.1060  0.0465
  296MOL0     C39888   9.079   9.474   0.339  0.4635 -1.1724  0.6603
  296MOL0     C39889   9.175   9.463   0.219  0.0663  0.6821 -0.1433
  296MOL0     C39890   9.255   9.449   0.132 -0.8684  0.6262 -0.6236
  296MOL0     C39891   8.586   9.273   0.478 -0.3079  0.0887  0.7261
  296MOL0     C39892   8.458   9.313   0.524 -1.0972 -0.3670  0.2746
  296MOL0     H39893   8.024   9.552   0.702 -4.8863 -4.1031  0.6144
  296MOL0     H39894   7.811   9.626   0.720 -0.8767  0.1810 -0.5547
  296MOL0     H39895   7.591   9.656   0.685  0.2103 -1.9866 -2.6096
  296MOL0     H39896   7.627   9.842   0.688  1.2874  2.6807 -4.0127
  296MOL0     H39897   7.433   9.695   0.524 -3.1300 -0.5078  0.7777
  296MOL0     H39898   7.382   9.760   0.692  0.6474  0.4077  0.8600
  296MOL0     H39899   7.415   9.986   0.628 -0.6634  1.4201 -0.4299
  296MOL0     H39900   7.477   9.942   0.468 -0.0758  0.8007  0.0573
  296MOL0     H39901   7.259   9.988   0.415 -0.4394 -2.2593 -1.5345
  296MOL0     H39902   7.266   9.816   0.424 -0.5711 -0.9964  1.1160
  296MOL0     H39903   7.157   9.845   0.668  1.0234 -1.8081 -0.4894
  296MOL0     H39904   7.124  10.017   0.611 -0.1985 -0.2941 -0.8647
  296MOL0     H39905   6.990   9.950   0.439 -0.0956 -0.9749 -1.7004
  296MOL0     H39906   7.054   9.785   0.436 -0.2952  1.4197 -1.1893
  296MOL0     H39907   6.936   9.745   0.649  3.5297  1.9439  0.7131
  296MOL0     H39908   6.845   9.893   0.645 -1.5720  2.0905 -2.7789
  296MOL0     H39909   6.840   9.702   0.402 -0.4607  1.0196 -1.9227
  296MOL0     H39910   6.769   9.865   0.417  1.6528 -0.1995 -1.4203
  296MOL0     H39911   6.733   9.607   0.684 -0.5388 -2.8893 -0.2917
  296MOL0     H39912   6.479   9.418   0.709 -0.1889 -0.3825  1.3701
  296MOL0     H39913   6.503   9.536   0.833 -0.0230 -0.0494  0.2844
  296MOL0     H39914   6.257   9.448   0.788  0.2081 -0.7426 -2.1387
  296MOL0     H39915   6.252   9.556   0.654 -1.1825 -0.2578  0.5564
  296MOL0     H39916   6.265   9.754   0.771  0.0907 -1.5343 -2.0624
  296MOL0     H39917   6.315   9.698   0.918 -0.2060  0.5265  1.0267
  296MOL0     H39918   6.088   9.725   0.951 -0.7339 -1.1955  0.6226
  296MOL0     H39919   6.114   9.551   0.930  0.2944  1.5865  2.4053
  296MOL0     H39920   5.893   9.572   1.006  0.3029  0.9690 -0.1983
  296MOL0     H39921   5.703   9.578   1.138  1.0551 -0.9544 -0.2888
  296MOL0     H39922   5.539   9.585   1.066 -0.7642 -0.1154  2.3203
  296MOL0     H39923   5.617   9.428   1.091  0.6999 -0.0490 -1.4062
  296MOL0     H39924   5.268   9.744   0.540  0.1751  1.6278  1.8697
  296MOL0     H39925   5.040   9.799   0.536 -0.2714  1.1551  0.1551
  296MOL0     H39926   4.818   9.470   0.604 -0.7110 -0.8955  0.3778
  296MOL0     H39927   4.732   9.545   0.738  2.6217 -0.2530  1.2399
  296MOL0     H39928   4.589   9.518   0.540  0.4410  1.0860  1.2998
  296MOL0     H39929   4.605   9.692   0.579  2.0136  1.8037  1.2615
  296MOL0     H39930   4.648   9.592   0.316 -0.6210  0.0673  0.3937
  296MOL0     H39931   4.812   9.597   0.380  0.5439 -0.2524  3.7612
  296MOL0     H39932   4.605   9.816   0.415 -0.0853 -1.6824  0.5288
  296MOL0     H39933   4.779   9.840   0.438  1.4826 -0.4830 -1.1951
  296MOL0     H39934   4.700   9.947   0.231  1.2597 -0.1700 -4.5152
  296MOL0     H39935   4.635   9.801   0.167 -0.3899  2.0559 -2.3094
  296MOL0     H39936   4.865   9.690   0.151  1.8930  0.4273  1.4084
  296MOL0     H39937   4.840   9.839   0.070 -2.5875 -1.5945 -0.8111
  296MOL0     H39938   4.969   9.822   0.342  1.4003  2.1580  0.5325
  296MOL0     H39939   4.955   9.970   0.253  1.9636  0.7409 -1.2077
  296MOL0     H39940   5.104   9.875   0.079  1.7251  1.5753  1.2767
  296MOL0     H39941   5.112   9.717   0.175 -1.2296 -0.3905 -1.0942
  296MOL0     H39942   4.983   9.518   0.854 -1.5306  3.0573 -0.0272
  296MOL0     H39943   5.221   9.484   0.875  0.3160 -0.3378  0.1591
  296MOL0     H39944   5.630   9.574   0.587 -0.1030 -0.6733 -0.5124
  296MOL0     H39945   5.877   9.630   0.588  0.0326  1.3346 -0.2843
  296MOL0     H39946   7.802   9.744   0.309 -3.0884 -2.2179  0.8679
  296MOL0     H39947   8.032   9.657   0.276 -1.5470 -0.5258 -1.1876
  296MOL0     H39948   8.401   9.558   0.290 -0.1643 -1.2871 -1.1525
  296MOL0     H39949   8.618   9.472   0.216  2.8113  0.2668  0.9476
  296MOL0     H39950   8.845   9.240   0.498  0.7526  2.1031 -0.6956
  296MOL0     H39951   8.810   9.115   0.373  1.2495 -1.2646 -0.6355
  296MOL0     H39952   9.012   9.250   0.235  0.7877  1.4243  0.1184
  296MOL0     H39953   9.041   9.133   0.358 -1.5175 -1.0761 -0.4165
  296MOL0     H39954   9.157   9.302   0.451 -0.5922 -0.6124 -0.1899
  296MOL0     H39955   9.000   9.363   0.509 -0.3208 -3.2712  0.9881
  296MOL0     H39956   9.112   9.559   0.399  1.2112  0.8232 -2.3477
  296MOL0     H39957   8.980   9.509   0.309  2.1143  3.0428 -0.5756
  296MOL0     H39958   9.320   9.434   0.048 -0.5601  0.7574 -0.4067
  296MOL0     H39959   8.634   9.190   0.528 -2.3302  0.1543  2.9325
  296MOL0     H39960   8.417   9.274   0.616 -0.9390  2.0282  1.4495
  297MOL0     O39961   4.183   2.784   4.417  0.5939  0.4389  0.8400
  297MOL0     C39962   4.253   2.712   4.475  0.9596  0.3173  0.0663
  297MOL0     O39963   4.218   2.586   4.522 -0.0420 -0.6640  0.1422
  297MOL0     C39964   4.108   2.523   4.465 -0.3140 -0.1647 -0.8846
  297MOL0     C39965   3.969   2.553   4.493  0.2308 -0.2923 -0.0321
  297MOL0     C39966   3.874   2.476   4.428  0.3839  0.7417 -0.1451
  297MOL0     C39967   3.909   2.372   4.333  0.2164 -0.6583 -0.0496
  297MOL0     O39968   3.831   2.309   4.237  0.2534  0.1562 -0.1440
  297MOL0     C39969   3.701   2.350   4.221 -0.3464  0.1886  1.2531
  297MOL0     C39970   3.640   2.257   4.124  1.2289 -0.2400 -0.0877
  297MOL0     C39971   3.482   2.263   4.108 -0.1547  0.1971 -0.2360
  297MOL0     C39972   3.436   2.172   3.996  0.0029 -0.0246  1.0281
  297MOL0     C39973   3.288   2.176   3.975 -0.4503  0.5674  0.2708
  297MOL0     C39974   3.252   2.118   3.836 -0.3210  0.0423  0.0577
  297MOL0     C39975   3.106   2.083   3.840  0.0819 -0.1721  0.2126
  297MOL0     C39976   3.053   2.040   3.701 -0.6540  0.4764 -0.2002
  297MOL0     N39977   2.911   2.017   3.708 -0.4930  0.2679  0.8365
  297MOL0     C39978   2.815   2.092   3.656  0.4037  0.1017  1.4859
  297MOL0     C39979   2.701   2.044   3.702 -1.1832 -0.7365 -0.1930
  297MOL0     C39980   2.569   2.077   3.661  0.1798 -0.8772  0.3527
  297MOL0     C39981   2.485   2.119   3.780  0.0244 -0.6712  0.2816
  297MOL0     C39982   2.366   2.212   3.742  0.2060  0.0855 -0.0080
  297MOL0     C39983   2.313   2.262   3.876 -0.5275  0.0737 -0.3321
  297MOL0     O39984   2.192   2.198   3.899  0.2583 -0.0981  0.0951
  297MOL0     C39985   2.092   2.261   3.971  0.7824 -0.5860  0.3394
  297MOL0     C39986   2.125   2.327   4.088  0.0292 -0.6171 -0.1137
  297MOL0     C39987   2.026   2.390   4.175 -0.3291 -0.3067 -0.3732
  297MOL0     C39988   2.065   2.434   4.304  0.1119  0.8218 -0.1335
  297MOL0     C39989   1.894   2.393   4.136 -0.1064 -0.1550  0.2177
  297MOL0     C39990   1.782   2.453   4.210  0.3563 -0.3224 -0.2924
  297MOL0     O39991   1.661   2.389   4.192 -0.6958 -0.0357  0.2262
  297MOL0     C39992   1.556   2.449   4.244  0.4457  0.5600 -0.1621
  297MOL0     C39993   1.451   2.517   4.174 -0.2477 -1.1974 -0.6899
  297MOL0     C39994   1.336   2.565   4.245 -0.1727 -1.2226  0.1930
  297MOL0     C39995   1.325   2.549   4.380 -0.8875 -0.4631 -0.5421
  297MOL0     O39996   1.210   2.580   4.454  0.1019 -0.5806 -0.5830
  297MOL0     C39997   1.085   2.591   4.383 -0.3876  0.1815  0.4481
  297MOL0     C39998   0.966   2.607   4.481  0.1132  0.2007  0.6745
  297MOL0     C39999   0.842   2.585   4.400  0.0041  0.3979  0.8890
  297MOL0     C40000   0.723   2.607   4.483  0.4978  0.3919  0.2424
  297MOL0     C40001   0.598   2.568   4.393 -0.5788  0.3000 -1.2805
  297MOL0     C40002   0.464   2.562   4.468 -0.3719 -0.2880 -0.9632
  297MOL0     C40003   0.411   2.704   4.497 -0.0174  0.8573  0.1232
  297MOL0     C40004   0.277   2.687   4.587 -0.4997 -0.0862  0.8546
  297MOL0    Cl40005   0.152   2.620   4.480  0.1279 -0.1047 -0.2741
  297MOL0     C40006   1.419   2.476   4.448  0.0953  0.2746 -0.0181
  297MOL0     C40007   1.533   2.427   4.383 -0.1075 -0.7770  0.3295
  297MOL0     O40008   1.799   2.541   4.292  0.5722  0.2690  0.0268
  297MOL0     C40009   1.865   2.323   4.016  0.6745  0.0437  0.3638
  297MOL0     C40010   1.955   2.254   3.940  0.0154  0.8895 -0.8125
  297MOL0     N40011   2.732   1.946   3.794 -0.1103 -0.0228 -0.0158
  297MOL0     N40012   2.855   1.928   3.802 -0.4688 -0.2006 -0.5122
  297MOL0     C40013   4.047   2.348   4.318 -0.8366 -0.6484  0.3529
  297MOL0     C40014   4.145   2.422   4.385 -0.1321  0.5292 -0.6781
  297MOL0     C40015   4.388   2.774   4.514  0.3270 -0.5470  0.2818
  297MOL0     C40016   4.396   2.904   4.561  1.1044 -0.0844  0.5043
  297MOL0     C40017   4.513   2.948   4.621 -0.0976 -0.7106  0.0505
  297MOL0     C40018   4.633   2.874   4.603 -0.2505  0.1851 -1.2457
  297MOL0     O40019   4.755   2.922   4.652 -0.4013  0.0880  0.2314
  297MOL0     C40020   4.781   3.061   4.669  0.5626  0.1310 -0.2204
  297MOL0     C40021   4.794   3.131   4.536  1.0635  0.4166 -0.5056
  297MOL0     C40022   4.922   3.099   4.459  0.5862  0.1367  0.8437
  297MOL0     C40023   4.938   2.959   4.406 -0.5796  0.8429  0.9415
  297MOL0     C40024   4.829   2.912   4.317  0.2200  0.4683 -0.1379
  297MOL0     C40025   4.741   2.873   4.242 -0.6952  0.1307 -0.6590
  297MOL0     C40026   4.628   2.748   4.533  0.4247 -0.0493  0.7959
  297MOL0     C40027   4.502   2.695   4.496  0.3932  0.3972  0.5072
  297MOL0     H40028   3.953   2.632   4.566  4.4110 -1.0123  1.9733
  297MOL0     H40029   3.770   2.506   4.431 -0.2870 -1.3008 -0.9019
  297MOL0     H40030   3.654   2.337   4.318 -0.4471  1.1273  1.3309
  297MOL0     H40031   3.696   2.444   4.165 -0.5787 -1.6234 -2.0424
  297MOL0     H40032   3.681   2.263   4.023 -0.3987  2.1571 -0.6884
  297MOL0     H40033   3.671   2.158   4.159  1.3959 -0.2675 -0.3145
  297MOL0     H40034   3.445   2.235   4.207  0.5226 -1.3146 -0.3828
  297MOL0     H40035   3.450   2.365   4.085 -1.4140 -0.3743 -1.1003
  297MOL0     H40036   3.487   2.209   3.906  0.3375  1.9505  1.9707
  297MOL0     H40037   3.464   2.067   4.004 -0.2476 -0.4435 -2.2438
  297MOL0     H40038   3.251   2.109   4.054  1.5221 -0.0610  0.7216
  297MOL0     H40039   3.247   2.276   3.988  0.3981  0.8305  0.9688
  297MOL0     H40040   3.269   2.192   3.757 -0.2004 -0.2268 -0.1713
  297MOL0     H40041   3.298   2.022   3.809 -2.4133 -0.6833 -1.1787
  297MOL0     H40042   3.109   1.998   3.908  0.4137 -0.2160  0.1465
  297MOL0     H40043   3.038   2.159   3.879 -1.1620 -1.1181 -0.0389
  297MOL0     H40044   3.101   1.945   3.674  1.2308  1.0151  1.0660
  297MOL0     H40045   3.067   2.097   3.609 -1.1812 -1.6979 -1.7342
  297MOL0     H40046   2.832   2.159   3.572 -1.1001 -0.1628  0.9335
  297MOL0     H40047   2.575   2.150   3.580 -1.9336  1.2110  1.9377
  297MOL0     H40048   2.518   1.995   3.609 -2.1551 -0.0482  1.2395
  297MOL0     H40049   2.553   2.186   3.833 -2.0653  1.4972  0.4157
  297MOL0     H40050   2.450   2.041   3.847 -0.8680 -0.9237 -0.4536
  297MOL0     H40051   2.293   2.159   3.680  0.9864 -1.1528  0.0979
  297MOL0     H40052   2.410   2.297   3.689  0.0561  0.4828  0.4919
  297MOL0     H40053   2.305   2.372   3.873  0.6285  0.1517 -2.0075
  297MOL0     H40054   2.372   2.237   3.964 -2.4264  0.7805  1.2111
  297MOL0     H40055   2.230   2.323   4.114 -0.1978  0.0907  1.0211
  297MOL0     H40056   1.991   2.425   4.384 -0.2127 -0.8464 -0.5833
  297MOL0     H40057   2.154   2.383   4.341  0.5281  2.0098  0.5738
  297MOL0     H40058   2.095   2.540   4.305  3.0384  0.0680  0.5846
  297MOL0     H40059   1.460   2.542   4.069 -1.8383 -1.6393 -0.9594
  297MOL0     H40060   1.255   2.604   4.184  1.7048 -0.7668 -2.1578
  297MOL0     H40061   1.092   2.673   4.311  3.6260 -1.1671 -0.9452
  297MOL0     H40062   1.069   2.501   4.323 -0.3361 -0.4838  1.4070
  297MOL0     H40063   0.981   2.538   4.565 -0.1798  1.6092  1.9231
  297MOL0     H40064   0.962   2.710   4.519 -2.9890 -0.0806  1.3804
  297MOL0     H40065   0.847   2.481   4.364  0.0719  0.2040  1.4422
  297MOL0     H40066   0.849   2.650   4.313  1.0888 -1.9198 -0.8623
  297MOL0     H40067   0.710   2.549   4.574 -0.3272 -0.9452 -0.7002
  297MOL0     H40068   0.727   2.717   4.488  4.7755  0.6970 -3.3215
  297MOL0     H40069   0.612   2.473   4.341 -1.3944  0.7120 -2.2874
  297MOL0     H40070   0.581   2.643   4.315 -0.4336  2.7376  0.9076
  297MOL0     H40071   0.395   2.512   4.399 -0.2063  0.1191 -1.4311
  297MOL0     H40072   0.481   2.496   4.554  3.1657 -2.2584 -2.9519
  297MOL0     H40073   0.400   2.748   4.397 -1.2592  0.0809 -0.1103
  297MOL0     H40074   0.488   2.763   4.547 -0.1681  0.6636  0.5907
  297MOL0     H40075   0.248   2.782   4.632 -1.2517 -0.0646  0.3489
  297MOL0     H40076   0.298   2.622   4.673  2.3502  1.7187  1.6488
  297MOL0     H40077   1.400   2.443   4.549 -0.4354  0.3372 -0.0971
  297MOL0     H40078   1.601   2.356   4.430  1.9742 -0.1829 -1.6080
  297MOL0     H40079   1.762   2.325   3.980  0.5404  1.3091  0.7448
  297MOL0     H40080   1.911   2.195   3.861 -0.1055 -1.0784  0.6370
  297MOL0     H40081   4.084   2.271   4.250  0.1638 -0.8357  1.0707
  297MOL0     H40082   4.250   2.408   4.363  0.4569  2.4684  0.6369
  297MOL0     H40083   4.317   2.978   4.567  1.5657  0.4529  0.1028
  297MOL0     H40084   4.523   3.043   4.673  1.1826  0.4755 -2.1672
  297MOL0     H40085   4.710   3.107   4.738 -0.0099 -0.2895 -0.5193
  297MOL0     H40086   4.878   3.062   4.719 -0.8884  2.1905  2.8267
  297MOL0     H40087   4.770   3.237   4.550 -1.0576  0.1081 -1.4116
  297MOL0     H40088   4.724   3.110   4.454  1.9470  1.1927 -1.4837
  297MOL0     H40089   5.011   3.128   4.516  1.1744 -1.5900  0.8549
  297MOL0     H40090   4.921   3.156   4.366  2.4521  0.2766  0.8733
  297MOL0     H40091   4.953   2.883   4.484 -0.3771 -2.8386 -2.4022
  297MOL0     H40092   5.034   2.960   4.354 -0.8886 -0.0291  0.3305
  297MOL0     H40093   4.661   2.832   4.185  0.3243 -1.2690 -1.1492
  297MOL0     H40094   4.713   2.686   4.504 -0.1988  0.3062 -2.0462
  297MOL0     H40095   4.489   2.598   4.450  1.7060  0.6017 -0.3654
  298MOL0     O40096   8.452   5.295   7.052 -0.4765  0.3176  0.2968
  298MOL0     C40097   8.394   5.402   7.074  0.1092 -0.4449 -0.6819
  298MOL0     O40098   8.450   5.517   7.137  0.1505  0.1359 -0.3861
  298MOL0     C40099   8.582   5.516   7.181 -0.6180 -0.0896  0.9818
  298MOL0     C40100   8.689   5.576   7.103 -0.4546  0.1115  0.3834
  298MOL0     C40101   8.832   5.563   7.140 -0.5669 -0.8420  0.0525
  298MOL0     C40102   8.871   5.476   7.236 -0.2960 -0.0623 -0.5907
  298MOL0     O40103   8.999   5.434   7.250  1.1217  0.3936  0.5603
  298MOL0     C40104   9.104   5.528   7.248 -0.7607  0.0621 -0.4751
  298MOL0     C40105   9.243   5.471   7.235 -0.1156  0.1378 -0.4667
  298MOL0     C40106   9.348   5.580   7.243  0.1806 -0.0448 -1.1798
  298MOL0     C40107   9.488   5.516   7.264 -0.7070  0.2299 -0.4153
  298MOL0     C40108   9.609   5.614   7.268  0.2109 -0.7133 -0.7021
  298MOL0     C40109   9.649   5.671   7.407  0.0168  0.2710 -0.1874
  298MOL0     C40110   9.542   5.744   7.488  0.6089 -0.1548 -0.5301
  298MOL0     C40111   9.495   5.877   7.417  0.1306 -0.4544  0.2190
  298MOL0     N40112   9.391   5.948   7.484  0.0117 -0.8484 -1.0146
  298MOL0     C40113   9.416   6.052   7.580 -0.0960 -0.5320 -0.7930
  298MOL0     C40114   9.295   6.097   7.614 -0.3502 -0.8621 -0.3908
  298MOL0     C40115   9.278   6.210   7.706  0.9927  0.0258  0.4126
  298MOL0     C40116   9.127   6.215   7.740 -0.2685  0.1079 -0.8491
  298MOL0     C40117   9.105   6.320   7.851 -0.2706 -0.3105  0.0323
  298MOL0     C40118   9.150   6.462   7.808  0.2498  0.9279 -0.7986
  298MOL0     O40119   9.112   6.559   7.902  0.2101 -0.6974  0.8762
  298MOL0     C40120   9.151   6.686   7.877 -0.6299 -0.2842 -1.1812
  298MOL0     C40121   9.238   6.737   7.773 -0.3684  0.9267  0.0976
  298MOL0     C40122   9.269   6.875   7.762 -0.8469  0.2317  0.0146
  298MOL0     C40123   9.365   6.918   7.649 -0.5150  0.6922 -0.4265
  298MOL0     C40124   9.197   6.970   7.832 -0.0498  0.1791 -0.0811
  298MOL0     C40125   9.204   7.114   7.822 -0.0131 -1.2338  1.1082
  298MOL0     O40126   9.138   7.191   7.912  0.0983  0.3858 -0.7917
  298MOL0     C40127   9.158   7.327   7.893 -1.1837 -0.7502  0.4222
  298MOL0     C40128   9.220   7.404   7.994  0.1370 -0.3512  0.3920
  298MOL0     C40129   9.231   7.539   7.970 -0.1961  0.6073  0.4560
  298MOL0     C40130   9.183   7.602   7.849  0.0594 -0.8901 -0.1345
  298MOL0     O40131   9.185   7.737   7.835  0.2601  0.3465 -0.2298
  298MOL0     C40132   9.299   7.816   7.873  0.4303 -0.7142  1.0422
  298MOL0     C40133   9.361   7.879   7.745 -0.1787  0.0031 -0.2198
  298MOL0     C40134   9.487   7.964   7.780 -0.5432 -0.1345 -0.0815
  298MOL0     C40135   9.622   7.890   7.806 -0.2198  0.0235  0.8328
  298MOL0     C40136   9.740   7.975   7.827 -0.4556  0.1374 -0.0754
  298MOL0     C40137   9.770   8.079   7.723 -0.4859  0.2772  0.3827
  298MOL0     C40138   9.875   8.183   7.780  0.0398  0.5576  0.1365
  298MOL0     C40139   9.904   8.295   7.683  0.8244 -0.0986 -0.3909
  298MOL0    Cl40140   9.908   8.251   7.508 -0.1104 -0.1252  0.1330
  298MOL0     C40141   9.124   7.526   7.752 -0.0115  0.7444  0.1607
  298MOL0     C40142   9.113   7.390   7.770 -0.3051 -0.3069 -1.0323
  298MOL0     O40143   9.280   7.161   7.735 -0.1736 -0.1818 -0.2950
  298MOL0     C40144   9.114   6.924   7.941  0.6272 -0.1131  0.6905
  298MOL0     C40145   9.098   6.791   7.965 -0.2458 -0.2286  0.1532
  298MOL0     N40146   9.198   6.033   7.537  0.6191 -0.3158  0.9319
  298MOL0     N40147   9.254   5.937   7.466  0.6164 -0.2497 -0.9512
  298MOL0     C40148   8.776   5.423   7.319  0.1996 -1.5310  0.6057
  298MOL0     C40149   8.634   5.447   7.288 -0.3012  0.0699 -0.4545
  298MOL0     C40150   8.253   5.404   7.062  0.0410  0.1256  0.7762
  298MOL0     C40151   8.168   5.292   7.060  0.4048 -0.2439 -0.4789
  298MOL0     C40152   8.031   5.307   7.052  0.6334  0.7318 -0.6783
  298MOL0     C40153   7.969   5.429   7.037  0.1313 -0.0607 -0.9530
  298MOL0     O40154   7.828   5.438   7.023 -0.4886  0.5426 -0.2870
  298MOL0     C40155   7.747   5.327   7.072 -0.3398 -0.1122 -0.3460
  298MOL0     C40156   7.599   5.369   7.107 -0.3823  0.4861 -0.8386
  298MOL0     C40157   7.530   5.268   7.203 -1.2970  0.2276  0.1655
  298MOL0     C40158   7.379   5.284   7.197 -1.4887 -0.4013  0.0989
  298MOL0     C40159   7.312   5.215   7.299  0.1439  0.0980  0.0015
  298MOL0     C40160   7.258   5.150   7.385  0.1488 -0.4976 -0.3636
  298MOL0     C40161   8.060   5.537   7.024  1.0157 -0.6359 -0.4159
  298MOL0     C40162   8.197   5.519   7.026 -0.0976  0.5330 -1.0045
  298MOL0     H40163   8.663   5.637   7.017  1.3769 -2.4797 -2.1958
  298MOL0     H40164   8.905   5.610   7.075 -1.1077  0.2619  0.2205
  298MOL0     H40165   9.084   5.613   7.182  0.9527  1.3208  0.5602
  298MOL0     H40166   9.097   5.575   7.346  0.8353 -2.1862  0.8165
  298MOL0     H40167   9.263   5.393   7.309 -1.8285 -1.1809 -1.3036
  298MOL0     H40168   9.252   5.424   7.136  4.9319  1.6193 -0.9554
  298MOL0     H40169   9.344   5.639   7.151 -1.4927  0.6595 -0.7091
  298MOL0     H40170   9.344   5.642   7.333  1.2170 -1.8311  0.1651
  298MOL0     H40171   9.489   5.467   7.362  0.0238 -0.1788 -0.6270
  298MOL0     H40172   9.494   5.449   7.178  0.3408  3.2562 -2.8981
  298MOL0     H40173   9.697   5.560   7.233  0.7116 -2.9487  3.3973
  298MOL0     H40174   9.587   5.700   7.203 -3.0454  1.0151  2.3063
  298MOL0     H40175   9.684   5.593   7.474  1.7715 -0.5302 -1.9600
  298MOL0     H40176   9.734   5.740   7.397 -0.7559  1.3007  0.1271
  298MOL0     H40177   9.461   5.673   7.505  0.5614 -0.3526 -1.5333
  298MOL0     H40178   9.577   5.766   7.589 -0.6493  0.8985 -0.2920
  298MOL0     H40179   9.474   5.847   7.314 -0.9944 -2.0509  0.8666
  298MOL0     H40180   9.575   5.950   7.424 -0.1937 -0.0591 -0.1343
  298MOL0     H40181   9.514   6.095   7.598 -1.3316  2.8145 -1.4017
  298MOL0     H40182   9.338   6.199   7.797 -1.5852 -2.2873  1.9911
  298MOL0     H40183   9.300   6.301   7.649 -2.3085 -1.2921 -3.4169
  298MOL0     H40184   9.089   6.120   7.778 -0.4754  0.7133  0.5156
  298MOL0     H40185   9.062   6.238   7.656 -3.0572 -0.9302  0.8996
  298MOL0     H40186   9.156   6.293   7.944  0.9843  0.5785 -0.3666
  298MOL0     H40187   8.999   6.327   7.876 -0.0661 -0.2392  0.9166
  298MOL0     H40188   9.105   6.485   7.711 -0.7664 -0.3168 -0.6587
  298MOL0     H40189   9.259   6.464   7.798  0.3297  0.2516 -0.1429
  298MOL0     H40190   9.295   6.672   7.707 -0.7936 -0.5256  1.1036
  298MOL0     H40191   9.460   6.952   7.691 -0.1088 -1.2759  0.3526
  298MOL0     H40192   9.389   6.831   7.588 -0.0458  1.2571 -1.0520
  298MOL0     H40193   9.319   6.988   7.579 -2.4949 -1.6537 -1.6304
  298MOL0     H40194   9.257   7.349   8.080  2.8890  0.2178 -0.3516
  298MOL0     H40195   9.275   7.593   8.054 -0.2723 -0.2611  1.0614
  298MOL0     H40196   9.264   7.900   7.934 -1.6420 -0.4531 -0.4044
  298MOL0     H40197   9.372   7.758   7.932  0.4503  0.7257  2.5114
  298MOL0     H40198   9.396   7.797   7.681  3.1939  2.1675 -1.4252
  298MOL0     H40199   9.288   7.941   7.693  0.4583  1.4248  0.5446
  298MOL0     H40200   9.462   8.029   7.864  0.3140 -2.1036  1.7931
  298MOL0     H40201   9.510   8.032   7.697  1.9396  1.8044  2.0239
  298MOL0     H40202   9.608   7.829   7.896  0.6397 -3.4472 -1.1797
  298MOL0     H40203   9.642   7.820   7.724 -0.8913 -1.7174  2.1002
  298MOL0     H40204   9.830   7.915   7.844 -0.2057  1.2914  3.4225
  298MOL0     H40205   9.725   8.036   7.916 -3.0439 -0.3289 -0.0993
  298MOL0     H40206   9.810   8.030   7.634 -0.0095  0.1398  0.6693
  298MOL0     H40207   9.677   8.126   7.689  0.6930  2.0884 -0.5079
  298MOL0     H40208   9.962   8.117   7.788 -1.3165 -1.1508  1.5020
  298MOL0     H40209   9.847   8.214   7.881 -1.4517 -1.0380  0.2672
  298MOL0     H40210   9.997   8.344   7.713  1.4092 -1.0121 -0.6891
  298MOL0     H40211   9.815   8.358   7.692  0.1275 -0.7939 -1.9028
  298MOL0     H40212   9.083   7.570   7.661  1.2821  1.9041  0.0983
  298MOL0     H40213   9.081   7.332   7.684  2.7308  0.7304 -3.0268
  298MOL0     H40214   9.063   6.991   8.010 -0.6910 -2.5178  2.2121
  298MOL0     H40215   9.034   6.755   8.045  1.8913  0.0461  2.0923
  298MOL0     H40216   8.803   5.366   7.408  0.0829 -1.0378  0.9651
  298MOL0     H40217   8.556   5.398   7.345 -0.3168  0.9032  0.2637
  298MOL0     H40218   8.209   5.193   7.076 -0.7872 -0.8446 -0.9580
  298MOL0     H40219   7.964   5.222   7.047 -1.1180  2.0202 -0.0326
  298MOL0     H40220   7.742   5.252   6.994 -2.5044 -1.0558  0.6394
  298MOL0     H40221   7.784   5.289   7.168 -0.2059  0.0512 -0.3313
  298MOL0     H40222   7.545   5.372   7.012  1.5717 -0.4373 -2.0400
  298MOL0     H40223   7.600   5.465   7.159 -0.4214  0.2019 -0.3105
  298MOL0     H40224   7.573   5.280   7.303 -0.9606 -0.6796  0.1411
  298MOL0     H40225   7.550   5.163   7.176  0.5245  0.6914 -0.4381
  298MOL0     H40226   7.344   5.255   7.098  1.8545  0.6654 -1.5615
  298MOL0     H40227   7.359   5.390   7.217  0.7767 -0.0993  1.1833
  298MOL0     H40228   7.210   5.096   7.464  1.1117 -0.4738  0.2594
  298MOL0     H40229   8.017   5.637   7.018 -0.1309 -1.0939  0.0120
  298MOL0     H40230   8.257   5.607   7.007  1.0223 -0.6589 -3.5350
  299MOL0     O40231   0.263   3.388   5.315 -0.3987  0.0031  0.0280
  299MOL0     C40232   0.327   3.426   5.412 -0.3689 -0.4661  0.3761
  299MOL0     O40233   0.282   3.438   5.545 -0.3477 -0.0414  0.5933
  299MOL0     C40234   0.149   3.426   5.568  0.7177  0.3394  0.5780
  299MOL0     C40235   0.115   3.384   5.696 -0.6071 -0.3075  0.9371
  299MOL0     C40236  -0.018   3.344   5.734 -0.9414 -0.0451  0.7384
  299MOL0     C40237  -0.125   3.373   5.651  0.8421 -0.3548  0.0604
  299MOL0     O40238  -0.249   3.347   5.696  0.9368  0.5664  0.1173
  299MOL0     C40239  -0.358   3.438   5.657  0.1047 -0.6056  0.2026
  299MOL0     C40240  -0.474   3.411   5.751 -0.9330 -0.7523 -0.4571
  299MOL0     C40241  -0.602   3.470   5.703 -0.2416 -0.1025  0.8438
  299MOL0     C40242  -0.726   3.409   5.769 -0.5375  0.2515  0.4934
  299MOL0     C40243  -0.856   3.447   5.690  0.5719  0.2951 -0.3510
  299MOL0     C40244  -0.985   3.420   5.769  0.4027  0.5813  0.0359
  299MOL0     C40245  -1.103   3.443   5.673  0.5900  0.3781  0.2766
  299MOL0     C40246  -1.238   3.401   5.748 -0.1333 -0.0535 -0.4101
  299MOL0     N40247  -1.350   3.429   5.665  0.9938  0.1827  0.0362
  299MOL0     C40248  -1.421   3.544   5.684  0.2135  0.3086 -0.5273
  299MOL0     C40249  -1.505   3.540   5.577  0.3976 -0.1905 -1.1119
  299MOL0     C40250  -1.593   3.661   5.544 -0.0881  0.2242 -0.3695
  299MOL0     C40251  -1.742   3.617   5.562 -0.3507 -0.7352  0.8056
  299MOL0     C40252  -1.800   3.535   5.450  0.2594  0.6677  0.0062
  299MOL0     C40253  -1.952   3.529   5.437  0.5743 -0.1466  0.0152
  299MOL0     O40254  -2.010   3.658   5.423  0.1277 -0.5733  0.3013
  299MOL0     C40255  -2.143   3.683   5.395 -0.1536 -0.1162  0.4761
  299MOL0     C40256  -2.249   3.592   5.391 -0.7508  0.2866 -0.2746
  299MOL0     C40257  -2.379   3.631   5.351 -0.5927  0.2329 -0.1153
  299MOL0     C40258  -2.475   3.519   5.328  0.7356 -0.2006 -0.7209
  299MOL0     C40259  -2.410   3.769   5.341  0.4262 -0.0175  0.1911
  299MOL0     C40260  -2.547   3.828   5.306 -0.7982  1.3060 -0.4626
  299MOL0     O40261  -2.641   3.742   5.249 -0.6336 -0.6482  0.2911
  299MOL0     C40262  -2.772   3.771   5.272  0.3862 -0.0947 -0.5372
  299MOL0     C40263  -2.841   3.697   5.378 -0.2556  0.4926  0.1162
  299MOL0     C40264  -2.977   3.728   5.412 -1.2381  0.0959  0.8121
  299MOL0     C40265  -3.039   3.841   5.358 -0.7385 -0.3985  0.2477
  299MOL0     O40266  -3.159   3.890   5.408 -0.3886  0.0190  0.2768
  299MOL0     C40267  -3.196   4.026   5.378  0.1705 -0.4643  0.4282
  299MOL0     C40268  -3.303   4.085   5.474  0.2258 -0.6288 -0.1584
  299MOL0     C40269  -3.356   4.218   5.422 -0.3929 -0.6630  0.3131
  299MOL0     C40270  -3.462   4.286   5.499  0.8020  0.2713 -0.0777
  299MOL0     C40271  -3.502   4.429   5.441 -0.5676  0.4274 -0.0628
  299MOL0     C40272  -3.557   4.437   5.302  0.5910  0.6069  0.8713
  299MOL0     C40273  -3.690   4.356   5.291 -0.4565 -0.5533 -0.1714
  299MOL0     C40274  -3.727   4.349   5.143 -0.5502  0.5226  0.4930
  299MOL0    Cl40275  -3.897   4.299   5.148  0.1383 -0.4186  0.1256
  299MOL0     C40276  -2.972   3.904   5.248  0.4913 -0.3544 -0.0712
  299MOL0     C40277  -2.837   3.876   5.216  0.0728 -0.0399  0.5197
  299MOL0     O40278  -2.568   3.941   5.346 -0.0947  0.1985  0.1358
  299MOL0     C40279  -2.306   3.851   5.366  1.0206 -0.5120 -0.2596
  299MOL0     C40280  -2.170   3.813   5.384 -0.0715  1.1093 -0.1563
  299MOL0     N40281  -1.484   3.430   5.504 -0.4020  0.1584  0.3054
  299MOL0     N40282  -1.389   3.366   5.550 -0.3853  0.2444  0.4644
  299MOL0     C40283  -0.090   3.428   5.528  0.0977  0.5810  0.5212
  299MOL0     C40284   0.040   3.447   5.481 -0.4642 -0.0089  0.8868
  299MOL0     C40285   0.473   3.428   5.396 -0.8111 -0.9946  1.3851
  299MOL0     C40286   0.534   3.394   5.271  0.6402  0.4681 -0.2080
  299MOL0     C40287   0.675   3.405   5.262 -0.2232  0.6140 -0.2122
  299MOL0     C40288   0.760   3.465   5.360 -0.3252  0.5803  0.1269
  299MOL0     O40289   0.893   3.472   5.344  0.5090 -0.2719  0.2018
  299MOL0     C40290   0.946   3.598   5.387 -0.0578  0.5704 -0.1617
  299MOL0     C40291   1.086   3.600   5.348  0.6149 -0.1982 -0.0223
  299MOL0     C40292   1.190   3.542   5.454  0.9470 -0.4050 -0.0373
  299MOL0     C40293   1.334   3.550   5.400  0.0717 -0.7544 -1.3090
  299MOL0     C40294   1.376   3.467   5.288 -0.1913  0.0520  0.1440
  299MOL0     C40295   1.424   3.383   5.219 -0.6943 -0.1857  0.2037
  299MOL0     C40296   0.698   3.506   5.477 -0.2080 -0.7192  0.1825
  299MOL0     C40297   0.562   3.481   5.503  0.2368  0.8345  0.2183
  299MOL0     H40298   0.203   3.375   5.760  0.1846  1.2746  0.1483
  299MOL0     H40299  -0.028   3.304   5.834  1.4950  0.6058  1.3263
  299MOL0     H40300  -0.322   3.540   5.673 -2.5687  0.4196  0.2351
  299MOL0     H40301  -0.397   3.420   5.556 -0.5766  3.3119 -0.4012
  299MOL0     H40302  -0.486   3.303   5.759 -1.8933 -0.6449 -0.3771
  299MOL0     H40303  -0.442   3.446   5.850  0.3352 -3.2638  0.0963
  299MOL0     H40304  -0.606   3.578   5.721 -0.4550  0.1777 -0.7514
  299MOL0     H40305  -0.600   3.454   5.595  1.6998 -0.6455  0.9188
  299MOL0     H40306  -0.711   3.301   5.767 -2.0653  0.0021  0.9720
  299MOL0     H40307  -0.735   3.440   5.873  0.2848 -0.0252  0.6478
  299MOL0     H40308  -0.862   3.553   5.665 -1.4164  0.8936  2.2002
  299MOL0     H40309  -0.852   3.384   5.601  0.9520 -1.7939  1.0846
  299MOL0     H40310  -0.982   3.314   5.792  0.7158  0.3779 -0.9118
  299MOL0     H40311  -0.994   3.486   5.856 -1.4034  0.6330 -0.1584
  299MOL0     H40312  -1.100   3.548   5.643  0.2703  0.5100  0.6940
  299MOL0     H40313  -1.084   3.385   5.582  2.2079  0.5809  0.4578
  299MOL0     H40314  -1.240   3.448   5.847 -1.1221 -0.7387 -0.0868
  299MOL0     H40315  -1.234   3.293   5.762 -1.3945 -0.1035 -0.3216
  299MOL0     H40316  -1.403   3.620   5.759 -2.0708 -0.3263  0.7722
  299MOL0     H40317  -1.572   3.739   5.618  3.1337 -1.0287  0.2048
  299MOL0     H40318  -1.577   3.711   5.448  1.8506  1.9670  0.7820
  299MOL0     H40319  -1.788   3.715   5.550  2.3654  0.4184 -1.0344
  299MOL0     H40320  -1.771   3.573   5.658  0.9964 -3.1913  0.1793
  299MOL0     H40321  -1.765   3.433   5.464 -1.3009  0.3309  1.8899
  299MOL0     H40322  -1.763   3.569   5.353  2.2855 -0.9189  0.1745
  299MOL0     H40323  -1.986   3.485   5.531  2.2902 -0.1274  0.6777
  299MOL0     H40324  -1.994   3.470   5.354  0.2373 -2.1466  1.5174
  299MOL0     H40325  -2.217   3.488   5.399 -2.4040 -0.1869  0.7527
  299MOL0     H40326  -2.451   3.430   5.386  1.2177  0.1614 -0.3613
  299MOL0     H40327  -2.577   3.547   5.357  0.3148 -2.1243 -0.2466
  299MOL0     H40328  -2.476   3.489   5.223 -0.3263 -0.9851 -0.5067
  299MOL0     H40329  -2.787   3.615   5.424 -0.6906 -0.3223 -0.8114
  299MOL0     H40330  -3.030   3.667   5.484 -2.1331  0.1123  0.1843
  299MOL0     H40331  -3.113   4.096   5.373 -0.7380  0.5695 -2.5973
  299MOL0     H40332  -3.245   4.022   5.280  0.1489  2.2079  0.2673
  299MOL0     H40333  -3.395   4.026   5.486  0.4640 -1.0074 -0.1518
  299MOL0     H40334  -3.254   4.102   5.570 -3.6699  2.1347  1.5654
  299MOL0     H40335  -3.404   4.197   5.326  1.6759 -3.6091 -0.2418
  299MOL0     H40336  -3.265   4.277   5.410  0.6930 -2.3522 -0.2742
  299MOL0     H40337  -3.538   4.209   5.510  0.4737  0.4839 -0.7850
  299MOL0     H40338  -3.432   4.298   5.603  2.3922  2.5516 -0.7247
  299MOL0     H40339  -3.414   4.492   5.457  1.9932 -3.1499  1.0564
  299MOL0     H40340  -3.572   4.485   5.503  1.7787  0.7076  2.5282
  299MOL0     H40341  -3.584   4.537   5.265 -1.1858  0.2607  1.1605
  299MOL0     H40342  -3.478   4.393   5.240  0.8140 -1.4269  2.4923
  299MOL0     H40343  -3.776   4.405   5.337 -1.6418 -2.4428 -0.2696
  299MOL0     H40344  -3.687   4.254   5.330 -1.0695 -0.2220  0.7653
  299MOL0     H40345  -3.676   4.266   5.093 -2.7867 -0.6192 -0.0262
  299MOL0     H40346  -3.701   4.446   5.101  1.4494 -0.1299  0.1432
  299MOL0     H40347  -3.017   3.989   5.198  1.1277  0.6280  0.9850
  299MOL0     H40348  -2.787   3.940   5.144 -0.9034  0.7948  0.5495
  299MOL0     H40349  -2.335   3.956   5.360 -0.6396 -0.7306  2.2507
  299MOL0     H40350  -2.085   3.880   5.387  2.6068 -2.0725  1.0996
  299MOL0     H40351  -0.176   3.449   5.465  1.2295  0.5159 -1.1239
  299MOL0     H40352   0.068   3.487   5.384  2.9001 -0.8699  1.3978
  299MOL0     H40353   0.480   3.356   5.185 -0.3762  0.0826  0.5853
  299MOL0     H40354   0.728   3.388   5.169 -0.4905  0.0176 -0.2600
  299MOL0     H40355   0.894   3.684   5.343 -1.2600 -0.1372 -0.1823
  299MOL0     H40356   0.948   3.601   5.496  1.7353  1.1891 -0.1916
  299MOL0     H40357   1.102   3.707   5.333 -0.6032  0.4741  2.7350
  299MOL0     H40358   1.101   3.553   5.250 -0.6935  1.8879 -1.3018
  299MOL0     H40359   1.167   3.436   5.466 -1.2687 -0.0405 -0.6575
  299MOL0     H40360   1.192   3.595   5.550  2.8191  0.6091 -0.5830
  299MOL0     H40361   1.394   3.528   5.488 -3.5803 -1.2621  1.3010
  299MOL0     H40362   1.358   3.655   5.386 -1.4740 -0.2728 -0.5887
  299MOL0     H40363   1.470   3.305   5.161 -0.6175 -0.3942  0.5408
  299MOL0     H40364   0.760   3.557   5.549  2.7599 -1.7601 -1.4853
  299MOL0     H40365   0.509   3.505   5.595 -0.7154  0.3252 -0.1734
  300MOL0     O40366   9.023   4.074   9.088 -0.5543  0.1167 -0.5093
  300MOL0     C40367   9.059   4.189   9.077 -0.2777 -0.4651  0.2342
  300MOL0     O40368   8.978   4.299   9.076 -0.4970  0.2359  0.4075
  300MOL0     C40369   8.847   4.296   9.126  0.3558 -0.5360  0.1519
  300MOL0     C40370   8.776   4.423   9.158  0.1263  1.2034 -0.5096
  300MOL0     C40371   8.642   4.432   9.190  1.0601  0.1818  0.0342
  300MOL0     C40372   8.557   4.319   9.194 -0.7378 -0.3242  0.3199
  300MOL0     O40373   8.422   4.317   9.220  0.4192  0.2111  0.2050
  300MOL0     C40374   8.323   4.398   9.161  0.4029 -0.6544  0.9200
  300MOL0     C40375   8.207   4.369   9.258  0.5260  0.4187 -0.4769
  300MOL0     C40376   8.229   4.429   9.394  0.4703  0.6208  0.2932
  300MOL0     C40377   8.108   4.430   9.492  0.5419  0.3302 -0.8057
  300MOL0     C40378   8.055   4.295   9.529  0.8683 -0.2828 -0.8357
  300MOL0     C40379   8.152   4.230   9.628  0.2547 -0.1425  0.5476
  300MOL0     C40380   8.084   4.180   9.751 -0.5048  1.1117  0.7644
  300MOL0     C40381   8.056   4.299   9.849 -0.2007  0.2509  0.9319
  300MOL0     N40382   7.987   4.249   9.970  0.6229  0.4848  0.3313
  300MOL0     C40383   8.035   4.257  10.100  0.3791  0.2388  0.3991
  300MOL0     C40384   7.936   4.179  10.171 -0.5644  0.3040  0.2091
  300MOL0     C40385   7.927   4.162  10.323  0.2239  0.5152  0.5085
  300MOL0     C40386   7.893   4.289  10.396  0.1205  0.2153 -0.1329
  300MOL0     C40387   7.863   4.262  10.539 -0.7641  0.0059 -0.7388
  300MOL0     C40388   7.705   4.236  10.561 -0.2765  0.7859  0.1367
  300MOL0     O40389   7.620   4.350  10.523  0.1871 -0.2447  0.3638
  300MOL0     C40390   7.481   4.335  10.522 -0.3901  0.3948  0.2275
  300MOL0     C40391   7.414   4.214  10.541  0.7256  0.0657 -0.5775
  300MOL0     C40392   7.270   4.209  10.526  0.5860  0.3355 -0.2533
  300MOL0     C40393   7.207   4.070  10.535 -0.3874  0.3521 -0.3218
  300MOL0     C40394   7.195   4.323  10.489 -0.1729 -0.0854  0.3077
  300MOL0     C40395   7.044   4.335  10.461  0.2736  0.3335  0.9583
  300MOL0     O40396   6.988   4.455  10.417  0.1370 -0.4402 -0.1367
  300MOL0     C40397   6.847   4.466  10.419 -0.0754 -0.1358  0.3959
  300MOL0     C40398   6.783   4.524  10.310 -1.1200 -0.6751 -0.4410
  300MOL0     C40399   6.652   4.569  10.316  0.5061 -0.3476 -0.0376
  300MOL0     C40400   6.575   4.538  10.430 -0.7138 -0.4116  0.0681
  300MOL0     O40401   6.443   4.562  10.422 -0.1729 -1.4713  0.2122
  300MOL0     C40402   6.371   4.589  10.548 -0.7232  0.8598  0.2153
  300MOL0     C40403   6.232   4.649  10.535  0.1963 -0.4028  0.5107
  300MOL0     C40404   6.134   4.623  10.654  0.9158  0.3948 -1.0168
  300MOL0     C40405   6.016   4.723  10.645  0.1249  0.8281  0.6778
  300MOL0     C40406   5.923   4.721  10.769 -0.8445  0.1899  1.1544
  300MOL0     C40407   5.783   4.773  10.725  0.2646  0.3620 -0.4285
  300MOL0     C40408   5.785   4.908  10.656  0.3435 -0.3907  0.6005
  300MOL0     C40409   5.801   5.017  10.769 -0.3584 -0.0247  0.4566
  300MOL0    Cl40410   5.787   5.171  10.687  0.0554  0.3784 -0.0448
  300MOL0     C40411   6.637   4.484  10.544 -1.2764  0.4854 -0.6435
  300MOL0     C40412   6.778   4.454  10.538 -0.6088 -0.7353 -0.1799
  300MOL0     O40413   6.976   4.228  10.484  0.0419  0.2282 -0.6109
  300MOL0     C40414   7.263   4.444  10.483 -0.4334  0.1699 -0.2758
  300MOL0     C40415   7.400   4.452  10.501 -0.9010  1.0591 -0.1992
  300MOL0     N40416   7.839   4.134  10.077 -0.3055  0.4209 -0.2958
  300MOL0     N40417   7.867   4.185   9.961  0.5893 -0.1319 -0.5183
  300MOL0     C40418   8.626   4.196   9.172  0.8329  0.8164 -0.7762
  300MOL0     C40419   8.759   4.184   9.136 -0.4461 -0.6161  0.0812
  300MOL0     C40420   9.203   4.218   9.048  0.2993  0.0085  0.1224
  300MOL0     C40421   9.295   4.119   9.003  0.8652 -0.0980  0.0440
  300MOL0     C40422   9.415   4.155   8.955  0.1312 -0.2066 -0.8250
  300MOL0     C40423   9.465   4.284   8.971  0.5410 -0.1410 -0.4095
  300MOL0     O40424   9.596   4.322   8.936 -0.0399  0.5243 -0.5130
  300MOL0     C40425   9.678   4.232   8.861 -0.7043 -0.0820  0.4624
  300MOL0     C40426   9.813   4.303   8.855  0.2926  0.1614  0.1344
  300MOL0     C40427   9.894   4.289   8.980 -0.0376 -0.0490  0.0170
  300MOL0     C40428   9.991   4.173   8.978 -0.5554  0.0176 -0.3833
  300MOL0     C40429  10.120   4.217   8.912  0.1204  0.8495  0.3032
  300MOL0     C40430  10.211   4.255   8.840  0.2109 -0.3395 -0.7818
  300MOL0     C40431   9.379   4.380   9.033  0.1016  0.7185 -0.3653
  300MOL0     C40432   9.248   4.354   9.061  0.0771  0.3321 -0.0670
  300MOL0     H40433   8.834   4.514   9.145  0.5508  0.8356 -1.2739
  300MOL0     H40434   8.609   4.533   9.211 -0.4879  0.2366 -2.2558
  300MOL0     H40435   8.360   4.501   9.165  0.3835 -0.4965 -1.5495
  300MOL0     H40436   8.314   4.366   9.056  3.4975  3.7471 -1.0182
  300MOL0     H40437   8.117   4.407   9.209  1.4201  0.4235 -2.1736
  300MOL0     H40438   8.201   4.261   9.273  0.8619  0.3768 -0.6386
  300MOL0     H40439   8.301   4.362   9.442  0.3389 -0.6884 -1.2666
  300MOL0     H40440   8.274   4.527   9.381  1.6258  0.7728  4.0184
  300MOL0     H40441   8.143   4.485   9.580  1.3023 -0.7538 -0.4093
  300MOL0     H40442   8.023   4.487   9.453  0.9874  1.4330 -0.2092
  300MOL0     H40443   7.957   4.324   9.570  0.8383  2.8518 -2.7254
  300MOL0     H40444   8.041   4.231   9.442  0.4026 -0.5779 -0.5474
  300MOL0     H40445   8.201   4.151   9.570  0.7396  1.9104 -2.0170
  300MOL0     H40446   8.227   4.305   9.657 -0.4598  0.6144  0.4601
  300MOL0     H40447   7.993   4.124   9.727  1.1536 -1.2255 -0.5221
  300MOL0     H40448   8.143   4.109   9.809 -0.0694  0.5514 -0.3360
  300MOL0     H40449   7.990   4.365   9.792 -1.6272 -1.7238  0.1912
  300MOL0     H40450   8.147   4.353   9.878 -1.1919  1.7613  1.3358
  300MOL0     H40451   8.124   4.309  10.133 -0.4536  2.0538 -0.1348
  300MOL0     H40452   7.842   4.094  10.324 -2.6956  3.6143 -3.8107
  300MOL0     H40453   8.016   4.112  10.364  0.6293  2.0842  1.6678
  300MOL0     H40454   7.808   4.339  10.349  0.0509 -0.4644 -0.7355
  300MOL0     H40455   7.979   4.356  10.384  0.4037 -0.4541 -2.1664
  300MOL0     H40456   7.898   4.350  10.593  0.3360 -0.8080 -0.0855
  300MOL0     H40457   7.916   4.178  10.585  2.8362  1.5324 -1.7633
  300MOL0     H40458   7.687   4.193  10.660 -0.8993  0.3733 -0.1511
  300MOL0     H40459   7.670   4.160  10.492  0.3288 -0.1930  0.8806
  300MOL0     H40460   7.470   4.128  10.576  1.3095  0.7522  0.2042
  300MOL0     H40461   7.171   4.033  10.439 -2.2710  0.7014  0.1994
  300MOL0     H40462   7.274   3.991  10.569  1.3332  0.4385 -3.2001
  300MOL0     H40463   7.121   4.059  10.602 -0.7259 -1.3762 -1.0090
  300MOL0     H40464   6.831   4.543  10.214  1.3279 -0.0083  0.8348
  300MOL0     H40465   6.605   4.610  10.228  1.3758  1.1279  0.1575
  300MOL0     H40466   6.361   4.489  10.592 -0.0007  0.6868  0.0135
  300MOL0     H40467   6.430   4.649  10.618 -1.2692  1.0859  0.4871
  300MOL0     H40468   6.251   4.755  10.515 -1.8487 -0.5367 -2.9524
  300MOL0     H40469   6.195   4.613  10.439  2.2399  3.5483 -2.0471
  300MOL0     H40470   6.180   4.648  10.750 -0.6330 -0.6136  0.0330
  300MOL0     H40471   6.101   4.519  10.665  1.1291  0.4771  0.7082
  300MOL0     H40472   6.056   4.825  10.639 -2.3872  1.8664  0.3567
  300MOL0     H40473   5.948   4.694  10.565 -0.6705 -0.4217  1.7560
  300MOL0     H40474   5.973   4.782  10.845 -0.6775 -0.4541  1.5661
  300MOL0     H40475   5.914   4.623  10.816 -0.8251  0.6896  2.2233
  300MOL0     H40476   5.736   4.693  10.668  0.9729  0.6856 -1.4866
  300MOL0     H40477   5.725   4.777  10.818  1.2159  0.3783  0.1783
  300MOL0     H40478   5.687   4.914  10.606  0.3134  0.2170  0.7225
  300MOL0     H40479   5.865   4.920  10.582  1.5382 -0.4072  1.8551
  300MOL0     H40480   5.906   5.015  10.797 -0.2999 -2.4167  0.2209
  300MOL0     H40481   5.731   4.998  10.850  0.7589 -0.8487  1.2476
  300MOL0     H40482   6.577   4.466  10.633  0.5004  1.8788  0.9356
  300MOL0     H40483   6.826   4.418  10.628 -1.1186  2.8997  1.7535
  300MOL0     H40484   7.205   4.533  10.462  1.4180  0.5199 -5.2918
  300MOL0     H40485   7.443   4.552  10.496 -1.2950  1.3004  0.9966
  300MOL0     H40486   8.581   4.099   9.190  0.3950  1.1427 -0.0807
  300MOL0     H40487   8.801   4.085   9.120  2.5721  0.5655  0.0149
  300MOL0     H40488   9.252   4.019   9.013 -0.4549  0.4569  0.2102
  300MOL0     H40489   9.479   4.083   8.904 -1.5226 -0.5710 -2.4940
  300MOL0     H40490   9.691   4.129   8.896 -0.9688 -0.7120 -1.1886
  300MOL0     H40491   9.627   4.223   8.765  1.0908 -1.1869 -0.4485
  300MOL0     H40492   9.791   4.408   8.832  1.1573 -0.1572 -2.5712
  300MOL0     H40493   9.869   4.259   8.772  1.5112 -0.5466  1.2960
  300MOL0     H40494   9.829   4.268   9.066 -0.0351  1.4119  0.3907
  300MOL0     H40495   9.942   4.385   8.998 -2.3079  1.2353 -0.4058
  300MOL0     H40496   9.945   4.090   8.925 -1.0606  0.6556 -0.9658
  300MOL0     H40497  10.007   4.143   9.082  1.4879 -2.0881 -1.2095
  300MOL0     H40498  10.297   4.281   8.783  0.3799  1.0267  0.0605
  300MOL0     H40499   9.403   4.484   9.054 -1.0994  0.2460  4.8535
  300MOL0     H40500   9.184   4.435   9.092 -1.4002 -0.5684 -0.6440
  301MOL0     O40501   3.114   4.051   7.703  0.6786 -0.0732  0.6148
  301MOL0     C40502   3.178   4.151   7.660  0.2929  0.2000  0.3056
  301MOL0     O40503   3.126   4.282   7.653 -0.0737 -0.3334  0.4658
  301MOL0     C40504   3.002   4.310   7.708 -0.3023 -0.3053  0.1869
  301MOL0     C40505   2.884   4.317   7.632 -0.7364  0.8918 -0.6616
  301MOL0     C40506   2.770   4.348   7.694  0.5095 -0.0456 -0.1179
  301MOL0     C40507   2.761   4.372   7.835 -1.0366 -0.2705 -0.4674
  301MOL0     O40508   2.647   4.406   7.902  0.2732 -0.4221 -0.0638
  301MOL0     C40509   2.508   4.386   7.854  0.0780  0.8161  0.0183
  301MOL0     C40510   2.432   4.516   7.882  0.5152  0.2293  0.3565
  301MOL0     C40511   2.433   4.569   8.025 -0.9672  0.7176  0.1433
  301MOL0     C40512   2.332   4.518   8.128 -0.5220  0.4060  0.9877
  301MOL0     C40513   2.342   4.372   8.165 -0.6796  1.0089  0.3116
  301MOL0     C40514   2.471   4.313   8.232 -0.2566  0.0006 -0.4705
  301MOL0     C40515   2.480   4.164   8.198 -0.4982 -1.3818  0.8115
  301MOL0     C40516   2.622   4.116   8.185  0.8315 -0.9855 -0.4710
  301MOL0     N40517   2.707   4.150   8.297  0.2446  0.1300 -0.3670
  301MOL0     C40518   2.812   4.240   8.287  0.2280 -0.7262 -0.4763
  301MOL0     C40519   2.839   4.267   8.421  0.3388  0.3964  0.5943
  301MOL0     C40520   2.932   4.372   8.467  0.7571 -0.1012 -1.2904
  301MOL0     C40521   3.077   4.330   8.435 -0.3578 -0.0980  0.1376
  301MOL0     C40522   3.165   4.454   8.409 -0.1965 -0.1821 -0.1796
  301MOL0     C40523   3.214   4.511   8.540  0.1823 -0.9810  0.0164
  301MOL0     O40524   3.120   4.590   8.605  0.5625 -0.3702 -0.2069
  301MOL0     C40525   3.080   4.712   8.557  0.2854  0.8571 -0.0432
  301MOL0     C40526   3.169   4.801   8.500 -0.1392 -0.1976  0.5458
  301MOL0     C40527   3.124   4.915   8.431  0.9280  0.3123  0.6115
  301MOL0     C40528   3.233   4.982   8.353  0.6468 -0.1442 -0.5688
  301MOL0     C40529   2.991   4.952   8.448  0.0235 -0.1951 -0.4284
  301MOL0     C40530   2.924   5.063   8.383 -0.6531 -0.4109 -0.0143
  301MOL0     O40531   2.789   5.082   8.396 -0.0222  0.5105  0.0516
  301MOL0     C40532   2.726   5.186   8.344 -0.1574 -0.6191  0.0781
  301MOL0     C40533   2.671   5.281   8.431 -1.5296  0.6279 -0.1688
  301MOL0     C40534   2.610   5.392   8.383  0.9381  0.1629  0.3275
  301MOL0     C40535   2.582   5.401   8.245  0.0367 -0.1673 -1.0407
  301MOL0     O40536   2.508   5.516   8.228 -0.5879  0.4142  1.1694
  301MOL0     C40537   2.494   5.560   8.084 -0.0713 -0.0740 -0.6079
  301MOL0     C40538   2.408   5.681   8.093 -0.3375 -0.0869  0.5326
  301MOL0     C40539   2.468   5.809   8.162  0.1115  0.8841  0.4212
  301MOL0     C40540   2.369   5.918   8.170 -0.7458  0.4420  0.8096
  301MOL0     C40541   2.446   6.050   8.189  0.1168 -0.5144 -0.0900
  301MOL0     C40542   2.351   6.169   8.209 -1.1595  0.2394  0.2855
  301MOL0     C40543   2.307   6.245   8.081 -0.1229  0.3286  0.0990
  301MOL0     C40544   2.183   6.333   8.103  0.6001 -0.2408 -0.7848
  301MOL0    Cl40545   2.041   6.234   8.153 -0.0055  0.4104  0.3991
  301MOL0     C40546   2.632   5.300   8.160  0.8781 -0.5403  0.5336
  301MOL0     C40547   2.705   5.199   8.211 -0.3779  0.6350 -0.5270
  301MOL0     O40548   2.993   5.131   8.307  0.2803  0.1526  0.2357
  301MOL0     C40549   2.904   4.860   8.516 -0.5320  0.2472  0.3677
  301MOL0     C40550   2.950   4.744   8.579  0.4439  0.2865  1.6706
  301MOL0     N40551   2.759   4.192   8.505 -0.2011  0.3519  0.2908
  301MOL0     N40552   2.678   4.125   8.426  0.1353 -0.0125 -0.5810
  301MOL0     C40553   2.879   4.349   7.910 -0.0082 -0.3450  0.9814
  301MOL0     C40554   2.997   4.315   7.846  0.9649 -0.6108  0.4786
  301MOL0     C40555   3.304   4.110   7.590 -0.0013 -0.7028  0.1359
  301MOL0     C40556   3.385   4.203   7.527 -0.2045 -0.5754 -0.6315
  301MOL0     C40557   3.499   4.170   7.454  0.2167 -0.2674 -0.4121
  301MOL0     C40558   3.548   4.031   7.464 -0.2175 -0.2301  0.1804
  301MOL0     O40559   3.660   4.020   7.391 -0.8179 -0.4157 -0.1439
  301MOL0     C40560   3.725   3.894   7.380 -0.7731  0.3431 -0.2722
  301MOL0     C40561   3.854   3.915   7.300 -0.3512  0.5036 -0.4826
  301MOL0     C40562   3.929   3.780   7.259 -0.2431  1.1112 -0.1048
  301MOL0     C40563   3.849   3.675   7.168 -0.5864  0.3357  0.4030
  301MOL0     C40564   3.935   3.575   7.102  0.2724 -0.0698  0.0414
  301MOL0     C40565   4.004   3.495   7.040 -0.5824  0.3697 -0.6004
  301MOL0     C40566   3.464   3.935   7.516  0.5178  0.9193 -0.2857
  301MOL0     C40567   3.349   3.972   7.587  0.6839 -0.9258 -0.3274
  301MOL0     H40568   2.879   4.302   7.524 -1.3605  1.7790 -0.7725
  301MOL0     H40569   2.675   4.355   7.643 -1.0273 -2.5664  2.0978
  301MOL0     H40570   2.507   4.372   7.746  1.0742 -1.6809  0.2663
  301MOL0     H40571   2.456   4.295   7.885 -0.3176  0.9680 -0.1957
  301MOL0     H40572   2.474   4.590   7.813 -0.4576  0.4841  0.0282
  301MOL0     H40573   2.328   4.500   7.852  1.0146 -1.4221 -0.5826
  301MOL0     H40574   2.534   4.565   8.066 -0.3904  0.3838 -1.2477
  301MOL0     H40575   2.413   4.672   7.994 -3.0711 -0.2163 -1.9175
  301MOL0     H40576   2.332   4.573   8.223 -2.0200 -0.6477  1.6363
  301MOL0     H40577   2.234   4.538   8.085 -0.2237 -0.4576 -0.1446
  301MOL0     H40578   2.263   4.335   8.231 -1.8053 -2.0182 -2.4593
  301MOL0     H40579   2.319   4.327   8.068  1.6214  0.0892  0.1270
  301MOL0     H40580   2.556   4.361   8.182  1.4470  0.0539  2.2807
  301MOL0     H40581   2.478   4.334   8.339 -0.6420 -1.1935 -0.1990
  301MOL0     H40582   2.421   4.110   8.272  0.5659 -0.6366  2.2440
  301MOL0     H40583   2.441   4.141   8.098 -1.0357 -0.0721  0.6987
  301MOL0     H40584   2.671   4.150   8.094  2.8930 -0.0191  0.9420
  301MOL0     H40585   2.622   4.007   8.174 -1.4308 -1.1924  0.9216
  301MOL0     H40586   2.855   4.288   8.200  2.6904  0.6761  1.4138
  301MOL0     H40587   2.894   4.463   8.421 -2.2540 -0.3528  0.4255
  301MOL0     H40588   2.921   4.376   8.576  0.9259 -3.1992 -1.0525
  301MOL0     H40589   3.074   4.275   8.341 -1.9336  0.0752  0.0552
  301MOL0     H40590   3.116   4.259   8.509 -1.2018 -0.5672  0.1417
  301MOL0     H40591   3.108   4.531   8.357 -2.1322 -0.8159  0.8986
  301MOL0     H40592   3.254   4.437   8.347 -0.3670 -0.6275 -0.3106
  301MOL0     H40593   3.307   4.566   8.523 -0.6078 -0.1156 -1.7243
  301MOL0     H40594   3.248   4.429   8.604 -0.6432 -0.4455  1.1840
  301MOL0     H40595   3.273   4.771   8.496 -0.2982 -0.8543  1.0363
  301MOL0     H40596   3.331   4.935   8.353  1.0482  0.6482 -1.3563
  301MOL0     H40597   3.200   4.984   8.249 -0.1776  1.6502 -0.3256
  301MOL0     H40598   3.241   5.087   8.385 -0.0095  0.1400 -1.2857
  301MOL0     H40599   2.692   5.272   8.537  1.3528 -0.2215 -0.7146
  301MOL0     H40600   2.577   5.469   8.453 -0.4666  1.5386 -1.7212
  301MOL0     H40601   2.590   5.596   8.047 -0.7930  1.2877 -1.2169
  301MOL0     H40602   2.434   5.490   8.025 -1.7197 -0.3828  1.2921
  301MOL0     H40603   2.389   5.715   7.990  1.9465 -1.3983 -0.3951
  301MOL0     H40604   2.327   5.642   8.154 -0.7022  1.1306  0.8590
  301MOL0     H40605   2.555   5.844   8.107 -0.1364 -0.1630 -0.6714
  301MOL0     H40606   2.496   5.795   8.267  1.0175 -1.8481 -0.0912
  301MOL0     H40607   2.307   5.925   8.080 -1.9097 -2.7947  1.2572
  301MOL0     H40608   2.302   5.904   8.255 -1.1762 -1.0468  0.2509
  301MOL0     H40609   2.514   6.079   8.108  1.3630 -1.1720  0.7102
  301MOL0     H40610   2.509   6.036   8.277 -0.8001 -0.1942  0.6279
  301MOL0     H40611   2.264   6.126   8.259 -1.0186  2.1010  2.2820
  301MOL0     H40612   2.398   6.240   8.278 -1.4765 -0.0711  0.8270
  301MOL0     H40613   2.271   6.164   8.017  2.4037 -1.1976  0.4953
  301MOL0     H40614   2.383   6.295   8.020  0.5910 -1.4249 -0.5153
  301MOL0     H40615   2.160   6.385   8.010  1.6538 -2.5452 -2.4321
  301MOL0     H40616   2.198   6.411   8.178 -2.1477  0.1062 -0.4756
  301MOL0     H40617   2.610   5.309   8.054 -0.0633 -0.9752  0.6789
  301MOL0     H40618   2.748   5.119   8.152 -0.8987 -0.5449  0.6390
  301MOL0     H40619   2.798   4.876   8.534  0.0069  3.2964  1.5032
  301MOL0     H40620   2.887   4.675   8.636 -1.5114  0.7443  0.1773
  301MOL0     H40621   2.879   4.381   8.013 -0.2819  1.7148  0.3855
  301MOL0     H40622   3.089   4.327   7.903  1.0219  1.1220  0.0764
  301MOL0     H40623   3.362   4.308   7.533 -1.3522 -0.7582 -1.5232
  301MOL0     H40624   3.551   4.250   7.402  0.7122  1.0710  1.9622
  301MOL0     H40625   3.747   3.842   7.474  0.4414 -0.4648 -0.9776
  301MOL0     H40626   3.656   3.829   7.326  1.2609 -2.8099  0.6340
  301MOL0     H40627   3.917   3.969   7.371  0.7759 -0.4188 -0.7533
  301MOL0     H40628   3.817   3.971   7.214  0.4875  0.1709 -1.0661
  301MOL0     H40629   3.956   3.726   7.350 -0.7549  0.8865 -0.0854
  301MOL0     H40630   4.024   3.796   7.205 -0.1661 -1.3474 -0.8048
  301MOL0     H40631   3.796   3.727   7.087 -0.3884 -0.7074 -0.4239
  301MOL0     H40632   3.777   3.618   7.227 -1.5821  2.7731  1.6912
  301MOL0     H40633   4.082   3.436   6.997  2.4491  1.9540  2.2566
  301MOL0     H40634   3.503   3.834   7.519  0.6737  0.8363 -2.7461
  301MOL0     H40635   3.289   3.899   7.640  1.0003 -0.6118  0.4766
  302MOL0     O40636   5.500   4.846   0.026  0.1026 -0.5506 -0.8659
  302MOL0     C40637   5.556   4.922  -0.048  0.5288 -0.3692 -0.4608
  302MOL0     O40638   5.479   5.016  -0.117 -0.4788  0.6947  0.5384
  302MOL0     C40639   5.348   4.992  -0.154  0.3887  0.0214  0.4099
  302MOL0     C40640   5.279   4.872  -0.146 -0.1703  0.0843 -0.0503
  302MOL0     C40641   5.145   4.868  -0.181  0.2192 -0.5708 -0.2866
  302MOL0     C40642   5.076   4.990  -0.224  0.2190  0.3869  1.8024
  302MOL0     O40643   4.941   4.989  -0.256  0.7984 -0.4704 -0.0926
  302MOL0     C40644   4.851   4.920  -0.159  0.8544 -0.7559  0.6151
  302MOL0     C40645   4.703   4.965  -0.174  0.4218 -0.5296  0.1265
  302MOL0     C40646   4.607   4.926  -0.070  0.5473  0.4631  0.0331
  302MOL0     C40647   4.460   4.968  -0.092  0.3144 -0.2837  0.1543
  302MOL0     C40648   4.356   4.899   0.005 -0.4005 -0.6958  0.2002
  302MOL0     C40649   4.221   4.939  -0.047  0.1108 -0.1085 -0.4865
  302MOL0     C40650   4.114   4.886   0.051 -0.6609  0.1742  0.9009
  302MOL0     C40651   4.038   4.995   0.118 -0.6257 -0.3874 -0.3077
  302MOL0     N40652   3.920   4.950   0.197 -0.1150  0.4306  0.3218
  302MOL0     C40653   3.815   4.869   0.154 -0.6801 -0.5674 -0.2735
  302MOL0     C40654   3.764   4.835   0.277  0.8244 -0.3131 -0.6687
  302MOL0     C40655   3.645   4.746   0.290  0.0970 -0.8372 -0.1634
  302MOL0     C40656   3.535   4.808   0.205 -0.4041 -0.0984 -0.2723
  302MOL0     C40657   3.398   4.766   0.255  0.7729  0.4470 -0.3004
  302MOL0     C40658   3.286   4.835   0.173 -0.1685  0.1953  1.5922
  302MOL0     O40659   3.199   4.909   0.260 -0.0473  0.0360  0.4573
  302MOL0     C40660   3.070   4.861   0.256  0.2885  0.7511  0.5507
  302MOL0     C40661   2.968   4.948   0.222 -0.8926 -0.7536  0.1497
  302MOL0     C40662   2.836   4.904   0.220 -1.6380  0.5593  1.0730
  302MOL0     C40663   2.727   4.984   0.166  0.5980  0.4837 -0.6203
  302MOL0     C40664   2.802   4.769   0.244 -1.2958 -0.2187 -0.0480
  302MOL0     C40665   2.670   4.713   0.243 -0.8591  0.5041 -0.5811
  302MOL0     O40666   2.610   4.698   0.369  0.0640  1.0364  1.0414
  302MOL0     C40667   2.473   4.681   0.378 -0.4158  0.5994  0.0741
  302MOL0     C40668   2.371   4.701   0.272  0.5027 -0.2434 -0.1220
  302MOL0     C40669   2.237   4.680   0.299 -1.2444  1.4987  0.3558
  302MOL0     C40670   2.192   4.653   0.428  0.4290  0.8615 -0.2948
  302MOL0     O40671   2.057   4.647   0.450 -0.7287  0.4859 -0.0922
  302MOL0     C40672   2.008   4.586   0.570  0.8156 -0.4156  0.6638
  302MOL0     C40673   1.852   4.612   0.577  0.6515  0.2453  0.7230
  302MOL0     C40674   1.802   4.749   0.531  0.9280  0.3321 -0.5962
  302MOL0     C40675   1.649   4.756   0.528  0.2447  0.6282  0.4404
  302MOL0     C40676   1.598   4.858   0.636  0.4178  0.0130 -0.2058
  302MOL0     C40677   1.447   4.843   0.652  0.0470  0.7150 -0.0822
  302MOL0     C40678   1.406   4.936   0.772 -0.8178  0.7283  0.0710
  302MOL0     C40679   1.408   4.844   0.896 -0.0893  0.2232  0.2253
  302MOL0    Cl40680   1.405   4.957   1.034 -0.0176 -0.0508 -0.5817
  302MOL0     C40681   2.291   4.634   0.527  0.1697  0.6415 -0.1533
  302MOL0     C40682   2.428   4.629   0.502 -0.4868 -0.1477 -0.4666
  302MOL0     O40683   2.621   4.685   0.136  0.4040 -0.5291 -0.4439
  302MOL0     C40684   2.906   4.686   0.285 -0.0564  0.5099 -0.3624
  302MOL0     C40685   3.038   4.725   0.288 -0.5306  0.3422  0.0018
  302MOL0     N40686   3.829   4.891   0.385 -0.2444  0.1305  0.5980
  302MOL0     N40687   3.931   4.950   0.334  0.2277  0.3272 -0.4965
  302MOL0     C40688   5.160   5.095  -0.263 -0.4791 -0.5814 -0.5424
  302MOL0     C40689   5.294   5.100  -0.232 -0.2382  0.4364  0.2826
  302MOL0     C40690   5.700   4.932  -0.057 -0.1337  0.4779 -0.4848
  302MOL0     C40691   5.762   5.009  -0.159  0.0978  0.9547  0.8893
  302MOL0     C40692   5.901   5.005  -0.186 -0.0794  0.0063 -0.3308
  302MOL0     C40693   5.984   4.925  -0.106 -1.2375 -0.0009  0.3400
  302MOL0     O40694   6.120   4.929  -0.135 -0.2738 -0.1885  0.0443
  302MOL0     C40695   6.215   4.826  -0.101  0.0950  0.2254 -0.7517
  302MOL0     C40696   6.278   4.851   0.038 -0.4198  0.0354  1.0172
  302MOL0     C40697   6.407   4.774   0.063 -0.2988 -0.0372 -0.2595
  302MOL0     C40698   6.530   4.846   0.016 -0.0446  0.2058 -0.1732
  302MOL0     C40699   6.659   4.782   0.068  0.3112 -0.6273 -0.1203
  302MOL0     C40700   6.755   4.735   0.117 -0.0276  0.0010 -0.1140
  302MOL0     C40701   5.921   4.864   0.004 -0.5713 -0.0482 -0.4316
  302MOL0     C40702   5.791   4.872   0.031  0.2803 -0.0640 -1.1192
  302MOL0     H40703   5.324   4.781  -0.108  1.9994  1.2958  0.4490
  302MOL0     H40704   5.096   4.771  -0.177 -0.7021 -0.1323  3.2942
  302MOL0     H40705   4.852   4.815  -0.191  2.2219 -0.7437  0.5700
  302MOL0     H40706   4.885   4.924  -0.055  3.7836 -1.8904 -0.1903
  302MOL0     H40707   4.712   5.074  -0.187  2.6972 -0.4419  1.8264
  302MOL0     H40708   4.676   4.920  -0.270  0.9850 -0.0971 -0.2412
  302MOL0     H40709   4.609   4.818  -0.059 -1.3902  0.4728  0.9640
  302MOL0     H40710   4.644   4.963   0.026  1.5771 -1.0455  0.2528
  302MOL0     H40711   4.446   5.074  -0.070  1.9795  0.2921 -1.2620
  302MOL0     H40712   4.428   4.945  -0.194 -0.2263  2.5763 -0.3987
  302MOL0     H40713   4.361   4.790  -0.003  1.9905 -0.6745  0.5778
  302MOL0     H40714   4.358   4.929   0.110 -2.6113 -1.3358  0.4733
  302MOL0     H40715   4.229   5.046  -0.067  0.3624  0.4169  2.0801
  302MOL0     H40716   4.201   4.889  -0.143  2.4348  0.2265 -1.2258
  302MOL0     H40717   4.035   4.831  -0.001 -2.6784  2.5861  1.2664
  302MOL0     H40718   4.151   4.824   0.133  2.8616 -0.5000 -0.9831
  302MOL0     H40719   3.996   5.060   0.041 -0.6768 -2.0410 -1.7596
  302MOL0     H40720   4.108   5.056   0.175  1.0751 -0.9413 -1.7026
  302MOL0     H40721   3.794   4.837   0.052 -2.1274  3.8729 -1.5970
  302MOL0     H40722   3.659   4.639   0.269 -2.6917 -1.8388  2.1935
  302MOL0     H40723   3.609   4.756   0.393  1.1570  1.4351  0.0494
  302MOL0     H40724   3.551   4.772   0.103 -0.0558  2.5947 -1.2307
  302MOL0     H40725   3.538   4.917   0.200 -0.0931  0.0271  1.7400
  302MOL0     H40726   3.383   4.802   0.357  2.5952 -0.5265  0.3605
  302MOL0     H40727   3.381   4.658   0.250  1.3251  0.2936  0.8277
  302MOL0     H40728   3.244   4.754   0.113  2.7266 -1.1413  1.2283
  302MOL0     H40729   3.342   4.897   0.103  1.9013 -0.8858  2.2324
  302MOL0     H40730   2.986   5.053   0.202 -1.6250 -1.0939 -2.7237
  302MOL0     H40731   2.641   4.981   0.234  0.0439 -1.4298 -1.3381
  302MOL0     H40732   2.761   5.088   0.156  0.1858  0.7642  0.6937
  302MOL0     H40733   2.694   4.940   0.072 -0.9249 -0.8107  0.4669
  302MOL0     H40734   2.409   4.724   0.173  3.4980  3.3574  1.6252
  302MOL0     H40735   2.153   4.683   0.231 -0.7184  0.6173 -0.3526
  302MOL0     H40736   2.022   4.477   0.571 -2.8354 -1.0477 -0.0412
  302MOL0     H40737   2.063   4.628   0.655 -1.5444 -3.3637  3.9618
  302MOL0     H40738   1.799   4.538   0.515 -0.2369  2.1646 -0.9183
  302MOL0     H40739   1.832   4.598   0.683  1.1190 -0.6967  0.7016
  302MOL0     H40740   1.834   4.756   0.426  0.5402  0.0562 -0.7349
  302MOL0     H40741   1.846   4.840   0.574  2.5535 -0.2660 -0.9330
  302MOL0     H40742   1.611   4.778   0.427  0.9730  0.9163  0.2214
  302MOL0     H40743   1.606   4.656   0.544 -2.7145  1.7600  0.1901
  302MOL0     H40744   1.625   4.956   0.596 -0.7883 -0.2510 -1.7525
  302MOL0     H40745   1.665   4.835   0.720  2.1534 -0.4209 -1.6359
  302MOL0     H40746   1.398   4.893   0.567  0.6936 -0.2692 -1.0576
  302MOL0     H40747   1.416   4.739   0.665 -0.7272  0.7054 -1.7916
  302MOL0     H40748   1.311   4.979   0.740 -0.1408  2.1502 -0.1185
  302MOL0     H40749   1.482   5.015   0.778  0.8126 -0.6407 -1.4346
  302MOL0     H40750   1.506   4.795   0.901  1.0604  2.0907 -2.0556
  302MOL0     H40751   1.328   4.769   0.896 -0.5597  0.6887  1.6882
  302MOL0     H40752   2.258   4.611   0.628  3.0264  1.1582  0.9844
  302MOL0     H40753   2.493   4.611   0.587  1.5366 -0.3732 -1.9721
  302MOL0     H40754   2.884   4.584   0.314  0.5390  0.7958  1.2384
  302MOL0     H40755   3.122   4.663   0.317  0.0111 -1.0477 -3.9195
  302MOL0     H40756   5.119   5.186  -0.307  0.5073 -0.9880 -2.4094
  302MOL0     H40757   5.347   5.191  -0.256 -1.3087  0.1163 -4.0809
  302MOL0     H40758   5.707   5.068  -0.232  0.9960 -1.1574 -1.6567
  302MOL0     H40759   5.952   5.068  -0.258  1.8831  0.1486  1.0919
  302MOL0     H40760   6.172   4.725  -0.097  1.5588 -0.3776  1.2629
  302MOL0     H40761   6.294   4.814  -0.176 -1.2750 -1.7977 -1.9762
  302MOL0     H40762   6.204   4.818   0.112  2.4830 -2.0398  3.2197
  302MOL0     H40763   6.299   4.957   0.055 -0.8328  0.2811  0.0879
  302MOL0     H40764   6.394   4.674   0.020  0.8316 -0.9351  1.3617
  302MOL0     H40765   6.417   4.769   0.172 -0.9562 -0.3396 -0.2099
  302MOL0     H40766   6.523   4.953   0.034 -1.4758 -0.0759  1.1543
  302MOL0     H40767   6.532   4.830  -0.092  0.0231  0.0518 -0.1494
  302MOL0     H40768   6.842   4.693   0.164 -0.2146 -2.1278 -1.5621
  302MOL0     H40769   5.984   4.808   0.073 -0.9906  0.4222  0.3468
  302MOL0     H40770   5.751   4.818   0.116 -0.9616  2.3690 -0.0579
  303MOL0     O40771   4.487   0.239   9.559 -0.4535  0.5990 -0.5010
  303MOL0     C40772   4.409   0.318   9.609 -0.8911 -0.9281 -0.6252
  303MOL0     O40773   4.443   0.420   9.690 -0.3903 -0.3341 -0.8347
  303MOL0     C40774   4.569   0.439   9.736 -0.3364 -0.5325 -0.4557
  303MOL0     C40775   4.641   0.332   9.797 -0.9438  0.2913 -0.5968
  303MOL0     C40776   4.769   0.349   9.853 -0.0624 -0.1345 -0.5554
  303MOL0     C40777   4.822   0.476   9.863 -0.1330 -0.1616 -0.6307
  303MOL0     O40778   4.938   0.506   9.921  0.3617 -0.1676  0.1960
  303MOL0     C40779   5.049   0.424   9.906 -0.8979  0.2998  0.5095
  303MOL0     C40780   5.066   0.328  10.030  0.1302 -0.4820 -0.2472
  303MOL0     C40781   5.188   0.237  10.017  0.8362 -0.1760  0.6602
  303MOL0     C40782   5.208   0.145  10.140 -0.8489 -0.8552 -0.5319
  303MOL0     C40783   5.335   0.056  10.108 -0.4581  0.5603 -0.4861
  303MOL0     C40784   5.471   0.122  10.122 -0.6499  0.7241 -0.4323
  303MOL0     C40785   5.580   0.020  10.093 -0.1524  0.9595  0.1989
  303MOL0     C40786   5.725   0.055  10.128  1.2903 -0.0828 -0.2491
  303MOL0     N40787   5.820  -0.045  10.089 -0.1356 -0.0340  0.1056
  303MOL0     C40788   5.876  -0.131  10.178  0.4453  0.5866  0.4698
  303MOL0     C40789   5.993  -0.171  10.111  0.6660  0.0377 -0.0524
  303MOL0     C40790   6.093  -0.262  10.162 -0.0264  0.3351  0.0752
  303MOL0     C40791   6.045  -0.407  10.142  0.1436 -0.2378  0.1892
  303MOL0     C40792   5.948  -0.462  10.259 -0.1163 -0.0318  0.1227
  303MOL0     C40793   5.894  -0.599  10.216 -1.1332 -0.4584  0.2877
  303MOL0     O40794   5.846  -0.598  10.076 -0.7305 -0.4940 -0.4983
  303MOL0     C40795   5.711  -0.577  10.059 -0.5293 -0.2051  0.0936
  303MOL0     C40796   5.626  -0.525  10.156 -0.3664 -0.4120  0.2764
  303MOL0     C40797   5.489  -0.493  10.134 -0.6989 -0.0985 -0.9579
  303MOL0     C40798   5.419  -0.425  10.241  0.5809 -0.0716  0.4204
  303MOL0     C40799   5.430  -0.532  10.012  0.5350  0.1999 -0.4580
  303MOL0     C40800   5.283  -0.520   9.985  0.0599 -1.4775 -0.4035
  303MOL0     O40801   5.245  -0.560   9.859  0.5432 -0.1937 -0.0301
  303MOL0     C40802   5.116  -0.543   9.816  0.0509  0.4366  0.0854
  303MOL0     C40803   5.076  -0.450   9.725 -0.6129  0.0332  0.1207
  303MOL0     C40804   4.945  -0.432   9.678 -0.1664 -1.1468 -0.2110
  303MOL0     C40805   4.839  -0.513   9.731  0.1191 -0.7685  0.2225
  303MOL0     O40806   4.709  -0.489   9.683 -1.0067 -0.1552 -0.0264
  303MOL0     C40807   4.604  -0.562   9.745  0.6016  0.7980  0.2456
  303MOL0     C40808   4.468  -0.542   9.662  0.3073  0.0654 -0.7895
  303MOL0     C40809   4.346  -0.626   9.709 -0.9496 -0.0088 -0.3605
  303MOL0     C40810   4.219  -0.593   9.626  0.3504  0.2981 -0.0274
  303MOL0     C40811   4.096  -0.670   9.687 -0.1423 -0.3915  0.2811
  303MOL0     C40812   3.983  -0.672   9.584 -0.0242  1.0686  0.2220
  303MOL0     C40813   3.856  -0.741   9.638  0.0609 -0.9789  0.4755
  303MOL0     C40814   3.839  -0.892   9.615 -0.0687  0.3165 -0.1041
  303MOL0    Cl40815   3.916  -0.996   9.745 -0.0045 -0.3285 -0.0242
  303MOL0     C40816   4.881  -0.613   9.823  0.3394 -0.8281 -0.1720
  303MOL0     C40817   5.017  -0.636   9.855  0.1480  0.2496  0.2719
  303MOL0     O40818   5.202  -0.468  10.065 -0.5434  0.1213  0.1857
  303MOL0     C40819   5.518  -0.592   9.914 -0.3761 -0.7071  0.3472
  303MOL0     C40820   5.653  -0.612   9.935 -0.2807 -0.3571 -0.5290
  303MOL0     N40821   6.006  -0.101   9.990 -0.8325 -0.5603 -0.4300
  303MOL0     N40822   5.904  -0.027   9.978  0.3949  0.5628 -0.8081
  303MOL0     C40823   4.744   0.583   9.825  0.3799  0.1857 -0.6056
  303MOL0     C40824   4.625   0.564   9.759  0.0603 -0.4335 -0.5152
  303MOL0     C40825   4.266   0.300   9.592  0.2081  0.4312  0.3535
  303MOL0     C40826   4.207   0.188   9.524  0.7841  0.6366 -0.7267
  303MOL0     C40827   4.076   0.173   9.486 -0.1443  0.8833  0.4687
  303MOL0     C40828   3.990   0.281   9.520  0.2073 -1.3007 -0.1626
  303MOL0     O40829   3.852   0.280   9.507 -0.1722  0.4922 -0.8486
  303MOL0     C40830   3.781   0.156   9.461  0.2770 -0.6625 -0.0829
  303MOL0     C40831   3.649   0.185   9.407  0.6270 -0.3045 -0.3429
  303MOL0     C40832   3.563   0.064   9.373 -0.0748  0.0101  1.3810
  303MOL0     C40833   3.443   0.112   9.285  0.4444  0.3107  0.1908
  303MOL0     C40834   3.387   0.003   9.196 -0.2070  0.4229 -0.5201
  303MOL0     C40835   3.352  -0.101   9.139  0.3655 -0.1788  0.4836
  303MOL0     C40836   4.043   0.395   9.581  1.0510  0.4758  0.0106
  303MOL0     C40837   4.178   0.410   9.618  0.8948 -0.0459  0.4960
  303MOL0     H40838   4.603   0.230   9.799  1.9422 -0.9179  2.7842
  303MOL0     H40839   4.830   0.264   9.879  0.9181  0.4603 -0.8643
  303MOL0     H40840   5.067   0.370   9.813  1.4470 -0.1295  1.1410
  303MOL0     H40841   5.140   0.485   9.914 -0.4493 -0.3519  0.4790
  303MOL0     H40842   5.075   0.394  10.117  1.7805  1.0639 -1.5143
  303MOL0     H40843   4.967   0.282  10.038 -0.7730  0.5431 -3.8929
  303MOL0     H40844   5.166   0.178   9.928  3.9124  0.6531 -0.7688
  303MOL0     H40845   5.282   0.290  10.001  3.0059 -3.1440  2.5781
  303MOL0     H40846   5.231   0.200  10.232 -0.6370  0.0892 -1.1380
  303MOL0     H40847   5.114   0.093  10.161 -0.8499  0.2227  2.6238
  303MOL0     H40848   5.336  -0.023  10.184  1.3851  0.9477 -0.0651
  303MOL0     H40849   5.320  -0.007  10.020 -1.1382 -3.5152  2.2908
  303MOL0     H40850   5.485   0.207  10.054  1.3855  0.4092 -0.4677
  303MOL0     H40851   5.472   0.157  10.226 -0.6469  0.7044 -0.4263
  303MOL0     H40852   5.560  -0.065  10.159  1.4298 -0.3933 -0.9928
  303MOL0     H40853   5.572  -0.006   9.987  0.3347 -0.1779  0.4234
  303MOL0     H40854   5.730   0.081  10.234  2.8655  0.1295 -0.3594
  303MOL0     H40855   5.751   0.152  10.084 -0.6238 -0.0720 -1.4778
  303MOL0     H40856   5.831  -0.141  10.276 -2.1159  0.5365 -0.6080
  303MOL0     H40857   6.174  -0.262  10.089  1.5685 -0.1328  1.7576
  303MOL0     H40858   6.131  -0.240  10.262  0.5012 -1.6560  0.3381
  303MOL0     H40859   6.125  -0.480  10.153 -0.5720 -1.0745 -0.0250
  303MOL0     H40860   6.003  -0.419  10.042  2.3719 -0.5329 -0.7675
  303MOL0     H40861   5.864  -0.392  10.264  0.3049  0.6738 -1.8046
  303MOL0     H40862   6.006  -0.468  10.352  0.9067  4.4744  0.0035
  303MOL0     H40863   5.822  -0.629  10.292  1.4755  0.7652  3.4872
  303MOL0     H40864   5.970  -0.676  10.232 -1.9039 -1.2158  0.3509
  303MOL0     H40865   5.664  -0.487  10.250 -0.7628 -0.1055  0.3131
  303MOL0     H40866   5.483  -0.395  10.325  0.7111 -0.9013  0.6252
  303MOL0     H40867   5.375  -0.331  10.206  1.8320 -0.1347 -1.4529
  303MOL0     H40868   5.343  -0.491  10.283  0.3963 -1.8783 -2.4877
  303MOL0     H40869   5.157  -0.389   9.688 -0.2360  0.1330  1.0717
  303MOL0     H40870   4.914  -0.355   9.608 -2.0866 -2.8550 -1.3832
  303MOL0     H40871   4.625  -0.665   9.774  0.3670  1.0023  1.1716
  303MOL0     H40872   4.579  -0.518   9.842 -2.5612  0.8176 -0.4532
  303MOL0     H40873   4.438  -0.436   9.666  2.0082  0.6265 -1.9326
  303MOL0     H40874   4.477  -0.574   9.558 -2.5085  0.6573 -1.2962
  303MOL0     H40875   4.330  -0.607   9.815  0.0435 -1.8839  0.1648
  303MOL0     H40876   4.364  -0.734   9.702 -0.7670 -0.0695  0.8986
  303MOL0     H40877   4.210  -0.485   9.608  1.2515  0.1991 -1.2084
  303MOL0     H40878   4.221  -0.641   9.528 -1.4162 -1.8125  0.8956
  303MOL0     H40879   4.058  -0.636   9.784 -0.2170 -1.3585  0.6003
  303MOL0     H40880   4.125  -0.775   9.693  2.0215  0.1566  0.3630
  303MOL0     H40881   3.961  -0.569   9.555  0.5482  0.5119 -2.4957
  303MOL0     H40882   4.025  -0.720   9.495  1.9940  1.5392  0.8774
  303MOL0     H40883   3.774  -0.684   9.593  1.2810 -0.1135 -0.7427
  303MOL0     H40884   3.836  -0.703   9.738 -1.5585  1.5613 -0.7079
  303MOL0     H40885   3.872  -0.921   9.514  0.3827 -0.5109  0.2713
  303MOL0     H40886   3.735  -0.925   9.616  0.2382 -1.0655 -2.8910
  303MOL0     H40887   4.804  -0.678   9.864 -0.3110  0.9367  1.5810
  303MOL0     H40888   5.043  -0.714   9.926  3.2869  0.7251 -0.2091
  303MOL0     H40889   5.486  -0.627   9.816  1.1169 -0.3159 -0.3023
  303MOL0     H40890   5.728  -0.649   9.866  1.7230  0.1247  1.2686
  303MOL0     H40891   4.785   0.683   9.832 -1.0701  0.7730 -0.1316
  303MOL0     H40892   4.575   0.654   9.725 -1.2877 -0.0982  2.0661
  303MOL0     H40893   4.271   0.105   9.495 -1.4112 -1.0516 -0.9874
  303MOL0     H40894   4.040   0.083   9.438 -4.4119  3.8805 -2.7097
  303MOL0     H40895   3.841   0.106   9.384  0.7670  2.1067 -1.6088
  303MOL0     H40896   3.767   0.094   9.551  1.4162 -0.0360  0.5482
  303MOL0     H40897   3.649   0.256   9.325  1.1348 -1.7343 -1.6175
  303MOL0     H40898   3.572   0.226   9.474 -1.3658 -2.9162 -0.8397
  303MOL0     H40899   3.531   0.015   9.465 -1.0762 -0.3906  0.8402
  303MOL0     H40900   3.622  -0.006   9.312 -0.1810 -0.0873  1.3894
  303MOL0     H40901   3.460   0.199   9.220 -1.0013  2.3285  2.3100
  303MOL0     H40902   3.365   0.143   9.356  1.3334 -1.4422  2.0352
  303MOL0     H40903   3.327  -0.187   9.080 -1.7916  0.0040  1.0690
  303MOL0     H40904   3.972   0.474   9.604  0.8143  0.5931 -1.0590
  303MOL0     H40905   4.207   0.503   9.665 -1.3703  0.7202  0.5008
  304MOL0     O40906   8.262   2.040   1.225 -0.2850  0.6530 -0.2639
  304MOL0     C40907   8.316   2.035   1.123  0.0308  0.5714  0.3573
  304MOL0     O40908   8.280   2.084   0.996  0.4384  0.7721 -0.7000
  304MOL0     C40909   8.163   2.149   0.962 -0.2862 -0.7402 -0.4475
  304MOL0     C40910   8.160   2.200   0.835 -0.1323 -0.2526 -0.5942
  304MOL0     C40911   8.049   2.267   0.788  0.4805  0.0290  0.3345
  304MOL0     C40912   7.941   2.277   0.866  0.3710  0.3446 -0.4716
  304MOL0     O40913   7.827   2.342   0.836 -0.7169  0.1078  0.0923
  304MOL0     C40914   7.795   2.338   0.691 -0.0511  0.3744  0.4087
  304MOL0     C40915   7.662   2.259   0.683  0.2344  0.2395  0.6731
  304MOL0     C40916   7.537   2.325   0.748  0.6137  0.5822 -0.0651
  304MOL0     C40917   7.409   2.231   0.725 -0.0259 -0.0871  0.1404
  304MOL0     C40918   7.284   2.304   0.778 -0.2551  0.2219  0.1280
  304MOL0     C40919   7.237   2.433   0.708 -0.1552  0.9596  0.6243
  304MOL0     C40920   7.238   2.439   0.558  0.2276  1.0781  0.7422
  304MOL0     C40921   7.145   2.337   0.498 -0.6460 -0.5015 -0.3309
  304MOL0     N40922   7.012   2.350   0.546 -0.4103  1.2686  0.3938
  304MOL0     C40923   6.937   2.461   0.530 -0.0505 -0.5234  0.4636
  304MOL0     C40924   6.834   2.446   0.619  0.5974  0.6592 -0.0755
  304MOL0     C40925   6.716   2.532   0.664  0.3089 -0.6826 -0.3086
  304MOL0     C40926   6.586   2.449   0.651 -0.3274  0.5041 -0.6309
  304MOL0     C40927   6.464   2.526   0.693 -1.0299  0.2928 -0.4671
  304MOL0     C40928   6.341   2.432   0.687 -0.0933 -0.8720  0.0597
  304MOL0     O40929   6.223   2.509   0.707  0.2364  0.1897 -0.0993
  304MOL0     C40930   6.098   2.454   0.677 -0.1701  0.2569 -0.7102
  304MOL0     C40931   5.988   2.542   0.675 -0.2477  0.0199  0.3269
  304MOL0     C40932   5.862   2.488   0.661 -0.2115  0.7879  0.7631
  304MOL0     C40933   5.753   2.594   0.666  0.1136  0.1050 -1.4388
  304MOL0     C40934   5.837   2.346   0.667 -0.1343  0.4724  0.8198
  304MOL0     C40935   5.694   2.286   0.660  0.2339 -0.1068  0.3127
  304MOL0     O40936   5.585   2.376   0.628 -0.2297  0.1392 -0.1554
  304MOL0     C40937   5.458   2.335   0.608  0.3388  0.9441  0.3565
  304MOL0     C40938   5.349   2.424   0.618  0.1933 -0.3349  1.1900
  304MOL0     C40939   5.220   2.391   0.577  0.1521 -0.1301 -0.2062
  304MOL0     C40940   5.200   2.270   0.510  0.7490 -0.4112  0.2449
  304MOL0     O40941   5.081   2.231   0.461  0.5858 -0.5271 -0.0019
  304MOL0     C40942   4.974   2.320   0.417  0.6620 -0.4064 -1.0863
  304MOL0     C40943   4.860   2.229   0.360  0.2159 -0.6398 -0.5683
  304MOL0     C40944   4.743   2.318   0.324  0.3276 -0.4481  0.1977
  304MOL0     C40945   4.644   2.237   0.237 -0.2175 -0.2607  0.2234
  304MOL0     C40946   4.521   2.314   0.209  0.5465 -1.3400  0.4975
  304MOL0     C40947   4.542   2.455   0.157 -0.0462  0.0399 -0.1394
  304MOL0     C40948   4.414   2.506   0.092 -0.0633  0.3810  0.3519
  304MOL0     C40949   4.303   2.573   0.186  0.2043  0.4410  0.4925
  304MOL0    Cl40950   4.211   2.454   0.275  0.2467 -0.5431 -0.4122
  304MOL0     C40951   5.305   2.178   0.492  0.3446 -0.8405  0.2188
  304MOL0     C40952   5.432   2.213   0.530 -0.2012  0.2242 -0.4847
  304MOL0     O40953   5.680   2.166   0.678  0.9671  0.6978 -0.4625
  304MOL0     C40954   5.946   2.262   0.679 -0.0227  0.8670 -0.4170
  304MOL0     C40955   6.075   2.319   0.693  0.8418  0.7516 -0.1263
  304MOL0     N40956   6.847   2.321   0.672 -0.5049  0.2993  0.8849
  304MOL0     N40957   6.953   2.267   0.634 -0.6665  0.4192  0.0287
  304MOL0     C40958   7.942   2.224   0.990  0.0892  0.3033 -0.3569
  304MOL0     C40959   8.048   2.149   1.043 -0.4189 -0.2891  1.0236
  304MOL0     C40960   8.443   1.960   1.125 -0.6004  0.3726  0.1169
  304MOL0     C40961   8.499   1.906   1.243 -0.0074 -0.3234 -0.3601
  304MOL0     C40962   8.622   1.850   1.257  0.1891  1.1399  0.4552
  304MOL0     C40963   8.695   1.838   1.134 -0.4411  0.6596  0.7205
  304MOL0     O40964   8.811   1.773   1.128 -0.8056  0.4740 -0.8413
  304MOL0     C40965   8.928   1.848   1.133 -0.0485  0.2339  0.6619
  304MOL0     C40966   9.020   1.778   1.025 -0.1423  0.6089 -0.4895
  304MOL0     C40967   9.103   1.654   1.085  0.2430 -0.6100  0.2567
  304MOL0     C40968   9.226   1.705   1.155  0.2137 -0.0662 -0.2411
  304MOL0     C40969   9.335   1.617   1.191  0.7384  0.0187  1.2009
  304MOL0     C40970   9.426   1.552   1.218 -0.3440  0.5922  0.7871
  304MOL0     C40971   8.649   1.900   1.015  0.4967 -0.2176 -0.3339
  304MOL0     C40972   8.518   1.957   1.008  0.4936  0.3332  0.0010
  304MOL0     H40973   8.250   2.205   0.775 -0.4441 -0.1958 -1.0621
  304MOL0     H40974   8.045   2.311   0.689  2.0958  1.1558  0.7370
  304MOL0     H40975   7.780   2.432   0.636 -0.8251  0.2258  0.3581
  304MOL0     H40976   7.866   2.277   0.634  0.1926  0.7912  0.2544
  304MOL0     H40977   7.647   2.227   0.579  2.1318  0.7494  0.1996
  304MOL0     H40978   7.679   2.167   0.740  1.8347  1.8743  3.0191
  304MOL0     H40979   7.552   2.345   0.854  0.3148  0.9440 -0.0859
  304MOL0     H40980   7.516   2.422   0.700  1.1132  0.2881 -0.8963
  304MOL0     H40981   7.393   2.212   0.618 -0.1825 -2.2952  0.5089
  304MOL0     H40982   7.422   2.133   0.771 -1.1793 -0.9370 -1.2649
  304MOL0     H40983   7.198   2.237   0.787  1.6179 -2.1380  1.8401
  304MOL0     H40984   7.301   2.340   0.880 -0.1652 -1.6318  0.8063
  304MOL0     H40985   7.138   2.465   0.742 -0.2858 -0.0414  1.2363
  304MOL0     H40986   7.305   2.508   0.748 -1.0341  0.3498  3.5070
  304MOL0     H40987   7.204   2.533   0.514 -1.4573 -0.5680 -1.7726
  304MOL0     H40988   7.335   2.425   0.511  0.2359 -0.2999  1.1202
  304MOL0     H40989   7.196   2.241   0.508  2.0449  0.7084 -1.4177
  304MOL0     H40990   7.141   2.360   0.391  0.2141 -0.4739 -0.3596
  304MOL0     H40991   6.955   2.556   0.482  0.8470 -1.1886 -0.5681
  304MOL0     H40992   6.719   2.562   0.769 -1.3731 -1.3094 -0.0496
  304MOL0     H40993   6.717   2.623   0.603 -0.5916  0.1668  0.9035
  304MOL0     H40994   6.601   2.353   0.701  0.1676  0.9982  0.1904
  304MOL0     H40995   6.582   2.435   0.542  0.2993 -0.7525 -0.5081
  304MOL0     H40996   6.437   2.616   0.637 -1.2875  1.1994  1.0361
  304MOL0     H40997   6.477   2.559   0.797 -1.4793  1.2606 -0.7065
  304MOL0     H40998   6.364   2.359   0.764  1.9265  0.3549  0.7006
  304MOL0     H40999   6.340   2.378   0.592 -0.3832 -1.3542  0.3327
  304MOL0     H41000   6.027   2.642   0.685  3.4063 -1.0743 -1.0958
  304MOL0     H41001   5.684   2.567   0.746  0.9721  1.7730 -0.0764
  304MOL0     H41002   5.786   2.691   0.703 -1.4544  1.2399 -2.8752
  304MOL0     H41003   5.707   2.597   0.566  0.6762  0.4815 -1.6901
  304MOL0     H41004   5.372   2.521   0.661  1.3183 -0.2136  0.3544
  304MOL0     H41005   5.136   2.454   0.602 -0.2074 -0.9163  0.6228
  304MOL0     H41006   4.941   2.366   0.510  3.4838 -1.8139  0.7486
  304MOL0     H41007   5.012   2.405   0.358  3.7341  1.8459  3.5504
  304MOL0     H41008   4.902   2.164   0.283 -0.1534 -0.5780 -0.8233
  304MOL0     H41009   4.837   2.164   0.445 -0.2988  1.2147  0.7766
  304MOL0     H41010   4.771   2.411   0.273  0.9791  0.8559  2.7263
  304MOL0     H41011   4.702   2.351   0.420  0.2238  0.2614 -0.0890
  304MOL0     H41012   4.688   2.208   0.141  0.6414 -2.9383  1.3260
  304MOL0     H41013   4.618   2.146   0.292  0.4095  0.0603  1.0553
  304MOL0     H41014   4.459   2.331   0.298 -0.7309 -0.3409 -0.5371
  304MOL0     H41015   4.463   2.257   0.135 -1.6701  0.0951  1.0400
  304MOL0     H41016   4.552   2.519   0.245 -0.8091 -1.6341  1.2466
  304MOL0     H41017   4.631   2.475   0.097 -1.1812  2.6915 -1.0466
  304MOL0     H41018   4.372   2.440   0.015 -1.1126  1.3128  0.1171
  304MOL0     H41019   4.447   2.587   0.026  0.1353 -0.1805 -0.2502
  304MOL0     H41020   4.223   2.632   0.140  0.2188 -1.6167 -2.4013
  304MOL0     H41021   4.346   2.644   0.257 -3.3001  0.1944  3.1592
  304MOL0     H41022   5.275   2.084   0.447 -2.1450  0.9155 -2.0396
  304MOL0     H41023   5.514   2.152   0.495  1.4817  1.9843  0.2520
  304MOL0     H41024   5.948   2.154   0.690  0.1833  0.8473 -0.6353
  304MOL0     H41025   6.157   2.254   0.722  1.2548  1.8631  1.3390
  304MOL0     H41026   7.860   2.239   1.060 -0.5519 -1.4550 -0.6951
  304MOL0     H41027   8.050   2.102   1.141  1.4615 -0.1411  1.0996
  304MOL0     H41028   8.445   1.914   1.337  5.4649  1.7957  3.0913
  304MOL0     H41029   8.658   1.816   1.353  1.4568 -0.4380 -0.5028
  304MOL0     H41030   8.901   1.950   1.104 -0.8364  0.2109  1.2861
  304MOL0     H41031   8.945   1.839   1.241 -1.3877  0.8947  0.9510
  304MOL0     H41032   9.084   1.854   0.979 -1.8994  3.3415  1.3222
  304MOL0     H41033   8.955   1.740   0.946  2.7159  1.5195 -3.5087
  304MOL0     H41034   9.143   1.595   1.003 -0.3626  1.1222 -1.3705
  304MOL0     H41035   9.047   1.582   1.146  3.7095 -1.8990  2.1652
  304MOL0     H41036   9.193   1.751   1.249  0.7470  0.7611 -0.4507
  304MOL0     H41037   9.276   1.786   1.101  2.4203 -1.3732 -0.2939
  304MOL0     H41038   9.524   1.515   1.240 -0.9112 -0.2798  1.9922
  304MOL0     H41039   8.714   1.893   0.928  2.6572  0.4043  1.1339
  304MOL0     H41040   8.492   2.008   0.916  1.3118  0.6942 -0.0391
  305MOL0     O41041   8.470   9.964   4.772  1.0234 -0.9040  0.2507
  305MOL0     C41042   8.491  10.016   4.880 -0.1798 -0.4909 -0.1305
  305MOL0     O41043   8.615  10.036   4.929  0.2926  0.2200  0.2408
  305MOL0     C41044   8.721   9.980   4.864  0.5905 -1.1333 -0.0882
  305MOL0     C41045   8.809   9.903   4.947  1.0658  0.2890 -0.0011
  305MOL0     C41046   8.930   9.851   4.894 -0.8191 -0.1913  0.1819
  305MOL0     C41047   8.959   9.867   4.749  0.5125 -0.0352 -0.4257
  305MOL0     O41048   9.067   9.814   4.689 -0.6592  0.2727  0.1565
  305MOL0     C41049   9.156   9.749   4.775  0.1561  1.0174  0.8715
  305MOL0     C41050   9.268   9.675   4.705  0.5982 -0.6295 -0.4013
  305MOL0     C41051   9.213   9.547   4.645 -0.9016 -0.1388 -0.3925
  305MOL0     C41052   9.328   9.485   4.562  0.3488 -0.5848 -0.7848
  305MOL0     C41053   9.312   9.349   4.489  0.0186 -0.4402  0.5767
  305MOL0     C41054   9.399   9.332   4.364 -0.0643 -0.4966  0.4732
  305MOL0     C41055   9.367   9.205   4.287 -0.1112 -0.4479  0.1689
  305MOL0     C41056   9.222   9.210   4.232 -0.2467 -0.3613  0.0494
  305MOL0     N41057   9.212   9.098   4.141 -0.2416  0.1551  0.1280
  305MOL0     C41058   9.189   8.968   4.180  0.4172 -0.2467 -0.4691
  305MOL0     C41059   9.154   8.901   4.060 -0.1978  0.1464 -0.0799
  305MOL0     C41060   9.106   8.761   4.055  0.4083  0.1721 -0.0105
  305MOL0     C41061   8.959   8.740   4.062  0.6395 -0.0776 -0.2693
  305MOL0     C41062   8.881   8.812   3.953  0.1363 -0.2130 -0.0644
  305MOL0     C41063   8.731   8.764   3.954 -0.1548  0.3023 -0.4281
  305MOL0     O41064   8.657   8.870   3.892  0.1003 -0.2555 -0.2357
  305MOL0     C41065   8.526   8.833   3.858  0.2450 -0.4004 -0.2223
  305MOL0     C41066   8.451   8.720   3.904  0.7360 -0.8220 -0.1832
  305MOL0     C41067   8.304   8.720   3.892 -0.2679 -0.0317 -0.3135
  305MOL0     C41068   8.233   8.605   3.963 -0.4600 -0.1969 -0.6438
  305MOL0     C41069   8.245   8.807   3.800  0.4288 -0.2052 -0.5623
  305MOL0     C41070   8.103   8.804   3.768 -0.2445 -0.3727 -0.5604
  305MOL0     O41071   8.078   8.838   3.647 -1.0229  0.0120 -0.2658
  305MOL0     C41072   7.951   8.836   3.607 -0.1760 -0.2432 -0.5685
  305MOL0     C41073   7.846   8.908   3.669 -0.1508  0.2737  0.3236
  305MOL0     C41074   7.712   8.886   3.618 -0.2817  0.0465  0.0947
  305MOL0     C41075   7.690   8.797   3.511  0.5370 -0.1420 -0.2829
  305MOL0     O41076   7.566   8.759   3.465  0.4840 -0.5840 -0.4579
  305MOL0     C41077   7.454   8.844   3.498 -0.0179 -0.9484  0.6611
  305MOL0     C41078   7.336   8.778   3.427  0.4535 -1.1451 -0.4254
  305MOL0     C41079   7.212   8.880   3.436 -0.2736 -0.7693 -0.2998
  305MOL0     C41080   7.097   8.810   3.361  0.4704  0.1374 -0.5844
  305MOL0     C41081   6.978   8.897   3.355 -0.1953  0.2420  0.4295
  305MOL0     C41082   6.856   8.840   3.280  0.4652 -0.3281  0.4353
  305MOL0     C41083   6.727   8.896   3.329  0.5848 -0.4436 -0.5377
  305MOL0     C41084   6.610   8.802   3.276 -0.2452 -0.4691  0.8371
  305MOL0    Cl41085   6.457   8.882   3.329 -0.0649  0.1671 -0.0553
  305MOL0     C41086   7.800   8.733   3.454 -0.2502 -0.2107 -0.3018
  305MOL0     C41087   7.930   8.759   3.492  0.3161  0.1525  0.1434
  305MOL0     O41088   8.022   8.772   3.853 -0.0485 -0.5431  0.3349
  305MOL0     C41089   8.324   8.904   3.730  0.0370 -0.3048 -0.5087
  305MOL0     C41090   8.456   8.921   3.766 -0.0777 -0.0822  0.3232
  305MOL0     N41091   9.163   8.992   3.956  0.2676 -0.5975 -0.7074
  305MOL0     N41092   9.189   9.111   4.013  0.7917  0.3113  0.5202
  305MOL0     C41093   8.872   9.946   4.671  0.5372  0.7828 -0.3679
  305MOL0     C41094   8.759  10.005   4.731  0.3470  0.0405  0.3506
  305MOL0     C41095   8.388  10.098   4.950 -0.1155  0.7203 -0.9140
  305MOL0     C41096   8.270  10.131   4.884  0.4916  1.1811  0.1519
  305MOL0     C41097   8.168  10.201   4.949 -0.1069 -0.0715  0.7345
  305MOL0     C41098   8.177  10.227   5.082  0.5787 -0.5525  0.0450
  305MOL0     O41099   8.085  10.300   5.149 -0.2844 -0.6764 -0.0221
  305MOL0     C41100   7.956  10.249   5.123  0.6864  0.0323 -0.2154
  305MOL0     C41101   7.861  10.274   5.242  0.8974 -0.2822 -0.1056
  305MOL0     C41102   7.828  10.424   5.246  0.3071  0.9196  0.8613
  305MOL0     C41103   7.734  10.465   5.348 -0.2318 -0.4734 -0.1636
  305MOL0     C41104   7.601  10.408   5.329 -0.5620  0.4000 -0.8837
  305MOL0     C41105   7.489  10.363   5.335 -0.6255 -0.7228  0.4422
  305MOL0     C41106   8.299  10.205   5.143  0.6763 -0.3031  0.2279
  305MOL0     C41107   8.408  10.141   5.083  1.1683 -0.1461  0.1534
  305MOL0     H41108   8.779   9.881   5.049 -1.9855  1.3452 -0.5714
  305MOL0     H41109   8.995   9.803   4.966  0.4111  3.6290  1.9237
  305MOL0     H41110   9.207   9.814   4.846  0.2959  3.1366 -1.0387
  305MOL0     H41111   9.100   9.672   4.829  1.5636  0.5276  1.6875
  305MOL0     H41112   9.316   9.732   4.625  2.7739 -0.2489  1.0775
  305MOL0     H41113   9.346   9.655   4.780 -0.5387 -1.5474  0.5769
  305MOL0     H41114   9.184   9.478   4.725  2.5508 -2.2564 -0.7645
  305MOL0     H41115   9.126   9.568   4.582 -0.0402  1.8700 -1.0181
  305MOL0     H41116   9.352   9.553   4.479  2.9688 -1.7097 -1.0365
  305MOL0     H41117   9.417   9.472   4.624  0.0032 -0.9047 -0.3562
  305MOL0     H41118   9.318   9.269   4.563  0.8571 -0.7332  0.2095
  305MOL0     H41119   9.206   9.348   4.462 -0.3646 -0.9254  2.0035
  305MOL0     H41120   9.369   9.414   4.298 -1.7279 -1.9690 -0.6928
  305MOL0     H41121   9.507   9.342   4.383  0.1006  1.8352 -1.1778
  305MOL0     H41122   9.441   9.208   4.206 -2.0896 -0.8436 -1.7367
  305MOL0     H41123   9.390   9.118   4.349  1.5253  0.2310  0.5633
  305MOL0     H41124   9.207   9.303   4.176 -2.9412 -0.7673 -0.0409
  305MOL0     H41125   9.155   9.203   4.318  0.5866 -0.6042  0.6912
  305MOL0     H41126   9.200   8.928   4.280 -0.5612  1.1552  0.2289
  305MOL0     H41127   9.148   8.720   3.963  1.0625  1.2987 -0.2388
  305MOL0     H41128   9.154   8.699   4.131 -1.8783 -2.1079 -0.2690
  305MOL0     H41129   8.915   8.776   4.156 -3.1391 -2.8186 -0.7461
  305MOL0     H41130   8.937   8.633   4.061  0.7188 -0.1056  0.5748
  305MOL0     H41131   8.922   8.786   3.856 -0.6485 -4.1078  0.4791
  305MOL0     H41132   8.896   8.917   3.982 -2.0288 -0.1068  0.8569
  305MOL0     H41133   8.693   8.745   4.054  1.2159  2.2525  0.5293
  305MOL0     H41134   8.731   8.676   3.889 -0.0088  1.3360 -1.8922
  305MOL0     H41135   8.502   8.645   3.963  0.9675  0.1288  0.8669
  305MOL0     H41136   8.150   8.644   4.021  0.0569  0.9222 -0.6427
  305MOL0     H41137   8.201   8.528   3.891 -2.7500 -1.2301  1.3439
  305MOL0     H41138   8.307   8.554   4.025 -2.3087  0.8689  2.6576
  305MOL0     H41139   7.844   8.973   3.756  0.1446 -2.2815  2.3350
  305MOL0     H41140   7.629   8.945   3.654  0.6811  0.9672  0.8804
  305MOL0     H41141   7.454   8.844   3.607  2.6390 -0.2835  0.7366
  305MOL0     H41142   7.479   8.946   3.467 -2.1396  0.4258  3.1944
  305MOL0     H41143   7.356   8.743   3.325  2.1857 -2.6012  0.3554
  305MOL0     H41144   7.325   8.684   3.482  1.9385 -2.1968 -1.8393
  305MOL0     H41145   7.230   8.983   3.406 -2.5570  0.4076  2.0012
  305MOL0     H41146   7.189   8.884   3.543 -0.8147  1.3231 -0.4657
  305MOL0     H41147   7.121   8.767   3.263 -0.8637 -0.8072 -0.5266
  305MOL0     H41148   7.062   8.726   3.422  1.3711  0.0315 -0.1955
  305MOL0     H41149   7.011   8.985   3.298  1.5195 -1.5858 -1.6351
  305MOL0     H41150   6.957   8.919   3.460  0.1654 -2.0506  1.0273
  305MOL0     H41151   6.862   8.851   3.172 -1.2040 -0.0183  0.3517
  305MOL0     H41152   6.858   8.733   3.303  0.2370 -0.9200 -2.0348
  305MOL0     H41153   6.715   9.002   3.303 -0.1668  0.5809  3.4248
  305MOL0     H41154   6.729   8.894   3.438 -2.4232 -0.5879 -0.4249
  305MOL0     H41155   6.614   8.698   3.310 -1.7559  0.4537  4.3201
  305MOL0     H41156   6.613   8.807   3.167 -1.0558 -0.9013  0.7880
  305MOL0     H41157   7.774   8.657   3.381 -1.8902 -2.5818  2.5218
  305MOL0     H41158   8.007   8.710   3.434 -0.9859 -3.3814  1.1337
  305MOL0     H41159   8.285   8.967   3.651  1.4263  1.5210  0.1902
  305MOL0     H41160   8.519   9.002   3.731 -1.1487  0.1159 -1.2349
  305MOL0     H41161   8.895   9.948   4.565  0.2324  2.2338 -0.4141
  305MOL0     H41162   8.692  10.071   4.677 -0.2972  0.4133  1.5495
  305MOL0     H41163   8.254  10.099   4.781 -0.7019  1.0981  0.3482
  305MOL0     H41164   8.080  10.235   4.896  0.6495  2.2233  0.8526
  305MOL0     H41165   7.915  10.300   5.035 -3.1128  0.2722  1.5125
  305MOL0     H41166   7.957  10.142   5.099 -1.2461  0.1284 -0.9244
  305MOL0     H41167   7.911  10.251   5.337 -1.4386 -0.4562  1.1580
  305MOL0     H41168   7.775  10.209   5.229 -0.1241  0.3946  2.6264
  305MOL0     H41169   7.793  10.461   5.149 -0.4994  1.5412  1.3814
  305MOL0     H41170   7.916  10.488   5.263 -2.2822  4.8417  0.6618
  305MOL0     H41171   7.740  10.574   5.343 -0.3424 -0.4503  0.2033
  305MOL0     H41172   7.783  10.435   5.441  1.4909  1.9120 -0.2144
  305MOL0     H41173   7.390  10.322   5.333 -0.0288 -2.2822 -2.0435
  305MOL0     H41174   8.304  10.245   5.244 -2.3542  1.2229 -0.0905
  305MOL0     H41175   8.503  10.131   5.134  1.2088  0.8866  0.3162
  306MOL0     O41176   1.117   0.432  11.138  0.5289 -0.2226  0.6113
  306MOL0     C41177   1.093   0.343  11.051  0.1253 -0.2406 -0.2517
  306MOL0     O41178   1.022   0.230  11.083  1.0294  0.6583 -0.1728
  306MOL0     C41179   0.957   0.203  11.198 -0.5133 -0.6044 -0.1506
  306MOL0     C41180   0.879   0.303  11.263 -0.4415 -0.7433  0.2856
  306MOL0     C41181   0.823   0.265  11.387 -0.2878  0.4362 -0.4724
  306MOL0     C41182   0.833   0.138  11.444 -0.3313  0.0570 -0.2105
  306MOL0     O41183   0.790   0.096  11.569  0.0490  0.6383  0.0922
  306MOL0     C41184   0.670   0.145  11.623 -0.1850  0.0225 -0.1055
  306MOL0     C41185   0.592   0.042  11.706  0.9150 -0.1675  0.2505
  306MOL0     C41186   0.470   0.106  11.762  0.8597 -0.3564 -0.6642
  306MOL0     C41187   0.413   0.013  11.877 -0.2327  0.1131  0.6078
  306MOL0     C41188   0.276   0.065  11.930 -0.2374  0.3011 -0.4374
  306MOL0     C41189   0.174   0.067  11.809  0.1241  0.6442 -1.0505
  306MOL0     C41190   0.037   0.120  11.869  0.0137  0.1415  0.1000
  306MOL0     C41191  -0.047   0.012  11.920  0.0001  0.6094 -0.2193
  306MOL0     N41192  -0.165   0.070  11.984 -0.0639  0.9770 -0.0111
  306MOL0     C41193  -0.283   0.102  11.931  0.2446  0.3553 -0.4862
  306MOL0     C41194  -0.361   0.147  12.030  0.1655 -0.7935 -0.0245
  306MOL0     C41195  -0.512   0.189  12.012 -1.2116 -0.4584 -0.1807
  306MOL0     C41196  -0.576   0.224  12.145 -1.1401 -0.1683  0.1643
  306MOL0     C41197  -0.724   0.221  12.141  0.4050  0.7007 -0.2197
  306MOL0     C41198  -0.794   0.258  12.272  0.1406  0.5554 -0.0649
  306MOL0     O41199  -0.936   0.251  12.248  0.2893 -0.1216 -0.5585
  306MOL0     C41200  -1.027   0.296  12.335  0.0430 -0.8955  0.6711
  306MOL0     C41201  -1.158   0.256  12.300  0.6789 -0.7290  0.1409
  306MOL0     C41202  -1.275   0.305  12.369 -0.6107  0.5302 -0.0649
  306MOL0     C41203  -1.405   0.260  12.308 -1.3063 -0.8647 -0.3840
  306MOL0     C41204  -1.250   0.386  12.491  0.0203  0.6706 -0.1950
  306MOL0     C41205  -1.358   0.434  12.579 -0.3530 -0.2144  0.3906
  306MOL0     O41206  -1.479   0.363  12.562 -0.2347 -0.7425 -0.6516
  306MOL0     C41207  -1.578   0.392  12.646  0.8492  0.2366  0.2551
  306MOL0     C41208  -1.568   0.405  12.785  0.6483 -0.2781 -0.1643
  306MOL0     C41209  -1.673   0.437  12.868  0.0306 -0.0174  0.4133
  306MOL0     C41210  -1.799   0.430  12.807  0.1338 -0.2085 -0.0925
  306MOL0     O41211  -1.914   0.444  12.877  0.8008  0.3078  0.3240
  306MOL0     C41212  -1.932   0.467  13.017 -0.6223 -0.3573  0.0759
  306MOL0     C41213  -2.087   0.479  13.036 -0.0628  0.7194 -0.7148
  306MOL0     C41214  -2.167   0.591  12.966 -0.2264  0.0098 -0.5236
  306MOL0     C41215  -2.318   0.611  13.005 -0.1369 -0.2527 -0.5263
  306MOL0     C41216  -2.328   0.682  13.135 -0.7911  0.1146 -0.4279
  306MOL0     C41217  -2.463   0.731  13.170  0.3342  0.7108 -0.2710
  306MOL0     C41218  -2.476   0.772  13.316 -0.0145 -0.7174  1.2389
  306MOL0     C41219  -2.580   0.886  13.353 -0.8330 -0.5384 -0.9933
  306MOL0    Cl41220  -2.743   0.844  13.317  0.4427  0.3772 -0.0359
  306MOL0     C41221  -1.814   0.413  12.667  0.3204  0.1441 -0.6339
  306MOL0     C41222  -1.704   0.391  12.587  0.5674 -0.4365 -0.5835
  306MOL0     O41223  -1.346   0.533  12.657  0.5193 -0.0707  0.7796
  306MOL0     C41224  -1.119   0.435  12.511  0.1542 -0.6693  0.5643
  306MOL0     C41225  -1.009   0.384  12.436  0.1356 -0.4479 -0.7600
  306MOL0     N41226  -0.280   0.155  12.142 -0.2744 -0.0875 -0.4089
  306MOL0     N41227  -0.159   0.110  12.110  0.6135 -0.3069 -0.0457
  306MOL0     C41228   0.900   0.041  11.364  0.4080  0.2650  0.6448
  306MOL0     C41229   0.959   0.075  11.244 -0.5073  0.1775 -0.1878
  306MOL0     C41230   1.157   0.357  10.910 -0.2214 -0.1045  0.6491
  306MOL0     C41231   1.136   0.260  10.807  0.1098 -0.1027 -0.2486
  306MOL0     C41232   1.214   0.272  10.690  0.4564 -0.5878  1.1055
  306MOL0     C41233   1.309   0.376  10.658  0.6205 -0.4730 -0.4627
  306MOL0     O41234   1.361   0.380  10.534 -0.3148 -0.3633 -0.3674
  306MOL0     C41235   1.411   0.508  10.487  0.2729 -0.6043  1.0049
  306MOL0     C41236   1.559   0.535  10.515  0.6801 -1.5045  0.3210
  306MOL0     C41237   1.643   0.428  10.451 -0.0936 -0.1648  0.0285
  306MOL0     C41238   1.785   0.482  10.430 -0.1093 -0.1946  0.3532
  306MOL0     C41239   1.856   0.484  10.559 -0.5304  0.4946  0.1717
  306MOL0     C41240   1.893   0.524  10.666  0.2429  0.5225 -0.2866
  306MOL0     C41241   1.324   0.467  10.761  0.0125 -0.0952 -0.4465
  306MOL0     C41242   1.249   0.463  10.876 -0.5961 -0.8443 -0.6596
  306MOL0     H41243   0.883   0.402  11.219 -0.7133 -1.4571 -1.4229
  306MOL0     H41244   0.776   0.338  11.452 -0.7146  1.6685 -2.1058
  306MOL0     H41245   0.696   0.224  11.694  1.7216  0.8698 -1.6425
  306MOL0     H41246   0.613   0.181  11.538  3.0396  1.5662 -1.7892
  306MOL0     H41247   0.568  -0.037  11.634  2.4856  3.3234 -4.6906
  306MOL0     H41248   0.655  -0.010  11.778 -2.5643 -1.2765  2.7979
  306MOL0     H41249   0.497   0.196  11.819  0.5224 -0.0779 -0.9398
  306MOL0     H41250   0.398   0.130  11.683  2.0113  1.9087 -1.1211
  306MOL0     H41251   0.385  -0.085  11.837  0.6215  0.0300  0.1776
  306MOL0     H41252   0.494   0.004  11.950 -0.0129  0.2290  0.3802
  306MOL0     H41253   0.246  -0.006  12.006 -2.3165  0.2816 -1.2244
  306MOL0     H41254   0.279   0.165  11.975  1.1628  0.6122 -1.1335
  306MOL0     H41255   0.201   0.138  11.730  0.4372  1.4569 -0.2211
  306MOL0     H41256   0.176  -0.034  11.765 -0.1413 -0.2031  0.7954
  306MOL0     H41257   0.045   0.195  11.948  2.4791 -1.6237  1.6680
  306MOL0     H41258  -0.021   0.158  11.785 -1.7992 -0.4983  1.0048
  306MOL0     H41259   0.007  -0.048  11.994  0.8439  1.6034 -0.0162
  306MOL0     H41260  -0.089  -0.058  11.847 -1.2079 -0.1057  1.0858
  306MOL0     H41261  -0.322   0.075  11.833 -1.7235  2.9022 -0.5103
  306MOL0     H41262  -0.509   0.277  11.947  2.2477 -0.7012 -0.5384
  306MOL0     H41263  -0.561   0.102  11.968 -0.2244 -0.2607 -1.7577
  306MOL0     H41264  -0.531   0.322  12.165  2.5341 -2.0317  1.8536
  306MOL0     H41265  -0.548   0.153  12.223  1.5951 -0.9629 -1.4308
  306MOL0     H41266  -0.769   0.125  12.115 -2.5525  2.0285 -0.4439
  306MOL0     H41267  -0.758   0.277  12.053 -0.3363 -2.2594 -1.9307
  306MOL0     H41268  -0.773   0.363  12.293  0.2489  1.0301 -2.3184
  306MOL0     H41269  -0.769   0.181  12.345 -0.0505  0.2841 -0.2849
  306MOL0     H41270  -1.158   0.200  12.207 -1.4306 -1.3025  0.4333
  306MOL0     H41271  -1.470   0.196  12.369 -2.0109 -0.7235 -0.9827
  306MOL0     H41272  -1.463   0.348  12.282  0.2577  0.6897  1.1275
  306MOL0     H41273  -1.377   0.200  12.220 -0.6794 -5.2902  2.4708
  306MOL0     H41274  -1.471   0.377  12.825 -0.6485 -1.8090  2.0931
  306MOL0     H41275  -1.661   0.460  12.974 -1.9371  0.7506  0.5056
  306MOL0     H41276  -1.901   0.390  13.087  0.2260 -0.3800 -0.3177
  306MOL0     H41277  -1.877   0.559  13.040 -3.6985  1.1709  2.0819
  306MOL0     H41278  -2.131   0.380  13.023  1.1041 -0.0216  0.5849
  306MOL0     H41279  -2.103   0.498  13.143 -0.4244  0.7098 -0.7655
  306MOL0     H41280  -2.154   0.575  12.859  1.1300 -2.2990 -0.0695
  306MOL0     H41281  -2.097   0.674  12.980  1.9591 -1.8240 -0.0464
  306MOL0     H41282  -2.354   0.678  12.926 -2.1864 -0.3439  0.2846
  306MOL0     H41283  -2.381   0.522  12.999  0.3030 -0.4588 -2.7748
  306MOL0     H41284  -2.267   0.772  13.129 -2.0675  1.1357  1.0726
  306MOL0     H41285  -2.295   0.615  13.215 -1.3746  0.0997 -0.1965
  306MOL0     H41286  -2.468   0.816  13.101  0.6663  0.8983 -0.0625
  306MOL0     H41287  -2.544   0.658  13.161 -0.9187  1.6068  2.7108
  306MOL0     H41288  -2.381   0.817  13.347  0.7956 -0.1287 -1.7738
  306MOL0     H41289  -2.491   0.686  13.383  1.1823 -2.1098 -0.2110
  306MOL0     H41290  -2.546   0.979  13.306  3.4202 -1.0089  0.7192
  306MOL0     H41291  -2.572   0.902  13.461 -1.6263 -0.6092 -0.9173
  306MOL0     H41292  -1.916   0.406  12.631 -0.2223  1.2715  0.5895
  306MOL0     H41293  -1.717   0.375  12.481  1.4120 -0.3089 -0.7154
  306MOL0     H41294  -1.102   0.519  12.578  1.1958 -2.8995  3.3467
  306MOL0     H41295  -0.911   0.420  12.466  0.0643 -1.0236  0.2156
  306MOL0     H41296   0.908  -0.061  11.399  0.4319 -0.3145 -0.9858
  306MOL0     H41297   1.023   0.001  11.197 -1.0004 -0.7625  0.5674
  306MOL0     H41298   1.064   0.180  10.823 -1.4102  0.7601 -2.2568
  306MOL0     H41299   1.176   0.213  10.608 -1.1428  3.1867 -1.1016
  306MOL0     H41300   1.388   0.498  10.380  3.0485 -1.7149  0.4171
  306MOL0     H41301   1.348   0.587  10.528 -1.4461 -0.5772 -1.4552
  306MOL0     H41302   1.578   0.528  10.622  1.1620 -0.7068  0.2920
  306MOL0     H41303   1.584   0.632  10.472  1.9332 -0.6789  2.7576
  306MOL0     H41304   1.611   0.408  10.349  2.0239 -1.8708 -0.3956
  306MOL0     H41305   1.637   0.339  10.515 -2.7196  1.3377  2.0779
  306MOL0     H41306   1.778   0.582  10.386 -0.7064 -0.5777 -0.4595
  306MOL0     H41307   1.852   0.427  10.363  1.5360  1.0869  0.8850
  306MOL0     H41308   1.919   0.539  10.769 -0.6048 -2.5670  0.4893
  306MOL0     H41309   1.388   0.555  10.758  2.3804 -1.7568 -1.7762
  306MOL0     H41310   1.272   0.542  10.947  3.0080  1.4460 -4.0090
  307MOL0     O41311   9.551   4.510   5.320 -0.4261  0.2444 -1.0594
  307MOL0     C41312   9.571   4.416   5.240  0.0892 -0.0335 -0.0458
  307MOL0     O41313   9.491   4.383   5.128  0.4135 -0.0230 -0.5577
  307MOL0     C41314   9.377   4.459   5.084 -0.4913  0.4913 -0.3704
  307MOL0     C41315   9.322   4.404   4.969 -0.5142  0.3735 -0.2508
  307MOL0     C41316   9.201   4.444   4.917  0.0542 -0.1274  0.5821
  307MOL0     C41317   9.134   4.557   4.978  0.0794  0.7599  0.4845
  307MOL0     O41318   9.011   4.597   4.927  0.3160  0.4112 -0.8774
  307MOL0     C41319   8.909   4.632   5.026  0.3945 -0.2448  0.4780
  307MOL0     C41320   8.770   4.617   4.954  0.0340  0.8881 -0.2217
  307MOL0     C41321   8.657   4.664   5.044 -0.8633 -0.8573  0.1458
  307MOL0     C41322   8.534   4.662   4.955 -0.0280 -0.5755  0.2914
  307MOL0     C41323   8.406   4.713   5.028 -0.3276  0.5605 -0.1176
  307MOL0     C41324   8.351   4.623   5.131 -0.0677  0.0675  0.4587
  307MOL0     C41325   8.201   4.657   5.162 -0.3862  0.5555 -0.6557
  307MOL0     C41326   8.132   4.543   5.242  0.0907  0.8774 -0.7802
  307MOL0     N41327   8.123   4.426   5.148 -0.3123 -0.1728 -0.5456
  307MOL0     C41328   8.057   4.421   5.031  0.1345 -0.2969  0.1083
  307MOL0     C41329   8.074   4.292   4.995  0.9746  0.0524 -0.1311
  307MOL0     C41330   8.021   4.212   4.878  0.1200 -0.2000  0.1599
  307MOL0     C41331   7.874   4.227   4.852  0.6362 -0.8927  0.2795
  307MOL0     C41332   7.836   4.148   4.731 -0.2168 -0.3058  0.1024
  307MOL0     C41333   7.688   4.191   4.696 -0.2083 -0.3707  0.7161
  307MOL0     O41334   7.649   4.103   4.588 -0.9807  0.3340  0.4627
  307MOL0     C41335   7.548   4.141   4.504 -0.1176 -0.4599 -0.2509
  307MOL0     C41336   7.562   4.095   4.373  0.3647 -0.3433  0.0696
  307MOL0     C41337   7.469   4.128   4.278  0.6541 -0.1188  0.1948
  307MOL0     C41338   7.505   4.100   4.134  0.2785  0.1262  0.5457
  307MOL0     C41339   7.349   4.181   4.319  0.9365  0.3067 -0.0146
  307MOL0     C41340   7.227   4.187   4.232  0.3544  0.1201 -0.2230
  307MOL0     O41341   7.136   4.287   4.256 -0.2305  0.0775 -0.7015
  307MOL0     C41342   7.044   4.310   4.154  0.0617  0.1773 -0.9952
  307MOL0     C41343   6.910   4.331   4.188 -0.4430 -0.3721  0.2847
  307MOL0     C41344   6.806   4.346   4.101 -0.0272 -0.2665  0.7420
  307MOL0     C41345   6.838   4.358   3.964 -0.2363  0.3964 -0.8822
  307MOL0     O41346   6.733   4.380   3.877 -1.2796  0.4912  0.3671
  307MOL0     C41347   6.739   4.316   3.745 -0.3185 -0.4295 -0.7017
  307MOL0     C41348   6.593   4.296   3.691 -0.4160 -0.7172  0.6015
  307MOL0     C41349   6.529   4.194   3.772  0.0237  0.4265  0.1115
  307MOL0     C41350   6.378   4.204   3.783  0.7493  0.1490  0.4360
  307MOL0     C41351   6.302   4.091   3.849 -0.5411  0.9292 -0.0392
  307MOL0     C41352   6.276   3.968   3.761 -0.2590  0.2218 -0.9465
  307MOL0     C41353   6.212   3.868   3.845 -0.0252  0.2429 -0.2923
  307MOL0     C41354   6.302   3.742   3.839  0.4585  0.8456 -0.0762
  307MOL0    Cl41355   6.292   3.665   3.684  0.0215  0.2303 -0.1503
  307MOL0     C41356   6.972   4.343   3.928  0.0203 -1.1885 -0.3481
  307MOL0     C41357   7.071   4.336   4.022  0.6963  0.5173 -0.2906
  307MOL0     O41358   7.213   4.099   4.148 -0.1971 -0.3934  0.0497
  307MOL0     C41359   7.331   4.233   4.457 -1.0913 -0.0553 -0.1655
  307MOL0     C41360   7.436   4.225   4.540  0.3209  0.0373  0.2705
  307MOL0     N41361   8.160   4.230   5.075 -0.2825 -0.2449 -0.9492
  307MOL0     N41362   8.193   4.312   5.165  0.2358 -0.1604 -0.1149
  307MOL0     C41363   9.196   4.622   5.084 -0.0386  0.5617 -0.3434
  307MOL0     C41364   9.314   4.564   5.147  0.7966  0.4947 -0.1863
  307MOL0     C41365   9.676   4.323   5.288  0.2548 -0.3951 -0.1943
  307MOL0     C41366   9.683   4.204   5.219  0.0263  0.0883 -0.2214
  307MOL0     C41367   9.785   4.113   5.258  0.7349 -0.4668  0.5777
  307MOL0     C41368   9.863   4.141   5.372 -1.5273 -0.5002 -0.2617
  307MOL0     O41369   9.958   4.064   5.430 -0.1398  0.9681 -0.4184
  307MOL0     C41370   9.960   3.921   5.391  0.0232 -0.4001 -0.0343
  307MOL0     C41371  10.075   3.853   5.473  0.3104 -0.0496  0.9252
  307MOL0     C41372  10.210   3.864   5.405  0.1271  0.5515 -0.3526
  307MOL0     C41373  10.255   4.010   5.401  0.5807 -0.9172 -0.3975
  307MOL0     C41374  10.290   4.054   5.538 -0.1013  0.7452 -0.3510
  307MOL0     C41375  10.331   4.060   5.649 -0.4553  0.3668  0.3374
  307MOL0     C41376   9.851   4.262   5.439  0.1888 -0.2886  0.7711
  307MOL0     C41377   9.755   4.353   5.400 -0.1520  0.5317  0.3547
  307MOL0     H41378   9.365   4.314   4.926 -0.4229 -0.3746  1.2939
  307MOL0     H41379   9.147   4.396   4.836  1.5842 -1.6280  0.3946
  307MOL0     H41380   8.916   4.554   5.103  0.9978 -1.1191 -0.4188
  307MOL0     H41381   8.919   4.731   5.070 -1.0307 -1.2677  3.3778
  307MOL0     H41382   8.768   4.670   4.858 -0.2358  1.5245  0.1287
  307MOL0     H41383   8.755   4.512   4.930  2.2697  1.1335 -3.2849
  307MOL0     H41384   8.635   4.589   5.121 -2.1006 -0.8730 -0.2008
  307MOL0     H41385   8.679   4.762   5.088 -0.0656 -0.4830 -1.0608
  307MOL0     H41386   8.558   4.742   4.884  3.1451  0.0872  1.9471
  307MOL0     H41387   8.513   4.566   4.908  2.9441 -2.3686  2.3117
  307MOL0     H41388   8.429   4.811   5.071  0.0127  0.3128  0.2823
  307MOL0     H41389   8.334   4.737   4.950  0.6066  1.9312 -0.5921
  307MOL0     H41390   8.366   4.518   5.104  0.2480 -0.3676  2.1758
  307MOL0     H41391   8.399   4.640   5.228 -0.4402  0.2098  0.6211
  307MOL0     H41392   8.203   4.749   5.221  3.4565  1.4144 -1.8119
  307MOL0     H41393   8.133   4.684   5.081  0.0765 -1.7925 -1.9373
  307MOL0     H41394   8.027   4.570   5.259 -0.1625  0.1394 -1.1337
  307MOL0     H41395   8.175   4.507   5.335  1.5452  1.9832 -0.9845
  307MOL0     H41396   8.001   4.501   4.983  0.8683 -0.1591 -0.5330
  307MOL0     H41397   8.084   4.246   4.795 -0.1063  1.5461  0.6609
  307MOL0     H41398   8.052   4.108   4.891  0.6454  0.0952  1.5184
  307MOL0     H41399   7.841   4.331   4.853 -1.3719 -1.4487 -1.1305
  307MOL0     H41400   7.817   4.186   4.936 -1.0326  0.0852 -0.3302
  307MOL0     H41401   7.839   4.039   4.731 -2.6186 -0.4610 -1.4262
  307MOL0     H41402   7.896   4.170   4.642 -0.6315 -0.9647 -0.3491
  307MOL0     H41403   7.682   4.297   4.669  2.9871 -0.3309 -0.2007
  307MOL0     H41404   7.617   4.173   4.778 -0.1461 -1.2310  0.5869
  307MOL0     H41405   7.653   4.039   4.353  0.1305 -0.1230 -1.7334
  307MOL0     H41406   7.465   4.183   4.075  3.4872  1.2581 -0.2729
  307MOL0     H41407   7.612   4.087   4.118  0.0467 -0.4617 -0.5678
  307MOL0     H41408   7.460   4.005   4.105  1.0575 -0.0916  0.0280
  307MOL0     H41409   6.889   4.328   4.294  3.0226 -2.1734  1.0739
  307MOL0     H41410   6.707   4.364   4.141  1.6321  1.9008  4.3816
  307MOL0     H41411   6.801   4.393   3.697  1.1652  0.4094  2.3300
  307MOL0     H41412   6.802   4.227   3.736  1.1719  0.4399  0.5730
  307MOL0     H41413   6.541   4.392   3.704  0.8878  0.0382  0.4582
  307MOL0     H41414   6.574   4.300   3.583  2.0770 -2.3885  0.0173
  307MOL0     H41415   6.569   4.208   3.873  2.6635 -1.3615 -0.5629
  307MOL0     H41416   6.549   4.096   3.728  0.2745 -0.7935  2.7552
  307MOL0     H41417   6.349   4.293   3.840 -0.1469  0.5116 -0.5352
  307MOL0     H41418   6.331   4.224   3.686 -0.1594  0.3309  0.8959
  307MOL0     H41419   6.210   4.126   3.896 -2.0401 -1.6046 -0.9201
  307MOL0     H41420   6.369   4.062   3.931  1.8240  1.1518 -1.7809
  307MOL0     H41421   6.210   3.993   3.678  0.5574  2.1120 -1.0800
  307MOL0     H41422   6.363   3.930   3.707 -0.3439 -1.2557 -0.0891
  307MOL0     H41423   6.110   3.849   3.809  0.0864  1.6193 -1.4253
  307MOL0     H41424   6.207   3.896   3.951  1.3058  0.1251 -0.1890
  307MOL0     H41425   6.272   3.663   3.908  0.1568  0.4187 -0.6834
  307MOL0     H41426   6.401   3.768   3.878  1.6513 -2.4103 -0.6834
  307MOL0     H41427   6.994   4.355   3.823  0.4386 -1.3907 -0.2865
  307MOL0     H41428   7.170   4.326   3.980  1.6443  2.4160  1.3314
  307MOL0     H41429   7.232   4.264   4.489 -1.1431  1.1390 -1.3794
  307MOL0     H41430   7.418   4.267   4.639 -2.8591 -1.2975  0.3918
  307MOL0     H41431   9.150   4.709   5.130 -1.9468  0.2708 -1.6030
  307MOL0     H41432   9.345   4.613   5.238  1.7180  0.6972 -0.6022
  307MOL0     H41433   9.620   4.168   5.139 -0.8315 -1.1867  0.9793
  307MOL0     H41434   9.791   4.019   5.205 -1.9464  0.9354 -2.6316
  307MOL0     H41435   9.861   3.878   5.412  0.0139 -1.5224 -2.1570
  307MOL0     H41436   9.972   3.908   5.283 -1.2760 -2.5479  0.0220
  307MOL0     H41437  10.060   3.744   5.470  0.4216 -0.0558  0.6303
  307MOL0     H41438  10.069   3.868   5.581 -1.2286 -1.1922  1.0307
  307MOL0     H41439  10.189   3.828   5.303  2.0396  3.5658 -1.9495
  307MOL0     H41440  10.276   3.803   5.467 -1.2010  0.1857  0.7370
  307MOL0     H41441  10.185   4.070   5.340 -2.4618 -1.6313  2.1156
  307MOL0     H41442  10.343   4.014   5.336  1.8180 -1.0241  1.2253
  307MOL0     H41443  10.368   4.056   5.749 -1.3200  1.3428  0.7073
  307MOL0     H41444   9.906   4.287   5.530  1.9320  1.6586 -0.7289
  307MOL0     H41445   9.741   4.435   5.469  0.4392 -0.5114  1.7586
  308MOL0     O41446   7.074   1.395   9.548  0.3457 -0.0419 -0.1797
  308MOL0     C41447   7.058   1.277   9.532 -0.9138  0.4371  0.0851
  308MOL0     O41448   6.944   1.206   9.532  0.1579 -0.2599 -0.2887
  308MOL0     C41449   6.833   1.277   9.570 -0.1806 -0.3384 -0.7419
  308MOL0     C41450   6.719   1.291   9.487 -0.6518 -0.1769  0.3004
  308MOL0     C41451   6.619   1.383   9.513 -0.4918 -0.1371 -0.2393
  308MOL0     C41452   6.621   1.452   9.639  0.1486 -0.6319  0.2387
  308MOL0     O41453   6.505   1.522   9.675 -0.4749 -0.0574  0.3651
  308MOL0     C41454   6.413   1.570   9.578  0.0462  0.9729  0.4613
  308MOL0     C41455   6.324   1.685   9.634  0.2272  0.1692 -0.4027
  308MOL0     C41456   6.205   1.716   9.547  0.0356 -0.0031 -0.1223
  308MOL0     C41457   6.114   1.822   9.619  0.5190  0.1828 -0.1270
  308MOL0     C41458   6.002   1.876   9.530 -0.9650  0.0627  0.3635
  308MOL0     C41459   5.915   1.974   9.597  0.1707  0.3870  0.3345
  308MOL0     C41460   5.822   2.050   9.494  0.2261  0.0381  0.2214
  308MOL0     C41461   5.690   1.975   9.471  0.8128  0.3987  0.5143
  308MOL0     N41462   5.588   2.037   9.395  0.0045 -0.5899 -0.1190
  308MOL0     C41463   5.508   2.140   9.427 -0.1146  0.5343  0.7957
  308MOL0     C41464   5.439   2.168   9.316 -0.0489  0.1306 -0.4927
  308MOL0     C41465   5.361   2.295   9.291 -0.2103  0.2137  0.4151
  308MOL0     C41466   5.265   2.286   9.175  0.3741  1.1514 -0.9379
  308MOL0     C41467   5.168   2.411   9.159  0.4456  0.0708 -0.2558
  308MOL0     C41468   5.063   2.367   9.056  0.6806 -0.4685  0.1941
  308MOL0     O41469   4.972   2.483   9.055  0.4369  0.4934 -0.0203
  308MOL0     C41470   4.860   2.480   8.965  0.2460  0.0389 -0.8110
  308MOL0     C41471   4.833   2.382   8.866 -0.6962  0.2235  0.8256
  308MOL0     C41472   4.716   2.377   8.787 -0.1313  0.0640  0.4417
  308MOL0     C41473   4.702   2.255   8.694 -1.1214 -0.0143 -1.0660
  308MOL0     C41474   4.620   2.491   8.793 -0.1751  0.5434 -0.0718
  308MOL0     C41475   4.509   2.520   8.686  0.0251  0.0856 -0.2194
  308MOL0     O41476   4.435   2.635   8.717  0.2851  0.8978  0.7033
  308MOL0     C41477   4.316   2.655   8.661  0.2404  0.5959 -0.4390
  308MOL0     C41478   4.299   2.785   8.622  0.3605  0.2543  0.3928
  308MOL0     C41479   4.185   2.806   8.549  0.5156  0.0048  1.0093
  308MOL0     C41480   4.083   2.718   8.517 -0.5114 -0.8546 -0.6948
  308MOL0     O41481   3.963   2.766   8.458 -0.4643 -0.1116 -1.3708
  308MOL0     C41482   3.901   2.676   8.374 -0.1010 -0.0834  0.8847
  308MOL0     C41483   3.770   2.738   8.331 -1.0256  0.8384  0.0900
  308MOL0     C41484   3.694   2.655   8.229  0.0479  1.3972  0.5646
  308MOL0     C41485   3.572   2.732   8.167 -0.5902 -0.1256  0.0672
  308MOL0     C41486   3.512   2.665   8.038 -0.1586  0.4849 -0.2618
  308MOL0     C41487   3.463   2.516   8.053 -0.4214  0.2366 -0.8648
  308MOL0     C41488   3.414   2.461   7.923 -0.1877 -0.3870 -0.6059
  308MOL0     C41489   3.353   2.327   7.945  0.0998 -0.4252  0.2169
  308MOL0    Cl41490   3.302   2.257   7.794  0.0245  0.0541  0.5177
  308MOL0     C41491   4.108   2.586   8.562  1.0709 -0.4132 -0.5536
  308MOL0     C41492   4.222   2.556   8.645  1.1225 -0.2821 -0.9538
  308MOL0     O41493   4.506   2.448   8.588  0.2941  0.8849  0.0243
  308MOL0     C41494   4.660   2.594   8.882  0.3507 -0.3822 -0.1846
  308MOL0     C41495   4.764   2.582   8.968 -0.5702 -0.1763 -0.2230
  308MOL0     N41496   5.465   2.079   9.219 -0.6556 -0.2522  0.4564
  308MOL0     N41497   5.551   1.995   9.269  0.0384  0.7827  0.2368
  308MOL0     C41498   6.728   1.447   9.723  0.3489 -0.0412 -0.0800
  308MOL0     C41499   6.830   1.365   9.692 -0.5278  0.4798  0.0009
  308MOL0     C41500   7.186   1.204   9.509  0.2028  0.0260 -0.4506
  308MOL0     C41501   7.301   1.281   9.475 -0.2232  0.1620 -0.3236
  308MOL0     C41502   7.421   1.218   9.458 -0.1461  0.7722  0.1608
  308MOL0     C41503   7.434   1.076   9.467 -0.2319 -0.6073 -0.5869
  308MOL0     O41504   7.553   1.008   9.454 -0.6658 -0.0961 -0.0223
  308MOL0     C41505   7.665   1.080   9.387 -0.1141 -0.2652 -0.1255
  308MOL0     C41506   7.638   1.094   9.241  0.7745 -0.2691  0.3028
  308MOL0     C41507   7.558   0.973   9.175 -0.2444  0.7260  1.1332
  308MOL0     C41508   7.638   0.838   9.168 -0.8259  0.1057  0.1429
  308MOL0     C41509   7.770   0.837   9.091  1.4977  0.0983  0.4833
  308MOL0     C41510   7.878   0.847   9.025  0.1137  0.7918 -0.0789
  308MOL0     C41511   7.312   1.001   9.500  0.3382  0.2545  0.7550
  308MOL0     C41512   7.188   1.064   9.518 -0.8523  0.9430 -0.7310
  308MOL0     H41513   6.717   1.236   9.393 -1.0647 -0.1035  0.2659
  308MOL0     H41514   6.525   1.374   9.460 -0.0744 -0.9188 -0.8632
  308MOL0     H41515   6.453   1.613   9.486  1.4899  1.7389  1.4054
  308MOL0     H41516   6.343   1.487   9.564  1.6115 -0.3398  0.1244
  308MOL0     H41517   6.302   1.655   9.737 -1.1878  0.2689 -0.6624
  308MOL0     H41518   6.386   1.775   9.637  0.9982 -0.3785  1.8705
  308MOL0     H41519   6.247   1.756   9.455  0.7668  0.4480  0.4010
  308MOL0     H41520   6.148   1.624   9.530  0.8242 -0.9985  2.1592
  308MOL0     H41521   6.071   1.767   9.703  0.5099  0.1928 -0.1251
  308MOL0     H41522   6.171   1.907   9.658  0.4828 -0.4204  1.3266
  308MOL0     H41523   6.049   1.925   9.445  2.8464 -4.6712 -0.7374
  308MOL0     H41524   5.941   1.798   9.483 -1.3523  0.2148  0.6058
  308MOL0     H41525   5.870   1.926   9.685  3.4174  0.6411  2.3029
  308MOL0     H41526   5.966   2.062   9.639 -2.6486  3.2235 -1.7219
  308MOL0     H41527   5.790   2.149   9.528 -0.6289  0.5545 -1.8932
  308MOL0     H41528   5.876   2.069   9.400 -1.6305  1.4333 -0.6142
  308MOL0     H41529   5.641   1.952   9.567 -2.3087 -1.0723 -1.2479
  308MOL0     H41530   5.713   1.874   9.434 -0.0768  0.3165  0.1355
  308MOL0     H41531   5.513   2.200   9.518  3.2108 -0.8366  1.6336
  308MOL0     H41532   5.308   2.304   9.386 -0.0046  4.3222  0.3354
  308MOL0     H41533   5.421   2.386   9.302  0.5568 -0.4505  2.1797
  308MOL0     H41534   5.203   2.197   9.193  0.6648  0.3800 -3.3879
  308MOL0     H41535   5.322   2.267   9.084 -0.3975 -0.4528 -1.1300
  308MOL0     H41536   5.222   2.500   9.124  2.8290 -0.3013  2.0886
  308MOL0     H41537   5.117   2.436   9.253 -0.6902  0.8380 -1.0530
  308MOL0     H41538   5.003   2.283   9.092 -3.0580  1.3144 -1.3856
  308MOL0     H41539   5.109   2.353   8.958  3.3071  0.9814  1.1068
  308MOL0     H41540   4.899   2.296   8.868  1.6736  1.9015  3.9730
  308MOL0     H41541   4.756   2.279   8.602  2.1550  1.5300  1.0570
  308MOL0     H41542   4.745   2.163   8.735  0.9734  1.9820  1.5796
  308MOL0     H41543   4.595   2.241   8.676 -1.2414 -3.0449  1.1982
  308MOL0     H41544   4.366   2.866   8.647  0.4193 -0.1137  1.4697
  308MOL0     H41545   4.183   2.910   8.518  1.3114  0.2341  1.7075
  308MOL0     H41546   3.971   2.672   8.289 -0.7518  1.2103  0.2682
  308MOL0     H41547   3.884   2.578   8.420  2.2329 -0.5479  0.8893
  308MOL0     H41548   3.713   2.753   8.423 -0.1469  1.1028  0.6018
  308MOL0     H41549   3.802   2.831   8.283  1.9313 -0.9891 -1.8487
  308MOL0     H41550   3.647   2.569   8.276  0.1418  0.0795 -1.6641
  308MOL0     H41551   3.757   2.621   8.147 -1.1819  0.1995  0.0849
  308MOL0     H41552   3.496   2.749   8.245  3.4395 -0.5892  4.5803
  308MOL0     H41553   3.612   2.832   8.151 -0.5226 -0.6237 -3.8342
  308MOL0     H41554   3.586   2.677   7.958 -0.1141 -0.7417 -0.4193
  308MOL0     H41555   3.434   2.731   7.999 -2.1899 -0.8006  1.4253
  308MOL0     H41556   3.546   2.455   8.090  0.5052  0.4455 -2.5201
  308MOL0     H41557   3.380   2.527   8.124 -2.9882 -0.8847 -3.4833
  308MOL0     H41558   3.505   2.443   7.865 -0.0984 -0.0350 -0.5722
  308MOL0     H41559   3.339   2.527   7.878  0.8889  2.0078  0.9034
  308MOL0     H41560   3.259   2.334   8.002 -0.6211  1.0158 -1.0628
  308MOL0     H41561   3.428   2.263   7.993  1.2176  0.2334 -0.6197
  308MOL0     H41562   4.035   2.507   8.551  1.2102 -1.0162  2.1410
  308MOL0     H41563   4.235   2.464   8.701 -0.5112 -0.5014 -0.8825
  308MOL0     H41564   4.610   2.691   8.880  0.4225 -0.2666  1.6580
  308MOL0     H41565   4.783   2.669   9.029  0.7404 -0.5864 -0.0135
  308MOL0     H41566   6.731   1.490   9.823 -0.9461  0.7974 -0.3666
  308MOL0     H41567   6.913   1.344   9.758  2.2679 -0.5905 -3.5622
  308MOL0     H41568   7.292   1.387   9.452 -0.6505  0.2795  0.3679
  308MOL0     H41569   7.494   1.288   9.418  1.4119 -0.4241  0.8443
  308MOL0     H41570   7.688   1.177   9.433 -1.8933 -0.3088  0.9606
  308MOL0     H41571   7.757   1.022   9.389  0.4711  0.5896  2.4979
  308MOL0     H41572   7.728   1.109   9.181 -0.1254  0.9161 -0.8021
  308MOL0     H41573   7.581   1.186   9.226  0.8472 -0.3700 -0.6763
  308MOL0     H41574   7.540   1.004   9.071  0.1414 -0.4583  0.6916
  308MOL0     H41575   7.465   0.948   9.225 -0.6278 -0.8502 -0.2704
  308MOL0     H41576   7.567   0.767   9.123 -1.1716  0.3451  0.3142
  308MOL0     H41577   7.659   0.803   9.269  1.8866 -0.9375 -0.6852
  308MOL0     H41578   7.966   0.850   8.964  0.1136  1.8041 -0.0452
  308MOL0     H41579   7.324   0.893   9.500  0.3427  0.2285 -1.0649
  308MOL0     H41580   7.103   1.000   9.539 -0.0647 -0.3901 -1.5203
  309MOL0     O41581   9.429   2.328   1.561 -0.0977 -0.1429 -1.1287
  309MOL0     C41582   9.373   2.229   1.520 -0.1644 -0.0446 -0.5767
  309MOL0     O41583   9.240   2.197   1.529 -0.4236 -0.3195 -0.0619
  309MOL0     C41584   9.145   2.277   1.595  0.9415 -0.2262  0.3586
  309MOL0     C41585   9.012   2.267   1.552 -0.6396  0.4453  0.1664
  309MOL0     C41586   8.914   2.334   1.613  0.2816 -0.2846 -0.9440
  309MOL0     C41587   8.938   2.434   1.711 -0.1786 -0.4624  0.7368
  309MOL0     O41588   8.832   2.521   1.737 -0.2635  0.1218 -0.1525
  309MOL0     C41589   8.819   2.561   1.873 -0.3162 -0.0796 -0.0252
  309MOL0     C41590   8.715   2.662   1.872 -0.0381  0.0224 -0.1330
  309MOL0     C41591   8.578   2.612   1.827 -0.2031  0.3465 -0.2685
  309MOL0     C41592   8.465   2.695   1.881  0.1412 -0.4585 -0.2969
  309MOL0     C41593   8.328   2.629   1.851 -0.5379  0.0944  0.2944
  309MOL0     C41594   8.218   2.730   1.876 -0.7514 -0.3392 -0.6559
  309MOL0     C41595   8.080   2.662   1.870  0.9543 -0.6275  0.3404
  309MOL0     C41596   7.963   2.735   1.915  1.3879 -0.0920 -0.5407
  309MOL0     N41597   7.851   2.639   1.934  0.0723 -0.2215 -0.8058
  309MOL0     C41598   7.781   2.590   1.831  0.3649  0.3887 -0.2061
  309MOL0     C41599   7.687   2.501   1.891  0.6740  0.2146  0.3583
  309MOL0     C41600   7.573   2.426   1.821  0.4990  0.8942  0.9615
  309MOL0     C41601   7.460   2.372   1.914  0.1283 -0.4371 -0.8819
  309MOL0     C41602   7.340   2.317   1.835 -0.7626 -0.5992 -0.1187
  309MOL0     C41603   7.232   2.261   1.933 -0.7494 -0.0152  0.0181
  309MOL0     O41604   7.141   2.201   1.840 -0.0662 -0.6409 -0.4360
  309MOL0     C41605   7.023   2.147   1.889 -0.6067  0.4693  0.9157
  309MOL0     C41606   6.993   2.124   2.021 -1.5580 -0.4810  0.1776
  309MOL0     C41607   6.869   2.068   2.062  0.0530 -0.3829  0.2234
  309MOL0     C41608   6.861   2.037   2.208  0.3019 -0.1303 -0.3418
  309MOL0     C41609   6.762   2.047   1.965 -0.5776  1.0451 -1.1271
  309MOL0     C41610   6.626   2.000   1.991  0.3243 -0.0987 -0.2025
  309MOL0     O41611   6.536   2.015   1.893  0.4582  0.2073  0.1454
  309MOL0     C41612   6.405   1.978   1.900  0.2101 -0.7569  0.2005
  309MOL0     C41613   6.352   1.889   1.813 -0.9229  0.2685 -0.2877
  309MOL0     C41614   6.217   1.863   1.812  0.3320  0.2474 -0.2636
  309MOL0     C41615   6.131   1.922   1.907 -0.1850 -0.0580  0.3000
  309MOL0     O41616   6.006   1.881   1.925  0.5845  0.3327 -0.2220
  309MOL0     C41617   5.923   1.912   1.808 -0.2052  0.2723  0.0668
  309MOL0     C41618   5.771   1.912   1.849 -0.5527  0.7758 -0.3483
  309MOL0     C41619   5.732   1.793   1.940 -0.2447 -0.2253  0.0123
  309MOL0     C41620   5.749   1.822   2.089 -0.1167 -0.2300  0.1533
  309MOL0     C41621   5.703   1.707   2.176  0.3764  0.5676 -1.4064
  309MOL0     C41622   5.687   1.746   2.326 -0.0787 -0.4492  0.4777
  309MOL0     C41623   5.814   1.805   2.387 -0.3021 -0.5919 -0.3067
  309MOL0     C41624   5.799   1.822   2.538  0.2595  0.1572 -0.2220
  309MOL0    Cl41625   5.666   1.940   2.586  0.1060  0.2336  0.0294
  309MOL0     C41626   6.185   2.007   2.001 -0.7165  0.9889 -0.7864
  309MOL0     C41627   6.324   2.033   2.003 -0.9577 -0.1709 -0.3791
  309MOL0     O41628   6.605   1.955   2.100  0.0318 -0.4958 -0.4468
  309MOL0     C41629   6.797   2.071   1.836  0.8677 -0.5066  0.0760
  309MOL0     C41630   6.927   2.119   1.791 -0.3801 -0.4012 -0.9765
  309MOL0     N41631   7.699   2.512   2.029  0.6111 -0.3371  1.1015
  309MOL0     N41632   7.792   2.595   2.055 -0.8007 -0.8110 -0.0348
  309MOL0     C41633   9.070   2.449   1.758 -0.2803  0.2944 -0.2178
  309MOL0     C41634   9.172   2.375   1.697 -0.3233  0.8351 -0.6296
  309MOL0     C41635   9.464   2.132   1.443 -0.2948  0.1367 -1.3771
  309MOL0     C41636   9.418   2.065   1.331 -0.5467  0.0067  0.1545
  309MOL0     C41637   9.500   1.980   1.263  1.0311 -0.6238  0.5601
  309MOL0     C41638   9.626   1.958   1.305  0.4126 -0.6097  0.3590
  309MOL0     O41639   9.695   1.859   1.233  0.2790  0.0129  0.0413
  309MOL0     C41640   9.836   1.859   1.230 -0.2082  0.4968 -0.2639
  309MOL0     C41641   9.888   1.985   1.152  0.1726 -0.4077 -0.5091
  309MOL0     C41642  10.038   1.985   1.124  0.5315  0.1473 -0.1250
  309MOL0     C41643  10.092   1.875   1.022 -0.0615  0.6203 -0.5852
  309MOL0     C41644  10.232   1.898   0.997 -0.2876  0.3313  0.0554
  309MOL0     C41645  10.343   1.917   0.957 -0.2029 -0.0374 -0.4535
  309MOL0     C41646   9.681   2.025   1.413  0.6149 -0.1929 -0.3694
  309MOL0     C41647   9.597   2.114   1.486  0.4013  0.3738 -0.3514
  309MOL0     H41648   9.001   2.199   1.468 -0.2777  1.7115 -0.9399
  309MOL0     H41649   8.812   2.307   1.587 -0.0912  2.0027 -2.1775
  309MOL0     H41650   8.791   2.482   1.943  3.3267  0.9795  2.9230
  309MOL0     H41651   8.907   2.613   1.912  1.2307 -1.8498 -1.0411
  309MOL0     H41652   8.704   2.697   1.975  0.5401  0.1378 -0.1064
  309MOL0     H41653   8.752   2.746   1.813 -1.6678  1.9359  1.4151
  309MOL0     H41654   8.578   2.608   1.718  1.6107  0.7486 -0.3139
  309MOL0     H41655   8.564   2.510   1.865  2.3589  0.0045 -0.0696
  309MOL0     H41656   8.478   2.708   1.988 -1.8519  0.3962 -0.1080
  309MOL0     H41657   8.462   2.791   1.828  1.5429  0.9267  1.9882
  309MOL0     H41658   8.322   2.588   1.750 -0.9656 -1.3933  0.9100
  309MOL0     H41659   8.313   2.552   1.926 -0.3471  1.2574  1.5636
  309MOL0     H41660   8.232   2.766   1.978  2.0677  0.5834 -1.2666
  309MOL0     H41661   8.229   2.813   1.805  0.5928 -0.6122 -0.8048
  309MOL0     H41662   8.071   2.623   1.768  0.4114  1.5279 -0.5096
  309MOL0     H41663   8.070   2.572   1.931 -0.4492 -0.6805  0.0500
  309MOL0     H41664   7.934   2.812   1.842  2.9593 -0.0059 -1.1067
  309MOL0     H41665   7.986   2.781   2.011  0.7006 -2.8023  1.0304
  309MOL0     H41666   7.795   2.608   1.725 -0.4464 -1.0897 -0.5849
  309MOL0     H41667   7.532   2.493   1.745  0.3260  1.4767  1.5605
  309MOL0     H41668   7.619   2.341   1.769  0.6909 -0.1940  2.8215
  309MOL0     H41669   7.424   2.460   1.968 -0.1046  0.1436 -1.9761
  309MOL0     H41670   7.504   2.296   1.980  1.0741 -0.1017 -1.1040
  309MOL0     H41671   7.373   2.232   1.774 -2.1406 -1.3906  0.2119
  309MOL0     H41672   7.291   2.387   1.767 -0.7509 -1.1770 -0.7378
  309MOL0     H41673   7.190   2.344   1.991 -2.0971 -0.3617 -0.4126
  309MOL0     H41674   7.272   2.179   1.994 -0.2753  1.9950  2.5770
  309MOL0     H41675   7.060   2.146   2.103 -0.3128 -0.2848 -0.8587
  309MOL0     H41676   6.802   2.112   2.262  0.8000  0.5201 -0.6742
  309MOL0     H41677   6.824   1.936   2.227  1.0715 -0.4500 -0.5195
  309MOL0     H41678   6.961   2.049   2.251  0.5880  0.6589 -1.1771
  309MOL0     H41679   6.407   1.854   1.726  0.8014 -4.1503  2.2102
  309MOL0     H41680   6.176   1.804   1.730 -1.8711  1.2221  0.0494
  309MOL0     H41681   5.954   2.011   1.775  2.5651  0.7954  3.6242
  309MOL0     H41682   5.940   1.833   1.735 -1.0833 -0.5850  0.7549
  309MOL0     H41683   5.756   2.000   1.912 -0.3303 -0.6310  1.8072
  309MOL0     H41684   5.698   1.904   1.769 -0.1602  1.0050 -0.7322
  309MOL0     H41685   5.802   1.713   1.914  0.5079  0.1647  0.8175
  309MOL0     H41686   5.630   1.758   1.921 -0.5784 -2.5779  4.7811
  309MOL0     H41687   5.854   1.840   2.112 -0.3097 -0.3884  1.2091
  309MOL0     H41688   5.684   1.905   2.118  0.3018  0.5713 -1.1037
  309MOL0     H41689   5.765   1.617   2.177 -0.8516 -0.4988  3.1648
  309MOL0     H41690   5.607   1.675   2.136 -0.8994  1.0816  1.0247
  309MOL0     H41691   5.599   1.810   2.337 -2.0067 -2.3714 -2.3506
  309MOL0     H41692   5.662   1.650   2.372  1.7141 -1.3937 -0.3902
  309MOL0     H41693   5.840   1.902   2.344  0.6323  0.2673  1.9938
  309MOL0     H41694   5.905   1.746   2.372 -0.0237 -0.6351  1.3303
  309MOL0     H41695   5.885   1.873   2.583 -0.3259  1.6372 -0.7087
  309MOL0     H41696   5.783   1.724   2.584 -1.0817  1.2840  1.8566
  309MOL0     H41697   6.135   2.051   2.086  0.9262  2.5029 -0.5420
  309MOL0     H41698   6.366   2.088   2.086  0.9447 -2.9510  0.6880
  309MOL0     H41699   6.737   2.033   1.754 -0.0353 -0.0323  0.4993
  309MOL0     H41700   6.955   2.124   1.686 -0.5337 -1.3845 -1.0680
  309MOL0     H41701   9.103   2.517   1.836 -0.3761  0.7321 -0.5582
  309MOL0     H41702   9.272   2.394   1.735 -0.4637  1.2335 -0.4469
  309MOL0     H41703   9.320   2.095   1.295 -0.2287  2.6939  1.2786
  309MOL0     H41704   9.466   1.924   1.176 -0.4497 -1.6381  1.7341
  309MOL0     H41705   9.884   1.844   1.326 -2.3357 -1.6593  0.5738
  309MOL0     H41706   9.870   1.775   1.168  0.5776 -0.8784  1.9356
  309MOL0     H41707   9.875   2.080   1.203  3.1760  0.7968 -1.7425
  309MOL0     H41708   9.849   1.993   1.050  1.9265  1.0577 -1.1195
  309MOL0     H41709  10.097   1.976   1.216  1.6788  1.3568 -0.6920
  309MOL0     H41710  10.065   2.079   1.075  0.3816  0.0355 -0.4222
  309MOL0     H41711  10.030   1.884   0.932 -0.6223  0.8210 -0.1856
  309MOL0     H41712  10.076   1.770   1.050  1.1406  0.2993 -1.0292
  309MOL0     H41713  10.441   1.926   0.915  0.0069 -3.3996 -0.9333
  309MOL0     H41714   9.783   2.017   1.447  0.8363  1.2735 -0.6373
  309MOL0     H41715   9.627   2.175   1.571 -2.6444 -0.2158  1.2903
  310MOL0     O41716   1.669   1.623   5.784 -0.3370  0.2151 -0.1781
  310MOL0     C41717   1.718   1.734   5.794 -0.4010  0.7258 -0.1637
  310MOL0     O41718   1.655   1.847   5.833 -0.5921  0.0018  0.4625
  310MOL0     C41719   1.526   1.836   5.857  0.5617  0.6921  0.2568
  310MOL0     C41720   1.467   1.753   5.957  0.7893  0.0788 -0.3622
  310MOL0     C41721   1.326   1.747   5.973  0.0596  0.1916  0.6613
  310MOL0     C41722   1.239   1.806   5.873  0.5682 -0.0111 -0.1831
  310MOL0     O41723   1.106   1.777   5.907 -0.5033 -0.4783 -0.2565
  310MOL0     C41724   1.003   1.842   5.826 -0.2601 -0.0411 -0.1549
  310MOL0     C41725   0.867   1.820   5.901 -0.1604 -0.5055  0.5957
  310MOL0     C41726   0.828   1.667   5.930  0.0776  0.9561  0.2857
  310MOL0     C41727   0.689   1.655   5.990  0.1800 -0.8284  1.6652
  310MOL0     C41728   0.668   1.516   6.044 -0.0443  0.5923 -0.3714
  310MOL0     C41729   0.521   1.496   6.104  0.0883  0.2757 -0.4110
  310MOL0     C41730   0.512   1.379   6.200  0.1110  0.0328 -0.0137
  310MOL0     C41731   0.581   1.409   6.338  0.1660 -0.4228  0.2402
  310MOL0     N41732   0.487   1.364   6.435 -0.7984  0.2271 -0.0541
  310MOL0     C41733   0.471   1.231   6.462  1.0807  0.7043  0.3866
  310MOL0     C41734   0.370   1.229   6.553  0.2062  0.3031 -0.6443
  310MOL0     C41735   0.323   1.106   6.626  0.2830 -0.0458 -0.4328
  310MOL0     C41736   0.187   1.064   6.575  0.6232  0.0149 -0.1967
  310MOL0     C41737   0.145   0.924   6.642  0.6585  0.5403  0.4888
  310MOL0     C41738  -0.002   0.903   6.629 -0.1314 -0.2215  0.4926
  310MOL0     O41739  -0.033   0.845   6.497  0.4683 -0.3036  0.4509
  310MOL0     C41740  -0.169   0.834   6.469 -0.3279 -0.5672 -0.9977
  310MOL0     C41741  -0.200   0.790   6.338  0.4313  0.2541 -0.0159
  310MOL0     C41742  -0.339   0.781   6.294 -0.6184  0.3835  0.3695
  310MOL0     C41743  -0.362   0.733   6.154 -0.0470 -0.9417  0.2289
  310MOL0     C41744  -0.447   0.810   6.383  0.8189  0.0835  0.4503
  310MOL0     C41745  -0.590   0.809   6.345 -0.4147 -0.7873 -0.0475
  310MOL0     O41746  -0.632   0.740   6.235  0.6537 -0.0446 -0.5247
  310MOL0     C41747  -0.760   0.748   6.187  1.0200  0.3628  0.2136
  310MOL0     C41748  -0.779   0.797   6.058 -0.2872  0.4106  0.5132
  310MOL0     C41749  -0.898   0.786   5.984  0.6928  0.6875  0.2889
  310MOL0     C41750  -1.002   0.721   6.056  0.1861  0.7514 -0.3826
  310MOL0     O41751  -1.121   0.709   5.989  0.2051 -0.1379 -0.7896
  310MOL0     C41752  -1.199   0.591   6.022 -0.6406 -0.5554 -0.0453
  310MOL0     C41753  -1.296   0.546   5.909 -0.2349  0.0770 -1.1885
  310MOL0     C41754  -1.408   0.453   5.956 -0.3522  0.1653  0.1116
  310MOL0     C41755  -1.524   0.535   6.016 -0.3103 -0.1588 -0.7698
  310MOL0     C41756  -1.626   0.447   6.091  0.1961  0.3961 -0.3858
  310MOL0     C41757  -1.754   0.517   6.119 -0.7983 -0.6099  1.1406
  310MOL0     C41758  -1.845   0.413   6.188  0.3020 -0.0806 -0.7641
  310MOL0     C41759  -1.805   0.367   6.326 -1.6736 -0.0664  0.3618
  310MOL0    Cl41760  -1.928   0.255   6.401  0.5153 -0.0917 -0.0282
  310MOL0     C41761  -0.989   0.678   6.194  0.8828 -0.8873 -0.5380
  310MOL0     C41762  -0.865   0.683   6.259  1.0157  0.0143  0.4181
  310MOL0     O41763  -0.664   0.875   6.418  0.5551  0.0707 -0.0325
  310MOL0     C41764  -0.405   0.840   6.521  0.2224  0.1741  0.4031
  310MOL0     C41765  -0.277   0.853   6.564 -0.5520 -0.0279  0.4204
  310MOL0     N41766   0.341   1.364   6.589 -0.0242 -0.2003  0.0452
  310MOL0     N41767   0.406   1.439   6.504  0.4517  0.2394 -0.0665
  310MOL0     C41768   1.297   1.893   5.777  0.0569 -0.7446  0.1960
  310MOL0     C41769   1.437   1.913   5.772  0.2908 -0.5065  0.1631
  310MOL0     C41770   1.863   1.746   5.772 -0.4767  0.5327 -0.0922
  310MOL0     C41771   1.945   1.644   5.717  0.5115 -0.4304  0.1593
  310MOL0     C41772   2.084   1.647   5.728 -0.0236 -1.0511 -0.1484
  310MOL0     C41773   2.152   1.756   5.783  0.4965 -1.1245  0.6627
  310MOL0     O41774   2.285   1.764   5.780  0.4502 -0.8107 -0.1055
  310MOL0     C41775   2.343   1.892   5.738  0.4976 -0.4123 -0.1395
  310MOL0     C41776   2.488   1.885   5.689 -0.3185  0.0119 -0.5375
  310MOL0     C41777   2.532   2.031   5.655  0.0838 -0.0206 -0.1711
  310MOL0     C41778   2.660   2.037   5.583 -1.1408  0.0905 -0.0144
  310MOL0     C41779   2.762   1.986   5.676  0.0765  0.1557 -0.2097
  310MOL0     C41780   2.855   1.951   5.747 -0.2434 -0.6502  0.3724
  310MOL0     C41781   2.073   1.856   5.839 -0.0529  0.2140  0.2868
  310MOL0     C41782   1.934   1.852   5.830  0.3780 -0.2786  0.4933
  310MOL0     H41783   1.534   1.702   6.025 -2.7168 -1.7887  1.9552
  310MOL0     H41784   1.279   1.701   6.059 -3.1731 -1.6363 -1.8593
  310MOL0     H41785   1.022   1.948   5.806 -0.8172 -0.2681 -2.1244
  310MOL0     H41786   0.999   1.795   5.727 -1.6606 -1.6764  0.6179
  310MOL0     H41787   0.862   1.882   5.991  2.6001 -0.5833  0.9042
  310MOL0     H41788   0.795   1.864   5.832  0.2160 -0.6176  0.1250
  310MOL0     H41789   0.838   1.615   5.834  1.5234  0.8734  0.4638
  310MOL0     H41790   0.903   1.625   5.997 -1.0603  1.2523  1.8017
  310MOL0     H41791   0.683   1.732   6.068 -1.2284  2.7327 -1.6336
  310MOL0     H41792   0.616   1.681   5.913  0.8025 -0.5749  1.1593
  310MOL0     H41793   0.686   1.438   5.970 -0.4026 -1.1586  1.3144
  310MOL0     H41794   0.738   1.507   6.128  0.3064  0.1713 -0.7037
  310MOL0     H41795   0.479   1.585   6.152 -1.2692  0.6721 -2.2376
  310MOL0     H41796   0.456   1.471   6.020 -0.1635  0.0762 -0.1579
  310MOL0     H41797   0.407   1.352   6.211  0.2386 -0.7166 -0.5595
  310MOL0     H41798   0.542   1.287   6.150 -1.8819  0.2007 -1.6459
  310MOL0     H41799   0.597   1.517   6.335  3.1541 -0.7539 -3.8150
  310MOL0     H41800   0.674   1.353   6.350  0.1452 -1.8095 -4.1902
  310MOL0     H41801   0.520   1.143   6.422  1.5807  2.1224 -2.3822
  310MOL0     H41802   0.398   1.028   6.608  0.2667 -0.2141  0.1946
  310MOL0     H41803   0.332   1.125   6.733  2.3822 -3.3952  0.1287
  310MOL0     H41804   0.188   1.052   6.467 -1.0608 -2.4890 -0.0081
  310MOL0     H41805   0.111   1.137   6.604  1.1834 -0.4637  2.8077
  310MOL0     H41806   0.171   0.906   6.747  1.7919  0.1207  0.1513
  310MOL0     H41807   0.196   0.842   6.592  1.7023  1.1957  0.4509
  310MOL0     H41808  -0.053   1.000   6.626 -0.5634 -0.3925  1.8110
  310MOL0     H41809  -0.050   0.849   6.711 -1.9572  2.2311  1.1681
  310MOL0     H41810  -0.117   0.765   6.273 -1.6631 -1.1221 -2.3503
  310MOL0     H41811  -0.432   0.649   6.149 -1.7935  0.5116 -1.3423
  310MOL0     H41812  -0.424   0.809   6.105 -1.0520 -1.7909  0.1543
  310MOL0     H41813  -0.271   0.724   6.093 -0.3161 -0.7933 -0.1996
  310MOL0     H41814  -0.688   0.834   6.010 -0.6047 -1.2566 -1.5088
  310MOL0     H41815  -0.906   0.838   5.889  0.1206  0.9227  0.4633
  310MOL0     H41816  -1.126   0.516   6.051  1.5884  2.8269  4.1883
  310MOL0     H41817  -1.258   0.602   6.113  0.6166 -2.2056  1.0032
  310MOL0     H41818  -1.332   0.639   5.865  2.1977  1.9546  0.4561
  310MOL0     H41819  -1.237   0.487   5.838 -1.1167 -1.4771 -0.6650
  310MOL0     H41820  -1.374   0.379   6.028 -0.6592 -0.0696  0.0173
  310MOL0     H41821  -1.447   0.393   5.874 -2.4957 -0.3003  1.3792
  310MOL0     H41822  -1.486   0.619   6.075  3.6576 -2.2806  0.0152
  310MOL0     H41823  -1.577   0.581   5.931  0.0398 -1.4980 -1.7377
  310MOL0     H41824  -1.578   0.406   6.181  0.1085 -1.8652 -1.3100
  310MOL0     H41825  -1.640   0.356   6.033  0.2428 -0.9102  1.5550
  310MOL0     H41826  -1.751   0.605   6.184 -1.4342 -0.0209  0.3984
  310MOL0     H41827  -1.804   0.551   6.028  2.4771  0.0267 -0.5669
  310MOL0     H41828  -1.850   0.324   6.125 -0.0985  0.0439 -0.9142
  310MOL0     H41829  -1.948   0.449   6.198  0.7896  0.9957  0.8473
  310MOL0     H41830  -1.792   0.454   6.391 -1.8260  0.3843 -0.2071
  310MOL0     H41831  -1.710   0.313   6.317 -1.9869 -0.5386 -0.1107
  310MOL0     H41832  -1.069   0.631   6.250  2.8948 -1.2420  2.2652
  310MOL0     H41833  -0.847   0.639   6.357  0.0002  0.3062  0.7560
  310MOL0     H41834  -0.477   0.875   6.594 -1.0072 -1.0028 -0.2095
  310MOL0     H41835  -0.267   0.893   6.664 -0.6654  1.4448 -0.1253
  310MOL0     H41836   1.240   1.959   5.712 -0.6668 -1.7082 -0.1621
  310MOL0     H41837   1.473   1.986   5.700 -1.0868 -0.4984 -0.5400
  310MOL0     H41838   1.890   1.555   5.687  0.2475 -1.2347  2.7522
  310MOL0     H41839   2.146   1.571   5.681 -0.8759 -1.1647 -1.1312
  310MOL0     H41840   2.281   1.936   5.658  2.0554  0.0227 -1.1499
  310MOL0     H41841   2.332   1.960   5.823 -0.9386 -1.7639  0.8226
  310MOL0     H41842   2.497   1.830   5.595 -1.2779  1.5238 -1.5634
  310MOL0     H41843   2.544   1.845   5.773  0.1923  1.0246 -0.3771
  310MOL0     H41844   2.526   2.099   5.741 -0.2160 -0.8765  0.5064
  310MOL0     H41845   2.462   2.072   5.581  0.9970  0.9595 -0.5137
  310MOL0     H41846   2.686   2.135   5.542 -0.5348 -1.0864 -2.7048
  310MOL0     H41847   2.654   1.959   5.506 -2.0882 -3.7093  3.5360
  310MOL0     H41848   2.935   1.932   5.815 -1.4642  0.2716  2.1556
  310MOL0     H41849   2.100   1.945   5.895 -0.6048 -0.6278  1.9581
  310MOL0     H41850   1.876   1.933   5.873  1.0747 -1.0025  2.9546
  311MOL0     O41851  10.700   3.085  11.056  0.2089  0.1995  0.3540
  311MOL0     C41852  10.822   3.083  11.038  0.0364 -0.3647  0.0436
  311MOL0     O41853  10.897   3.020  10.946 -0.3599  0.3893  0.3400
  311MOL0     C41854  10.834   2.918  10.869  0.0102  0.5333  0.5174
  311MOL0     C41855  10.754   2.950  10.764  0.1913  0.7097  0.5361
  311MOL0     C41856  10.707   2.854  10.675  0.4075 -0.1030  0.3170
  311MOL0     C41857  10.731   2.718  10.690  0.4651 -0.4358  0.3370
  311MOL0     O41858  10.691   2.634  10.589 -0.0827  0.2098 -0.3989
  311MOL0     C41859  10.620   2.528  10.646  0.0641  0.4435 -0.4485
  311MOL0     C41860  10.472   2.562  10.681  0.0698  0.6212 -0.1934
  311MOL0     C41861  10.401   2.606  10.551  0.5658  0.1878  0.4219
  311MOL0     C41862  10.255   2.579  10.568  0.0339  0.2349  0.4673
  311MOL0     C41863  10.167   2.620  10.452 -0.5823 -0.4067  0.1365
  311MOL0     C41864  10.027   2.604  10.488  0.4383 -0.5268  0.3532
  311MOL0     C41865   9.942   2.642  10.369  0.7623  0.1217  0.5696
  311MOL0     C41866   9.797   2.606  10.392  0.1060  0.3875  0.2401
  311MOL0     N41867   9.721   2.639  10.269  0.1285  0.3779  0.3579
  311MOL0     C41868   9.658   2.758  10.238  0.5928 -0.0812 -0.3092
  311MOL0     C41869   9.602   2.732  10.117  0.4392  0.0284 -0.2465
  311MOL0     C41870   9.497   2.823  10.056 -0.1030  0.1115 -0.3020
  311MOL0     C41871   9.357   2.790  10.092 -0.1938  0.2034 -0.5788
  311MOL0     C41872   9.295   2.894  10.183  0.3542  0.7179 -0.2754
  311MOL0     C41873   9.144   2.885  10.202 -0.8161  0.3294 -0.5136
  311MOL0     O41874   9.105   2.955  10.323 -0.7950 -0.5047  0.3491
  311MOL0     C41875   8.971   2.981  10.338 -0.1151  0.7127  0.1881
  311MOL0     C41876   8.879   2.877  10.343  0.1184  0.4866  0.4273
  311MOL0     C41877   8.748   2.905  10.353  0.0226 -0.2134 -0.5063
  311MOL0     C41878   8.642   2.791  10.347 -0.4123 -0.2033 -0.5459
  311MOL0     C41879   8.700   3.037  10.362 -0.4680 -0.6545  0.3751
  311MOL0     C41880   8.556   3.076  10.386 -0.1755  0.9265  0.0850
  311MOL0     O41881   8.490   3.155  10.295  0.7666  0.5758  0.4104
  311MOL0     C41882   8.353   3.169  10.310  0.4635  0.3111  0.5226
  311MOL0     C41883   8.288   3.279  10.378 -0.8259  0.8637 -0.0267
  311MOL0     C41884   8.146   3.286  10.373 -0.0510 -0.6919  0.6523
  311MOL0     C41885   8.066   3.190  10.304  0.7771 -0.3254 -0.1289
  311MOL0     O41886   7.924   3.202  10.289  0.0637  0.0150 -0.0430
  311MOL0     C41887   7.863   3.321  10.348  0.1781  0.5615 -0.1707
  311MOL0     C41888   7.714   3.321  10.334  0.1583  0.2295  0.3324
  311MOL0     C41889   7.660   3.465  10.318  0.3420  0.2387  0.1360
  311MOL0     C41890   7.510   3.443  10.278 -0.2133  0.3812 -0.1044
  311MOL0     C41891   7.436   3.567  10.235 -0.3256 -0.0920 -0.5361
  311MOL0     C41892   7.301   3.520  10.179  0.1950 -0.3720  0.1142
  311MOL0     C41893   7.242   3.642  10.108  0.2378 -0.1257 -0.1802
  311MOL0     C41894   7.104   3.610  10.057 -0.3792  0.3480 -0.1515
  311MOL0    Cl41895   7.125   3.496   9.922  0.0623  0.1256  0.1394
  311MOL0     C41896   8.134   3.090  10.231  0.0725 -0.3340  0.6495
  311MOL0     C41897   8.277   3.081  10.235 -0.2312 -0.2290  0.0786
  311MOL0     O41898   8.504   3.031  10.489 -0.3491  0.0605 -0.1043
  311MOL0     C41899   8.789   3.148  10.366 -0.6754  1.1017  0.0626
  311MOL0     C41900   8.925   3.106  10.342 -0.0382 -0.2460 -0.2822
  311MOL0     N41901   9.645   2.609  10.067 -1.5361  0.3924  0.0060
  311MOL0     N41902   9.717   2.552  10.161  0.1025 -0.2969 -0.1438
  311MOL0     C41903  10.799   2.683  10.806  0.0432 -0.2228 -0.3302
  311MOL0     C41904  10.857   2.781  10.892  0.6894 -0.1625  0.1883
  311MOL0     C41905  10.887   3.179  11.124  0.0247 -0.3903 -1.1351
  311MOL0     C41906  11.018   3.216  11.093  0.4922  0.5445  0.1296
  311MOL0     C41907  11.083   3.321  11.164 -0.3449 -0.0040  0.0315
  311MOL0     C41908  11.022   3.382  11.276  0.7604  0.4969  0.1633
  311MOL0     O41909  11.069   3.480  11.359 -0.6233  0.1986 -0.0767
  311MOL0     C41910  11.206   3.516  11.329 -0.0839 -0.6788  0.2948
  311MOL0     C41911  11.260   3.632  11.408  0.4301  0.2559  0.0505
  311MOL0     C41912  11.257   3.593  11.557  0.4805 -0.6531 -0.1230
  311MOL0     C41913  11.367   3.667  11.643 -0.1725  0.2321 -0.0802
  311MOL0     C41914  11.505   3.632  11.595 -0.2189 -0.5673 -0.1187
  311MOL0     C41915  11.624   3.625  11.569 -0.2055  0.3174  0.6176
  311MOL0     C41916  10.889   3.346  11.305  0.2300 -0.1447  0.0056
  311MOL0     C41917  10.825   3.242  11.238 -0.5559 -0.8135 -0.7966
  311MOL0     H41918  10.742   3.057  10.753 -1.9067  0.5863  1.2249
  311MOL0     H41919  10.663   2.881  10.580  1.2721 -1.8749 -0.6487
  311MOL0     H41920  10.613   2.449  10.571  1.2662  0.8530 -1.0194
  311MOL0     H41921  10.669   2.491  10.736 -0.6488  3.0803  1.1326
  311MOL0     H41922  10.419   2.473  10.718 -1.2699  1.1953 -0.6787
  311MOL0     H41923  10.474   2.647  10.750  1.5275  0.7929 -0.4115
  311MOL0     H41924  10.422   2.712  10.534  1.6536  0.2332  1.8486
  311MOL0     H41925  10.432   2.554  10.461  0.8396 -0.6844  1.0094
  311MOL0     H41926  10.238   2.473  10.589 -1.4484 -0.0800 -1.8826
  311MOL0     H41927  10.218   2.637  10.653 -3.7276  0.6680 -1.2410
  311MOL0     H41928  10.183   2.725  10.425 -1.1846 -0.5239 -0.7391
  311MOL0     H41929  10.189   2.563  10.361 -1.7800 -0.0296 -0.4198
  311MOL0     H41930   9.996   2.507  10.527 -1.9577  0.7077  1.7274
  311MOL0     H41931  10.006   2.672  10.570 -1.4301  0.5124 -0.9052
  311MOL0     H41932   9.946   2.749  10.347  1.7892  0.3532  1.7590
  311MOL0     H41933   9.971   2.581  10.283 -1.3108  0.7526 -0.6383
  311MOL0     H41934   9.758   2.671  10.472  1.2793  0.3631  0.8420
  311MOL0     H41935   9.778   2.501  10.413  1.8254  0.4450  2.3976
  311MOL0     H41936   9.650   2.851  10.293 -0.5934  0.7120 -1.7233
  311MOL0     H41937   9.511   2.930  10.073 -0.6154  0.2046 -0.4637
  311MOL0     H41938   9.497   2.811   9.948 -0.4764  1.5579 -0.4849
  311MOL0     H41939   9.343   2.690  10.135 -5.1581  0.4965 -0.9208
  311MOL0     H41940   9.295   2.785  10.002  1.1446 -1.8693 -1.4650
  311MOL0     H41941   9.326   2.994  10.153 -0.4016  0.8300 -0.7026
  311MOL0     H41942   9.348   2.881  10.278  2.0272  0.4854 -1.1919
  311MOL0     H41943   9.113   2.781  10.199 -0.3986  0.1591  0.6170
  311MOL0     H41944   9.095   2.938  10.119 -0.6293  3.5068  1.2266
  311MOL0     H41945   8.901   2.771  10.343 -4.4281 -0.7050 -1.4085
  311MOL0     H41946   8.564   2.818  10.275  0.6223  1.1168 -1.2163
  311MOL0     H41947   8.682   2.693  10.320 -2.5383 -1.6294  1.1726
  311MOL0     H41948   8.603   2.784  10.449  4.6529 -2.6270  1.5881
  311MOL0     H41949   8.356   3.355  10.417 -0.3325  1.0486 -1.1843
  311MOL0     H41950   8.104   3.373  10.422  0.1937 -0.7967  1.0516
  311MOL0     H41951   7.901   3.326  10.450  2.1523 -3.3425 -0.5200
  311MOL0     H41952   7.890   3.412  10.294 -1.5727 -0.6243 -3.3168
  311MOL0     H41953   7.692   3.270  10.239  0.9872  1.3884 -0.5121
  311MOL0     H41954   7.684   3.269  10.425  1.3430 -0.8770  0.1194
  311MOL0     H41955   7.717   3.517  10.241  1.6838 -0.2893  0.7423
  311MOL0     H41956   7.656   3.518  10.414 -0.3595 -0.0818  0.2954
  311MOL0     H41957   7.505   3.369  10.197  1.0471  0.7094 -0.5016
  311MOL0     H41958   7.468   3.401  10.370  0.9046  1.2709  0.8423
  311MOL0     H41959   7.485   3.623  10.155  0.4420  3.7535  2.3504
  311MOL0     H41960   7.422   3.625  10.327 -0.8431 -2.1169  0.7410
  311MOL0     H41961   7.302   3.428  10.120 -2.7689 -0.4099 -0.0438
  311MOL0     H41962   7.244   3.487  10.267 -0.2394 -2.6490 -0.9619
  311MOL0     H41963   7.316   3.678  10.036  0.5419  0.5603  0.4671
  311MOL0     H41964   7.239   3.718  10.186  1.4420 -1.6758  1.4544
  311MOL0     H41965   7.040   3.693  10.028 -1.7112 -1.3051 -2.2946
  311MOL0     H41966   7.042   3.563  10.134 -4.1029  0.2301 -2.9494
  311MOL0     H41967   8.089   3.013  10.169 -0.5545 -0.2568  1.0085
  311MOL0     H41968   8.321   3.007  10.169 -1.5792 -0.3568 -0.7050
  311MOL0     H41969   8.746   3.246  10.381  0.7007  1.7048  0.2624
  311MOL0     H41970   9.003   3.180  10.355  0.5913 -1.1672  1.6557
  311MOL0     H41971  10.828   2.579  10.819  0.8824 -0.3733 -2.7966
  311MOL0     H41972  10.905   2.759  10.986 -1.0393 -0.7550  0.9790
  311MOL0     H41973  11.070   3.176  11.007 -0.3535 -1.9026  0.6933
  311MOL0     H41974  11.179   3.351  11.124  0.2518 -1.1933  0.5143
  311MOL0     H41975  11.275   3.432  11.340  0.6448 -0.2072 -0.5283
  311MOL0     H41976  11.203   3.546  11.223 -0.3430  0.2995  0.5736
  311MOL0     H41977  11.209   3.725  11.383  0.7441 -0.0599 -1.8954
  311MOL0     H41978  11.363   3.640  11.371  0.4975  1.9939  0.5189
  311MOL0     H41979  11.271   3.487  11.582 -0.9189 -0.6032  1.0355
  311MOL0     H41980  11.156   3.615  11.594  1.5684  0.8768  2.1860
  311MOL0     H41981  11.339   3.640  11.745 -2.2179 -1.2035 -0.9360
  311MOL0     H41982  11.355   3.774  11.628  2.0449  0.3889 -1.0476
  311MOL0     H41983  11.729   3.642  11.556 -0.0031 -0.3543  1.3342
  311MOL0     H41984  10.836   3.396  11.385 -1.4353 -0.6357 -0.7597
  311MOL0     H41985  10.719   3.226  11.256 -0.1603 -2.3510  0.4164
  312MOL0     O41986  11.047  10.756   9.508 -0.4465  0.2868  1.0274
  312MOL0     C41987  11.104  10.710   9.416 -0.8025  0.3907 -0.6009
  312MOL0     O41988  11.055  10.676   9.296  0.0782  0.2426 -0.2710
  312MOL0     C41989  10.917  10.682   9.287  0.4546 -0.7400 -0.0546
  312MOL0     C41990  10.864  10.732   9.167  0.7065 -0.6538 -0.2982
  312MOL0     C41991  10.731  10.721   9.136  0.1989 -0.1201 -0.0019
  312MOL0     C41992  10.635  10.675   9.232 -1.1865  0.6927  0.0568
  312MOL0     O41993  10.512  10.677   9.186 -0.0110  0.2663  0.1837
  312MOL0     C41994  10.408  10.637   9.274  1.0153  0.0166 -0.1816
  312MOL0     C41995  10.279  10.692   9.226  0.6846  0.4233 -0.2011
  312MOL0     C41996  10.156  10.672   9.313 -0.6360 -0.6521 -0.4239
  312MOL0     C41997  10.093  10.531   9.329  0.2761 -0.4446  0.8545
  312MOL0     C41998   9.947  10.544   9.377 -0.2304 -0.2157  0.5079
  312MOL0     C41999   9.879  10.401   9.375 -0.2850 -1.0791  0.2860
  312MOL0     C42000   9.740  10.406   9.435  0.4421  0.4490  0.3252
  312MOL0     C42001   9.730  10.445   9.585  0.3541  0.4587 -0.0920
  312MOL0     N42002   9.592  10.415   9.634 -0.4448 -0.6327 -0.1407
  312MOL0     C42003   9.486  10.500   9.601  0.0986  0.7121  0.0090
  312MOL0     C42004   9.380  10.432   9.651  0.3920  0.9261 -0.4688
  312MOL0     C42005   9.250  10.465   9.624  0.4107  0.2677 -0.4065
  312MOL0     C42006   9.150  10.423   9.725 -0.2768 -0.5041 -0.3565
  312MOL0     C42007   9.010  10.485   9.707 -0.3059  0.1962 -0.3220
  312MOL0     C42008   8.907  10.431   9.812 -0.2225  0.5209 -0.5269
  312MOL0     O42009   8.783  10.501   9.790  0.2495  0.9045 -0.5338
  312MOL0     C42010   8.673  10.457   9.855  0.2227 -0.0522  0.4452
  312MOL0     C42011   8.667  10.373   9.964 -0.6624  0.8647 -0.2434
  312MOL0     C42012   8.554  10.332  10.027  0.9945  0.4324  0.1195
  312MOL0     C42013   8.563  10.250  10.160  0.4239  0.0642 -0.1522
  312MOL0     C42014   8.421  10.362   9.979  0.0383 -0.8122 -0.0001
  312MOL0     C42015   8.281  10.330  10.026 -0.3329  0.4796 -0.9371
  312MOL0     O42016   8.171  10.394   9.980  0.4129 -0.0112  0.1365
  312MOL0     C42017   8.064  10.428  10.057 -0.1031 -0.6478  0.1275
  312MOL0     C42018   8.070  10.425  10.196  0.3271  0.0191  0.7059
  312MOL0     C42019   7.960  10.472  10.267  0.4515  0.2138  1.0989
  312MOL0     C42020   7.842  10.512  10.198 -0.0011 -0.7963  0.5449
  312MOL0     O42021   7.733  10.566  10.259  0.0685 -0.5395  0.3882
  312MOL0     C42022   7.689  10.497  10.376 -0.3751  0.3032 -0.6554
  312MOL0     C42023   7.546  10.526  10.403 -0.3625 -0.6596 -0.7401
  312MOL0     C42024   7.492  10.475  10.534 -0.8228 -0.1985  0.1347
  312MOL0     C42025   7.345  10.492  10.551  0.9323  0.2592 -0.4185
  312MOL0     C42026   7.295  10.460  10.689 -0.1829  0.2762 -0.3470
  312MOL0     C42027   7.331  10.567  10.796  0.2864  0.2589 -0.4474
  312MOL0     C42028   7.235  10.686  10.807  0.0156 -0.2093  0.0672
  312MOL0     C42029   7.259  10.768  10.929  0.1427 -0.6803 -0.2259
  312MOL0    Cl42030   7.135  10.905  10.950  0.2184 -0.4287  0.1209
  312MOL0     C42031   7.844  10.526  10.061  1.0777 -0.8874  0.2497
  312MOL0     C42032   7.945  10.474   9.988 -0.5050  0.6410  0.1898
  312MOL0     O42033   8.281  10.232  10.096 -0.4990  0.3582 -0.3464
  312MOL0     C42034   8.419  10.437   9.858 -0.9592 -0.3978 -0.8108
  312MOL0     C42035   8.543  10.490   9.804  0.0556  0.2968  0.2182
  312MOL0     N42036   9.418  10.309   9.701 -0.5509  0.4403 -0.0272
  312MOL0     N42037   9.549  10.298   9.683  0.1472 -1.0094 -0.2813
  312MOL0     C42038  10.690  10.622   9.350 -0.2761 -0.3866 -0.2932
  312MOL0     C42039  10.829  10.623   9.376  0.3074  0.5948 -0.3137
  312MOL0     C42040  11.245  10.705   9.435  0.2170 -0.2938 -0.5614
  312MOL0     C42041  11.304  10.726   9.564 -0.1534  0.3978  0.5728
  312MOL0     C42042  11.443  10.707   9.585 -0.6791 -0.5928 -0.3785
  312MOL0     C42043  11.525  10.674   9.480 -0.0947 -0.9476  0.2197
  312MOL0     O42044  11.661  10.678   9.489 -0.3334  0.3875  0.1206
  312MOL0     C42045  11.725  10.692   9.617 -0.1595 -0.5728  0.1547
  312MOL0     C42046  11.877  10.731   9.610 -0.5651 -0.4391  0.0110
  312MOL0     C42047  11.912  10.860   9.536 -0.4310  0.7913  0.1937
  312MOL0     C42048  12.059  10.900   9.552 -0.6215 -0.4540 -0.6151
  312MOL0     C42049  12.091  11.024   9.480  0.2483  0.1638  0.7511
  312MOL0     C42050  12.137  11.120   9.417 -0.4043 -0.5286  0.0907
  312MOL0     C42051  11.467  10.654   9.353  0.2702 -0.8695  0.6716
  312MOL0     C42052  11.329  10.669   9.338 -0.4340  0.0635  0.6205
  312MOL0     H42053  10.930  10.790   9.103  0.4505 -0.0285 -0.0127
  312MOL0     H42054  10.697  10.768   9.044  0.0159 -0.1756  0.0367
  312MOL0     H42055  10.411  10.529   9.293 -0.5404  0.0553  0.4581
  312MOL0     H42056  10.422  10.681   9.373  0.5986 -1.2491  0.4736
  312MOL0     H42057  10.293  10.797   9.199 -3.6064  2.1220  3.1024
  312MOL0     H42058  10.249  10.645   9.131  0.2492 -0.7733  0.5054
  312MOL0     H42059  10.164  10.717   9.412  0.9108 -1.6774 -0.0425
  312MOL0     H42060  10.087  10.738   9.259 -1.5071 -0.9949  0.2615
  312MOL0     H42061  10.099  10.477   9.235 -1.4144  0.4460  0.1974
  312MOL0     H42062  10.143  10.470   9.405 -1.0820 -2.1392  0.4240
  312MOL0     H42063   9.955  10.574   9.482  0.6464 -4.0151  1.7151
  312MOL0     H42064   9.891  10.605   9.307 -0.4227 -0.5973  0.3251
  312MOL0     H42065   9.886  10.346   9.281 -0.1308  1.5545 -1.3478
  312MOL0     H42066   9.932  10.338   9.446  2.8609 -0.4135 -1.2847
  312MOL0     H42067   9.673  10.469   9.377 -2.1031 -1.6925  0.7606
  312MOL0     H42068   9.696  10.306   9.436 -0.7313  0.9570  1.4949
  312MOL0     H42069   9.750  10.553   9.580 -1.3020  0.7889 -0.2831
  312MOL0     H42070   9.800  10.394   9.652  1.1067  1.1170 -0.3617
  312MOL0     H42071   9.483  10.595   9.549 -2.8340  0.8168  0.1589
  312MOL0     H42072   9.249  10.573   9.610  0.1138  0.1071 -1.7947
  312MOL0     H42073   9.229  10.418   9.527 -0.3437 -0.2446 -0.0120
  312MOL0     H42074   9.197  10.437   9.822  1.8750 -3.1824 -0.9001
  312MOL0     H42075   9.148  10.316   9.705  0.4617 -0.6831  0.5130
  312MOL0     H42076   8.970  10.466   9.607 -3.4052 -0.2718  0.8855
  312MOL0     H42077   9.010  10.593   9.719 -0.0077  0.3535 -1.6299
  312MOL0     H42078   8.951  10.440   9.912  0.4026  0.2890 -0.7763
  312MOL0     H42079   8.883  10.326   9.793  1.5719  0.0213 -0.1645
  312MOL0     H42080   8.762  10.344  10.008 -0.6682  0.5449 -0.4424
  312MOL0     H42081   8.670  10.227  10.171  0.4900  1.0139  1.7807
  312MOL0     H42082   8.541  10.318  10.243  1.1430  1.0239 -0.7185
  312MOL0     H42083   8.503  10.159  10.164  0.2787  0.0980 -1.2587
  312MOL0     H42084   8.164  10.397  10.240  1.1995  1.1910 -0.3163
  312MOL0     H42085   7.967  10.465  10.375  5.3745 -3.9001  0.9049
  312MOL0     H42086   7.700  10.391  10.354 -1.1122  0.5300 -2.2262
  312MOL0     H42087   7.751  10.539  10.456  1.0112  1.3385 -2.2097
  312MOL0     H42088   7.519  10.632  10.399 -0.0810 -0.4971  0.8672
  312MOL0     H42089   7.493  10.475  10.322  1.7207  0.7308 -3.1094
  312MOL0     H42090   7.556  10.506  10.617 -0.5725 -3.3052  1.2104
  312MOL0     H42091   7.503  10.367  10.535 -0.4588 -0.5380 -5.5416
  312MOL0     H42092   7.321  10.598  10.538  1.0655  0.3781  0.2818
  312MOL0     H42093   7.292  10.431  10.477  0.8748 -1.7803  1.1932
  312MOL0     H42094   7.352  10.373  10.722  1.4274  1.3618 -0.1579
  312MOL0     H42095   7.186  10.449  10.683 -0.1964  0.8487 -1.3755
  312MOL0     H42096   7.328  10.504  10.886 -2.1844  0.0888 -0.5775
  312MOL0     H42097   7.432  10.602  10.776  2.2909 -4.0595  0.8088
  312MOL0     H42098   7.139  10.634  10.816  0.6443 -0.9973  3.1742
  312MOL0     H42099   7.248  10.754  10.722 -1.5273  2.5545  1.8976
  312MOL0     H42100   7.354  10.822  10.921 -1.4754  2.8433  1.7777
  312MOL0     H42101   7.259  10.703  11.017  0.6901 -0.0131  0.2789
  312MOL0     H42102   7.755  10.566  10.013 -0.9080 -0.8816  3.6215
  312MOL0     H42103   7.959  10.478   9.881  3.9337  2.2019  0.5809
  312MOL0     H42104   8.323  10.465   9.816 -1.1459  0.5611  0.1994
  312MOL0     H42105   8.530  10.542   9.710 -2.5930 -0.8426 -0.1398
  312MOL0     H42106  10.620  10.596   9.430 -0.1746 -0.0403 -0.0877
  312MOL0     H42107  10.865  10.588   9.473  2.6968  0.7700 -1.0645
  312MOL0     H42108  11.247  10.751   9.654 -0.7102 -0.7800  0.5711
  312MOL0     H42109  11.479  10.718   9.687  0.5366 -0.2523 -0.8359
  312MOL0     H42110  11.670  10.768   9.674  0.3954  1.7818 -2.2631
  312MOL0     H42111  11.713  10.594   9.663  2.3995 -1.1914 -0.3682
  312MOL0     H42112  11.927  10.647   9.562 -1.6077 -1.4926  0.7278
  312MOL0     H42113  11.918  10.739   9.711  0.4506  3.2989 -0.5526
  312MOL0     H42114  11.844  10.940   9.567 -0.7288  1.3757 -1.8038
  312MOL0     H42115  11.895  10.834   9.431 -2.4278 -2.1174  1.1077
  312MOL0     H42116  12.126  10.820   9.518 -1.3215 -1.0020 -0.7044
  312MOL0     H42117  12.088  10.920   9.655 -0.8934 -1.8591 -0.2528
  312MOL0     H42118  12.169  11.216   9.381 -3.3335  0.1865 -0.8476
  312MOL0     H42119  11.530  10.627   9.269 -2.7075  1.0785 -2.4567
  312MOL0     H42120  11.287  10.629   9.246  1.7234 -0.2062 -0.2916
  313MOL0     O42121   4.035   3.671   9.372 -0.5373 -0.6529  0.5907
  313MOL0     C42122   4.131   3.717   9.433 -0.1196  0.7846 -0.4744
  313MOL0     O42123   4.128   3.781   9.556  0.0450  0.3802 -0.4090
  313MOL0     C42124   4.000   3.789   9.619 -1.0487 -0.7559  0.1211
  313MOL0     C42125   3.897   3.877   9.578 -1.2613  0.2163 -0.3332
  313MOL0     C42126   3.773   3.870   9.647 -0.3920  0.0979  0.1621
  313MOL0     C42127   3.754   3.772   9.741 -0.1157  0.0738  0.4524
  313MOL0     O42128   3.628   3.744   9.780  0.0801  0.1159 -0.1280
  313MOL0     C42129   3.578   3.613   9.737  0.3831 -0.6661 -0.1276
  313MOL0     C42130   3.449   3.623   9.648 -0.2020  0.0810 -0.4704
  313MOL0     C42131   3.346   3.715   9.710 -0.2838  0.2268  0.4905
  313MOL0     C42132   3.296   3.828   9.617 -0.7686  0.6977 -1.2085
  313MOL0     C42133   3.216   3.794   9.493 -1.2927 -0.1703  0.0818
  313MOL0     C42134   3.104   3.696   9.525 -0.5838 -0.3305  0.4163
  313MOL0     C42135   3.026   3.663   9.396  0.2326 -0.0597  0.1365
  313MOL0     C42136   2.958   3.522   9.405  0.2015  0.6579  0.3605
  313MOL0     N42137   2.866   3.495   9.297  0.2991  0.0397 -0.0593
  313MOL0     C42138   2.904   3.447   9.171 -0.4927 -0.2152  0.5470
  313MOL0     C42139   2.798   3.426   9.098 -0.3174  0.5132  0.3639
  313MOL0     C42140   2.805   3.374   8.958  1.2820 -0.4878  0.4858
  313MOL0     C42141   2.801   3.498   8.860 -0.3676  0.3174 -0.0311
  313MOL0     C42142   2.665   3.539   8.822 -0.6156 -0.2795 -0.0491
  313MOL0     C42143   2.665   3.630   8.697 -0.3190  0.0916  0.0021
  313MOL0     O42144   2.673   3.556   8.571  1.0104  0.2264 -0.4102
  313MOL0     C42145   2.560   3.531   8.507  0.2352 -0.2072  0.6976
  313MOL0     C42146   2.497   3.636   8.440  0.4491 -0.0408 -0.1403
  313MOL0     C42147   2.377   3.621   8.366 -0.0819  0.0236  0.0501
  313MOL0     C42148   2.331   3.743   8.290  0.0592 -0.0055 -1.0884
  313MOL0     C42149   2.312   3.497   8.360 -0.0498  0.6197 -0.8282
  313MOL0     C42150   2.180   3.463   8.303 -0.2516 -0.4045 -0.0180
  313MOL0     O42151   2.141   3.537   8.197 -0.0907  0.2277  0.6519
  313MOL0     C42152   2.020   3.510   8.150  0.6616  0.1145 -1.2118
  313MOL0     C42153   1.984   3.388   8.099 -0.1057 -0.0240  0.4915
  313MOL0     C42154   1.852   3.360   8.054  0.5535  0.3282 -0.1830
  313MOL0     C42155   1.754   3.463   8.041 -0.5296  0.2990 -0.1384
  313MOL0     O42156   1.642   3.442   7.963 -0.1683  0.2972 -0.2968
  313MOL0     C42157   1.609   3.309   7.930  0.5127 -0.2797 -0.1218
  313MOL0     C42158   1.465   3.287   7.884  0.3838  0.5445 -0.2756
  313MOL0     C42159   1.370   3.307   8.004 -0.8119 -0.5817  0.3026
  313MOL0     C42160   1.225   3.253   7.997  0.2276 -0.3976  0.0398
  313MOL0     C42161   1.130   3.323   7.895 -0.4832 -0.4556  0.0665
  313MOL0     C42162   0.980   3.297   7.914 -0.2210  0.1966  0.2370
  313MOL0     C42163   0.896   3.391   7.821 -0.1425  0.8511 -0.2976
  313MOL0     C42164   0.765   3.436   7.881 -0.1829  0.1150 -0.3045
  313MOL0    Cl42165   0.660   3.299   7.872 -0.2800  0.0513  0.4567
  313MOL0     C42166   1.789   3.593   8.090 -0.0746 -0.1332  0.2703
  313MOL0     C42167   1.923   3.611   8.131  0.0684 -0.6523  0.0779
  313MOL0     O42168   2.123   3.372   8.359 -0.1240 -0.4486  0.0119
  313MOL0     C42169   2.384   3.392   8.427 -0.9657 -0.1859 -1.1091
  313MOL0     C42170   2.509   3.405   8.489  0.5469  0.0652  0.0144
  313MOL0     N42171   2.687   3.466   9.177 -0.1291  0.0568 -0.0507
  313MOL0     N42172   2.728   3.499   9.296 -0.7162  0.2996  1.1914
  313MOL0     C42173   3.857   3.696   9.784  0.2947  0.7171  0.0939
  313MOL0     C42174   3.981   3.696   9.719  0.2971  0.0359 -0.6552
  313MOL0     C42175   4.264   3.706   9.375 -0.1854  1.2285 -0.0519
  313MOL0     C42176   4.381   3.764   9.434  0.3184  0.1291 -0.2477
  313MOL0     C42177   4.509   3.764   9.385 -0.0698 -0.2000  0.1648
  313MOL0     C42178   4.531   3.681   9.274 -1.1877 -0.1124  1.8588
  313MOL0     O42179   4.657   3.666   9.211  0.3640 -0.0297 -0.0114
  313MOL0     C42180   4.663   3.714   9.082  0.0525 -0.9727  0.0317
  313MOL0     C42181   4.803   3.695   9.012 -0.1553 -0.3723 -0.8835
  313MOL0     C42182   4.910   3.796   9.064  0.2812 -0.2165  0.3913
  313MOL0     C42183   5.018   3.807   8.954  0.7161  0.6029 -0.4008
  313MOL0     C42184   5.120   3.706   8.989  0.7455  0.3089  0.0546
  313MOL0     C42185   5.208   3.630   8.996  0.1340 -0.5801 -0.3997
  313MOL0     C42186   4.419   3.615   9.206 -0.6586 -1.1927 -0.1363
  313MOL0     C42187   4.295   3.634   9.262 -0.5703  0.7291 -0.5782
  313MOL0     H42188   3.912   3.958   9.507  0.4761  0.4572  0.2801
  313MOL0     H42189   3.692   3.933   9.611 -0.8505  1.2522  3.0305
  313MOL0     H42190   3.656   3.558   9.685 -0.9302 -1.0006 -1.8287
  313MOL0     H42191   3.554   3.560   9.830  2.2718  1.6462  1.8101
  313MOL0     H42192   3.468   3.659   9.547  0.6130  0.9932 -0.0014
  313MOL0     H42193   3.414   3.520   9.635 -0.7101  0.6664 -5.2358
  313MOL0     H42194   3.274   3.652   9.764  0.4410 -2.7618 -1.7263
  313MOL0     H42195   3.393   3.767   9.794 -0.3198  0.0647  0.6123
  313MOL0     H42196   3.231   3.894   9.675  1.3056  1.8315 -0.0389
  313MOL0     H42197   3.383   3.891   9.597 -0.0971 -0.5153 -2.2780
  313MOL0     H42198   3.176   3.892   9.465  0.6619  0.8725  0.7335
  313MOL0     H42199   3.276   3.754   9.411 -0.9454  1.0154 -0.2608
  313MOL0     H42200   3.141   3.603   9.571  1.2109  0.2372  0.1955
  313MOL0     H42201   3.034   3.737   9.598  1.6364  0.5917  2.1569
  313MOL0     H42202   2.949   3.739   9.384  1.2400  1.2523  1.6552
  313MOL0     H42203   3.082   3.668   9.301 -1.3359 -0.5065 -0.8521
  313MOL0     H42204   2.897   3.521   9.495 -1.7185  1.6377 -0.8621
  313MOL0     H42205   3.031   3.441   9.408  0.7769  1.2053  2.1204
  313MOL0     H42206   3.009   3.441   9.142  0.0121  3.5202  1.0723
  313MOL0     H42207   2.895   3.313   8.945  0.7339 -1.3565  0.6709
  313MOL0     H42208   2.720   3.306   8.953 -0.4146  1.5717 -4.0546
  313MOL0     H42209   2.851   3.467   8.767  1.0665  0.0595  0.7943
  313MOL0     H42210   2.848   3.588   8.901 -0.8824  0.1367  0.9837
  313MOL0     H42211   2.628   3.593   8.910  1.7562  1.6390 -0.1234
  313MOL0     H42212   2.605   3.451   8.799 -1.9258  0.2575  1.1280
  313MOL0     H42213   2.754   3.693   8.708 -0.2049 -0.1732  0.6479
  313MOL0     H42214   2.572   3.687   8.704 -0.1589  0.2324  1.1759
  313MOL0     H42215   2.553   3.729   8.441  0.5598 -0.1111  0.1587
  313MOL0     H42216   2.235   3.772   8.332  0.9389  0.1755  0.9344
  313MOL0     H42217   2.404   3.824   8.298  0.0971 -0.1169 -0.1988
  313MOL0     H42218   2.324   3.724   8.182 -2.3100  1.4183 -1.2449
  313MOL0     H42219   2.056   3.306   8.102 -0.1246 -0.3816 -3.8365
  313MOL0     H42220   1.847   3.261   8.012  0.3241 -0.7826  2.3095
  313MOL0     H42221   1.672   3.275   7.847  0.8568  2.5840 -1.1655
  313MOL0     H42222   1.622   3.234   8.008 -1.0814  0.4208  0.8593
  313MOL0     H42223   1.447   3.344   7.793  2.1957  0.8850 -0.4496
  313MOL0     H42224   1.441   3.184   7.854  0.1118  0.3929  0.4331
  313MOL0     H42225   1.361   3.416   8.012 -0.3654 -0.3955 -1.3027
  313MOL0     H42226   1.419   3.269   8.093  2.5635  0.8439 -0.7911
  313MOL0     H42227   1.223   3.145   7.976 -3.3148 -0.0433 -2.2986
  313MOL0     H42228   1.195   3.268   8.101  2.4311 -1.1154  0.8442
  313MOL0     H42229   1.170   3.297   7.797  2.4917  2.1450  0.4488
  313MOL0     H42230   1.145   3.431   7.902 -1.2111 -0.0143 -3.4340
  313MOL0     H42231   0.956   3.197   7.876  1.8683 -0.6017  0.9005
  313MOL0     H42232   0.951   3.321   8.017 -4.4660  3.1867 -1.3436
  313MOL0     H42233   0.882   3.338   7.726  4.1052 -1.2464  0.0492
  313MOL0     H42234   0.947   3.484   7.795 -1.9710  1.6882 -1.1563
  313MOL0     H42235   0.714   3.515   7.824  1.3735 -0.2924 -2.3539
  313MOL0     H42236   0.781   3.472   7.983  1.0572  0.2271 -0.5307
  313MOL0     H42237   1.710   3.667   8.081  0.7906  0.6379 -1.4467
  313MOL0     H42238   1.951   3.713   8.154 -2.5379  0.8306 -2.6463
  313MOL0     H42239   2.347   3.289   8.421 -2.1934  0.1061  0.6000
  313MOL0     H42240   2.546   3.313   8.535 -2.9744 -1.3693  0.3216
  313MOL0     H42241   3.832   3.625   9.862 -2.3170  1.4542  0.0262
  313MOL0     H42242   4.056   3.629   9.761 -0.0289  1.2775  2.2070
  313MOL0     H42243   4.370   3.820   9.527  0.1500 -1.0869  0.4789
  313MOL0     H42244   4.587   3.815   9.441 -0.8612  1.3642 -0.1091
  313MOL0     H42245   4.591   3.661   9.019 -0.2205  0.1601 -0.6414
  313MOL0     H42246   4.647   3.822   9.076  0.6105 -0.9288 -4.8725
  313MOL0     H42247   4.793   3.714   8.905 -1.0852  1.3135 -0.5457
  313MOL0     H42248   4.831   3.590   9.021  0.3468 -0.2103 -0.5052
  313MOL0     H42249   4.938   3.766   9.166 -0.7595 -1.1663  0.4131
  313MOL0     H42250   4.870   3.897   9.080  2.1580  0.9041 -1.4854
  313MOL0     H42251   5.053   3.910   8.960  1.1952  0.3965  0.5638
  313MOL0     H42252   4.986   3.784   8.852  1.5789 -1.4810 -0.2479
  313MOL0     H42253   5.290   3.561   8.997  1.0943  0.4264 -2.5551
  313MOL0     H42254   4.436   3.553   9.119  3.2484 -1.5882  0.6984
  313MOL0     H42255   4.209   3.586   9.216 -1.3441  1.1845  0.3552
  314MOL0     O42256   4.390   9.048   5.476  0.6770  0.3020  0.4120
  314MOL0     C42257   4.475   8.961   5.482  0.2317 -0.6263  1.4207
  314MOL0     O42258   4.463   8.849   5.560 -0.7073  0.0910  0.3557
  314MOL0     C42259   4.332   8.810   5.581 -0.8391 -0.5590 -0.0018
  314MOL0     C42260   4.261   8.729   5.492 -0.1977 -0.0550  0.1257
  314MOL0     C42261   4.126   8.692   5.511  0.1105 -0.6967 -0.2078
  314MOL0     C42262   4.051   8.744   5.624 -0.1771 -0.4707  0.2841
  314MOL0     O42263   3.916   8.731   5.640  0.5714  0.8513 -0.4099
  314MOL0     C42264   3.840   8.650   5.549 -0.3075 -0.2510 -0.1142
  314MOL0     C42265   3.792   8.527   5.637 -0.2784  0.3859 -1.0397
  314MOL0     C42266   3.677   8.450   5.574 -0.2705 -0.4785  0.2457
  314MOL0     C42267   3.655   8.315   5.652 -0.2442  0.4700  0.1632
  314MOL0     C42268   3.631   8.311   5.805 -0.3310  0.3883  0.0753
  314MOL0     C42269   3.493   8.375   5.824  0.1897 -0.5453 -0.3100
  314MOL0     C42270   3.437   8.359   5.973 -0.6366  0.5490 -0.1216
  314MOL0     C42271   3.431   8.208   6.005 -0.3424  0.1060 -0.0839
  314MOL0     N42272   3.350   8.194   6.127 -0.3742  0.0326  0.1560
  314MOL0     C42273   3.386   8.149   6.245  0.1421 -0.0289  0.1634
  314MOL0     C42274   3.276   8.146   6.324  0.1064 -0.0662 -0.1624
  314MOL0     C42275   3.287   8.108   6.468  0.4231  0.6092  0.7974
  314MOL0     C42276   3.215   7.981   6.496  0.1265 -0.2244  0.6442
  314MOL0     C42277   3.240   7.942   6.631 -0.1135 -0.0694  0.0329
  314MOL0     C42278   3.135   7.837   6.685  0.3853  0.8035 -0.4648
  314MOL0     O42279   3.150   7.709   6.618  0.2927 -0.4176 -0.7184
  314MOL0     C42280   3.045   7.615   6.642  0.2307  0.2553  0.7817
  314MOL0     C42281   2.932   7.639   6.727 -0.3903  0.0298  0.6681
  314MOL0     C42282   2.834   7.540   6.752 -0.4781  0.2573  0.1482
  314MOL0     C42283   2.722   7.589   6.845 -0.2674 -0.6851  0.3719
  314MOL0     C42284   2.829   7.424   6.669  0.0077  0.5529 -0.5304
  314MOL0     C42285   2.723   7.334   6.664 -0.3806  0.1899 -0.6327
  314MOL0     O42286   2.659   7.301   6.778  0.0008  0.0821 -0.0645
  314MOL0     C42287   2.534   7.259   6.760 -0.0414  0.9773  0.1554
  314MOL0     C42288   2.421   7.331   6.715  0.3050 -0.3076 -0.5428
  314MOL0     C42289   2.300   7.263   6.692 -0.0095  0.5646 -0.4765
  314MOL0     C42290   2.287   7.128   6.738  0.5371 -0.0392 -0.1532
  314MOL0     O42291   2.175   7.054   6.737 -0.1494 -0.5781 -1.0395
  314MOL0     C42292   2.061   7.081   6.655  0.2751  0.0356  1.2362
  314MOL0     C42293   1.966   6.962   6.639 -0.1460 -0.2517  0.1713
  314MOL0     C42294   1.870   6.945   6.747 -0.9087 -0.0484  0.4414
  314MOL0     C42295   1.801   6.811   6.730 -0.2456 -0.1267 -0.2130
  314MOL0     C42296   1.693   6.811   6.837  0.3552 -0.5620 -1.4274
  314MOL0     C42297   1.627   6.684   6.868 -0.7166  0.1550  0.3604
  314MOL0     C42298   1.541   6.687   7.002 -0.2522 -0.1080  1.0428
  314MOL0     C42299   1.469   6.557   7.018  0.3969 -0.3370 -0.0170
  314MOL0    Cl42300   1.353   6.553   6.875  0.1698  0.2789 -0.1346
  314MOL0     C42301   2.402   7.068   6.781  0.1818  0.3766  0.1929
  314MOL0     C42302   2.526   7.127   6.786 -0.0849  0.3594 -0.5005
  314MOL0     O42303   2.694   7.304   6.545  0.0189 -0.2420 -0.0775
  314MOL0     C42304   2.948   7.397   6.588  0.7673 -0.0142 -0.0033
  314MOL0     C42305   3.048   7.493   6.575 -0.4086 -0.5673  0.2362
  314MOL0     N42306   3.173   8.196   6.250 -0.9834  0.0870  0.3781
  314MOL0     N42307   3.219   8.223   6.129 -0.3084  0.0855  0.1259
  314MOL0     C42308   4.120   8.815   5.717 -0.4301  0.6387  0.1605
  314MOL0     C42309   4.256   8.847   5.695  0.7723 -0.0318  0.5902
  314MOL0     C42310   4.588   8.959   5.381 -0.5562  0.2576 -0.1656
  314MOL0     C42311   4.696   8.870   5.391  0.1754 -0.2223 -0.2668
  314MOL0     C42312   4.810   8.893   5.303  0.4544  0.6233  0.0662
  314MOL0     C42313   4.810   8.995   5.208 -0.9199  0.6113 -0.2256
  314MOL0     O42314   4.908   9.017   5.117  0.0342 -0.7764 -0.2058
  314MOL0     C42315   5.042   9.010   5.161 -0.2526  0.2040 -0.1101
  314MOL0     C42316   5.086   9.150   5.206  0.4196  0.3003 -0.8271
  314MOL0     C42317   5.217   9.156   5.280  0.1906  0.4008 -0.5029
  314MOL0     C42318   5.241   9.287   5.350 -0.3866 -0.3060  0.4077
  314MOL0     C42319   5.360   9.279   5.426 -0.2822  0.0793  0.1070
  314MOL0     C42320   5.466   9.249   5.471 -0.3140 -0.3676 -0.6340
  314MOL0     C42321   4.699   9.071   5.202  0.6261  0.1676 -0.1771
  314MOL0     C42322   4.587   9.064   5.286  0.0068 -0.2213  0.7765
  314MOL0     H42323   4.318   8.675   5.416 -0.1782 -1.7084  1.2749
  314MOL0     H42324   4.086   8.613   5.449 -0.3806 -1.6515  1.2785
  314MOL0     H42325   3.763   8.711   5.500  1.5558  1.1735 -1.3711
  314MOL0     H42326   3.903   8.610   5.470  1.8146  2.5153  0.0535
  314MOL0     H42327   3.878   8.460   5.652 -0.5268 -0.3323 -2.6038
  314MOL0     H42328   3.756   8.572   5.730 -0.2049 -1.9749  0.2258
  314MOL0     H42329   3.583   8.506   5.580 -1.1004 -1.6951 -0.8640
  314MOL0     H42330   3.694   8.440   5.466 -0.0094  0.0978  0.2306
  314MOL0     H42331   3.588   8.243   5.605  0.0136  1.3765 -1.7007
  314MOL0     H42332   3.750   8.264   5.630  0.4208  1.4787  0.6136
  314MOL0     H42333   3.628   8.206   5.835  0.4111  1.1664  3.2222
  314MOL0     H42334   3.709   8.361   5.863 -0.6389  1.1331 -0.1457
  314MOL0     H42335   3.504   8.480   5.797  1.8362 -0.5543  0.2444
  314MOL0     H42336   3.418   8.336   5.754 -2.5053  1.1502  1.4484
  314MOL0     H42337   3.492   8.410   6.053 -1.2252 -2.0833  2.1350
  314MOL0     H42338   3.332   8.389   5.968 -0.4919  0.7644 -3.1366
  314MOL0     H42339   3.532   8.170   6.024 -0.5655  0.2000  1.3633
  314MOL0     H42340   3.390   8.157   5.917  0.4806  1.4277 -1.2693
  314MOL0     H42341   3.483   8.115   6.280 -0.4023 -0.0713  1.7338
  314MOL0     H42342   3.388   8.122   6.506  1.0658 -0.1929 -0.5413
  314MOL0     H42343   3.226   8.186   6.515 -3.5525  0.5732 -3.4936
  314MOL0     H42344   3.265   7.912   6.428  0.1810 -0.5954  1.0637
  314MOL0     H42345   3.108   7.998   6.476  0.5749  2.4836  0.0715
  314MOL0     H42346   3.235   8.028   6.699  1.0731 -1.2768  1.7192
  314MOL0     H42347   3.342   7.904   6.641 -0.3304 -1.2499 -1.7785
  314MOL0     H42348   3.033   7.872   6.667  0.6227  1.1562 -1.1835
  314MOL0     H42349   3.144   7.838   6.794 -1.2856  0.4723 -0.2989
  314MOL0     H42350   2.927   7.730   6.786  0.7429  0.8413 -0.4244
  314MOL0     H42351   2.646   7.627   6.776  1.3947 -0.0260 -1.1956
  314MOL0     H42352   2.694   7.511   6.916 -3.3562  0.2783  0.3573
  314MOL0     H42353   2.751   7.677   6.903  1.0822  0.8252 -2.3896
  314MOL0     H42354   2.426   7.434   6.680 -0.3212 -0.5396 -1.3386
  314MOL0     H42355   2.225   7.311   6.631 -0.3482 -0.8015 -1.1735
  314MOL0     H42356   2.006   7.175   6.667 -1.0346  0.2559 -3.9629
  314MOL0     H42357   2.095   7.107   6.554 -1.4406 -2.8912 -0.2348
  314MOL0     H42358   1.906   6.983   6.550  0.4113  0.1187 -0.1282
  314MOL0     H42359   2.023   6.873   6.614  0.2067 -0.5134  1.8388
  314MOL0     H42360   1.792   7.022   6.748  1.4361  2.5316 -1.2453
  314MOL0     H42361   1.929   6.957   6.838  1.8948 -1.5583 -1.0508
  314MOL0     H42362   1.761   6.801   6.628  0.9693  1.5401 -0.8886
  314MOL0     H42363   1.878   6.737   6.755 -1.5930 -0.8579  2.1088
  314MOL0     H42364   1.625   6.891   6.804  0.3934 -0.6603 -1.7504
  314MOL0     H42365   1.734   6.850   6.931 -0.4672  0.8792 -1.6324
  314MOL0     H42366   1.568   6.657   6.780  2.3430 -2.0128 -1.2142
  314MOL0     H42367   1.702   6.606   6.879 -0.4737  0.2789 -0.3817
  314MOL0     H42368   1.466   6.766   6.994 -0.6423 -0.2956  2.5560
  314MOL0     H42369   1.605   6.704   7.089  2.0569  1.9567 -0.9088
  314MOL0     H42370   1.403   6.568   7.106  1.7943 -1.4038  1.2096
  314MOL0     H42371   1.538   6.473   7.019  0.4061 -0.3384 -0.6392
  314MOL0     H42372   2.410   6.966   6.817  1.3277 -0.5209 -2.3551
  314MOL0     H42373   2.618   7.080   6.819  0.9976  1.6830 -1.5446
  314MOL0     H42374   2.964   7.306   6.529  0.4832  0.7015 -1.2222
  314MOL0     H42375   3.137   7.467   6.517 -1.0517 -2.7174  0.1085
  314MOL0     H42376   4.063   8.845   5.804 -1.1420  1.4783 -0.5788
  314MOL0     H42377   4.290   8.912   5.775 -2.2671  0.7742  1.3611
  314MOL0     H42378   4.696   8.787   5.461  1.2697 -0.3498 -0.4032
  314MOL0     H42379   4.895   8.827   5.315  0.0178 -0.7167 -3.2143
  314MOL0     H42380   5.057   8.946   5.248  0.7037  2.1377  1.2241
  314MOL0     H42381   5.102   8.978   5.076  0.0384  1.7329 -0.5061
  314MOL0     H42382   5.008   9.195   5.267  0.0369  0.0161 -1.0992
  314MOL0     H42383   5.090   9.213   5.117 -2.0818 -0.5289 -1.6241
  314MOL0     H42384   5.296   9.139   5.207 -0.8391  0.3630 -1.6452
  314MOL0     H42385   5.222   9.073   5.351  0.5491  0.2827 -0.6637
  314MOL0     H42386   5.168   9.301   5.430 -0.5994 -0.7023  0.2864
  314MOL0     H42387   5.245   9.369   5.278 -0.9343 -1.8609 -1.5090
  314MOL0     H42388   5.562   9.214   5.503 -0.2278  1.6806  1.6237
  314MOL0     H42389   4.700   9.153   5.130  1.7005 -1.0729 -1.6323
  314MOL0     H42390   4.500   9.129   5.277  0.6354  0.6145  0.5976
  315MOL0     O42391   9.722  10.207   5.412  0.0498 -0.9608 -0.3898
  315MOL0     C42392   9.677  10.315   5.362  0.1063  0.0195  0.0195
  315MOL0     O42393   9.746  10.420   5.322  0.3420 -0.0368 -0.4573
  315MOL0     C42394   9.881  10.402   5.279  0.2494 -0.4145  0.4807
  315MOL0     C42395   9.981  10.334   5.352  0.7131 -0.4739  0.0882
  315MOL0     C42396  10.112  10.340   5.318  0.3453  0.4132  0.3463
  315MOL0     C42397  10.144  10.388   5.191  0.1756 -0.3414 -0.3122
  315MOL0     O42398  10.277  10.397   5.164  0.1506  0.6240 -0.9001
  315MOL0     C42399  10.332  10.486   5.072 -0.4357  0.0879  0.2054
  315MOL0     C42400  10.455  10.425   5.012  0.8117 -0.8746 -0.0092
  315MOL0     C42401  10.410  10.340   4.886  0.5553  0.4591  0.0304
  315MOL0     C42402  10.529  10.251   4.836  0.3126  1.3822  0.4214
  315MOL0     C42403  10.524  10.230   4.680  0.2132  0.3444  0.1136
  315MOL0     C42404  10.638  10.139   4.615  0.2179 -0.4408 -0.7666
  315MOL0     C42405  10.773  10.208   4.595 -0.3138 -0.9098 -0.2283
  315MOL0     C42406  10.871  10.129   4.499  0.1746 -0.4230 -0.7481
  315MOL0     N42407  11.000  10.192   4.479  0.1465 -0.5546 -0.5200
  315MOL0     C42408  11.118  10.141   4.495  0.9140 -0.6416 -0.6385
  315MOL0     C42409  11.213  10.226   4.451  0.5373  0.1672  0.5432
  315MOL0     C42410  11.359  10.225   4.450  0.3369  0.4298  0.3441
  315MOL0     C42411  11.445  10.137   4.553  0.4976  0.1977  0.8032
  315MOL0     C42412  11.459  10.194   4.700  0.4563  0.0562  0.1723
  315MOL0     C42413  11.325  10.196   4.773 -0.1015  0.3827  0.2607
  315MOL0     O42414  11.265  10.069   4.778  0.7511 -0.2664 -0.1589
  315MOL0     C42415  11.146  10.060   4.854 -0.5060 -0.4790 -0.2062
  315MOL0     C42416  11.063   9.956   4.806  1.3629 -0.1811  0.6336
  315MOL0     C42417  10.938   9.932   4.859  0.5351  0.5760 -0.5805
  315MOL0     C42418  10.887   9.791   4.811  0.0095  0.2879 -0.2464
  315MOL0     C42419  10.897  10.006   4.970  0.5205 -1.3291 -0.4319
  315MOL0     C42420  10.768   9.975   5.043 -0.2325 -0.3297  0.0349
  315MOL0     O42421  10.744  10.057   5.152 -0.1813 -0.3909  0.1159
  315MOL0     C42422  10.650  10.032   5.258 -0.1519 -0.3842 -0.2805
  315MOL0     C42423  10.589  10.143   5.316  0.6701  0.1799  0.5150
  315MOL0     C42424  10.503  10.119   5.421 -0.7655 -0.0866 -0.0102
  315MOL0     C42425  10.476   9.991   5.462  0.2843  0.0474 -0.4604
  315MOL0     O42426  10.384   9.975   5.561  0.6623  0.6872  0.1265
  315MOL0     C42427  10.255   9.931   5.527  1.0949  0.5446 -0.0260
  315MOL0     C42428  10.163   9.959   5.648 -0.4335  0.8416 -0.4165
  315MOL0     C42429  10.023   9.922   5.640 -0.2183 -0.3713  1.0523
  315MOL0     C42430   9.967   9.937   5.499  0.0691 -0.1404 -0.6214
  315MOL0     C42431   9.813   9.931   5.501  0.3067  0.3871 -0.4524
  315MOL0     C42432   9.743   9.797   5.550 -0.8886 -0.5457  0.5646
  315MOL0     C42433   9.588   9.801   5.515 -0.3620 -0.0002  0.2578
  315MOL0     C42434   9.521   9.704   5.617 -0.5761 -0.5241  0.2878
  315MOL0    Cl42435   9.452   9.796   5.752 -0.3398  0.4700 -0.0451
  315MOL0     C42436  10.528   9.882   5.401 -0.6512 -0.0543  1.0102
  315MOL0     C42437  10.622   9.901   5.296 -0.5608 -0.2434 -0.1767
  315MOL0     O42438  10.708   9.865   5.027 -0.6563  0.8161  0.4861
  315MOL0     C42439  10.972  10.116   5.013  0.3033 -0.2389  0.2871
  315MOL0     C42440  11.095  10.153   4.953  0.6138 -0.0576  0.4803
  315MOL0     N42441  11.142  10.325   4.385 -0.1071 -0.2214 -0.4162
  315MOL0     N42442  11.018  10.313   4.418  0.2974  1.0737  0.0080
  315MOL0     C42443  10.045  10.443   5.109 -0.3346  0.1362 -0.0383
  315MOL0     C42444   9.911  10.458   5.157  0.3272  0.6784  0.1909
  315MOL0     C42445   9.526  10.332   5.344 -0.2769 -1.4492 -0.2601
  315MOL0     C42446   9.482  10.454   5.296 -0.5629 -0.1247  0.0902
  315MOL0     C42447   9.345  10.486   5.289  0.1062  0.2913  0.3091
  315MOL0     C42448   9.248  10.386   5.325  0.0426 -0.1353  0.7150
  315MOL0     O42449   9.120  10.432   5.321  0.3500  0.0808 -0.2898
  315MOL0     C42450   9.033  10.396   5.429  0.1259 -0.7096  0.3339
  315MOL0     C42451   8.910  10.315   5.366  1.4528 -0.6058 -0.1408
  315MOL0     C42452   8.792  10.416   5.356 -0.0308 -0.2521  0.7789
  315MOL0     C42453   8.663  10.345   5.290  0.3653 -0.3099  0.1733
  315MOL0     C42454   8.553  10.434   5.282  0.5576  0.3933  0.9584
  315MOL0     C42455   8.469  10.519   5.289  0.7101 -0.4441  0.1320
  315MOL0     C42456   9.296  10.263   5.371  0.0306  0.0832  0.7475
  315MOL0     C42457   9.434  10.238   5.388  0.0920  0.2314 -0.9496
  315MOL0     H42458   9.954  10.297   5.451 -0.4247 -0.9851 -0.3968
  315MOL0     H42459  10.196  10.308   5.378 -1.8386 -0.8352  2.9586
  315MOL0     H42460  10.269  10.509   4.986  0.8925  0.6217 -0.6473
  315MOL0     H42461  10.354  10.569   5.139  1.0480 -1.9778  2.4597
  315MOL0     H42462  10.527  10.501   4.981 -0.6321 -0.1452 -1.7929
  315MOL0     H42463  10.501  10.350   5.076 -0.5139 -1.4142  0.3510
  315MOL0     H42464  10.327  10.278   4.921 -0.3885  1.0099 -1.1456
  315MOL0     H42465  10.372  10.407   4.809 -2.8529  1.3417  2.2508
  315MOL0     H42466  10.629  10.285   4.862  0.3696  3.4134 -2.0447
  315MOL0     H42467  10.515  10.151   4.878 -3.5735  1.0476 -1.2236
  315MOL0     H42468  10.433  10.173   4.659  1.7296 -1.5523 -1.8537
  315MOL0     H42469  10.521  10.323   4.623  1.5815  1.0859  1.1974
  315MOL0     H42470  10.655  10.054   4.682  0.9788  0.7890  0.6687
  315MOL0     H42471  10.607  10.109   4.514 -0.2832  2.8581 -1.6962
  315MOL0     H42472  10.754  10.307   4.553  0.0454 -0.7923 -0.1215
  315MOL0     H42473  10.833  10.209   4.687  0.7199 -5.0436 -0.6492
  315MOL0     H42474  10.822  10.119   4.402 -1.7125  1.5191 -0.0695
  315MOL0     H42475  10.891  10.027   4.533  1.3426  0.0072 -0.0863
  315MOL0     H42476  11.144  10.055   4.557 -0.7532  0.1052  1.2095
  315MOL0     H42477  11.388  10.193   4.349  0.5623  0.5076  0.3858
  315MOL0     H42478  11.378  10.331   4.466 -1.6050  0.8454  0.1608
  315MOL0     H42479  11.546  10.126   4.513  0.3993  0.2340  0.5460
  315MOL0     H42480  11.396  10.039   4.557 -0.5134  0.5783 -1.0452
  315MOL0     H42481  11.510  10.290   4.690 -0.3100  0.3881 -0.7228
  315MOL0     H42482  11.515  10.130   4.768 -0.9280  0.4653  1.7896
  315MOL0     H42483  11.248  10.256   4.723 -1.4885 -2.1964 -0.8833
  315MOL0     H42484  11.350  10.228   4.875  1.9720 -2.3671  0.7441
  315MOL0     H42485  11.093   9.906   4.714 -4.2286 -0.9540 -1.1716
  315MOL0     H42486  10.924   9.721   4.885  0.0218  0.5786  0.0257
  315MOL0     H42487  10.779   9.784   4.796  0.2460 -0.9152 -1.5388
  315MOL0     H42488  10.933   9.771   4.713 -0.9471  1.8496 -1.0673
  315MOL0     H42489  10.624  10.235   5.271  0.2633 -0.8737 -2.1033
  315MOL0     H42490  10.471  10.206   5.478  2.2629  0.5543  0.8818
  315MOL0     H42491  10.221   9.970   5.431 -0.3030 -3.2406 -1.2183
  315MOL0     H42492  10.260   9.822   5.524 -1.2418  0.3608  0.5016
  315MOL0     H42493  10.212   9.923   5.739 -0.7527  2.2882  0.3525
  315MOL0     H42494  10.156  10.068   5.655 -3.9699  0.8073 -1.5573
  315MOL0     H42495   9.956   9.977   5.707  0.0703 -1.3416  2.1879
  315MOL0     H42496  10.019   9.815   5.663  0.6714 -0.4448  0.8787
  315MOL0     H42497   9.994  10.036   5.461  2.3140 -0.6283 -0.3758
  315MOL0     H42498  10.003   9.858   5.434 -1.1067 -0.9507 -0.3236
  315MOL0     H42499   9.779   9.951   5.399  0.4341 -0.7670 -0.7386
  315MOL0     H42500   9.773  10.008   5.567 -0.4781 -0.5690  0.2233
  315MOL0     H42501   9.794   9.714   5.500 -0.8143 -1.0488  1.4417
  315MOL0     H42502   9.757   9.788   5.658 -1.7757  2.9992  1.0887
  315MOL0     H42503   9.566   9.784   5.410 -4.1040 -0.6606  1.0154
  315MOL0     H42504   9.545   9.901   5.527 -0.3610  0.0026  0.2409
  315MOL0     H42505   9.596   9.629   5.644 -1.0092 -0.7765  0.8087
  315MOL0     H42506   9.437   9.651   5.572 -2.0800  1.3709  0.7414
  315MOL0     H42507  10.503   9.778   5.414 -0.9623 -0.4718 -2.1146
  315MOL0     H42508  10.661   9.807   5.257 -1.2615 -1.3312  1.5879
  315MOL0     H42509  10.934  10.187   5.087 -1.6022  0.0180 -0.8681
  315MOL0     H42510  11.140  10.251   4.969  0.6549 -0.1929  1.2224
  315MOL0     H42511  10.062  10.480   5.008 -0.7464 -1.8151 -0.8727
  315MOL0     H42512   9.836  10.495   5.089  0.0144 -0.7585 -0.2836
  315MOL0     H42513   9.555  10.526   5.261 -2.3281  2.6459  1.7907
  315MOL0     H42514   9.312  10.579   5.245  2.3349  0.9865 -0.0137
  315MOL0     H42515   9.089  10.337   5.502 -2.3177 -3.7336 -0.0041
  315MOL0     H42516   9.002  10.485   5.485  2.0002  0.6432 -0.6824
  315MOL0     H42517   8.891  10.226   5.426  1.7233 -1.0293 -0.6738
  315MOL0     H42518   8.934  10.275   5.267 -2.8778 -1.4845 -1.0547
  315MOL0     H42519   8.825  10.508   5.306  3.9494 -1.5539  0.6572
  315MOL0     H42520   8.770  10.453   5.456  2.6226  1.5698  0.7840
  315MOL0     H42521   8.629  10.272   5.363 -1.6224  0.0193 -0.3626
  315MOL0     H42522   8.685  10.301   5.193  2.4166  1.0378 -0.0414
  315MOL0     H42523   8.394  10.594   5.297  1.2702  0.3073 -1.2939
  315MOL0     H42524   9.220  10.192   5.402  0.2667 -1.8904 -2.6372
  315MOL0     H42525   9.452  10.141   5.434  0.3430  1.4026  1.6136
  316MOL0     O42526   7.640   9.568   4.331  0.3774  0.4273  0.6371
  316MOL0     C42527   7.720   9.634   4.270 -0.2865 -0.2999  0.0796
  316MOL0     O42528   7.691   9.715   4.159 -1.1577 -0.3264  0.6668
  316MOL0     C42529   7.579   9.693   4.092  0.0076 -0.6431  0.5297
  316MOL0     C42530   7.583   9.613   3.984 -0.4785 -0.1633  0.7873
  316MOL0     C42531   7.478   9.619   3.887 -0.8068  0.1697  0.0126
  316MOL0     C42532   7.365   9.696   3.904  0.3066 -0.6840  0.2941
  316MOL0     O42533   7.272   9.695   3.799 -0.0096  0.3463 -0.2427
  316MOL0     C42534   7.175   9.798   3.774 -0.2537 -0.6627 -1.1292
  316MOL0     C42535   7.231   9.931   3.725 -0.0507 -0.5939 -0.3246
  316MOL0     C42536   7.136  10.016   3.642  0.4438 -0.4844 -0.3353
  316MOL0     C42537   7.031  10.091   3.721  0.4462  0.0517  0.9922
  316MOL0     C42538   6.896  10.129   3.645 -0.3005  0.3010  0.2076
  316MOL0     C42539   6.793  10.186   3.740  0.2386 -0.3083 -0.2306
  316MOL0     C42540   6.668  10.240   3.674  0.4113 -0.1606 -0.2606
  316MOL0     C42541   6.583  10.128   3.608 -0.5682 -0.7966  0.4251
  316MOL0     N42542   6.441  10.153   3.586 -0.1870 -0.7382 -0.5926
  316MOL0     C42543   6.389  10.257   3.517 -0.2094 -0.0993 -0.0843
  316MOL0     C42544   6.254  10.236   3.519  0.1615 -0.2376 -0.7106
  316MOL0     C42545   6.154  10.319   3.454 -0.4902 -0.1489  0.4784
  316MOL0     C42546   6.063  10.232   3.367  0.1630 -0.8852  0.3174
  316MOL0     C42547   5.951  10.315   3.317 -0.6941 -0.0831  0.5608
  316MOL0     C42548   5.871  10.217   3.237  0.6437 -0.0584 -0.4772
  316MOL0     O42549   5.739  10.267   3.212  0.3603  0.0238  0.3899
  316MOL0     C42550   5.667  10.198   3.119 -0.6630 -0.1130 -0.2520
  316MOL0     C42551   5.705  10.089   3.033  0.2839 -0.5128 -0.4228
  316MOL0     C42552   5.618  10.036   2.942  0.2449  0.3009 -0.3263
  316MOL0     C42553   5.669   9.919   2.861  0.6330  0.4968 -0.4533
  316MOL0     C42554   5.482  10.080   2.937  0.5452  0.6923  0.9900
  316MOL0     C42555   5.379  10.043   2.827  0.3155  0.2169  0.7572
  316MOL0     O42556   5.264  10.115   2.831  0.9145  0.0304  1.0017
  316MOL0     C42557   5.145  10.066   2.779  0.2743 -0.4206  0.6486
  316MOL0     C42558   5.082  10.145   2.680  0.3647 -0.5033  0.6111
  316MOL0     C42559   4.954  10.102   2.636 -0.2204 -0.9047  0.7043
  316MOL0     C42560   4.895   9.987   2.688  0.1669  0.4658 -0.2767
  316MOL0     O42561   4.760   9.963   2.653 -0.1011 -0.1553  0.3007
  316MOL0     C42562   4.676   9.894   2.739 -0.9904  0.4515 -0.4476
  316MOL0     C42563   4.529   9.905   2.690 -0.2065  0.4510 -0.0742
  316MOL0     C42564   4.460   9.773   2.733  0.1693  0.3495  0.3107
  316MOL0     C42565   4.323   9.744   2.669  0.4378  0.2208 -0.2485
  316MOL0     C42566   4.271   9.615   2.742 -0.4157  0.2969  0.1283
  316MOL0     C42567   4.125   9.576   2.715 -0.9821  0.2553  0.3281
  316MOL0     C42568   4.121   9.531   2.573  0.2428 -0.0205 -0.9014
  316MOL0     C42569   3.982   9.462   2.541  0.5759  0.0760  0.2262
  316MOL0    Cl42570   3.979   9.312   2.631 -0.1173  0.0599 -0.3926
  316MOL0     C42571   4.954   9.902   2.787  0.4253 -0.5196  0.1267
  316MOL0     C42572   5.080   9.944   2.829  0.3758  0.5609 -0.3484
  316MOL0     O42573   5.389   9.941   2.764 -0.7400  0.6332  0.4517
  316MOL0     C42574   5.443  10.183   3.027  0.1953  0.1232  0.1583
  316MOL0     C42575   5.537  10.243   3.106  0.6631  0.6743  1.0446
  316MOL0     N42576   6.227  10.125   3.598  0.2955 -0.4530  0.5773
  316MOL0     N42577   6.339  10.071   3.625 -0.2836  0.2596 -0.1710
  316MOL0     C42578   7.355   9.767   4.024 -0.3069 -0.4187  0.2619
  316MOL0     C42579   7.463   9.771   4.115 -0.6760  0.4067 -0.8782
  316MOL0     C42580   7.862   9.618   4.310 -0.2185 -0.6661  0.1783
  316MOL0     C42581   7.962   9.693   4.252  0.4383  0.0472  0.6180
  316MOL0     C42582   8.093   9.686   4.301  0.4393  0.2472  0.4806
  316MOL0     C42583   8.132   9.584   4.396 -0.2332 -0.0132 -0.7706
  316MOL0     O42584   8.268   9.572   4.421  0.2004  0.7917 -0.1842
  316MOL0     C42585   8.329   9.442   4.418  0.1100 -0.1122 -0.5525
  316MOL0     C42586   8.473   9.464   4.378  0.5795 -0.0912  0.2952
  316MOL0     C42587   8.561   9.358   4.434  0.6726 -0.6647 -0.9011
  316MOL0     C42588   8.710   9.380   4.426 -0.8615  0.3759 -0.4155
  316MOL0     C42589   8.758   9.511   4.477  0.7514  0.3756  0.2336
  316MOL0     C42590   8.803   9.620   4.489  0.1991 -0.0247  0.0947
  316MOL0     C42591   8.033   9.505   4.452 -0.8942  0.3561  0.5721
  316MOL0     C42592   7.902   9.524   4.408  0.6685  0.2601 -0.4316
  316MOL0     H42593   7.663   9.543   3.962  0.8497  1.2463  1.0021
  316MOL0     H42594   7.476   9.551   3.802  0.1935 -1.6284  1.3399
  316MOL0     H42595   7.108   9.762   3.696 -0.4148 -1.2446 -0.7298
  316MOL0     H42596   7.129   9.811   3.873  4.3559  1.3874  1.0445
  316MOL0     H42597   7.278   9.991   3.804 -0.5957  0.5284 -0.8345
  316MOL0     H42598   7.315   9.896   3.664  0.2888 -2.4786  1.1408
  316MOL0     H42599   7.192  10.092   3.586 -1.0255 -0.8895 -2.4692
  316MOL0     H42600   7.086   9.953   3.568  0.2123  0.4081 -0.9683
  316MOL0     H42601   6.997  10.029   3.804 -0.1750 -1.6363 -0.4403
  316MOL0     H42602   7.075  10.183   3.759 -0.0468  1.4165 -1.5019
  316MOL0     H42603   6.920  10.208   3.573  1.5892 -1.5764 -1.3375
  316MOL0     H42604   6.853  10.041   3.596 -2.4693  0.7216  1.2259
  316MOL0     H42605   6.759  10.129   3.827  2.1517 -0.3585  0.5252
  316MOL0     H42606   6.833  10.277   3.784 -2.7336  1.1674 -0.3091
  316MOL0     H42607   6.591  10.286   3.738 -2.3472 -0.4282 -3.1257
  316MOL0     H42608   6.696  10.315   3.601  0.7542  2.6418  2.5384
  316MOL0     H42609   6.598  10.034   3.662 -0.7600 -0.3027  1.3564
  316MOL0     H42610   6.617  10.112   3.506 -1.5585 -0.5057  0.0393
  316MOL0     H42611   6.442  10.340   3.472  0.3925  0.0513  0.8598
  316MOL0     H42612   6.090  10.370   3.527 -0.9588 -0.5789  0.3724
  316MOL0     H42613   6.198  10.400   3.395 -0.9936 -0.3769 -0.2373
  316MOL0     H42614   6.021  10.148   3.424 -2.7741  1.5163  1.9750
  316MOL0     H42615   6.120  10.187   3.286 -0.7537 -3.0366  0.8023
  316MOL0     H42616   5.988  10.401   3.260 -1.6199  0.6649  1.0462
  316MOL0     H42617   5.891  10.341   3.405  3.5830 -2.5733  4.6920
  316MOL0     H42618   5.856  10.126   3.296  1.9801  1.2390  1.9924
  316MOL0     H42619   5.928  10.200   3.145 -0.2859 -0.6389 -0.9625
  316MOL0     H42620   5.806  10.051   3.038  0.5091  0.1565  0.2888
  316MOL0     H42621   5.678   9.955   2.758  1.0976  5.9180  1.1434
  316MOL0     H42622   5.772   9.893   2.888  0.2047  0.0866  0.8678
  316MOL0     H42623   5.609   9.833   2.892 -0.5755  0.6629 -2.1573
  316MOL0     H42624   5.128  10.237   2.645 -1.3531  0.1848  0.0523
  316MOL0     H42625   4.901  10.164   2.564  0.0320 -1.9674 -0.4384
  316MOL0     H42626   4.704   9.788   2.738 -2.3362  0.0732 -0.6115
  316MOL0     H42627   4.670   9.928   2.843 -3.8964 -2.6012  0.5645
  316MOL0     H42628   4.472   9.982   2.743  1.1627  1.3863  0.1107
  316MOL0     H42629   4.515   9.929   2.584  0.2651  2.2125  0.2238
  316MOL0     H42630   4.452   9.765   2.841 -0.0507  0.4225  0.3010
  316MOL0     H42631   4.520   9.691   2.692  1.3991  1.0673  0.6186
  316MOL0     H42632   4.259   9.831   2.688 -1.1874 -1.3237  1.8039
  316MOL0     H42633   4.334   9.715   2.564  3.0622  0.6937 -0.1827
  316MOL0     H42634   4.277   9.637   2.849 -1.1842  2.8947 -0.2944
  316MOL0     H42635   4.336   9.538   2.701  0.5159  1.6932 -1.1442
  316MOL0     H42636   4.103   9.493   2.783 -0.5393 -1.6268 -1.7114
  316MOL0     H42637   4.058   9.660   2.735 -0.6068  0.8173 -0.6850
  316MOL0     H42638   4.211   9.470   2.560 -0.5811 -1.7980  1.2100
  316MOL0     H42639   4.130   9.621   2.511  0.1384 -0.2313 -1.2267
  316MOL0     H42640   3.975   9.438   2.435  2.9154 -1.2527  0.3058
  316MOL0     H42641   3.894   9.521   2.570 -0.1797 -1.4748  1.2360
  316MOL0     H42642   4.898   9.812   2.807 -1.1221  0.1910 -0.8406
  316MOL0     H42643   5.141   9.890   2.901  2.9503  0.9540 -2.0791
  316MOL0     H42644   5.343  10.225   3.028  0.2976  0.3558  0.8683
  316MOL0     H42645   5.507  10.336   3.154  0.0164  1.5322 -0.9157
  316MOL0     H42646   7.264   9.823   4.046 -0.0820  1.4798 -3.1057
  316MOL0     H42647   7.462   9.843   4.196 -0.4715 -1.3965  0.8278
  316MOL0     H42648   7.949   9.765   4.171  0.9852  0.0888  0.5595
  316MOL0     H42649   8.175   9.744   4.262 -1.8612  4.4470  1.3051
  316MOL0     H42650   8.320   9.394   4.516  5.1787  0.6626  0.5580
  316MOL0     H42651   8.283   9.377   4.343  1.7247  1.4237 -3.0572
  316MOL0     H42652   8.501   9.565   4.411 -1.1000  0.6516 -0.4118
  316MOL0     H42653   8.476   9.467   4.268  0.2631  2.7699  0.2743
  316MOL0     H42654   8.538   9.263   4.385 -2.1085 -0.1353 -0.7514
  316MOL0     H42655   8.546   9.352   4.542  3.1810  3.2826 -0.1420
  316MOL0     H42656   8.743   9.357   4.325 -0.6283 -1.0995 -0.0304
  316MOL0     H42657   8.771   9.304   4.476  2.8305  3.2345 -0.0975
  316MOL0     H42658   8.832   9.721   4.507  0.6558  0.3645 -2.4071
  316MOL0     H42659   8.048   9.437   4.536 -1.1798 -0.6334 -0.1577
  316MOL0     H42660   7.825   9.472   4.465  1.4143  1.0710  1.3924
  317MOL0     O42661   9.028   0.012   8.666 -0.2895  0.0512 -0.1268
  317MOL0     C42662   9.112  -0.080   8.643 -0.3658 -0.9838  0.2796
  317MOL0     O42663   9.095  -0.213   8.649  0.0611 -0.7073 -0.5413
  317MOL0     C42664   8.978  -0.261   8.691 -0.0661  0.2414  0.4300
  317MOL0     C42665   8.936  -0.277   8.818 -0.5476  0.1674  0.0516
  317MOL0     C42666   8.817  -0.350   8.841  0.7983  0.7227  0.7997
  317MOL0     C42667   8.730  -0.396   8.739 -0.3508 -0.0636 -0.2540
  317MOL0     O42668   8.608  -0.443   8.756  0.2950 -0.6245 -0.1371
  317MOL0     C42669   8.588  -0.518   8.869  0.1166 -0.2731  0.3757
  317MOL0     C42670   8.473  -0.613   8.847 -0.8069  0.0426  0.1951
  317MOL0     C42671   8.482  -0.754   8.895  0.5070 -0.2436 -0.5982
  317MOL0     C42672   8.359  -0.835   8.863 -0.2344 -0.4973 -0.0426
  317MOL0     C42673   8.340  -0.958   8.949 -0.7559 -0.0022 -0.3154
  317MOL0     C42674   8.221  -1.052   8.930  0.7663 -0.3808  0.5296
  317MOL0     C42675   8.201  -1.137   9.056  0.8388 -0.2677 -0.2316
  317MOL0     C42676   8.162  -1.279   9.022  0.2466 -0.6051 -0.4879
  317MOL0     N42677   8.089  -1.329   9.145 -0.2894  0.5597  0.2617
  317MOL0     C42678   7.956  -1.354   9.143 -0.6124 -0.5402 -0.6861
  317MOL0     C42679   7.924  -1.420   9.259  0.5409 -0.4445  0.2385
  317MOL0     C42680   7.787  -1.452   9.288  0.4835 -0.2245 -0.3471
  317MOL0     C42681   7.702  -1.327   9.339 -0.4834 -0.1106 -0.1610
  317MOL0     C42682   7.570  -1.383   9.395  0.5619 -0.7223  0.8783
  317MOL0     C42683   7.472  -1.264   9.424 -0.3567 -0.5768  0.5638
  317MOL0     O42684   7.349  -1.325   9.463  0.2637  0.7156 -0.0600
  317MOL0     C42685   7.237  -1.245   9.443 -0.0085 -0.1767 -0.1785
  317MOL0     C42686   7.109  -1.297   9.411 -0.1826 -0.7021  0.0640
  317MOL0     C42687   6.990  -1.218   9.425  0.0208 -0.1885  0.1779
  317MOL0     C42688   6.857  -1.290   9.395 -0.1270  0.3610 -0.5351
  317MOL0     C42689   6.996  -1.082   9.461 -0.0877  0.9748 -0.3965
  317MOL0     C42690   6.879  -1.004   9.458  0.0547  0.3618 -0.6092
  317MOL0     O42691   6.853  -0.930   9.345 -0.3972 -0.0893 -0.0815
  317MOL0     C42692   6.726  -0.886   9.310  0.0618 -0.1428 -0.2476
  317MOL0     C42693   6.616  -0.965   9.317  0.5111 -0.2087 -0.9344
  317MOL0     C42694   6.495  -0.909   9.290 -0.2357  0.7215 -0.7676
  317MOL0     C42695   6.474  -0.770   9.269  0.7846 -1.0801 -0.4513
  317MOL0     O42696   6.358  -0.701   9.241  0.5025 -0.3757 -0.2667
  317MOL0     C42697   6.237  -0.775   9.241 -0.0767 -0.2779  0.2053
  317MOL0     C42698   6.101  -0.688   9.221 -0.0778 -0.2634  0.7504
  317MOL0     C42699   5.976  -0.775   9.235 -0.2969  0.5181  0.5530
  317MOL0     C42700   5.858  -0.700   9.168  0.0293 -0.2145 -0.1471
  317MOL0     C42701   5.744  -0.800   9.160  0.0524 -0.2068  0.4013
  317MOL0     C42702   5.639  -0.741   9.055 -0.1417  0.3067 -0.1464
  317MOL0     C42703   5.515  -0.829   9.049  0.4685 -0.0648 -0.4104
  317MOL0     C42704   5.431  -0.825   9.180 -0.1446  0.5146  0.2788
  317MOL0    Cl42705   5.395  -0.655   9.219  0.0568 -0.1243 -0.2148
  317MOL0     C42706   6.594  -0.699   9.246  1.3382 -1.2201  0.1089
  317MOL0     C42707   6.719  -0.750   9.269 -0.7587 -0.1837  0.2311
  317MOL0     O42708   6.808  -0.998   9.559 -0.7173 -0.2916  0.3594
  317MOL0     C42709   7.125  -1.032   9.492 -0.3962 -0.5427  0.5018
  317MOL0     C42710   7.240  -1.109   9.481 -0.0029  0.0686  0.3884
  317MOL0     N42711   8.041  -1.415   9.329 -0.3579  0.1588  0.0996
  317MOL0     N42712   8.144  -1.370   9.263  0.5465  0.3244  0.1281
  317MOL0     C42713   8.770  -0.368   8.608 -0.0906  0.8500  0.2894
  317MOL0     C42714   8.893  -0.311   8.594  0.0510  0.3600  0.8765
  317MOL0     C42715   9.248  -0.034   8.609 -0.5245 -0.2900  0.5720
  317MOL0     C42716   9.346  -0.129   8.575 -0.4931 -0.5774 -0.2982
  317MOL0     C42717   9.472  -0.101   8.515  0.0969  0.1771  0.1489
  317MOL0     C42718   9.501   0.034   8.488  0.3530  0.4146  1.0199
  317MOL0     O42719   9.618   0.068   8.417 -0.1127  0.5928  0.4518
  317MOL0     C42720   9.684  -0.038   8.346  0.3660 -0.0812  0.3433
  317MOL0     C42721   9.817   0.009   8.276 -0.3193 -0.5223 -1.3237
  317MOL0     C42722   9.805   0.138   8.200 -0.3899 -0.8861  0.0116
  317MOL0     C42723   9.726   0.121   8.065 -0.9024  0.4102 -0.9742
  317MOL0     C42724   9.761   0.229   7.973  0.2505 -0.2463 -0.3907
  317MOL0     C42725   9.783   0.302   7.875 -0.4871 -0.2003  0.7575
  317MOL0     C42726   9.407   0.133   8.525 -0.7311 -1.2071 -0.1764
  317MOL0     C42727   9.291   0.100   8.591  0.0813 -0.4140  0.7690
  317MOL0     H42728   8.991  -0.248   8.907  1.3611 -1.2797 -0.5835
  317MOL0     H42729   8.790  -0.370   8.944  1.1921  0.2293  0.8101
  317MOL0     H42730   8.675  -0.577   8.900  0.5211  0.6952  1.1615
  317MOL0     H42731   8.568  -0.441   8.944  1.2104 -0.0942  0.5061
  317MOL0     H42732   8.378  -0.567   8.876  0.1946  1.8273  0.7880
  317MOL0     H42733   8.470  -0.621   8.737 -2.3828 -0.5732  0.2522
  317MOL0     H42734   8.562  -0.815   8.850  0.6633 -1.3679  1.0952
  317MOL0     H42735   8.493  -0.760   9.004  0.1958  0.0830 -0.5485
  317MOL0     H42736   8.271  -0.775   8.888 -0.1733  0.7568 -2.5032
  317MOL0     H42737   8.345  -0.854   8.756  4.3666 -1.9166 -0.6032
  317MOL0     H42738   8.428  -1.021   8.931  0.5815  1.6490  0.2466
  317MOL0     H42739   8.350  -0.917   9.050  2.8429 -1.4501  0.0796
  317MOL0     H42740   8.136  -0.984   8.917  0.3089 -1.0807 -0.2626
  317MOL0     H42741   8.234  -1.116   8.842 -0.9931  0.5645 -0.4646
  317MOL0     H42742   8.298  -1.132   9.107  0.4092  0.1141  0.5563
  317MOL0     H42743   8.128  -1.093   9.125 -0.2213 -3.5961  1.0148
  317MOL0     H42744   8.249  -1.342   9.002  0.1075 -1.2731  0.8843
  317MOL0     H42745   8.095  -1.275   8.936  2.1934  0.7730 -2.0062
  317MOL0     H42746   7.881  -1.336   9.067 -0.4962  1.8246 -0.3122
  317MOL0     H42747   7.733  -1.508   9.211 -2.7523 -0.2342  1.7100
  317MOL0     H42748   7.787  -1.526   9.369  1.6518  0.7740  0.6061
  317MOL0     H42749   7.685  -1.266   9.250  2.0369 -1.3555 -1.6162
  317MOL0     H42750   7.760  -1.269   9.411 -0.2016  1.2359 -1.4347
  317MOL0     H42751   7.586  -1.435   9.490  1.8301  0.0768  1.1281
  317MOL0     H42752   7.517  -1.454   9.331 -0.7220 -0.9050  2.0933
  317MOL0     H42753   7.462  -1.210   9.329  1.4969  0.0920  0.7151
  317MOL0     H42754   7.517  -1.205   9.504 -1.0151  0.5320  0.1324
  317MOL0     H42755   7.101  -1.398   9.374 -0.2423  0.1280 -2.3774
  317MOL0     H42756   6.875  -1.398   9.391 -1.1361  0.1284  0.6674
  317MOL0     H42757   6.782  -1.283   9.475 -0.0326 -2.0485 -0.1686
  317MOL0     H42758   6.819  -1.250   9.300 -0.6753  0.4918 -0.2685
  317MOL0     H42759   6.622  -1.068   9.351 -0.0429 -0.2504 -0.9564
  317MOL0     H42760   6.406  -0.970   9.303  0.4831  0.2831  3.2674
  317MOL0     H42761   6.237  -0.849   9.160  2.4098  0.7311 -0.8366
  317MOL0     H42762   6.226  -0.825   9.337  0.0238  0.0640  0.3974
  317MOL0     H42763   6.107  -0.605   9.292 -0.8192  0.4682 -0.0272
  317MOL0     H42764   6.102  -0.639   9.124  1.2305 -1.3115  0.2009
  317MOL0     H42765   5.958  -0.796   9.341  1.1090  2.1978  1.1651
  317MOL0     H42766   5.986  -0.874   9.189  2.8901 -0.9651  3.9234
  317MOL0     H42767   5.818  -0.615   9.223 -2.3223 -0.8487 -0.7654
  317MOL0     H42768   5.895  -0.673   9.068 -1.4864  4.7386  0.3848
  317MOL0     H42769   5.705  -0.799   9.262  0.6267  1.5232  0.6390
  317MOL0     H42770   5.773  -0.901   9.131  1.1327 -0.2936  1.6721
  317MOL0     H42771   5.614  -0.638   9.079 -3.3249 -0.3417 -0.1669
  317MOL0     H42772   5.687  -0.742   8.957 -0.2687 -0.1667 -0.2084
  317MOL0     H42773   5.550  -0.929   9.023 -0.8803  0.1045 -3.3424
  317MOL0     H42774   5.454  -0.804   8.961  0.4812 -0.0734 -0.4219
  317MOL0     H42775   5.467  -0.867   9.274 -0.7883  3.0028  1.7277
  317MOL0     H42776   5.340  -0.877   9.148 -1.2535  2.7243 -0.3246
  317MOL0     H42777   6.594  -0.596   9.213 -0.5978 -0.6366  1.6729
  317MOL0     H42778   6.800  -0.678   9.268 -0.8348 -0.1038 -0.6227
  317MOL0     H42779   7.136  -0.928   9.522  3.3433 -0.4085 -0.7894
  317MOL0     H42780   7.332  -1.057   9.504  0.1978  2.5321 -4.6406
  317MOL0     H42781   8.719  -0.401   8.518  0.1336  0.2091  0.3906
  317MOL0     H42782   8.923  -0.290   8.492 -0.6992  2.1462  0.9847
  317MOL0     H42783   9.316  -0.233   8.588 -0.7285 -0.3935  0.6825
  317MOL0     H42784   9.532  -0.186   8.487 -1.2344 -1.2378  1.4201
  317MOL0     H42785   9.719  -0.120   8.409 -0.0169  0.1486  0.8517
  317MOL0     H42786   9.606  -0.068   8.275 -1.0645  0.9468  1.4390
  317MOL0     H42787   9.858  -0.069   8.211 -1.0125 -0.8422 -1.3889
  317MOL0     H42788   9.890   0.030   8.355 -2.0798  1.2005 -0.0811
  317MOL0     H42789   9.910   0.166   8.187 -0.0105 -2.4210 -0.4132
  317MOL0     H42790   9.755   0.209   8.267 -1.5641  0.0288 -1.7563
  317MOL0     H42791   9.621   0.120   8.095 -0.4860  0.5848  0.6070
  317MOL0     H42792   9.744   0.024   8.018  3.2895  0.2775  0.4324
  317MOL0     H42793   9.795   0.343   7.777 -0.2491 -1.2616  0.3346
  317MOL0     H42794   9.431   0.239   8.515  1.6602 -1.6349  0.2391
  317MOL0     H42795   9.226   0.183   8.616 -0.3112 -1.3483  3.1112
  318MOL0     O42796   1.874   6.645   5.428 -0.1658 -0.2781  0.0113
  318MOL0     C42797   1.921   6.563   5.506 -0.7143  0.4022 -0.1990
  318MOL0     O42798   1.855   6.470   5.583  0.4131 -0.1234  0.2113
  318MOL0     C42799   1.718   6.481   5.576 -0.3342 -0.2084 -0.3616
  318MOL0     C42800   1.652   6.588   5.632  0.9036  0.0148  1.6676
  318MOL0     C42801   1.513   6.590   5.644  0.0749 -0.3290  0.8862
  318MOL0     C42802   1.435   6.488   5.593 -0.1122  0.9213 -0.5671
  318MOL0     O42803   1.300   6.480   5.578  0.3769  0.0121  0.4469
  318MOL0     C42804   1.227   6.520   5.699 -0.2421 -0.2279 -0.1110
  318MOL0     C42805   1.095   6.440   5.709 -0.8136  0.2939 -1.2240
  318MOL0     C42806   1.121   6.291   5.762 -0.4961  0.5504 -0.0045
  318MOL0     C42807   0.997   6.199   5.752 -0.4334  0.5899  0.1143
  318MOL0     C42808   1.037   6.059   5.800  0.0147  0.1264  0.4583
  318MOL0     C42809   0.923   5.953   5.792 -0.0224  0.0945 -0.0881
  318MOL0     C42810   0.975   5.813   5.836  0.1435  0.5749  0.3781
  318MOL0     C42811   0.896   5.702   5.766  0.2726  0.6047  0.3943
  318MOL0     N42812   0.763   5.683   5.826 -0.1404  0.3230  0.0402
  318MOL0     C42813   0.731   5.624   5.943 -0.3183  0.7428  0.1659
  318MOL0     C42814   0.604   5.661   5.974  0.7553 -0.0153 -0.1862
  318MOL0     C42815   0.535   5.629   6.103 -0.0989  0.1324 -0.1011
  318MOL0     C42816   0.451   5.498   6.091 -0.6170  0.0017  0.8808
  318MOL0     C42817   0.400   5.444   6.219 -0.4461 -0.5339  0.6071
  318MOL0     C42818   0.293   5.339   6.186  0.4661  0.0010 -0.0784
  318MOL0     O42819   0.175   5.414   6.157  0.0449 -0.4211  0.2351
  318MOL0     C42820   0.071   5.337   6.114  0.2809  0.0290 -0.8115
  318MOL0     C42821   0.062   5.286   5.985  0.0649 -0.1464  0.2695
  318MOL0     C42822  -0.052   5.219   5.938 -0.6223  0.1585  0.3732
  318MOL0     C42823  -0.049   5.189   5.796 -0.1289 -0.0329 -0.5215
  318MOL0     C42824  -0.158   5.198   6.027 -0.9005  0.3561  0.4819
  318MOL0     C42825  -0.279   5.139   5.984  0.5952  0.0976 -0.4182
  318MOL0     O42826  -0.336   5.073   6.088  0.1163 -0.5137  0.0369
  318MOL0     C42827  -0.461   5.007   6.058  0.0218  0.4339  0.4787
  318MOL0     C42828  -0.477   4.872   6.094  0.2778  1.1885  1.0956
  318MOL0     C42829  -0.605   4.816   6.067 -0.1632 -0.3460 -0.2262
  318MOL0     C42830  -0.711   4.886   6.016 -0.3221 -0.0051  1.3519
  318MOL0     O42831  -0.838   4.836   6.012  0.2990 -0.3010  0.9506
  318MOL0     C42832  -0.915   4.839   6.136  0.6105 -0.1781  0.0379
  318MOL0     C42833  -1.003   4.965   6.144 -0.0126  0.7201 -0.0949
  318MOL0     C42834  -1.119   4.949   6.040 -0.0800 -0.1209  0.3298
  318MOL0     C42835  -1.228   5.047   6.085  0.0581  0.3498 -0.3046
  318MOL0     C42836  -1.359   5.024   6.001  0.4018 -0.0425  0.5623
  318MOL0     C42837  -1.443   5.159   6.008  0.7692 -0.0377 -0.8768
  318MOL0     C42838  -1.573   5.127   5.933  0.1026 -0.7091  0.6708
  318MOL0     C42839  -1.637   5.253   5.857  1.2560  0.9163 -0.2542
  318MOL0    Cl42840  -1.713   5.360   5.970  0.5195 -0.7690  0.1386
  318MOL0     C42841  -0.693   5.026   6.004  0.8453  0.4240  0.7189
  318MOL0     C42842  -0.573   5.087   6.022  0.2751 -0.6526 -0.2746
  318MOL0     O42843  -0.329   5.154   5.874 -0.0924  0.3056  0.5920
  318MOL0     C42844  -0.138   5.240   6.164  0.5793  0.5412  0.6925
  318MOL0     C42845  -0.032   5.313   6.207 -0.0441  0.3402  0.6158
  318MOL0     N42846   0.547   5.736   5.869  0.3597 -0.6747 -1.1679
  318MOL0     N42847   0.649   5.753   5.790  0.3824  0.8103 -0.2283
  318MOL0     C42848   1.503   6.379   5.553  0.1466  0.0900 -0.3609
  318MOL0     C42849   1.642   6.373   5.538 -0.4051 -0.0854  0.8026
  318MOL0     C42850   2.068   6.567   5.519 -0.4633  0.4238 -0.5326
  318MOL0     C42851   2.152   6.642   5.430  0.8606  0.3564  0.0083
  318MOL0     C42852   2.293   6.629   5.453 -0.0882  0.1216  0.0221
  318MOL0     C42853   2.351   6.561   5.559  0.1535  0.9605  0.0695
  318MOL0     O42854   2.488   6.534   5.553  0.8705  0.1785 -1.1616
  318MOL0     C42855   2.575   6.631   5.491  0.1929 -0.0814 -0.0059
  318MOL0     C42856   2.694   6.670   5.583 -0.0738  0.3983  0.3747
  318MOL0     C42857   2.775   6.780   5.514  0.4532  0.1034  0.2081
  318MOL0     C42858   2.886   6.833   5.610  0.0225  1.0525 -0.3085
  318MOL0     C42859   2.983   6.719   5.635  0.9603 -0.2557  0.8231
  318MOL0     C42860   3.061   6.628   5.657 -0.2256 -0.8683  0.4923
  318MOL0     C42861   2.270   6.490   5.642 -0.7344 -1.3624 -0.0417
  318MOL0     C42862   2.127   6.501   5.628 -0.0455  0.3439 -0.8757
  318MOL0     H42863   1.709   6.661   5.688 -0.0202 -0.7728  3.7625
  318MOL0     H42864   1.474   6.685   5.681  0.2862  0.9631 -1.9572
  318MOL0     H42865   1.288   6.513   5.790  1.9358 -0.4078 -1.4993
  318MOL0     H42866   1.189   6.622   5.697 -3.2688 -1.1246  2.7088
  318MOL0     H42867   1.038   6.484   5.791 -2.1889 -1.1111 -1.3810
  318MOL0     H42868   1.045   6.439   5.612  1.1996 -0.3930 -2.3302
  318MOL0     H42869   1.193   6.243   5.696  0.3747  0.4088  1.0210
  318MOL0     H42870   1.168   6.296   5.861 -1.8629 -2.7046  0.9656
  318MOL0     H42871   0.916   6.232   5.818 -0.3014 -0.8606  1.0256
  318MOL0     H42872   0.974   6.202   5.645  3.2444 -0.9713 -0.8348
  318MOL0     H42873   1.112   6.015   5.734  1.3229 -0.7936  2.4511
  318MOL0     H42874   1.083   6.062   5.899 -2.8907  2.5174  1.9024
  318MOL0     H42875   0.836   5.974   5.855 -0.1820 -0.7887 -0.0065
  318MOL0     H42876   0.899   5.946   5.686  1.3665  0.5021 -0.4536
  318MOL0     H42877   1.080   5.801   5.810  0.1751  3.0084 -0.8459
  318MOL0     H42878   0.968   5.798   5.944 -1.3519 -0.2517  0.2028
  318MOL0     H42879   0.966   5.619   5.785 -1.1371 -0.2763  2.0334
  318MOL0     H42880   0.891   5.704   5.657  1.6900 -3.0035  0.0966
  318MOL0     H42881   0.798   5.562   6.002 -2.8285  0.0054  2.4116
  318MOL0     H42882   0.612   5.612   6.179  0.4368  0.3204 -0.5902
  318MOL0     H42883   0.464   5.709   6.130 -0.6877  0.0012 -1.2305
  318MOL0     H42884   0.512   5.417   6.048 -2.4035 -2.7489  3.1565
  318MOL0     H42885   0.360   5.515   6.032 -0.5364 -0.5705  0.5824
  318MOL0     H42886   0.351   5.518   6.282 -1.6450 -1.5385  0.9009
  318MOL0     H42887   0.478   5.392   6.275  1.5227  1.1337 -0.4561
  318MOL0     H42888   0.266   5.277   6.272 -1.9716 -0.6040 -1.2050
  318MOL0     H42889   0.324   5.267   6.110  0.9139 -0.1629  0.2605
  318MOL0     H42890   0.147   5.297   5.917  0.0403  3.5645  0.5893
  318MOL0     H42891   0.050   5.198   5.749  0.0493  0.9735  0.0359
  318MOL0     H42892  -0.097   5.091   5.798  0.1156 -0.1368  1.1315
  318MOL0     H42893  -0.116   5.263   5.752 -0.6884 -0.5158 -0.4802
  318MOL0     H42894  -0.398   4.801   6.120 -0.0049  0.7629  0.8089
  318MOL0     H42895  -0.627   4.714   6.095 -0.6090 -1.0603 -2.8530
  318MOL0     H42896  -0.984   4.755   6.133 -0.3820  0.5933 -3.5461
  318MOL0     H42897  -0.840   4.839   6.216  0.2532 -0.6068  0.3721
  318MOL0     H42898  -1.036   4.977   6.248  1.3682 -1.1674  0.6292
  318MOL0     H42899  -0.949   5.059   6.128  1.1222  0.2562  0.8069
  318MOL0     H42900  -1.170   4.854   6.058 -1.1896  0.4388  0.2577
  318MOL0     H42901  -1.099   4.977   5.936  0.4306  0.5712  0.6012
  318MOL0     H42902  -1.261   5.023   6.186 -3.2212 -0.4097 -1.4421
  318MOL0     H42903  -1.187   5.148   6.076  1.2244 -0.0992 -0.2233
  318MOL0     H42904  -1.409   4.931   6.029 -0.3342 -0.3637 -1.6696
  318MOL0     H42905  -1.336   5.010   5.895  3.0658  0.9849  0.9311
  318MOL0     H42906  -1.474   5.183   6.110  3.5947  2.3261 -0.4460
  318MOL0     H42907  -1.387   5.244   5.967 -0.5536  0.0855 -2.5217
  318MOL0     H42908  -1.646   5.078   5.999 -0.1017 -0.9572  0.2672
  318MOL0     H42909  -1.543   5.059   5.853 -1.5539 -1.0247  0.2782
  318MOL0     H42910  -1.719   5.229   5.790  0.9569  1.4078 -0.0723
  318MOL0     H42911  -1.552   5.303   5.809  1.3750  1.7154  0.7510
  318MOL0     H42912  -0.786   5.081   5.991 -0.3492 -2.1521 -3.3251
  318MOL0     H42913  -0.559   5.194   6.020 -0.8123 -0.4864 -0.0557
  318MOL0     H42914  -0.223   5.222   6.231 -0.8732 -0.5781 -1.3387
  318MOL0     H42915  -0.025   5.342   6.311 -0.6364 -1.2607  1.1297
  318MOL0     H42916   1.442   6.295   5.523 -4.0468  1.8663  2.4125
  318MOL0     H42917   1.680   6.285   5.488 -0.4847 -0.9083  2.1653
  318MOL0     H42918   2.109   6.696   5.347  2.0762 -1.1341 -1.6627
  318MOL0     H42919   2.352   6.686   5.381  1.1141  0.6758  1.3918
  318MOL0     H42920   2.614   6.601   5.393 -0.2242 -1.1599  0.1486
  318MOL0     H42921   2.519   6.723   5.475  0.9880  0.4880  0.3727
  318MOL0     H42922   2.745   6.573   5.592  0.9227  0.7323 -1.2743
  318MOL0     H42923   2.658   6.700   5.682 -1.1535  2.8087 -0.6726
  318MOL0     H42924   2.711   6.867   5.498 -0.6809 -0.8753 -0.7806
  318MOL0     H42925   2.824   6.752   5.420  0.1690  0.8687 -0.1763
  318MOL0     H42926   2.847   6.858   5.709 -1.5529  3.3521 -1.4008
  318MOL0     H42927   2.935   6.924   5.573  0.5264  0.0406 -2.2698
  318MOL0     H42928   3.120   6.542   5.678  0.6617  0.3328  3.3572
  318MOL0     H42929   2.307   6.427   5.722 -0.0553  1.4096  1.9761
  318MOL0     H42930   2.072   6.450   5.705 -2.3816  1.8493 -1.4449
  319MOL0     O42931   1.640   7.841   4.095 -0.5447  0.0772  0.2804
  319MOL0     C42932   1.636   7.898   3.989  0.0874 -0.7447  0.8822
  319MOL0     O42933   1.531   7.896   3.900  0.0797  0.6991  0.0885
  319MOL0     C42934   1.428   7.817   3.928  0.0703  0.6897  0.5718
  319MOL0     C42935   1.296   7.870   3.960 -0.3860 -0.0948 -0.0131
  319MOL0     C42936   1.187   7.782   3.983 -0.3117  0.0883  0.0780
  319MOL0     C42937   1.206   7.646   3.976 -0.1176 -0.3388  0.4170
  319MOL0     O42938   1.107   7.551   4.004 -0.2495  0.2704  0.3544
  319MOL0     C42939   0.981   7.608   4.050 -0.4050 -0.5709 -0.5077
  319MOL0     C42940   0.906   7.490   4.092 -0.3975  0.9041 -0.7951
  319MOL0     C42941   0.762   7.513   4.085  1.1393  1.1444 -0.4237
  319MOL0     C42942   0.687   7.397   4.145 -0.2308 -0.5434  1.0239
  319MOL0     C42943   0.540   7.405   4.158 -0.3493 -0.3310 -0.8541
  319MOL0     C42944   0.465   7.374   4.030 -0.3236  0.0455  1.1490
  319MOL0     C42945   0.316   7.370   4.052 -0.2663 -0.5935 -0.0528
  319MOL0     C42946   0.236   7.340   3.918  0.4375 -0.7010  0.6561
  319MOL0     N42947   0.103   7.385   3.944  0.4998  0.1259  0.0316
  319MOL0     C42948   0.052   7.511   3.983 -0.4538 -0.2582 -0.9399
  319MOL0     C42949  -0.081   7.497   3.990 -0.0474 -0.5471 -0.3954
  319MOL0     C42950  -0.163   7.615   4.000  0.2860  0.8429  0.7007
  319MOL0     C42951  -0.311   7.576   3.998  0.3279 -0.3917 -0.0316
  319MOL0     C42952  -0.400   7.700   3.998 -0.0311  0.5522 -0.0498
  319MOL0     C42953  -0.548   7.659   3.991  0.0375  0.0439 -0.0130
  319MOL0     O42954  -0.633   7.769   4.025 -1.1998 -0.1028  0.4259
  319MOL0     C42955  -0.761   7.747   4.011 -0.9144 -0.7921 -0.6050
  319MOL0     C42956  -0.829   7.666   4.105  0.0369  0.0627  0.3180
  319MOL0     C42957  -0.972   7.656   4.101 -0.0932 -0.2697  0.5201
  319MOL0     C42958  -1.032   7.579   4.207  0.4706  0.3406  0.7932
  319MOL0     C42959  -1.049   7.726   4.004 -1.5507  0.0537 -0.5906
  319MOL0     C42960  -1.193   7.725   3.988  0.0191  0.4545 -0.1033
  319MOL0     O42961  -1.238   7.750   3.861  0.2317 -0.4408  0.8254
  319MOL0     C42962  -1.370   7.771   3.860  0.0672  0.5154  0.0403
  319MOL0     C42963  -1.454   7.658   3.858 -0.6282 -0.5455  0.9202
  319MOL0     C42964  -1.594   7.682   3.847 -0.5504  0.4883 -0.3515
  319MOL0     C42965  -1.647   7.812   3.833  0.2533  0.3243  0.1115
  319MOL0     O42966  -1.785   7.835   3.821 -0.0347  0.2224  1.0750
  319MOL0     C42967  -1.830   7.966   3.843  0.3309  0.0199 -0.2459
  319MOL0     C42968  -1.982   7.966   3.817 -0.9435  0.4483  0.0964
  319MOL0     C42969  -2.041   8.095   3.869  0.0519 -0.3330  0.0888
  319MOL0     C42970  -2.196   8.083   3.880  0.6774 -0.0743 -0.3898
  319MOL0     C42971  -2.267   8.044   3.750  0.8418 -0.9521  0.3790
  319MOL0     C42972  -2.427   8.032   3.752 -0.3320 -0.1928  0.2998
  319MOL0     C42973  -2.482   7.957   3.634 -0.6400  0.1916  0.4581
  319MOL0     C42974  -2.559   7.836   3.687  0.0661  0.1748  0.3978
  319MOL0    Cl42975  -2.656   7.748   3.562  0.2022 -0.5138  0.0617
  319MOL0     C42976  -1.557   7.918   3.847 -0.9154  0.5182 -0.6521
  319MOL0     C42977  -1.418   7.897   3.862 -0.5097 -0.9043 -0.4258
  319MOL0     O42978  -1.260   7.694   4.077 -0.1565  0.4030 -0.2294
  319MOL0     C42979  -0.976   7.802   3.910 -1.5180 -0.3126  0.3261
  319MOL0     C42980  -0.835   7.805   3.913 -0.8342 -0.0183  0.2011
  319MOL0     N42981  -0.108   7.362   3.977 -0.3615 -0.4429  0.3923
  319MOL0     N42982  -0.005   7.294   3.965 -0.1860 -0.5041 -0.4877
  319MOL0     C42983   1.337   7.600   3.957  0.1587  0.4792  0.7623
  319MOL0     C42984   1.449   7.680   3.929  0.2969 -0.1136  0.1920
  319MOL0     C42985   1.774   7.934   3.933 -0.5811 -0.0084 -0.4641
  319MOL0     C42986   1.787   7.960   3.800  0.6584 -0.5064 -0.1398
  319MOL0     C42987   1.909   7.980   3.742 -1.1461  0.4630 -0.6800
  319MOL0     C42988   2.024   7.983   3.816 -0.3687  0.1130  0.8448
  319MOL0     O42989   2.144   8.000   3.754  0.0128  0.2743  0.0662
  319MOL0     C42990   2.266   7.953   3.819 -0.0698  0.0082  0.0611
  319MOL0     C42991   2.379   7.972   3.718  0.8517 -0.2682 -0.2538
  319MOL0     C42992   2.522   7.922   3.760  0.8767  0.5041 -0.0454
  319MOL0     C42993   2.587   7.977   3.891 -0.4182 -0.2839  0.7099
  319MOL0     C42994   2.721   7.924   3.900 -0.2768 -0.4803 -0.2375
  319MOL0     C42995   2.834   7.873   3.903 -0.3943 -0.0233 -1.4796
  319MOL0     C42996   2.012   7.958   3.954  0.0844 -0.3907 -0.5797
  319MOL0     C42997   1.888   7.920   4.014 -1.4643 -0.2791  0.6816
  319MOL0     H42998   1.281   7.978   3.966 -2.0224 -0.3805  2.7176
  319MOL0     H42999   1.091   7.831   3.993 -0.9390 -0.3854 -2.8170
  319MOL0     H43000   0.991   7.677   4.135  1.3632 -1.6644  0.2351
  319MOL0     H43001   0.938   7.667   3.969  2.3009 -0.5851 -2.0744
  319MOL0     H43002   0.932   7.403   4.031 -1.4709 -0.5997  0.8011
  319MOL0     H43003   0.934   7.470   4.196 -1.9663  0.1127 -0.4947
  319MOL0     H43004   0.721   7.607   4.121 -0.2440  0.5727 -0.4457
  319MOL0     H43005   0.741   7.511   3.977 -2.2615 -1.1761  0.1187
  319MOL0     H43006   0.702   7.307   4.086  1.1329  1.4041 -1.8263
  319MOL0     H43007   0.717   7.369   4.246 -0.1372 -1.2950  0.7903
  319MOL0     H43008   0.505   7.328   4.227 -2.7293  0.3123 -1.2661
  319MOL0     H43009   0.512   7.503   4.200  0.1555 -0.7874  0.6140
  319MOL0     H43010   0.491   7.448   3.954 -0.9650 -1.9033 -1.0591
  319MOL0     H43011   0.502   7.280   3.988 -0.4044  0.0180  1.1410
  319MOL0     H43012   0.305   7.281   4.116 -2.0781 -1.1426 -1.0653
  319MOL0     H43013   0.294   7.464   4.104 -1.4636 -1.5948  1.3518
  319MOL0     H43014   0.245   7.235   3.889  0.0280 -0.0132 -2.2954
  319MOL0     H43015   0.275   7.395   3.831 -0.6557 -1.5874 -0.4281
  319MOL0     H43016   0.105   7.605   3.995 -1.0371 -0.2708  2.6705
  319MOL0     H43017  -0.133   7.677   4.084 -0.4900 -0.1110  1.7174
  319MOL0     H43018  -0.138   7.663   3.905 -1.0104  1.6983  0.7630
  319MOL0     H43019  -0.338   7.525   4.092 -0.0488 -0.7773 -0.3446
  319MOL0     H43020  -0.330   7.513   3.911 -1.1070 -0.5978  0.3897
  319MOL0     H43021  -0.390   7.762   3.908 -3.9983  0.2006 -0.9604
  319MOL0     H43022  -0.389   7.759   4.089  1.4624  0.6136 -0.2556
  319MOL0     H43023  -0.559   7.572   4.056  1.8618  0.3506  0.7736
  319MOL0     H43024  -0.571   7.639   3.886  0.0948  2.5608 -0.5798
  319MOL0     H43025  -0.783   7.598   4.176 -0.6599 -0.1107  0.6105
  319MOL0     H43026  -0.956   7.543   4.277  1.6605  1.5141  0.1607
  319MOL0     H43027  -1.105   7.636   4.265  0.1072  0.4520  0.2348
  319MOL0     H43028  -1.089   7.500   4.157 -1.2422  0.1521  2.9183
  319MOL0     H43029  -1.420   7.556   3.877  0.6645 -0.4668 -0.7890
  319MOL0     H43030  -1.667   7.601   3.852 -1.9938  1.6030 -1.9797
  319MOL0     H43031  -1.817   7.993   3.948 -0.4112 -1.3571  0.2297
  319MOL0     H43032  -1.785   8.027   3.765 -1.5732  0.3535 -1.1542
  319MOL0     H43033  -2.004   7.952   3.711  2.0968 -1.3183 -0.4204
  319MOL0     H43034  -2.033   7.889   3.876  1.8260 -0.0864  2.0520
  319MOL0     H43035  -2.016   8.176   3.799  1.6897 -0.4897  0.4465
  319MOL0     H43036  -1.992   8.123   3.963 -0.9578  3.2910 -0.3037
  319MOL0     H43037  -2.228   8.020   3.964  2.9253  0.6317  1.0718
  319MOL0     H43038  -2.227   8.187   3.897  0.9194  0.0399 -0.6473
  319MOL0     H43039  -2.240   7.944   3.716 -1.4936 -1.1412 -1.1852
  319MOL0     H43040  -2.244   8.126   3.681 -0.3361  0.5004  1.6238
  319MOL0     H43041  -2.458   7.991   3.849 -0.0836  0.4127  0.6498
  319MOL0     H43042  -2.474   8.131   3.749  0.4606  0.1740 -2.1209
  319MOL0     H43043  -2.401   7.916   3.573  0.5968  1.5508  1.1170
  319MOL0     H43044  -2.547   8.015   3.569 -0.3323 -0.0490 -0.0698
  319MOL0     H43045  -2.639   7.879   3.747  0.4726  0.4113  0.7732
  319MOL0     H43046  -2.493   7.777   3.751  1.4984 -2.0464 -2.8092
  319MOL0     H43047  -1.588   8.022   3.838  2.1188  1.9474  2.8721
  319MOL0     H43048  -1.352   7.981   3.843 -2.7711  0.6761 -1.8249
  319MOL0     H43049  -1.032   7.864   3.842  1.4824  0.7974 -1.3042
  319MOL0     H43050  -0.781   7.866   3.841 -0.2277  1.5184  1.8653
  319MOL0     H43051   1.354   7.493   3.957 -1.5963  0.1617 -0.9517
  319MOL0     H43052   1.546   7.634   3.915  2.4609  4.2463 -0.5636
  319MOL0     H43053   1.698   7.966   3.739  0.5461  0.3285  0.0951
  319MOL0     H43054   1.911   7.982   3.634  1.0703 -0.5769 -0.6974
  319MOL0     H43055   2.278   8.018   3.906 -1.9046  1.4674 -0.6949
  319MOL0     H43056   2.269   7.849   3.852  2.0507 -0.5968 -1.8404
  319MOL0     H43057   2.392   8.079   3.700 -0.7711 -0.0864 -0.5081
  319MOL0     H43058   2.356   7.928   3.620 -1.0065 -2.3712  1.0118
  319MOL0     H43059   2.583   7.936   3.671  2.1802  1.4940  0.9525
  319MOL0     H43060   2.513   7.814   3.776 -1.1208  0.8055  1.1686
  319MOL0     H43061   2.535   7.939   3.979 -1.4698  2.9250  1.6207
  319MOL0     H43062   2.584   8.086   3.899 -0.4189 -0.2453  0.2215
  319MOL0     H43063   2.938   7.846   3.904  0.6469  3.4650  0.5309
  319MOL0     H43064   2.093   7.966   4.025 -1.4128 -0.9265  1.2738
  319MOL0     H43065   1.868   7.898   4.118 -2.5448 -0.4801  0.4396
  320MOL0     O43066  10.880  10.956   7.596  0.1436 -0.0816  0.0792
  320MOL0     C43067  10.893  11.040   7.500  0.5926  0.7403  0.5558
  320MOL0     O43068  10.797  11.130   7.465  1.0378  0.2968  0.6599
  320MOL0     C43069  10.668  11.115   7.520  0.6153  0.0134 -0.8713
  320MOL0     C43070  10.632  11.192   7.630 -0.0281  0.1592  0.6430
  320MOL0     C43071  10.504  11.190   7.687 -1.4357 -0.5920 -0.2545
  320MOL0     C43072  10.402  11.115   7.625  0.1562 -0.4490 -0.4015
  320MOL0     O43073  10.274  11.133   7.664 -0.4963  0.6858 -0.4790
  320MOL0     C43074  10.240  11.204   7.781  0.5611 -0.1926 -0.6227
  320MOL0     C43075  10.079  11.227   7.784  0.0843 -0.2992 -0.1307
  320MOL0     C43076  10.022  11.275   7.652 -0.9423 -0.3229  0.9867
  320MOL0     C43077   9.871  11.277   7.659  0.2272 -1.2769  0.8762
  320MOL0     C43078   9.804  11.364   7.546 -0.8177  1.1239 -0.3891
  320MOL0     C43079   9.666  11.310   7.504  0.2966  0.1970 -0.4143
  320MOL0     C43080   9.582  11.425   7.441  0.2195 -0.0112  0.7212
  320MOL0     C43081   9.520  11.502   7.553 -0.3204 -0.6409  0.0460
  320MOL0     N43082   9.420  11.432   7.627  0.0388 -0.5102 -0.6102
  320MOL0     C43083   9.412  11.429   7.767  0.0109 -0.4081  0.4905
  320MOL0     C43084   9.290  11.372   7.789 -0.5782 -0.2689  0.3292
  320MOL0     C43085   9.258  11.334   7.919  1.0565 -0.1756 -0.1908
  320MOL0     C43086   9.361  11.247   7.992 -0.1573  0.4748 -1.0090
  320MOL0     C43087   9.390  11.115   7.922  0.4957  0.3853 -0.1733
  320MOL0     C43088   9.292  11.007   7.958  0.5758  0.0974 -0.0715
  320MOL0     O43089   9.161  11.025   7.907  0.1382  0.0403  0.1871
  320MOL0     C43090   9.048  10.964   7.944  1.2865  0.1535  0.2564
  320MOL0     C43091   8.989  11.009   8.057 -0.6894  0.5915 -1.3072
  320MOL0     C43092   8.870  10.951   8.111  0.3070  1.4304 -1.4170
  320MOL0     C43093   8.829  11.001   8.251  0.4617 -0.2947  0.0846
  320MOL0     C43094   8.808  10.845   8.046 -0.4107  0.1798  0.0547
  320MOL0     C43095   8.689  10.768   8.093 -0.0220 -0.7917 -0.3361
  320MOL0     O43096   8.636  10.798   8.214  0.2579 -0.9230  0.5379
  320MOL0     C43097   8.531  10.733   8.266  0.1415  0.2702 -0.2040
  320MOL0     C43098   8.455  10.801   8.372 -0.0717 -1.5018  0.2106
  320MOL0     C43099   8.345  10.742   8.430  0.3521  0.4830  0.1099
  320MOL0     C43100   8.316  10.609   8.404 -0.0967  1.0428 -0.0173
  320MOL0     O43101   8.212  10.539   8.459 -0.2911  0.4656 -0.4465
  320MOL0     C43102   8.131  10.586   8.569 -0.1073  0.4636  0.2084
  320MOL0     C43103   7.994  10.653   8.527  0.3814 -0.1633 -0.1608
  320MOL0     C43104   7.910  10.707   8.644 -1.2768 -0.7122 -0.0235
  320MOL0     C43105   7.988  10.774   8.761 -0.2709 -0.5464  0.2026
  320MOL0     C43106   7.909  10.842   8.888  0.6771  0.2850 -0.1244
  320MOL0     C43107   7.803  10.743   8.941 -0.8925 -0.5764 -0.6934
  320MOL0     C43108   7.750  10.768   9.082 -0.0680 -0.3910  0.3605
  320MOL0     C43109   7.672  10.905   9.082 -0.4687 -0.1013 -0.2299
  320MOL0    Cl43110   7.623  10.927   9.252 -0.0123 -0.2688 -0.2087
  320MOL0     C43111   8.378  10.547   8.294  0.3458 -0.1971  0.3415
  320MOL0     C43112   8.494  10.600   8.233  0.0887 -1.1311  0.6294
  320MOL0     O43113   8.634  10.706   8.006  0.3414 -0.1694 -1.0577
  320MOL0     C43114   8.879  10.794   7.932  0.1445 -0.3459  0.1071
  320MOL0     C43115   8.996  10.854   7.881  0.2792  0.5221 -0.3686
  320MOL0     N43116   9.221  11.360   7.670 -0.5727 -0.3526  1.0025
  320MOL0     N43117   9.298  11.399   7.577  0.3325  0.0689  0.5087
  320MOL0     C43118  10.437  11.028   7.520 -0.1629 -0.9187 -0.0116
  320MOL0     C43119  10.567  11.027   7.463 -0.1392 -0.7146 -0.1839
  320MOL0     C43120  11.017  11.043   7.436  0.0426  0.3066 -0.5976
  320MOL0     C43121  11.055  11.155   7.358  0.4315 -0.0854 -0.2687
  320MOL0     C43122  11.176  11.164   7.298 -0.5536  0.4129  1.2006
  320MOL0     C43123  11.276  11.059   7.315  0.3475 -0.3799 -0.0320
  320MOL0     O43124  11.399  11.083   7.271 -0.1603  0.1048  0.0898
  320MOL0     C43125  11.503  10.990   7.297 -0.9708 -0.2169  0.6787
  320MOL0     C43126  11.644  11.032   7.239 -0.1361  0.1590 -0.6073
  320MOL0     C43127  11.649  11.016   7.079  0.0227  0.5349  0.3440
  320MOL0     C43128  11.775  11.080   7.019 -0.1641  0.5953 -0.2764
  320MOL0     C43129  11.881  10.988   7.043 -0.8762 -0.3555  0.1183
  320MOL0     C43130  11.962  10.909   7.085  0.4544  0.0594  0.5004
  320MOL0     C43131  11.239  10.948   7.389 -0.5033  0.1053 -0.5820
  320MOL0     C43132  11.105  10.931   7.443 -1.5414 -0.4578 -0.5045
  320MOL0     H43133  10.722  11.235   7.673  0.8404  1.0517 -1.8618
  320MOL0     H43134  10.500  11.261   7.769  0.0931 -0.6516 -0.0938
  320MOL0     H43135  10.273  11.153   7.872 -0.2111 -1.8126 -1.2135
  320MOL0     H43136  10.294  11.299   7.783 -2.5570  1.7256  1.0358
  320MOL0     H43137  10.042  11.128   7.812 -0.5018  0.5112  2.1573
  320MOL0     H43138  10.047  11.296   7.863 -2.1119 -1.6637  0.2674
  320MOL0     H43139  10.062  11.373   7.624 -0.5004 -1.0072 -0.9529
  320MOL0     H43140  10.050  11.201   7.577  1.2925 -0.4404  1.8623
  320MOL0     H43141   9.850  11.171   7.643 -0.4924 -1.0100  0.0049
  320MOL0     H43142   9.845  11.314   7.759 -1.0366  1.1057 -0.2527
  320MOL0     H43143   9.806  11.466   7.585  3.3666  1.7401 -1.6438
  320MOL0     H43144   9.873  11.373   7.461 -1.7563  1.5447 -1.1229
  320MOL0     H43145   9.682  11.239   7.423 -2.0871 -0.7460 -0.1379
  320MOL0     H43146   9.620  11.257   7.588  1.8339 -0.8328 -0.1822
  320MOL0     H43147   9.646  11.489   7.380  0.6373  1.0610  2.2299
  320MOL0     H43148   9.502  11.379   7.382  1.0132 -0.4440 -0.0453
  320MOL0     H43149   9.476  11.598   7.523  0.4989 -0.3803 -0.3621
  320MOL0     H43150   9.605  11.527   7.618 -0.6129  0.9695 -0.1370
  320MOL0     H43151   9.485  11.453   7.844  1.3387  2.7553 -1.5469
  320MOL0     H43152   9.246  11.425   7.978  1.1201 -1.7192  2.3535
  320MOL0     H43153   9.159  11.289   7.921  1.9155 -2.2227  3.1634
  320MOL0     H43154   9.339  11.237   8.098  1.8739  2.1470 -0.3354
  320MOL0     H43155   9.452  11.309   7.996 -0.7398  1.2868  0.5494
  320MOL0     H43156   9.487  11.069   7.947  1.1849  2.0701  0.4039
  320MOL0     H43157   9.394  11.135   7.815 -0.1224  0.9736 -0.0914
  320MOL0     H43158   9.280  11.004   8.067 -1.0841 -0.9960 -0.2356
  320MOL0     H43159   9.314  10.906   7.923 -0.5803  0.4502 -1.9469
  320MOL0     H43160   9.042  11.091   8.104 -2.7321  2.2543 -1.7150
  320MOL0     H43161   8.832  10.918   8.322  1.5299  0.6695  1.2019
  320MOL0     H43162   8.902  11.077   8.278 -0.4618 -0.3126  3.0283
  320MOL0     H43163   8.727  11.039   8.262  1.1250  1.4363  0.5606
  320MOL0     H43164   8.499  10.898   8.394  3.3277 -1.7870 -4.0298
  320MOL0     H43165   8.280  10.811   8.482  0.0233 -1.5734  2.6542
  320MOL0     H43166   8.100  10.501   8.632  0.8038 -0.8046 -0.9906
  320MOL0     H43167   8.194  10.640   8.641  0.3709 -1.2762  1.1707
  320MOL0     H43168   8.006  10.733   8.453 -1.5462  0.4945  0.1980
  320MOL0     H43169   7.931  10.585   8.469 -2.0128  1.6032  0.2622
  320MOL0     H43170   7.853  10.625   8.688 -0.0732 -1.5489  0.0055
  320MOL0     H43171   7.842  10.773   8.589 -0.3388 -1.8855 -2.7426
  320MOL0     H43172   8.059  10.701   8.801  1.3179  0.7263 -0.2144
  320MOL0     H43173   8.045  10.857   8.719 -3.8350  2.5976  0.9196
  320MOL0     H43174   7.871  10.941   8.863 -1.3455 -0.1976  0.8069
  320MOL0     H43175   7.983  10.847   8.968 -1.8214 -0.7652  2.4124
  320MOL0     H43176   7.719  10.746   8.870 -1.6310  1.3671  0.1884
  320MOL0     H43177   7.831  10.638   8.948  0.8068 -0.0234  2.5606
  320MOL0     H43178   7.833  10.784   9.152 -0.6056  0.1189  0.8884
  320MOL0     H43179   7.683  10.689   9.117 -0.4839 -0.8688 -1.4488
  320MOL0     H43180   7.589  10.892   9.013  0.1808  0.8914 -1.2285
  320MOL0     H43181   7.725  10.994   9.047 -1.8114  1.3235  1.1484
  320MOL0     H43182   8.347  10.446   8.267 -1.4690  0.0671  1.2762
  320MOL0     H43183   8.547  10.548   8.154  0.3930 -1.7093  1.2079
  320MOL0     H43184   8.839  10.707   7.881  0.1402 -0.3332  0.0880
  320MOL0     H43185   9.053  10.796   7.809  0.1266 -0.5857  0.3690
  320MOL0     H43186  10.365  10.966   7.468 -0.0835 -2.0165  1.1480
  320MOL0     H43187  10.575  10.965   7.374  1.9934 -1.2516  0.3285
  320MOL0     H43188  10.992  11.242   7.341  0.2998 -0.0705  0.2951
  320MOL0     H43189  11.179  11.248   7.229  0.3711  0.1310  0.8848
  320MOL0     H43190  11.523  10.987   7.404 -1.4183  0.7285  0.7974
  320MOL0     H43191  11.481  10.887   7.268 -2.1766 -0.0313  0.8669
  320MOL0     H43192  11.727  10.977   7.285 -0.6833  0.6933  1.1242
  320MOL0     H43193  11.663  11.136   7.268 -1.3237  0.4221 -0.7362
  320MOL0     H43194  11.559  11.072   7.050  1.5275  2.9315  0.0332
  320MOL0     H43195  11.645  10.910   7.052  0.1006  0.3607  0.9821
  320MOL0     H43196  11.794  11.167   7.083  2.6020  0.7034 -1.1276
  320MOL0     H43197  11.758  11.102   6.913  3.4212  5.8358 -0.1677
  320MOL0     H43198  12.032  10.846   7.136  3.1707  0.2616 -2.6606
  320MOL0     H43199  11.309  10.870   7.419 -1.3558  0.6207  3.2362
  320MOL0     H43200  11.090  10.848   7.513  0.1892  0.8755  1.5697
  321MOL0     O43201   1.745   0.290   8.829  0.2316  0.2441  0.6431
  321MOL0     C43202   1.740   0.181   8.890 -0.0349  0.3607 -0.6015
  321MOL0     O43203   1.848   0.101   8.902  0.0979 -0.0136 -0.1042
  321MOL0     C43204   1.972   0.161   8.912  0.3317 -0.1081  0.1056
  321MOL0     C43205   2.010   0.217   9.035 -0.1071  0.2335  0.2543
  321MOL0     C43206   2.148   0.257   9.042  0.7586 -0.5303 -0.2112
  321MOL0     C43207   2.225   0.261   8.935 -0.8789 -0.4715  1.4289
  321MOL0     O43208   2.350   0.309   8.938  0.7661  0.1704 -0.2488
  321MOL0     C43209   2.417   0.326   9.062 -0.2316 -0.3106  0.1610
  321MOL0     C43210   2.569   0.322   9.031  0.2199  0.1592  0.3532
  321MOL0     C43211   2.621   0.180   8.993  0.2026 -0.4410  0.6663
  321MOL0     C43212   2.761   0.166   8.939  0.9728  0.5077 -0.0112
  321MOL0     C43213   2.865   0.217   9.042  1.3113 -0.0302 -0.0431
  321MOL0     C43214   3.001   0.165   9.009  0.0525 -0.2387  0.2344
  321MOL0     C43215   3.112   0.238   9.084  0.0712  0.5052  0.1512
  321MOL0     C43216   3.170   0.363   9.017  0.4338  0.2993 -0.0460
  321MOL0     N43217   3.285   0.402   9.092  0.4231 -0.3543 -0.3529
  321MOL0     C43218   3.289   0.476   9.209  0.7941 -0.3217  0.4657
  321MOL0     C43219   3.416   0.498   9.237  0.2536  0.8540  0.1974
  321MOL0     C43220   3.487   0.578   9.348  0.2564  0.9733 -0.3997
  321MOL0     C43221   3.448   0.731   9.337 -0.4573  0.2319 -0.0281
  321MOL0     C43222   3.528   0.801   9.225  0.2935 -0.2076 -0.0695
  321MOL0     C43223   3.469   0.936   9.202 -0.8856  0.3702  0.1669
  321MOL0     O43224   3.344   0.912   9.136 -0.4227 -0.3296 -0.3761
  321MOL0     C43225   3.282   1.012   9.068 -0.4590 -0.7166 -0.4894
  321MOL0     C43226   3.169   0.981   9.005  0.3446 -0.8252  0.3906
  321MOL0     C43227   3.097   1.080   8.939  0.3914  0.0511 -0.0066
  321MOL0     C43228   2.976   1.037   8.865  0.1421 -0.1071  0.3431
  321MOL0     C43229   3.150   1.208   8.927 -0.7714 -0.2576  0.3151
  321MOL0     C43230   3.084   1.320   8.850 -0.0870  0.0578 -0.7536
  321MOL0     O43231   3.002   1.293   8.736  0.5022 -0.0957 -0.2602
  321MOL0     C43232   2.981   1.399   8.647  0.0788  0.7088  0.7036
  321MOL0     C43233   2.851   1.452   8.615 -0.0771  0.1035  0.4167
  321MOL0     C43234   2.827   1.548   8.517  0.4812 -0.9433  0.0315
  321MOL0     C43235   2.946   1.605   8.462 -0.0178 -0.3552 -0.7380
  321MOL0     O43236   2.928   1.694   8.363  0.1179  0.0971 -0.1440
  321MOL0     C43237   3.005   1.812   8.352 -0.6050  0.2603 -0.3530
  321MOL0     C43238   2.958   1.894   8.229 -0.3177 -0.1138 -0.1786
  321MOL0     C43239   2.828   1.976   8.252  0.0349  0.1391  0.4616
  321MOL0     C43240   2.778   2.055   8.129  1.2014  0.6562  0.7588
  321MOL0     C43241   2.678   1.964   8.049  0.0121 -0.0116  0.6549
  321MOL0     C43242   2.646   2.012   7.909  0.6664  0.1896  0.3422
  321MOL0     C43243   2.530   1.938   7.855  0.2155  0.0960 -0.9145
  321MOL0     C43244   2.507   1.958   7.713  0.4225  0.3095  0.4104
  321MOL0    Cl43245   2.361   1.866   7.657 -0.1311  0.1321 -0.2735
  321MOL0     C43246   3.074   1.562   8.499  0.1665  0.2409 -0.4383
  321MOL0     C43247   3.091   1.450   8.575 -0.1555  0.0556 -0.0406
  321MOL0     O43248   3.137   1.430   8.872  0.0599  0.0305 -0.0004
  321MOL0     C43249   3.268   1.237   8.995 -0.1116 -0.0498 -0.6337
  321MOL0     C43250   3.332   1.143   9.070  0.4655  0.5985 -1.3185
  321MOL0     N43251   3.481   0.423   9.145  0.0086  0.0901 -0.1760
  321MOL0     N43252   3.410   0.376   9.050 -0.4154 -0.3856  0.3306
  321MOL0     C43253   2.185   0.215   8.807  0.0915  0.7699  0.2441
  321MOL0     C43254   2.057   0.151   8.799  0.3043  1.2314 -1.2989
  321MOL0     C43255   1.614   0.132   8.959  0.2710  0.5711  0.8008
  321MOL0     C43256   1.617   0.056   9.070  0.3212  0.4862  0.0230
  321MOL0     C43257   1.499   0.016   9.129 -0.3808 -0.1565 -0.3747
  321MOL0     C43258   1.368   0.063   9.086 -0.4036  0.2587  0.3936
  321MOL0     O43259   1.261  -0.001   9.137  1.1782 -0.3283  0.2128
  321MOL0     C43260   1.199   0.078   9.244 -0.4407 -0.3106 -0.5914
  321MOL0     C43261   1.096   0.176   9.195  0.4636  0.7045 -0.4198
  321MOL0     C43262   0.985   0.095   9.116  0.4086 -0.9354  0.5380
  321MOL0     C43263   0.887   0.203   9.031  0.6375  0.5284  0.4758
  321MOL0     C43264   0.978   0.259   8.929 -0.5780  0.6673  0.0637
  321MOL0     C43265   1.061   0.285   8.845 -0.0944 -0.4924  0.3092
  321MOL0     C43266   1.366   0.156   8.985 -0.3958  0.0527 -0.5778
  321MOL0     C43267   1.487   0.189   8.924  0.0899 -0.2892 -0.7129
  321MOL0     H43268   1.937   0.208   9.114  0.0755 -0.6736  0.3364
  321MOL0     H43269   2.185   0.299   9.135  3.8408 -1.3473 -0.9460
  321MOL0     H43270   2.392   0.422   9.109 -2.7229  0.1874 -1.9203
  321MOL0     H43271   2.393   0.243   9.129  1.2506 -0.8242  0.0867
  321MOL0     H43272   2.576   0.371   8.933  1.2453 -0.4611  0.0867
  321MOL0     H43273   2.632   0.373   9.104  3.3589 -2.1577 -0.4626
  321MOL0     H43274   2.618   0.129   9.089 -0.4102  1.9465  2.0063
  321MOL0     H43275   2.553   0.136   8.920 -0.9356  1.9211  0.1901
  321MOL0     H43276   2.770   0.057   8.943 -1.6671  0.2391  0.4952
  321MOL0     H43277   2.766   0.192   8.833  0.2952 -0.4843 -0.2980
  321MOL0     H43278   2.862   0.327   9.042  1.4393  0.0376 -2.6617
  321MOL0     H43279   2.837   0.181   9.141  0.0934 -0.7930 -0.6455
  321MOL0     H43280   3.005   0.057   9.025  1.0422 -0.4326 -1.1844
  321MOL0     H43281   3.020   0.175   8.902  0.2934 -2.1942  0.0650
  321MOL0     H43282   3.072   0.258   9.183  0.1895 -1.0389  0.5342
  321MOL0     H43283   3.193   0.165   9.082  1.1714  1.6699  0.8520
  321MOL0     H43284   3.098   0.445   9.024 -0.6877 -0.7223  0.9193
  321MOL0     H43285   3.202   0.341   8.915 -1.7058 -2.6124 -0.2080
  321MOL0     H43286   3.208   0.527   9.260  3.3109  2.0467  2.3743
  321MOL0     H43287   3.464   0.540   9.447  1.9534  0.2245 -0.2607
  321MOL0     H43288   3.595   0.559   9.346  0.4739  2.0649  0.0232
  321MOL0     H43289   3.460   0.783   9.433 -2.9104  0.0544  0.4606
  321MOL0     H43290   3.340   0.732   9.317 -0.3283  0.1324 -0.7359
  321MOL0     H43291   3.516   0.738   9.136  1.9704 -0.6580 -0.0192
  321MOL0     H43292   3.636   0.808   9.239  0.5009 -1.3594 -0.9670
  321MOL0     H43293   3.538   0.994   9.138  0.4976 -1.9727 -0.5961
  321MOL0     H43294   3.461   0.983   9.300 -0.4209 -1.7769  1.2788
  321MOL0     H43295   3.139   0.877   9.013 -1.0849 -0.3944  1.0104
  321MOL0     H43296   2.938   0.941   8.899  3.3687 -0.7858  2.4662
  321MOL0     H43297   2.898   1.114   8.877  0.1306 -0.0096 -0.3250
  321MOL0     H43298   2.993   1.033   8.757  0.1171  3.1085  0.1091
  321MOL0     H43299   2.767   1.403   8.662  0.5202 -1.1045  0.2624
  321MOL0     H43300   2.731   1.584   8.483  0.7330  3.5673  3.1752
  321MOL0     H43301   2.989   1.861   8.448 -0.3607  0.0754 -0.2161
  321MOL0     H43302   3.110   1.782   8.341 -0.9275 -1.5756  1.0953
  321MOL0     H43303   3.036   1.962   8.193 -0.3127 -0.5768 -1.0568
  321MOL0     H43304   2.948   1.820   8.149 -0.4178  2.0283 -2.2338
  321MOL0     H43305   2.856   2.051   8.327  2.1625 -1.7521  1.6983
  321MOL0     H43306   2.748   1.915   8.295 -1.8444  1.7380 -0.6143
  321MOL0     H43307   2.733   2.150   8.159  0.1379  1.1818 -2.2425
  321MOL0     H43308   2.862   2.071   8.062 -0.3431  0.7265 -1.2549
  321MOL0     H43309   2.583   1.949   8.100 -0.9367 -0.8714 -1.2504
  321MOL0     H43310   2.720   1.863   8.048  0.4564  0.1674  0.7761
  321MOL0     H43311   2.625   2.119   7.918  1.7349  0.2348  3.5846
  321MOL0     H43312   2.733   1.995   7.846  0.7278  3.4007 -0.6169
  321MOL0     H43313   2.451   1.983   7.916 -0.1967 -0.6004 -0.9248
  321MOL0     H43314   2.520   1.833   7.884  1.1034  0.4104  0.6342
  321MOL0     H43315   2.596   1.911   7.670  0.5495  0.8368  0.0911
  321MOL0     H43316   2.507   2.064   7.687  3.6109  0.4325  0.5099
  321MOL0     H43317   3.160   1.622   8.468  1.1519 -0.4382  0.8838
  321MOL0     H43318   3.184   1.405   8.608 -0.6834 -1.9735 -1.1418
  321MOL0     H43319   3.317   1.333   8.999 -1.6864  0.7561  2.5572
  321MOL0     H43320   3.416   1.170   9.133 -1.4992 -1.5518  2.5724
  321MOL0     H43321   2.248   0.212   8.719 -1.6860  1.4261 -1.1145
  321MOL0     H43322   2.011   0.107   8.711  0.3362 -0.4870 -0.4956
  321MOL0     H43323   1.712   0.025   9.112  0.2354 -0.9575 -0.7718
  321MOL0     H43324   1.509  -0.053   9.212  0.3234 -1.5225 -1.5403
  321MOL0     H43325   1.151   0.006   9.310  2.7546 -0.8521  1.3814
  321MOL0     H43326   1.277   0.130   9.300 -0.4028 -0.7108 -0.2721
  321MOL0     H43327   1.143   0.249   9.129  0.5199  0.0112 -1.1671
  321MOL0     H43328   1.061   0.221   9.289 -0.6663  0.7552 -0.8573
  321MOL0     H43329   0.927   0.044   9.193 -1.9967  1.3184  0.3561
  321MOL0     H43330   1.026   0.025   9.043 -1.1664  0.6556 -2.0239
  321MOL0     H43331   0.834   0.271   9.098  0.0925 -0.2646  0.8826
  321MOL0     H43332   0.801   0.151   8.986  0.1606  0.7226  1.1478
  321MOL0     H43333   1.126   0.321   8.767 -0.5809  1.7777  0.8741
  321MOL0     H43334   1.272   0.185   8.939 -0.7908 -0.4719 -0.1152
  321MOL0     H43335   1.491   0.270   8.852  1.5445  0.0150 -0.3082
  322MOL0     O43336   0.880   0.970   5.039 -0.3643 -0.2441 -0.3907
  322MOL0     C43337   0.921   0.912   4.938  0.2697  0.2221 -0.5088
  322MOL0     O43338   0.855   0.886   4.820 -0.0890 -0.6650  0.1142
  322MOL0     C43339   0.729   0.944   4.805 -1.6793  1.4928  0.1287
  322MOL0     C43340   0.702   1.009   4.688 -0.3593  0.0165  0.0193
  322MOL0     C43341   0.576   1.065   4.660 -0.3074 -0.1366  0.3945
  322MOL0     C43342   0.473   1.057   4.744 -0.7981  1.4688 -0.9851
  322MOL0     O43343   0.353   1.103   4.701  0.1757  0.2455 -0.2556
  322MOL0     C43344   0.230   1.075   4.776  0.4054 -0.3952  0.0283
  322MOL0     C43345   0.113   1.146   4.700  1.1945  0.7791 -0.2771
  322MOL0     C43346  -0.018   1.152   4.794 -0.2072 -0.9460 -0.5674
  322MOL0     C43347  -0.118   1.247   4.728  0.5617 -1.1587 -0.0147
  322MOL0     C43348  -0.264   1.232   4.790 -1.1357 -0.5080  0.5809
  322MOL0     C43349  -0.270   1.272   4.946 -0.6414 -0.5132  0.2472
  322MOL0     C43350  -0.202   1.409   4.975  0.1258 -0.8384  0.0627
  322MOL0     C43351  -0.272   1.479   5.091 -0.5533  0.1688  0.3069
  322MOL0     N43352  -0.247   1.410   5.221 -0.4550  0.6151  0.5279
  322MOL0     C43353  -0.130   1.413   5.297 -0.4744 -0.6667  1.4190
  322MOL0     C43354  -0.162   1.340   5.407  0.2978  0.1968 -0.3744
  322MOL0     C43355  -0.061   1.307   5.520  0.2114 -0.5332 -0.6682
  322MOL0     C43356  -0.094   1.338   5.668  0.1499 -0.2410 -0.3639
  322MOL0     C43357  -0.156   1.483   5.693 -0.0119  0.3119 -0.3946
  322MOL0     C43358  -0.205   1.501   5.834  0.5293  0.1649 -0.4092
  322MOL0     O43359  -0.331   1.425   5.834  0.3636 -0.6042  0.2166
  322MOL0     C43360  -0.429   1.471   5.925 -0.5926  0.7375  0.4657
  322MOL0     C43361  -0.400   1.519   6.054  0.2906 -0.0720 -0.1465
  322MOL0     C43362  -0.489   1.569   6.142  0.5444  0.4515 -1.0959
  322MOL0     C43363  -0.436   1.601   6.285 -0.2343  0.5647  0.1157
  322MOL0     C43364  -0.623   1.578   6.099 -0.5656  0.6699  0.1866
  322MOL0     C43365  -0.734   1.632   6.172 -0.6207  0.5876  0.4145
  322MOL0     O43366  -0.860   1.581   6.161 -0.9752 -0.2344  0.4058
  322MOL0     C43367  -0.956   1.614   6.254 -0.0782  0.7996  0.1732
  322MOL0     C43368  -0.931   1.611   6.394  0.0022 -0.6548 -1.4801
  322MOL0     C43369  -1.022   1.638   6.495  0.0074 -0.3466  0.3870
  322MOL0     C43370  -1.150   1.667   6.457  0.2776  0.5376 -1.2078
  322MOL0     O43371  -1.249   1.705   6.547 -0.3794  0.5129  0.5344
  322MOL0     C43372  -1.205   1.754   6.679 -0.4395  0.9219  0.5156
  322MOL0     C43373  -1.328   1.777   6.774 -0.6375  0.1194  1.0842
  322MOL0     C43374  -1.425   1.858   6.700  0.2889  0.1744 -0.0842
  322MOL0     C43375  -1.543   1.903   6.788 -0.1621  0.2949  0.6940
  322MOL0     C43376  -1.661   1.942   6.706  0.5735 -0.0500 -0.6547
  322MOL0     C43377  -1.779   1.996   6.792 -0.3354 -0.0894 -0.5029
  322MOL0     C43378  -1.904   2.013   6.715  0.4172 -0.6335 -0.2544
  322MOL0     C43379  -2.030   2.044   6.806 -0.3496  0.4960 -0.1850
  322MOL0    Cl43380  -2.185   2.071   6.712 -0.1247  0.2259 -0.2315
  322MOL0     C43381  -1.179   1.672   6.320 -0.3272 -0.8269 -0.2503
  322MOL0     C43382  -1.085   1.638   6.220  0.0812  0.0688 -0.0225
  322MOL0     O43383  -0.706   1.716   6.258  0.4233  0.0773 -0.4920
  322MOL0     C43384  -0.656   1.544   5.969 -0.5973 -0.1232  0.4353
  322MOL0     C43385  -0.563   1.479   5.883  0.1456  0.7000  0.2661
  322MOL0     N43386  -0.290   1.299   5.396 -0.9972 -0.3311  0.1333
  322MOL0     N43387  -0.340   1.348   5.293 -0.4492  0.0569 -0.1799
  322MOL0     C43388   0.498   0.974   4.851 -0.3260 -0.2507 -0.0784
  322MOL0     C43389   0.624   0.916   4.884 -0.2771 -0.3998  0.3791
  322MOL0     C43390   1.059   0.842   4.954 -0.4307  0.3226 -0.3467
  322MOL0     C43391   1.136   0.836   5.075  0.5051 -0.5304  0.1163
  322MOL0     C43392   1.255   0.761   5.084  0.0163 -0.3741  0.2565
  322MOL0     C43393   1.309   0.698   4.971  0.1609  0.8338 -0.1053
  322MOL0     O43394   1.427   0.634   4.981 -0.3071  0.3457  0.7898
  322MOL0     C43395   1.532   0.667   4.890 -0.3795 -0.5751  0.5331
  322MOL0     C43396   1.657   0.618   4.957 -0.2923  0.0329 -0.1398
  322MOL0     C43397   1.782   0.697   4.914 -0.2569 -0.4746  0.6193
  322MOL0     C43398   1.911   0.658   4.986 -0.3889 -0.3550 -0.5286
  322MOL0     C43399   2.024   0.721   4.906 -0.5796  0.4985  0.0432
  322MOL0     C43400   2.111   0.779   4.846  0.3365  0.5550  0.1403
  322MOL0     C43401   1.236   0.700   4.854 -0.6150 -0.7439 -0.1205
  322MOL0     C43402   1.110   0.771   4.845  0.9915  0.0071 -0.4725
  322MOL0     H43403   0.777   1.025   4.612 -1.1016  1.3320 -0.4736
  322MOL0     H43404   0.582   1.115   4.564 -2.5685  3.0845  1.7274
  322MOL0     H43405   0.206   0.969   4.787 -0.2484 -0.1419  1.2238
  322MOL0     H43406   0.225   1.115   4.878  0.5970 -0.4156  0.0469
  322MOL0     H43407   0.145   1.250   4.689  0.2487  1.0821 -0.2498
  322MOL0     H43408   0.081   1.102   4.605  0.4899 -2.3700  1.3001
  322MOL0     H43409  -0.052   1.048   4.787  3.1013 -2.4445  2.3811
  322MOL0     H43410   0.008   1.182   4.896 -3.0671 -0.9709  0.2498
  322MOL0     H43411  -0.074   1.346   4.739 -0.6254 -0.7074  0.8419
  322MOL0     H43412  -0.131   1.221   4.622 -0.6066  0.5380 -0.3228
  322MOL0     H43413  -0.338   1.299   4.744 -0.4583 -0.7413 -0.9246
  322MOL0     H43414  -0.290   1.126   4.779 -0.6269 -0.4475 -1.5702
  322MOL0     H43415  -0.370   1.279   4.989 -0.0185 -1.0993  1.8971
  322MOL0     H43416  -0.213   1.199   5.005 -1.7075 -2.7158 -1.3243
  322MOL0     H43417  -0.096   1.404   4.998  0.9252  1.3879 -2.5765
  322MOL0     H43418  -0.211   1.471   4.885 -2.5197  0.6168  1.1975
  322MOL0     H43419  -0.380   1.475   5.077 -0.1979 -3.5390 -3.5100
  322MOL0     H43420  -0.234   1.581   5.102  0.9923 -0.1749 -1.2980
  322MOL0     H43421  -0.038   1.465   5.272 -0.6116 -0.5042  1.2491
  322MOL0     H43422  -0.026   1.205   5.507  0.6623 -0.2354 -1.9818
  322MOL0     H43423   0.021   1.374   5.493 -1.1148 -0.0730 -4.1539
  322MOL0     H43424  -0.007   1.330   5.734 -0.6325 -0.5206  0.6637
  322MOL0     H43425  -0.168   1.266   5.705 -0.2579 -0.4558 -1.5651
  322MOL0     H43426  -0.244   1.495   5.629 -1.4676  0.7337  1.5978
  322MOL0     H43427  -0.073   1.549   5.665 -0.6538  1.1995 -0.2334
  322MOL0     H43428  -0.224   1.607   5.855 -1.8540  0.0222 -1.5077
  322MOL0     H43429  -0.127   1.459   5.897  0.6456 -0.0281 -0.6823
  322MOL0     H43430  -0.294   1.522   6.077  0.7949 -1.1378 -2.0860
  322MOL0     H43431  -0.487   1.528   6.349 -1.3234  1.3076  0.1145
  322MOL0     H43432  -0.329   1.583   6.295 -0.4211  0.5423  2.4665
  322MOL0     H43433  -0.466   1.701   6.318 -0.4852  0.0930  1.3698
  322MOL0     H43434  -0.837   1.566   6.423 -1.8218 -2.5170  2.1064
  322MOL0     H43435  -0.985   1.636   6.597 -0.4195 -0.2075  0.5455
  322MOL0     H43436  -1.138   1.687   6.732 -1.1810  1.1712  1.8129
  322MOL0     H43437  -1.154   1.850   6.667  1.0580  0.0509 -0.4620
  322MOL0     H43438  -1.365   1.677   6.800 -4.0767  0.4377 -1.9029
  322MOL0     H43439  -1.298   1.829   6.865 -1.8269 -1.3234  2.3673
  322MOL0     H43440  -1.477   1.795   6.628 -3.1289  1.5315  0.9801
  322MOL0     H43441  -1.379   1.944   6.649  0.8875  0.0640  0.2523
  322MOL0     H43442  -1.580   1.817   6.844 -2.2866 -0.4292 -1.6318
  322MOL0     H43443  -1.513   1.982   6.857 -1.1895  3.5054 -2.2538
  322MOL0     H43444  -1.691   1.855   6.647 -1.9712  1.8294 -2.3666
  322MOL0     H43445  -1.627   2.015   6.633  1.0183  0.4168 -0.0003
  322MOL0     H43446  -1.796   1.943   6.886  0.8675  1.8584  0.9032
  322MOL0     H43447  -1.750   2.098   6.822  1.1873 -0.6354 -0.0336
  322MOL0     H43448  -1.923   1.920   6.661  1.4109 -1.2677  0.4451
  322MOL0     H43449  -1.891   2.086   6.634  0.9056  0.1320  0.4928
  322MOL0     H43450  -2.010   2.133   6.866  1.0944 -0.9093  1.5440
  322MOL0     H43451  -2.040   1.963   6.879 -0.1477 -0.1981 -0.9141
  322MOL0     H43452  -1.274   1.708   6.282  0.1917  0.7191 -0.1544
  322MOL0     H43453  -1.117   1.637   6.116 -0.1423 -0.4866  0.0454
  322MOL0     H43454  -0.753   1.551   5.921 -0.6799 -1.5208  0.3471
  322MOL0     H43455  -0.583   1.429   5.790  1.1415 -1.6743  1.2526
  322MOL0     H43456   0.425   0.949   4.928  1.4481 -1.9303  1.1507
  322MOL0     H43457   0.618   0.855   4.973 -0.2188 -1.3743 -0.2764
  322MOL0     H43458   1.099   0.886   5.164  1.5421 -1.5614  1.1540
  322MOL0     H43459   1.299   0.757   5.183 -2.3915  1.8951  1.5598
  322MOL0     H43460   1.523   0.619   4.792 -0.5508  0.5462 -0.0114
  322MOL0     H43461   1.531   0.776   4.881 -1.1130 -0.6678 -0.7387
  322MOL0     H43462   1.662   0.512   4.933  2.7568 -0.2056  1.0536
  322MOL0     H43463   1.641   0.635   5.064 -0.2914  1.0884 -0.2985
  322MOL0     H43464   1.774   0.804   4.937  2.2799  0.0602 -0.6503
  322MOL0     H43465   1.788   0.698   4.805 -0.5989 -2.8333  0.5186
  322MOL0     H43466   1.918   0.549   4.991  0.8362 -0.3243 -1.1535
  322MOL0     H43467   1.917   0.697   5.088  3.9747 -1.7638 -0.0275
  322MOL0     H43468   2.189   0.831   4.795  2.7413 -3.1698 -0.3685
  322MOL0     H43469   1.270   0.634   4.775 -0.3093  1.2352 -1.7517
  322MOL0     H43470   1.043   0.762   4.759 -1.2341  1.6817  0.9491
  323MOL0     O43471   3.549   1.720   3.230 -0.4120  0.0161 -0.5948
  323MOL0     C43472   3.575   1.705   3.112  0.4559  0.1628 -0.2837
  323MOL0     O43473   3.482   1.673   3.021  0.2462 -1.1891 -0.4201
  323MOL0     C43474   3.354   1.647   3.060 -0.1093  0.0130  0.7218
  323MOL0     C43475   3.251   1.702   2.980 -0.0274 -0.4019  0.2957
  323MOL0     C43476   3.119   1.671   3.002  0.6501  0.4167  0.5362
  323MOL0     C43477   3.086   1.574   3.094  0.3904 -0.2105 -0.4362
  323MOL0     O43478   2.950   1.539   3.109 -0.2452  0.3396  0.7942
  323MOL0     C43479   2.873   1.496   2.993 -0.0344  0.4791  0.1214
  323MOL0     C43480   2.740   1.575   2.987 -0.5967 -0.0299  0.5282
  323MOL0     C43481   2.656   1.539   2.860 -0.7190 -0.7376  0.2477
  323MOL0     C43482   2.509   1.563   2.882 -0.1159  0.4362 -0.2135
  323MOL0     C43483   2.418   1.503   2.777  0.8542  0.6460 -0.2684
  323MOL0     C43484   2.272   1.512   2.815  0.2253 -0.3079 -0.4605
  323MOL0     C43485   2.187   1.450   2.713 -0.3365 -0.0597  0.0717
  323MOL0     C43486   2.055   1.400   2.780  0.2644 -0.5528 -0.1158
  323MOL0     N43487   1.948   1.380   2.680 -0.7852 -0.0166  0.0090
  323MOL0     C43488   1.961   1.276   2.589 -0.1708  0.0837  0.0203
  323MOL0     C43489   1.861   1.298   2.501  0.3071 -0.4684 -0.3197
  323MOL0     C43490   1.827   1.219   2.373 -0.5372  0.0235  0.2279
  323MOL0     C43491   1.683   1.161   2.373 -0.6156  0.2016  0.2661
  323MOL0     C43492   1.666   1.040   2.282  0.4153 -0.5635 -1.3115
  323MOL0     C43493   1.519   1.004   2.255 -0.0025 -0.2610  0.0060
  323MOL0     O43494   1.447   0.978   2.378 -0.0431 -0.2285 -0.2579
  323MOL0     C43495   1.331   1.039   2.394  0.3877 -0.1326 -0.9162
  323MOL0     C43496   1.232   1.008   2.301 -0.2370  0.1866  0.0071
  323MOL0     C43497   1.103   1.057   2.327 -0.1973  0.7941 -0.3026
  323MOL0     C43498   1.001   1.024   2.220 -0.9133  0.5107  0.5769
  323MOL0     C43499   1.078   1.122   2.445  0.6287 -0.1632  1.3178
  323MOL0     C43500   0.940   1.163   2.487 -0.1858  0.0609 -0.0259
  323MOL0     O43501   0.853   1.209   2.388 -0.1300 -1.2371  0.0712
  323MOL0     C43502   0.722   1.216   2.409  0.5005  0.5373  0.2362
  323MOL0     C43503   0.647   1.310   2.341 -0.2626  0.2556  0.0178
  323MOL0     C43504   0.510   1.335   2.374 -1.0430  0.1750 -0.1846
  323MOL0     C43505   0.440   1.228   2.439 -0.4147  0.4818 -0.8891
  323MOL0     O43506   0.303   1.223   2.457 -0.1830 -0.4391 -0.0479
  323MOL0     C43507   0.219   1.317   2.368 -0.5080 -0.6486  0.6136
  323MOL0     C43508   0.075   1.282   2.376 -0.3149 -0.2693  0.0880
  323MOL0     C43509  -0.011   1.386   2.325  0.4671 -0.2373  0.2831
  323MOL0     C43510  -0.159   1.365   2.342 -0.9138  1.6510  0.9718
  323MOL0     C43511  -0.243   1.428   2.232  0.3672  0.2669  0.0037
  323MOL0     C43512  -0.378   1.358   2.235 -0.8368  0.2298  0.6718
  323MOL0     C43513  -0.480   1.445   2.146 -0.0737  0.1030 -0.0516
  323MOL0     C43514  -0.590   1.368   2.078  0.0387 -0.8872 -0.2315
  323MOL0    Cl43515  -0.718   1.497   2.043  0.0497  0.1364  0.2815
  323MOL0     C43516   0.511   1.111   2.482 -0.6101 -0.5682 -0.5347
  323MOL0     C43517   0.651   1.110   2.475 -0.1123  0.9823 -0.1178
  323MOL0     O43518   0.911   1.159   2.604 -0.4520 -0.2343 -0.5641
  323MOL0     C43519   1.180   1.148   2.534 -0.1274  0.4912  0.1641
  323MOL0     C43520   1.311   1.103   2.512  0.2708  0.0225 -0.0762
  323MOL0     N43521   1.800   1.419   2.531  0.7892 -0.5342  0.6646
  323MOL0     N43522   1.865   1.470   2.634  0.7921 -0.3230  0.7852
  323MOL0     C43523   3.183   1.520   3.180  0.1390 -0.0203 -0.1231
  323MOL0     C43524   3.314   1.562   3.163 -0.0766 -1.1572  1.0876
  323MOL0     C43525   3.713   1.722   3.064 -0.2527 -0.1722  0.0134
  323MOL0     C43526   3.754   1.695   2.928  0.2212  0.5939  0.3060
  323MOL0     C43527   3.895   1.717   2.897 -0.0899 -0.0588 -0.7061
  323MOL0     C43528   3.987   1.757   2.998 -1.0078  0.0220 -0.0650
  323MOL0     O43529   4.123   1.773   2.974 -0.2303 -0.1889 -0.5116
  323MOL0     C43530   4.182   1.640   2.955  0.2059 -0.3745  0.9263
  323MOL0     C43531   4.325   1.650   2.936  0.4842  0.2843  0.4284
  323MOL0     C43532   4.358   1.728   2.817  0.2546  0.0507 -1.1357
  323MOL0     C43533   4.269   1.698   2.685 -0.3770  0.4135 -0.2371
  323MOL0     C43534   4.287   1.554   2.653  0.5393 -0.3383 -0.0043
  323MOL0     C43535   4.290   1.436   2.634 -1.0022  0.6606  0.6043
  323MOL0     C43536   3.944   1.796   3.123  1.1084  1.2175 -0.5084
  323MOL0     C43537   3.802   1.772   3.156 -0.2586  0.3245  0.9605
  323MOL0     H43538   3.270   1.765   2.894  0.9680  0.3373  1.0251
  323MOL0     H43539   3.037   1.712   2.945  0.8367 -0.7680 -0.6238
  323MOL0     H43540   2.925   1.513   2.898  1.1486 -0.4889  0.5740
  323MOL0     H43541   2.856   1.388   2.998  3.6029 -0.2307  0.0011
  323MOL0     H43542   2.682   1.561   3.078  1.0684  1.4060  1.8791
  323MOL0     H43543   2.759   1.682   2.983 -0.1667 -0.1054  0.5252
  323MOL0     H43544   2.690   1.586   2.767 -1.0144 -2.4730 -0.8006
  323MOL0     H43545   2.672   1.431   2.848  1.0720 -0.5746  0.7989
  323MOL0     H43546   2.474   1.519   2.976  1.0426 -1.3894 -0.5898
  323MOL0     H43547   2.496   1.671   2.894  0.7288  0.2436  3.3065
  323MOL0     H43548   2.428   1.549   2.678 -0.2761  0.3752 -0.5237
  323MOL0     H43549   2.440   1.396   2.777  1.0428  0.6832 -0.4925
  323MOL0     H43550   2.259   1.459   2.910  1.4117  0.3035  0.0639
  323MOL0     H43551   2.238   1.612   2.846 -3.6877 -1.1409 -1.5340
  323MOL0     H43552   2.172   1.528   2.638 -0.1332  0.6142  0.7247
  323MOL0     H43553   2.243   1.368   2.666  1.7460  0.3048  1.7741
  323MOL0     H43554   2.022   1.483   2.844  1.5610  1.3206 -1.7462
  323MOL0     H43555   2.076   1.310   2.839  0.7743 -0.9993 -0.9630
  323MOL0     H43556   2.031   1.193   2.593 -0.5589 -0.2259  0.4725
  323MOL0     H43557   1.835   1.290   2.291  2.6210  1.6740  1.7733
  323MOL0     H43558   1.896   1.134   2.364 -0.0283  0.4172  0.3544
  323MOL0     H43559   1.621   1.244   2.339  1.9075  1.2595 -2.1608
  323MOL0     H43560   1.664   1.130   2.476  0.4373  0.4571  0.5518
  323MOL0     H43561   1.721   0.956   2.325  1.1983  1.9796  3.3999
  323MOL0     H43562   1.707   1.075   2.187  1.2333  2.4238 -0.0079
  323MOL0     H43563   1.522   0.910   2.200 -0.5805  0.0745 -0.6180
  323MOL0     H43564   1.474   1.078   2.188 -0.4256 -0.9372 -0.4688
  323MOL0     H43565   1.251   0.964   2.204  1.4298 -1.5087  1.0495
  323MOL0     H43566   1.035   0.933   2.169 -1.1516  0.8964 -0.2919
  323MOL0     H43567   0.900   1.007   2.258 -1.0509  1.9873  0.9619
  323MOL0     H43568   1.010   1.101   2.142 -1.4916  1.5683  1.5227
  323MOL0     H43569   0.710   1.382   2.288 -0.5790  0.2683 -0.3497
  323MOL0     H43570   0.468   1.432   2.347  2.8599  1.8406 -1.0198
  323MOL0     H43571   0.229   1.418   2.408  0.5105  0.0014 -1.1615
  323MOL0     H43572   0.236   1.306   2.261  0.8372 -1.9045  0.9215
  323MOL0     H43573   0.060   1.185   2.330  1.7934 -1.7864  2.3529
  323MOL0     H43574   0.047   1.262   2.480 -2.6679  0.9291 -0.2373
  323MOL0     H43575   0.019   1.412   2.223  2.3445 -0.2640  0.8033
  323MOL0     H43576   0.008   1.479   2.379 -1.6162  1.3692 -1.5516
  323MOL0     H43577  -0.178   1.257   2.349  0.1797  1.4776  1.4104
  323MOL0     H43578  -0.191   1.410   2.436  1.5158 -1.2450  3.3971
  323MOL0     H43579  -0.198   1.424   2.132 -4.2176 -4.0464 -2.3760
  323MOL0     H43580  -0.251   1.534   2.258  3.4115  0.6751 -0.3602
  323MOL0     H43581  -0.370   1.251   2.213 -0.4696 -0.5357  3.9874
  323MOL0     H43582  -0.411   1.366   2.339  0.1106  1.5964  0.8945
  323MOL0     H43583  -0.422   1.489   2.065  1.0002 -1.4469 -0.1629
  323MOL0     H43584  -0.519   1.525   2.211  0.5215 -0.8611  1.5601
  323MOL0     H43585  -0.629   1.293   2.148 -0.0280  0.7280  1.5680
  323MOL0     H43586  -0.551   1.318   1.989 -2.0271 -0.4490 -1.4710
  323MOL0     H43587   0.455   1.035   2.537 -0.7969  0.1914  0.3555
  323MOL0     H43588   0.699   1.019   2.512 -2.9326 -0.9964 -0.9973
  323MOL0     H43589   1.152   1.211   2.618 -2.0102  2.4551 -1.7911
  323MOL0     H43590   1.396   1.119   2.577 -0.6826  1.3907  0.8920
  323MOL0     H43591   3.161   1.447   3.257 -2.8601 -1.3689 -2.0755
  323MOL0     H43592   3.394   1.530   3.229  0.8812  0.7205  0.9153
  323MOL0     H43593   3.686   1.649   2.857 -0.0965  0.9225  0.3931
  323MOL0     H43594   3.925   1.693   2.796 -0.6477 -1.7572 -0.5128
  323MOL0     H43595   4.161   1.586   3.048 -1.0165 -1.7480 -0.0957
  323MOL0     H43596   4.129   1.584   2.877  0.5275 -1.0857  1.2099
  323MOL0     H43597   4.370   1.551   2.928  0.9977  0.5470  0.0287
  323MOL0     H43598   4.375   1.697   3.021 -1.3433 -0.0907  1.7672
  323MOL0     H43599   4.464   1.710   2.794  0.4421 -5.0204  2.2190
  323MOL0     H43600   4.341   1.832   2.846  2.7538  0.2719 -0.1431
  323MOL0     H43601   4.308   1.754   2.600  1.9532  0.8123  1.0256
  323MOL0     H43602   4.161   1.716   2.688 -0.6056 -0.4597 -1.9422
  323MOL0     H43603   4.296   1.331   2.614  2.0440  0.7357  0.7459
  323MOL0     H43604   4.009   1.822   3.205 -0.9487  2.0321  0.9486
  323MOL0     H43605   3.770   1.803   3.255 -0.9890 -2.2771  1.6133
  324MOL0     O43606   0.370   6.650   7.704 -0.0012  0.4700  0.0589
  324MOL0     C43607   0.375   6.771   7.695 -0.3174 -0.7678  0.9061
  324MOL0     O43608   0.273   6.855   7.689  0.1918 -0.1044  0.6150
  324MOL0     C43609   0.139   6.814   7.682  0.5243 -0.0171 -1.1464
  324MOL0     C43610   0.079   6.723   7.773 -0.0446 -0.6858  0.5985
  324MOL0     C43611  -0.052   6.679   7.755  0.0790  0.6202  0.7064
  324MOL0     C43612  -0.136   6.740   7.657 -0.3530 -0.0998 -0.7947
  324MOL0     O43613  -0.272   6.730   7.644  0.3508 -0.1433 -0.0719
  324MOL0     C43614  -0.337   6.605   7.682  0.2807 -0.6552  0.1111
  324MOL0     C43615  -0.494   6.608   7.648 -0.2136  0.3881  0.0216
  324MOL0     C43616  -0.512   6.641   7.506 -0.7068  0.3511 -0.4080
  324MOL0     C43617  -0.643   6.601   7.450 -0.6663 -0.4641  1.0068
  324MOL0     C43618  -0.648   6.644   7.300  0.4269 -0.1958 -0.3688
  324MOL0     C43619  -0.565   6.546   7.213 -0.7458 -0.3704 -0.9034
  324MOL0     C43620  -0.568   6.597   7.062 -0.2926  0.1534  0.0572
  324MOL0     C43621  -0.699   6.576   6.989  0.8042 -1.0628 -0.1107
  324MOL0     N43622  -0.711   6.664   6.868 -0.0388 -0.4110 -0.1240
  324MOL0     C43623  -0.714   6.798   6.875  0.3836 -0.4826 -0.7106
  324MOL0     C43624  -0.719   6.821   6.745 -0.2158  0.0231  0.3842
  324MOL0     C43625  -0.716   6.955   6.680 -0.3427  0.6351 -0.1654
  324MOL0     C43626  -0.853   7.002   6.621  0.2590 -0.7251 -0.0981
  324MOL0     C43627  -0.923   6.892   6.539 -0.7755 -0.6256 -0.6513
  324MOL0     C43628  -1.043   6.953   6.477  1.0283 -0.4086 -0.4601
  324MOL0     O43629  -1.146   6.982   6.573 -0.2797 -0.3223  0.3112
  324MOL0     C43630  -1.262   7.055   6.528 -0.0923  0.1296 -0.4474
  324MOL0     C43631  -1.328   7.136   6.630 -0.0020 -0.3206  0.4420
  324MOL0     C43632  -1.436   7.212   6.593  0.3487  0.9548 -0.1019
  324MOL0     C43633  -1.491   7.304   6.704  0.2620 -0.5424 -0.5870
  324MOL0     C43634  -1.483   7.215   6.459  0.4815  0.0236 -0.0419
  324MOL0     C43635  -1.608   7.289   6.421 -0.0691 -0.6683  0.4260
  324MOL0     O43636  -1.674   7.364   6.519  0.1394 -0.0128 -0.1735
  324MOL0     C43637  -1.791   7.428   6.500 -0.1678 -0.3556 -0.5558
  324MOL0     C43638  -1.849   7.481   6.620 -0.3531  0.9500  0.5290
  324MOL0     C43639  -1.971   7.549   6.617 -0.3462  0.0328  0.8694
  324MOL0     C43640  -2.029   7.584   6.495  0.2158  0.0378 -0.8257
  324MOL0     O43641  -2.154   7.646   6.516 -0.1619  0.1907  0.5125
  324MOL0     C43642  -2.188   7.749   6.423  0.0176  0.5599 -0.3316
  324MOL0     C43643  -2.270   7.846   6.499  0.2350 -0.6103 -0.0973
  324MOL0     C43644  -2.328   7.963   6.416 -0.7459  0.4580 -0.1966
  324MOL0     C43645  -2.373   8.090   6.488  0.1688  0.2918  0.2867
  324MOL0     C43646  -2.506   8.074   6.552  0.1079 -0.2212 -0.8200
  324MOL0     C43647  -2.563   8.211   6.598 -0.2706  0.0193 -0.5471
  324MOL0     C43648  -2.709   8.205   6.657 -0.5732  0.6126  0.0734
  324MOL0     C43649  -2.778   8.343   6.650 -0.9535 -0.0056  0.7739
  324MOL0    Cl43650  -2.697   8.472   6.735 -0.0442  0.2739 -0.5686
  324MOL0     C43651  -1.966   7.547   6.375  0.5851 -0.1473  0.3640
  324MOL0     C43652  -1.853   7.463   6.379  0.4101  0.7446 -0.0291
  324MOL0     O43653  -1.639   7.280   6.301 -0.0932 -0.4188  0.5854
  324MOL0     C43654  -1.413   7.138   6.363 -0.5140 -0.6794 -0.3972
  324MOL0     C43655  -1.299   7.064   6.397 -0.1801 -0.8930 -0.4147
  324MOL0     N43656  -0.720   6.709   6.667  0.9139  0.6135  0.3522
  324MOL0     N43657  -0.724   6.611   6.742 -0.0975 -0.3737 -0.7900
  324MOL0     C43658  -0.075   6.835   7.577  0.8015  0.1398 -0.1416
  324MOL0     C43659   0.056   6.864   7.582 -0.4574 -0.0536 -0.0743
  324MOL0     C43660   0.512   6.830   7.696  0.2739 -0.6733  0.3141
  324MOL0     C43661   0.533   6.972   7.667  0.3638  0.0681 -0.8801
  324MOL0     C43662   0.657   7.033   7.669  0.8800 -0.4584  0.5365
  324MOL0     C43663   0.773   6.958   7.709  0.9468  0.7254  0.4490
  324MOL0     O43664   0.896   7.006   7.725  0.3299 -0.8603 -0.2034
  324MOL0     C43665   0.915   7.148   7.694 -0.0000  0.0178  0.1326
  324MOL0     C43666   1.040   7.191   7.776 -0.5771  0.9673  1.1604
  324MOL0     C43667   1.005   7.231   7.922 -0.5662  0.1277 -0.2167
  324MOL0     C43668   1.126   7.296   7.990  0.7833 -0.6487 -0.1706
  324MOL0     C43669   1.235   7.206   8.021  0.3225  0.4457 -0.2243
  324MOL0     C43670   1.331   7.126   8.027 -0.1969 -0.3076 -0.0659
  324MOL0     C43671   0.747   6.822   7.746  0.1377 -0.6652  0.0048
  324MOL0     C43672   0.621   6.759   7.739  0.2932  0.2615  0.3492
  324MOL0     H43673   0.145   6.673   7.843 -0.0452 -1.1351  0.2789
  324MOL0     H43674  -0.088   6.601   7.822  1.5034 -0.6029  0.1137
  324MOL0     H43675  -0.283   6.528   7.626 -0.0503  0.1857 -1.4031
  324MOL0     H43676  -0.330   6.579   7.788 -0.2914  1.8781  0.8275
  324MOL0     H43677  -0.529   6.508   7.676  2.3049 -0.3443  0.9030
  324MOL0     H43678  -0.546   6.667   7.723 -2.1428 -0.7149 -0.3854
  324MOL0     H43679  -0.483   6.746   7.493  0.9429 -0.2346 -1.8136
  324MOL0     H43680  -0.444   6.579   7.446 -1.5196 -3.2580  2.1047
  324MOL0     H43681  -0.662   6.495   7.470 -2.8598 -0.5258 -1.0001
  324MOL0     H43682  -0.715   6.663   7.505  0.1855  3.2146 -1.6401
  324MOL0     H43683  -0.754   6.633   7.275  0.7466  2.6786 -3.7797
  324MOL0     H43684  -0.612   6.746   7.282  1.2963 -0.3381  0.4924
  324MOL0     H43685  -0.459   6.545   7.237 -0.8790  1.5824 -0.0323
  324MOL0     H43686  -0.607   6.446   7.229  1.2702 -1.3191 -1.2697
  324MOL0     H43687  -0.542   6.703   7.052 -0.0853  0.2613  1.4342
  324MOL0     H43688  -0.495   6.550   6.996  0.7350  3.0708 -1.0550
  324MOL0     H43689  -0.789   6.591   7.049  0.3947 -3.4296 -0.0459
  324MOL0     H43690  -0.709   6.473   6.953 -1.8950 -1.8992  2.5729
  324MOL0     H43691  -0.709   6.863   6.962 -1.3186 -1.3672  0.1234
  324MOL0     H43692  -0.682   7.039   6.741  0.5468  1.0336 -1.1786
  324MOL0     H43693  -0.646   6.948   6.596  0.0177  0.2431  0.1588
  324MOL0     H43694  -0.837   7.092   6.560 -2.0344 -1.4930 -1.9612
  324MOL0     H43695  -0.920   7.027   6.703  1.5353  0.7709  0.5395
  324MOL0     H43696  -0.956   6.807   6.599 -2.4252 -1.1422 -2.1996
  324MOL0     H43697  -0.856   6.860   6.459 -0.8682  2.4112 -2.1150
  324MOL0     H43698  -1.078   6.867   6.419  1.1957  2.1267 -4.7388
  324MOL0     H43699  -1.024   7.041   6.416 -1.5817  0.1343 -0.6311
  324MOL0     H43700  -1.288   7.137   6.731  1.8982  0.9317 -0.2693
  324MOL0     H43701  -1.596   7.288   6.728  0.3968  0.3539  0.6857
  324MOL0     H43702  -1.430   7.296   6.794  0.0383  2.5767 -0.0533
  324MOL0     H43703  -1.477   7.409   6.676 -2.9540 -0.0658 -0.8208
  324MOL0     H43704  -1.811   7.477   6.722 -1.6591  0.9826  1.0521
  324MOL0     H43705  -2.012   7.579   6.713 -1.6203  0.4521  0.2198
  324MOL0     H43706  -2.095   7.795   6.388  2.6530 -0.7005  4.2779
  324MOL0     H43707  -2.245   7.715   6.336 -0.2752 -0.9798  0.4221
  324MOL0     H43708  -2.353   7.794   6.546  1.3083 -2.0273  0.2789
  324MOL0     H43709  -2.201   7.885   6.574 -0.4207 -1.4969  0.9968
  324MOL0     H43710  -2.399   7.916   6.347  1.3767 -1.9821 -0.8520
  324MOL0     H43711  -2.245   8.003   6.357  0.7070 -1.0188  0.7800
  324MOL0     H43712  -2.303   8.120   6.567 -0.7149  0.6044  0.9627
  324MOL0     H43713  -2.371   8.170   6.413 -0.9145  1.2301  1.2287
  324MOL0     H43714  -2.505   8.015   6.644 -0.4546 -0.2156 -0.8087
  324MOL0     H43715  -2.576   8.027   6.483 -1.1875  1.5490 -0.7913
  324MOL0     H43716  -2.500   8.271   6.664  1.7103  0.7631 -2.9449
  324MOL0     H43717  -2.561   8.273   6.508 -1.7305 -1.3848 -1.6144
  324MOL0     H43718  -2.699   8.166   6.758  1.3671  1.3538  0.2126
  324MOL0     H43719  -2.768   8.128   6.606 -0.4782  1.1672 -0.9236
  324MOL0     H43720  -2.879   8.334   6.690 -1.6438  2.3125 -0.2489
  324MOL0     H43721  -2.773   8.375   6.545 -0.5798  2.5905  1.5036
  324MOL0     H43722  -2.013   7.567   6.279 -0.6760 -2.2303  0.4803
  324MOL0     H43723  -1.819   7.432   6.281 -1.4931  1.2139 -0.8831
  324MOL0     H43724  -1.439   7.136   6.257 -0.2103  1.1084 -0.5426
  324MOL0     H43725  -1.241   7.015   6.319 -0.7247 -2.5578  0.1938
  324MOL0     H43726  -0.141   6.877   7.502 -0.7730 -2.2827 -0.2397
  324MOL0     H43727   0.095   6.923   7.499 -2.7869 -0.9099 -1.8642
  324MOL0     H43728   0.450   7.036   7.636  0.8703 -0.0983 -2.6658
  324MOL0     H43729   0.660   7.138   7.643 -0.3487 -0.6136 -0.2876
  324MOL0     H43730   0.938   7.148   7.588  1.6106  1.8216  0.4357
  324MOL0     H43731   0.836   7.222   7.707  0.8604  0.6474  2.1583
  324MOL0     H43732   1.086   7.285   7.743  1.0464  0.0870  0.8083
  324MOL0     H43733   1.115   7.113   7.782 -0.9890  0.6282  2.0024
  324MOL0     H43734   0.988   7.137   7.976 -0.2455  0.0472 -0.2489
  324MOL0     H43735   0.911   7.286   7.914 -1.7416 -1.9797 -2.4847
  324MOL0     H43736   1.093   7.346   8.082  2.6643 -4.4677  2.9030
  324MOL0     H43737   1.164   7.380   7.931  1.5247 -0.5757  0.3793
  324MOL0     H43738   1.425   7.074   8.028  1.3191  2.1444 -1.9005
  324MOL0     H43739   0.830   6.754   7.766  0.6531  0.7121  3.2109
  324MOL0     H43740   0.624   6.653   7.762  1.3075  0.4644  1.2287
  325MOL0     O43741   9.653   0.990   7.482 -0.2345 -0.3755 -0.0294
  325MOL0     C43742   9.736   0.929   7.550  0.2055  0.2401  0.6443
  325MOL0     O43743   9.707   0.825   7.641 -0.8244  0.3866  0.4302
  325MOL0     C43744   9.592   0.751   7.630 -0.3038  0.5906 -0.1387
  325MOL0     C43745   9.566   0.651   7.722 -0.0093  0.3494 -0.1083
  325MOL0     C43746   9.461   0.561   7.719  0.8053  0.1991 -0.3589
  325MOL0     C43747   9.361   0.575   7.623 -0.1120  0.7989 -0.0403
  325MOL0     O43748   9.261   0.481   7.612 -0.0556 -0.0151  0.8366
  325MOL0     C43749   9.160   0.461   7.719 -0.3079 -0.4035  0.0092
  325MOL0     C43750   9.031   0.429   7.642 -0.1514  0.2582  0.7159
  325MOL0     C43751   8.915   0.365   7.722 -0.1535 -0.8885 -0.0358
  325MOL0     C43752   8.927   0.206   7.725  0.0007 -1.1482  0.4663
  325MOL0     C43753   8.799   0.144   7.771  0.1588  0.0402  0.6274
  325MOL0     C43754   8.802  -0.013   7.782  0.1141  0.1539  0.1128
  325MOL0     C43755   8.670  -0.072   7.811  0.1671 -0.5010 -0.3360
  325MOL0     C43756   8.681  -0.220   7.830  0.5861  0.2390 -0.3803
  325MOL0     N43757   8.541  -0.279   7.843  0.3795  0.8239 -0.6196
  325MOL0     C43758   8.441  -0.252   7.935  0.1905 -0.6743 -0.0695
  325MOL0     C43759   8.372  -0.363   7.941 -0.5610 -0.3842 -0.6713
  325MOL0     C43760   8.263  -0.402   8.043 -0.2138 -0.8521 -0.6605
  325MOL0     C43761   8.197  -0.535   8.032  1.4173 -0.2795  0.3268
  325MOL0     C43762   8.077  -0.563   8.128  0.0539  0.2828  0.3387
  325MOL0     C43763   8.043  -0.715   8.119  0.5879  1.0289  0.0542
  325MOL0     O43764   7.933  -0.749   8.207  0.7441  0.2328 -0.2552
  325MOL0     C43765   7.800  -0.715   8.170  0.0109 -0.1847  0.8987
  325MOL0     C43766   7.693  -0.731   8.260 -0.1016  0.0131  0.7578
  325MOL0     C43767   7.558  -0.712   8.220 -0.1438  0.0515 -0.0792
  325MOL0     C43768   7.445  -0.735   8.319 -0.5567 -0.5065  0.2225
  325MOL0     C43769   7.521  -0.665   8.090  0.2272 -0.4268  0.5110
  325MOL0     C43770   7.388  -0.622   8.040  0.1035 -0.3586 -0.3625
  325MOL0     O43771   7.368  -0.633   7.908  0.5599  0.0704  0.0962
  325MOL0     C43772   7.245  -0.622   7.850  0.0937 -0.0683 -0.1714
  325MOL0     C43773   7.176  -0.742   7.830  0.3011  0.1288 -0.1789
  325MOL0     C43774   7.040  -0.727   7.780  0.1129  0.5426 -0.3874
  325MOL0     C43775   6.970  -0.607   7.769  0.1414  0.0785 -0.0925
  325MOL0     O43776   6.836  -0.586   7.745  0.2904  0.7668  0.2259
  325MOL0     C43777   6.743  -0.701   7.783 -0.1456  0.0287 -0.2656
  325MOL0     C43778   6.606  -0.638   7.825 -0.1099  0.7295  0.7051
  325MOL0     C43779   6.611  -0.515   7.916 -0.1354  0.3300  0.3293
  325MOL0     C43780   6.699  -0.543   8.038  0.5226 -0.6191 -0.0156
  325MOL0     C43781   6.720  -0.419   8.123  0.1297 -0.4676 -0.0757
  325MOL0     C43782   6.818  -0.447   8.252 -0.1575 -0.4538  0.8422
  325MOL0     C43783   6.973  -0.448   8.211  0.3494  0.0467 -0.9752
  325MOL0     C43784   7.054  -0.485   8.343  0.1532  0.3237  1.0459
  325MOL0    Cl43785   7.015  -0.377   8.482  0.0809 -0.3984 -0.1070
  325MOL0     C43786   7.044  -0.490   7.793  0.3080  0.5114  0.4175
  325MOL0     C43787   7.185  -0.495   7.822  0.0125 -0.4914 -0.2523
  325MOL0     O43788   7.297  -0.586   8.122 -1.0436  0.0367  0.0139
  325MOL0     C43789   7.625  -0.648   8.001  0.1406 -0.0374  0.5747
  325MOL0     C43790   7.757  -0.675   8.043  0.5851 -0.8407 -0.4119
  325MOL0     N43791   8.419  -0.457   7.849 -0.4960 -0.1120 -0.5859
  325MOL0     N43792   8.514  -0.396   7.784 -0.1910  0.1717 -0.2354
  325MOL0     C43793   9.370   0.677   7.531 -0.9184 -0.4753 -0.4366
  325MOL0     C43794   9.492   0.756   7.527  0.3146 -0.6784 -0.4424
  325MOL0     C43795   9.868   0.983   7.551  0.1557  0.6570 -0.3854
  325MOL0     C43796   9.979   0.891   7.575 -0.2458 -0.5814  0.6109
  325MOL0     C43797  10.113   0.934   7.569 -0.0687 -0.5146  0.0365
  325MOL0     C43798  10.141   1.060   7.521  0.5947 -0.4964 -0.3404
  325MOL0     O43799  10.267   1.108   7.494  0.1874 -0.6858 -0.3518
  325MOL0     C43800  10.350   1.094   7.611 -0.5151 -0.1813  0.2852
  325MOL0     C43801  10.421   1.230   7.637  0.2069 -0.5564 -0.0612
  325MOL0     C43802  10.556   1.225   7.719 -0.0606  0.5430  0.2186
  325MOL0     C43803  10.663   1.161   7.629  0.0890 -0.4251 -0.2315
  325MOL0     C43804  10.797   1.189   7.685 -0.0632  0.3398 -0.6268
  325MOL0     C43805  10.906   1.180   7.741 -0.0408 -0.5986  0.1733
  325MOL0     C43806  10.042   1.155   7.506  0.8868  0.7022 -0.8826
  325MOL0     C43807   9.903   1.122   7.511  0.2919  0.3456  0.1449
  325MOL0     H43808   9.645   0.634   7.795  0.0441 -1.3929 -0.5207
  325MOL0     H43809   9.457   0.482   7.793  1.4378  1.0305  0.5941
  325MOL0     H43810   9.194   0.376   7.779  0.2533  0.5761  1.1374
  325MOL0     H43811   9.138   0.550   7.779  0.1779 -0.3178  0.0618
  325MOL0     H43812   8.997   0.527   7.607 -0.8667  0.0103  0.6994
  325MOL0     H43813   9.052   0.365   7.556  1.7815  0.7551  0.7722
  325MOL0     H43814   8.916   0.407   7.823  0.9844  1.7116 -1.0452
  325MOL0     H43815   8.817   0.391   7.681  0.7010  0.3750 -1.3817
  325MOL0     H43816   8.952   0.167   7.626 -2.5859 -0.3485 -0.5872
  325MOL0     H43817   9.015   0.185   7.787 -0.4445 -0.1852  1.4546
  325MOL0     H43818   8.774   0.187   7.868 -2.9600 -0.9785  0.3817
  325MOL0     H43819   8.719   0.171   7.702  1.3977  2.6479  0.1028
  325MOL0     H43820   8.831  -0.052   7.684  1.7739  0.4457  0.4686
  325MOL0     H43821   8.880  -0.034   7.855 -1.1317 -4.0444  0.5007
  325MOL0     H43822   8.630  -0.034   7.905  0.9255 -4.5855  1.8686
  325MOL0     H43823   8.607  -0.048   7.725  0.7354  2.0938 -0.1121
  325MOL0     H43824   8.738  -0.235   7.922  4.4685 -0.4021 -2.6889
  325MOL0     H43825   8.732  -0.267   7.745  0.2964 -0.6510 -0.0779
  325MOL0     H43826   8.443  -0.159   7.991  2.4579 -1.1369  0.7299
  325MOL0     H43827   8.313  -0.395   8.140 -0.3829 -0.0858 -0.6191
  325MOL0     H43828   8.192  -0.318   8.046  0.2165 -0.5059  0.4295
  325MOL0     H43829   8.264  -0.618   8.058 -0.8782 -2.0591  0.9600
  325MOL0     H43830   8.172  -0.564   7.929  1.0901 -3.3924  1.1910
  325MOL0     H43831   7.988  -0.504   8.104  0.6671  0.5157 -1.5460
  325MOL0     H43832   8.121  -0.549   8.227  2.9419  3.3381 -1.1580
  325MOL0     H43833   8.128  -0.780   8.141  0.7947  0.8195 -1.3212
  325MOL0     H43834   8.017  -0.732   8.015  0.3916  1.1575  0.0816
  325MOL0     H43835   7.705  -0.759   8.364  0.3506  2.0741  1.2911
  325MOL0     H43836   7.475  -0.801   8.401  4.2257  0.1356 -0.7679
  325MOL0     H43837   7.409  -0.639   8.358 -0.0959 -0.5800  0.8302
  325MOL0     H43838   7.372  -0.784   8.254 -1.0439  2.0625 -1.3046
  325MOL0     H43839   7.234  -0.833   7.846  0.5087  0.5035  1.2927
  325MOL0     H43840   6.992  -0.822   7.759  0.6918  0.0597  0.3679
  325MOL0     H43841   6.737  -0.773   7.701 -2.2927  1.3431 -1.3278
  325MOL0     H43842   6.790  -0.753   7.867 -0.0305  2.5109  1.3302
  325MOL0     H43843   6.554  -0.610   7.733 -1.2154 -0.1549  1.0301
  325MOL0     H43844   6.551  -0.718   7.875  0.7217 -0.2539  0.0763
  325MOL0     H43845   6.510  -0.501   7.957 -0.5450  0.5010 -0.6996
  325MOL0     H43846   6.649  -0.426   7.866 -3.3021 -0.2558 -3.7563
  325MOL0     H43847   6.652  -0.615   8.106  0.0948  2.2321  2.9730
  325MOL0     H43848   6.796  -0.586   8.009 -0.8019 -2.0052 -2.7856
  325MOL0     H43849   6.621  -0.386   8.156  0.8444  0.3333  1.3964
  325MOL0     H43850   6.762  -0.335   8.066 -0.5501 -1.1426 -1.6166
  325MOL0     H43851   6.806  -0.365   8.322  0.1244  0.0500  0.3125
  325MOL0     H43852   6.789  -0.542   8.299  3.0330 -3.0453 -1.8710
  325MOL0     H43853   7.004  -0.351   8.172  1.0285  0.1979 -0.0954
  325MOL0     H43854   6.989  -0.526   8.136  0.0500 -2.8310  1.7047
  325MOL0     H43855   7.162  -0.488   8.325 -0.2234  1.1863 -1.9997
  325MOL0     H43856   7.024  -0.586   8.371 -1.9661  0.2911 -1.0471
  325MOL0     H43857   6.993  -0.394   7.788 -0.9801 -0.1885 -0.6462
  325MOL0     H43858   7.253  -0.411   7.833 -1.7883  0.9190  0.7237
  325MOL0     H43859   7.607  -0.610   7.901  1.9969  1.4911  0.7630
  325MOL0     H43860   7.836  -0.659   7.969  0.5360 -0.4714 -0.3877
  325MOL0     H43861   9.292   0.689   7.456 -1.3068 -0.8912 -0.1042
  325MOL0     H43862   9.504   0.824   7.444  1.6707  0.4889  0.6398
  325MOL0     H43863   9.966   0.784   7.588 -0.4638 -0.7551 -0.8972
  325MOL0     H43864  10.194   0.863   7.584  2.0952  1.9509  0.7189
  325MOL0     H43865  10.311   1.068   7.710  2.3323  1.5870  2.0182
  325MOL0     H43866  10.415   1.011   7.581  1.2951  0.7578  1.4079
  325MOL0     H43867  10.350   1.290   7.695 -0.5209 -0.1078 -1.3694
  325MOL0     H43868  10.436   1.286   7.544  0.0913  0.5242  0.5503
  325MOL0     H43869  10.547   1.171   7.814 -2.0698 -1.0264 -0.7961
  325MOL0     H43870  10.584   1.327   7.749  4.4172 -0.7604  1.1706
  325MOL0     H43871  10.655   1.207   7.530  1.0016 -0.7139 -0.4520
  325MOL0     H43872  10.659   1.053   7.616 -0.5390 -0.4604  0.2111
  325MOL0     H43873  11.006   1.196   7.775 -0.4970 -0.6513  1.5927
  325MOL0     H43874  10.079   1.245   7.457 -2.2791  1.6024 -1.8621
  325MOL0     H43875   9.829   1.196   7.484  0.2326 -0.1571 -1.1178
  326MOL0     O43876   3.781   0.944   0.482 -0.3527 -0.8079  0.0261
  326MOL0     C43877   3.865   0.911   0.403 -0.6057  0.2504 -0.3562
  326MOL0     O43878   3.856   0.800   0.320 -0.6134 -0.1749 -0.1987
  326MOL0     C43879   3.753   0.716   0.337 -0.0367 -0.3083 -1.0308
  326MOL0     C43880   3.779   0.583   0.366 -0.6213 -0.1653 -0.7965
  326MOL0     C43881   3.675   0.491   0.390 -0.8726 -0.5154  0.1986
  326MOL0     C43882   3.540   0.530   0.370  0.1487  0.6660 -0.3842
  326MOL0     O43883   3.443   0.437   0.386 -0.2421  0.3013  1.2074
  326MOL0     C43884   3.312   0.485   0.411  0.5287 -0.1436  0.0344
  326MOL0     C43885   3.215   0.373   0.431 -0.2493  0.2782 -0.4122
  326MOL0     C43886   3.073   0.404   0.453  1.2465 -0.0538 -0.6004
  326MOL0     C43887   3.058   0.447   0.603  0.9503 -0.0164 -0.3912
  326MOL0     C43888   2.923   0.518   0.607  0.4456 -0.6124  0.7041
  326MOL0     C43889   2.890   0.541   0.749  0.6070  0.0120 -0.1229
  326MOL0     C43890   2.747   0.595   0.766 -0.0543  0.4450  0.6184
  326MOL0     C43891   2.704   0.596   0.917 -0.2179 -0.6928  0.6350
  326MOL0     N43892   2.556   0.614   0.925  0.6953  0.5431  0.6824
  326MOL0     C43893   2.465   0.510   0.961  0.0664  0.3366 -1.1036
  326MOL0     C43894   2.341   0.574   0.964 -0.4872  0.1722 -0.3394
  326MOL0     C43895   2.203   0.517   0.997  0.8517  0.4922  0.2586
  326MOL0     C43896   2.163   0.593   1.131 -0.8699  0.9531 -1.2506
  326MOL0     C43897   2.029   0.561   1.188  0.5559 -0.1947  0.0245
  326MOL0     C43898   1.917   0.569   1.089  0.8557 -0.4328  0.5821
  326MOL0     O43899   1.898   0.454   1.006 -0.1244 -0.3637  0.3636
  326MOL0     C43900   1.822   0.345   1.043  0.5158 -0.1553  1.0546
  326MOL0     C43901   1.744   0.346   1.159 -0.5135 -1.0044  0.0675
  326MOL0     C43902   1.660   0.236   1.179 -0.9366  0.0697  0.0103
  326MOL0     C43903   1.572   0.251   1.301 -0.0181 -0.8297 -0.0565
  326MOL0     C43904   1.651   0.125   1.093 -0.0727  0.1772  0.0691
  326MOL0     C43905   1.579  -0.007   1.111  0.5373  0.1112  0.0538
  326MOL0     O43906   1.589  -0.094   1.006 -0.4342 -0.1057  0.2784
  326MOL0     C43907   1.539  -0.215   1.024  0.1732  0.5235 -0.0341
  326MOL0     C43908   1.610  -0.331   0.965  0.7553  0.0601  0.3677
  326MOL0     C43909   1.549  -0.458   0.972  0.2739 -0.1004  0.4640
  326MOL0     C43910   1.419  -0.483   1.023  0.0404 -0.6281 -0.3031
  326MOL0     O43911   1.369  -0.610   1.045 -0.6414 -0.7125  0.2218
  326MOL0     C43912   1.387  -0.695   0.933 -0.7436 -0.2623  0.6845
  326MOL0     C43913   1.314  -0.833   0.976 -0.1266 -0.5435 -0.1303
  326MOL0     C43914   1.348  -0.933   0.869  0.4847 -0.6205 -0.1940
  326MOL0     C43915   1.256  -1.045   0.869 -0.4696  1.0171  0.4525
  326MOL0     C43916   1.269  -1.144   0.747  0.2375 -0.0962 -0.0983
  326MOL0     C43917   1.182  -1.275   0.745 -0.2370  0.1989 -0.4167
  326MOL0     C43918   1.212  -1.357   0.605  0.4291 -0.3511 -0.2118
  326MOL0     C43919   1.098  -1.448   0.564 -0.3133 -0.3349  0.1345
  326MOL0    Cl43920   1.147  -1.556   0.432 -0.7854  0.6464 -0.3015
  326MOL0     C43921   1.349  -0.369   1.068 -0.1285 -0.4732  1.2978
  326MOL0     C43922   1.407  -0.239   1.067  0.1525 -0.0777  0.2347
  326MOL0     O43923   1.537  -0.035   1.226  0.0690 -0.1633  0.2406
  326MOL0     C43924   1.738   0.134   0.976 -0.0917 -0.1625 -0.4683
  326MOL0     C43925   1.816   0.243   0.952  0.1844 -0.3206  0.1824
  326MOL0     N43926   2.361   0.702   0.926  0.1981 -0.2223  0.2418
  326MOL0     N43927   2.480   0.724   0.897 -0.2093 -0.3940  0.3669
  326MOL0     C43928   3.514   0.659   0.332  0.7294  0.0328  0.3542
  326MOL0     C43929   3.615   0.749   0.318 -0.2411 -0.6052  0.2702
  326MOL0     C43930   3.985   1.001   0.403  0.8132 -0.7930  0.3770
  326MOL0     C43931   4.090   0.983   0.310 -0.5113 -0.1866  0.1625
  326MOL0     C43932   4.206   1.058   0.320 -0.9845  0.0808  1.3351
  326MOL0     C43933   4.214   1.157   0.414 -0.0796 -0.1488 -1.1690
  326MOL0     O43934   4.321   1.234   0.427  0.0207  0.7977 -0.7116
  326MOL0     C43935   4.334   1.325   0.316  1.1585  0.4384  0.1572
  326MOL0     C43936   4.416   1.443   0.366 -0.2251  0.4265  0.0767
  326MOL0     C43937   4.560   1.394   0.400  0.3921 -1.1606 -0.2102
  326MOL0     C43938   4.643   1.511   0.465 -0.0791  0.0272  0.3865
  326MOL0     C43939   4.785   1.456   0.507  0.7642 -0.1980  0.0566
  326MOL0     C43940   4.893   1.417   0.547  0.9014 -0.5025  0.0151
  326MOL0     C43941   4.112   1.185   0.505  0.2258  1.1037  0.5492
  326MOL0     C43942   3.994   1.111   0.492  0.2262 -0.3764 -0.4039
  326MOL0     H43943   3.881   0.549   0.382 -0.9314  0.4445  3.9216
  326MOL0     H43944   3.708   0.388   0.396 -0.3023 -0.5759 -2.4582
  326MOL0     H43945   3.322   0.553   0.497 -0.0291 -0.6147  0.4877
  326MOL0     H43946   3.266   0.540   0.328  0.3308  0.1049  0.3032
  326MOL0     H43947   3.223   0.308   0.344 -1.7226 -2.0061  1.0556
  326MOL0     H43948   3.248   0.318   0.519 -0.4470  0.1318 -0.4286
  326MOL0     H43949   3.046   0.485   0.385  1.3061  0.7990  0.3528
  326MOL0     H43950   3.007   0.319   0.437  2.3005 -1.5162  1.9927
  326MOL0     H43951   3.058   0.363   0.673 -0.1185  0.6884  0.4860
  326MOL0     H43952   3.127   0.525   0.637 -0.9820  1.1778  0.9954
  326MOL0     H43953   2.925   0.614   0.555  0.7576 -1.5329 -1.0294
  326MOL0     H43954   2.848   0.454   0.560 -0.1213  0.3795  0.2223
  326MOL0     H43955   2.903   0.449   0.807  0.0063 -1.3080 -1.9635
  326MOL0     H43956   2.954   0.616   0.796  0.1439  0.8286 -0.7634
  326MOL0     H43957   2.743   0.698   0.728  1.6433  2.2227  4.6456
  326MOL0     H43958   2.673   0.534   0.715 -0.0263 -0.2333  1.3608
  326MOL0     H43959   2.735   0.687   0.969 -2.2687  1.1645 -1.1896
  326MOL0     H43960   2.738   0.506   0.970  2.9665 -0.3995 -0.6934
  326MOL0     H43961   2.478   0.403   0.973 -1.4738 -0.0476 -2.5563
  326MOL0     H43962   2.136   0.556   0.920 -1.4624 -0.2266  1.8049
  326MOL0     H43963   2.212   0.408   1.002  1.9163  0.4167 -2.1839
  326MOL0     H43964   2.183   0.701   1.127 -1.2333  1.1260  0.4652
  326MOL0     H43965   2.241   0.572   1.205 -1.3479  2.2815 -0.3199
  326MOL0     H43966   2.015   0.648   1.253  3.3885  1.8009 -1.8217
  326MOL0     H43967   2.023   0.474   1.255 -1.9741 -0.1067 -0.0004
  326MOL0     H43968   1.941   0.651   1.021 -2.5620 -2.2271 -3.2485
  326MOL0     H43969   1.821   0.597   1.134  0.4424  0.9435 -1.0663
  326MOL0     H43970   1.739   0.426   1.232  1.5151 -2.6992  2.2077
  326MOL0     H43971   1.577   0.174   1.378  0.8634  2.1598  3.1012
  326MOL0     H43972   1.588   0.351   1.341  3.4872  0.4653 -3.9983
  326MOL0     H43973   1.468   0.250   1.266 -0.7066  0.5468  1.7739
  326MOL0     H43974   1.703  -0.313   0.911  0.0061  2.3337 -0.2498
  326MOL0     H43975   1.609  -0.537   0.928  0.5391  1.0556 -1.3859
  326MOL0     H43976   1.340  -0.654   0.843 -1.8558 -0.0257  1.3537
  326MOL0     H43977   1.488  -0.728   0.906 -2.2120 -1.8437 -3.8205
  326MOL0     H43978   1.370  -0.864   1.064  1.6864 -0.2608 -1.1253
  326MOL0     H43979   1.207  -0.823   0.997  0.0496 -1.4883  1.3518
  326MOL0     H43980   1.439  -0.993   0.881  0.0168 -1.4836 -0.8623
  326MOL0     H43981   1.352  -0.875   0.776  1.9017  0.9857  0.7908
  326MOL0     H43982   1.270  -1.104   0.960 -0.4523 -2.0584 -1.3738
  326MOL0     H43983   1.151  -1.014   0.860 -1.8075 -2.3617  2.4357
  326MOL0     H43984   1.373  -1.177   0.752  0.6209  1.1434  0.6371
  326MOL0     H43985   1.260  -1.091   0.652 -0.3278 -0.1177 -0.0562
  326MOL0     H43986   1.214  -1.330   0.834 -1.8436 -3.1426 -1.7163
  326MOL0     H43987   1.075  -1.254   0.757 -1.0863 -2.4935 -2.2480
  326MOL0     H43988   1.302  -1.416   0.628  0.4588 -0.6121 -0.9837
  326MOL0     H43989   1.224  -1.291   0.519 -0.1823 -0.5607 -0.4596
  326MOL0     H43990   1.004  -1.397   0.544  0.5984  1.5607  0.4144
  326MOL0     H43991   1.080  -1.521   0.644  1.9073 -1.9436 -0.7207
  326MOL0     H43992   1.245  -0.379   1.096 -0.8757 -1.1379 -1.3820
  326MOL0     H43993   1.353  -0.152   1.104  0.1079  0.1043 -0.2556
  326MOL0     H43994   1.751   0.057   0.901 -1.5836  0.3615 -1.3233
  326MOL0     H43995   1.873   0.257   0.860  2.7874 -0.7273  1.6274
  326MOL0     H43996   3.416   0.689   0.298  1.3178  1.3343 -0.2674
  326MOL0     H43997   3.605   0.848   0.274  1.6080 -0.7472 -0.5639
  326MOL0     H43998   4.074   0.904   0.236 -3.2325 -0.6915  1.1527
  326MOL0     H43999   4.279   1.036   0.243 -2.5092 -3.0897  0.6331
  326MOL0     H44000   4.381   1.275   0.231 -2.7679 -1.5056 -1.0895
  326MOL0     H44001   4.243   1.369   0.275  1.3001 -1.0681 -1.9425
  326MOL0     H44002   4.367   1.479   0.457  0.4033 -0.2758  0.7087
  326MOL0     H44003   4.418   1.521   0.290 -0.8530 -0.0861 -0.4770
  326MOL0     H44004   4.614   1.352   0.315  0.6901 -2.7775  0.7310
  326MOL0     H44005   4.560   1.316   0.477 -0.0441 -0.3421  0.6322
  326MOL0     H44006   4.601   1.551   0.558  3.0396  1.3171  1.3603
  326MOL0     H44007   4.663   1.594   0.397  3.9931  0.6336  2.0838
  326MOL0     H44008   4.991   1.392   0.583  0.7719 -0.0959  0.6752
  326MOL0     H44009   4.130   1.265   0.577 -0.4517  1.6354  0.1392
  326MOL0     H44010   3.924   1.124   0.574  0.5457 -0.6822 -0.0828
  327MOL0     O44011   4.528   4.429   0.569  0.1795 -0.2063  0.2508
  327MOL0     C44012   4.572   4.508   0.660  0.7192  0.0636  0.4539
  327MOL0     O44013   4.503   4.548   0.773 -0.5872 -0.4655  0.3280
  327MOL0     C44014   4.372   4.504   0.800  0.7079  0.6455  0.5565
  327MOL0     C44015   4.266   4.521   0.708  0.4985  0.6313 -0.2864
  327MOL0     C44016   4.133   4.477   0.736 -0.3839  0.4061  0.0620
  327MOL0     C44017   4.106   4.419   0.861  0.0210 -0.0469  0.7866
  327MOL0     O44018   3.980   4.371   0.890  0.0222 -0.4262  0.1730
  327MOL0     C44019   3.885   4.343   0.788 -0.0894  0.2036 -0.5650
  327MOL0     C44020   3.765   4.260   0.839  0.1680 -0.3236 -0.1532
  327MOL0     C44021   3.695   4.319   0.954 -0.3451 -1.3729  0.6685
  327MOL0     C44022   3.581   4.233   1.009 -0.9907 -1.0475 -0.5880
  327MOL0     C44023   3.449   4.241   0.938 -0.4488  0.1034  0.6689
  327MOL0     C44024   3.354   4.137   0.989  0.4420 -1.0135  0.8779
  327MOL0     C44025   3.280   4.168   1.119 -0.2516 -0.4974  0.3421
  327MOL0     C44026   3.179   4.062   1.165  0.0737 -0.1993  0.7227
  327MOL0     N44027   3.048   4.090   1.115  0.3552  0.6202  0.6864
  327MOL0     C44028   2.935   4.004   1.123 -0.6935  0.0753 -0.1340
  327MOL0     C44029   2.836   4.074   1.059 -0.5762  0.2419  0.3327
  327MOL0     C44030   2.710   4.009   1.008 -0.3205  0.3740  0.3034
  327MOL0     C44031   2.598   4.026   1.099 -0.5596  0.5936  0.0368
  327MOL0     C44032   2.477   4.060   1.024  0.6962 -0.1798  0.3889
  327MOL0     C44033   2.346   4.074   1.118 -0.5410  0.4221  0.2929
  327MOL0     O44034   2.239   4.109   1.022  0.2668 -0.2042  0.3104
  327MOL0     C44035   2.114   4.108   1.076  0.0847  0.7150  0.6502
  327MOL0     C44036   2.079   4.091   1.214  0.0644 -0.3118  0.2179
  327MOL0     C44037   1.944   4.085   1.255  0.1762 -0.1775  0.1303
  327MOL0     C44038   1.907   4.066   1.399  0.5881 -0.2644  0.2649
  327MOL0     C44039   1.834   4.113   1.161 -0.2902  0.5758 -0.6004
  327MOL0     C44040   1.697   4.123   1.197 -0.1912 -0.4749  0.8801
  327MOL0     O44041   1.608   4.136   1.093  0.4188  0.9026 -0.1120
  327MOL0     C44042   1.467   4.133   1.097  0.3927  0.3966 -0.9774
  327MOL0     C44043   1.391   4.084   0.993  0.2916  1.0292 -0.6992
  327MOL0     C44044   1.251   4.082   0.982  0.1026 -0.4958 -0.0888
  327MOL0     C44045   1.175   4.139   1.088  0.4391 -0.0682 -0.6128
  327MOL0     O44046   1.038   4.142   1.100  0.2198 -0.3473  0.4647
  327MOL0     C44047   0.957   4.038   1.030 -0.3749  0.0316 -0.2956
  327MOL0     C44048   0.826   4.000   1.098  0.0661 -0.2198 -0.2900
  327MOL0     C44049   0.838   3.943   1.240 -0.0903  0.2214 -0.5801
  327MOL0     C44050   0.706   3.914   1.318 -0.2242 -0.0030 -0.1912
  327MOL0     C44051   0.740   3.854   1.471  0.0788 -0.2455  0.2432
  327MOL0     C44052   0.792   3.968   1.555 -1.1783 -0.8089  0.6931
  327MOL0     C44053   0.827   3.939   1.701  0.1205 -0.7569  0.7068
  327MOL0     C44054   0.874   4.069   1.763  0.5246 -0.2876 -0.5169
  327MOL0    Cl44055   0.743   4.184   1.775 -0.2707 -0.0479  0.4138
  327MOL0     C44056   1.247   4.203   1.189  0.4913  1.1751 -1.1323
  327MOL0     C44057   1.390   4.202   1.192 -0.0882 -0.4582 -0.6061
  327MOL0     O44058   1.664   4.131   1.312 -0.1346  0.6028  0.6003
  327MOL0     C44059   1.873   4.133   1.031  0.1358  0.1185 -0.6912
  327MOL0     C44060   2.007   4.143   0.992 -0.6124 -0.0834 -0.8896
  327MOL0     N44061   2.882   4.199   1.015 -0.2303  0.3082 -0.2731
  327MOL0     N44062   3.010   4.202   1.047 -0.5016 -0.4586  0.5022
  327MOL0     C44063   4.208   4.402   0.945 -0.1600 -0.4155  0.0827
  327MOL0     C44064   4.337   4.436   0.918 -0.0094 -0.5665 -0.0115
  327MOL0     C44065   4.720   4.521   0.667 -0.3755  0.6799  0.6944
  327MOL0     C44066   4.795   4.482   0.550 -0.1955 -0.1898  0.1609
  327MOL0     C44067   4.932   4.470   0.560 -0.2549 -0.3058 -0.1624
  327MOL0     C44068   4.995   4.488   0.687 -0.7829  0.2821  0.6218
  327MOL0     O44069   5.128   4.457   0.689 -0.3265 -0.1113  0.0407
  327MOL0     C44070   5.196   4.443   0.814 -0.3427  0.7091  0.5466
  327MOL0     C44071   5.319   4.374   0.761  0.0649 -0.2806  0.5496
  327MOL0     C44072   5.415   4.316   0.868  0.2022 -0.8730 -0.6723
  327MOL0     C44073   5.542   4.273   0.803  0.1390  0.0692 -0.3577
  327MOL0     C44074   5.620   4.376   0.743  0.2953  0.0660 -0.6336
  327MOL0     C44075   5.692   4.457   0.685 -0.2077  0.9470 -0.2506
  327MOL0     C44076   4.917   4.520   0.797 -0.3307  1.1741  0.3958
  327MOL0     C44077   4.783   4.540   0.785 -0.0819  0.7523 -1.0932
  327MOL0     H44078   4.286   4.566   0.610  1.4142  0.2841 -0.2691
  327MOL0     H44079   4.056   4.477   0.660 -1.9298 -2.6095  1.4434
  327MOL0     H44080   3.844   4.438   0.755  1.5352  1.4990  0.9464
  327MOL0     H44081   3.937   4.283   0.712  0.3746 -0.4063  0.2101
  327MOL0     H44082   3.709   4.241   0.747  1.5214  0.7989 -1.2588
  327MOL0     H44083   3.812   4.166   0.868 -0.3850 -1.4379 -2.5720
  327MOL0     H44084   3.759   4.341   1.040 -0.3964 -0.0339  0.3892
  327MOL0     H44085   3.649   4.412   0.919 -1.8545 -2.2860  0.1198
  327MOL0     H44086   3.624   4.134   1.030  3.4172  0.8364  0.3855
  327MOL0     H44087   3.569   4.269   1.112  0.5773  3.6053 -1.8077
  327MOL0     H44088   3.402   4.338   0.955  1.4499  1.0822  0.4883
  327MOL0     H44089   3.469   4.236   0.831 -3.2623 -0.8824  0.1062
  327MOL0     H44090   3.280   4.119   0.911  1.6784 -0.5652 -0.4423
  327MOL0     H44091   3.406   4.041   0.997 -0.0055 -1.2707  0.7588
  327MOL0     H44092   3.362   4.182   1.190  0.0807 -0.5534 -0.0242
  327MOL0     H44093   3.226   4.262   1.105 -1.4486 -0.9817  1.5759
  327MOL0     H44094   3.178   4.063   1.274  0.4644  0.5066  0.7236
  327MOL0     H44095   3.214   3.965   1.127 -1.3397 -0.6375  0.4906
  327MOL0     H44096   2.926   3.905   1.167  2.1731 -0.5411 -0.7101
  327MOL0     H44097   2.686   4.052   0.910 -0.1095 -0.3515 -0.0718
  327MOL0     H44098   2.728   3.902   0.997 -1.3419  0.2779 -0.7085
  327MOL0     H44099   2.621   4.101   1.175 -0.9278  1.4571 -0.6895
  327MOL0     H44100   2.578   3.928   1.144 -0.7799 -0.1575 -1.6227
  327MOL0     H44101   2.464   3.989   0.942  0.7170 -0.3480  0.5320
  327MOL0     H44102   2.495   4.160   0.983 -0.7472  0.7651  1.9153
  327MOL0     H44103   2.353   4.141   1.204 -0.5600 -2.9295  3.0762
  327MOL0     H44104   2.327   3.977   1.164  1.8226 -0.0514  0.4392
  327MOL0     H44105   2.151   4.058   1.289  0.3557 -0.1758 -0.0006
  327MOL0     H44106   1.847   4.146   1.444  0.8044  0.4296 -0.6393
  327MOL0     H44107   1.857   3.969   1.405  1.2870 -0.9839 -3.4609
  327MOL0     H44108   1.998   4.061   1.460  0.3663 -0.0666  0.6150
  327MOL0     H44109   1.446   4.044   0.908 -0.9750 -1.2882 -0.5148
  327MOL0     H44110   1.198   4.039   0.897 -1.9418 -0.0240  0.8804
  327MOL0     H44111   0.944   4.060   0.924 -0.8166 -1.9313 -0.7016
  327MOL0     H44112   1.010   3.942   1.034 -1.9686 -0.8376  1.6351
  327MOL0     H44113   0.766   4.091   1.108 -0.8893 -0.8386 -0.2229
  327MOL0     H44114   0.785   3.916   1.039  2.3416 -2.4245  1.0766
  327MOL0     H44115   0.898   4.017   1.293 -0.3501 -0.3851  0.5830
  327MOL0     H44116   0.904   3.857   1.228 -0.7786 -0.3711 -0.2157
  327MOL0     H44117   0.652   4.008   1.330 -0.3576 -0.2667  1.6021
  327MOL0     H44118   0.642   3.840   1.268 -2.5977  2.6437 -1.3459
  327MOL0     H44119   0.813   3.774   1.462  1.4309  1.0076 -0.2789
  327MOL0     H44120   0.651   3.816   1.521  0.2384 -2.5668 -1.0909
  327MOL0     H44121   0.879   4.010   1.504 -2.3336 -0.6256 -1.2179
  327MOL0     H44122   0.724   4.052   1.544  2.6185  2.6383  1.1981
  327MOL0     H44123   0.908   3.866   1.709 -0.9224 -1.9450  0.7011
  327MOL0     H44124   0.736   3.899   1.747 -1.0750  0.9515 -0.0704
  327MOL0     H44125   0.952   4.108   1.698  0.0947  2.1737  0.3574
  327MOL0     H44126   0.914   4.050   1.863 -1.1978  0.0545  0.2776
  327MOL0     H44127   1.185   4.230   1.273 -2.2377  0.1541 -2.6875
  327MOL0     H44128   1.451   4.252   1.266  0.6908 -0.5161 -1.1891
  327MOL0     H44129   1.794   4.136   0.956 -1.8970 -2.2480  1.1867
  327MOL0     H44130   2.047   4.170   0.895  0.2220 -1.8268 -1.0572
  327MOL0     H44131   4.197   4.350   1.040  0.0164 -0.5150  0.0484
  327MOL0     H44132   4.422   4.411   0.980 -0.4422 -0.4631  0.6361
  327MOL0     H44133   4.742   4.448   0.462  1.5401 -0.6769 -0.7477
  327MOL0     H44134   4.987   4.427   0.476 -0.7767 -1.4636  0.0739
  327MOL0     H44135   5.214   4.535   0.870 -0.6376  0.0917  1.6848
  327MOL0     H44136   5.141   4.374   0.879 -1.0171  4.3749  4.3088
  327MOL0     H44137   5.373   4.440   0.692  0.3366  0.0475  1.0763
  327MOL0     H44138   5.278   4.287   0.709 -0.3948 -1.2100  2.3732
  327MOL0     H44139   5.370   4.232   0.921  2.1402 -1.8021 -0.4008
  327MOL0     H44140   5.452   4.389   0.941 -0.3952 -2.0158  0.8291
  327MOL0     H44141   5.520   4.197   0.727 -0.9731  0.3413 -0.3203
  327MOL0     H44142   5.603   4.227   0.881 -0.3695  0.2636  0.1597
  327MOL0     H44143   5.774   4.511   0.641  0.4531 -0.5173 -0.8988
  327MOL0     H44144   4.969   4.512   0.892 -0.5885  1.2258  0.5401
  327MOL0     H44145   4.733   4.551   0.881 -0.2617  3.8225 -1.4578
  328MOL0     O44146   6.261   2.750   6.592  0.1705 -0.7670 -0.2716
  328MOL0     C44147   6.352   2.789   6.520 -0.3112  0.1384 -0.6078
  328MOL0     O44148   6.343   2.859   6.393  0.3376  0.4582  1.0515
  328MOL0     C44149   6.214   2.871   6.341 -0.1441 -0.0718  0.0291
  328MOL0     C44150   6.196   2.855   6.203  0.5173  0.1651  0.2016
  328MOL0     C44151   6.076   2.894   6.147  0.4276 -0.1828  0.3901
  328MOL0     C44152   5.963   2.933   6.222  0.5470 -0.3650 -0.6964
  328MOL0     O44153   5.854   2.952   6.150  0.1544  0.8330  0.4181
  328MOL0     C44154   5.733   2.879   6.202 -0.3032 -0.8057  0.2133
  328MOL0     C44155   5.704   2.763   6.104  0.0460 -0.4952  0.2826
  328MOL0     C44156   5.683   2.812   5.960 -0.5799 -0.8214  0.3084
  328MOL0     C44157   5.562   2.909   5.956  0.1897 -0.4545 -0.2166
  328MOL0     C44158   5.502   2.920   5.815  0.2818 -0.6598 -0.1320
  328MOL0     C44159   5.587   2.979   5.707  0.6072 -0.8692  0.4525
  328MOL0     C44160   5.513   2.976   5.578 -0.1097  0.6011  0.5251
  328MOL0     C44161   5.591   3.001   5.449 -0.6560 -0.0847  0.4098
  328MOL0     N44162   5.504   2.988   5.333 -0.1165 -0.0074 -0.1981
  328MOL0     C44163   5.439   2.878   5.291 -0.0678 -0.2895  0.3697
  328MOL0     C44164   5.371   2.913   5.174 -0.0346 -1.7661 -1.2017
  328MOL0     C44165   5.288   2.834   5.074  0.4747  0.3043 -0.6983
  328MOL0     C44166   5.235   2.697   5.127  0.6089  0.2868 -0.2422
  328MOL0     C44167   5.189   2.601   5.017 -0.4184 -0.0790 -0.1119
  328MOL0     C44168   5.043   2.633   4.949  0.3782 -0.0498 -0.3498
  328MOL0     O44169   4.943   2.617   5.050  1.0015 -0.0282 -0.7383
  328MOL0     C44170   4.804   2.616   5.032  0.6464 -0.6742  1.1668
  328MOL0     C44171   4.727   2.589   5.134  0.5346 -0.3573 -0.2149
  328MOL0     C44172   4.584   2.580   5.124 -0.2776  0.3457 -0.7655
  328MOL0     C44173   4.504   2.535   5.243  0.3951 -0.4343  0.1951
  328MOL0     C44174   4.519   2.609   5.003 -0.0096 -0.5924  0.0725
  328MOL0     C44175   4.379   2.613   4.991  0.4560 -0.4414 -0.5180
  328MOL0     O44176   4.326   2.731   4.952  0.8702  0.0152 -0.0279
  328MOL0     C44177   4.189   2.728   4.945  0.2677  0.2782 -0.4506
  328MOL0     C44178   4.118   2.811   5.038  0.0942  0.3485  0.4548
  328MOL0     C44179   3.980   2.838   5.022  0.0662 -0.7218 -0.6567
  328MOL0     C44180   3.911   2.762   4.933  0.5317 -0.1918  0.8361
  328MOL0     O44181   3.775   2.775   4.924  0.2404 -0.1022  0.8213
  328MOL0     C44182   3.697   2.896   4.960 -0.4015 -1.1046 -0.0136
  328MOL0     C44183   3.573   2.891   4.876  1.2597 -0.1413 -0.7306
  328MOL0     C44184   3.486   3.016   4.906 -0.6595 -0.1933  0.0276
  328MOL0     C44185   3.345   2.992   4.841  0.1637 -0.4195  0.3685
  328MOL0     C44186   3.247   2.917   4.927  0.9343 -0.1141 -0.8620
  328MOL0     C44187   3.116   2.885   4.849 -0.2677  0.1836 -0.7386
  328MOL0     C44188   3.015   2.995   4.841 -0.9769 -0.4836 -0.5690
  328MOL0     C44189   2.946   3.030   4.974  0.5091 -0.2960  0.3421
  328MOL0    Cl44190   2.883   3.204   4.962 -0.0170 -0.1742  0.0494
  328MOL0     C44191   3.978   2.664   4.852  0.4899  0.3891  0.6328
  328MOL0     C44192   4.115   2.648   4.854  0.1713  0.0338 -0.6408
  328MOL0     O44193   4.321   2.502   5.010 -0.4851 -0.1933  0.4385
  328MOL0     C44194   4.602   2.660   4.901 -0.3878 -0.8780  0.1298
  328MOL0     C44195   4.744   2.652   4.906 -0.5799 -1.3037 -0.2299
  328MOL0     N44196   5.403   3.053   5.160 -0.8031  0.7080  0.1556
  328MOL0     N44197   5.486   3.085   5.245  0.0334 -0.5984  0.7876
  328MOL0     C44198   5.984   2.951   6.365  0.9271 -0.6482  0.2485
  328MOL0     C44199   6.112   2.926   6.423  1.0350  0.2068 -0.1690
  328MOL0     C44200   6.488   2.764   6.568 -0.4931  0.3499  0.6049
  328MOL0     C44201   6.593   2.844   6.525 -0.3380  0.4146 -0.2105
  328MOL0     C44202   6.732   2.819   6.555 -0.1684 -0.7208 -0.5071
  328MOL0     C44203   6.764   2.709   6.640  0.5430  0.4684  0.0992
  328MOL0     O44204   6.886   2.665   6.679 -0.6177  0.4274  0.2005
  328MOL0     C44205   6.979   2.676   6.561  0.0419  1.0090 -0.2428
  328MOL0     C44206   7.101   2.596   6.605  0.0179 -0.6947 -0.6950
  328MOL0     C44207   7.214   2.670   6.691  0.4448 -0.1106  0.5672
  328MOL0     C44208   7.329   2.583   6.734 -0.5766  0.6062 -0.2483
  328MOL0     C44209   7.463   2.641   6.711  0.6807 -0.2361 -0.5049
  328MOL0     C44210   7.570   2.684   6.694  0.0911  1.4135  0.2182
  328MOL0     C44211   6.654   2.635   6.694 -0.4200  0.3096  0.0401
  328MOL0     C44212   6.524   2.659   6.652  0.1808  0.3617  0.0288
  328MOL0     H44213   6.286   2.826   6.149  1.4654  2.3559  0.4899
  328MOL0     H44214   6.053   2.889   6.041 -3.4379  1.8721  0.9530
  328MOL0     H44215   5.752   2.836   6.301  0.2053  0.1947  0.5602
  328MOL0     H44216   5.648   2.948   6.204 -1.0065 -1.6452 -0.2737
  328MOL0     H44217   5.782   2.687   6.112  1.6273  1.0521  0.0129
  328MOL0     H44218   5.605   2.722   6.123 -1.2158  2.3714  0.4177
  328MOL0     H44219   5.771   2.860   5.918 -0.4590 -1.4636 -0.1775
  328MOL0     H44220   5.668   2.724   5.897 -0.1760  0.3683 -1.5130
  328MOL0     H44221   5.485   2.881   6.028  2.5513 -0.6486  2.3830
  328MOL0     H44222   5.595   3.007   5.994  2.0141 -1.6056  1.3391
  328MOL0     H44223   5.466   2.824   5.776  1.5922 -1.1171 -0.2670
  328MOL0     H44224   5.416   2.987   5.822  1.5219  1.2193 -1.6094
  328MOL0     H44225   5.609   3.083   5.730 -3.0257  0.0875  0.2350
  328MOL0     H44226   5.681   2.925   5.694  0.0782 -2.1303  1.5765
  328MOL0     H44227   5.468   2.876   5.577  1.5930 -0.3913  4.3238
  328MOL0     H44228   5.429   3.045   5.585  0.3951  1.1945  0.8586
  328MOL0     H44229   5.666   2.922   5.443 -1.3104 -0.6002 -2.1450
  328MOL0     H44230   5.640   3.099   5.445 -1.5145  0.3132 -0.9941
  328MOL0     H44231   5.434   2.783   5.343 -2.7429  0.6249  1.9725
  328MOL0     H44232   5.200   2.897   5.058 -0.8808 -1.2457  0.2852
  328MOL0     H44233   5.345   2.807   4.985  0.6047 -1.6807 -0.0638
  328MOL0     H44234   5.162   2.711   5.207 -0.1718  1.8521 -1.1943
  328MOL0     H44235   5.318   2.645   5.177  0.2567  0.3435  0.4090
  328MOL0     H44236   5.185   2.498   5.054  0.0175  0.8975  2.9740
  328MOL0     H44237   5.258   2.612   4.933  0.0600 -0.4482  0.2305
  328MOL0     H44238   5.019   2.559   4.872 -2.4655  1.6873 -1.3085
  328MOL0     H44239   5.030   2.731   4.901  0.3806  0.9120  1.5450
  328MOL0     H44240   4.781   2.571   5.226 -0.2674  0.5938  0.4657
  328MOL0     H44241   4.414   2.597   5.253  0.0782 -0.2521 -2.7976
  328MOL0     H44242   4.466   2.433   5.232 -1.1374  0.2075 -0.8920
  328MOL0     H44243   4.558   2.538   5.337 -1.1385  2.4410  1.0946
  328MOL0     H44244   4.169   2.873   5.111  0.3934  0.8837 -0.1949
  328MOL0     H44245   3.938   2.920   5.079 -0.9675  2.4276 -5.3356
  328MOL0     H44246   3.663   2.880   5.062 -0.0949 -1.2365  0.0698
  328MOL0     H44247   3.757   2.984   4.935 -0.7247 -1.1808 -1.1391
  328MOL0     H44248   3.598   2.883   4.770  1.6378  1.2289 -0.7560
  328MOL0     H44249   3.523   2.799   4.907  0.8817  0.1057 -0.6010
  328MOL0     H44250   3.522   3.102   4.848 -1.8633  1.2627  1.3413
  328MOL0     H44251   3.505   3.049   5.009  2.9204 -1.7977  0.0050
  328MOL0     H44252   3.304   3.091   4.823 -3.0732 -1.1577  2.7861
  328MOL0     H44253   3.351   2.944   4.743 -1.6863  0.6123 -0.2865
  328MOL0     H44254   3.231   2.973   5.019  0.5224  1.5593 -1.8894
  328MOL0     H44255   3.285   2.818   4.951  0.5011 -0.2259 -0.6370
  328MOL0     H44256   3.132   2.847   4.748 -1.3961 -1.6049 -0.2965
  328MOL0     H44257   3.063   2.801   4.895 -0.5367 -0.2327 -1.7748
  328MOL0     H44258   2.937   2.974   4.767  0.6617  0.7445 -2.7281
  328MOL0     H44259   3.063   3.086   4.805 -1.4233 -1.0469 -2.7674
  328MOL0     H44260   3.016   3.026   5.059  1.9680  3.5489 -0.4707
  328MOL0     H44261   2.866   2.959   4.994  0.4601  0.0263  1.3868
  328MOL0     H44262   3.926   2.603   4.779  1.4356  1.0313 -0.6293
  328MOL0     H44263   4.171   2.586   4.785 -0.4011  0.3811 -1.4265
  328MOL0     H44264   4.552   2.703   4.814 -1.2683 -3.0623 -0.5071
  328MOL0     H44265   4.803   2.689   4.823  2.4749  2.5786  3.2882
  328MOL0     H44266   5.904   2.982   6.431 -0.1396  2.1771 -2.1550
  328MOL0     H44267   6.125   2.936   6.531  0.6456 -4.0709  0.4678
  328MOL0     H44268   6.576   2.926   6.456 -0.0310  0.3001 -0.4226
  328MOL0     H44269   6.806   2.887   6.515 -0.8505 -0.0760 -0.7008
  328MOL0     H44270   6.937   2.643   6.466  0.3773 -0.7604  0.1919
  328MOL0     H44271   7.001   2.783   6.550 -0.0730  1.0965  0.3041
  328MOL0     H44272   7.161   2.570   6.516  0.1811 -1.6284 -0.3207
  328MOL0     H44273   7.075   2.498   6.647  3.1876 -1.1717  0.4497
  328MOL0     H44274   7.183   2.699   6.792  1.3844 -0.3962  0.9549
  328MOL0     H44275   7.254   2.750   6.628 -1.9933 -1.0137 -2.3707
  328MOL0     H44276   7.325   2.477   6.708 -2.2713 -0.2754  3.0596
  328MOL0     H44277   7.327   2.587   6.843  2.9732  2.1860 -0.0974
  328MOL0     H44278   7.669   2.725   6.691  1.0951 -0.3702  3.5752
  328MOL0     H44279   6.675   2.555   6.765 -0.6276 -0.0723 -0.3257
  328MOL0     H44280   6.439   2.607   6.694  0.7477 -0.2756  0.4034
  329MOL0     O44281  10.528   1.540   4.339  0.1531 -0.1232 -0.0435
  329MOL0     C44282  10.600   1.443   4.339 -0.4805  0.7210  0.5969
  329MOL0     O44283  10.554   1.307   4.351  0.8344 -0.8493  0.0180
  329MOL0     C44284  10.422   1.281   4.380 -0.5630  1.0886 -0.2278
  329MOL0     C44285  10.302   1.364   4.367 -0.4068  0.1713  0.0386
  329MOL0     C44286  10.177   1.316   4.394  0.2360  0.5189 -0.0612
  329MOL0     C44287  10.155   1.183   4.443 -0.8361  0.4458  0.2392
  329MOL0     O44288  10.026   1.149   4.471 -0.1467  0.0839  0.1209
  329MOL0     C44289  10.002   1.016   4.462  0.2832 -0.2623  1.1288
  329MOL0     C44290   9.865   1.003   4.409  0.0188 -0.4615  0.4497
  329MOL0     C44291   9.758   1.053   4.513 -0.1604 -0.2126 -0.1462
  329MOL0     C44292   9.620   0.997   4.479  0.5136  0.4913 -0.1792
  329MOL0     C44293   9.512   1.072   4.569 -0.2775  0.5048  0.5485
  329MOL0     C44294   9.374   1.059   4.501 -0.0260  0.2931  0.5845
  329MOL0     C44295   9.262   1.107   4.586  0.6946  0.7625 -0.0388
  329MOL0     C44296   9.123   1.063   4.540 -0.1123 -0.4799  0.0495
  329MOL0     N44297   9.053   1.146   4.437 -0.3486  0.0211 -0.3689
  329MOL0     C44298   9.024   1.281   4.447  0.3700  0.1312 -0.3035
  329MOL0     C44299   9.020   1.331   4.325 -0.8616 -0.5103 -0.0623
  329MOL0     C44300   8.997   1.474   4.286  0.4368  0.2429 -0.8103
  329MOL0     C44301   8.854   1.520   4.331 -0.8327  0.3389  0.1700
  329MOL0     C44302   8.812   1.647   4.249  0.4781 -0.1568 -0.0926
  329MOL0     C44303   8.662   1.648   4.246  1.0328  0.3161  0.0731
  329MOL0     O44304   8.617   1.661   4.382  0.0633  0.4020  0.4436
  329MOL0     C44305   8.487   1.626   4.392 -0.4515 -0.4731 -0.6780
  329MOL0     C44306   8.452   1.526   4.475  0.5901 -0.5208  0.9227
  329MOL0     C44307   8.319   1.482   4.497  0.2099  0.3245 -0.4063
  329MOL0     C44308   8.285   1.380   4.609 -0.5331  0.6763 -0.4342
  329MOL0     C44309   8.215   1.560   4.445  0.9444 -0.3995 -0.3127
  329MOL0     C44310   8.070   1.538   4.472 -0.1788  0.1656  0.2478
  329MOL0     O44311   7.988   1.648   4.458  0.6036 -0.1275 -0.2947
  329MOL0     C44312   7.846   1.637   4.459  0.8486  0.3692 -0.8776
  329MOL0     C44313   7.772   1.740   4.517 -0.4304  0.0763  0.2460
  329MOL0     C44314   7.636   1.735   4.519 -1.1430  0.5438 -0.1231
  329MOL0     C44315   7.566   1.625   4.473  0.0314  0.8671  1.2654
  329MOL0     O44316   7.430   1.630   4.467  0.2756  0.0159  0.3591
  329MOL0     C44317   7.366   1.705   4.574  0.1931  0.5512  0.7123
  329MOL0     C44318   7.218   1.645   4.596  0.1962 -0.0914  0.4554
  329MOL0     C44319   7.124   1.633   4.480  0.5685  0.4388 -0.4413
  329MOL0     C44320   6.997   1.558   4.526  0.4439 -0.1729  0.3292
  329MOL0     C44321   6.905   1.551   4.405  0.5741 -0.3616 -0.3883
  329MOL0     C44322   6.780   1.476   4.441  0.6602  0.0005 -0.5914
  329MOL0     C44323   6.696   1.470   4.312  0.4037 -0.6421  0.2008
  329MOL0     C44324   6.584   1.370   4.328  0.4991 -0.1224 -0.7883
  329MOL0    Cl44325   6.448   1.454   4.423  0.5937 -0.0848  0.0725
  329MOL0     C44326   7.634   1.519   4.407 -0.5613 -0.1500  0.5202
  329MOL0     C44327   7.776   1.526   4.400  0.4613  0.2791  0.4174
  329MOL0     O44328   8.026   1.426   4.496  0.0014 -0.0378 -0.7664
  329MOL0     C44329   8.251   1.654   4.357  0.7133 -0.5529 -0.3056
  329MOL0     C44330   8.382   1.693   4.338  0.7339 -0.2387 -1.1328
  329MOL0     N44331   9.043   1.231   4.231 -0.3107  0.0035  0.3675
  329MOL0     N44332   9.067   1.122   4.299 -0.2274 -0.7696  0.3528
  329MOL0     C44333  10.273   1.099   4.459  0.2036 -0.5618 -0.5801
  329MOL0     C44334  10.399   1.148   4.427 -0.5277  0.1780 -0.3434
  329MOL0     C44335  10.740   1.465   4.306  0.4750 -0.3122 -0.2251
  329MOL0     C44336  10.821   1.355   4.313  0.5013 -0.4267  0.9015
  329MOL0     C44337  10.961   1.362   4.272  0.6838 -0.1790 -0.5194
  329MOL0     C44338  11.015   1.489   4.261  0.4903 -0.9412 -0.7339
  329MOL0     O44339  11.149   1.515   4.238 -0.0442  0.0182 -0.1601
  329MOL0     C44340  11.249   1.436   4.303 -1.2097 -0.6196  0.2012
  329MOL0     C44341  11.321   1.525   4.402  0.5468 -0.8498 -0.4375
  329MOL0     C44342  11.432   1.457   4.478 -0.5478 -0.0615  1.1694
  329MOL0     C44343  11.544   1.405   4.389  0.0769  0.4843 -0.6839
  329MOL0     C44344  11.643   1.511   4.371 -0.1778  0.0256  0.3493
  329MOL0     C44345  11.729   1.594   4.355 -0.4603 -0.1307 -0.0029
  329MOL0     C44346  10.930   1.601   4.255  0.8533 -0.0525 -0.9942
  329MOL0     C44347  10.795   1.588   4.263 -0.3826  0.3873 -0.0211
  329MOL0     H44348  10.313   1.464   4.325  0.6067 -0.1152 -0.4050
  329MOL0     H44349  10.093   1.384   4.382 -1.4346 -1.2700  0.8183
  329MOL0     H44350  10.077   0.958   4.407  1.1834  2.1100 -0.3138
  329MOL0     H44351  10.005   0.972   4.562 -3.2955 -0.9279  1.0634
  329MOL0     H44352   9.866   1.061   4.317 -0.8677 -1.2448 -0.0733
  329MOL0     H44353   9.831   0.904   4.377 -0.8722  0.4941 -1.6912
  329MOL0     H44354   9.781   1.005   4.609 -1.0678 -2.0757 -0.8313
  329MOL0     H44355   9.758   1.163   4.518  2.0554 -0.1898  1.0038
  329MOL0     H44356   9.606   1.004   4.371  1.0441  2.2145 -0.1639
  329MOL0     H44357   9.619   0.891   4.508  3.2994  1.1949  3.1197
  329MOL0     H44358   9.521   1.034   4.671  2.8813  0.1340  0.2109
  329MOL0     H44359   9.527   1.181   4.567 -0.0520  0.4649  0.1389
  329MOL0     H44360   9.362   1.114   4.408 -2.9174 -1.7289 -0.3959
  329MOL0     H44361   9.369   0.952   4.476 -1.7636  0.4750  0.0382
  329MOL0     H44362   9.280   1.068   4.687  1.6142  1.6646  0.1622
  329MOL0     H44363   9.271   1.216   4.591  0.9981  0.7557 -0.4016
  329MOL0     H44364   9.062   1.049   4.630 -1.7454  1.8609 -0.6132
  329MOL0     H44365   9.133   0.968   4.487 -1.3687  0.3885 -1.8667
  329MOL0     H44366   9.008   1.344   4.534 -0.3217  0.4152 -0.6272
  329MOL0     H44367   9.084   1.532   4.318 -0.0930  1.2266 -1.1105
  329MOL0     H44368   9.002   1.487   4.177 -2.4850  2.7252 -0.7890
  329MOL0     H44369   8.865   1.560   4.432  0.8695 -1.6839  0.8694
  329MOL0     H44370   8.782   1.438   4.331 -1.5782  0.9414  2.0171
  329MOL0     H44371   8.851   1.629   4.149  3.3873  0.4444  0.8436
  329MOL0     H44372   8.847   1.740   4.294 -1.8582 -1.0310  4.0405
  329MOL0     H44373   8.613   1.558   4.208 -0.8548  1.0381  0.7253
  329MOL0     H44374   8.630   1.728   4.179  1.0109 -0.3860 -0.7699
  329MOL0     H44375   8.523   1.462   4.527  0.4050 -1.3809  0.1417
  329MOL0     H44376   8.370   1.332   4.660 -1.4652 -2.1743 -1.3633
  329MOL0     H44377   8.226   1.416   4.693  0.7561 -2.2476  1.9369
  329MOL0     H44378   8.246   1.289   4.562  2.4812 -2.3097  2.2500
  329MOL0     H44379   7.823   1.833   4.542  0.2820  1.1164 -4.2851
  329MOL0     H44380   7.577   1.815   4.564 -2.2019  0.6677 -1.6751
  329MOL0     H44381   7.415   1.686   4.670 -1.0790 -0.8360  1.1361
  329MOL0     H44382   7.374   1.812   4.554 -2.3260  0.8664  1.0508
  329MOL0     H44383   7.242   1.547   4.638  1.3842  0.9105  2.2395
  329MOL0     H44384   7.163   1.708   4.666 -1.6662 -1.4334  0.2699
  329MOL0     H44385   7.179   1.572   4.407  0.1067 -0.1268 -0.3208
  329MOL0     H44386   7.092   1.733   4.448 -0.1020  0.5124  0.4269
  329MOL0     H44387   7.022   1.453   4.539  1.2236 -0.0095  0.1943
  329MOL0     H44388   6.947   1.602   4.613 -0.0596 -1.7823  0.8790
  329MOL0     H44389   6.955   1.500   4.323 -0.2090 -0.9434 -0.5213
  329MOL0     H44390   6.870   1.648   4.370 -3.5832 -1.8951 -1.0775
  329MOL0     H44391   6.782   1.372   4.476 -0.3997  0.8597  2.3299
  329MOL0     H44392   6.732   1.535   4.519  1.0724 -1.2645  0.6718
  329MOL0     H44393   6.754   1.434   4.226 -1.6880 -0.3165 -1.4390
  329MOL0     H44394   6.646   1.566   4.299  1.1726 -0.1134  1.0277
  329MOL0     H44395   6.614   1.277   4.378 -1.1868 -0.0642  0.4319
  329MOL0     H44396   6.541   1.342   4.231  0.1810 -2.9421  0.0871
  329MOL0     H44397   7.566   1.445   4.366 -1.2529  0.5809  0.3186
  329MOL0     H44398   7.829   1.450   4.343 -1.2161 -1.0268  0.5026
  329MOL0     H44399   8.174   1.722   4.322  0.3398 -0.6300  0.3713
  329MOL0     H44400   8.409   1.779   4.279  1.1021  0.4800  0.0563
  329MOL0     H44401  10.252   0.996   4.488 -2.9661  0.1346 -0.0126
  329MOL0     H44402  10.483   1.084   4.450 -0.2957 -0.3429 -2.4200
  329MOL0     H44403  10.790   1.257   4.347 -1.8706  0.1793  0.6174
  329MOL0     H44404  11.026   1.276   4.261 -1.2013 -2.0506  1.6974
  329MOL0     H44405  11.222   1.343   4.356 -0.3585  0.1199  2.0054
  329MOL0     H44406  11.325   1.420   4.226 -0.9851  1.9406 -0.1810
  329MOL0     H44407  11.242   1.570   4.463  2.8887  1.5786  0.9796
  329MOL0     H44408  11.371   1.607   4.351 -2.3616  1.1981 -0.2757
  329MOL0     H44409  11.383   1.374   4.529 -0.0916  0.2590  2.1553
  329MOL0     H44410  11.477   1.518   4.556  0.9646  1.4577 -0.7770
  329MOL0     H44411  11.510   1.367   4.292 -0.2429 -1.8792  0.2791
  329MOL0     H44412  11.586   1.323   4.448 -0.6450  0.5844 -0.0035
  329MOL0     H44413  11.814   1.659   4.343 -1.5733  1.3498 -0.0493
  329MOL0     H44414  10.969   1.702   4.251  0.3513  0.2279  0.5343
  329MOL0     H44415  10.720   1.664   4.244 -1.8911 -1.6849 -3.3171
  330MOL0     O44416   8.195   0.947   1.826 -0.7409 -0.6613 -0.3339
  330MOL0     C44417   8.143   0.888   1.733  0.3560 -0.3301 -0.0596
  330MOL0     O44418   8.011   0.889   1.705  0.0875 -0.3012  0.4101
  330MOL0     C44419   7.910   0.949   1.786 -0.7059  0.4203 -0.1885
  330MOL0     C44420   7.910   0.910   1.921 -1.0476  0.0631  0.0148
  330MOL0     C44421   7.824   0.979   2.009 -0.7652 -1.1077 -0.6222
  330MOL0     C44422   7.715   1.062   1.966 -0.9264 -0.2840  0.0133
  330MOL0     O44423   7.629   1.132   2.042 -0.5720  0.4713 -0.3724
  330MOL0     C44424   7.572   1.049   2.150  0.1674 -0.1633 -0.5953
  330MOL0     C44425   7.438   1.117   2.192  0.0994 -0.2623  0.4806
  330MOL0     C44426   7.456   1.239   2.277  0.8291 -0.6427  0.4834
  330MOL0     C44427   7.330   1.320   2.275  0.0551  0.0515  0.1011
  330MOL0     C44428   7.351   1.433   2.370 -0.0189 -0.5377 -0.9838
  330MOL0     C44429   7.226   1.528   2.349  0.2094 -0.8484  0.4399
  330MOL0     C44430   7.106   1.469   2.412 -0.0103 -0.1937 -0.8322
  330MOL0     C44431   6.995   1.578   2.449 -0.0500  0.5073 -0.9511
  330MOL0     N44432   6.883   1.528   2.525  0.2275 -0.5340 -0.5622
  330MOL0     C44433   6.766   1.491   2.466  0.5958 -0.0816 -0.7773
  330MOL0     C44434   6.669   1.485   2.568 -0.5031 -0.5598 -0.1911
  330MOL0     C44435   6.519   1.452   2.537 -0.6701  0.7045  0.4886
  330MOL0     C44436   6.479   1.307   2.539  0.3790 -0.4088 -0.4417
  330MOL0     C44437   6.411   1.268   2.678  0.5546 -0.4792  0.1021
  330MOL0     C44438   6.268   1.327   2.695  0.4979 -1.2297 -0.1119
  330MOL0     O44439   6.184   1.281   2.587  0.7623  0.6560  0.1040
  330MOL0     C44440   6.052   1.323   2.591  0.2660  0.3797  0.0368
  330MOL0     C44441   5.986   1.284   2.474 -0.6703  0.2566 -0.2630
  330MOL0     C44442   5.851   1.298   2.466  0.6978  0.0091 -0.0404
  330MOL0     C44443   5.780   1.220   2.345  0.3298 -0.5293  0.3287
  330MOL0     C44444   5.782   1.366   2.571  0.1933 -0.0342  0.6644
  330MOL0     C44445   5.643   1.411   2.553  0.1756  0.4208 -0.0552
  330MOL0     O44446   5.562   1.437   2.658  0.3885  0.3819  0.9239
  330MOL0     C44447   5.444   1.508   2.639  0.4342  0.9311  0.1769
  330MOL0     C44448   5.323   1.454   2.690 -0.4236  0.4233 -0.0280
  330MOL0     C44449   5.206   1.530   2.689  1.1140 -0.3579 -0.1528
  330MOL0     C44450   5.211   1.670   2.649  0.2267  0.9853 -0.2109
  330MOL0     O44451   5.106   1.751   2.635  0.4360  0.2983  0.0864
  330MOL0     C44452   5.022   1.748   2.753  1.1925  0.8382 -0.2327
  330MOL0     C44453   4.892   1.819   2.703  0.9008 -0.2409  0.6336
  330MOL0     C44454   4.757   1.744   2.751  0.6001 -1.1324  0.8400
  330MOL0     C44455   4.751   1.713   2.902  0.6969  0.2783 -0.1374
  330MOL0     C44456   4.789   1.838   2.979  0.1671 -0.4182  0.1432
  330MOL0     C44457   4.779   1.808   3.135 -0.3583  0.1560  0.8609
  330MOL0     C44458   4.852   1.898   3.228 -0.4114 -0.0178 -0.0149
  330MOL0     C44459   4.808   1.907   3.367  0.0027 -0.4587 -0.0050
  330MOL0    Cl44460   4.850   1.742   3.445 -0.0972 -0.1176 -0.5520
  330MOL0     C44461   5.332   1.718   2.598 -0.8371 -0.8684  0.2578
  330MOL0     C44462   5.450   1.638   2.595  0.1393  0.6848 -0.1252
  330MOL0     O44463   5.603   1.428   2.435 -0.0846  0.4014  0.1708
  330MOL0     C44464   5.844   1.403   2.687  0.0970  0.7165  0.3852
  330MOL0     C44465   5.982   1.382   2.703 -0.8256  0.3672 -0.6960
  330MOL0     N44466   6.734   1.514   2.683  0.6462 -0.4075 -0.1041
  330MOL0     N44467   6.854   1.549   2.661  0.6004 -0.4764  0.0575
  330MOL0     C44468   7.716   1.097   1.832  0.3741  0.0795  0.4963
  330MOL0     C44469   7.811   1.042   1.741 -0.1510 -0.0014  0.6478
  330MOL0     C44470   8.243   0.824   1.647  0.6385 -0.1840 -0.1373
  330MOL0     C44471   8.234   0.816   1.512 -0.1771 -0.0719  0.9260
  330MOL0     C44472   8.338   0.768   1.429 -0.0817 -0.2631 -0.3421
  330MOL0     C44473   8.460   0.726   1.481  0.3868 -0.8758  0.0244
  330MOL0     O44474   8.552   0.682   1.396  0.6134  0.6311 -0.6619
  330MOL0     C44475   8.682   0.625   1.446 -0.4476  0.1899 -0.1283
  330MOL0     C44476   8.767   0.618   1.321  0.0092  0.1765  0.2377
  330MOL0     C44477   8.900   0.529   1.330 -0.1028  0.1615  0.7502
  330MOL0     C44478   8.953   0.476   1.187 -0.9094  0.5525  0.5921
  330MOL0     C44479   9.060   0.378   1.187  0.0445 -0.0911 -0.3869
  330MOL0     C44480   9.142   0.289   1.168  0.5727  0.0172  0.3101
  330MOL0     C44481   8.465   0.731   1.621 -1.5436 -1.0271 -0.1006
  330MOL0     C44482   8.361   0.774   1.698 -0.6885  0.9947  0.1258
  330MOL0     H44483   7.991   0.853   1.965  0.8102  0.0511 -3.1197
  330MOL0     H44484   7.832   0.938   2.109 -1.8266 -1.7919 -0.8032
  330MOL0     H44485   7.559   0.948   2.109 -2.8628 -0.0654 -0.0811
  330MOL0     H44486   7.639   1.055   2.236 -1.5994  3.4292  0.7366
  330MOL0     H44487   7.382   1.153   2.105 -0.7331 -0.2177  1.0282
  330MOL0     H44488   7.370   1.052   2.247 -0.9970 -1.3429 -1.9886
  330MOL0     H44489   7.491   1.201   2.373  0.2625 -0.8369  0.6192
  330MOL0     H44490   7.532   1.307   2.239  1.3051 -0.6652  1.3810
  330MOL0     H44491   7.308   1.352   2.173 -1.0111  0.2037  0.3734
  330MOL0     H44492   7.249   1.257   2.313  1.7686 -0.8176  2.5741
  330MOL0     H44493   7.357   1.404   2.475 -0.3925  1.7720 -0.2501
  330MOL0     H44494   7.449   1.480   2.358 -0.4431  1.0296  1.1099
  330MOL0     H44495   7.240   1.628   2.391 -3.8471  0.2698 -0.4556
  330MOL0     H44496   7.198   1.541   2.245 -1.3343 -1.0518  0.8008
  330MOL0     H44497   7.060   1.398   2.344 -0.0096 -0.9221 -0.0881
  330MOL0     H44498   7.129   1.411   2.502 -0.0741 -0.2216 -0.8336
  330MOL0     H44499   6.961   1.615   2.351 -1.3833 -2.1777 -1.6269
  330MOL0     H44500   7.039   1.656   2.511  1.6775 -1.5310  0.5119
  330MOL0     H44501   6.765   1.478   2.358 -1.7362 -1.1373 -0.6913
  330MOL0     H44502   6.466   1.517   2.608 -0.7038  0.9362  0.2551
  330MOL0     H44503   6.501   1.485   2.434  3.2158  0.4292 -0.4340
  330MOL0     H44504   6.561   1.238   2.516  2.7560  1.7736  0.9631
  330MOL0     H44505   6.410   1.287   2.456 -0.1885 -0.4540  0.0356
  330MOL0     H44506   6.474   1.303   2.761  1.5279  1.7320 -1.4501
  330MOL0     H44507   6.395   1.160   2.680  0.0671 -0.3996  1.5598
  330MOL0     H44508   6.274   1.433   2.721 -1.1710 -1.0402 -0.3502
  330MOL0     H44509   6.229   1.282   2.787 -0.2079 -0.4620 -0.0227
  330MOL0     H44510   6.047   1.242   2.395 -1.5571  1.8733 -1.8555
  330MOL0     H44511   5.836   1.142   2.293 -2.1310 -1.4259 -1.1778
  330MOL0     H44512   5.687   1.170   2.374 -0.4977  1.4878  1.3817
  330MOL0     H44513   5.757   1.293   2.268  1.2617  0.8198  1.2845
  330MOL0     H44514   5.323   1.356   2.736  0.1148  2.2818  4.4984
  330MOL0     H44515   5.114   1.482   2.719 -0.5553  2.6276 -0.1534
  330MOL0     H44516   4.993   1.643   2.765 -0.6081  1.2133 -0.9026
  330MOL0     H44517   5.070   1.792   2.841 -0.2890  0.2524  0.9100
  330MOL0     H44518   4.888   1.923   2.737 -0.4060 -0.3218  0.7921
  330MOL0     H44519   4.885   1.826   2.594  1.8683  1.6036  0.6452
  330MOL0     H44520   4.749   1.648   2.700 -1.0638 -0.8004  0.4192
  330MOL0     H44521   4.676   1.814   2.734  2.1831  0.2207 -1.7350
  330MOL0     H44522   4.653   1.679   2.935  0.0060 -0.5294 -2.8010
  330MOL0     H44523   4.824   1.638   2.936  0.8473  0.7012  0.4841
  330MOL0     H44524   4.714   1.914   2.954 -0.3053 -1.0426 -0.3514
  330MOL0     H44525   4.886   1.881   2.951 -1.2983  2.4719 -0.9390
  330MOL0     H44526   4.672   1.792   3.154 -0.2397 -1.1834  0.4630
  330MOL0     H44527   4.828   1.711   3.148 -2.0233 -0.6039  1.7653
  330MOL0     H44528   4.857   1.996   3.179  3.5578  0.1101  0.3213
  330MOL0     H44529   4.952   1.853   3.229 -1.8160 -3.7334 -3.0633
  330MOL0     H44530   4.699   1.918   3.368 -0.0102 -0.4500  1.8623
  330MOL0     H44531   4.857   1.988   3.421  0.2725 -0.1204 -0.7528
  330MOL0     H44532   5.325   1.820   2.561 -1.3023 -0.8418  0.4159
  330MOL0     H44533   5.549   1.675   2.569  0.8487  0.7531  2.3895
  330MOL0     H44534   5.787   1.457   2.762 -1.0900  1.3472 -0.9428
  330MOL0     H44535   6.023   1.428   2.792 -1.7797  2.4799 -1.2961
  330MOL0     H44536   7.640   1.166   1.796 -0.1888 -0.8734 -0.1954
  330MOL0     H44537   7.805   1.060   1.635  1.3481  0.6379  0.6443
  330MOL0     H44538   8.147   0.859   1.465  0.1438  0.6930  1.0231
  330MOL0     H44539   8.324   0.757   1.322  1.7200 -2.6743 -0.4067
  330MOL0     H44540   8.730   0.690   1.520  0.5889  0.5221 -1.0680
  330MOL0     H44541   8.669   0.525   1.490 -1.6978  1.7211  3.3747
  330MOL0     H44542   8.771   0.719   1.281  1.5825 -0.9556 -2.8068
  330MOL0     H44543   8.706   0.564   1.247 -0.6433 -0.7246  1.3921
  330MOL0     H44544   8.893   0.442   1.396 -1.8309  0.5806  1.1706
  330MOL0     H44545   8.984   0.591   1.362  0.9677 -0.4671 -0.6835
  330MOL0     H44546   8.986   0.563   1.129 -2.4099  0.2464 -0.8066
  330MOL0     H44547   8.867   0.435   1.133 -0.7851  1.3265 -0.2088
  330MOL0     H44548   9.212   0.210   1.146  1.5590  1.1214 -0.6308
  330MOL0     H44549   8.548   0.693   1.679 -2.1672 -0.2798  1.3282
  330MOL0     H44550   8.378   0.772   1.805  1.1034  1.7739 -0.1110
  331MOL0     O44551   3.582   2.355   1.300 -0.1374 -0.6220  0.7899
  331MOL0     C44552   3.588   2.451   1.219 -0.4662  0.5566  0.9924
  331MOL0     O44553   3.489   2.550   1.193 -0.1254  0.5412  0.2246
  331MOL0     C44554   3.366   2.547   1.250  1.2875  0.2516 -0.2786
  331MOL0     C44555   3.327   2.474   1.366 -0.1147 -0.4739  0.7290
  331MOL0     C44556   3.195   2.498   1.416 -0.2149 -0.6953 -0.2744
  331MOL0     C44557   3.108   2.600   1.354  0.1341 -0.5328 -0.2777
  331MOL0     O44558   2.982   2.644   1.403 -0.6949  0.4884 -1.0883
  331MOL0     C44559   2.938   2.617   1.541 -0.2953 -0.0148 -0.0216
  331MOL0     C44560   2.881   2.734   1.604 -0.1671 -0.6378  0.2348
  331MOL0     C44561   2.977   2.855   1.617 -0.4892 -0.9193 -0.5851
  331MOL0     C44562   2.905   2.990   1.627  0.2858 -0.3308 -0.1466
  331MOL0     C44563   2.809   2.998   1.736 -0.3561 -0.6230 -0.4346
  331MOL0     C44564   2.726   3.132   1.748 -0.3641  0.4810  0.0970
  331MOL0     C44565   2.658   3.135   1.891  0.0291 -0.1958  0.2863
  331MOL0     C44566   2.627   3.284   1.927  0.0930  0.2256 -0.2345
  331MOL0     N44567   2.502   3.303   1.998 -0.0506  0.4093  0.2245
  331MOL0     C44568   2.479   3.266   2.126  0.1855 -0.1563 -0.8920
  331MOL0     C44569   2.353   3.303   2.150 -0.3261 -0.0620 -1.2096
  331MOL0     C44570   2.295   3.325   2.281 -0.5418 -0.1758 -0.3573
  331MOL0     C44571   2.172   3.241   2.320  0.3602 -0.3018 -0.1512
  331MOL0     C44572   2.051   3.266   2.236  0.2237 -0.0680 -0.2315
  331MOL0     C44573   1.926   3.184   2.288 -0.0452 -0.0717  0.0248
  331MOL0     O44574   1.808   3.213   2.216  0.2271 -0.1134  0.4183
  331MOL0     C44575   1.693   3.138   2.234  0.3201 -0.0557 -0.5959
  331MOL0     C44576   1.701   3.003   2.261 -0.2471  0.7566 -0.1995
  331MOL0     C44577   1.588   2.918   2.265 -1.1195 -0.0270 -0.6630
  331MOL0     C44578   1.625   2.769   2.277  0.1827  0.0322  0.2996
  331MOL0     C44579   1.456   2.974   2.247 -0.6337  0.5748  0.1720
  331MOL0     C44580   1.329   2.894   2.232 -0.5739 -0.1959  0.4650
  331MOL0     O44581   1.213   2.957   2.236 -0.0698 -0.3358  0.6522
  331MOL0     C44582   1.086   2.908   2.197 -0.3658  0.0261  0.0006
  331MOL0     C44583   0.977   2.999   2.215  0.2524  0.1530  0.5274
  331MOL0     C44584   0.848   2.957   2.184  0.2131  0.2985  0.5740
  331MOL0     C44585   0.814   2.829   2.142  0.1643 -0.2742  0.3778
  331MOL0     O44586   0.677   2.812   2.114 -0.6232 -0.4929  0.2896
  331MOL0     C44587   0.636   2.701   2.032 -0.1802  0.7206  0.9158
  331MOL0     C44588   0.508   2.625   2.093 -0.4389 -0.2748  0.6098
  331MOL0     C44589   0.388   2.715   2.100 -0.0349 -0.4356 -0.9896
  331MOL0     C44590   0.282   2.679   2.208 -0.6721 -0.8747  0.3271
  331MOL0     C44591   0.180   2.793   2.241  0.2470 -0.6544  0.3280
  331MOL0     C44592   0.098   2.846   2.126 -0.4225 -0.1822 -0.2118
  331MOL0     C44593  -0.002   2.746   2.057 -0.8054 -0.0007 -0.4928
  331MOL0     C44594  -0.131   2.708   2.139 -0.5273 -0.3003  0.8000
  331MOL0    Cl44595  -0.211   2.851   2.182 -0.0473 -0.4465  0.2327
  331MOL0     C44596   0.920   2.743   2.132 -0.1750 -0.6254  0.1948
  331MOL0     C44597   1.058   2.780   2.151  1.0594  0.3073 -0.2316
  331MOL0     O44598   1.341   2.772   2.223  0.6118 -0.6298  0.4816
  331MOL0     C44599   1.448   3.115   2.225 -0.0742  0.8050 -0.9103
  331MOL0     C44600   1.564   3.188   2.223  0.6068 -0.4725 -0.9446
  331MOL0     N44601   2.290   3.344   2.028  0.2213 -0.0126 -0.3889
  331MOL0     N44602   2.386   3.339   1.938  0.5908  0.5569  0.3298
  331MOL0     C44603   3.154   2.662   1.237  1.0274  0.2002 -0.5391
  331MOL0     C44604   3.282   2.638   1.187  0.3925  0.0317  0.1331
  331MOL0     C44605   3.714   2.485   1.149  0.2381  0.1209 -0.0024
  331MOL0     C44606   3.710   2.569   1.035  0.8631  0.1779 -0.7148
  331MOL0     C44607   3.830   2.610   0.984 -0.4300  0.3628 -0.1284
  331MOL0     C44608   3.956   2.566   1.030 -0.0762  0.6192  0.4374
  331MOL0     O44609   4.072   2.604   0.974  0.3271 -0.6919  0.2108
  331MOL0     C44610   4.196   2.596   1.039 -0.3975 -0.1151  0.0890
  331MOL0     C44611   4.296   2.660   0.941  0.3906  0.2323  0.4670
  331MOL0     C44612   4.444   2.643   0.990  0.8136  0.0854 -0.2002
  331MOL0     C44613   4.471   2.710   1.124  1.1194 -0.3071 -0.0244
  331MOL0     C44614   4.404   2.838   1.141  0.1962  1.0214 -0.2530
  331MOL0     C44615   4.360   2.946   1.160 -1.1781 -0.1404  0.1097
  331MOL0     C44616   3.960   2.478   1.139 -0.0552  0.4390 -0.5104
  331MOL0     C44617   3.835   2.434   1.194 -0.3289 -0.6363 -0.6882
  331MOL0     H44618   3.397   2.405   1.412  1.3682  1.0292  0.8213
  331MOL0     H44619   3.163   2.445   1.505 -0.0354 -3.1864 -1.6034
  331MOL0     H44620   2.862   2.539   1.543 -0.0135 -0.2916  0.1573
  331MOL0     H44621   3.024   2.583   1.601  1.1818  1.5695 -1.1644
  331MOL0     H44622   2.804   2.768   1.533  2.7128  4.4326 -0.9720
  331MOL0     H44623   2.843   2.709   1.703  0.4741 -0.5455  0.5067
  331MOL0     H44624   3.029   2.836   1.712 -2.7166 -1.8609  0.5350
  331MOL0     H44625   3.049   2.850   1.536  0.8452  0.5172  0.4533
  331MOL0     H44626   2.968   3.078   1.637 -0.1902  0.0194 -0.1973
  331MOL0     H44627   2.854   3.007   1.532 -1.7839 -1.4252  0.6854
  331MOL0     H44628   2.733   2.922   1.715  0.2500 -2.0325  2.1351
  331MOL0     H44629   2.847   2.961   1.831 -1.9646 -2.4645 -0.4480
  331MOL0     H44630   2.800   3.213   1.743  2.2228 -1.7215  0.3265
  331MOL0     H44631   2.654   3.138   1.667 -0.1344 -0.8581 -0.2213
  331MOL0     H44632   2.571   3.068   1.894 -0.2100  0.1208  0.4885
  331MOL0     H44633   2.735   3.103   1.961  1.7112  1.5735 -0.6715
  331MOL0     H44634   2.608   3.343   1.837 -4.0783  0.0741  0.3532
  331MOL0     H44635   2.707   3.324   1.989 -0.4054 -1.4550  1.5931
  331MOL0     H44636   2.558   3.225   2.188  0.9867  2.4139 -0.1050
  331MOL0     H44637   2.380   3.310   2.348 -1.4518  1.0546  1.1379
  331MOL0     H44638   2.269   3.431   2.296 -2.7669  0.2291 -5.0511
  331MOL0     H44639   2.154   3.257   2.427  1.0982  0.5882 -0.1363
  331MOL0     H44640   2.205   3.137   2.319 -2.2502 -1.2690  2.4675
  331MOL0     H44641   2.075   3.238   2.133  1.4746 -2.6306  0.6978
  331MOL0     H44642   2.029   3.373   2.248 -1.6564 -0.2366 -1.6412
  331MOL0     H44643   1.907   3.210   2.392  1.8433  1.9687 -0.0814
  331MOL0     H44644   1.939   3.077   2.265 -1.6268 -0.3279  0.1835
  331MOL0     H44645   1.794   2.946   2.260 -1.2929 -1.1208  1.9032
  331MOL0     H44646   1.574   2.745   2.371  1.2482  1.3383  1.2421
  331MOL0     H44647   1.581   2.712   2.194  0.1553 -0.2231  0.4864
  331MOL0     H44648   1.732   2.751   2.290  0.4163  0.2352 -1.1065
  331MOL0     H44649   0.989   3.099   2.255 -1.0171  0.0082  1.3484
  331MOL0     H44650   0.764   3.025   2.197 -0.9276 -0.7220 -1.1004
  331MOL0     H44651   0.612   2.734   1.931  1.4710  0.4689  0.4094
  331MOL0     H44652   0.715   2.628   2.014 -1.8228 -0.9654  0.1941
  331MOL0     H44653   0.481   2.551   2.017  1.7782  0.4294 -0.9854
  331MOL0     H44654   0.534   2.576   2.187  1.9850 -0.2306  0.0508
  331MOL0     H44655   0.325   2.711   2.010 -0.6319 -2.1723 -0.5461
  331MOL0     H44656   0.422   2.816   2.123  1.5263 -1.4586  1.5775
  331MOL0     H44657   0.217   2.602   2.166 -0.4516  0.5195 -2.8332
  331MOL0     H44658   0.325   2.637   2.300 -0.1491 -0.8980  0.0802
  331MOL0     H44659   0.230   2.886   2.270  1.7649 -0.8169 -1.5182
  331MOL0     H44660   0.113   2.743   2.311  0.4929 -2.9936 -1.0057
  331MOL0     H44661   0.047   2.937   2.160 -1.4897  0.1567 -2.5419
  331MOL0     H44662   0.179   2.869   2.057  2.1018 -2.1604  1.8475
  331MOL0     H44663   0.041   2.651   2.021 -0.3162  0.7998 -2.1145
  331MOL0     H44664  -0.030   2.799   1.966  0.5191 -0.4038 -1.1640
  331MOL0     H44665  -0.106   2.659   2.233 -0.3267 -0.7028  0.5405
  331MOL0     H44666  -0.193   2.655   2.066  0.3335  1.7136 -1.5848
  331MOL0     H44667   0.902   2.640   2.101  0.0280  0.3629 -3.7381
  331MOL0     H44668   1.130   2.701   2.138  1.4258  0.2166  2.0264
  331MOL0     H44669   1.350   3.162   2.232 -0.2549  0.2047  3.1277
  331MOL0     H44670   1.569   3.296   2.207  2.8636  0.3377  3.4543
  331MOL0     H44671   3.082   2.736   1.204 -2.6229 -1.9826  1.8571
  331MOL0     H44672   3.320   2.701   1.107  1.8015  2.0373  2.2372
  331MOL0     H44673   3.615   2.602   0.994  0.2712  0.4440  0.7820
  331MOL0     H44674   3.841   2.684   0.905  1.1719 -0.3194 -0.5937
  331MOL0     H44675   4.189   2.651   1.133 -2.8594 -0.0177 -0.0755
  331MOL0     H44676   4.217   2.489   1.047 -1.4106 -0.2315  1.5692
  331MOL0     H44677   4.265   2.764   0.928 -1.8131 -0.4454 -0.1531
  331MOL0     H44678   4.294   2.602   0.848  2.0684 -1.8395  1.6378
  331MOL0     H44679   4.515   2.678   0.915 -0.6139 -0.0327 -1.6545
  331MOL0     H44680   4.470   2.539   1.011  2.6905 -0.0341 -2.6656
  331MOL0     H44681   4.579   2.705   1.141  1.2443  0.0580 -0.7068
  331MOL0     H44682   4.419   2.657   1.205  0.7902  2.6437  1.8755
  331MOL0     H44683   4.309   3.033   1.196 -1.2578  0.3722 -1.2178
  331MOL0     H44684   4.053   2.447   1.186  0.9257 -2.8144 -4.0094
  331MOL0     H44685   3.846   2.378   1.287 -2.4412  0.8000  0.5257
  332MOL0     O44686   0.308   8.385  10.250  0.1202 -0.6570 -0.6597
  332MOL0     C44687   0.306   8.491  10.193  0.4077  0.5605 -0.3561
  332MOL0     O44688   0.223   8.525  10.091  0.6035  0.1445 -0.7786
  332MOL0     C44689   0.123   8.439  10.039 -0.5072 -0.4833 -0.6216
  332MOL0     C44690   0.029   8.512   9.963 -0.1243 -0.0766 -0.9442
  332MOL0     C44691  -0.082   8.445   9.902 -0.6914 -0.2605  1.0595
  332MOL0     C44692  -0.101   8.301   9.917 -0.4091 -0.3216  0.3322
  332MOL0     O44693  -0.197   8.230   9.857  0.4598  0.4950 -0.8014
  332MOL0     C44694  -0.296   8.299   9.786  0.5826 -0.4724 -0.3306
  332MOL0     C44695  -0.410   8.197   9.746  0.2500  0.1854  0.4052
  332MOL0     C44696  -0.546   8.265   9.700  0.0305  0.8913 -0.9424
  332MOL0     C44697  -0.633   8.149   9.645  0.1459 -0.5355 -0.4472
  332MOL0     C44698  -0.747   8.218   9.577 -0.1820  0.0326  0.4102
  332MOL0     C44699  -0.847   8.297   9.672  0.6048 -0.4428 -0.5881
  332MOL0     C44700  -0.995   8.255   9.648 -0.3494  0.5554 -0.9435
  332MOL0     C44701  -1.041   8.302   9.517 -0.0497  0.2380 -0.2835
  332MOL0     N44702  -1.179   8.258   9.493  0.1393 -0.7574  0.7514
  332MOL0     C44703  -1.210   8.152   9.404  0.7044  0.2025 -0.2599
  332MOL0     C44704  -1.340   8.127   9.427 -0.6170  0.4459  1.0184
  332MOL0     C44705  -1.421   8.035   9.341  0.2215 -0.8291  0.6422
  332MOL0     C44706  -1.480   7.916   9.426  0.8178 -0.2203  0.8457
  332MOL0     C44707  -1.598   7.854   9.354 -0.4779 -0.2433  0.2261
  332MOL0     C44708  -1.670   7.739   9.419  0.0255 -0.2654 -0.2598
  332MOL0     O44709  -1.731   7.757   9.551  0.5666  0.2513  0.2228
  332MOL0     C44710  -1.832   7.850   9.558 -0.1749  0.1440  0.1610
  332MOL0     C44711  -1.871   7.891   9.680 -0.3158 -0.5455  0.0910
  332MOL0     C44712  -1.975   7.979   9.707  0.0224 -0.9187  0.7861
  332MOL0     C44713  -2.003   8.009   9.849  0.1196 -0.2020 -1.0078
  332MOL0     C44714  -2.053   8.036   9.604  0.4498  0.9250  1.4483
  332MOL0     C44715  -2.173   8.123   9.633 -1.1078 -0.4393 -1.1007
  332MOL0     O44716  -2.204   8.186   9.751  0.1460 -0.4850  0.0733
  332MOL0     C44717  -2.300   8.284   9.770 -0.0152  0.0363  0.0192
  332MOL0     C44718  -2.348   8.369   9.664 -0.6327  0.8672 -0.5432
  332MOL0     C44719  -2.437   8.468   9.701  0.2647 -0.6311  0.1386
  332MOL0     C44720  -2.488   8.480   9.828  0.4780 -0.3725  0.0048
  332MOL0     O44721  -2.572   8.586   9.861 -0.2077  0.3264 -1.2673
  332MOL0     C44722  -2.629   8.600   9.997 -0.0221 -0.0689 -0.4117
  332MOL0     C44723  -2.746   8.696   9.982  0.0567 -0.6356 -0.3156
  332MOL0     C44724  -2.796   8.747  10.114  0.3596 -0.4924  0.2422
  332MOL0     C44725  -2.887   8.867  10.090 -0.1624 -0.4023 -0.6707
  332MOL0     C44726  -2.947   8.906  10.228 -0.0545 -0.2534 -0.0187
  332MOL0     C44727  -3.063   9.013  10.233  0.4064  0.2608 -0.4952
  332MOL0     C44728  -3.101   9.038  10.374 -0.3806  0.3661 -0.4224
  332MOL0     C44729  -3.192   9.158  10.393 -0.0398 -0.4686  0.5214
  332MOL0    Cl44730  -3.342   9.136  10.290  0.0827  0.3309 -0.3655
  332MOL0     C44731  -2.446   8.391   9.926  0.0862 -0.9674 -0.2120
  332MOL0     C44732  -2.343   8.298   9.899  0.5260  0.0958 -0.1160
  332MOL0     O44733  -2.235   8.137   9.532 -0.6828 -0.1360 -0.8102
  332MOL0     C44734  -2.012   8.000   9.477  0.7248 -0.7850 -0.1201
  332MOL0     C44735  -1.905   7.907   9.451  0.1234 -0.3198  0.1366
  332MOL0     N44736  -1.382   8.213   9.525 -0.7234 -0.0054 -0.0846
  332MOL0     N44737  -1.285   8.285   9.570 -0.1277  0.1897  0.5451
  332MOL0     C44738   0.002   8.227   9.980 -0.3464 -0.1633 -0.3917
  332MOL0     C44739   0.109   8.291  10.048  0.0569 -0.2503 -0.5040
  332MOL0     C44740   0.432   8.562  10.216  0.6947  0.6659 -0.0589
  332MOL0     C44741   0.541   8.517  10.287 -0.6643  0.1641  0.5636
  332MOL0     C44742   0.652   8.603  10.304 -0.0744 -0.1341 -0.1025
  332MOL0     C44743   0.660   8.736  10.267  0.4043  0.0965  1.2346
  332MOL0     O44744   0.760   8.815  10.288 -0.2550 -0.3167  0.0466
  332MOL0     C44745   0.852   8.805  10.401 -1.2542  0.4184  0.2124
  332MOL0     C44746   0.969   8.912  10.395 -0.6642  0.2528  0.0556
  332MOL0     C44747   1.028   8.945  10.252 -0.2325  0.3495 -0.1030
  332MOL0     C44748   1.133   9.047  10.263 -0.3488 -0.3745  0.1979
  332MOL0     C44749   1.071   9.177  10.280  0.3263 -0.4589 -0.4626
  332MOL0     C44750   1.003   9.279  10.288 -0.5627  0.6278 -0.7181
  332MOL0     C44751   0.544   8.783  10.197 -0.4870 -0.7542  0.1591
  332MOL0     C44752   0.435   8.697  10.170 -0.1514 -0.2826  0.7555
  332MOL0     H44753   0.043   8.620   9.965 -0.6349 -0.0087 -0.9826
  332MOL0     H44754  -0.149   8.503   9.840  0.8949 -0.1025 -0.5859
  332MOL0     H44755  -0.341   8.381   9.842  0.2210  0.1883 -1.5387
  332MOL0     H44756  -0.254   8.331   9.690 -2.7459  0.2769 -1.7086
  332MOL0     H44757  -0.372   8.134   9.665 -0.0477  0.3946  0.0980
  332MOL0     H44758  -0.437   8.144   9.837  1.1963  0.1891  0.7029
  332MOL0     H44759  -0.603   8.299   9.787 -3.3474 -2.5642 -1.5656
  332MOL0     H44760  -0.534   8.349   9.630  0.5794  0.8406 -0.9179
  332MOL0     H44761  -0.573   8.087   9.578 -0.3372 -1.0946 -0.3668
  332MOL0     H44762  -0.673   8.081   9.720 -0.7128  1.7302  1.2517
  332MOL0     H44763  -0.710   8.284   9.498  1.0632  0.3631  1.2453
  332MOL0     H44764  -0.797   8.130   9.534 -0.5171  0.0861  0.6865
  332MOL0     H44765  -0.826   8.275   9.777  2.8657  1.0042 -0.6679
  332MOL0     H44766  -0.840   8.406   9.668  3.3849 -0.5751 -1.3729
  332MOL0     H44767  -1.008   8.147   9.649  0.5545  0.4414 -0.8540
  332MOL0     H44768  -1.053   8.297   9.731 -0.0404 -0.4178 -0.2188
  332MOL0     H44769  -0.981   8.254   9.439 -1.1698 -0.3685 -0.8055
  332MOL0     H44770  -1.039   8.411   9.502  0.6760  0.1149 -1.1854
  332MOL0     H44771  -1.132   8.129   9.332  2.4183 -0.6119  1.7630
  332MOL0     H44772  -1.503   8.092   9.296  1.2483  0.8212  0.8083
  332MOL0     H44773  -1.353   7.998   9.264  0.8967 -1.0606  1.3314
  332MOL0     H44774  -1.515   7.964   9.518  1.5598  4.4137 -1.0239
  332MOL0     H44775  -1.413   7.831   9.440 -1.0180 -1.6744  1.2493
  332MOL0     H44776  -1.567   7.822   9.254 -1.3987  0.9416 -0.4560
  332MOL0     H44777  -1.666   7.939   9.343 -1.0469 -0.4925  1.5700
  332MOL0     H44778  -1.598   7.656   9.419  0.3691  0.0316 -0.5672
  332MOL0     H44779  -1.753   7.710   9.354 -0.5193 -2.1138  1.1569
  332MOL0     H44780  -1.831   7.834   9.763 -2.1041 -0.9425  0.7295
  332MOL0     H44781  -2.111   8.007   9.866  0.1888  1.2703 -0.2715
  332MOL0     H44782  -1.954   7.935   9.913  2.6903  2.8262  0.8068
  332MOL0     H44783  -1.964   8.101   9.893 -1.3341 -0.1083  0.1866
  332MOL0     H44784  -2.305   8.370   9.565  0.0242  2.8696 -0.2883
  332MOL0     H44785  -2.450   8.547   9.628  1.2405 -0.7449 -0.1645
  332MOL0     H44786  -2.656   8.507  10.047  2.1011 -1.1062 -1.0977
  332MOL0     H44787  -2.545   8.648  10.050 -0.8666 -0.9159  1.8002
  332MOL0     H44788  -2.716   8.783   9.923 -0.3466  1.3225  2.2287
  332MOL0     H44789  -2.830   8.649   9.930 -1.2712  1.3773 -0.0932
  332MOL0     H44790  -2.713   8.772  10.181  0.5874 -0.9602  0.1412
  332MOL0     H44791  -2.869   8.679  10.160  0.3718  1.5148  3.5228
  332MOL0     H44792  -2.828   8.944  10.039  0.4488 -1.1499 -1.1148
  332MOL0     H44793  -2.966   8.830  10.024  1.6476 -1.1592 -2.5401
  332MOL0     H44794  -2.870   8.940  10.298 -0.4532  2.2462 -0.7205
  332MOL0     H44795  -3.001   8.821  10.271  0.0758 -0.1567  0.3349
  332MOL0     H44796  -3.031   9.103  10.179  2.3947 -0.9685 -1.4607
  332MOL0     H44797  -3.149   8.980  10.174 -1.6643  1.8813  1.4175
  332MOL0     H44798  -3.012   9.061  10.434 -0.2094  0.7863 -0.8334
  332MOL0     H44799  -3.155   8.952  10.415  0.4946  0.1009  0.2117
  332MOL0     H44800  -3.150   9.251  10.355 -0.7013  0.3726  1.7682
  332MOL0     H44801  -3.219   9.163  10.499  1.6445 -0.0480  0.9590
  332MOL0     H44802  -2.472   8.404  10.031 -1.9614  1.3755 -0.9286
  332MOL0     H44803  -2.297   8.242   9.980  1.5169  1.3632  0.2337
  332MOL0     H44804  -2.065   8.032   9.388 -0.4900  2.1708  1.5069
  332MOL0     H44805  -1.882   7.875   9.349 -1.5312  1.7412 -0.9680
  332MOL0     H44806  -0.001   8.118   9.979  0.6021 -0.2013 -1.7352
  332MOL0     H44807   0.189   8.228  10.084  0.2661  0.2148 -0.1386
  332MOL0     H44808   0.527   8.416  10.324  1.6190 -0.5152 -0.2655
  332MOL0     H44809   0.740   8.557  10.347  0.7901  1.9052  0.4601
  332MOL0     H44810   0.786   8.811  10.489 -1.1791 -2.3274  0.5605
  332MOL0     H44811   0.911   8.712  10.403 -0.6131  0.7342 -1.8260
  332MOL0     H44812   1.051   8.897  10.466  0.3864 -0.6209 -1.2958
  332MOL0     H44813   0.916   9.004  10.422 -2.1530 -0.7099  0.5251
  332MOL0     H44814   0.946   8.972  10.185 -0.5776  0.8446  0.5082
  332MOL0     H44815   1.072   8.857  10.203 -0.1480 -0.6013  1.5801
  332MOL0     H44816   1.191   9.051  10.171  0.3281 -1.1235  0.5802
  332MOL0     H44817   1.202   9.032  10.347  1.5804 -2.1382 -1.5965
  332MOL0     H44818   0.959   9.376  10.291 -3.0571 -0.4491  1.9940
  332MOL0     H44819   0.548   8.887  10.165  2.3493 -0.3359  1.5982
  332MOL0     H44820   0.353   8.740  10.113 -0.6054 -1.3113  0.6022
  333MOL0     O44821   9.810  10.260   8.970  0.2909  0.8071  0.4258
  333MOL0     C44822   9.782  10.374   8.997 -0.0163 -0.8862 -0.7237
  333MOL0     O44823   9.671  10.411   9.057  0.2217 -0.5123  0.2685
  333MOL0     C44824   9.560  10.329   9.068  0.0432  0.0825 -0.0585
  333MOL0     C44825   9.479  10.332   9.183 -0.0794 -0.4874 -0.0441
  333MOL0     C44826   9.371  10.247   9.196  1.0117 -0.2720  0.6295
  333MOL0     C44827   9.323  10.170   9.090 -0.9098 -0.0004  0.4011
  333MOL0     O44828   9.206  10.110   9.111  0.3282  0.4273 -0.3755
  333MOL0     C44829   9.170  10.013   9.023 -0.1437  0.3179  0.2449
  333MOL0     C44830   9.059   9.926   9.095  0.5673  0.2320 -0.0186
  333MOL0     C44831   9.119   9.802   9.150  0.5786 -0.4236  0.2351
  333MOL0     C44832   9.026   9.732   9.247 -0.2157 -0.8055  0.3269
  333MOL0     C44833   8.887   9.685   9.191  0.1246  0.4396 -0.1168
  333MOL0     C44834   8.886   9.624   9.048 -0.3881 -0.7354  0.3277
  333MOL0     C44835   8.755   9.559   9.032  0.3503 -1.0058 -0.0856
  333MOL0     C44836   8.735   9.497   8.895 -0.3676  0.1415 -0.4049
  333MOL0     N44837   8.584   9.479   8.879 -0.8989  0.3621  0.5389
  333MOL0     C44838   8.511   9.389   8.946  0.2450 -0.0350 -0.4540
  333MOL0     C44839   8.385   9.391   8.909 -0.2312 -0.0732 -0.0175
  333MOL0     C44840   8.260   9.311   8.949 -0.3382  0.4513 -0.1389
  333MOL0     C44841   8.128   9.323   8.869 -0.4547 -0.7661  0.9078
  333MOL0     C44842   8.028   9.207   8.868 -0.3855  0.0618  0.4638
  333MOL0     C44843   7.904   9.210   8.775 -0.1656 -0.0398  0.0904
  333MOL0     O44844   7.824   9.323   8.821 -0.0875  0.9409 -0.0351
  333MOL0     C44845   7.717   9.344   8.741  0.2577 -0.5640 -0.2340
  333MOL0     C44846   7.639   9.455   8.774  0.3599 -0.7935 -0.5608
  333MOL0     C44847   7.533   9.503   8.689  0.0958 -0.5741 -0.2130
  333MOL0     C44848   7.469   9.630   8.740 -0.3508 -0.0419  0.1599
  333MOL0     C44849   7.493   9.416   8.586  0.0522  0.3013 -0.9190
  333MOL0     C44850   7.381   9.445   8.494  0.0688  1.0495 -0.1928
  333MOL0     O44851   7.379   9.371   8.378 -0.4259  0.7446 -0.1063
  333MOL0     C44852   7.261   9.370   8.308  0.5438 -0.6274 -0.5725
  333MOL0     C44853   7.194   9.481   8.265  0.4693  0.3571  0.0284
  333MOL0     C44854   7.083   9.465   8.186  0.1660 -0.3821 -0.1017
  333MOL0     C44855   7.030   9.340   8.149 -0.5829 -0.2975 -1.2357
  333MOL0     O44856   6.910   9.321   8.083  0.0403 -0.5804 -0.0167
  333MOL0     C44857   6.815   9.430   8.062 -0.3227 -0.5474  0.0215
  333MOL0     C44858   6.695   9.350   8.004  0.1397 -0.8249  0.6200
  333MOL0     C44859   6.572   9.438   8.003 -0.3133 -0.7292 -0.1295
  333MOL0     C44860   6.503   9.436   7.870  0.3040 -0.0232 -0.0712
  333MOL0     C44861   6.384   9.529   7.883  0.0101  0.9815  0.5525
  333MOL0     C44862   6.305   9.513   7.755  0.1214  0.0958 -0.3402
  333MOL0     C44863   6.163   9.576   7.787 -0.4493 -0.1845  0.0398
  333MOL0     C44864   6.050   9.477   7.809  0.0930 -1.3566 -0.7513
  333MOL0    Cl44865   6.043   9.379   7.668 -0.1041 -0.0956  0.1062
  333MOL0     C44866   7.102   9.228   8.195 -0.8944  0.3199  0.5927
  333MOL0     C44867   7.217   9.242   8.271 -0.6227 -0.7567 -1.0987
  333MOL0     O44868   7.296   9.526   8.523 -0.0479  0.0757  0.1602
  333MOL0     C44869   7.572   9.304   8.553  1.0534  0.3217  0.3740
  333MOL0     C44870   7.680   9.264   8.633 -0.6717  0.2320  0.1906
  333MOL0     N44871   8.389   9.473   8.790  0.1108 -0.0454  0.2556
  333MOL0     N44872   8.506   9.528   8.780 -1.3276  0.5243  1.0821
  333MOL0     C44873   9.401  10.164   8.969 -0.1826 -0.5318 -0.1685
  333MOL0     C44874   9.522  10.242   8.960 -0.0771 -0.9368 -0.5736
  333MOL0     C44875   9.875  10.483   8.960  0.6243 -0.3310 -0.5419
  333MOL0     C44876   9.840  10.614   8.974  0.3669  0.0243 -0.4990
  333MOL0     C44877   9.926  10.722   8.952  0.0323  0.1136 -0.0377
  333MOL0     C44878  10.058  10.699   8.905 -0.7939  0.3452 -0.5508
  333MOL0     O44879  10.149  10.794   8.891  1.2057  0.0797 -0.3424
  333MOL0     C44880  10.288  10.775   8.860 -1.2631  0.0880  1.0324
  333MOL0     C44881  10.309  10.779   8.707  0.6328 -0.2550  0.2927
  333MOL0     C44882  10.306  10.922   8.654 -0.1054 -0.6539 -0.2176
  333MOL0     C44883  10.352  10.940   8.515  0.3612 -0.6936  0.4039
  333MOL0     C44884  10.499  10.938   8.504 -0.4548 -0.9787  0.0024
  333MOL0     C44885  10.622  10.939   8.492  0.5641  0.3023 -0.3495
  333MOL0     C44886  10.086  10.563   8.865 -0.8426  0.9534 -0.6400
  333MOL0     C44887  10.000  10.457   8.903 -0.1724 -0.0142  0.7493
  333MOL0     H44888   9.495  10.395   9.269 -1.3150 -0.8661  0.4844
  333MOL0     H44889   9.315  10.257   9.288 -0.4408  2.5607 -0.4479
  333MOL0     H44890   9.125  10.060   8.935 -4.6067 -2.4224  0.7840
  333MOL0     H44891   9.258   9.953   8.998  2.0462  2.5606  2.0545
  333MOL0     H44892   9.018   9.991   9.173 -0.0085  2.2626 -1.9228
  333MOL0     H44893   8.986   9.914   9.015  2.4214  2.4945 -2.2175
  333MOL0     H44894   9.138   9.741   9.062 -1.3315  1.3062 -1.4738
  333MOL0     H44895   9.214   9.816   9.202 -0.1959  0.8508  1.3776
  333MOL0     H44896   9.077   9.639   9.274  0.7309 -0.3598  0.1352
  333MOL0     H44897   9.024   9.792   9.339  1.8803 -0.0767 -0.0431
  333MOL0     H44898   8.844   9.608   9.255 -0.5420  0.6224 -0.3403
  333MOL0     H44899   8.810   9.762   9.183  1.0593  1.4230  0.1868
  333MOL0     H44900   8.896   9.712   8.984 -1.1409  1.3930  2.9394
  333MOL0     H44901   8.969   9.555   9.032 -1.4168 -1.8178 -0.4828
  333MOL0     H44902   8.752   9.478   9.106 -1.9459  0.7518  1.8834
  333MOL0     H44903   8.674   9.629   9.049  0.7022 -0.8428  0.9733
  333MOL0     H44904   8.765   9.393   8.881  1.0878  0.0735  2.5228
  333MOL0     H44905   8.780   9.545   8.808 -1.9316 -0.7029 -1.7414
  333MOL0     H44906   8.564   9.329   9.020 -0.2853 -1.5535 -1.2755
  333MOL0     H44907   8.279   9.203   8.949 -1.1156  0.2997  0.6647
  333MOL0     H44908   8.234   9.338   9.052  2.4964 -0.9832  1.0629
  333MOL0     H44909   8.150   9.335   8.763 -3.4304 -5.6666 -0.6236
  333MOL0     H44910   8.085   9.416   8.907  2.5114  1.3581 -0.5095
  333MOL0     H44911   7.993   9.186   8.969 -1.6716  1.2381  0.2980
  333MOL0     H44912   8.078   9.121   8.823 -2.2806 -1.1304  0.5009
  333MOL0     H44913   7.850   9.116   8.789 -2.0695  0.9561 -0.1430
  333MOL0     H44914   7.944   9.225   8.674  0.8423 -0.6241  0.3846
  333MOL0     H44915   7.663   9.508   8.865 -0.1331  0.1046 -0.9397
  333MOL0     H44916   7.393   9.612   8.817  0.6948  0.2437  1.2823
  333MOL0     H44917   7.548   9.700   8.769 -0.0773 -0.5587  0.6805
  333MOL0     H44918   7.409   9.673   8.659 -0.1720 -1.3128 -0.6622
  333MOL0     H44919   7.230   9.582   8.283  0.5292  0.8677 -2.6121
  333MOL0     H44920   7.026   9.551   8.154  0.2080 -0.2822  0.0906
  333MOL0     H44921   6.778   9.478   8.152 -0.0767  1.7954 -1.0640
  333MOL0     H44922   6.843   9.512   7.995 -1.4850 -0.3198 -0.2101
  333MOL0     H44923   6.725   9.320   7.903  2.4347  1.3118  0.5718
  333MOL0     H44924   6.676   9.263   8.067 -1.7265 -2.1236 -1.5468
  333MOL0     H44925   6.608   9.541   8.018 -0.0501 -0.9742  0.9723
  333MOL0     H44926   6.505   9.415   8.085  2.6092 -1.0447  2.3607
  333MOL0     H44927   6.575   9.475   7.798  1.4659 -2.8033 -0.5385
  333MOL0     H44928   6.476   9.334   7.843 -1.3842  0.1797  0.7170
  333MOL0     H44929   6.422   9.631   7.892  1.8003  0.2064  2.9943
  333MOL0     H44930   6.327   9.495   7.969 -1.6030 -1.5873 -1.3654
  333MOL0     H44931   6.349   9.583   7.683 -0.7610  0.9364 -0.0875
  333MOL0     H44932   6.299   9.411   7.716 -2.4070 -0.4371  1.2454
  333MOL0     H44933   6.136   9.636   7.699  0.7157  1.2796  0.6350
  333MOL0     H44934   6.182   9.648   7.867  3.9046  0.1412 -1.0076
  333MOL0     H44935   5.957   9.528   7.837  0.4356  0.3876 -2.5500
  333MOL0     H44936   6.082   9.415   7.893 -0.6233 -1.0286 -0.2194
  333MOL0     H44937   7.078   9.127   8.163 -0.4435  0.2946  0.3298
  333MOL0     H44938   7.268   9.149   8.293 -2.1070 -0.8168  3.0987
  333MOL0     H44939   7.563   9.251   8.459  2.8661 -1.2524  0.9956
  333MOL0     H44940   7.739   9.179   8.601 -1.2900  0.3243 -1.2616
  333MOL0     H44941   9.369  10.102   8.886  0.9071 -1.4929  0.0962
  333MOL0     H44942   9.591  10.240   8.876  1.5380 -1.0779  0.6990
  333MOL0     H44943   9.743  10.635   9.017  0.3716 -0.6435 -0.1530
  333MOL0     H44944   9.900  10.825   8.976  2.4614  1.1427 -1.4771
  333MOL0     H44945  10.351  10.847   8.913 -0.2421  0.0656 -0.0992
  333MOL0     H44946  10.323  10.680   8.900 -0.3760  0.3973  1.0099
  333MOL0     H44947  10.241  10.713   8.653 -1.7070  1.2330  1.2934
  333MOL0     H44948  10.410  10.739   8.689  0.8955  0.3858  0.2979
  333MOL0     H44949  10.371  10.989   8.711  1.5800 -2.6074  0.2560
  333MOL0     H44950  10.204  10.959   8.673  0.4194  1.6365 -1.4395
  333MOL0     H44951  10.305  11.030   8.474  1.6515 -1.2377 -2.5349
  333MOL0     H44952  10.303  10.861   8.458  1.2789 -1.8260  1.1246
  333MOL0     H44953  10.727  10.958   8.476  0.9288  0.7419  2.1775
  333MOL0     H44954  10.189  10.536   8.845  0.5186  2.2687  3.4108
  333MOL0     H44955  10.031  10.353   8.905  0.7390  0.2433  2.6525
  334MOL0     O44956   5.924   2.744   7.409 -0.0023  0.0155 -0.5723
  334MOL0     C44957   5.908   2.656   7.325  0.2307 -0.0407 -0.2495
  334MOL0     O44958   5.788   2.625   7.258  0.0817 -0.2001 -0.3048
  334MOL0     C44959   5.701   2.728   7.264 -0.2301 -0.1813  0.7730
  334MOL0     C44960   5.726   2.864   7.231  0.5392 -1.2987  0.5290
  334MOL0     C44961   5.628   2.961   7.247  0.4566 -0.3677 -0.3616
  334MOL0     C44962   5.503   2.939   7.298  0.2871  0.5951  0.5385
  334MOL0     O44963   5.409   3.029   7.331  0.4867 -0.1181  0.4880
  334MOL0     C44964   5.422   3.165   7.299  0.0140 -0.0438 -0.1288
  334MOL0     C44965   5.293   3.242   7.346 -1.0330  0.0534 -0.6552
  334MOL0     C44966   5.302   3.389   7.303 -0.0865  0.1284  0.1261
  334MOL0     C44967   5.269   3.404   7.154 -0.1322  0.4021 -0.4626
  334MOL0     C44968   5.323   3.546   7.110 -0.1543  0.1789  0.7696
  334MOL0     C44969   5.289   3.572   6.960  0.0665  0.4267 -0.6739
  334MOL0     C44970   5.137   3.612   6.942  0.2499 -0.4752  0.1964
  334MOL0     C44971   5.103   3.625   6.795  0.5737 -0.6988 -0.2205
  334MOL0     N44972   4.967   3.657   6.774 -0.5869  0.5282  0.2920
  334MOL0     C44973   4.882   3.590   6.686  0.4764  0.2326 -0.8766
  334MOL0     C44974   4.765   3.656   6.692  0.2616 -0.2855  0.1153
  334MOL0     C44975   4.637   3.608   6.636 -0.9987 -0.5148  0.1380
  334MOL0     C44976   4.563   3.732   6.589 -0.1701 -0.6361 -0.5446
  334MOL0     C44977   4.433   3.696   6.507  0.2738 -0.0708 -0.0159
  334MOL0     C44978   4.353   3.819   6.463  0.1922  0.4832  0.5513
  334MOL0     O44979   4.219   3.770   6.430 -0.1398  0.1335 -0.5420
  334MOL0     C44980   4.123   3.863   6.408  0.1526  0.6566  0.2117
  334MOL0     C44981   3.990   3.826   6.419  0.5749 -1.1182  0.3578
  334MOL0     C44982   3.884   3.918   6.426 -0.2219  0.0805 -0.5095
  334MOL0     C44983   3.754   3.847   6.446 -0.1432 -0.0844  0.4164
  334MOL0     C44984   3.902   4.053   6.394  0.3533 -0.8554 -0.1676
  334MOL0     C44985   3.787   4.158   6.386  0.1578 -0.5249  0.2438
  334MOL0     O44986   3.828   4.290   6.380  0.7487  0.6244 -0.3704
  334MOL0     C44987   3.728   4.384   6.367  0.1305 -0.1325 -0.8443
  334MOL0     C44988   3.656   4.432   6.475 -0.2331 -0.0024 -0.0104
  334MOL0     C44989   3.552   4.534   6.466  0.1614 -1.4839 -0.5192
  334MOL0     C44990   3.525   4.586   6.336  0.1139 -0.4152  1.1537
  334MOL0     O44991   3.413   4.670   6.312 -0.2516  0.3749 -0.5155
  334MOL0     C44992   3.282   4.628   6.344 -0.4123 -0.2221 -0.2436
  334MOL0     C44993   3.226   4.542   6.224 -0.5080  0.0138  0.4571
  334MOL0     C44994   3.074   4.498   6.219  0.2998  0.0053 -0.7257
  334MOL0     C44995   2.992   4.634   6.209  0.1796 -0.3474 -0.5243
  334MOL0     C44996   2.854   4.611   6.151  0.0101  0.1589  0.3564
  334MOL0     C44997   2.754   4.515   6.224 -0.8772  0.3950 -0.7502
  334MOL0     C44998   2.606   4.529   6.182  1.1381  0.6424 -0.2422
  334MOL0     C44999   2.588   4.499   6.031  0.5156  0.1856  0.2999
  334MOL0    Cl45000   2.686   4.354   5.977 -0.2033 -0.7077  0.0514
  334MOL0     C45001   3.592   4.522   6.229 -0.2294 -0.3076 -0.6507
  334MOL0     C45002   3.701   4.432   6.239  0.3741 -0.1510 -0.3489
  334MOL0     O45003   3.671   4.119   6.374  0.7471 -0.4999 -0.0787
  334MOL0     C45004   4.031   4.094   6.371  0.3899 -0.5542 -0.2460
  334MOL0     C45005   4.144   4.007   6.382  0.9355  0.4543 -0.1689
  334MOL0     N45006   4.780   3.770   6.777  0.1486 -0.1126 -0.5304
  334MOL0     N45007   4.902   3.765   6.828 -0.0529 -0.2834  0.1816
  334MOL0     C45008   5.472   2.802   7.322  0.0962 -0.5035 -0.5725
  334MOL0     C45009   5.566   2.701   7.300  0.3923 -0.3254 -0.5572
  334MOL0     C45010   6.019   2.563   7.310  0.3068  0.2121  0.7961
  334MOL0     C45011   6.000   2.447   7.231  0.8374  0.1440 -0.7604
  334MOL0     C45012   6.104   2.355   7.221  0.3886 -0.9973 -0.1503
  334MOL0     C45013   6.227   2.372   7.273 -0.6926  0.0529 -0.4414
  334MOL0     O45014   6.333   2.284   7.258  0.2316  0.6437  0.2278
  334MOL0     C45015   6.440   2.298   7.352  0.6411 -0.6784  0.1969
  334MOL0     C45016   6.538   2.187   7.299 -0.1235 -0.8782  0.7100
  334MOL0     C45017   6.677   2.213   7.353 -0.1395  0.1559 -0.2400
  334MOL0     C45018   6.752   2.078   7.355  0.1198  0.5020 -0.4582
  334MOL0     C45019   6.889   2.085   7.399 -0.6408  0.1640  0.5482
  334MOL0     C45020   7.003   2.088   7.434  0.6663 -0.0774  0.8485
  334MOL0     C45021   6.244   2.492   7.347 -0.6332 -0.0471 -0.2835
  334MOL0     C45022   6.139   2.585   7.361 -0.5635  0.3331 -0.6690
  334MOL0     H45023   5.821   2.891   7.188 -0.0653 -2.6212 -1.8140
  334MOL0     H45024   5.659   3.054   7.202  0.9845 -0.9640 -1.2763
  334MOL0     H45025   5.514   3.204   7.343  0.4868 -1.4081  0.1482
  334MOL0     H45026   5.429   3.178   7.191  1.4031  1.4117  0.0924
  334MOL0     H45027   5.197   3.201   7.313 -1.0104 -0.8952  0.3860
  334MOL0     H45028   5.300   3.238   7.455  0.4562  0.9736 -0.6836
  334MOL0     H45029   5.243   3.456   7.367  0.5934 -1.2188  2.3009
  334MOL0     H45030   5.404   3.431   7.306 -0.2133  0.6315 -1.6516
  334MOL0     H45031   5.313   3.327   7.090  0.5931  1.0511 -0.7723
  334MOL0     H45032   5.161   3.414   7.145 -0.0116  1.9798 -0.4208
  334MOL0     H45033   5.281   3.630   7.167 -3.1307  0.6467 -1.8688
  334MOL0     H45034   5.431   3.553   7.126 -0.1363 -1.5680  1.6818
  334MOL0     H45035   5.350   3.658   6.929 -0.3205  1.3072  0.8971
  334MOL0     H45036   5.313   3.478   6.910 -1.1658 -1.7436  2.5023
  334MOL0     H45037   5.070   3.534   6.979 -0.8186  1.1676  1.9079
  334MOL0     H45038   5.116   3.703   6.999  1.5112  0.2262 -0.4100
  334MOL0     H45039   5.123   3.529   6.746  2.1183  0.4204 -1.9128
  334MOL0     H45040   5.154   3.709   6.748 -2.8559  1.3353 -0.6625
  334MOL0     H45041   4.905   3.507   6.619  1.2006 -0.4912  0.2398
  334MOL0     H45042   4.664   3.544   6.550  2.6396 -0.1887  0.8635
  334MOL0     H45043   4.571   3.549   6.699 -1.3247 -0.9181 -0.5607
  334MOL0     H45044   4.618   3.798   6.522 -0.8705  1.7657  1.1513
  334MOL0     H45045   4.525   3.795   6.669 -0.7794  1.0629 -2.1078
  334MOL0     H45046   4.364   3.654   6.581  1.1833  1.4628  1.7750
  334MOL0     H45047   4.454   3.622   6.429 -2.9350  0.5608 -1.6310
  334MOL0     H45048   4.392   3.880   6.381  1.1827  1.0311  1.4062
  334MOL0     H45049   4.341   3.877   6.555  1.4042  0.5732  0.6746
  334MOL0     H45050   3.957   3.725   6.443 -0.4801 -0.4731  1.7329
  334MOL0     H45051   3.690   3.916   6.501 -0.6588  0.2920 -0.6351
  334MOL0     H45052   3.704   3.832   6.350  2.1051 -0.4633 -0.7565
  334MOL0     H45053   3.751   3.748   6.494 -2.9722 -0.6288 -0.6700
  334MOL0     H45054   3.676   4.389   6.572  3.0264  2.8583  0.7777
  334MOL0     H45055   3.482   4.558   6.545  0.6033 -1.3002 -0.1777
  334MOL0     H45056   3.290   4.562   6.431 -1.1149 -2.6570 -1.9212
  334MOL0     H45057   3.219   4.716   6.356 -3.8351 -2.3990 -0.9078
  334MOL0     H45058   3.247   4.592   6.129 -0.9389  2.8406  1.7728
  334MOL0     H45059   3.294   4.457   6.211  0.8592  1.1842 -0.3468
  334MOL0     H45060   3.039   4.444   6.307 -1.0381 -1.7484 -2.2413
  334MOL0     H45061   3.064   4.433   6.131 -0.8917  1.1641 -1.4787
  334MOL0     H45062   2.991   4.675   6.311  6.4005 -1.0459  0.2167
  334MOL0     H45063   3.040   4.701   6.138  1.6058 -0.2145  0.5094
  334MOL0     H45064   2.866   4.558   6.055  2.1494 -3.3384  2.3423
  334MOL0     H45065   2.810   4.707   6.121  0.5484  0.6163  1.0259
  334MOL0     H45066   2.789   4.412   6.211  0.6500  1.0712 -2.1646
  334MOL0     H45067   2.781   4.521   6.330  2.8971 -0.2872 -1.5369
  334MOL0     H45068   2.576   4.631   6.207 -1.9643 -0.7588  2.6010
  334MOL0     H45069   2.549   4.453   6.236  0.7480  1.5527  0.6475
  334MOL0     H45070   2.616   4.582   5.966  3.7978 -1.1618 -0.2102
  334MOL0     H45071   2.487   4.469   6.001  1.0320 -1.4978  0.1437
  334MOL0     H45072   3.566   4.552   6.128 -2.2276  1.5346  0.3455
  334MOL0     H45073   3.741   4.397   6.144  0.0735 -0.5050 -0.3487
  334MOL0     H45074   4.065   4.195   6.349  2.9426 -1.5013 -1.0533
  334MOL0     H45075   4.246   4.043   6.374  1.6918 -1.9259 -3.3370
  334MOL0     H45076   5.376   2.789   7.371 -0.4040 -1.9908 -1.8685
  334MOL0     H45077   5.554   2.598   7.333 -0.7691  0.8563  3.0933
  334MOL0     H45078   5.901   2.422   7.194  0.4903 -1.6458  1.2035
  334MOL0     H45079   6.087   2.266   7.162  0.5182 -2.2842  1.6662
  334MOL0     H45080   6.494   2.393   7.350  1.5095 -1.1650 -1.1290
  334MOL0     H45081   6.410   2.275   7.454  3.1593 -1.6906  0.8024
  334MOL0     H45082   6.543   2.198   7.190 -0.5516  1.1713  0.8504
  334MOL0     H45083   6.500   2.088   7.323 -4.4158  0.8250  1.8527
  334MOL0     H45084   6.673   2.244   7.458  1.2763 -0.3174 -0.0253
  334MOL0     H45085   6.736   2.283   7.293  2.2168 -1.0007  0.5736
  334MOL0     H45086   6.740   2.047   7.251 -0.4367  0.2437 -0.3183
  334MOL0     H45087   6.700   2.002   7.414 -2.3194  1.7053 -0.9360
  334MOL0     H45088   7.103   2.086   7.474  1.2737  0.9144 -0.5714
  334MOL0     H45089   6.335   2.529   7.394 -1.3139  0.5368  0.6131
  334MOL0     H45090   6.152   2.674   7.421 -0.9728  1.2653 -1.9249
  335MOL0     O45091   7.276   5.662  11.228  0.8608  0.4707  0.4695
  335MOL0     C45092   7.259   5.547  11.181 -0.3963 -0.7469 -0.3874
  335MOL0     O45093   7.145   5.499  11.122  0.1684  0.2390  0.6805
  335MOL0     C45094   7.032   5.565  11.110 -0.6639  0.2386 -0.2259
  335MOL0     C45095   6.950   5.515  11.011 -0.5065  0.8317 -0.0641
  335MOL0     C45096   6.828   5.578  10.989 -0.5646 -0.6909 -0.1671
  335MOL0     C45097   6.792   5.696  11.053  0.3739 -1.0205  0.7360
  335MOL0     O45098   6.680   5.776  11.028 -0.3580  0.0561 -0.0518
  335MOL0     C45099   6.589   5.731  10.921 -0.1213  0.1280  0.3737
  335MOL0     C45100   6.493   5.847  10.887  0.9673  0.2474 -0.1700
  335MOL0     C45101   6.420   5.901  11.003 -0.3167 -0.0006  0.5505
  335MOL0     C45102   6.308   5.999  10.970 -0.4897  1.4318 -0.2948
  335MOL0     C45103   6.268   6.067  11.097  0.7990 -0.3798 -0.3566
  335MOL0     C45104   6.160   6.175  11.074 -0.1088  1.0091  0.1237
  335MOL0     C45105   6.118   6.242  11.206 -0.0971 -0.8297  0.2880
  335MOL0     C45106   6.042   6.369  11.158  0.6905 -0.2748  1.0625
  335MOL0     N45107   5.970   6.457  11.260 -0.5140  0.3089 -0.1870
  335MOL0     C45108   5.839   6.462  11.281  0.3183  0.0439 -0.5787
  335MOL0     C45109   5.830   6.558  11.366  0.1201  0.1952 -0.5357
  335MOL0     C45110   5.708   6.617  11.438 -0.0344  0.2958  0.3256
  335MOL0     C45111   5.599   6.650  11.338 -0.4464  0.6560  0.0998
  335MOL0     C45112   5.493   6.731  11.413 -0.6407  0.6839  0.1744
  335MOL0     C45113   5.368   6.756  11.327  0.6835 -0.2003 -0.3027
  335MOL0     O45114   5.265   6.777  11.429  0.4766  0.5050  0.8874
  335MOL0     C45115   5.135   6.780  11.387 -0.2599  0.1212 -0.3179
  335MOL0     C45116   5.093   6.792  11.255 -0.3813  0.2006  0.3286
  335MOL0     C45117   4.961   6.788  11.220 -0.6472 -0.0825  0.2953
  335MOL0     C45118   4.928   6.795  11.069  0.2501  0.2502 -0.1275
  335MOL0     C45119   4.865   6.784  11.323  1.3367  0.5577  0.0884
  335MOL0     C45120   4.713   6.794  11.292 -0.0767  0.1979  0.0011
  335MOL0     O45121   4.637   6.702  11.366 -0.2729  0.7466  0.9886
  335MOL0     C45122   4.503   6.712  11.370 -0.4590 -0.5011 -0.1087
  335MOL0     C45123   4.410   6.674  11.268  0.5151  0.8196 -0.5228
  335MOL0     C45124   4.273   6.688  11.286 -0.7538  0.7181 -0.6197
  335MOL0     C45125   4.215   6.744  11.403  0.6245  0.0913  0.3277
  335MOL0     O45126   4.079   6.761  11.403 -0.3812  0.8625 -1.0644
  335MOL0     C45127   4.017   6.772  11.528 -0.5498 -0.0804 -0.6354
  335MOL0     C45128   3.904   6.678  11.535  0.5967  0.7633 -0.0640
  335MOL0     C45129   3.942   6.529  11.533  0.0836 -0.1539  1.0654
  335MOL0     C45130   3.840   6.440  11.593  0.2706  0.3161 -0.0461
  335MOL0     C45131   3.694   6.444  11.526 -0.4644 -0.0839 -0.1748
  335MOL0     C45132   3.598   6.366  11.617  0.2664 -0.3131 -0.8151
  335MOL0     C45133   3.463   6.343  11.562 -0.2507 -0.0400 -0.0644
  335MOL0     C45134   3.350   6.304  11.661 -0.1407 -0.4061 -1.1839
  335MOL0    Cl45135   3.197   6.313  11.573 -0.2004  0.2952 -0.2095
  335MOL0     C45136   4.308   6.793  11.497 -1.2085 -0.1218 -0.6156
  335MOL0     C45137   4.444   6.782  11.478  0.2793  0.6879  0.0341
  335MOL0     O45138   4.665   6.889  11.224 -0.1959 -0.5375 -0.8522
  335MOL0     C45139   4.901   6.771  11.459  1.0420  0.1857  1.1423
  335MOL0     C45140   5.038   6.769  11.489 -0.2591 -0.0107  0.0686
  335MOL0     N45141   5.950   6.611  11.393  0.5765  0.1980 -0.2927
  335MOL0     N45142   6.038   6.561  11.320  0.2060 -0.3088 -1.5846
  335MOL0     C45143   6.875   5.735  11.155 -0.4642  0.0623 -0.3772
  335MOL0     C45144   6.989   5.660  11.193  0.2426 -0.7193  0.2779
  335MOL0     C45145   7.364   5.452  11.228 -0.2099  0.4950  0.3911
  335MOL0     C45146   7.385   5.333  11.156  0.0695  0.2223  0.0724
  335MOL0     C45147   7.506   5.256  11.171 -0.0441 -0.1461  0.0425
  335MOL0     C45148   7.607   5.298  11.254  0.0136  0.1175 -0.1756
  335MOL0     O45149   7.731   5.237  11.238  0.5519  0.0522  0.9084
  335MOL0     C45150   7.831   5.251  11.338 -0.3277 -0.5783 -0.4043
  335MOL0     C45151   7.942   5.149  11.330 -0.3613 -0.1829  1.0468
  335MOL0     C45152   7.904   5.017  11.384 -0.4593  0.4032  0.6591
  335MOL0     C45153   7.805   4.942  11.294 -0.9857 -1.2684  0.6039
  335MOL0     C45154   7.845   4.940  11.150 -0.4584 -0.0915 -0.3181
  335MOL0     C45155   7.877   4.938  11.029  0.5989 -0.4223 -0.7358
  335MOL0     C45156   7.588   5.420  11.324  0.6119  0.5837  0.4374
  335MOL0     C45157   7.473   5.493  11.309  0.5869  0.2644 -0.0131
  335MOL0     H45158   6.983   5.434  10.947  0.8805  1.0364  0.3444
  335MOL0     H45159   6.767   5.529  10.914 -1.2856 -1.0586  0.6442
  335MOL0     H45160   6.647   5.709  10.830 -0.2637  1.4417 -0.0450
  335MOL0     H45161   6.525   5.649  10.956 -3.5677  3.4619  2.5638
  335MOL0     H45162   6.550   5.930  10.846  1.0872  0.4772  0.4422
  335MOL0     H45163   6.422   5.812  10.812  0.0155  0.6550  0.5074
  335MOL0     H45164   6.382   5.807  11.045  1.9564 -1.0738  0.3515
  335MOL0     H45165   6.493   5.948  11.069 -0.7426 -0.3993  1.3287
  335MOL0     H45166   6.347   6.074  10.901  0.0192  0.1087 -1.4891
  335MOL0     H45167   6.222   5.963  10.913  0.1153  0.9783 -0.9323
  335MOL0     H45168   6.229   6.006  11.179 -1.9946  0.3080 -1.0754
  335MOL0     H45169   6.348   6.126  11.141  1.5922 -0.8841 -1.0979
  335MOL0     H45170   6.195   6.245  10.998 -0.6476  2.8512  1.4747
  335MOL0     H45171   6.079   6.124  11.022  0.9912  1.3753 -2.0471
  335MOL0     H45172   6.061   6.179  11.275 -0.1798 -0.8576  0.1945
  335MOL0     H45173   6.205   6.277  11.263 -2.3565  3.6395  1.4535
  335MOL0     H45174   5.954   6.344  11.098  0.7163 -0.9202  1.2845
  335MOL0     H45175   6.110   6.435  11.104  1.3219 -0.9893  0.9816
  335MOL0     H45176   5.764   6.402  11.231  0.8785 -1.5827  0.4533
  335MOL0     H45177   5.671   6.542  11.509  0.8407 -1.2060 -0.7298
  335MOL0     H45178   5.743   6.705  11.492  0.4528 -0.6486  1.5864
  335MOL0     H45179   5.556   6.559  11.296 -0.6330  0.8007 -0.0259
  335MOL0     H45180   5.641   6.697  11.249 -0.1198 -3.2160 -1.9963
  335MOL0     H45181   5.520   6.833  11.441  1.4069  0.2850 -0.2442
  335MOL0     H45182   5.472   6.668  11.500 -0.8791 -1.3217 -1.2702
  335MOL0     H45183   5.341   6.681  11.252  0.7750  0.8927 -1.4703
  335MOL0     H45184   5.390   6.852  11.280  2.4162  0.7238  2.1878
  335MOL0     H45185   5.169   6.795  11.177 -0.0258  0.7388  0.6870
  335MOL0     H45186   4.835   6.741  11.048  0.7312 -1.2458  1.3350
  335MOL0     H45187   4.920   6.901  11.043  4.1751  1.0981  1.4013
  335MOL0     H45188   5.002   6.753  11.000 -1.0103 -1.0078 -0.7828
  335MOL0     H45189   4.456   6.638  11.177 -1.0437 -1.5043 -0.4599
  335MOL0     H45190   4.196   6.662  11.215 -0.8045  1.2561 -0.7660
  335MOL0     H45191   4.085   6.748  11.611 -1.0449  2.3046  0.5530
  335MOL0     H45192   3.990   6.876  11.543 -0.9190 -0.2929  0.2540
  335MOL0     H45193   3.855   6.693  11.632  0.7709  0.3685  0.0878
  335MOL0     H45194   3.842   6.700  11.448  0.2107 -0.5275 -0.1345
  335MOL0     H45195   4.036   6.505  11.584  2.0568  1.3737 -1.5942
  335MOL0     H45196   3.956   6.507  11.427 -2.8355  0.5605  0.4421
  335MOL0     H45197   3.881   6.339  11.594  0.0350  0.1641 -1.8648
  335MOL0     H45198   3.829   6.467  11.698  0.9779 -1.2279  0.4551
  335MOL0     H45199   3.699   6.408  11.423 -0.3627  3.2707 -1.4461
  335MOL0     H45200   3.655   6.545  11.513  0.7774  0.2877 -1.1355
  335MOL0     H45201   3.643   6.268  11.635 -0.0776 -0.0308  2.0140
  335MOL0     H45202   3.595   6.420  11.712 -0.7932 -1.3041 -0.2618
  335MOL0     H45203   3.465   6.273  11.478  2.4672 -1.0249  0.7335
  335MOL0     H45204   3.433   6.441  11.524  0.3219  0.2077  0.1040
  335MOL0     H45205   3.343   6.374  11.745  0.6706 -0.8828 -0.7085
  335MOL0     H45206   3.371   6.203  11.698 -0.8745 -0.6813 -1.4986
  335MOL0     H45207   4.269   6.855  11.576 -0.8129 -0.4254 -0.1743
  335MOL0     H45208   4.505   6.826  11.555 -0.1528 -0.7655  1.2529
  335MOL0     H45209   4.818   6.763  11.528  2.5050  0.7602  3.0509
  335MOL0     H45210   5.076   6.744  11.587 -1.9385 -3.6010 -0.0432
  335MOL0     H45211   6.853   5.834  11.196  0.2934  0.7366 -1.5318
  335MOL0     H45212   7.039   5.709  11.277 -3.5638  0.8460  1.8821
  335MOL0     H45213   7.311   5.293  11.087  1.1129 -1.3878 -0.1914
  335MOL0     H45214   7.522   5.166  11.112 -0.5562 -0.1381 -0.1080
  335MOL0     H45215   7.875   5.352  11.339 -0.6415 -0.4435 -0.0634
  335MOL0     H45216   7.779   5.246  11.434  1.1562 -1.1562  0.4052
  335MOL0     H45217   8.021   5.188  11.394 -0.0731  4.3099 -1.5692
  335MOL0     H45218   7.990   5.146  11.231 -1.9422  1.5227  0.1539
  335MOL0     H45219   7.872   5.025  11.488  0.3637 -1.3642  1.0673
  335MOL0     H45220   7.997   4.961  11.390 -1.0656 -0.6763  0.3701
  335MOL0     H45221   7.709   4.993  11.310 -0.0127  0.6454  0.6442
  335MOL0     H45222   7.802   4.841  11.336  2.1093 -0.2746  3.6515
  335MOL0     H45223   7.900   4.946  10.925 -2.4014 -0.7476 -1.5014
  335MOL0     H45224   7.674   5.444  11.386  1.2970 -3.5456  1.3531
  335MOL0     H45225   7.453   5.588  11.358 -0.5987  1.3748 -2.4704
  336MOL0     O45226   5.558   8.782   0.468  0.1409 -0.9182  0.2860
  336MOL0     C45227   5.592   8.714   0.370  0.5370 -0.1433  0.6290
  336MOL0     O45228   5.498   8.671   0.268 -1.1289  0.3617 -0.1569
  336MOL0     C45229   5.373   8.720   0.261 -0.0092  0.2815 -0.0802
  336MOL0     C45230   5.346   8.851   0.210 -0.5887  0.1001  0.2817
  336MOL0     C45231   5.208   8.902   0.213 -0.9118  0.2229 -0.2358
  336MOL0     C45232   5.103   8.811   0.226  0.8039  0.7795 -0.0360
  336MOL0     O45233   4.971   8.829   0.181  0.0033  0.5726  0.4290
  336MOL0     C45234   4.908   8.953   0.164  0.3190 -0.2506 -0.3922
  336MOL0     C45235   4.756   8.917   0.145 -0.8656  0.0905  1.0109
  336MOL0     C45236   4.669   8.920   0.277  0.5478 -0.1651  1.0817
  336MOL0     C45237   4.513   8.935   0.265  0.2241  0.2514  0.9419
  336MOL0     C45238   4.427   8.878   0.384 -0.2807  0.2925  0.2080
  336MOL0     C45239   4.464   8.946   0.515  0.1940  0.2581  0.1889
  336MOL0     C45240   4.429   9.101   0.532 -0.4050  0.1283  0.0497
  336MOL0     C45241   4.448   9.138   0.675 -0.1445 -0.6371 -0.0226
  336MOL0     N45242   4.418   9.275   0.697 -0.2968 -0.9607  0.6493
  336MOL0     C45243   4.314   9.348   0.645  0.5092 -0.0123 -0.4514
  336MOL0     C45244   4.324   9.473   0.691  0.3064 -0.7868 -0.2314
  336MOL0     C45245   4.237   9.590   0.652  0.3637  0.3568  0.3514
  336MOL0     C45246   4.221   9.601   0.504 -1.0891 -0.1769  0.6237
  336MOL0     C45247   4.161   9.736   0.448  0.2059 -0.3505  0.4712
  336MOL0     C45248   4.283   9.824   0.403 -0.5387  0.0713 -0.3554
  336MOL0     O45249   4.348   9.763   0.297  0.6064  1.2844 -0.3954
  336MOL0     C45250   4.288   9.766   0.173 -0.5192  0.6319 -0.4899
  336MOL0     C45251   4.213   9.657   0.117 -0.5776 -0.2623  0.4778
  336MOL0     C45252   4.149   9.664  -0.009 -0.7305 -0.5535  0.4119
  336MOL0     C45253   4.052   9.550  -0.048 -0.2216  0.5061 -0.5935
  336MOL0     C45254   4.159   9.786  -0.085  0.2502 -0.3746 -0.7518
  336MOL0     C45255   4.087   9.809  -0.214  0.1004  0.1748 -0.0328
  336MOL0     O45256   3.954   9.800  -0.205  0.2882 -0.2071 -0.0104
  336MOL0     C45257   3.862   9.827  -0.305  0.1449  0.2920  0.5875
  336MOL0     C45258   3.729   9.823  -0.264  0.7116 -0.6760  0.8635
  336MOL0     C45259   3.625   9.848  -0.355  0.9436  0.1676  0.0990
  336MOL0     C45260   3.656   9.865  -0.491  0.0343 -0.3288  0.4839
  336MOL0     O45261   3.567   9.879  -0.592 -0.8016  0.5471 -0.2043
  336MOL0     C45262   3.428   9.904  -0.581 -0.0503 -0.1446 -0.6013
  336MOL0     C45263   3.357   9.908  -0.708 -0.2642  0.4037  0.8334
  336MOL0     C45264   3.206   9.911  -0.678  0.8856 -0.6188 -0.1134
  336MOL0     C45265   3.132   9.892  -0.807 -0.2119 -0.4529 -0.0231
  336MOL0     C45266   2.979   9.889  -0.784  0.3656 -0.3833  0.8751
  336MOL0     C45267   2.923  10.027  -0.731  0.6127  0.1558  0.0644
  336MOL0     C45268   2.768  10.040  -0.768 -0.1700 -0.1526 -1.3326
  336MOL0     C45269   2.706  10.174  -0.700 -1.0117 -0.1942  0.6320
  336MOL0    Cl45270   2.728  10.166  -0.529 -0.2420  0.0588 -0.2667
  336MOL0     C45271   3.784   9.873  -0.535 -0.1167 -0.1173 -0.4261
  336MOL0     C45272   3.887   9.857  -0.440 -0.7112  0.1065 -0.7678
  336MOL0     O45273   4.153   9.823  -0.311  0.2910 -0.0589 -0.0990
  336MOL0     C45274   4.233   9.891  -0.020  0.1895 -0.5415  0.3982
  336MOL0     C45275   4.300   9.884   0.105  0.3526  0.2552 -0.3371
  336MOL0     N45276   4.432   9.480   0.785  0.2323 -0.1124  0.4075
  336MOL0     N45277   4.486   9.364   0.787  1.1000  0.2166 -0.7271
  336MOL0     C45278   5.131   8.675   0.259  0.0707 -1.0930  0.0093
  336MOL0     C45279   5.262   8.633   0.281 -0.5728  0.2137  0.4741
  336MOL0     C45280   5.731   8.675   0.364 -0.3456 -0.4146  0.8028
  336MOL0     C45281   5.786   8.637   0.241  0.2795 -0.0671  0.0551
  336MOL0     C45282   5.923   8.619   0.221 -0.7274  0.2546 -0.1573
  336MOL0     C45283   6.004   8.611   0.334  0.3654 -0.3367  0.7064
  336MOL0     O45284   6.138   8.592   0.339 -0.8091  0.5927 -0.6568
  336MOL0     C45285   6.205   8.595   0.210  0.6493  0.2247 -0.3274
  336MOL0     C45286   6.361   8.609   0.235 -0.0106 -0.6788 -0.1909
  336MOL0     C45287   6.414   8.738   0.289  0.3065 -0.7772 -0.2004
  336MOL0     C45288   6.398   8.862   0.204 -0.2515  0.8630 -0.2578
  336MOL0     C45289   6.501   8.889   0.102  0.0074 -0.1397  0.3857
  336MOL0     C45290   6.599   8.923   0.029  1.0031  0.7837 -0.7284
  336MOL0     C45291   5.953   8.657   0.456 -0.1952 -0.3504 -0.0996
  336MOL0     C45292   5.817   8.669   0.473  0.9090 -0.8232 -0.3281
  336MOL0     H45293   5.430   8.911   0.176 -1.3357  0.5207 -0.8858
  336MOL0     H45294   5.195   9.000   0.167 -0.7366  0.0265 -0.7017
  336MOL0     H45295   4.915   9.017   0.252 -0.5485 -1.0338  0.2639
  336MOL0     H45296   4.939   8.995   0.068 -1.7701 -1.0087 -1.4612
  336MOL0     H45297   4.723   9.003   0.086 -1.7790  0.4573  2.0150
  336MOL0     H45298   4.735   8.824   0.091 -0.7932 -0.5152  2.0102
  336MOL0     H45299   4.681   8.829   0.335  1.2763  0.4280  1.8813
  336MOL0     H45300   4.707   9.002   0.338 -2.1878  3.8591 -2.0732
  336MOL0     H45301   4.482   9.035   0.233  1.0800  0.6754  1.3982
  336MOL0     H45302   4.484   8.877   0.177  1.2338  0.2488  0.5981
  336MOL0     H45303   4.319   8.886   0.367 -0.6148  0.5070  2.1688
  336MOL0     H45304   4.457   8.773   0.391  4.1631  1.0307 -3.1708
  336MOL0     H45305   4.409   8.893   0.594  0.2171  0.6277  0.4575
  336MOL0     H45306   4.571   8.937   0.533  0.2105  0.1022  0.0149
  336MOL0     H45307   4.501   9.157   0.471  6.2463 -3.3746  3.5163
  336MOL0     H45308   4.335   9.134   0.488  0.4855  0.7691 -1.4813
  336MOL0     H45309   4.545   9.119   0.722  0.4919  3.1097  0.4713
  336MOL0     H45310   4.366   9.095   0.732  0.3185  1.2666  2.2486
  336MOL0     H45311   4.236   9.326   0.573 -2.3696  2.0488  1.7751
  336MOL0     H45312   4.138   9.572   0.695  0.6973 -0.0035  0.9792
  336MOL0     H45313   4.280   9.682   0.692 -1.8955  1.0556  1.2792
  336MOL0     H45314   4.154   9.522   0.468 -0.4385  0.3629 -1.9807
  336MOL0     H45315   4.312   9.575   0.449 -1.4880  0.5376 -0.4183
  336MOL0     H45316   4.102   9.794   0.520  1.6142  1.4384  0.2519
  336MOL0     H45317   4.106   9.725   0.354  3.5285 -1.1841 -1.5342
  336MOL0     H45318   4.355   9.837   0.485  2.0656 -0.3724 -2.4408
  336MOL0     H45319   4.250   9.923   0.369 -1.3369 -1.0170 -3.0122
  336MOL0     H45320   4.202   9.575   0.186 -1.7528  1.1887  2.1002
  336MOL0     H45321   4.067   9.463   0.017  2.2005  1.8305  0.7407
  336MOL0     H45322   3.951   9.593  -0.047 -0.0352  0.9616 -1.2599
  336MOL0     H45323   4.067   9.504  -0.146 -1.0801 -2.7554  0.6627
  336MOL0     H45324   3.715   9.807  -0.158 -2.8790 -1.9014  0.3271
  336MOL0     H45325   3.524   9.853  -0.317  0.2685  0.6735 -1.6639
  336MOL0     H45326   3.388   9.816  -0.530  1.3541 -0.3918  0.1246
  336MOL0     H45327   3.396   9.999  -0.537  4.1369  1.0194  0.3455
  336MOL0     H45328   3.387   9.995  -0.768  0.2219 -1.5994 -2.0863
  336MOL0     H45329   3.387   9.826  -0.774  3.5184  2.7374 -0.6980
  336MOL0     H45330   3.174  10.006  -0.635  0.2617 -0.5158 -0.7875
  336MOL0     H45331   3.184   9.836  -0.602 -3.1498  1.2840  0.8254
  336MOL0     H45332   3.158   9.970  -0.878  1.5689 -1.2133 -0.2635
  336MOL0     H45333   3.169   9.798  -0.850 -0.2873 -0.6758  0.3871
  336MOL0     H45334   2.950   9.817  -0.707  1.9133 -1.4205  0.5439
  336MOL0     H45335   2.936   9.850  -0.876 -0.3684 -2.7619  2.1483
  336MOL0     H45336   2.945  10.016  -0.624  1.6182 -1.1928 -0.2464
  336MOL0     H45337   2.984  10.108  -0.770  2.5280 -1.5166 -0.5872
  336MOL0     H45338   2.713   9.952  -0.737  2.0150 -1.1959 -0.1686
  336MOL0     H45339   2.761  10.052  -0.877  0.6125  1.7953 -1.2151
  336MOL0     H45340   2.599  10.182  -0.721 -1.4638 -1.3742  2.2726
  336MOL0     H45341   2.752  10.258  -0.753 -1.5189 -1.6665 -2.4233
  336MOL0     H45342   3.802   9.903  -0.638 -1.6863  3.0008  0.0962
  336MOL0     H45343   3.992   9.862  -0.467  0.1941  0.1646  2.3314
  336MOL0     H45344   4.226   9.990  -0.063  1.4226 -1.4456 -2.1048
  336MOL0     H45345   4.344   9.969   0.157 -2.2043  2.6086 -1.7816
  336MOL0     H45346   5.051   8.603   0.272  0.7458 -1.9298 -0.4305
  336MOL0     H45347   5.300   8.534   0.304  1.5780  0.9165  0.2073
  336MOL0     H45348   5.728   8.636   0.149 -1.4082  1.7343  1.0193
  336MOL0     H45349   5.966   8.604   0.122  2.4807 -2.6879  1.4570
  336MOL0     H45350   6.178   8.505   0.152 -1.9813  0.8945 -0.2788
  336MOL0     H45351   6.157   8.675   0.153 -1.5893 -0.4316  0.5209
  336MOL0     H45352   6.421   8.579   0.148 -1.2746  2.7399 -2.4359
  336MOL0     H45353   6.394   8.532   0.305 -2.8142 -0.2533  1.7482
  336MOL0     H45354   6.522   8.737   0.304 -0.0467 -1.0457  2.9092
  336MOL0     H45355   6.359   8.760   0.381  0.2120  1.2958 -0.6978
  336MOL0     H45356   6.390   8.949   0.270 -1.3281 -1.4146  2.8159
  336MOL0     H45357   6.296   8.861   0.165 -1.2946  1.4489  2.3177
  336MOL0     H45358   6.678   8.937  -0.043 -0.4412 -0.1175 -2.5791
  336MOL0     H45359   6.030   8.671   0.531  1.9499 -0.4893 -2.1677
  336MOL0     H45360   5.775   8.690   0.570  4.0262  3.3184  0.4243
  337MOL0     O45361   4.639   7.820   0.026 -0.3346 -0.2843 -0.4035
  337MOL0     C45362   4.725   7.858   0.108 -0.0628  0.1890 -1.1312
  337MOL0     O45363   4.705   7.918   0.229  1.0289 -0.3463  0.2197
  337MOL0     C45364   4.574   7.953   0.265 -0.2116 -0.9310 -0.5098
  337MOL0     C45365   4.459   7.875   0.282 -0.4706  0.4672 -0.1083
  337MOL0     C45366   4.334   7.923   0.305  0.0383 -0.2926 -0.1526
  337MOL0     C45367   4.313   8.056   0.329  0.4582  0.0772 -0.0629
  337MOL0     O45368   4.199   8.117   0.365  0.4288 -0.4805  1.1275
  337MOL0     C45369   4.080   8.034   0.389 -0.0768 -0.1651  0.2897
  337MOL0     C45370   3.980   8.124   0.453  0.0479  0.3799  0.4096
  337MOL0     C45371   3.833   8.056   0.452  0.1282  0.1802 -0.2107
  337MOL0     C45372   3.724   8.162   0.491 -0.1625  0.2519  0.4630
  337MOL0     C45373   3.744   8.221   0.636 -0.5840 -0.7916  1.3379
  337MOL0     C45374   3.722   8.114   0.739 -0.2139 -0.5939 -0.0960
  337MOL0     C45375   3.707   8.173   0.885 -0.5741 -0.6337 -1.0400
  337MOL0     C45376   3.831   8.249   0.939  0.3788  0.0234 -0.1022
  337MOL0     N45377   3.952   8.170   0.929 -0.0685 -0.4684  0.3493
  337MOL0     C45378   4.055   8.202   0.846  0.5260  0.0560  0.6534
  337MOL0     C45379   4.144   8.103   0.858 -0.0168 -0.0455  0.1954
  337MOL0     C45380   4.266   8.082   0.776 -0.2627 -0.1018  0.3075
  337MOL0     C45381   4.358   8.200   0.790 -0.9636  0.7003  0.2521
  337MOL0     C45382   4.480   8.193   0.703 -0.4526 -1.0408  0.2989
  337MOL0     C45383   4.601   8.276   0.754  0.4293  0.6564  0.0512
  337MOL0     O45384   4.688   8.191   0.829 -0.3041  0.3297 -0.8627
  337MOL0     C45385   4.782   8.101   0.768  0.3591 -0.1320  0.4492
  337MOL0     C45386   4.859   8.021   0.848 -0.3869  0.7102 -0.1409
  337MOL0     C45387   4.950   7.928   0.788  0.4619 -0.3385  0.2002
  337MOL0     C45388   5.033   7.845   0.894 -0.7827 -0.5072  0.4993
  337MOL0     C45389   4.969   7.929   0.648 -0.6370 -0.9347 -1.6191
  337MOL0     C45390   5.062   7.833   0.583 -0.0121  0.4585 -0.8090
  337MOL0     O45391   5.138   7.752   0.654 -0.2116  0.8702  0.2057
  337MOL0     C45392   5.275   7.744   0.623 -0.1646  0.5323 -0.1525
  337MOL0     C45393   5.329   7.632   0.569  0.0319 -0.4307  0.9060
  337MOL0     C45394   5.468   7.623   0.551 -0.3352  0.7732 -1.0155
  337MOL0     C45395   5.555   7.724   0.582  0.8535  0.4495 -0.7794
  337MOL0     O45396   5.683   7.701   0.553 -0.3248 -0.0168 -0.3992
  337MOL0     C45397   5.782   7.764   0.641  0.3739 -0.2302  0.6000
  337MOL0     C45398   5.910   7.685   0.646 -0.6170 -0.2531  0.0753
  337MOL0     C45399   5.987   7.700   0.510  0.6027  0.3283  0.5806
  337MOL0     C45400   6.122   7.623   0.508  0.1591 -0.2122  0.5718
  337MOL0     C45401   6.202   7.650   0.371 -0.0722 -0.2130  0.3436
  337MOL0     C45402   6.110   7.708   0.263 -0.6115 -0.0239  0.3960
  337MOL0     C45403   6.184   7.703   0.128 -0.6484 -0.3113 -0.1997
  337MOL0     C45404   6.126   7.779   0.007 -0.3449  0.4460  0.9760
  337MOL0    Cl45405   6.251   7.765  -0.126  0.6231  0.4028 -0.5090
  337MOL0     C45406   5.500   7.842   0.633  0.6354 -0.5705 -0.2107
  337MOL0     C45407   5.362   7.839   0.665  0.1224 -1.6664 -0.2101
  337MOL0     O45408   5.074   7.847   0.464  0.1997  0.9027 -0.3350
  337MOL0     C45409   4.895   8.020   0.575 -0.1118  0.1864  0.0656
  337MOL0     C45410   4.794   8.099   0.629 -0.6320 -0.3865 -0.4160
  337MOL0     N45411   4.102   8.027   0.964  0.6443  0.0580 -0.5305
  337MOL0     N45412   3.981   8.065   1.008 -0.4726  0.4485  0.2493
  337MOL0     C45413   4.427   8.147   0.321 -0.1407 -0.5766 -0.2124
  337MOL0     C45414   4.554   8.097   0.284 -0.2272  0.0551 -0.0859
  337MOL0     C45415   4.872   7.831   0.077  0.4877 -0.0258  0.1345
  337MOL0     C45416   4.899   7.724  -0.005  0.7921 -0.2337  0.0747
  337MOL0     C45417   5.028   7.683  -0.033  0.1642 -0.1642 -0.2241
  337MOL0     C45418   5.134   7.751   0.022  0.7539 -0.0536 -0.6273
  337MOL0     O45419   5.261   7.703   0.001  0.2064  0.3979  0.5236
  337MOL0     C45420   5.336   7.790  -0.082  0.3142 -0.1088 -0.0219
  337MOL0     C45421   5.453   7.850  -0.010 -0.0401 -0.1341 -0.1817
  337MOL0     C45422   5.555   7.748   0.030 -0.6923  0.0858 -0.2264
  337MOL0     C45423   5.672   7.823   0.089  0.0825 -0.0516 -0.3372
  337MOL0     C45424   5.637   7.892   0.213  0.1494  0.0773 -0.5125
  337MOL0     C45425   5.595   7.965   0.305 -0.3425  0.3464 -0.1002
  337MOL0     C45426   5.102   7.861   0.108  0.4746 -0.5539 -0.0196
  337MOL0     C45427   4.975   7.911   0.130 -0.5430  1.1370 -0.7667
  337MOL0     H45428   4.470   7.768   0.262  0.4162  0.6971 -0.9239
  337MOL0     H45429   4.251   7.853   0.316  0.2904 -0.2348  2.5965
  337MOL0     H45430   4.039   8.004   0.293  2.5946 -2.2283 -0.3288
  337MOL0     H45431   4.112   7.950   0.453 -1.3929 -0.2677  0.8588
  337MOL0     H45432   4.014   8.134   0.556  2.1280 -1.5400 -0.0168
  337MOL0     H45433   3.974   8.216   0.395  0.4257  0.2330  0.1306
  337MOL0     H45434   3.816   8.025   0.348 -1.3679  4.1911 -1.3880
  337MOL0     H45435   3.823   7.978   0.527 -2.6875  2.4810  2.0468
  337MOL0     H45436   3.739   8.245   0.421 -0.3332 -0.2947 -0.2289
  337MOL0     H45437   3.622   8.130   0.469 -1.9719  3.0308  3.7180
  337MOL0     H45438   3.840   8.273   0.633 -1.6825  1.3236 -0.0954
  337MOL0     H45439   3.677   8.307   0.652  1.9023  1.6568 -0.3684
  337MOL0     H45440   3.635   8.054   0.709  0.2423 -1.2994 -0.0280
  337MOL0     H45441   3.807   8.045   0.739 -0.8573 -1.4049 -0.1317
  337MOL0     H45442   3.629   8.249   0.887 -0.6709 -0.7414  0.8443
  337MOL0     H45443   3.682   8.098   0.961 -0.6864  0.6547  0.2224
  337MOL0     H45444   3.810   8.279   1.042  0.1548  0.4793 -0.2790
  337MOL0     H45445   3.847   8.338   0.877  2.4944 -0.1589  0.1148
  337MOL0     H45446   4.061   8.274   0.765 -1.2913  0.0214  0.4573
  337MOL0     H45447   4.318   7.994   0.812 -0.9492  0.5385  3.0798
  337MOL0     H45448   4.235   8.061   0.673 -0.4844 -1.7573  0.6961
  337MOL0     H45449   4.398   8.203   0.892 -2.7525  5.0464  1.0348
  337MOL0     H45450   4.301   8.290   0.768 -1.3454  0.4634  0.2689
  337MOL0     H45451   4.440   8.213   0.603 -3.2387 -6.1175  0.0313
  337MOL0     H45452   4.516   8.089   0.701  1.8769 -0.4051  3.0642
  337MOL0     H45453   4.569   8.363   0.812 -0.5568 -0.6355  1.5159
  337MOL0     H45454   4.656   8.325   0.673 -1.4863  0.2928 -1.5585
  337MOL0     H45455   4.849   8.018   0.956 -0.1769 -1.4158 -0.1409
  337MOL0     H45456   5.138   7.872   0.882 -1.0070  0.1015 -0.1573
  337MOL0     H45457   5.002   7.857   0.998 -1.1127  1.1434  0.2401
  337MOL0     H45458   5.007   7.740   0.878  1.7269 -1.1117  0.0403
  337MOL0     H45459   5.265   7.548   0.547 -0.1073 -0.4339  1.3149
  337MOL0     H45460   5.520   7.530   0.531 -1.8696 -0.2315 -0.5523
  337MOL0     H45461   5.804   7.865   0.606  1.0528 -0.9475 -1.1706
  337MOL0     H45462   5.740   7.769   0.742  0.9316 -0.0082  0.8236
  337MOL0     H45463   5.968   7.728   0.728 -1.0186 -0.9854  0.7537
  337MOL0     H45464   5.896   7.577   0.659 -0.1057 -0.5274 -1.4292
  337MOL0     H45465   5.992   7.809   0.495  0.1305  0.7939  3.3466
  337MOL0     H45466   5.929   7.661   0.426  1.0870  0.5964  0.1138
  337MOL0     H45467   6.186   7.654   0.591  2.3331  2.1859 -1.8008
  337MOL0     H45468   6.098   7.517   0.515  1.7171 -0.6009  0.3765
  337MOL0     H45469   6.250   7.560   0.332  1.8154  1.7701 -2.3200
  337MOL0     H45470   6.284   7.715   0.403 -1.2772  1.5837 -0.0394
  337MOL0     H45471   6.021   7.646   0.247 -1.0564  0.3628  1.3240
  337MOL0     H45472   6.076   7.808   0.290 -0.0854 -0.3983  2.6835
  337MOL0     H45473   6.200   7.601   0.092 -1.0449 -0.4741  0.0833
  337MOL0     H45474   6.282   7.747   0.147 -1.4763  0.3582  3.1070
  337MOL0     H45475   6.105   7.885   0.023 -1.3566  1.0625 -3.2228
  337MOL0     H45476   6.036   7.727  -0.027  0.0986  1.1844 -1.5697
  337MOL0     H45477   5.565   7.929   0.643 -0.8432  0.5838 -0.1576
  337MOL0     H45478   5.315   7.931   0.699 -0.5516 -1.6421 -1.1561
  337MOL0     H45479   4.912   8.021   0.468 -0.6130  0.4460 -0.0110
  337MOL0     H45480   4.733   8.148   0.554  0.5846  0.7009 -0.7454
  337MOL0     H45481   4.398   8.248   0.348 -1.8892 -1.1265  0.1238
  337MOL0     H45482   4.635   8.169   0.292 -0.3358  0.0209  1.7103
  337MOL0     H45483   4.816   7.664  -0.041 -0.7628  1.3513  0.8218
  337MOL0     H45484   5.050   7.588  -0.079  2.3199 -0.4629  1.2853
  337MOL0     H45485   5.357   7.748  -0.181 -0.0157 -2.5015  0.8684
  337MOL0     H45486   5.280   7.876  -0.120  0.7954  0.8336  1.3347
  337MOL0     H45487   5.413   7.897   0.080  2.2695 -0.6459  1.1964
  337MOL0     H45488   5.504   7.929  -0.065  0.2149 -0.0289  0.2025
  337MOL0     H45489   5.577   7.689  -0.060 -2.3624  0.9805 -1.2788
  337MOL0     H45490   5.519   7.674   0.101 -1.2398 -1.6948 -2.2535
  337MOL0     H45491   5.709   7.898   0.020 -2.7627  2.8420  1.0041
  337MOL0     H45492   5.754   7.756   0.116 -1.0108 -1.0978  0.5158
  337MOL0     H45493   5.570   8.028   0.388 -0.0304 -0.7978  0.8820
  337MOL0     H45494   5.178   7.901   0.175 -0.0766  0.4658  0.0151
  337MOL0     H45495   4.978   7.989   0.204 -0.0110  2.7696 -2.4283
  338MOL0     O45496   9.177   3.609  10.960  0.3911  0.1939  0.1542
  338MOL0     C45497   9.176   3.701  10.871  0.6978  0.7878 -0.4663
  338MOL0     O45498   9.286   3.735  10.795  0.3146  0.0188 -0.1984
  338MOL0     C45499   9.395   3.657  10.789  0.0015 -0.1696 -0.3250
  338MOL0     C45500   9.508   3.727  10.761  0.0336 -0.0191 -0.6354
  338MOL0     C45501   9.631   3.675  10.790  0.4907  0.3291 -0.4504
  338MOL0     C45502   9.650   3.535  10.811 -0.7634  0.6439  0.3804
  338MOL0     O45503   9.777   3.499  10.827  0.2241 -0.3493  0.2046
  338MOL0     C45504   9.817   3.365  10.852 -0.5694  0.4510  0.2659
  338MOL0     C45505   9.968   3.343  10.847  0.5700 -0.6523  0.2787
  338MOL0     C45506  10.023   3.309  10.707 -0.2695 -0.4564 -0.4464
  338MOL0     C45507  10.005   3.414  10.597 -0.2981  0.2724  0.3824
  338MOL0     C45508  10.115   3.409  10.488  0.0338 -0.5528 -0.7899
  338MOL0     C45509  10.116   3.273  10.416  0.4166  0.0307 -0.1692
  338MOL0     C45510  10.237   3.264  10.321 -0.8370  0.1290 -0.1252
  338MOL0     C45511  10.262   3.124  10.271  0.7216  1.3069 -0.2080
  338MOL0     N45512  10.149   3.074  10.193 -0.0640 -0.0105  0.2565
  338MOL0     C45513  10.130   3.088  10.055  0.5125 -0.4119  0.4201
  338MOL0     C45514  10.010   3.024  10.029 -0.1465  0.9048 -0.5021
  338MOL0     C45515   9.954   3.018   9.899  0.0804 -0.2715  1.1798
  338MOL0     C45516   9.861   3.129   9.872  0.7930 -1.4682  0.3321
  338MOL0     C45517   9.748   3.161   9.979  0.4326 -0.1223 -0.4864
  338MOL0     C45518   9.625   3.246   9.935 -0.3674 -0.0399  0.3997
  338MOL0     O45519   9.539   3.158   9.863 -0.0878 -0.5055 -0.0403
  338MOL0     C45520   9.403   3.166   9.878  0.9717 -0.6251  0.2423
  338MOL0     C45521   9.328   3.062   9.824 -0.1495 -0.3378  0.1796
  338MOL0     C45522   9.187   3.060   9.825 -0.0434  0.0772  0.3852
  338MOL0     C45523   9.113   2.937   9.778  0.0398 -0.5119 -0.4099
  338MOL0     C45524   9.116   3.180   9.852  0.7022 -0.1930  0.5426
  338MOL0     C45525   8.976   3.197   9.867  0.7641  0.1700  1.0179
  338MOL0     O45526   8.929   3.288   9.958 -0.8047 -0.0942 -0.3448
  338MOL0     C45527   8.798   3.321   9.957 -0.1182  0.7692 -0.2948
  338MOL0     C45528   8.761   3.457   9.910  0.2515  0.6390  0.1709
  338MOL0     C45529   8.632   3.496   9.908 -0.9949  0.5777  0.3538
  338MOL0     C45530   8.536   3.416   9.958  0.7340  0.5530 -0.1268
  338MOL0     O45531   8.407   3.475   9.958 -0.2454 -0.4478  0.1070
  338MOL0     C45532   8.346   3.463  10.081 -0.4371 -0.3041 -0.4280
  338MOL0     C45533   8.240   3.572  10.105  0.4110 -0.2665  0.0632
  338MOL0     C45534   8.096   3.528  10.043  0.3933 -1.3144 -0.4095
  338MOL0     C45535   8.067   3.548   9.898 -0.5419  0.0714 -0.5015
  338MOL0     C45536   7.931   3.513   9.859  0.6630 -0.8010  0.3368
  338MOL0     C45537   7.826   3.614   9.914 -0.3041 -0.1423  0.0048
  338MOL0     C45538   7.692   3.587   9.860  0.5405  1.1569  0.0291
  338MOL0     C45539   7.587   3.698   9.871 -0.2982 -0.5629  0.2629
  338MOL0    Cl45540   7.634   3.851   9.793 -0.3133 -0.3953  0.2412
  338MOL0     C45541   8.567   3.288  10.004  0.2957  0.3117 -0.3620
  338MOL0     C45542   8.694   3.241  10.015  0.7078 -0.3288  0.7618
  338MOL0     O45543   8.901   3.127   9.800 -0.2998  0.0550  0.4433
  338MOL0     C45544   9.198   3.278   9.909  0.2423 -0.3941 -0.2286
  338MOL0     C45545   9.333   3.274   9.923 -0.4589 -0.2725  0.0904
  338MOL0     N45546   9.958   2.977  10.151 -0.0044 -0.1988  0.2420
  338MOL0     N45547  10.053   2.992  10.248  0.6027 -0.2847  0.3054
  338MOL0     C45548   9.536   3.457  10.809  0.3852 -0.2480 -0.2540
  338MOL0     C45549   9.406   3.517  10.816  0.0417 -0.2283 -0.7384
  338MOL0     C45550   9.046   3.771  10.855 -0.0941  0.6192 -0.3430
  338MOL0     C45551   9.050   3.893  10.783 -0.5069 -0.3897 -0.7709
  338MOL0     C45552   8.931   3.965  10.772  0.5234  0.7036 -0.1565
  338MOL0     C45553   8.813   3.920  10.826 -0.4938  0.1815  0.0064
  338MOL0     O45554   8.713   4.009  10.806  0.4884  0.2697 -0.1727
  338MOL0     C45555   8.581   3.986  10.860  0.2322 -0.7223 -0.1615
  338MOL0     C45556   8.490   4.082  10.790  0.2269  0.5454 -0.7275
  338MOL0     C45557   8.538   4.232  10.820 -0.3376  0.0023 -0.3762
  338MOL0     C45558   8.435   4.336  10.751 -0.1297 -0.6872  0.0499
  338MOL0     C45559   8.303   4.323  10.817 -0.5314 -0.7878  0.4154
  338MOL0     C45560   8.188   4.333  10.863 -0.4151 -0.5092  0.3185
  338MOL0     C45561   8.808   3.799  10.892  0.2236  1.0311  0.5006
  338MOL0     C45562   8.922   3.717  10.899 -0.3898 -0.0499 -0.6809
  338MOL0     H45563   9.500   3.833  10.743  0.5622 -0.4602 -4.2148
  338MOL0     H45564   9.725   3.728  10.778  0.8546 -0.8232 -3.9159
  338MOL0     H45565   9.777   3.323  10.945 -0.2958 -2.4600 -0.8268
  338MOL0     H45566   9.779   3.296  10.776 -1.2412 -1.3933  2.1637
  338MOL0     H45567  10.012   3.437  10.880  0.2200  0.0927 -1.2915
  338MOL0     H45568  10.004   3.267  10.917  1.1243 -0.1431  0.5521
  338MOL0     H45569  10.130   3.289  10.721 -0.1956 -0.5958 -1.1962
  338MOL0     H45570   9.979   3.216  10.671 -0.0448 -1.6696  2.1417
  338MOL0     H45571   9.902   3.404  10.562 -0.9222  0.5192  2.0456
  338MOL0     H45572  10.009   3.517  10.635 -3.5335  0.5085  0.3331
  338MOL0     H45573  10.104   3.495  10.420 -0.8902  0.9987  1.2012
  338MOL0     H45574  10.211   3.434  10.534 -0.5002  0.6880 -0.2743
  338MOL0     H45575  10.127   3.193  10.489 -2.1100 -1.2714 -1.0958
  338MOL0     H45576  10.019   3.255  10.369  0.9630  0.5544 -1.5528
  338MOL0     H45577  10.240   3.331  10.235  1.8983 -1.2895 -1.2892
  338MOL0     H45578  10.326   3.287  10.381  1.0643 -4.9707 -0.4250
  338MOL0     H45579  10.293   3.046  10.341 -0.3393 -0.4108 -1.5685
  338MOL0     H45580  10.350   3.127  10.206  0.2267 -1.4039 -1.1228
  338MOL0     H45581  10.192   3.138   9.981 -1.8034  0.8271 -0.8221
  338MOL0     H45582  10.026   3.026   9.817 -1.2292  0.7325  0.0688
  338MOL0     H45583   9.904   2.923   9.882 -0.4947  0.4419 -1.7924
  338MOL0     H45584   9.809   3.107   9.779  2.8590 -0.8184 -1.0662
  338MOL0     H45585   9.915   3.224   9.856 -1.6164  0.1573  1.3415
  338MOL0     H45586   9.804   3.225  10.047  0.7391 -0.3403 -0.5353
  338MOL0     H45587   9.716   3.065  10.020  2.7831 -0.9552 -0.4458
  338MOL0     H45588   9.666   3.319   9.865 -4.3564  0.6435 -1.4946
  338MOL0     H45589   9.575   3.299  10.016 -1.3870 -1.4195  0.7188
  338MOL0     H45590   9.391   2.987   9.777  3.1883  0.5260  2.8451
  338MOL0     H45591   9.047   2.965   9.695 -2.2059  1.1097  1.8037
  338MOL0     H45592   9.183   2.857   9.750  0.6192  0.1903 -1.0137
  338MOL0     H45593   9.057   2.890   9.859  1.3894  0.4938  1.1510
  338MOL0     H45594   8.836   3.532   9.889 -0.5900  1.0698 -1.4385
  338MOL0     H45595   8.591   3.594   9.881 -0.8478  0.7598  0.7872
  338MOL0     H45596   8.301   3.364  10.094  0.0942 -0.3146  1.6766
  338MOL0     H45597   8.425   3.475  10.156  1.4730 -0.4387 -2.3376
  338MOL0     H45598   8.228   3.605  10.209 -0.3411  0.7408 -0.3221
  338MOL0     H45599   8.267   3.668  10.059  1.2460 -0.1427  0.7838
  338MOL0     H45600   8.031   3.595  10.100  0.6646  0.6659 -2.2813
  338MOL0     H45601   8.059   3.427  10.065 -4.8173  0.3776  0.1535
  338MOL0     H45602   8.098   3.648   9.867 -1.5575  0.0035 -1.8713
  338MOL0     H45603   8.138   3.481   9.849 -1.1149 -0.3804 -0.7309
  338MOL0     H45604   7.903   3.413   9.892 -2.4248 -0.1413  0.1163
  338MOL0     H45605   7.915   3.517   9.751  0.5505 -1.4025  0.3277
  338MOL0     H45606   7.821   3.601  10.022 -0.8308 -2.8421 -0.2935
  338MOL0     H45607   7.857   3.718   9.900 -0.6080 -0.1700 -0.9427
  338MOL0     H45608   7.645   3.501   9.910  0.6542  0.4145 -1.1061
  338MOL0     H45609   7.692   3.554   9.756 -0.2223 -0.8883  0.6317
  338MOL0     H45610   7.568   3.717   9.977  0.5753  0.9369  0.1753
  338MOL0     H45611   7.495   3.657   9.828  0.4368 -1.4554 -0.5041
  338MOL0     H45612   8.488   3.223  10.040 -0.7832  1.0453 -1.2908
  338MOL0     H45613   8.707   3.138  10.048  3.6098 -0.6302 -0.9915
  338MOL0     H45614   9.158   3.370   9.951  3.2262  1.4678 -1.2074
  338MOL0     H45615   9.380   3.366   9.958  1.0012 -1.0343  0.2058
  338MOL0     H45616   9.546   3.349  10.816 -0.1293 -0.3057 -0.3921
  338MOL0     H45617   9.321   3.454  10.840  1.0508 -1.0495  0.7989
  338MOL0     H45618   9.146   3.929  10.748 -1.1747  0.3153 -1.9621
  338MOL0     H45619   8.921   4.059  10.718  1.1448  1.4322  0.9637
  338MOL0     H45620   8.563   3.880  10.840  1.7072 -0.8667 -0.8359
  338MOL0     H45621   8.589   4.006  10.967 -0.0830 -4.1971  0.6306
  338MOL0     H45622   8.385   4.063  10.816  0.2686  1.6914  0.3952
  338MOL0     H45623   8.509   4.056  10.686  0.8755  0.9049 -0.7009
  338MOL0     H45624   8.637   4.244  10.777 -0.4258  1.0940 -0.2914
  338MOL0     H45625   8.540   4.250  10.928 -1.3524  0.0835 -0.3541
  338MOL0     H45626   8.428   4.321  10.643 -3.1410  2.2846 -0.3265
  338MOL0     H45627   8.471   4.439  10.759 -0.4054 -0.3828 -2.0587
  338MOL0     H45628   8.087   4.349  10.895  0.0310  0.1116  1.4757
  338MOL0     H45629   8.707   3.767  10.918  0.5589  0.6156  1.3452
  338MOL0     H45630   8.925   3.626  10.957  0.9034  2.4200  3.6270
  339MOL0     O45631   7.174   8.862   7.997 -0.0552  0.0904 -0.2704
  339MOL0     C45632   7.237   8.798   7.919 -0.8744 -0.0947 -0.3669
  339MOL0     O45633   7.194   8.696   7.845  0.0858 -0.0361  0.1577
  339MOL0     C45634   7.063   8.653   7.848 -0.5890  0.3593 -0.5624
  339MOL0     C45635   6.995   8.635   7.724 -0.2166 -0.9586 -0.3138
  339MOL0     C45636   6.870   8.592   7.718 -0.0704  0.2669 -0.4790
  339MOL0     C45637   6.804   8.549   7.833 -0.4390 -0.7059 -0.2104
  339MOL0     O45638   6.673   8.522   7.804  0.1257  0.5868 -0.1496
  339MOL0     C45639   6.573   8.523   7.909 -0.1594  0.2853 -0.2166
  339MOL0     C45640   6.440   8.559   7.850 -0.2537  0.5189 -0.4634
  339MOL0     C45641   6.328   8.535   7.955  0.1236 -0.3705 -0.1531
  339MOL0     C45642   6.189   8.587   7.903  0.3907 -0.8372  0.4311
  339MOL0     C45643   6.094   8.621   8.022  0.0491  0.3023  0.3112
  339MOL0     C45644   6.004   8.742   7.990 -0.0848  0.8682  0.3343
  339MOL0     C45645   5.903   8.697   7.875 -0.2806 -0.8835 -0.0175
  339MOL0     C45646   5.763   8.754   7.902  0.0366 -0.5469 -0.4442
  339MOL0     N45647   5.661   8.682   7.821  0.1595 -0.1332  0.2425
  339MOL0     C45648   5.539   8.667   7.869  1.2897 -0.5866  0.4938
  339MOL0     C45649   5.483   8.589   7.767  0.1658  0.6829 -0.0118
  339MOL0     C45650   5.340   8.552   7.757  0.6022  1.5128  0.1641
  339MOL0     C45651   5.255   8.645   7.686  0.0755 -0.2770 -0.6761
  339MOL0     C45652   5.112   8.585   7.657 -0.0066  0.7624 -0.0009
  339MOL0     C45653   5.037   8.670   7.567  1.0076 -0.0236  0.5049
  339MOL0     O45654   4.978   8.781   7.642  0.5519 -1.3251  0.1883
  339MOL0     C45655   4.841   8.798   7.650  0.3805  0.1129 -0.1896
  339MOL0     C45656   4.753   8.697   7.658 -0.4792 -0.5122  0.1277
  339MOL0     C45657   4.610   8.711   7.641 -0.3637 -0.7243 -0.4030
  339MOL0     C45658   4.536   8.585   7.646  0.2258 -0.2931 -0.4177
  339MOL0     C45659   4.566   8.840   7.625 -0.0622 -1.1200  0.3783
  339MOL0     C45660   4.421   8.881   7.621  0.3621 -0.0610  0.1971
  339MOL0     O45661   4.394   8.999   7.557  0.2959 -0.1168  0.4527
  339MOL0     C45662   4.275   9.077   7.567  0.4020  0.4220  0.2794
  339MOL0     C45663   4.229   9.141   7.452 -0.2076 -0.2720  0.2118
  339MOL0     C45664   4.108   9.204   7.439 -0.4166  0.1320  0.1959
  339MOL0     C45665   4.022   9.202   7.543  0.6190 -0.0632 -1.0154
  339MOL0     O45666   3.894   9.254   7.557 -0.0278 -0.0948 -0.2824
  339MOL0     C45667   3.830   9.321   7.448 -0.4684 -0.3015 -0.2503
  339MOL0     C45668   3.784   9.237   7.333 -0.2477  0.3056  1.2271
  339MOL0     C45669   3.724   9.316   7.216 -0.2624 -0.1294 -0.5424
  339MOL0     C45670   3.837   9.337   7.118  0.1052  0.1802  0.7013
  339MOL0     C45671   3.790   9.445   7.020  0.4905  0.5322 -1.2731
  339MOL0     C45672   3.901   9.506   6.928  0.8511  1.0096 -0.2391
  339MOL0     C45673   3.899   9.423   6.798  0.0299 -0.3606  0.1823
  339MOL0     C45674   4.003   9.468   6.702 -0.6085  0.3583  0.5516
  339MOL0    Cl45675   4.170   9.450   6.777 -0.1512  0.3560  0.1630
  339MOL0     C45676   4.058   9.128   7.662 -0.5472  0.1301 -0.3670
  339MOL0     C45677   4.180   9.066   7.673  1.0932  0.2755 -0.0535
  339MOL0     O45678   4.348   8.814   7.695  0.4938  0.0306  0.5546
  339MOL0     C45679   4.656   8.949   7.617  0.2257 -0.0402  0.5131
  339MOL0     C45680   4.790   8.922   7.632  0.0596  0.2437 -0.9005
  339MOL0     N45681   5.582   8.560   7.668  0.0235  0.0969 -0.0876
  339MOL0     N45682   5.689   8.614   7.706  0.1987  0.6591  0.3557
  339MOL0     C45683   6.868   8.553   7.956  0.3642  0.2068 -0.2306
  339MOL0     C45684   6.998   8.605   7.959 -1.4825 -0.2431 -0.4419
  339MOL0     C45685   7.379   8.834   7.899  0.8629  1.1518 -0.1838
  339MOL0     C45686   7.444   8.925   7.973 -0.1582  0.4224  0.4191
  339MOL0     C45687   7.573   8.943   7.953 -1.5047 -0.3153 -0.0495
  339MOL0     C45688   7.661   8.860   7.868  1.1380  0.1816 -0.6196
  339MOL0     O45689   7.793   8.900   7.872  0.8075 -0.2691  0.6337
  339MOL0     C45690   7.875   8.847   7.774  0.5826 -0.2863  0.4231
  339MOL0     C45691   8.013   8.893   7.811  0.0945  1.1013  0.1267
  339MOL0     C45692   8.055   8.837   7.944 -0.4258 -0.9531  0.1205
  339MOL0     C45693   8.055   8.679   7.951 -0.1307 -0.3103  0.5454
  339MOL0     C45694   8.128   8.636   8.071 -0.5092  0.0539  1.2558
  339MOL0     C45695   8.172   8.599   8.175 -0.5177  0.0215 -0.2456
  339MOL0     C45696   7.597   8.770   7.785  0.7620  0.7763 -0.4044
  339MOL0     C45697   7.454   8.756   7.805 -0.8710  0.4341  0.0210
  339MOL0     H45698   7.050   8.671   7.637  2.5328 -0.5757  1.4379
  339MOL0     H45699   6.820   8.594   7.622  0.4921 -2.1451 -0.8886
  339MOL0     H45700   6.565   8.419   7.942  2.6044  0.0079 -0.2104
  339MOL0     H45701   6.604   8.594   7.986  3.7144  0.6801 -1.9114
  339MOL0     H45702   6.439   8.664   7.818  1.8678  1.0993  1.1773
  339MOL0     H45703   6.405   8.498   7.766 -4.7796 -0.3174  1.7314
  339MOL0     H45704   6.319   8.427   7.972  0.6931 -0.7187 -1.8635
  339MOL0     H45705   6.350   8.588   8.047 -1.3700  0.5495 -0.2998
  339MOL0     H45706   6.203   8.676   7.841 -2.5327 -0.6163 -0.0896
  339MOL0     H45707   6.143   8.511   7.838  1.4748 -0.8189 -0.3711
  339MOL0     H45708   6.035   8.531   8.042 -0.3528  0.4339 -0.2422
  339MOL0     H45709   6.159   8.648   8.105  0.4370 -2.9467  1.2123
  339MOL0     H45710   5.961   8.788   8.079 -2.4557 -1.6583  0.6339
  339MOL0     H45711   6.071   8.819   7.951 -1.0543  1.3746 -0.3521
  339MOL0     H45712   5.949   8.730   7.782  3.2139 -0.8796  1.5358
  339MOL0     H45713   5.889   8.589   7.865 -1.0571 -0.7529 -0.3814
  339MOL0     H45714   5.756   8.862   7.885  3.2295 -0.0398  0.7907
  339MOL0     H45715   5.743   8.730   8.007  0.7966  1.2626  0.1705
  339MOL0     H45716   5.489   8.708   7.956 -1.4617  0.0067 -1.2238
  339MOL0     H45717   5.330   8.454   7.709  0.1131 -0.7856  4.4523
  339MOL0     H45718   5.291   8.541   7.854 -1.7311  0.9795 -1.0047
  339MOL0     H45719   5.294   8.692   7.595  0.4104  1.2489  0.2202
  339MOL0     H45720   5.238   8.726   7.758  2.1904  0.1342 -0.5706
  339MOL0     H45721   5.055   8.573   7.750  0.7163 -0.3462  0.3292
  339MOL0     H45722   5.125   8.483   7.619  0.1645 -0.1331  2.3089
  339MOL0     H45723   4.960   8.611   7.518  0.5006  0.1080  1.1320
  339MOL0     H45724   5.102   8.713   7.490 -0.4731 -1.8478 -1.8796
  339MOL0     H45725   4.796   8.598   7.667  2.2509  0.5374 -0.4426
  339MOL0     H45726   4.457   8.597   7.720 -1.5461  0.2786 -2.3153
  339MOL0     H45727   4.488   8.572   7.549  0.3521 -1.7234 -0.2977
  339MOL0     H45728   4.599   8.498   7.669 -1.3921 -0.9546  1.9053
  339MOL0     H45729   4.293   9.149   7.365 -0.2865 -0.0254  0.1783
  339MOL0     H45730   4.079   9.254   7.347 -1.1230 -2.0475 -0.8174
  339MOL0     H45731   3.737   9.363   7.488 -1.1903 -1.8875 -0.1682
  339MOL0     H45732   3.894   9.402   7.414  0.3824 -1.3165 -1.1027
  339MOL0     H45733   3.866   9.173   7.299 -1.1477  0.0012 -0.5017
  339MOL0     H45734   3.715   9.164   7.376  1.3085 -1.6618  0.5332
  339MOL0     H45735   3.690   9.415   7.250 -1.5970  0.1357 -2.4928
  339MOL0     H45736   3.635   9.271   7.171 -0.5138  0.3158 -0.4958
  339MOL0     H45737   3.924   9.370   7.176 -1.3172  1.8527  2.0436
  339MOL0     H45738   3.854   9.241   7.069 -0.9718 -0.8371  2.2053
  339MOL0     H45739   3.744   9.524   7.081 -0.7357 -1.8028  1.0151
  339MOL0     H45740   3.709   9.416   6.953  0.3797 -1.3153 -0.4109
  339MOL0     H45741   3.894   9.611   6.898  1.8754  1.5947  1.4295
  339MOL0     H45742   3.997   9.494   6.978  1.2858 -1.4059 -1.4862
  339MOL0     H45743   3.799   9.426   6.753  0.2190 -3.3142 -0.6279
  339MOL0     H45744   3.923   9.319   6.819  2.3152  0.1282  0.1604
  339MOL0     H45745   3.987   9.570   6.665 -2.4816 -0.8356 -2.4042
  339MOL0     H45746   3.991   9.408   6.611 -1.9800 -0.4319  1.2216
  339MOL0     H45747   3.991   9.105   7.744  1.8598 -0.2444  1.6240
  339MOL0     H45748   4.205   9.006   7.760 -0.2145 -0.8791 -0.4364
  339MOL0     H45749   4.617   9.050   7.607 -2.8818 -1.2035 -0.1958
  339MOL0     H45750   4.866   8.999   7.638 -1.1059  1.3387  0.5531
  339MOL0     H45751   6.823   8.523   8.051  1.0839  0.0364  0.0593
  339MOL0     H45752   7.048   8.619   8.055 -0.2281 -1.1193 -0.9491
  339MOL0     H45753   7.391   8.977   8.051 -0.4474  1.6425 -0.5588
  339MOL0     H45754   7.637   9.004   8.017 -1.4771 -0.9157  0.5044
  339MOL0     H45755   7.873   8.738   7.767  0.6771 -0.2322 -0.7179
  339MOL0     H45756   7.846   8.865   7.670  1.6611 -0.0334  0.1492
  339MOL0     H45757   8.016   9.002   7.813  1.0079  1.0877  0.0007
  339MOL0     H45758   8.081   8.851   7.736  1.1807 -1.9472  2.5997
  339MOL0     H45759   8.001   8.880   8.029  1.0941  0.2324  0.5446
  339MOL0     H45760   8.161   8.864   7.946 -1.0500  1.7741 -0.4134
  339MOL0     H45761   8.110   8.636   7.867  1.0736  0.8903  0.6903
  339MOL0     H45762   7.956   8.633   7.949 -0.4453  0.3164  1.2015
  339MOL0     H45763   8.214   8.580   8.272 -0.7840 -1.0712 -0.3416
  339MOL0     H45764   7.659   8.726   7.708  1.1237  2.0529 -0.8732
  339MOL0     H45765   7.411   8.689   7.731  1.3488  0.2732 -1.2001
  340MOL0     O45766   7.159   0.338   2.017  0.0058  0.2105  0.0711
  340MOL0     C45767   7.212   0.228   2.019 -0.6032 -0.3255 -0.1339
  340MOL0     O45768   7.160   0.105   1.983  0.2321  0.3697  0.1240
  340MOL0     C45769   7.029   0.090   1.970 -0.2045 -0.4079 -0.0458
  340MOL0     C45770   6.919   0.161   2.037  1.0848 -0.4979 -0.1054
  340MOL0     C45771   6.793   0.126   2.017  0.4660 -0.0526 -0.6440
  340MOL0     C45772   6.754   0.023   1.925 -0.5747  0.2887 -0.5180
  340MOL0     O45773   6.624  -0.012   1.915  0.2092  0.8566  0.1606
  340MOL0     C45774   6.525   0.092   1.936  0.1282 -0.4350  0.1359
  340MOL0     C45775   6.384   0.033   1.927 -0.3209  0.2989 -0.2969
  340MOL0     C45776   6.281   0.124   2.008  0.1850  0.2747 -0.7631
  340MOL0     C45777   6.140   0.062   1.996  1.3487  0.6378 -0.7050
  340MOL0     C45778   6.025   0.144   2.061 -0.5320 -0.6384 -0.2389
  340MOL0     C45779   5.886   0.079   2.040 -0.1748 -0.0305  0.7120
  340MOL0     C45780   5.779   0.148   2.130 -0.1135 -0.4597 -0.5786
  340MOL0     C45781   5.641   0.101   2.091  0.4007  0.9342 -0.1007
  340MOL0     N45782   5.526   0.169   2.145 -0.1801 -0.8618 -0.5111
  340MOL0     C45783   5.514   0.309   2.141 -0.4663  0.3345  0.1803
  340MOL0     C45784   5.414   0.334   2.229 -0.5841 -0.4886  0.9623
  340MOL0     C45785   5.368   0.472   2.260  0.6651 -0.0466  0.2409
  340MOL0     C45786   5.338   0.550   2.125 -0.5384 -0.4954  0.3164
  340MOL0     C45787   5.222   0.492   2.043  0.2314 -0.3925  0.2233
  340MOL0     C45788   5.094   0.487   2.120  0.1586  0.3279  0.6752
  340MOL0     O45789   5.060   0.610   2.181  0.1054 -0.6679 -0.7350
  340MOL0     C45790   4.946   0.609   2.255 -0.0462  0.4428 -0.9023
  340MOL0     C45791   4.928   0.696   2.358  0.3183 -0.0034 -1.0802
  340MOL0     C45792   4.814   0.715   2.435  0.1748  1.6480 -0.5328
  340MOL0     C45793   4.803   0.806   2.562 -0.1267  0.9266 -0.2899
  340MOL0     C45794   4.697   0.643   2.397 -0.1731  0.0974  0.4527
  340MOL0     C45795   4.556   0.671   2.454 -0.0307 -0.1888 -0.0716
  340MOL0     O45796   4.445   0.642   2.374 -0.3040 -0.7536 -0.5614
  340MOL0     C45797   4.315   0.669   2.393  0.5427  0.3061  0.8192
  340MOL0     C45798   4.262   0.722   2.507 -0.1575 -0.3362  0.8053
  340MOL0     C45799   4.124   0.736   2.522 -0.0462 -0.2336  0.1958
  340MOL0     C45800   4.035   0.689   2.426  0.1602 -0.6933  0.4647
  340MOL0     O45801   3.902   0.703   2.429  0.4753 -0.0444 -0.1242
  340MOL0     C45802   3.855   0.625   2.537 -0.0762 -1.4139 -0.2043
  340MOL0     C45803   3.718   0.571   2.509 -0.0487  0.0028  0.3270
  340MOL0     C45804   3.720   0.477   2.389 -0.5558  0.2065 -0.4030
  340MOL0     C45805   3.581   0.420   2.355 -0.2382  0.8802 -0.1771
  340MOL0     C45806   3.594   0.351   2.218 -0.1727  0.5572  0.3447
  340MOL0     C45807   3.460   0.343   2.150  0.8132 -0.1119  0.3509
  340MOL0     C45808   3.478   0.287   2.006  0.0078 -0.5793 -0.1528
  340MOL0     C45809   3.353   0.312   1.916 -0.2971 -0.0967  0.5666
  340MOL0    Cl45810   3.325   0.197   1.788  0.2482  0.1836 -0.2559
  340MOL0     C45811   4.090   0.621   2.314  1.1097 -0.4545 -0.6787
  340MOL0     C45812   4.228   0.607   2.306 -0.1002  0.1639 -0.3098
  340MOL0     O45813   4.548   0.688   2.575 -0.7307 -0.1354  0.0872
  340MOL0     C45814   4.708   0.558   2.284 -1.0215  0.2822 -0.9788
  340MOL0     C45815   4.829   0.534   2.222 -0.4434  0.4713 -0.7489
  340MOL0     N45816   5.377   0.218   2.294 -0.4842 -0.0205  0.1890
  340MOL0     N45817   5.450   0.122   2.243  0.0927  0.0561  0.0908
  340MOL0     C45818   6.860  -0.054   1.878  0.2767 -0.3089  0.6643
  340MOL0     C45819   6.994  -0.023   1.893  0.2542 -0.1103  0.5792
  340MOL0     C45820   7.353   0.230   2.051 -0.2968 -0.7703  0.1955
  340MOL0     C45821   7.437   0.132   2.012  0.1821 -0.1265  0.0455
  340MOL0     C45822   7.562   0.120   2.061 -0.1258 -0.5552  0.2876
  340MOL0     C45823   7.625   0.217   2.146  0.2170  0.6269  0.4109
  340MOL0     O45824   7.745   0.207   2.201  0.5520 -0.5147  0.0514
  340MOL0     C45825   7.795   0.075   2.232  0.0070 -0.5417  0.5455
  340MOL0     C45826   7.893   0.016   2.133  0.8521  0.0654  0.1373
  340MOL0     C45827   7.996   0.122   2.085  1.1721  0.4565  0.6067
  340MOL0     C45828   8.074   0.186   2.196  0.2145  0.0831  0.0025
  340MOL0     C45829   8.134   0.091   2.288  0.0280  0.3715 -0.4255
  340MOL0     C45830   8.163  -0.006   2.355 -0.4902 -0.6184  0.0186
  340MOL0     C45831   7.539   0.328   2.178 -0.7203  0.4258  0.0210
  340MOL0     C45832   7.404   0.329   2.138  0.0964 -0.1926 -0.1772
  340MOL0     H45833   6.941   0.234   2.114 -0.9038  0.5496 -0.4839
  340MOL0     H45834   6.719   0.187   2.068  2.2202 -0.2281  2.3112
  340MOL0     H45835   6.529   0.120   2.042  0.3788 -0.9243  0.2579
  340MOL0     H45836   6.542   0.188   1.885  1.1728 -0.7445 -0.1216
  340MOL0     H45837   6.355   0.040   1.822  1.6766  2.2562 -0.7920
  340MOL0     H45838   6.397  -0.067   1.970 -1.8003 -0.1984 -0.9344
  340MOL0     H45839   6.317   0.131   2.111  1.9999 -0.0918 -1.3364
  340MOL0     H45840   6.273   0.230   1.979  0.9659  0.9497  1.3213
  340MOL0     H45841   6.103   0.048   1.894 -2.7914 -2.1019  0.9020
  340MOL0     H45842   6.158  -0.035   2.043  0.8189 -0.0158 -1.8120
  340MOL0     H45843   6.040   0.148   2.169 -1.1700  0.9848 -0.1972
  340MOL0     H45844   6.036   0.246   2.024  0.3476 -0.8891 -0.7074
  340MOL0     H45845   5.854   0.072   1.936 -0.2889  1.5254  0.6148
  340MOL0     H45846   5.909  -0.023   2.071  2.2449 -0.0078 -0.7795
  340MOL0     H45847   5.800   0.122   2.234 -2.0214 -0.0378 -0.0508
  340MOL0     H45848   5.780   0.256   2.111 -1.1752 -0.6975 -2.2001
  340MOL0     H45849   5.622  -0.005   2.111  0.8915  0.4124 -2.1211
  340MOL0     H45850   5.629   0.117   1.983  0.1948 -1.4315 -0.4925
  340MOL0     H45851   5.568   0.370   2.069 -3.3467  1.9779 -0.7357
  340MOL0     H45852   5.278   0.473   2.323  1.4539 -1.7759  1.4739
  340MOL0     H45853   5.448   0.504   2.328 -2.1417  4.2420  1.9431
  340MOL0     H45854   5.433   0.553   2.072  0.2505 -2.4987  1.5099
  340MOL0     H45855   5.317   0.653   2.156  0.0386 -0.5718  0.9698
  340MOL0     H45856   5.250   0.392   2.009  1.8433 -0.5443  1.8339
  340MOL0     H45857   5.215   0.560   1.958  2.7805  1.0363  1.0752
  340MOL0     H45858   5.104   0.406   2.193  2.1819  1.7313  2.0747
  340MOL0     H45859   5.019   0.467   2.043  2.0723  0.2093 -1.2278
  340MOL0     H45860   5.012   0.760   2.386 -0.4139  0.8775 -0.8560
  340MOL0     H45861   4.746   0.897   2.544  0.6765  1.2170 -1.4657
  340MOL0     H45862   4.775   0.752   2.654 -0.6504  2.3798  0.4360
  340MOL0     H45863   4.905   0.842   2.578  0.7254 -2.2042  2.6666
  340MOL0     H45864   4.331   0.752   2.585  0.3837 -0.3576  0.3481
  340MOL0     H45865   4.090   0.796   2.605 -1.5832 -0.4750 -0.2382
  340MOL0     H45866   3.914   0.537   2.562  0.8177 -0.4860  1.0732
  340MOL0     H45867   3.847   0.696   2.619 -0.8606  2.8401 -3.5732
  340MOL0     H45868   3.680   0.514   2.594 -1.8746  0.2470 -0.2877
  340MOL0     H45869   3.641   0.646   2.489  1.0695  0.1832 -4.4342
  340MOL0     H45870   3.793   0.399   2.414 -1.1048 -0.0005  0.6378
  340MOL0     H45871   3.757   0.533   2.304 -0.1038  0.8504  0.2093
  340MOL0     H45872   3.549   0.346   2.429  2.4125  2.3737  2.6967
  340MOL0     H45873   3.499   0.491   2.347 -2.6524 -1.6985  0.0790
  340MOL0     H45874   3.643   0.254   2.234 -0.4928  0.7311  2.7283
  340MOL0     H45875   3.659   0.413   2.155 -1.0389  1.8890  0.7249
  340MOL0     H45876   3.379   0.287   2.197 -1.3049 -0.0148 -2.8314
  340MOL0     H45877   3.424   0.446   2.138  1.9808  0.4270  1.2345
  340MOL0     H45878   3.500   0.181   2.023  1.6123 -0.1262  0.7653
  340MOL0     H45879   3.565   0.336   1.962 -0.1131  0.0274  0.2730
  340MOL0     H45880   3.363   0.406   1.860 -0.2193  0.1522  0.9951
  340MOL0     H45881   3.263   0.325   1.977 -1.1245 -1.7465 -0.2201
  340MOL0     H45882   4.021   0.579   2.241 -2.0321 -0.6163  2.1638
  340MOL0     H45883   4.266   0.549   2.223  0.5083  0.7055 -0.4197
  340MOL0     H45884   4.617   0.517   2.240 -1.6743 -0.9282  1.3309
  340MOL0     H45885   4.823   0.464   2.139  1.0230  0.2009 -0.6378
  340MOL0     H45886   6.841  -0.145   1.822 -0.0592  0.0838  0.1326
  340MOL0     H45887   7.066  -0.085   1.842 -1.8122 -3.2312  1.1498
  340MOL0     H45888   7.396   0.044   1.963  0.0309  0.0897 -0.2158
  340MOL0     H45889   7.618   0.030   2.036  0.5564 -0.0651  0.0216
  340MOL0     H45890   7.846   0.075   2.329  0.2706 -3.1611  0.4988
  340MOL0     H45891   7.716   0.000   2.241 -0.3929 -0.4097 -1.3425
  340MOL0     H45892   7.834  -0.021   2.048 -1.6111  0.1441  1.7088
  340MOL0     H45893   7.952  -0.063   2.180  0.4966  1.0474  2.3782
  340MOL0     H45894   7.943   0.200   2.029 -2.2807 -2.2786 -0.2388
  340MOL0     H45895   8.063   0.081   2.009  1.3524  1.2411  0.3242
  340MOL0     H45896   8.002   0.236   2.260  1.0537 -0.3747  1.3453
  340MOL0     H45897   8.150   0.247   2.145  2.3049 -0.3025  2.4399
  340MOL0     H45898   8.187  -0.095   2.410  2.0177 -0.8919 -1.3789
  340MOL0     H45899   7.577   0.417   2.228  0.2670  0.3696 -0.5877
  340MOL0     H45900   7.338   0.410   2.168  1.0420  0.2600  0.7755
  341MOL0     O45901   7.140   7.316   3.399  0.0945 -0.7311  0.2945
  341MOL0     C45902   7.224   7.405   3.367 -0.1310 -0.0579  0.0888
  341MOL0     O45903   7.241   7.524   3.433  0.3883  0.0841 -0.3600
  341MOL0     C45904   7.146   7.581   3.513  0.1593  0.7299 -0.2947
  341MOL0     C45905   7.009   7.594   3.482 -0.1872  0.2361  0.0533
  341MOL0     C45906   6.922   7.662   3.574  0.2496 -0.0597 -0.4560
  341MOL0     C45907   6.973   7.720   3.697  0.5106 -0.1447  0.3002
  341MOL0     O45908   6.903   7.796   3.783  0.5224  0.5890  0.1179
  341MOL0     C45909   6.752   7.793   3.776 -0.9229 -0.6668 -0.9405
  341MOL0     C45910   6.697   7.663   3.831  0.2431  0.6512 -0.0368
  341MOL0     C45911   6.541   7.667   3.845 -0.1045 -0.2295  0.3970
  341MOL0     C45912   6.485   7.529   3.880 -0.4445 -0.7696 -0.4117
  341MOL0     C45913   6.332   7.536   3.894 -0.0912  0.2034  0.1821
  341MOL0     C45914   6.282   7.620   4.020  0.8886 -0.6939 -0.2349
  341MOL0     C45915   6.131   7.658   4.015  0.3884  0.7035 -0.6093
  341MOL0     C45916   6.026   7.534   4.025 -0.1434 -0.3622  0.2699
  341MOL0     N45917   6.037   7.483   4.164  0.0156  0.1048 -0.0684
  341MOL0     C45918   6.117   7.383   4.204  0.8947  0.0514  0.4265
  341MOL0     C45919   6.092   7.368   4.338 -0.9552  0.3388 -0.8572
  341MOL0     C45920   6.160   7.264   4.436 -0.1578 -0.0013  0.3108
  341MOL0     C45921   6.103   7.127   4.420 -0.8063 -0.4811  0.0699
  341MOL0     C45922   6.146   7.037   4.539 -0.9119 -0.4676 -0.1443
  341MOL0     C45923   6.096   6.898   4.522 -0.2816  0.5046 -0.1269
  341MOL0     O45924   5.961   6.914   4.490 -0.0233  0.0661 -0.0114
  341MOL0     C45925   5.911   6.888   4.361 -0.4813 -0.1930 -0.0331
  341MOL0     C45926   5.969   6.801   4.269 -0.3561 -0.5603  0.1600
  341MOL0     C45927   5.922   6.785   4.138 -0.5728 -0.5815 -0.0224
  341MOL0     C45928   6.001   6.684   4.051  0.1658 -0.1519 -0.0203
  341MOL0     C45929   5.816   6.864   4.086 -0.3739  0.1526 -0.2796
  341MOL0     C45930   5.746   6.851   3.954  0.6615  0.3526 -0.1889
  341MOL0     O45931   5.616   6.894   3.948  0.0540  0.0898 -0.7153
  341MOL0     C45932   5.546   6.898   3.829 -0.2404 -0.4287 -0.4461
  341MOL0     C45933   5.519   6.790   3.751  0.2785  0.4261 -0.0252
  341MOL0     C45934   5.473   6.806   3.615 -0.4072 -0.3352  0.5007
  341MOL0     C45935   5.442   6.936   3.562  0.7327  1.4629  0.1541
  341MOL0     O45936   5.388   6.968   3.439  0.7430 -0.0812 -0.4192
  341MOL0     C45937   5.393   6.868   3.330  0.7908 -0.5277  0.3001
  341MOL0     C45938   5.294   6.923   3.213  0.3196 -0.9199  0.4962
  341MOL0     C45939   5.294   6.859   3.073  0.4575 -0.1560  0.3556
  341MOL0     C45940   5.418   6.886   2.988 -0.8039  0.8295 -0.9307
  341MOL0     C45941   5.393   6.822   2.857 -0.8588 -0.9360 -1.0144
  341MOL0     C45942   5.516   6.808   2.775  0.1478  0.1812  0.6407
  341MOL0     C45943   5.511   6.719   2.653 -1.0956  0.5759 -0.4454
  341MOL0     C45944   5.654   6.694   2.601 -1.3126 -0.9887  0.9603
  341MOL0    Cl45945   5.734   6.844   2.528 -0.2270 -0.1127 -0.1568
  341MOL0     C45946   5.460   7.044   3.652 -0.2815 -0.0737  1.0547
  341MOL0     C45947   5.513   7.024   3.781 -0.2742 -0.4089 -0.5393
  341MOL0     O45948   5.810   6.815   3.853  0.2572 -0.3954  0.0343
  341MOL0     C45949   5.752   6.955   4.178 -0.5126  0.4266  0.2167
  341MOL0     C45950   5.804   6.972   4.306  0.1506  0.3387 -0.0150
  341MOL0     N45951   5.990   7.458   4.375 -0.5420 -0.4713  0.0734
  341MOL0     N45952   5.962   7.532   4.273  0.3583  0.1525  0.3611
  341MOL0     C45953   7.108   7.719   3.710  0.1425 -0.3716  0.6346
  341MOL0     C45954   7.193   7.648   3.625 -0.1353  0.2613 -0.4483
  341MOL0     C45955   7.331   7.364   3.267  0.2348 -0.2507  0.1425
  341MOL0     C45956   7.454   7.427   3.259  0.5122 -0.1524  0.2880
  341MOL0     C45957   7.543   7.409   3.157 -0.1299  0.2276  0.5116
  341MOL0     C45958   7.516   7.316   3.057 -0.3217  0.0882  0.6388
  341MOL0     O45959   7.607   7.290   2.962  0.4834  0.4443  0.1148
  341MOL0     C45960   7.573   7.352   2.829 -0.0001 -0.0272  0.2260
  341MOL0     C45961   7.614   7.251   2.715  0.0738  0.1235 -0.6599
  341MOL0     C45962   7.767   7.225   2.715 -0.2813 -0.3798 -0.1987
  341MOL0     C45963   7.805   7.116   2.624 -0.9266  0.8244  0.1909
  341MOL0     C45964   7.822   7.153   2.485 -1.2411  0.1482 -0.7817
  341MOL0     C45965   7.821   7.198   2.371  0.5832  0.0639 -0.3606
  341MOL0     C45966   7.397   7.242   3.065 -0.9177 -0.4029 -0.6154
  341MOL0     C45967   7.309   7.264   3.172 -0.1015 -0.9960 -0.7495
  341MOL0     H45968   6.975   7.566   3.382  0.9123  0.7669 -0.4822
  341MOL0     H45969   6.825   7.697   3.541  0.7088  0.1376 -1.6459
  341MOL0     H45970   6.713   7.873   3.840  3.1106  3.1623 -2.7437
  341MOL0     H45971   6.723   7.820   3.674 -0.7151 -0.0150 -0.8310
  341MOL0     H45972   6.725   7.592   3.753  2.3764  1.5379 -0.1305
  341MOL0     H45973   6.754   7.641   3.922  1.3040  0.8008 -0.6565
  341MOL0     H45974   6.501   7.734   3.922 -1.7340 -0.5650 -0.1336
  341MOL0     H45975   6.503   7.700   3.748 -2.0140  1.4127  1.6297
  341MOL0     H45976   6.523   7.456   3.808 -1.0051 -0.4261 -1.0660
  341MOL0     H45977   6.522   7.503   3.980 -1.1673 -0.7192 -0.1195
  341MOL0     H45978   6.294   7.591   3.807 -1.6813 -1.4624 -0.2442
  341MOL0     H45979   6.288   7.436   3.893  0.6334 -0.1226 -0.5395
  341MOL0     H45980   6.296   7.561   4.111 -0.3860 -3.8560 -1.8989
  341MOL0     H45981   6.327   7.718   4.037  1.3338 -0.6409 -1.5669
  341MOL0     H45982   6.111   7.729   4.095 -0.6085  0.2905 -0.4816
  341MOL0     H45983   6.123   7.714   3.921  0.6374 -0.5692 -1.4175
  341MOL0     H45984   6.053   7.459   3.950  2.9327 -0.9495  1.7887
  341MOL0     H45985   5.921   7.562   4.017  0.7374  2.9303 -1.8090
  341MOL0     H45986   6.181   7.317   4.146 -1.2702  0.3931 -2.6005
  341MOL0     H45987   6.268   7.270   4.422  0.1793 -1.4844  1.9286
  341MOL0     H45988   6.130   7.292   4.537  0.1955  2.5500 -0.2248
  341MOL0     H45989   6.136   7.080   4.327  0.8977 -0.0954  0.4369
  341MOL0     H45990   5.995   7.146   4.423 -0.3081  3.0733  0.1747
  341MOL0     H45991   6.102   7.070   4.633  1.0631  0.3183  0.5538
  341MOL0     H45992   6.256   7.031   4.537 -0.9559 -1.6476 -1.5172
  341MOL0     H45993   6.110   6.835   4.610  0.0677  0.4518 -0.2225
  341MOL0     H45994   6.150   6.847   4.442  0.6382  0.1331  0.7184
  341MOL0     H45995   6.046   6.735   4.308  1.7702  1.9435  0.4862
  341MOL0     H45996   5.919   6.627   4.005 -1.1017  2.1463 -0.7439
  341MOL0     H45997   6.049   6.751   3.980 -0.3874  1.8774  1.4386
  341MOL0     H45998   6.076   6.623   4.102 -0.0975 -0.8008 -0.3851
  341MOL0     H45999   5.535   6.689   3.787  0.1675  0.0770 -0.9091
  341MOL0     H46000   5.451   6.724   3.548 -2.2609  0.7261 -0.2715
  341MOL0     H46001   5.497   6.858   3.298  0.9028  2.2144 -0.4304
  341MOL0     H46002   5.360   6.771   3.367  0.5769 -1.3821 -1.9842
  341MOL0     H46003   5.191   6.910   3.248  0.1725 -1.5409 -0.1594
  341MOL0     H46004   5.313   7.031   3.203  1.1901 -1.2071 -1.5597
  341MOL0     H46005   5.205   6.900   3.024  0.3918 -0.1069  0.5163
  341MOL0     H46006   5.281   6.751   3.085 -1.1503 -0.4243 -2.6812
  341MOL0     H46007   5.423   6.994   2.969 -0.5338  0.6273 -2.1243
  341MOL0     H46008   5.509   6.844   3.032 -1.7054  0.1005  0.2879
  341MOL0     H46009   5.317   6.879   2.803  0.8761  3.1268  0.4386
  341MOL0     H46010   5.355   6.722   2.880  1.7246 -1.5635  1.0633
  341MOL0     H46011   5.547   6.908   2.743  0.3176 -0.1821 -0.3782
  341MOL0     H46012   5.589   6.770   2.847  2.2955 -0.0272 -1.5015
  341MOL0     H46013   5.452   6.762   2.571 -0.5855 -2.4888 -2.5683
  341MOL0     H46014   5.480   6.620   2.685  1.0404 -0.2092 -0.6286
  341MOL0     H46015   5.663   6.611   2.530 -3.0151 -1.5971  1.4112
  341MOL0     H46016   5.724   6.662   2.679 -0.8556 -1.0247  0.5422
  341MOL0     H46017   5.455   7.142   3.606 -1.3957  1.2739  3.8164
  341MOL0     H46018   5.538   7.113   3.839  1.7482 -0.3388 -1.4400
  341MOL0     H46019   5.667   7.014   4.145 -0.4155 -0.4348 -1.7150
  341MOL0     H46020   5.760   7.047   4.371  1.6279  1.0676  0.1883
  341MOL0     H46021   7.155   7.759   3.799  1.6569  0.0679 -0.3298
  341MOL0     H46022   7.301   7.652   3.638 -0.4416  1.7150  2.2716
  341MOL0     H46023   7.474   7.502   3.335 -0.4542  0.8462 -0.4144
  341MOL0     H46024   7.643   7.452   3.160  0.9331 -2.1380  1.1045
  341MOL0     H46025   7.465   7.365   2.825  0.2314  2.5041  0.8338
  341MOL0     H46026   7.625   7.447   2.813 -1.0145  0.6348  0.7239
  341MOL0     H46027   7.590   7.295   2.617 -1.0516  1.5778  0.2351
  341MOL0     H46028   7.565   7.154   2.725  0.9527 -0.1534  1.5729
  341MOL0     H46029   7.812   7.204   2.813  1.0273  2.7492 -0.0075
  341MOL0     H46030   7.817   7.317   2.684  1.6807 -1.3131  0.0340
  341MOL0     H46031   7.730   7.038   2.638 -0.7472  0.0937 -2.3079
  341MOL0     H46032   7.896   7.066   2.659 -0.3592  0.1105 -2.0691
  341MOL0     H46033   7.817   7.242   2.274 -1.9176  2.1990  0.5747
  341MOL0     H46034   7.370   7.173   2.986 -1.0733  0.7122 -1.5604
  341MOL0     H46035   7.221   7.199   3.169 -0.6191 -0.5505  2.0839
  342MOL0     O46036   9.728   6.404   3.079  0.0516 -0.0301  0.6713
  342MOL0     C46037   9.739   6.358   2.962 -0.0216 -0.7067 -0.9515
  342MOL0     O46038   9.639   6.342   2.873  0.5071 -0.5655  0.1767
  342MOL0     C46039   9.519   6.398   2.899 -0.5996 -0.6330 -0.8639
  342MOL0     C46040   9.421   6.325   2.965  0.3611 -0.4599 -0.3428
  342MOL0     C46041   9.302   6.388   3.008 -0.3813  0.0809 -0.2482
  342MOL0     C46042   9.276   6.522   2.982  0.2713 -0.2693 -0.8054
  342MOL0     O46043   9.162   6.572   3.041  0.4014 -0.2429 -0.0709
  342MOL0     C46044   9.063   6.617   2.951  0.0602 -0.2282  0.2476
  342MOL0     C46045   8.939   6.650   3.038  0.0489  0.0706 -0.2738
  342MOL0     C46046   8.823   6.705   2.944 -0.8291 -0.3247 -0.2720
  342MOL0     C46047   8.736   6.583   2.906 -0.4777  0.1592  0.1406
  342MOL0     C46048   8.587   6.622   2.890  0.2998  0.1950  0.2235
  342MOL0     C46049   8.506   6.492   2.864  0.2683 -0.3001 -0.2987
  342MOL0     C46050   8.354   6.524   2.898 -0.1123 -0.2288 -1.0150
  342MOL0     C46051   8.256   6.401   2.903  0.0866 -0.2926  0.4872
  342MOL0     N46052   8.245   6.363   2.760  0.4783  0.5827 -1.0820
  342MOL0     C46053   8.139   6.413   2.690  0.1827  0.1025  0.3244
  342MOL0     C46054   8.115   6.325   2.591 -0.7284 -0.4560 -0.5235
  342MOL0     C46055   8.001   6.346   2.497 -0.0421  0.6943  0.0943
  342MOL0     C46056   7.876   6.268   2.542 -0.2449 -0.2646  0.0664
  342MOL0     C46057   7.777   6.293   2.432 -0.3764  0.1277  0.1863
  342MOL0     C46058   7.638   6.276   2.493  0.1667 -0.0652 -0.6445
  342MOL0     O46059   7.543   6.251   2.391  0.0032  0.5224  0.0550
  342MOL0     C46060   7.408   6.245   2.420 -0.1153 -0.5082  0.1755
  342MOL0     C46061   7.354   6.254   2.551 -0.8050 -1.6281  0.3677
  342MOL0     C46062   7.219   6.251   2.572  0.5799 -0.8873  0.0156
  342MOL0     C46063   7.170   6.277   2.712 -0.4497  0.6690  0.5711
  342MOL0     C46064   7.124   6.238   2.467  0.1133  0.5798  0.7633
  342MOL0     C46065   6.980   6.222   2.479 -0.6194  0.2896 -0.3390
  342MOL0     O46066   6.902   6.250   2.371 -0.1854 -0.0453  0.3117
  342MOL0     C46067   6.768   6.265   2.394 -1.1888 -0.0349  1.0370
  342MOL0     C46068   6.720   6.386   2.453 -0.2926  0.4059 -0.0511
  342MOL0     C46069   6.585   6.396   2.468  0.7148  0.2991  0.5663
  342MOL0     C46070   6.502   6.281   2.433  0.0320  0.7140  0.5839
  342MOL0     O46071   6.371   6.305   2.423 -0.1798 -0.3633  0.0415
  342MOL0     C46072   6.271   6.191   2.413  0.0961 -0.1166  0.1309
  342MOL0     C46073   6.130   6.241   2.389 -0.1780  0.1784 -0.5251
  342MOL0     C46074   6.026   6.125   2.423 -0.7651 -0.8465 -0.0980
  342MOL0     C46075   5.887   6.178   2.433  0.8803  0.4231 -0.1149
  342MOL0     C46076   5.797   6.073   2.508 -0.6305  0.7123  0.8208
  342MOL0     C46077   5.781   5.931   2.447  0.2667 -0.1586  0.1371
  342MOL0     C46078   5.709   5.831   2.545 -0.0278 -0.2976 -0.4843
  342MOL0     C46079   5.709   5.683   2.512 -1.2665 -0.5774 -0.3046
  342MOL0    Cl46080   5.612   5.603   2.643 -0.5129 -0.4685 -0.0176
  342MOL0     C46081   6.553   6.162   2.387  0.6576  0.5055 -0.9340
  342MOL0     C46082   6.686   6.154   2.376 -0.2243 -0.6702 -0.2932
  342MOL0     O46083   6.933   6.201   2.591 -0.0694  0.0657  0.6089
  342MOL0     C46084   7.182   6.228   2.338 -0.2653  1.1317 -0.8151
  342MOL0     C46085   7.319   6.236   2.313 -0.2845  0.1944  0.5051
  342MOL0     N46086   8.213   6.230   2.597  0.0708 -0.4695  0.5517
  342MOL0     N46087   8.285   6.247   2.701  0.1914  0.0504 -0.4198
  342MOL0     C46088   9.368   6.593   2.904  0.2695  0.1386  0.0847
  342MOL0     C46089   9.490   6.533   2.869  0.3576 -0.7652  0.6936
  342MOL0     C46090   9.873   6.311   2.919  0.1255 -0.0840  0.4145
  342MOL0     C46091   9.975   6.312   3.010  0.8130 -0.4988  0.0440
  342MOL0     C46092  10.109   6.277   2.969  0.8641 -0.2708  0.5516
  342MOL0     C46093  10.120   6.236   2.830 -0.6755  0.1726  0.0341
  342MOL0     O46094  10.241   6.211   2.769  0.2151 -0.4203 -0.8322
  342MOL0     C46095  10.357   6.236   2.855  0.2313  0.0230  0.7406
  342MOL0     C46096  10.483   6.248   2.760 -0.3357 -0.5035  0.9437
  342MOL0     C46097  10.618   6.226   2.838  0.9314 -0.0417  0.7212
  342MOL0     C46098  10.740   6.211   2.748  0.4708 -0.0755 -1.2710
  342MOL0     C46099  10.772   6.335   2.668 -0.3261 -0.7238  0.5747
  342MOL0     C46100  10.795   6.427   2.591  0.9697  0.0988  0.3089
  342MOL0     C46101  10.016   6.230   2.737  0.7797 -0.4672 -0.5870
  342MOL0     C46102   9.889   6.274   2.780  0.0477 -0.1564 -0.0470
  342MOL0     H46103   9.437   6.221   2.991  0.7731 -0.3757 -0.2667
  342MOL0     H46104   9.230   6.331   3.065  0.8625  0.1371  1.4508
  342MOL0     H46105   9.099   6.704   2.896 -0.1311  0.2734  0.8944
  342MOL0     H46106   9.020   6.541   2.886  1.0787  0.1614 -0.9160
  342MOL0     H46107   8.914   6.562   3.097 -1.3382  1.8619  1.9588
  342MOL0     H46108   8.963   6.725   3.113 -2.7567 -0.1597  0.9704
  342MOL0     H46109   8.766   6.777   3.005  0.4599 -0.8334  1.6541
  342MOL0     H46110   8.867   6.762   2.862 -0.9105  1.5922  0.9463
  342MOL0     H46111   8.772   6.527   2.819 -0.6790  0.0032  0.1554
  342MOL0     H46112   8.741   6.509   2.986 -1.8362  1.5566  1.5898
  342MOL0     H46113   8.550   6.679   2.976  1.6554  0.4388  0.6654
  342MOL0     H46114   8.560   6.689   2.808 -0.7823  0.6310  0.9012
  342MOL0     H46115   8.510   6.457   2.761 -0.7356 -1.7425  0.1159
  342MOL0     H46116   8.540   6.411   2.929  1.1814  0.5822  0.3671
  342MOL0     H46117   8.350   6.572   2.997  2.2474 -0.4802 -0.7198
  342MOL0     H46118   8.324   6.605   2.831 -1.4013 -1.4141 -1.9221
  342MOL0     H46119   8.155   6.429   2.935 -0.8386 -1.4987 -1.2384
  342MOL0     H46120   8.288   6.320   2.968 -0.8276 -0.2675  0.9826
  342MOL0     H46121   8.084   6.504   2.715  0.3686  0.5493 -0.8301
  342MOL0     H46122   7.973   6.452   2.497 -1.0788  0.4666  2.0784
  342MOL0     H46123   8.030   6.325   2.394 -0.0339  2.6409 -0.3278
  342MOL0     H46124   7.846   6.320   2.633 -2.3886  2.9207 -2.2405
  342MOL0     H46125   7.901   6.164   2.567 -1.2744 -0.4103  0.5353
  342MOL0     H46126   7.794   6.222   2.350 -1.8605  1.6085 -1.4778
  342MOL0     H46127   7.783   6.392   2.386 -3.2494  0.6962  0.8800
  342MOL0     H46128   7.619   6.375   2.536  2.0281  0.8669 -1.8245
  342MOL0     H46129   7.636   6.199   2.571 -3.7862 -0.0637 -0.5218
  342MOL0     H46130   7.422   6.268   2.635  0.8374  1.7275 -1.3479
  342MOL0     H46131   7.245   6.328   2.772 -0.4361  0.1479  1.0038
  342MOL0     H46132   7.080   6.339   2.708 -1.5287 -0.8098  1.0087
  342MOL0     H46133   7.165   6.180   2.762  0.1144  0.4898  0.2821
  342MOL0     H46134   6.781   6.475   2.465  0.8586 -0.3645  0.0145
  342MOL0     H46135   6.546   6.484   2.518 -0.2067  0.6209 -0.6791
  342MOL0     H46136   6.298   6.141   2.319  0.1642  3.1587 -1.7428
  342MOL0     H46137   6.280   6.131   2.504 -1.1780  1.3247  1.2467
  342MOL0     H46138   6.111   6.328   2.452 -1.0042 -0.8604  0.7267
  342MOL0     H46139   6.131   6.284   2.288  1.7821 -0.4082 -0.7817
  342MOL0     H46140   6.048   6.069   2.514  0.0032 -1.1891 -0.4872
  342MOL0     H46141   6.042   6.047   2.348  0.4599 -2.6043  1.8707
  342MOL0     H46142   5.875   6.271   2.488  2.3223  1.4510 -1.4467
  342MOL0     H46143   5.856   6.204   2.331  1.4058  0.3692 -0.2903
  342MOL0     H46144   5.692   6.102   2.519 -1.5242 -1.7855 -0.2048
  342MOL0     H46145   5.841   6.049   2.605  2.5735  1.4654 -0.3350
  342MOL0     H46146   5.722   5.939   2.355  1.0957 -2.1443 -0.6275
  342MOL0     H46147   5.880   5.898   2.415  0.7880  1.2051  0.3050
  342MOL0     H46148   5.604   5.861   2.542 -0.1787 -0.8529 -1.3380
  342MOL0     H46149   5.758   5.847   2.641  1.2460  2.3465 -1.4613
  342MOL0     H46150   5.812   5.644   2.518  0.2930  3.0453 -1.0689
  342MOL0     H46151   5.667   5.672   2.411  0.2170 -2.8789 -0.7718
  342MOL0     H46152   6.493   6.073   2.369  0.4702  0.9330 -2.6244
  342MOL0     H46153   6.741   6.063   2.351 -2.8272 -1.8416 -2.1520
  342MOL0     H46154   7.116   6.209   2.254 -0.7323 -1.5578  0.0548
  342MOL0     H46155   7.359   6.215   2.214  0.3987  0.7298  0.6633
  342MOL0     H46156   9.349   6.699   2.887  1.8559  0.1230 -2.2622
  342MOL0     H46157   9.565   6.592   2.819  1.3332 -2.9693 -0.5755
  342MOL0     H46158   9.965   6.341   3.114  0.3860 -0.9057  0.1212
  342MOL0     H46159  10.197   6.282   3.033  0.3966  2.2079  1.1109
  342MOL0     H46160  10.340   6.331   2.905  2.2095  0.0479  1.4515
  342MOL0     H46161  10.380   6.156   2.926 -1.7698 -0.6991  0.6606
  342MOL0     H46162  10.486   6.348   2.717  3.3616 -0.2165  1.5337
  342MOL0     H46163  10.477   6.190   2.667  3.9275 -0.9667  0.7727
  342MOL0     H46164  10.609   6.133   2.895 -0.5318  0.3921  1.2517
  342MOL0     H46165  10.630   6.306   2.912  1.1296 -1.5571  2.4172
  342MOL0     H46166  10.718   6.143   2.665  1.5345  1.4552 -2.8968
  342MOL0     H46167  10.816   6.185   2.822 -1.2780  2.1567  1.5463
  342MOL0     H46168  10.809   6.515   2.533 -0.1065 -0.1933 -0.4262
  342MOL0     H46169  10.047   6.202   2.637 -1.7565 -0.2558 -1.4978
  342MOL0     H46170   9.811   6.305   2.711  1.3579  2.0529 -0.6135
  343MOL0     O46171   4.550   5.313   2.414 -0.3254  0.6340  0.3121
  343MOL0     C46172   4.604   5.221   2.348 -0.0422 -0.8330  0.1191
  343MOL0     O46173   4.541   5.133   2.267  0.6029 -0.6539 -0.7908
  343MOL0     C46174   4.410   5.155   2.233  0.2528 -0.6235  0.2248
  343MOL0     C46175   4.369   5.215   2.113 -0.1150 -0.5150  0.7380
  343MOL0     C46176   4.232   5.225   2.092 -0.4403 -0.8330 -0.5636
  343MOL0     C46177   4.133   5.180   2.179  0.4043 -0.1234 -0.2116
  343MOL0     O46178   4.004   5.167   2.159  0.0554 -0.0609 -0.2947
  343MOL0     C46179   3.961   5.181   2.028 -0.4363 -0.2409 -0.1277
  343MOL0     C46180   3.813   5.137   2.013 -0.0970 -0.1900 -0.3727
  343MOL0     C46181   3.747   5.131   1.877  0.6401  0.6013 -0.1932
  343MOL0     C46182   3.611   5.053   1.881  0.0734  0.4072 -0.5497
  343MOL0     C46183   3.532   5.062   1.751 -0.3725 -0.0260  1.0150
  343MOL0     C46184   3.442   4.939   1.740  0.3987  0.2230  0.0185
  343MOL0     C46185   3.337   4.959   1.638  0.3922  0.8655  1.3587
  343MOL0     C46186   3.218   4.873   1.643  0.4643  0.6152 -1.1555
  343MOL0     N46187   3.238   4.737   1.583 -0.6385 -0.4905  0.2194
  343MOL0     C46188   3.187   4.696   1.466  0.2573 -0.5817  0.4025
  343MOL0     C46189   3.207   4.568   1.463  0.1835  0.3166  0.4142
  343MOL0     C46190   3.165   4.476   1.351  0.3981 -1.3251  0.4656
  343MOL0     C46191   3.023   4.411   1.386  0.1356  0.3789 -0.0584
  343MOL0     C46192   3.037   4.306   1.495  1.1574  0.1314  0.1690
  343MOL0     C46193   2.937   4.192   1.494  0.1813 -0.6859  0.9075
  343MOL0     O46194   2.801   4.243   1.475  0.7270  0.1341 -0.5996
  343MOL0     C46195   2.703   4.147   1.477 -0.7682 -0.3444  0.3776
  343MOL0     C46196   2.573   4.206   1.479  0.0546 -0.0253 -0.2597
  343MOL0     C46197   2.466   4.121   1.491  0.1180  0.0787  0.0323
  343MOL0     C46198   2.335   4.181   1.542  0.7823 -0.4583  0.0969
  343MOL0     C46199   2.471   3.980   1.473 -0.3238 -0.1164  0.0950
  343MOL0     C46200   2.355   3.885   1.475 -0.3854  0.7814 -1.2406
  343MOL0     O46201   2.395   3.760   1.492 -0.1160  0.9051 -0.7756
  343MOL0     C46202   2.310   3.663   1.447  0.2283 -0.5029 -0.4400
  343MOL0     C46203   2.224   3.606   1.532  0.5074 -1.0233  0.2511
  343MOL0     C46204   2.121   3.526   1.487 -0.2364  0.8305  0.3023
  343MOL0     C46205   2.103   3.504   1.344  0.4819 -0.6804  0.1436
  343MOL0     O46206   1.994   3.442   1.291  0.1554  0.4258  0.8815
  343MOL0     C46207   1.903   3.371   1.378  1.0636 -0.0696 -0.2944
  343MOL0     C46208   1.797   3.302   1.293  0.0799  0.1103  0.2601
  343MOL0     C46209   1.712   3.203   1.373  0.7818  0.6245  0.3943
  343MOL0     C46210   1.602   3.288   1.453  1.0795 -0.2863 -0.4894
  343MOL0     C46211   1.512   3.199   1.528 -0.5285  0.0102 -0.1176
  343MOL0     C46212   1.419   3.272   1.626 -0.2163  0.1233  0.2462
  343MOL0     C46213   1.342   3.166   1.720 -1.0096 -0.4716  0.4723
  343MOL0     C46214   1.267   3.234   1.828  0.4260 -0.5514 -0.7706
  343MOL0    Cl46215   1.357   3.323   1.954 -0.2991  0.6075 -0.0496
  343MOL0     C46216   2.196   3.572   1.263 -0.4260  0.7871  0.2665
  343MOL0     C46217   2.300   3.650   1.309 -0.3269  0.2049  0.1815
  343MOL0     O46218   2.242   3.924   1.450  0.9153 -0.3084  0.0980
  343MOL0     C46219   2.608   3.933   1.458 -0.0367  0.3077 -0.3036
  343MOL0     C46220   2.722   4.010   1.455  0.2673  0.7577  0.7445
  343MOL0     N46221   3.274   4.524   1.577 -0.0771  0.1875 -0.2910
  343MOL0     N46222   3.296   4.634   1.645  0.3399  0.9304 -0.2245
  343MOL0     C46223   4.177   5.135   2.295  0.0804 -0.4031 -0.4065
  343MOL0     C46224   4.310   5.126   2.329 -0.7413  0.7408  0.7481
  343MOL0     C46225   4.754   5.216   2.347  0.8028 -0.2883  0.5072
  343MOL0     C46226   4.830   5.322   2.404  0.5132  0.4766 -1.1641
  343MOL0     C46227   4.968   5.309   2.415 -0.2796 -0.4143  0.3895
  343MOL0     C46228   5.040   5.200   2.359  0.2913  0.1356 -0.8794
  343MOL0     O46229   5.171   5.170   2.392 -1.4966  0.1953  0.0195
  343MOL0     C46230   5.241   5.244   2.496 -0.2148  0.5322  0.3734
  343MOL0     C46231   5.387   5.210   2.493 -0.8571  0.0062 -0.6594
  343MOL0     C46232   5.476   5.289   2.597  0.8547  0.6127  0.2829
  343MOL0     C46233   5.613   5.242   2.604  0.6109  0.0619 -0.2949
  343MOL0     C46234   5.642   5.117   2.673  0.1862  0.8542 -0.6028
  343MOL0     C46235   5.676   5.011   2.732  0.0823  0.3216 -0.1859
  343MOL0     C46236   4.961   5.102   2.294 -0.6946 -0.3382  0.2353
  343MOL0     C46237   4.825   5.109   2.280 -0.0744 -0.3538 -0.7882
  343MOL0     H46238   4.457   5.249   2.060  2.0357  0.0118  4.2966
  343MOL0     H46239   4.206   5.288   2.007  0.7399 -0.4926 -0.6931
  343MOL0     H46240   3.967   5.285   1.995  0.2764 -0.6070 -1.2147
  343MOL0     H46241   4.022   5.121   1.959 -0.6333  2.2812 -2.6714
  343MOL0     H46242   3.816   5.033   2.048 -0.5397 -0.0030  0.2268
  343MOL0     H46243   3.751   5.189   2.085  2.3524  1.9449  0.3432
  343MOL0     H46244   3.741   5.231   1.834  0.0027 -0.4721 -2.8279
  343MOL0     H46245   3.820   5.073   1.821  2.4508  1.6151  1.0126
  343MOL0     H46246   3.647   4.950   1.893  0.7057  0.6443 -0.3932
  343MOL0     H46247   3.554   5.085   1.969 -2.4107 -0.1884 -1.8319
  343MOL0     H46248   3.466   5.148   1.763 -1.8091 -0.8143 -0.6994
  343MOL0     H46249   3.600   5.080   1.667 -1.1635  1.2121  0.6187
  343MOL0     H46250   3.498   4.849   1.715  0.0661 -0.5809  1.9622
  343MOL0     H46251   3.404   4.917   1.840  2.3726 -2.8694  0.2227
  343MOL0     H46252   3.296   5.059   1.627  2.1100  1.4655 -0.1473
  343MOL0     H46253   3.386   4.926   1.546 -0.7631  0.7024  0.7859
  343MOL0     H46254   3.146   4.937   1.589 -0.0174  0.5399 -0.6098
  343MOL0     H46255   3.191   4.870   1.749  1.2241  2.0735 -0.8834
  343MOL0     H46256   3.135   4.762   1.398  3.7608  2.0536 -0.0086
  343MOL0     H46257   3.151   4.541   1.264 -1.5894  0.7823  2.2461
  343MOL0     H46258   3.237   4.398   1.322 -1.2643 -2.8392  0.2329
  343MOL0     H46259   2.976   4.352   1.307 -0.9774 -1.6997  2.0102
  343MOL0     H46260   2.952   4.490   1.413 -0.3841  1.0598 -3.0778
  343MOL0     H46261   3.034   4.358   1.591  2.9371 -0.1292  0.4120
  343MOL0     H46262   3.133   4.254   1.484  2.1711  2.3920 -3.0851
  343MOL0     H46263   2.949   4.131   1.585  2.7126 -2.4172 -0.4574
  343MOL0     H46264   2.952   4.126   1.408 -5.0535 -0.6203 -0.3994
  343MOL0     H46265   2.569   4.312   1.503  1.6340 -0.4823  2.4510
  343MOL0     H46266   2.251   4.166   1.473  0.6346 -0.0353  0.1795
  343MOL0     H46267   2.308   4.154   1.644  0.7923 -2.2627 -0.3364
  343MOL0     H46268   2.346   4.289   1.525  1.6254 -0.6820 -0.9148
  343MOL0     H46269   2.213   3.628   1.637  1.0456  0.0727  0.0971
  343MOL0     H46270   2.061   3.466   1.554 -0.7572  1.4254  0.3746
  343MOL0     H46271   1.958   3.293   1.432 -0.2293 -2.1644 -1.8515
  343MOL0     H46272   1.860   3.445   1.446  1.3664  2.0889 -2.3323
  343MOL0     H46273   1.726   3.375   1.254  0.3302 -1.6683 -4.0814
  343MOL0     H46274   1.844   3.251   1.208  0.7524 -0.1302  0.7690
  343MOL0     H46275   1.779   3.135   1.426 -1.7064 -1.7905  0.6422
  343MOL0     H46276   1.660   3.142   1.299  0.4754 -0.5952  1.5948
  343MOL0     H46277   1.644   3.360   1.525 -4.0904  2.6474  0.0693
  343MOL0     H46278   1.536   3.348   1.389  1.2830 -0.6911 -1.0928
  343MOL0     H46279   1.567   3.128   1.590  0.1625  2.4208  2.2446
  343MOL0     H46280   1.446   3.145   1.460 -0.4193 -1.2994  0.7796
  343MOL0     H46281   1.477   3.338   1.690  0.3267 -0.9620  0.8966
  343MOL0     H46282   1.348   3.330   1.566  0.0116 -0.5576 -0.7147
  343MOL0     H46283   1.411   3.094   1.763 -0.0871  0.2721  0.2713
  343MOL0     H46284   1.273   3.099   1.667  0.1605 -0.9048 -0.5734
  343MOL0     H46285   1.214   3.151   1.876 -0.1886  0.3846  0.2287
  343MOL0     H46286   1.203   3.318   1.798 -0.6640 -0.2085  2.1352
  343MOL0     H46287   2.178   3.577   1.156  1.8621  1.7481 -0.1225
  343MOL0     H46288   2.378   3.694   1.247 -1.7403  0.4387 -1.5051
  343MOL0     H46289   2.629   3.827   1.456  0.5455  0.4000 -2.9089
  343MOL0     H46290   2.819   3.971   1.426 -0.4140 -0.7529  0.3677
  343MOL0     H46291   4.099   5.116   2.369 -0.9937 -2.5240 -1.9956
  343MOL0     H46292   4.340   5.086   2.425  0.4872 -0.0423  0.0689
  343MOL0     H46293   4.786   5.415   2.440  0.9497 -0.5416  2.3301
  343MOL0     H46294   5.026   5.376   2.477 -0.4694  0.7122 -0.6213
  343MOL0     H46295   5.222   5.350   2.480  2.2035  0.8293 -0.9558
  343MOL0     H46296   5.210   5.212   2.596 -2.4908  3.8931  0.8891
  343MOL0     H46297   5.425   5.238   2.394  3.2372  0.1060  0.7573
  343MOL0     H46298   5.403   5.102   2.500 -0.7673 -0.0582 -1.6485
  343MOL0     H46299   5.420   5.297   2.690  1.2265  0.2497  0.5433
  343MOL0     H46300   5.488   5.393   2.566  5.0303  0.9169  2.2561
  343MOL0     H46301   5.666   5.325   2.651 -0.8507 -0.4146  2.4380
  343MOL0     H46302   5.652   5.223   2.504  1.3338  1.7953 -0.3571
  343MOL0     H46303   5.734   4.930   2.774  1.1563  0.7943 -0.7142
  343MOL0     H46304   4.999   5.006   2.262  1.4328 -0.1679  2.0373
  343MOL0     H46305   4.769   5.031   2.229 -3.0775  1.3899 -0.4280
  344MOL0     O46306   3.431  10.471   8.006 -0.3822  0.3205 -0.2626
  344MOL0     C46307   3.489  10.576   8.025 -0.7641 -0.4446 -0.8128
  344MOL0     O46308   3.430  10.695   8.011 -0.6499  0.5297 -0.3849
  344MOL0     C46309   3.300  10.685   7.976  0.2063 -0.2477 -0.3077
  344MOL0     C46310   3.274  10.671   7.842 -0.4838 -0.0546 -0.9195
  344MOL0     C46311   3.144  10.640   7.799  0.3554 -0.1633 -0.3470
  344MOL0     C46312   3.034  10.635   7.886 -0.0077 -0.6360 -1.3432
  344MOL0     O46313   2.902  10.607   7.848  0.3725  1.2575 -1.0690
  344MOL0     C46314   2.862  10.652   7.721  1.0104  0.1073 -0.0687
  344MOL0     C46315   2.714  10.687   7.709  0.0988  0.5030 -0.6090
  344MOL0     C46316   2.688  10.809   7.793 -0.1124 -0.3184 -0.3682
  344MOL0     C46317   2.548  10.870   7.769 -0.6079  0.0912  0.2193
  344MOL0     C46318   2.430  10.768   7.783  0.2146 -0.4082 -0.2649
  344MOL0     C46319   2.295  10.852   7.795  0.5421 -0.1739  0.1719
  344MOL0     C46320   2.182  10.758   7.770 -0.2864 -0.5764  0.1507
  344MOL0     C46321   2.164  10.664   7.889  0.2249  0.4583  0.1643
  344MOL0     N46322   2.028  10.637   7.913  0.0117 -0.6051 -0.8320
  344MOL0     C46323   1.949  10.540   7.864 -0.6465  0.2144  0.1723
  344MOL0     C46324   1.826  10.566   7.883  0.8784  0.5462  0.4555
  344MOL0     C46325   1.702  10.494   7.828  0.0371 -0.6700  1.1751
  344MOL0     C46326   1.656  10.556   7.688  1.0261  0.1609 -0.5361
  344MOL0     C46327   1.635  10.442   7.587 -0.1455 -0.3546 -0.8551
  344MOL0     C46328   1.563  10.494   7.463 -0.6368  0.4545  1.2091
  344MOL0     O46329   1.496  10.385   7.402 -0.3018  0.4893  0.3232
  344MOL0     C46330   1.370  10.404   7.354  0.5341  0.0268  0.0088
  344MOL0     C46331   1.334  10.369   7.224  0.1165  0.7487 -0.3978
  344MOL0     C46332   1.200  10.374   7.184  0.1058  0.1459 -0.0984
  344MOL0     C46333   1.164  10.339   7.038 -0.7599 -0.6939 -0.0910
  344MOL0     C46334   1.100  10.410   7.277  0.4005 -0.1422  0.3635
  344MOL0     C46335   0.955  10.404   7.251 -0.0820  0.6521  0.5527
  344MOL0     O46336   0.918  10.496   7.157 -0.2886 -0.3668 -0.3540
  344MOL0     C46337   0.790  10.528   7.143  0.2209  0.4355  0.4592
  344MOL0     C46338   0.719  10.490   7.023  0.0158  0.2069  0.6161
  344MOL0     C46339   0.581  10.513   7.005 -0.5334 -0.4552 -0.2486
  344MOL0     C46340   0.512  10.591   7.103  0.2347  0.6754 -0.2190
  344MOL0     O46341   0.385  10.656   7.081 -0.3871  0.5270  0.2278
  344MOL0     C46342   0.280  10.565   7.038 -0.3587 -0.4575 -0.3425
  344MOL0     C46343   0.218  10.498   7.163  0.5815 -0.7760  0.2300
  344MOL0     C46344   0.187  10.607   7.273  0.4171 -0.0243 -0.2015
  344MOL0     C46345   0.126  10.544   7.398  0.7486 -0.1991 -0.2337
  344MOL0     C46346  -0.029  10.530   7.390  0.3258  0.8578  0.5971
  344MOL0     C46347  -0.099  10.557   7.518 -0.5320 -0.0669 -0.1162
  344MOL0     C46348  -0.254  10.529   7.524 -0.3244  0.2140 -0.1406
  344MOL0     C46349  -0.328  10.577   7.658 -0.0993  0.4301 -0.0370
  344MOL0    Cl46350  -0.478  10.487   7.675  0.1501  0.0832 -0.1462
  344MOL0     C46351   0.583  10.622   7.221 -0.4383 -0.4094 -0.2943
  344MOL0     C46352   0.719  10.591   7.245  0.2095 -0.1067  0.6597
  344MOL0     O46353   0.883  10.327   7.319  0.3496 -0.4067  0.4870
  344MOL0     C46354   1.140  10.451   7.405  0.0798  0.5169 -0.4998
  344MOL0     C46355   1.273  10.449   7.442 -0.3101 -0.1015 -0.5447
  344MOL0     N46356   1.826  10.690   7.954 -0.0672  0.0678  0.5065
  344MOL0     N46357   1.949  10.725   7.980 -0.7946  0.3559 -0.6293
  344MOL0     C46358   3.066  10.655   8.024 -0.2751  1.0552  0.8316
  344MOL0     C46359   3.196  10.682   8.065  0.2497  1.0288  0.5563
  344MOL0     C46360   3.634  10.574   8.051 -1.1198  0.2464  0.4185
  344MOL0     C46361   3.695  10.449   8.088  1.2460 -0.3407 -0.2361
  344MOL0     C46362   3.831  10.450   8.113  1.0906  0.1893  0.4671
  344MOL0     C46363   3.902  10.571   8.115 -0.3105  0.6589  0.4405
  344MOL0     O46364   4.031  10.601   8.162  0.3303  0.0950  0.3485
  344MOL0     C46365   4.107  10.495   8.215 -0.4060  0.1007  0.1548
  344MOL0     C46366   4.237  10.551   8.269  0.7253  0.0638 -0.6454
  344MOL0     C46367   4.207  10.641   8.391  0.1153  0.1760  0.2384
  344MOL0     C46368   4.333  10.666   8.474 -0.0173  0.3825 -0.4866
  344MOL0     C46369   4.449  10.704   8.396 -0.1170 -0.4645 -0.4084
  344MOL0     C46370   4.556  10.728   8.345  0.2890  0.3595  0.4915
  344MOL0     C46371   3.841  10.683   8.061  0.1335  0.7810  0.8046
  344MOL0     C46372   3.706  10.693   8.037 -0.2928  0.0297  0.2914
  344MOL0     H46373   3.356  10.675   7.771  0.3705 -1.9940 -0.1129
  344MOL0     H46374   3.131  10.614   7.694  1.8605 -4.5557  0.3097
  344MOL0     H46375   2.918  10.742   7.696  0.6171  0.5438  0.6135
  344MOL0     H46376   2.872  10.577   7.642 -1.4558 -2.4426  1.8031
  344MOL0     H46377   2.689  10.715   7.606  0.0757  3.1369  0.0309
  344MOL0     H46378   2.651  10.605   7.742 -3.0076  2.0364 -2.2831
  344MOL0     H46379   2.682  10.775   7.896 -3.9552  0.5036 -0.1740
  344MOL0     H46380   2.768  10.883   7.778  0.2380 -0.7969 -0.9047
  344MOL0     H46381   2.535  10.957   7.834  0.5944  0.6905 -0.3250
  344MOL0     H46382   2.551  10.902   7.664 -1.4614  0.6564  0.3543
  344MOL0     H46383   2.428  10.701   7.697  0.3730  0.1200 -0.6859
  344MOL0     H46384   2.448  10.720   7.880 -0.3415  2.7216  1.5383
  344MOL0     H46385   2.287  10.910   7.887 -1.2765 -1.1677  0.7003
  344MOL0     H46386   2.290  10.924   7.713 -0.4260 -1.4924 -0.9773
  344MOL0     H46387   2.096  10.826   7.765  1.0049  1.6236  3.6194
  344MOL0     H46388   2.190  10.706   7.674  1.9334  1.6301 -0.9830
  344MOL0     H46389   2.209  10.707   7.979 -0.1193 -0.4788  0.8062
  344MOL0     H46390   2.217  10.569   7.872  3.0450  1.6030  1.8371
  344MOL0     H46391   1.993  10.455   7.813  1.2163  1.8687 -1.1571
  344MOL0     H46392   1.736  10.391   7.814  1.4794 -0.1364  0.6152
  344MOL0     H46393   1.618  10.503   7.898 -1.8196 -2.5206 -0.6690
  344MOL0     H46394   1.733  10.619   7.643  0.1173  0.1396 -2.1782
  344MOL0     H46395   1.565  10.613   7.708 -0.5668 -2.5778  0.4656
  344MOL0     H46396   1.567  10.373   7.638 -1.7273  0.7524 -1.3830
  344MOL0     H46397   1.727  10.385   7.574 -0.4104 -1.3779  1.2474
  344MOL0     H46398   1.649  10.521   7.402  0.6530 -0.7728  2.3867
  344MOL0     H46399   1.500  10.581   7.479 -3.4234 -0.8691 -1.5370
  344MOL0     H46400   1.413  10.351   7.153  0.0651 -0.7958 -0.0901
  344MOL0     H46401   1.213  10.243   7.019  2.5579  1.0862 -1.4385
  344MOL0     H46402   1.057  10.328   7.022 -0.7693 -2.6604  0.9197
  344MOL0     H46403   1.194  10.411   6.963  0.9482 -1.7190 -0.4475
  344MOL0     H46404   0.775  10.446   6.941  2.3163  1.2442  1.5504
  344MOL0     H46405   0.544  10.490   6.906  1.7666 -0.5515 -1.1591
  344MOL0     H46406   0.205  10.630   6.991  0.0557  2.5757  2.7534
  344MOL0     H46407   0.303  10.502   6.952  0.4995  1.3989 -1.5314
  344MOL0     H46408   0.124  10.453   7.129 -0.0847  0.7441 -0.0046
  344MOL0     H46409   0.286  10.424   7.206  0.7515 -0.4118  0.5970
  344MOL0     H46410   0.117  10.678   7.228  1.6215  0.3267 -1.6141
  344MOL0     H46411   0.280  10.659   7.301  1.1615 -1.4923  0.1254
  344MOL0     H46412   0.166  10.444   7.414  1.3675  0.3099  1.5908
  344MOL0     H46413   0.150  10.595   7.492 -2.2565 -0.3940  0.7536
  344MOL0     H46414  -0.071  10.434   7.358  0.6479  1.2218 -0.9720
  344MOL0     H46415  -0.064  10.605   7.319  1.3468  3.9477  3.1344
  344MOL0     H46416  -0.048  10.495   7.593  0.0094  0.5575  0.0452
  344MOL0     H46417  -0.088  10.662   7.547  1.5959 -0.3677  0.3722
  344MOL0     H46418  -0.263  10.420   7.523 -2.6967  0.3715 -1.6420
  344MOL0     H46419  -0.303  10.574   7.438  1.2097  1.9875 -0.1403
  344MOL0     H46420  -0.344  10.683   7.639 -0.2684  0.5572  0.7622
  344MOL0     H46421  -0.251  10.559   7.734 -0.2252 -1.6778 -0.3628
  344MOL0     H46422   0.535  10.682   7.298  1.4484 -1.0433  1.4677
  344MOL0     H46423   0.761  10.623   7.339  0.1077  2.1864 -0.0114
  344MOL0     H46424   1.065  10.489   7.474 -2.2200 -0.1105 -2.5368
  344MOL0     H46425   1.308  10.477   7.541  1.1702 -0.8291 -0.8331
  344MOL0     H46426   2.990  10.640   8.100  0.2327 -0.3614  1.0854
  344MOL0     H46427   3.210  10.693   8.172 -0.5125 -1.9982  1.0517
  344MOL0     H46428   3.650  10.351   8.097 -0.4123  0.2970 -1.0784
  344MOL0     H46429   3.884  10.357   8.130 -0.5633 -1.1545 -1.2592
  344MOL0     H46430   4.051  10.445   8.294  1.1701 -0.4310  0.9572
  344MOL0     H46431   4.139  10.423   8.139  0.2009  0.5868 -0.0613
  344MOL0     H46432   4.290  10.605   8.190  0.1594 -0.4561 -1.3984
  344MOL0     H46433   4.306  10.469   8.292 -1.1960 -2.1248 -2.1057
  344MOL0     H46434   4.121  10.602   8.447 -0.2490  2.2089  1.1990
  344MOL0     H46435   4.168  10.731   8.341  2.0185 -0.5801 -2.8873
  344MOL0     H46436   4.354  10.571   8.524 -2.8550 -1.5592 -2.6346
  344MOL0     H46437   4.308  10.745   8.546 -0.5555 -1.0289  0.9296
  344MOL0     H46438   4.645  10.775   8.308  1.5608 -1.9226  0.3975
  344MOL0     H46439   3.897  10.772   8.035  1.6882 -0.7927 -1.6846
  344MOL0     H46440   3.665  10.785   7.998  0.7463  0.2593 -0.2845
  345MOL0     O46441   8.608   4.373  10.222 -0.5578  0.2860 -0.0716
  345MOL0     C46442   8.654   4.323  10.119 -0.6631  0.2925 -0.1403
  345MOL0     O46443   8.779   4.352  10.065  0.6070 -0.1207  1.2724
  345MOL0     C46444   8.835   4.467  10.122 -0.0551 -0.0600  0.6813
  345MOL0     C46445   8.787   4.593  10.083  0.6521 -0.3668  0.1649
  345MOL0     C46446   8.824   4.709  10.155 -0.6776  0.7240 -0.7876
  345MOL0     C46447   8.935   4.705  10.242 -0.2764 -0.5647 -1.3056
  345MOL0     O46448   8.967   4.830  10.294  1.0013 -0.6291 -0.0404
  345MOL0     C46449   9.056   4.834  10.410 -0.0814  0.6818 -0.0675
  345MOL0     C46450   9.041   4.969  10.481 -0.0112  1.1134  0.4944
  345MOL0     C46451   8.907   5.005  10.546 -0.4112  0.3570 -0.4061
  345MOL0     C46452   8.888   4.933  10.680 -0.3300  0.4657  0.7279
  345MOL0     C46453   8.753   4.982  10.752 -0.0409 -0.5803 -0.4756
  345MOL0     C46454   8.786   5.070  10.872  0.6276  0.5848 -0.2420
  345MOL0     C46455   8.666   5.168  10.896 -0.2567  0.0656  0.1763
  345MOL0     C46456   8.681   5.293  10.815  0.5829 -0.1776  0.1874
  345MOL0     N46457   8.586   5.400  10.852 -0.3837 -0.0919 -0.0913
  345MOL0     C46458   8.451   5.396  10.869  0.3715  0.7479  1.6128
  345MOL0     C46459   8.401   5.519  10.868  0.5497 -0.6062  0.1179
  345MOL0     C46460   8.259   5.555  10.908  0.0516 -0.3111  0.0817
  345MOL0     C46461   8.238   5.697  10.878 -0.1100 -0.4808 -0.5837
  345MOL0     C46462   8.092   5.726  10.871  0.5813  0.9710  0.4544
  345MOL0     C46463   8.061   5.877  10.868  0.1161 -0.0546 -0.1305
  345MOL0     O46464   7.918   5.898  10.861 -0.2002 -0.2636 -0.1860
  345MOL0     C46465   7.870   6.019  10.835 -0.2720 -0.3121  0.4220
  345MOL0     C46466   7.947   6.133  10.823 -0.5512  0.4851 -0.6091
  345MOL0     C46467   7.899   6.260  10.776 -0.2469  0.2509 -1.1249
  345MOL0     C46468   7.993   6.369  10.777 -0.4481  0.6825  0.7340
  345MOL0     C46469   7.762   6.271  10.754 -0.1811  0.7703 -0.4262
  345MOL0     C46470   7.696   6.395  10.720 -0.5850  0.1081 -0.5915
  345MOL0     O46471   7.600   6.373  10.627  0.1458  0.1581  0.1047
  345MOL0     C46472   7.511   6.478  10.613  1.0610  0.7809 -0.0539
  345MOL0     C46473   7.548   6.598  10.567 -0.1480  0.2510  0.4450
  345MOL0     C46474   7.455   6.706  10.567 -0.2998  0.6280  1.1954
  345MOL0     C46475   7.328   6.688  10.626 -0.0275 -0.7390  1.2255
  345MOL0     O46476   7.231   6.791  10.623  0.2120  0.1948 -0.0725
  345MOL0     C46477   7.265   6.928  10.600  0.7883 -0.1309 -0.1513
  345MOL0     C46478   7.140   7.009  10.630 -0.0359 -0.7900  0.6524
  345MOL0     C46479   7.162   7.157  10.614 -0.0951 -0.4407  0.3363
  345MOL0     C46480   7.031   7.232  10.661  0.2300  0.6118  0.1581
  345MOL0     C46481   7.061   7.384  10.657  0.2120  0.6425  0.6622
  345MOL0     C46482   6.952   7.466  10.730  0.4344 -0.1367  0.6760
  345MOL0     C46483   6.813   7.467  10.658  0.4922 -0.4340 -0.0099
  345MOL0     C46484   6.820   7.517  10.519  0.4352  0.3953  0.2995
  345MOL0    Cl46485   6.657   7.573  10.469  0.2676  0.1437  0.0517
  345MOL0     C46486   7.295   6.561  10.670 -0.2613 -0.6899  0.4888
  345MOL0     C46487   7.383   6.455  10.665 -0.3659 -0.9294 -0.5866
  345MOL0     O46488   7.718   6.497  10.781  0.2594 -0.7538 -0.4747
  345MOL0     C46489   7.686   6.158  10.771 -0.2693  0.3440 -0.3078
  345MOL0     C46490   7.736   6.037  10.811 -1.2737 -0.0464 -0.0443
  345MOL0     N46491   8.504   5.601  10.863 -0.8683 -0.1863  0.5303
  345MOL0     N46492   8.614   5.529  10.851  0.0551 -0.5677  0.2711
  345MOL0     C46493   9.002   4.578  10.268 -0.6501 -1.1495 -0.0163
  345MOL0     C46494   8.956   4.465  10.202  0.0148 -0.6079 -0.9165
  345MOL0     C46495   8.575   4.211  10.063 -0.4488  0.4169  0.3878
  345MOL0     C46496   8.437   4.207  10.084 -0.6815  0.4343 -0.6364
  345MOL0     C46497   8.362   4.093  10.049  0.1208 -0.1053 -0.2740
  345MOL0     C46498   8.429   3.984   9.985  0.5764 -0.2705  0.0740
  345MOL0     O46499   8.347   3.882   9.943 -0.7315 -0.8161 -0.6259
  345MOL0     C46500   8.385   3.813   9.820  0.1492 -0.2986 -0.5524
  345MOL0     C46501   8.388   3.891   9.691  0.4730 -0.4094 -0.0510
  345MOL0     C46502   8.513   3.858   9.611 -0.4566 -0.1332 -0.5524
  345MOL0     C46503   8.526   3.930   9.474 -0.0100  0.7694  0.1701
  345MOL0     C46504   8.572   4.069   9.498 -0.5397 -0.4396 -0.8061
  345MOL0     C46505   8.606   4.178   9.529 -0.4519 -0.5069 -0.6061
  345MOL0     C46506   8.568   3.991   9.960 -0.6083  0.0745 -0.2115
  345MOL0     C46507   8.643   4.105  10.004 -0.4556  0.3239  0.2388
  345MOL0     H46508   8.701   4.593  10.016 -1.6233 -0.0420  2.8848
  345MOL0     H46509   8.768   4.798  10.129 -0.5017  0.3657 -2.4854
  345MOL0     H46510   9.026   4.752  10.476 -0.8996  0.0299 -1.2097
  345MOL0     H46511   9.163   4.820  10.396 -0.2423 -1.0689  0.1295
  345MOL0     H46512   9.123   4.979  10.552  1.8368  0.6436 -1.4852
  345MOL0     H46513   9.059   5.044  10.403 -1.5760  0.3198 -0.7105
  345MOL0     H46514   8.912   5.113  10.565  0.8815  0.4580 -1.1574
  345MOL0     H46515   8.825   4.990  10.476 -1.4676 -1.8253  1.1917
  345MOL0     H46516   8.877   4.827  10.657  0.0037  0.0748  2.2559
  345MOL0     H46517   8.968   4.936  10.754  0.2587 -1.1619  0.1945
  345MOL0     H46518   8.684   5.038  10.689 -1.2287 -0.5062  0.8462
  345MOL0     H46519   8.689   4.902  10.790 -1.7459  1.2623  0.7359
  345MOL0     H46520   8.786   5.003  10.959  1.2319 -0.8585 -1.3152
  345MOL0     H46521   8.875   5.130  10.852 -0.2540  1.3723 -2.0489
  345MOL0     H46522   8.567   5.127  10.874 -1.4231  2.3664  0.8734
  345MOL0     H46523   8.653   5.196  11.001 -1.0915  0.3822 -0.0042
  345MOL0     H46524   8.670   5.262  10.711  0.0717  0.6689 -0.0278
  345MOL0     H46525   8.780   5.338  10.826  1.1894 -1.0725 -1.3852
  345MOL0     H46526   8.386   5.311  10.891 -1.1778  1.7739  1.1912
  345MOL0     H46527   8.189   5.491  10.852  0.5056  0.2689 -1.1878
  345MOL0     H46528   8.236   5.536  11.013 -1.5528 -1.0177 -0.3567
  345MOL0     H46529   8.290   5.738  10.791 -0.4148  0.6306 -0.2530
  345MOL0     H46530   8.280   5.751  10.963 -1.1989 -0.0396 -0.3097
  345MOL0     H46531   8.048   5.675  10.957  0.8417 -0.3549 -0.1713
  345MOL0     H46532   8.042   5.684  10.783 -0.5828  3.1730  0.0126
  345MOL0     H46533   8.128   5.917  10.792 -0.6777  0.5397 -0.5206
  345MOL0     H46534   8.082   5.919  10.967  0.1359  0.9220 -0.5371
  345MOL0     H46535   8.050   6.114  10.850 -0.7492 -0.1674 -0.3122
  345MOL0     H46536   8.097   6.336  10.786 -0.5732  0.2525  0.6428
  345MOL0     H46537   7.978   6.417  10.680 -3.9691 -2.1459 -0.3246
  345MOL0     H46538   7.972   6.435  10.862  0.4950 -0.7945  2.1897
  345MOL0     H46539   7.647   6.615  10.526 -0.2981 -3.1046 -1.6348
  345MOL0     H46540   7.485   6.801  10.523  3.2359 -1.6792 -1.9769
  345MOL0     H46541   7.347   6.954  10.668  1.6663 -1.1510 -0.7920
  345MOL0     H46542   7.314   6.939  10.503  0.6318  0.4311 -0.1689
  345MOL0     H46543   7.055   6.978  10.568 -0.0548  0.1210  0.2127
  345MOL0     H46544   7.117   6.980  10.733 -1.4062  0.9219  0.8704
  345MOL0     H46545   7.191   7.184  10.512 -0.3811  0.2968  0.4417
  345MOL0     H46546   7.245   7.190  10.678  1.2279  0.5940 -1.7945
  345MOL0     H46547   6.946   7.217  10.594 -0.2235  2.1023  0.3654
  345MOL0     H46548   7.006   7.204  10.764  0.3843  1.6967  0.5065
  345MOL0     H46549   7.072   7.426  10.556  4.4411  3.1523  1.8793
  345MOL0     H46550   7.162   7.393  10.699  1.2208  1.5897 -1.7580
  345MOL0     H46551   6.933   7.428  10.831 -2.3317  0.8914  0.6242
  345MOL0     H46552   6.983   7.570  10.734 -2.7646  1.2210 -3.4080
  345MOL0     H46553   6.751   7.541  10.710  0.7740  1.7960 -2.6216
  345MOL0     H46554   6.772   7.366  10.662  2.1239 -1.0973  2.2237
  345MOL0     H46555   6.840   7.433  10.452  0.0586  2.0608 -2.0076
  345MOL0     H46556   6.897   7.595  10.511 -0.9448  2.3947  4.0451
  345MOL0     H46557   7.201   6.542  10.721  0.2573 -1.6548  1.1043
  345MOL0     H46558   7.357   6.359  10.709  0.7593 -0.6895  0.6716
  345MOL0     H46559   7.579   6.148  10.752 -0.2168 -1.5510  0.1456
  345MOL0     H46560   7.677   5.946  10.812 -0.3839 -0.6634  2.0918
  345MOL0     H46561   9.095   4.573  10.324 -0.0919  2.6656 -0.3054
  345MOL0     H46562   9.005   4.368  10.210  2.3919  0.5097 -1.1095
  345MOL0     H46563   8.385   4.292  10.128 -1.7524 -0.5839  0.1122
  345MOL0     H46564   8.257   4.104  10.074  0.1088  2.3449 -1.1186
  345MOL0     H46565   8.487   3.776   9.832  1.2344  1.4829 -3.3335
  345MOL0     H46566   8.322   3.725   9.803  0.5058 -0.1977 -2.7748
  345MOL0     H46567   8.382   3.996   9.721  0.5204 -0.8341  1.5363
  345MOL0     H46568   8.297   3.861   9.638  1.6164 -0.1372 -2.2870
  345MOL0     H46569   8.510   3.750   9.597 -1.8604 -0.2548  0.5001
  345MOL0     H46570   8.599   3.877   9.677 -1.0833 -0.6162  0.4356
  345MOL0     H46571   8.424   3.929   9.434 -0.1127  1.4788  0.4109
  345MOL0     H46572   8.586   3.881   9.396  0.5756  1.1785  0.3555
  345MOL0     H46573   8.633   4.275   9.566 -1.8175 -0.1540 -0.4869
  345MOL0     H46574   8.639   3.915   9.928 -1.3758  0.0556 -1.9673
  345MOL0     H46575   8.749   4.119   9.986 -0.9964  2.6729 -1.6417
  346MOL0     O46576  11.034   5.754   5.891 -0.2312  0.5581 -0.0203
  346MOL0     C46577  11.112   5.688   5.964 -0.5563 -0.8134 -0.8657
  346MOL0     O46578  11.096   5.555   6.004 -0.1564 -0.3306  0.4422
  346MOL0     C46579  10.970   5.509   5.966  0.2708 -0.1125 -0.3838
  346MOL0     C46580  10.940   5.436   5.848 -0.5779  0.0642 -0.6959
  346MOL0     C46581  10.815   5.387   5.829  1.0768  0.0826 -0.7422
  346MOL0     C46582  10.706   5.432   5.910 -0.7439 -0.2338  0.0213
  346MOL0     O46583  10.576   5.399   5.874  0.3865  0.5958 -0.4223
  346MOL0     C46584  10.475   5.406   5.977 -0.5152  0.2662 -0.6202
  346MOL0     C46585  10.340   5.355   5.926  0.4437  0.5587  0.0576
  346MOL0     C46586  10.267   5.466   5.855 -0.0871 -0.2343 -0.7985
  346MOL0     C46587  10.151   5.423   5.769  0.8464 -0.4688  0.2816
  346MOL0     C46588  10.093   5.541   5.702  0.3071 -0.2148 -1.0495
  346MOL0     C46589   9.990   5.491   5.595  0.2529  0.8651 -0.6759
  346MOL0     C46590   9.936   5.613   5.519  0.1033 -0.3986  0.1591
  346MOL0     C46591   9.818   5.585   5.420 -0.4627  0.5027  0.1555
  346MOL0     N46592   9.711   5.520   5.489  0.1994 -0.5678 -0.0748
  346MOL0     C46593   9.662   5.394   5.456  0.0548 -0.5627 -0.1992
  346MOL0     C46594   9.558   5.373   5.542  0.7184 -0.6398  0.5771
  346MOL0     C46595   9.459   5.262   5.521  0.2862  0.4852  0.4949
  346MOL0     C46596   9.348   5.300   5.423  0.4190  0.0794 -0.6221
  346MOL0     C46597   9.235   5.397   5.481  0.0381 -0.4780 -0.3173
  346MOL0     C46598   9.127   5.329   5.572  1.4603 -0.1494  0.4639
  346MOL0     O46599   9.052   5.416   5.653 -0.0828 -0.0259 -0.0897
  346MOL0     C46600   8.977   5.506   5.591  0.9083 -0.4193  0.3759
  346MOL0     C46601   9.030   5.635   5.569  0.0035  0.0224  0.3414
  346MOL0     C46602   8.951   5.746   5.528 -0.4877  0.0071 -0.1711
  346MOL0     C46603   9.018   5.889   5.542 -0.0489 -0.0787 -0.2644
  346MOL0     C46604   8.826   5.712   5.461  0.2353  0.5683 -0.3821
  346MOL0     C46605   8.741   5.805   5.369  1.1165  0.6463 -0.5206
  346MOL0     O46606   8.647   5.729   5.296 -0.6265 -0.2023 -0.0248
  346MOL0     C46607   8.549   5.794   5.226 -0.1210 -0.5574  0.0783
  346MOL0     C46608   8.539   5.771   5.088  0.5366  0.0185  0.4548
  346MOL0     C46609   8.438   5.816   5.009  0.2896  0.2701  0.2723
  346MOL0     C46610   8.341   5.899   5.061  0.7237  0.7845  0.6393
  346MOL0     O46611   8.239   5.938   4.973 -1.2170  0.0461  0.9795
  346MOL0     C46612   8.216   6.080   4.973  0.0390  0.2329  0.3851
  346MOL0     C46613   8.193   6.113   4.827 -0.2650  0.0813 -0.2930
  346MOL0     C46614   8.066   6.028   4.768 -1.2020 -0.5223  0.6194
  346MOL0     C46615   7.930   6.061   4.833  0.0198  0.1950 -0.0482
  346MOL0     C46616   7.821   6.010   4.752  0.5242  0.0941 -0.3013
  346MOL0     C46617   7.684   6.055   4.814 -0.2470  0.3845 -0.2873
  346MOL0     C46618   7.648   6.199   4.798  0.0371 -0.1142 -0.4890
  346MOL0     C46619   7.615   6.225   4.647  0.6012  0.2932  0.5801
  346MOL0    Cl46620   7.565   6.390   4.610 -0.1575 -0.4120 -0.3126
  346MOL0     C46621   8.343   5.932   5.197  0.2905  0.0517 -0.2877
  346MOL0     C46622   8.444   5.874   5.280 -0.1838 -0.6688 -0.4916
  346MOL0     O46623   8.761   5.927   5.355  0.3554  1.2505 -0.0416
  346MOL0     C46624   8.785   5.576   5.461  0.1475 -0.2055 -0.2023
  346MOL0     C46625   8.846   5.469   5.535 -0.2913  0.1955  0.5608
  346MOL0     N46626   9.540   5.487   5.625  0.6100 -0.1318 -0.1873
  346MOL0     N46627   9.635   5.573   5.588 -0.1563 -0.0053 -0.2468
  346MOL0     C46628  10.738   5.509   6.021  0.2820 -0.1982 -0.7411
  346MOL0     C46629  10.864   5.547   6.048 -0.6587 -0.5500  0.0020
  346MOL0     C46630  11.227   5.756   6.026 -0.2331 -0.0198 -0.3347
  346MOL0     C46631  11.252   5.888   5.990 -0.3782 -0.8757  0.4391
  346MOL0     C46632  11.376   5.949   6.032  0.2804  0.3148 -0.0455
  346MOL0     C46633  11.463   5.880   6.117  0.2637 -0.0878  0.4540
  346MOL0     O46634  11.574   5.934   6.175 -1.0688  0.8783  0.1847
  346MOL0     C46635  11.611   6.073   6.159  0.1699  0.7162  0.4007
  346MOL0     C46636  11.702   6.080   6.036  0.6096 -0.4696 -0.1062
  346MOL0     C46637  11.855   6.062   6.076  0.1023  0.1748  0.8477
  346MOL0     C46638  11.932   6.190   6.114  0.9600  0.0130  1.3982
  346MOL0     C46639  11.965   6.275   5.997  0.0160  0.4717 -0.1062
  346MOL0     C46640  12.007   6.336   5.900 -0.3671 -0.1525  0.2513
  346MOL0     C46641  11.422   5.749   6.155 -0.1202  1.1091  0.5776
  346MOL0     C46642  11.305   5.692   6.121  0.2780  0.7414  1.2901
  346MOL0     H46643  11.029   5.405   5.793 -0.4436 -0.8128 -0.0069
  346MOL0     H46644  10.781   5.327   5.746  1.0376 -1.1237  0.1276
  346MOL0     H46645  10.512   5.343   6.058 -1.6561  1.1417  0.6190
  346MOL0     H46646  10.461   5.511   6.005 -0.8987  0.6926 -2.2868
  346MOL0     H46647  10.359   5.267   5.863  2.9828  1.2059 -0.2010
  346MOL0     H46648  10.282   5.333   6.016  3.2974  1.6419  2.3544
  346MOL0     H46649  10.218   5.524   5.933  0.2201 -1.0717  0.0300
  346MOL0     H46650  10.336   5.525   5.793 -0.8831  0.0768 -1.4158
  346MOL0     H46651  10.197   5.364   5.689  0.1664  0.5817 -0.9301
  346MOL0     H46652  10.074   5.370   5.825 -0.4091 -0.8690 -1.7229
  346MOL0     H46653  10.033   5.593   5.777  0.5181  1.1787 -1.8353
  346MOL0     H46654  10.162   5.613   5.658 -0.2789 -0.6606 -2.7713
  346MOL0     H46655  10.044   5.428   5.524  2.9272  0.8912  1.2025
  346MOL0     H46656   9.907   5.433   5.636  1.7338 -2.3634 -1.8908
  346MOL0     H46657   9.903   5.679   5.600  1.3384 -1.4578  1.6105
  346MOL0     H46658  10.017   5.666   5.470 -2.0697  0.3730 -2.8311
  346MOL0     H46659   9.858   5.514   5.347 -2.4122 -1.2014  0.6744
  346MOL0     H46660   9.782   5.679   5.377  0.4839  1.1699  0.7541
  346MOL0     H46661   9.699   5.335   5.372  2.7481  2.2646 -1.2254
  346MOL0     H46662   9.507   5.175   5.475 -2.1723 -0.7764  0.1585
  346MOL0     H46663   9.417   5.233   5.618 -0.3424  0.9945  0.3816
  346MOL0     H46664   9.299   5.213   5.378  0.1019  1.4856 -3.2081
  346MOL0     H46665   9.401   5.351   5.343 -1.0101 -1.0274 -2.3449
  346MOL0     H46666   9.187   5.453   5.400 -2.6512 -0.3404  1.2303
  346MOL0     H46667   9.286   5.478   5.534  1.1540 -1.9023  0.8806
  346MOL0     H46668   9.163   5.249   5.636  0.2900 -1.3222 -0.2814
  346MOL0     H46669   9.058   5.274   5.507  2.2793  1.0547 -1.5191
  346MOL0     H46670   9.133   5.651   5.599  0.7462 -1.0195 -1.4878
  346MOL0     H46671   9.037   5.912   5.647  0.6688  1.1268 -0.6360
  346MOL0     H46672   9.111   5.889   5.486 -0.6502 -0.5704 -1.2987
  346MOL0     H46673   8.954   5.970   5.503  0.6427  2.0883  2.7435
  346MOL0     H46674   8.617   5.714   5.038  3.1780  1.9612  2.0541
  346MOL0     H46675   8.444   5.790   4.904 -4.2446  1.1774 -0.4133
  346MOL0     H46676   8.125   6.094   5.032  0.8216 -0.5476  1.8180
  346MOL0     H46677   8.301   6.138   5.009  2.8625 -0.5549 -4.1493
  346MOL0     H46678   8.163   6.218   4.821 -0.2984  0.0337 -1.1460
  346MOL0     H46679   8.283   6.098   4.766  0.9714  2.6619  0.7563
  346MOL0     H46680   8.099   5.924   4.772  0.6640 -0.1246 -2.2556
  346MOL0     H46681   8.064   6.053   4.662  3.0308 -0.6236  0.3783
  346MOL0     H46682   7.934   6.034   4.939  6.5254  1.2853  0.3976
  346MOL0     H46683   7.922   6.170   4.832 -2.1460  0.1584  2.4133
  346MOL0     H46684   7.825   5.901   4.761  3.4346  0.0505 -1.1920
  346MOL0     H46685   7.838   6.046   4.650 -1.5240  1.7446 -0.1214
  346MOL0     H46686   7.602   5.995   4.775 -0.0946  0.9354 -1.4888
  346MOL0     H46687   7.691   6.032   4.921 -0.3585 -3.3262 -0.9569
  346MOL0     H46688   7.729   6.256   4.844  0.4404 -3.2177  3.1741
  346MOL0     H46689   7.558   6.220   4.858  1.3997  1.7317  1.0127
  346MOL0     H46690   7.522   6.173   4.621 -1.2469  3.2772  0.7280
  346MOL0     H46691   7.703   6.203   4.585  0.3847  0.3485  0.2497
  346MOL0     H46692   8.271   6.004   5.235  1.1501 -0.5133  2.6012
  346MOL0     H46693   8.458   5.899   5.385 -2.8674 -2.0580  0.2982
  346MOL0     H46694   8.694   5.539   5.415  0.7648  0.0494 -1.6659
  346MOL0     H46695   8.798   5.372   5.526  1.7648 -0.7474 -1.5044
  346MOL0     H46696  10.661   5.541   6.090 -1.7384 -1.0480 -2.4540
  346MOL0     H46697  10.881   5.601   6.141  1.5836 -0.7915 -0.2154
  346MOL0     H46698  11.189   5.946   5.923  0.7249  1.9840  1.7469
  346MOL0     H46699  11.398   6.052   6.006 -1.3375  0.2335 -1.9679
  346MOL0     H46700  11.529   6.143   6.140  0.5924  0.3080 -4.0021
  346MOL0     H46701  11.671   6.092   6.248  1.9637 -0.6196 -0.4523
  346MOL0     H46702  11.692   6.171   5.977 -1.3952 -1.1659 -0.9112
  346MOL0     H46703  11.679   6.004   5.961 -2.6300  0.9706 -0.7587
  346MOL0     H46704  11.910   6.030   5.987 -1.8537 -0.3029 -0.2543
  346MOL0     H46705  11.868   5.997   6.163  1.6985  1.7787  1.8976
  346MOL0     H46706  12.027   6.164   6.162  1.4239 -0.0604  0.4554
  346MOL0     H46707  11.867   6.251   6.177 -0.0666  1.0079 -0.5233
  346MOL0     H46708  12.036   6.390   5.812 -2.0605 -0.5687 -0.6062
  346MOL0     H46709  11.494   5.684   6.203 -0.6153  0.5725  0.6022
  346MOL0     H46710  11.289   5.588   6.148  0.6994  0.1774 -0.4884
  347MOL0     O46711   4.087  10.831   2.058 -0.0668  0.8923  0.6630
  347MOL0     C46712   4.188  10.823   1.982 -0.4559  0.1207  0.0703
  347MOL0     O46713   4.189  10.782   1.850  0.1906 -0.2206 -0.8777
  347MOL0     C46714   4.062  10.752   1.802  0.6638  1.0107 -0.2708
  347MOL0     C46715   4.006  10.844   1.717  0.9883 -0.1267 -0.5606
  347MOL0     C46716   3.886  10.822   1.651  0.4581 -0.0387 -0.4120
  347MOL0     C46717   3.816  10.701   1.682  0.6538 -0.0701  0.4753
  347MOL0     O46718   3.696  10.677   1.631  0.3613 -0.4762 -0.1778
  347MOL0     C46719   3.597  10.789   1.634  0.1664 -0.5667  0.5330
  347MOL0     C46720   3.459  10.723   1.677 -0.3344 -0.4991  0.2339
  347MOL0     C46721   3.358  10.719   1.554  0.3187 -0.4051 -1.3748
  347MOL0     C46722   3.231  10.654   1.596  0.5109 -0.4070  0.0028
  347MOL0     C46723   3.140  10.655   1.466  0.2108  0.1342  0.0208
  347MOL0     C46724   2.997  10.621   1.502 -0.0389  0.9911 -0.6684
  347MOL0     C46725   2.901  10.593   1.383 -0.2496  0.3798  0.1389
  347MOL0     C46726   2.769  10.523   1.425  0.3593 -0.0023 -0.1946
  347MOL0     N46727   2.787  10.375   1.448 -0.4421 -0.4883  0.0930
  347MOL0     C46728   2.852  10.291   1.364  0.1285  0.5739 -0.1860
  347MOL0     C46729   2.852  10.173   1.435 -0.2033  0.3820  0.2287
  347MOL0     C46730   2.917  10.051   1.377  0.3617  0.5826  0.1124
  347MOL0     C46731   3.055  10.038   1.433 -0.7502 -0.1121 -0.4735
  347MOL0     C46732   3.167  10.091   1.341  0.0788 -0.9511 -0.6130
  347MOL0     C46733   3.234  10.213   1.410  0.0221 -0.3820  0.4030
  347MOL0     O46734   3.324  10.179   1.524 -0.1985  0.0293  0.1735
  347MOL0     C46735   3.452  10.176   1.493 -0.2081  1.0070  1.6188
  347MOL0     C46736   3.515  10.075   1.404  0.7137 -0.7442 -0.8350
  347MOL0     C46737   3.654  10.077   1.375  0.8599  0.1782 -1.0087
  347MOL0     C46738   3.704   9.968   1.278 -0.7631  0.0625  0.2966
  347MOL0     C46739   3.734  10.184   1.433  0.8215 -0.1200  0.0912
  347MOL0     C46740   3.874  10.208   1.415 -0.7252 -0.7531 -0.0894
  347MOL0     O46741   3.949  10.256   1.522 -0.6961 -0.5654  0.3907
  347MOL0     C46742   4.075  10.307   1.512 -0.5554 -0.0982 -0.4198
  347MOL0     C46743   4.099  10.438   1.556 -0.9721 -1.0214  0.0062
  347MOL0     C46744   4.221  10.502   1.564 -0.4738 -0.2521 -0.3679
  347MOL0     C46745   4.331  10.441   1.504 -0.0515  0.1880 -0.1219
  347MOL0     O46746   4.447  10.500   1.481  0.4261 -0.6344 -0.2836
  347MOL0     C46747   4.507  10.587   1.580  0.4248 -0.3831 -0.2297
  347MOL0     C46748   4.662  10.570   1.555 -0.2694 -0.3576 -1.3580
  347MOL0     C46749   4.708  10.630   1.424  0.3968  0.5922  0.6806
  347MOL0     C46750   4.671  10.779   1.409 -0.9187 -0.7214 -0.1140
  347MOL0     C46751   4.783  10.868   1.352  0.6479  0.1234 -0.2337
  347MOL0     C46752   4.841  10.815   1.222  0.0283  0.4315 -0.0852
  347MOL0     C46753   4.944  10.905   1.163 -0.2326  0.1393  0.2933
  347MOL0     C46754   4.995  10.857   1.024  0.3162 -0.5659 -0.1780
  347MOL0    Cl46755   5.091  10.997   0.957 -0.4759 -0.3451 -0.0478
  347MOL0     C46756   4.311  10.314   1.448 -0.4997 -0.1716 -0.4264
  347MOL0     C46757   4.185  10.246   1.461 -0.1312  0.1460 -0.4976
  347MOL0     O46758   3.930  10.180   1.305  0.2426  0.0405  0.0838
  347MOL0     C46759   3.674  10.280   1.518 -0.5272 -0.0457 -0.0351
  347MOL0     C46760   3.534  10.274   1.545  0.5234 -1.1974  0.2337
  347MOL0     N46761   2.766  10.181   1.544  0.2659  0.3144 -0.6055
  347MOL0     N46762   2.735  10.309   1.553  0.0071  0.5664  0.4382
  347MOL0     C46763   3.873  10.606   1.768  0.7472 -0.2468  0.2484
  347MOL0     C46764   3.987  10.630   1.830 -0.5880  0.0053 -0.0966
  347MOL0     C46765   4.319  10.849   2.048 -0.4646 -0.0275  0.0173
  347MOL0     C46766   4.416  10.925   1.982  0.3567  0.3270 -0.2424
  347MOL0     C46767   4.526  10.965   2.050 -0.1370  0.2369  0.0142
  347MOL0     C46768   4.549  10.934   2.183  0.9391  0.4539  0.7281
  347MOL0     O46769   4.661  10.983   2.230  0.2845  0.0613 -0.0021
  347MOL0     C46770   4.699  10.952   2.366 -0.6104 -0.1196  0.2223
  347MOL0     C46771   4.762  10.813   2.365 -0.4180  0.8556  0.3570
  347MOL0     C46772   4.861  10.785   2.246 -0.3832 -0.4785 -0.1292
  347MOL0     C46773   5.000  10.852   2.269  0.8446 -0.2564 -0.3584
  347MOL0     C46774   5.091  10.809   2.165 -0.0555  0.7186  0.1155
  347MOL0     C46775   5.189  10.779   2.101 -0.2725 -0.2708 -0.3301
  347MOL0     C46776   4.457  10.846   2.241 -0.8891 -0.2701  0.2246
  347MOL0     C46777   4.342  10.804   2.177 -0.1280 -0.2456  0.9341
  347MOL0     H46778   4.044  10.945   1.703  1.6426 -0.4758 -1.2940
  347MOL0     H46779   3.847  10.898   1.583  0.6424 -2.1534 -3.0642
  347MOL0     H46780   3.626  10.864   1.708 -0.7617  1.0958 -0.7278
  347MOL0     H46781   3.591  10.839   1.538  0.9527 -0.7837  0.3608
  347MOL0     H46782   3.484  10.623   1.716 -1.9534 -0.7837  0.5896
  347MOL0     H46783   3.419  10.784   1.759  0.2381  0.0931  0.0810
  347MOL0     H46784   3.341  10.823   1.524 -1.4689 -0.2327  0.0722
  347MOL0     H46785   3.405  10.662   1.473  0.3274 -1.9851 -0.2872
  347MOL0     H46786   3.246  10.552   1.632  0.3764 -0.5488 -0.3318
  347MOL0     H46787   3.193  10.707   1.684  0.3451 -1.4822  0.5839
  347MOL0     H46788   3.155  10.752   1.419  5.0118  0.7486  2.2481
  347MOL0     H46789   3.173  10.576   1.398  0.0014  1.6345 -1.9115
  347MOL0     H46790   3.003  10.533   1.567  1.2814  0.2104 -1.7817
  347MOL0     H46791   2.955  10.706   1.556  4.4100  3.7531 -1.0211
  347MOL0     H46792   2.893  10.687   1.328 -0.0248  1.4768  1.9088
  347MOL0     H46793   2.935  10.519   1.309 -3.0574  0.4538 -1.3600
  347MOL0     H46794   2.695  10.533   1.345  1.4593 -1.4078 -1.4651
  347MOL0     H46795   2.738  10.570   1.518  3.7062  1.5427  0.2778
  347MOL0     H46796   2.883  10.308   1.262 -0.0053  2.7246  0.0991
  347MOL0     H46797   2.856   9.969   1.418 -1.1129  2.7310  2.5434
  347MOL0     H46798   2.913  10.048   1.268 -0.7433  2.4605  0.0596
  347MOL0     H46799   3.072   9.931   1.454 -5.8220 -1.3124 -1.1372
  347MOL0     H46800   3.059  10.087   1.530 -3.9632 -2.7871  1.2253
  347MOL0     H46801   3.131  10.121   1.242  0.5600  0.1629 -0.4651
  347MOL0     H46802   3.237  10.007   1.335 -0.7798 -1.8118  0.8786
  347MOL0     H46803   3.153  10.277   1.446 -0.3998 -0.7292  0.0738
  347MOL0     H46804   3.286  10.278   1.339  1.5441  1.2329  2.8561
  347MOL0     H46805   3.446   9.998   1.369 -1.3682  0.0308  1.2716
  347MOL0     H46806   3.624   9.893   1.280 -1.1806  0.5109  1.6895
  347MOL0     H46807   3.712  10.013   1.179  0.7710 -1.1153 -0.1420
  347MOL0     H46808   3.796   9.913   1.298 -1.0490 -0.0553  1.4078
  347MOL0     H46809   4.012  10.493   1.592 -0.5862  0.4436 -1.2112
  347MOL0     H46810   4.238  10.600   1.608  0.4736 -0.9967  1.0288
  347MOL0     H46811   4.474  10.691   1.577  0.3223 -0.2866  2.3137
  347MOL0     H46812   4.485  10.558   1.683 -1.3181 -0.5814 -0.6259
  347MOL0     H46813   4.718  10.623   1.633 -1.6233  1.2495 -1.4295
  347MOL0     H46814   4.686  10.464   1.564 -1.5446 -0.5255  0.8055
  347MOL0     H46815   4.660  10.576   1.342  1.5949 -2.5211  1.8601
  347MOL0     H46816   4.816  10.613   1.417  0.0767 -1.3637 -0.2707
  347MOL0     H46817   4.579  10.784   1.349 -2.0941  1.4619  1.7655
  347MOL0     H46818   4.641  10.817   1.506 -1.5490  0.0886 -0.6172
  347MOL0     H46819   4.860  10.883   1.428 -0.9430  1.3873  1.2028
  347MOL0     H46820   4.742  10.966   1.327  0.0767 -0.5796 -2.2430
  347MOL0     H46821   4.893  10.725   1.256  0.5603  1.2377  1.3236
  347MOL0     H46822   4.766  10.791   1.146 -0.3100 -0.9368  0.6317
  347MOL0     H46823   5.033  10.896   1.227  2.2114 -2.2785 -3.0643
  347MOL0     H46824   4.915  11.010   1.161  1.8516  0.7769  0.9392
  347MOL0     H46825   4.910  10.841   0.958  0.0065  1.8402 -0.4553
  347MOL0     H46826   5.050  10.763   1.031  0.4699 -0.5833 -1.4592
  347MOL0     H46827   4.391  10.266   1.393  0.9296 -0.6675  1.9605
  347MOL0     H46828   4.184  10.147   1.415  2.6321  0.4563 -1.4142
  347MOL0     H46829   3.733  10.358   1.565 -3.4639  1.1587  1.9202
  347MOL0     H46830   3.499  10.362   1.598  1.0280  0.7683 -2.4680
  347MOL0     H46831   3.828  10.507   1.763 -2.6024  1.1867 -2.4217
  347MOL0     H46832   4.042  10.558   1.890  0.3626  0.0968 -0.8173
  347MOL0     H46833   4.399  10.957   1.880 -0.1800 -0.0426 -0.2736
  347MOL0     H46834   4.601  11.024   1.999  1.2560 -2.7073 -1.5977
  347MOL0     H46835   4.775  11.024   2.397 -0.9284 -0.1075  0.9929
  347MOL0     H46836   4.610  10.956   2.430  0.2708 -0.2044  1.4858
  347MOL0     H46837   4.682  10.745   2.335 -0.3549  0.7800  0.3631
  347MOL0     H46838   4.794  10.782   2.465  0.7478  2.7389  0.6319
  347MOL0     H46839   4.815  10.811   2.150  0.8681  0.6998 -0.4359
  347MOL0     H46840   4.880  10.677   2.237 -0.6072 -0.6448  1.2195
  347MOL0     H46841   5.044  10.835   2.368 -0.8716  0.5687  0.5895
  347MOL0     H46842   4.998  10.960   2.252 -1.3105  0.0773  1.4783
  347MOL0     H46843   5.277  10.755   2.046  0.3254 -0.1652  0.5675
  347MOL0     H46844   4.480  10.815   2.343  0.7351  1.0500  0.3056
  347MOL0     H46845   4.279  10.738   2.236  2.7568 -3.1728  1.0149
  348MOL0     O46846   3.809   0.941   4.129  0.1586 -0.4195  1.2526
  348MOL0     C46847   3.790   1.019   4.214  0.9142 -0.4389 -1.2239
  348MOL0     O46848   3.685   1.012   4.309 -0.3859  0.6178 -0.4373
  348MOL0     C46849   3.593   0.907   4.289  0.1808  0.0365  0.1518
  348MOL0     C46850   3.487   0.932   4.214  0.2417 -0.4478 -0.4122
  348MOL0     C46851   3.393   0.838   4.198  1.0948 -0.3657  0.1485
  348MOL0     C46852   3.407   0.700   4.229  0.3109  0.2874 -0.4393
  348MOL0     O46853   3.316   0.597   4.201 -0.6881 -1.2533 -0.0743
  348MOL0     C46854   3.209   0.623   4.103  0.3507 -0.3328  0.2113
  348MOL0     C46855   3.114   0.506   4.082 -0.4641  0.5869  0.0814
  348MOL0     C46856   3.178   0.393   4.003  0.4031 -0.1385  0.2145
  348MOL0     C46857   3.167   0.427   3.860 -0.2572  0.0468 -0.2646
  348MOL0     C46858   3.240   0.321   3.773  0.4858  0.9885 -0.5765
  348MOL0     C46859   3.188   0.177   3.794 -0.7457  0.6434  0.0535
  348MOL0     C46860   3.038   0.157   3.779 -0.0426  0.0654 -1.1056
  348MOL0     C46861   2.994   0.014   3.771 -0.6282  0.6293  0.3968
  348MOL0     N46862   2.850  -0.006   3.737 -0.3536 -0.1274  0.0579
  348MOL0     C46863   2.745   0.010   3.835  0.1461  0.8710  0.6259
  348MOL0     C46864   2.631   0.052   3.761 -0.1376  0.4538 -0.2681
  348MOL0     C46865   2.507   0.094   3.822 -0.0870 -0.3091  0.5603
  348MOL0     C46866   2.467   0.241   3.790 -0.7369  1.1267  0.0267
  348MOL0     C46867   2.359   0.311   3.880 -0.8223  0.2857 -0.4471
  348MOL0     C46868   2.218   0.279   3.826  0.1872 -0.0187  0.0866
  348MOL0     O46869   2.122   0.338   3.920  0.2824  0.1271  0.9738
  348MOL0     C46870   1.999   0.378   3.873 -0.0070 -0.1121 -0.0266
  348MOL0     C46871   1.896   0.286   3.852  0.3959 -1.0943 -0.0853
  348MOL0     C46872   1.769   0.313   3.801  0.2744 -0.4996 -0.1048
  348MOL0     C46873   1.686   0.194   3.761  0.0675 -0.5205  0.4597
  348MOL0     C46874   1.739   0.451   3.777 -1.4369 -0.0424  0.6017
  348MOL0     C46875   1.601   0.504   3.723  0.0688 -1.1233 -0.3523
  348MOL0     O46876   1.496   0.417   3.748  0.1932 -0.4450  0.6867
  348MOL0     C46877   1.361   0.444   3.721 -0.4742 -0.1978  0.1636
  348MOL0     C46878   1.263   0.362   3.786  0.1199 -0.2201 -0.2585
  348MOL0     C46879   1.119   0.393   3.780 -0.5776 -0.1272 -0.0208
  348MOL0     C46880   1.080   0.494   3.688  0.1466  1.0759 -0.9037
  348MOL0     O46881   0.948   0.509   3.668 -0.0914  0.1198 -0.1940
  348MOL0     C46882   0.852   0.501   3.772  0.0543  0.0758  0.5050
  348MOL0     C46883   0.715   0.500   3.697 -1.6064  0.9157  0.4148
  348MOL0     C46884   0.607   0.497   3.806 -0.1449 -0.2083 -0.0768
  348MOL0     C46885   0.472   0.479   3.727 -0.7007  0.5186  0.1247
  348MOL0     C46886   0.352   0.445   3.821  0.1978 -0.0009 -0.0633
  348MOL0     C46887   0.220   0.417   3.754 -0.4077  0.6388  0.6495
  348MOL0     C46888   0.123   0.366   3.860 -1.2548  0.2226  0.0730
  348MOL0     C46889  -0.015   0.339   3.797 -0.9141  0.4735 -0.2411
  348MOL0    Cl46890  -0.130   0.463   3.858  0.5204  0.3200  0.2342
  348MOL0     C46891   1.170   0.564   3.617  0.6863 -0.2437  0.2555
  348MOL0     C46892   1.304   0.546   3.641 -0.0370 -1.3383 -0.2939
  348MOL0     O46893   1.597   0.618   3.671  0.5227 -0.2119 -0.3360
  348MOL0     C46894   1.840   0.541   3.798 -0.0973  0.3479  0.0301
  348MOL0     C46895   1.969   0.509   3.846  0.0367 -0.6497  0.6006
  348MOL0     N46896   2.664   0.056   3.628  0.7484  0.6721  0.7890
  348MOL0     N46897   2.798   0.024   3.621 -0.2192 -0.0828  0.7907
  348MOL0     C46898   3.531   0.676   4.298  0.3432 -0.0559 -0.4393
  348MOL0     C46899   3.620   0.773   4.323  0.3270 -0.4332  0.2049
  348MOL0     C46900   3.891   1.120   4.240  0.0214 -0.5370 -0.3758
  348MOL0     C46901   3.859   1.240   4.308 -0.2850  0.4668  0.9219
  348MOL0     C46902   3.951   1.342   4.317 -0.4597  0.4725  0.0948
  348MOL0     C46903   4.082   1.327   4.264  0.7811 -0.1211  1.0565
  348MOL0     O46904   4.160   1.437   4.274  0.2146 -0.6730 -0.7713
  348MOL0     C46905   4.301   1.427   4.257  0.0308 -0.6309 -0.2187
  348MOL0     C46906   4.339   1.569   4.193  0.6914  0.8082 -0.9062
  348MOL0     C46907   4.489   1.604   4.189 -0.3045 -0.2960 -0.2553
  348MOL0     C46908   4.502   1.752   4.151 -0.9166  0.9017 -0.4448
  348MOL0     C46909   4.647   1.778   4.138  0.0001 -0.8350  0.2140
  348MOL0     C46910   4.767   1.784   4.133  0.5556 -0.2397 -0.0355
  348MOL0     C46911   4.117   1.213   4.187  0.0193  0.0434 -0.1564
  348MOL0     C46912   4.020   1.110   4.175 -0.0388 -0.0143 -0.0927
  348MOL0     H46913   3.483   1.021   4.153 -0.3917  0.1182  0.4377
  348MOL0     H46914   3.300   0.871   4.152  0.3173 -1.2675  1.0223
  348MOL0     H46915   3.140   0.703   4.130 -0.9744 -1.7459  1.1653
  348MOL0     H46916   3.250   0.661   4.009  0.0963 -0.0906  0.1939
  348MOL0     H46917   3.077   0.474   4.180  1.0604  2.6798  1.4419
  348MOL0     H46918   3.020   0.529   4.033 -0.4343  0.0756 -0.2197
  348MOL0     H46919   3.287   0.391   4.018  0.4525 -2.6156 -0.0152
  348MOL0     H46920   3.136   0.298   4.038  1.6460 -1.3551 -1.4573
  348MOL0     H46921   3.062   0.419   3.834  0.1677  4.6229 -4.7701
  348MOL0     H46922   3.198   0.528   3.835 -0.7997  0.2771 -0.0090
  348MOL0     H46923   3.236   0.350   3.667 -1.5821 -0.8740 -1.0683
  348MOL0     H46924   3.345   0.324   3.805  0.5858  0.2743 -0.8237
  348MOL0     H46925   3.243   0.113   3.725 -0.3317  1.3545 -0.2784
  348MOL0     H46926   3.217   0.147   3.895  3.2378 -2.1162 -1.6685
  348MOL0     H46927   2.994   0.210   3.864  1.0400  1.6284 -1.4763
  348MOL0     H46928   3.006   0.208   3.688  0.7622 -0.1362 -1.5153
  348MOL0     H46929   3.015  -0.033   3.868  0.7849 -1.5639 -0.8970
  348MOL0     H46930   3.056  -0.033   3.695 -0.0474  1.4257  0.3652
  348MOL0     H46931   2.766   0.003   3.941  2.6804  0.8369  0.1819
  348MOL0     H46932   2.430   0.027   3.782 -1.7417  1.6059  0.3777
  348MOL0     H46933   2.512   0.086   3.931  2.0024  0.0412  0.5306
  348MOL0     H46934   2.450   0.259   3.683 -3.3816 -4.3675 -0.8209
  348MOL0     H46935   2.561   0.290   3.815  0.4924 -0.9717 -0.3297
  348MOL0     H46936   2.361   0.420   3.870 -1.4871  0.2993 -0.5111
  348MOL0     H46937   2.363   0.302   3.989 -0.8860  1.9186 -0.2902
  348MOL0     H46938   2.198   0.173   3.809 -0.0826  0.2670 -1.5052
  348MOL0     H46939   2.208   0.331   3.731  0.7805  1.2043  0.6759
  348MOL0     H46940   1.919   0.181   3.867  1.9733 -0.8111 -0.3145
  348MOL0     H46941   1.653   0.197   3.657 -1.7792  0.6982  1.0196
  348MOL0     H46942   1.747   0.104   3.774 -0.1496 -0.7582 -0.1534
  348MOL0     H46943   1.589   0.195   3.813 -1.1976 -0.5683 -1.7574
  348MOL0     H46944   1.302   0.280   3.845  0.6396  0.5582  0.5070
  348MOL0     H46945   1.045   0.325   3.820 -0.5806 -0.6985 -0.9545
  348MOL0     H46946   0.859   0.407   3.828 -0.2231  0.0080  0.4288
  348MOL0     H46947   0.872   0.582   3.842  3.3130 -1.7748  1.9628
  348MOL0     H46948   0.725   0.596   3.646 -0.5399  0.6472  0.1075
  348MOL0     H46949   0.715   0.424   3.619  1.2102  1.5017 -0.2709
  348MOL0     H46950   0.608   0.590   3.865  1.7652 -0.5876  0.5665
  348MOL0     H46951   0.631   0.418   3.878  1.8092  0.6682  0.2944
  348MOL0     H46952   0.453   0.573   3.675  1.4364  0.2163 -1.3179
  348MOL0     H46953   0.479   0.396   3.656 -1.0275  0.8532 -0.3029
  348MOL0     H46954   0.342   0.529   3.891  0.2933 -0.5072  0.5723
  348MOL0     H46955   0.385   0.354   3.871 -1.6330 -0.8860 -0.3885
  348MOL0     H46956   0.188   0.507   3.700 -0.7454 -0.1786 -0.5568
  348MOL0     H46957   0.234   0.334   3.685 -0.4454 -0.4699  1.9229
  348MOL0     H46958   0.120   0.450   3.930  0.0797 -0.0098  0.4311
  348MOL0     H46959   0.159   0.272   3.902 -1.1658  0.2694  0.1011
  348MOL0     H46960  -0.052   0.240   3.826 -0.3753  1.3880  4.2637
  348MOL0     H46961  -0.005   0.350   3.688 -1.7793  0.0161 -0.3865
  348MOL0     H46962   1.140   0.643   3.549  0.9167  0.5397  1.0549
  348MOL0     H46963   1.386   0.597   3.593 -0.8883  0.6273  0.2513
  348MOL0     H46964   1.829   0.644   3.763  4.8999 -0.0292 -3.7438
  348MOL0     H46965   2.042   0.590   3.847 -0.3241 -0.2705 -0.9488
  348MOL0     H46966   3.556   0.575   4.331  2.4839  0.8733  1.0318
  348MOL0     H46967   3.707   0.737   4.378 -0.1025 -2.3943 -0.3469
  348MOL0     H46968   3.759   1.266   4.341 -1.3661 -1.3580 -0.7365
  348MOL0     H46969   3.933   1.431   4.376 -1.2340  0.0297  0.5354
  348MOL0     H46970   4.349   1.407   4.353  0.7821  1.1236 -0.1852
  348MOL0     H46971   4.329   1.350   4.184  1.0835 -0.2205 -0.2652
  348MOL0     H46972   4.294   1.649   4.253  0.3724  0.3246 -0.4931
  348MOL0     H46973   4.295   1.556   4.094  1.7674 -1.7052 -1.1160
  348MOL0     H46974   4.535   1.546   4.109 -0.1825  1.2296 -1.3142
  348MOL0     H46975   4.543   1.585   4.282  3.2031  1.9752 -1.6210
  348MOL0     H46976   4.468   1.821   4.229  0.3258 -1.1731  2.0859
  348MOL0     H46977   4.447   1.773   4.059 -2.6391  0.7869  0.5024
  348MOL0     H46978   4.874   1.781   4.132  0.8042  2.9188 -3.4108
  348MOL0     H46979   4.215   1.191   4.144  0.0770 -0.4873  0.2405
  348MOL0     H46980   4.035   1.014   4.126 -3.1143 -1.5437  1.6802
  349MOL0     O46981   9.064   3.658   6.488 -0.1573  0.7423  0.0962
  349MOL0     C46982   9.158   3.635   6.554 -0.7795  0.3499 -0.0342
  349MOL0     O46983   9.186   3.516   6.612 -0.1945 -0.1320 -0.7145
  349MOL0     C46984   9.098   3.415   6.621  0.4848 -0.7725 -1.0702
  349MOL0     C46985   8.958   3.432   6.636 -0.7565 -0.3445 -0.2108
  349MOL0     C46986   8.885   3.315   6.642 -1.0179 -0.1492 -0.6552
  349MOL0     C46987   8.936   3.186   6.631 -0.4889 -0.3670  0.5237
  349MOL0     O46988   8.847   3.078   6.650 -0.4153 -0.7276  0.0936
  349MOL0     C46989   8.840   2.979   6.549 -0.2202 -0.4892 -0.1529
  349MOL0     C46990   8.700   2.977   6.486 -0.3976 -0.2963  0.1229
  349MOL0     C46991   8.669   3.100   6.405  0.0990  0.2149 -0.2794
  349MOL0     C46992   8.518   3.110   6.386  0.0584 -0.1630 -1.4977
  349MOL0     C46993   8.466   2.994   6.306 -0.1451  0.8338  0.7611
  349MOL0     C46994   8.320   3.012   6.271 -0.6004 -0.4525 -0.0463
  349MOL0     C46995   8.277   2.886   6.197  0.1277  0.1949 -0.7791
  349MOL0     C46996   8.129   2.895   6.164  0.4471  0.3544  0.1318
  349MOL0     N46997   8.087   2.803   6.064 -0.3578  0.5092 -0.9049
  349MOL0     C46998   8.165   2.747   5.961  0.0063  0.8244  0.4082
  349MOL0     C46999   8.078   2.662   5.898  0.4045 -1.2452  0.4179
  349MOL0     C47000   8.101   2.579   5.775  0.4236 -0.5306 -0.2629
  349MOL0     C47001   7.997   2.475   5.753  0.6166 -0.2204 -0.2612
  349MOL0     C47002   8.002   2.359   5.843 -0.4912  0.4230 -0.8771
  349MOL0     C47003   7.866   2.287   5.841  0.2226  0.2800  0.0752
  349MOL0     O47004   7.833   2.244   5.709 -0.8970 -0.0058  0.2454
  349MOL0     C47005   7.700   2.202   5.680 -0.7769 -0.0807 -0.4218
  349MOL0     C47006   7.659   2.207   5.547  0.2403  0.0177 -0.4364
  349MOL0     C47007   7.522   2.170   5.513 -0.3849  0.3504  0.0199
  349MOL0     C47008   7.488   2.178   5.364  0.2538 -0.3510  0.1044
  349MOL0     C47009   7.431   2.130   5.611 -1.0344  0.0060  0.4500
  349MOL0     C47010   7.302   2.070   5.588 -0.5200 -0.4933  0.2745
  349MOL0     O47011   7.217   2.154   5.525  0.2641 -0.0044 -1.4205
  349MOL0     C47012   7.084   2.116   5.512  0.6063 -0.2194  0.1398
  349MOL0     C47013   6.995   2.147   5.615 -0.2373 -0.2420  0.1822
  349MOL0     C47014   6.865   2.091   5.614  0.3637 -1.1713  0.3191
  349MOL0     C47015   6.829   2.004   5.508 -0.3700  0.1864 -0.1050
  349MOL0     O47016   6.702   1.948   5.493  0.2837  0.2358 -0.0043
  349MOL0     C47017   6.585   2.034   5.532 -0.9390  0.5470 -0.2453
  349MOL0     C47018   6.463   1.975   5.458 -0.2397  0.2618 -0.7000
  349MOL0     C47019   6.339   2.046   5.500  0.3447  0.4050 -0.2399
  349MOL0     C47020   6.207   1.976   5.459 -0.4217  1.0901  0.0940
  349MOL0     C47021   6.079   2.056   5.499  0.5746 -0.0359  1.2207
  349MOL0     C47022   5.953   1.973   5.470 -0.3925 -0.1511  0.3907
  349MOL0     C47023   5.823   2.046   5.514 -0.1655  0.6754  0.2519
  349MOL0     C47024   5.693   1.984   5.469 -0.2494  0.3065 -0.8547
  349MOL0    Cl47025   5.562   2.102   5.486  0.5984 -0.0615 -0.0263
  349MOL0     C47026   6.922   1.981   5.409 -0.4388  0.4425  0.8249
  349MOL0     C47027   7.050   2.034   5.403 -0.3763  1.0084  0.2313
  349MOL0     O47028   7.276   1.957   5.624 -0.4113  0.2548 -0.8421
  349MOL0     C47029   7.473   2.123   5.740 -0.9512 -0.2827 -0.6868
  349MOL0     C47030   7.610   2.156   5.776  0.2864 -0.3875 -0.3690
  349MOL0     N47031   7.954   2.686   5.961 -0.2314 -0.8542  0.5194
  349MOL0     N47032   7.959   2.766   6.063  0.7365 -0.2809 -0.0970
  349MOL0     C47033   9.075   3.172   6.605  0.0933  0.3982 -0.0234
  349MOL0     C47034   9.150   3.287   6.600 -0.4851 -0.2013 -0.1744
  349MOL0     C47035   9.249   3.745   6.590 -0.2869  0.8009  0.4560
  349MOL0     C47036   9.390   3.734   6.611 -0.0896  0.7828 -0.7938
  349MOL0     C47037   9.475   3.842   6.634  0.4004  0.2315 -0.9243
  349MOL0     C47038   9.422   3.971   6.642  0.0155  0.4364 -0.1034
  349MOL0     O47039   9.512   4.069   6.676 -0.5536 -0.6760 -0.7187
  349MOL0     C47040   9.469   4.207   6.695  0.2360  0.6355 -0.4367
  349MOL0     C47041   9.401   4.225   6.836  0.8129  1.0472  0.5047
  349MOL0     C47042   9.367   4.377   6.854 -0.3879 -0.4517  0.3636
  349MOL0     C47043   9.295   4.416   6.988  0.1767  0.3658 -0.7152
  349MOL0     C47044   9.163   4.350   7.014  0.7625 -0.0839 -0.0493
  349MOL0     C47045   9.057   4.312   7.040  0.3568 -0.3316  0.1572
  349MOL0     C47046   9.287   3.988   6.622  0.9377  0.1528  0.1533
  349MOL0     C47047   9.205   3.878   6.596 -0.2147 -0.1814  0.3728
  349MOL0     H47048   8.909   3.528   6.630 -1.1020 -0.5361 -0.4850
  349MOL0     H47049   8.777   3.313   6.648 -1.1054  0.9357 -1.5024
  349MOL0     H47050   8.906   2.988   6.462 -2.0566 -1.6859 -1.7592
  349MOL0     H47051   8.870   2.879   6.580  2.0191 -0.2334 -1.3283
  349MOL0     H47052   8.695   2.885   6.427 -1.7202 -0.7148  0.8576
  349MOL0     H47053   8.619   2.983   6.560 -0.8746  0.8977 -0.4752
  349MOL0     H47054   8.710   3.181   6.465  0.1492  0.7870 -1.0752
  349MOL0     H47055   8.720   3.092   6.308  0.2080 -2.6990 -0.0799
  349MOL0     H47056   8.465   3.127   6.480  1.3799  0.9475 -0.9232
  349MOL0     H47057   8.513   3.208   6.336 -1.0010  0.8971  0.5753
  349MOL0     H47058   8.529   2.979   6.217  1.3702 -2.9635  2.2323
  349MOL0     H47059   8.467   2.898   6.358  1.1036 -0.2652 -1.1332
  349MOL0     H47060   8.265   3.027   6.364  0.4946  0.6558  0.4589
  349MOL0     H47061   8.312   3.108   6.218  0.9788  1.1240  2.3534
  349MOL0     H47062   8.337   2.885   6.105  2.4951 -2.5774  0.6469
  349MOL0     H47063   8.289   2.797   6.260 -1.0273  0.9944  0.6293
  349MOL0     H47064   8.108   2.994   6.123  2.4543  0.6058 -0.4380
  349MOL0     H47065   8.072   2.889   6.257 -1.1579  1.2163 -0.7591
  349MOL0     H47066   8.272   2.758   5.946  0.0506  2.9796  1.8097
  349MOL0     H47067   8.095   2.646   5.689 -0.5235 -0.4873 -0.1704
  349MOL0     H47068   8.201   2.534   5.779  0.8126  0.2646 -0.7949
  349MOL0     H47069   8.005   2.430   5.653  0.1393 -0.3477 -0.2447
  349MOL0     H47070   7.899   2.521   5.767  1.2968  1.0022  0.6263
  349MOL0     H47071   8.014   2.393   5.946  1.4659  0.5345 -1.0912
  349MOL0     H47072   8.079   2.284   5.820 -1.2517 -1.4000  1.9782
  349MOL0     H47073   7.795   2.362   5.879 -1.3662 -1.1831  0.1374
  349MOL0     H47074   7.873   2.200   5.907  2.1212 -0.3570 -0.9216
  349MOL0     H47075   7.736   2.229   5.474  1.4372  0.0107  0.7893
  349MOL0     H47076   7.433   2.087   5.343 -3.1022  1.7417 -0.9352
  349MOL0     H47077   7.422   2.262   5.339  2.5673  0.7739 -2.8914
  349MOL0     H47078   7.567   2.192   5.289  0.1911  2.7527  0.4573
  349MOL0     H47079   7.012   2.205   5.705 -4.4968  2.1004 -0.2680
  349MOL0     H47080   6.800   2.125   5.695  0.9917 -1.4439  0.9520
  349MOL0     H47081   6.579   2.026   5.641  1.8120  1.6162  0.0540
  349MOL0     H47082   6.590   2.140   5.508 -1.7177  0.5532 -0.4084
  349MOL0     H47083   6.477   1.980   5.350  1.0806 -2.0575 -0.6917
  349MOL0     H47084   6.454   1.869   5.483 -0.3497 -0.0628 -2.0265
  349MOL0     H47085   6.338   2.148   5.461 -2.2469  0.2388 -0.7898
  349MOL0     H47086   6.354   2.056   5.608  2.2831  2.3091 -0.6269
  349MOL0     H47087   6.197   1.966   5.351  3.0946 -1.2660 -0.1894
  349MOL0     H47088   6.208   1.874   5.501  2.3995  0.0338 -2.1840
  349MOL0     H47089   6.071   2.153   5.449  0.8716  0.4107  2.0312
  349MOL0     H47090   6.076   2.065   5.608  0.6372  0.9250  1.1453
  349MOL0     H47091   5.940   1.950   5.364 -1.0833 -2.3221  0.8934
  349MOL0     H47092   5.973   1.880   5.524 -0.0052 -0.4786 -0.2959
  349MOL0     H47093   5.823   2.146   5.469 -0.0765 -0.9613 -3.7263
  349MOL0     H47094   5.828   2.043   5.624  1.9301 -0.5917  0.1740
  349MOL0     H47095   5.665   1.907   5.541 -2.5458 -0.5479 -2.5231
  349MOL0     H47096   5.696   1.945   5.366 -0.7852 -2.8631  0.2127
  349MOL0     H47097   6.900   1.915   5.326  3.2755 -1.6894  1.3079
  349MOL0     H47098   7.115   2.009   5.320 -2.0634  2.2163 -1.5431
  349MOL0     H47099   7.404   2.071   5.806 -0.9880  0.9728  0.3004
  349MOL0     H47100   7.651   2.127   5.872 -0.5829 -0.2031  0.0708
  349MOL0     H47101   9.116   3.073   6.595 -0.7378  0.0728 -0.3417
  349MOL0     H47102   9.257   3.278   6.585 -0.4466  1.5501 -1.3523
  349MOL0     H47103   9.424   3.631   6.610 -1.3920  0.3059 -2.8444
  349MOL0     H47104   9.581   3.836   6.658  0.2582  1.0992 -0.0171
  349MOL0     H47105   9.553   4.277   6.691  0.1548  0.6821 -2.2562
  349MOL0     H47106   9.415   4.241   6.606 -0.5182 -0.2645 -0.3443
  349MOL0     H47107   9.458   4.178   6.917  0.9952 -0.6077 -0.5401
  349MOL0     H47108   9.302   4.179   6.838  0.6629  1.1057 -2.1337
  349MOL0     H47109   9.312   4.417   6.768  0.2621 -2.0303 -0.8389
  349MOL0     H47110   9.452   4.447   6.855 -1.5274  1.0108  1.9064
  349MOL0     H47111   9.277   4.522   7.007  1.0890 -0.0271  3.1874
  349MOL0     H47112   9.364   4.384   7.066 -0.5389 -1.0562 -0.6191
  349MOL0     H47113   8.962   4.271   7.068  0.7638  0.3666  2.8752
  349MOL0     H47114   9.243   4.085   6.638 -1.6282 -0.5056 -2.2104
  349MOL0     H47115   9.097   3.889   6.588 -0.1559 -0.3952 -0.8520
  350MOL0     O47116   2.716   7.272   3.976  0.4758 -0.1968 -0.2162
  350MOL0     C47117   2.758   7.179   4.046 -0.2755 -0.3834  0.1085
  350MOL0     O47118   2.683   7.093   4.107 -0.5036  0.7897  0.4072
  350MOL0     C47119   2.547   7.090   4.122  0.1902  0.4579  0.1790
  350MOL0     C47120   2.448   7.184   4.091 -0.3423 -0.1204 -0.6086
  350MOL0     C47121   2.316   7.164   4.120 -0.1079  0.0293 -0.7929
  350MOL0     C47122   2.273   7.042   4.170  0.3111 -0.1812 -1.0231
  350MOL0     O47123   2.140   7.025   4.180 -0.1492  0.1127 -0.0602
  350MOL0     C47124   2.081   6.893   4.198 -0.2170  0.1497  0.4783
  350MOL0     C47125   1.928   6.924   4.200 -0.7444  0.3268  0.1438
  350MOL0     C47126   1.886   6.981   4.335  0.2057 -0.3030  0.0319
  350MOL0     C47127   1.738   7.023   4.331  0.8560 -0.1767  0.3810
  350MOL0     C47128   1.648   6.900   4.337  0.3342 -0.0958  0.2589
  350MOL0     C47129   1.499   6.933   4.324 -0.0262 -0.6040  0.2170
  350MOL0     C47130   1.392   6.810   4.324 -0.2268 -0.3721  0.2056
  350MOL0     C47131   1.446   6.674   4.329  0.4819  0.0971 -0.5822
  350MOL0     N47132   1.335   6.577   4.335 -0.0193  0.0623  0.4125
  350MOL0     C47133   1.253   6.566   4.231  0.9848 -0.5531 -0.4021
  350MOL0     C47134   1.166   6.467   4.266 -0.2807 -0.4989 -0.0685
  350MOL0     C47135   1.051   6.418   4.190 -0.5998 -0.5303 -0.3208
  350MOL0     C47136   0.957   6.532   4.149 -0.2432  1.3738  0.7778
  350MOL0     C47137   0.815   6.492   4.210  0.2104 -0.3467 -0.0663
  350MOL0     C47138   0.717   6.609   4.202  0.1492  0.1726 -0.3281
  350MOL0     O47139   0.568   6.571   4.218 -0.3719 -1.0384  0.6937
  350MOL0     C47140   0.490   6.536   4.107 -0.7149 -0.2303 -0.0386
  350MOL0     C47141   0.357   6.536   4.134  0.1509  0.8825 -0.5427
  350MOL0     C47142   0.272   6.494   4.039 -0.0340 -0.2349  0.1827
  350MOL0     C47143   0.127   6.486   4.074 -0.0605 -1.2648 -0.1199
  350MOL0     C47144   0.315   6.460   3.913  0.7356 -0.0680  0.2248
  350MOL0     C47145   0.223   6.414   3.804 -0.3135  1.1680 -0.6270
  350MOL0     O47146   0.155   6.296   3.832  0.2238 -0.1360 -0.0718
  350MOL0     C47147   0.065   6.251   3.745  0.1304 -0.0453  1.3182
  350MOL0     C47148   0.100   6.130   3.685  0.9803 -0.2272 -0.2660
  350MOL0     C47149   0.023   6.075   3.579 -1.7183  0.2071  0.0803
  350MOL0     C47150  -0.096   6.135   3.545 -0.0438  0.2944 -0.2397
  350MOL0     O47151  -0.186   6.086   3.456  0.5015 -0.3801  0.5600
  350MOL0     C47152  -0.145   5.995   3.353 -0.0902 -0.1988  0.5806
  350MOL0     C47153  -0.067   6.078   3.248 -0.3427  0.1691 -0.4521
  350MOL0     C47154  -0.004   5.997   3.125  0.3498 -0.5688  0.0846
  350MOL0     C47155   0.074   6.100   3.038 -0.6212  0.2434 -0.6498
  350MOL0     C47156   0.159   6.044   2.921  0.0986  0.5212  0.3714
  350MOL0     C47157   0.291   5.972   2.952 -0.0011 -0.1521  0.5507
  350MOL0     C47158   0.380   5.913   2.845  0.2032 -0.3633  0.2892
  350MOL0     C47159   0.468   6.010   2.772  0.7107  0.3137 -0.2100
  350MOL0    Cl47160   0.580   5.915   2.663 -0.1647  0.2457 -0.1735
  350MOL0     C47161  -0.143   6.246   3.621 -0.1908 -0.6859  0.7832
  350MOL0     C47162  -0.061   6.308   3.718  0.4998 -0.5218  0.3955
  350MOL0     O47163   0.217   6.480   3.707 -0.6848  0.2244 -0.2009
  350MOL0     C47164   0.450   6.475   3.881 -0.4291 -0.3038  0.2570
  350MOL0     C47165   0.542   6.505   3.983  0.0106 -0.6225  0.4533
  350MOL0     N47166   1.188   6.432   4.398 -0.6590  0.2146 -0.4178
  350MOL0     N47167   1.294   6.500   4.435  0.4747  0.8164 -0.2028
  350MOL0     C47168   2.363   6.946   4.200  0.0593 -0.0521 -0.8762
  350MOL0     C47169   2.501   6.969   4.181  0.6959 -0.0689 -0.3622
  350MOL0     C47170   2.906   7.160   4.024 -0.5224  1.2194 -0.1904
  350MOL0     C47171   2.990   7.263   3.967  0.0719  0.4513 -0.4103
  350MOL0     C47172   3.114   7.234   3.934 -0.0335 -0.2193  0.1993
  350MOL0     C47173   3.178   7.114   3.966  0.0017 -0.1365  0.2280
  350MOL0     O47174   3.309   7.078   3.936 -0.4231 -0.8469  0.4344
  350MOL0     C47175   3.376   7.165   3.849 -0.2394 -0.5986 -0.2478
  350MOL0     C47176   3.328   7.144   3.706 -0.3589  0.1030 -0.3160
  350MOL0     C47177   3.366   7.257   3.612 -0.3275 -0.1217  0.0920
  350MOL0     C47178   3.321   7.208   3.465  0.6798  0.0362  0.3566
  350MOL0     C47179   3.415   7.119   3.409  0.5059  0.2394 -0.3431
  350MOL0     C47180   3.505   7.044   3.360  0.9021 -1.1757 -0.3151
  350MOL0     C47181   3.099   7.022   4.033  0.4282  0.0444 -0.3297
  350MOL0     C47182   2.964   7.040   4.064 -0.3698  0.3202 -0.5650
  350MOL0     H47183   2.462   7.274   4.034 -3.6572  0.7196 -0.2773
  350MOL0     H47184   2.242   7.240   4.095 -0.2568  1.5551  3.5341
  350MOL0     H47185   2.101   6.820   4.119 -1.5441 -1.0970  1.2401
  350MOL0     H47186   2.120   6.854   4.293 -2.4231 -0.4419  1.2072
  350MOL0     H47187   1.906   6.997   4.122 -0.4371 -0.7134 -0.9324
  350MOL0     H47188   1.868   6.837   4.173  1.7288 -1.4073 -0.1015
  350MOL0     H47189   1.909   6.916   4.420  1.4179  1.5256  1.2015
  350MOL0     H47190   1.957   7.061   4.359  1.6943 -1.7535  0.6629
  350MOL0     H47191   1.714   7.078   4.422 -0.0053 -0.1121  0.1201
  350MOL0     H47192   1.705   7.081   4.244  2.0815  1.4613  0.9627
  350MOL0     H47193   1.677   6.828   4.260  2.0648  2.0940 -1.2681
  350MOL0     H47194   1.665   6.860   4.438 -2.0081 -0.0702  0.7193
  350MOL0     H47195   1.474   7.005   4.402 -2.0999  1.0389 -1.8200
  350MOL0     H47196   1.478   6.983   4.230 -2.7726  2.2842  2.1471
  350MOL0     H47197   1.326   6.816   4.411 -0.2781 -2.3544  0.3526
  350MOL0     H47198   1.330   6.816   4.234 -0.8872 -3.0959  0.3855
  350MOL0     H47199   1.510   6.663   4.417 -0.7239 -2.0982  0.1052
  350MOL0     H47200   1.510   6.668   4.241  2.6539  2.4057  0.6935
  350MOL0     H47201   1.251   6.623   4.139  3.6027 -0.5554 -0.5142
  350MOL0     H47202   1.068   6.361   4.098 -0.0473 -0.5455 -0.2135
  350MOL0     H47203   1.009   6.341   4.255 -0.7000  0.5014  0.8798
  350MOL0     H47204   0.956   6.528   4.040  1.2761  2.9779  0.6526
  350MOL0     H47205   0.980   6.632   4.186  0.4048  1.1367  1.0201
  350MOL0     H47206   0.822   6.450   4.311  4.2762 -1.0119 -0.4676
  350MOL0     H47207   0.759   6.419   4.150  1.4801 -2.0486  0.7354
  350MOL0     H47208   0.730   6.659   4.106 -0.2542  0.3785 -0.2770
  350MOL0     H47209   0.735   6.679   4.284 -0.8793 -0.1297  0.1705
  350MOL0     H47210   0.321   6.587   4.222  2.0892  0.7997  0.3474
  350MOL0     H47211   0.103   6.548   4.161 -1.7339  1.3728 -2.2814
  350MOL0     H47212   0.065   6.539   4.001 -1.8403 -3.2698 -0.1563
  350MOL0     H47213   0.089   6.384   4.086 -0.3723 -1.1264  0.0964
  350MOL0     H47214   0.198   6.085   3.700  0.6135 -1.2525 -0.8320
  350MOL0     H47215   0.060   5.987   3.528 -0.1445  2.5097 -3.0464
  350MOL0     H47216  -0.089   5.905   3.378 -2.4174 -2.3313 -1.3662
  350MOL0     H47217  -0.234   5.958   3.301  1.2066 -0.7533 -1.3853
  350MOL0     H47218  -0.130   6.156   3.205  2.5738  1.4475 -2.7465
  350MOL0     H47219   0.017   6.125   3.300 -2.9400  1.3387  3.0917
  350MOL0     H47220  -0.083   5.951   3.065 -2.1584 -0.9534  3.4340
  350MOL0     H47221   0.056   5.915   3.167  0.6819 -0.1112  0.5150
  350MOL0     H47222  -0.003   6.169   3.004 -0.1754 -0.3381 -2.9667
  350MOL0     H47223   0.136   6.163   3.103 -0.8673 -0.8275  0.6705
  350MOL0     H47224   0.184   6.123   2.849  3.0617  1.0163  1.8071
  350MOL0     H47225   0.092   5.972   2.872  0.9915 -0.7989  1.0165
  350MOL0     H47226   0.341   6.052   3.007 -1.2042 -0.3277  1.9594
  350MOL0     H47227   0.270   5.889   3.020 -0.8082  2.1019  3.2920
  350MOL0     H47228   0.324   5.845   2.781  0.7404  0.9889 -1.6916
  350MOL0     H47229   0.456   5.853   2.896 -0.0061  0.2104  1.3056
  350MOL0     H47230   0.524   6.070   2.844  0.0538 -0.9296  1.4009
  350MOL0     H47231   0.404   6.077   2.714 -1.2747 -1.5865 -0.3322
  350MOL0     H47232  -0.234   6.298   3.593  1.5420  0.5952 -3.1277
  350MOL0     H47233  -0.080   6.407   3.758  0.9852  0.5095 -1.7888
  350MOL0     H47234   0.492   6.453   3.784  2.0095  4.4943 -0.0850
  350MOL0     H47235   0.647   6.496   3.959 -0.5109  2.6503 -4.4856
  350MOL0     H47236   2.339   6.844   4.227  0.8048 -0.0431 -0.1630
  350MOL0     H47237   2.573   6.894   4.213  0.2236 -0.6414 -0.6104
  350MOL0     H47238   2.951   7.362   3.947  2.2803  1.1703 -1.4685
  350MOL0     H47239   3.159   7.315   3.878 -0.0205 -1.7436 -2.1527
  350MOL0     H47240   3.379   7.271   3.876  1.8500 -0.0467 -2.2652
  350MOL0     H47241   3.484   7.149   3.859 -0.4446 -1.5755  0.6864
  350MOL0     H47242   3.222   7.119   3.707  0.2610 -2.9837  0.3730
  350MOL0     H47243   3.378   7.052   3.672  0.9536  0.0682  1.5535
  350MOL0     H47244   3.467   7.300   3.613 -0.4785  0.2354  1.0732
  350MOL0     H47245   3.304   7.344   3.635  2.0812  1.9494 -0.7840
  350MOL0     H47246   3.320   7.303   3.411 -2.2682  0.6281  1.2978
  350MOL0     H47247   3.220   7.166   3.466  0.7492 -0.1508 -0.2458
  350MOL0     H47248   3.590   6.989   3.326  1.0731 -2.1532  1.5293
  350MOL0     H47249   3.134   6.929   4.076 -5.9520 -1.5645  2.5611
  350MOL0     H47250   2.915   6.957   4.112 -1.1511  2.5715  2.8577
  351MOL0     O47251   4.828   3.278  10.839 -0.0252 -0.0454  0.3264
  351MOL0     C47252   4.875   3.176  10.893  0.2108  1.0712  0.4789
  351MOL0     O47253   4.803   3.054  10.907 -0.2610 -1.0678  0.0126
  351MOL0     C47254   4.703   3.036  10.817 -1.0502  0.1970 -1.2434
  351MOL0     C47255   4.599   3.123  10.802 -0.9673  0.2509  0.3987
  351MOL0     C47256   4.507   3.112  10.692  0.1588 -0.9623  0.3535
  351MOL0     C47257   4.513   3.007  10.601 -0.7152 -0.0063 -0.3392
  351MOL0     O47258   4.427   2.999  10.492  0.4085  0.2320 -0.2996
  351MOL0     C47259   4.347   2.880  10.485 -0.0015  0.2988 -0.2339
  351MOL0     C47260   4.243   2.875  10.588 -0.2089  0.3022  0.4863
  351MOL0     C47261   4.127   2.764  10.566  0.4192 -0.6707 -0.1386
  351MOL0     C47262   4.012   2.787  10.662  0.6479  0.1439 -0.2365
  351MOL0     C47263   3.939   2.922  10.633 -0.2518 -0.4012 -0.0648
  351MOL0     C47264   3.887   2.932  10.482 -0.2596  0.4477 -0.5534
  351MOL0     C47265   3.766   3.015  10.467 -0.1045 -0.7710 -0.7218
  351MOL0     C47266   3.642   2.963  10.544  0.3088  1.0768 -0.1014
  351MOL0     N47267   3.527   3.025  10.473 -0.0515  0.2303  0.7875
  351MOL0     C47268   3.453   2.981  10.362 -0.0526 -0.6623  1.1915
  351MOL0     C47269   3.370   3.091  10.332  0.0336 -0.2047  0.4101
  351MOL0     C47270   3.267   3.092  10.217 -0.4105 -0.7234 -0.3839
  351MOL0     C47271   3.138   3.021  10.257  0.6350 -0.5341  0.2479
  351MOL0     C47272   3.048   3.009  10.129 -0.5358 -0.0629 -1.2367
  351MOL0     C47273   2.920   2.928  10.153 -0.3703 -0.2547  0.5279
  351MOL0     O47274   2.821   2.934  10.047  1.1724 -0.1368  0.7560
  351MOL0     C47275   2.741   2.829  10.021 -0.0072  0.4197 -0.3334
  351MOL0     C47276   2.754   2.705  10.081  0.2429 -0.0580  0.1081
  351MOL0     C47277   2.658   2.612  10.063 -0.3803  1.1279 -0.4814
  351MOL0     C47278   2.699   2.483  10.134  0.2616  0.2054  0.3779
  351MOL0     C47279   2.541   2.633   9.985  0.4573  0.2221  0.2366
  351MOL0     C47280   2.427   2.542   9.969  0.1516 -1.0395  0.5708
  351MOL0     O47281   2.420   2.451  10.071  0.2663 -0.1869  0.2406
  351MOL0     C47282   2.332   2.350  10.050  0.2459  0.2181  0.3414
  351MOL0     C47283   2.358   2.235   9.969 -0.6675 -0.2075  1.1727
  351MOL0     C47284   2.263   2.133   9.954 -0.5461  0.2552 -0.5170
  351MOL0     C47285   2.143   2.135  10.028  0.9817  0.0114  0.3434
  351MOL0     O47286   2.054   2.036   9.996 -0.1841 -0.3405 -0.3525
  351MOL0     C47287   1.911   2.070  10.031 -0.0647  0.3409  0.0832
  351MOL0     C47288   1.828   1.952   9.992  0.1903  0.0607 -0.4108
  351MOL0     C47289   1.682   1.992   9.995  0.3909  0.1356 -0.1914
  351MOL0     C47290   1.581   1.874   9.987  0.2297  0.1198  0.4654
  351MOL0     C47291   1.455   1.929   9.933 -0.4190 -1.2384 -0.7807
  351MOL0     C47292   1.334   1.850   9.964  0.0910  0.1201 -0.7186
  351MOL0     C47293   1.338   1.703   9.924 -0.4311 -0.2421 -0.4840
  351MOL0     C47294   1.357   1.686   9.777 -0.3099  0.5698  0.0568
  351MOL0    Cl47295   1.299   1.534   9.708  0.6639  0.2600 -0.0451
  351MOL0     C47296   2.115   2.249  10.109 -0.5486 -0.0088  0.0924
  351MOL0     C47297   2.217   2.351  10.122  0.4886  0.2734 -0.2575
  351MOL0     O47298   2.374   2.542   9.860  0.2159  0.3449  0.3050
  351MOL0     C47299   2.541   2.760   9.916  0.7741 -0.3966  0.0415
  351MOL0     C47300   2.644   2.849   9.929  0.4527  0.8000 -0.4770
  351MOL0     N47301   3.388   3.190  10.426  0.3260  0.4230  0.0245
  351MOL0     N47302   3.481   3.145  10.502 -0.3635  0.0468 -0.2272
  351MOL0     C47303   4.606   2.905  10.634  0.0224 -0.8269 -0.5922
  351MOL0     C47304   4.699   2.922  10.736 -0.0251 -0.3032 -0.2188
  351MOL0     C47305   5.015   3.176  10.957  0.0183 -1.7168  0.4278
  351MOL0     C47306   5.063   3.054  10.996 -0.5192 -0.0070 -0.3199
  351MOL0     C47307   5.188   3.051  11.063  0.0996 -0.2364 -0.5877
  351MOL0     C47308   5.254   3.163  11.102 -0.2015  1.2092  0.4411
  351MOL0     O47309   5.372   3.137  11.159  0.7989  0.0244  0.3810
  351MOL0     C47310   5.430   3.251  11.233  0.3118  0.6727 -0.5265
  351MOL0     C47311   5.461   3.217  11.381 -0.0232 -0.1972 -0.1649
  351MOL0     C47312   5.335   3.175  11.459 -0.1496  0.2158  0.2194
  351MOL0     C47313   5.383   3.127  11.596  0.5359 -0.3016  0.4562
  351MOL0     C47314   5.262   3.093  11.670  0.2818  0.0804  0.0447
  351MOL0     C47315   5.169   3.056  11.733 -0.0264  0.0105 -0.4079
  351MOL0     C47316   5.199   3.292  11.073 -0.2715 -0.2477  1.3683
  351MOL0     C47317   5.087   3.295  10.991  0.6570 -0.2983 -0.1798
  351MOL0     H47318   4.586   3.201  10.876 -2.3022  1.1043 -0.6982
  351MOL0     H47319   4.435   3.192  10.677  0.2721 -1.0074 -0.5183
  351MOL0     H47320   4.298   2.888  10.388  0.0691  0.4945 -0.2535
  351MOL0     H47321   4.406   2.788  10.486 -1.6347 -0.8173 -1.1570
  351MOL0     H47322   4.301   2.858  10.680  0.1540 -1.2437  0.0082
  351MOL0     H47323   4.198   2.974  10.580  1.6870  1.3323  1.7082
  351MOL0     H47324   4.100   2.775  10.461  1.1611  0.6101 -0.2188
  351MOL0     H47325   4.175   2.668  10.591  0.4153 -0.0998  2.2548
  351MOL0     H47326   3.940   2.704  10.668  1.3159 -0.3373  2.1560
  351MOL0     H47327   4.049   2.800  10.764 -1.5209  1.1955  0.4900
  351MOL0     H47328   3.857   2.935  10.704 -0.1620 -1.0302  0.1643
  351MOL0     H47329   4.009   3.003  10.652  0.5545 -1.4123  1.5652
  351MOL0     H47330   3.961   2.987  10.423 -1.8950  2.7043 -0.6029
  351MOL0     H47331   3.858   2.832  10.448  1.6990 -0.3947  0.0938
  351MOL0     H47332   3.777   3.114  10.512  0.6600 -1.7370  1.3137
  351MOL0     H47333   3.745   3.036  10.361 -0.9253  4.2132  0.1775
  351MOL0     H47334   3.645   2.988  10.651  6.2651  1.6725 -0.0833
  351MOL0     H47335   3.638   2.855  10.531 -0.3995  0.8860  1.4243
  351MOL0     H47336   3.467   2.887  10.308  0.4044  0.2442 -0.3339
  351MOL0     H47337   3.253   3.194  10.181  0.4694 -0.4762 -0.0470
  351MOL0     H47338   3.316   3.040  10.134  0.0812 -2.7912  1.0956
  351MOL0     H47339   3.080   3.078  10.331  0.1663  0.5848 -0.9369
  351MOL0     H47340   3.152   2.918  10.291 -0.0088 -1.5099 -2.2497
  351MOL0     H47341   3.112   2.969  10.050  2.5995 -1.0962  1.5968
  351MOL0     H47342   3.017   3.110  10.101  0.4338  0.7766  0.5467
  351MOL0     H47343   2.866   2.955  10.244  2.2931 -0.6285  2.3247
  351MOL0     H47344   2.959   2.826  10.161 -3.7944 -1.9965 -2.2470
  351MOL0     H47345   2.834   2.695  10.154 -1.1302  1.9696  2.0237
  351MOL0     H47346   2.670   2.496  10.238  1.1915  0.4889  0.6140
  351MOL0     H47347   2.650   2.395  10.091 -0.9424  1.1000 -0.1572
  351MOL0     H47348   2.808   2.475  10.126  0.5393  3.2939 -0.4290
  351MOL0     H47349   2.449   2.231   9.910 -1.5075 -1.6702 -0.1075
  351MOL0     H47350   2.269   2.047   9.888 -2.4907 -0.7571  0.5272
  351MOL0     H47351   1.894   2.099  10.135  1.9908  3.2479 -0.2772
  351MOL0     H47352   1.877   2.158   9.976 -1.3137 -0.9658 -1.3723
  351MOL0     H47353   1.862   1.919   9.893 -2.0477 -0.7857 -0.9571
  351MOL0     H47354   1.855   1.868  10.056  0.8979  0.5358 -0.0746
  351MOL0     H47355   1.664   2.042   9.899 -2.6257 -0.6539 -0.1580
  351MOL0     H47356   1.655   2.065  10.072 -1.7632 -2.1645  1.4015
  351MOL0     H47357   1.620   1.804   9.913  1.8288  0.8649  0.5468
  351MOL0     H47358   1.561   1.819  10.079  1.2856  0.6584  1.0452
  351MOL0     H47359   1.469   1.950   9.826 -1.7820 -0.0691 -0.7551
  351MOL0     H47360   1.439   2.023   9.986  0.0125 -1.7721  0.3225
  351MOL0     H47361   1.316   1.843  10.072 -2.7972 -0.3067 -1.1686
  351MOL0     H47362   1.248   1.895   9.915 -1.3398 -0.6701  0.9520
  351MOL0     H47363   1.249   1.650   9.960 -0.5739  1.3205  1.6141
  351MOL0     H47364   1.423   1.654   9.972 -2.1516  0.0116  3.0827
  351MOL0     H47365   1.465   1.680   9.760 -0.3812  0.1631 -0.2696
  351MOL0     H47366   1.307   1.766   9.723 -3.6344 -1.1562  0.3339
  351MOL0     H47367   2.030   2.251  10.177 -1.0121 -0.5242 -0.4587
  351MOL0     H47368   2.205   2.435  10.191  0.5507  0.7099 -0.7694
  351MOL0     H47369   2.461   2.779   9.845  2.2742  0.2655 -1.5343
  351MOL0     H47370   2.648   2.944   9.877  2.6267 -0.8418 -3.5883
  351MOL0     H47371   4.602   2.817  10.570 -0.8339 -3.0860  2.3038
  351MOL0     H47372   4.774   2.847  10.758 -0.7756 -1.7456 -2.2389
  351MOL0     H47373   5.017   2.961  10.966  2.7937 -1.9054  0.0013
  351MOL0     H47374   5.219   2.950  11.086 -0.9192 -0.9258 -2.0647
  351MOL0     H47375   5.522   3.275  11.179 -0.1457 -2.3242 -2.8818
  351MOL0     H47376   5.371   3.344  11.239  1.4063  1.4046 -0.7882
  351MOL0     H47377   5.517   3.301  11.423  2.1158 -1.9003  0.5405
  351MOL0     H47378   5.527   3.130  11.378  2.2161  1.2234  2.6593
  351MOL0     H47379   5.284   3.093  11.407 -0.5967  0.4365  0.3107
  351MOL0     H47380   5.269   3.262  11.469 -2.0596 -1.2253  0.7399
  351MOL0     H47381   5.425   3.210  11.655 -1.4465  1.4596 -0.5074
  351MOL0     H47382   5.456   3.046  11.588  0.0421 -0.5712 -2.7034
  351MOL0     H47383   5.088   3.020  11.793 -1.1218  0.1964 -1.7445
  351MOL0     H47384   5.251   3.386  11.082 -1.0769  0.5178 -1.1270
  351MOL0     H47385   5.052   3.396  10.973 -1.1710 -0.3106  2.6651
  352MOL0     O47386   6.059   4.718   4.656  0.0024  0.6393  0.8860
  352MOL0     C47387   6.052   4.595   4.677  0.3112  0.0701 -0.0681
  352MOL0     O47388   5.934   4.525   4.703  0.0548  0.3304 -0.0993
  352MOL0     C47389   5.818   4.592   4.741 -0.7748 -0.2273 -0.4144
  352MOL0     C47390   5.691   4.555   4.688 -0.1179  0.2597  0.4262
  352MOL0     C47391   5.572   4.618   4.719 -1.2589  0.3258 -0.6375
  352MOL0     C47392   5.584   4.737   4.795 -0.0966 -0.0043 -0.3786
  352MOL0     O47393   5.471   4.821   4.837  0.3933 -0.1428 -0.4055
  352MOL0     C47394   5.400   4.886   4.731  0.0272 -0.0580  0.3341
  352MOL0     C47395   5.486   5.014   4.711 -0.4664  0.6066  0.8197
  352MOL0     C47396   5.415   5.117   4.614  0.3279 -0.6054 -0.0006
  352MOL0     C47397   5.438   5.065   4.471  0.4158 -0.1565 -0.1429
  352MOL0     C47398   5.366   5.155   4.369  0.1235  0.5419  0.1810
  352MOL0     C47399   5.212   5.138   4.373  1.1751 -1.5041 -0.4315
  352MOL0     C47400   5.152   5.200   4.249  0.1543 -0.0661 -0.2941
  352MOL0     C47401   5.001   5.233   4.267 -0.2175 -1.2447 -0.3096
  352MOL0     N47402   4.927   5.109   4.290 -0.8896 -0.0798 -0.8838
  352MOL0     C47403   4.891   5.017   4.200  0.0312  0.0062 -0.2763
  352MOL0     C47404   4.803   4.936   4.266  0.4869  0.0715 -0.7953
  352MOL0     C47405   4.751   4.805   4.217  0.0266  0.1474 -0.3661
  352MOL0     C47406   4.644   4.835   4.110 -1.0596  0.0832 -0.2514
  352MOL0     C47407   4.516   4.919   4.154 -0.7732 -0.5080  0.2487
  352MOL0     C47408   4.422   4.969   4.034 -0.2628  0.7634  0.2668
  352MOL0     O47409   4.369   4.856   3.958 -0.5751  0.2309  0.1255
  352MOL0     C47410   4.288   4.877   3.852 -0.2562  0.4628  0.4004
  352MOL0     C47411   4.287   4.780   3.750  1.1149  0.2491  0.3768
  352MOL0     C47412   4.233   4.800   3.617 -0.1578 -0.9154 -0.3047
  352MOL0     C47413   4.262   4.697   3.513  0.8351 -0.6904 -0.2274
  352MOL0     C47414   4.152   4.918   3.599  0.6051  1.2980  0.8031
  352MOL0     C47415   4.073   4.950   3.477  1.4417 -0.4091 -0.6841
  352MOL0     O47416   3.963   5.023   3.498  1.1504 -0.4375  0.1688
  352MOL0     C47417   3.876   5.051   3.394 -0.5559 -0.4786  0.4500
  352MOL0     C47418   3.801   4.950   3.326  0.1039 -0.1718 -0.0388
  352MOL0     C47419   3.725   4.990   3.216  0.5409 -0.4472  0.0500
  352MOL0     C47420   3.742   5.125   3.164 -0.0492  0.1378  0.1618
  352MOL0     O47421   3.657   5.157   3.059  0.3406 -0.1064  0.6313
  352MOL0     C47422   3.638   5.293   3.030 -0.4687 -0.4507  0.1252
  352MOL0     C47423   3.544   5.301   2.907  0.1129 -0.4860  0.0124
  352MOL0     C47424   3.407   5.248   2.928 -0.1005  0.0854 -0.0583
  352MOL0     C47425   3.325   5.262   2.802 -0.2794  0.1572  0.4485
  352MOL0     C47426   3.186   5.209   2.814  0.0778 -0.3204  0.1965
  352MOL0     C47427   3.109   5.214   2.682  0.0026  0.1703  0.3390
  352MOL0     C47428   2.965   5.163   2.715 -0.1024 -0.2587  0.7027
  352MOL0     C47429   2.903   5.117   2.582 -0.1247  0.9829 -0.0358
  352MOL0    Cl47430   2.757   5.028   2.623 -0.2497  0.1660 -0.6065
  352MOL0     C47431   3.827   5.213   3.223  0.1624  1.1994 -0.3728
  352MOL0     C47432   3.881   5.179   3.344  0.7552 -0.4846 -0.8298
  352MOL0     O47433   4.104   4.903   3.367 -0.4908  0.5207  0.1623
  352MOL0     C47434   4.132   5.004   3.708  0.6183  0.2620  0.1407
  352MOL0     C47435   4.197   4.984   3.835  0.0690 -0.1673  0.0651
  352MOL0     N47436   4.798   4.977   4.394 -0.6759 -0.0085 -0.6322
  352MOL0     N47437   4.875   5.087   4.412 -0.0022  1.0962 -0.4836
  352MOL0     C47438   5.702   4.773   4.852  0.2158  0.4647 -0.6182
  352MOL0     C47439   5.816   4.701   4.828 -1.0219  0.4494  0.2036
  352MOL0     C47440   6.176   4.515   4.650 -0.4143 -0.0747 -0.5562
  352MOL0     C47441   6.302   4.577   4.665 -0.1738 -0.4443 -0.7200
  352MOL0     C47442   6.419   4.502   4.674 -0.9543 -0.2029  0.3684
  352MOL0     C47443   6.417   4.367   4.667  0.4249 -0.7766 -0.4325
  352MOL0     O47444   6.536   4.298   4.661  0.8712 -0.0739 -0.2270
  352MOL0     C47445   6.557   4.160   4.635  0.2578  0.8634  0.5903
  352MOL0     C47446   6.697   4.141   4.582  0.3467  0.1776  0.5747
  352MOL0     C47447   6.804   4.191   4.671 -0.4055  0.4812 -0.7273
  352MOL0     C47448   6.937   4.232   4.610 -0.3970  0.6559  0.4274
  352MOL0     C47449   6.932   4.371   4.555  0.7026 -0.4791 -0.5847
  352MOL0     C47450   6.909   4.485   4.511  0.7485  0.0180  0.0297
  352MOL0     C47451   6.296   4.301   4.659 -0.0086 -0.5697  0.4026
  352MOL0     C47452   6.178   4.377   4.652  0.6706  0.3855  0.6291
  352MOL0     H47453   5.672   4.483   4.609 -0.8752  0.7136  0.1814
  352MOL0     H47454   5.478   4.587   4.676  0.0973 -2.5552 -1.7729
  352MOL0     H47455   5.391   4.825   4.640 -1.6622  2.1615 -1.0946
  352MOL0     H47456   5.297   4.901   4.763 -0.4266  0.8745 -1.4225
  352MOL0     H47457   5.499   5.064   4.807  3.8205  0.7080  0.4005
  352MOL0     H47458   5.584   4.984   4.674 -0.7771 -1.1932  1.3748
  352MOL0     H47459   5.309   5.116   4.642  0.5897 -0.8162  0.9788
  352MOL0     H47460   5.444   5.221   4.632  0.1435 -0.4163 -0.7455
  352MOL0     H47461   5.544   5.072   4.447  0.4193  3.8846  0.3874
  352MOL0     H47462   5.395   4.965   4.460 -1.8099  0.7550 -0.3051
  352MOL0     H47463   5.401   5.254   4.398 -0.1088  0.9077 -0.7438
  352MOL0     H47464   5.410   5.133   4.271  2.0040  4.1341  0.0642
  352MOL0     H47465   5.175   5.036   4.388  0.3633 -1.2108 -0.3750
  352MOL0     H47466   5.168   5.196   4.455 -1.8628 -2.1302 -1.4798
  352MOL0     H47467   5.209   5.293   4.238  0.3509 -0.0914  0.4507
  352MOL0     H47468   5.151   5.124   4.171 -1.4384  0.7360 -1.0937
  352MOL0     H47469   4.970   5.283   4.175  1.6519 -0.7186 -0.6986
  352MOL0     H47470   4.981   5.302   4.350  1.1408 -0.9759 -0.1900
  352MOL0     H47471   4.941   5.017   4.104  1.1272  0.4464  0.2828
  352MOL0     H47472   4.834   4.743   4.181 -0.4419 -2.1777  2.2577
  352MOL0     H47473   4.700   4.748   4.295  1.5354 -1.2075 -0.3307
  352MOL0     H47474   4.600   4.748   4.060 -1.9637  1.9117 -2.8759
  352MOL0     H47475   4.700   4.888   4.033  0.7586 -1.9718 -0.4070
  352MOL0     H47476   4.551   5.006   4.210  1.2999 -0.7062 -0.6514
  352MOL0     H47477   4.451   4.854   4.214  0.8838 -2.4836  0.0338
  352MOL0     H47478   4.485   5.038   3.977  3.6236 -1.8299  1.0788
  352MOL0     H47479   4.339   5.033   4.067 -0.6071  0.2527  0.4054
  352MOL0     H47480   4.341   4.686   3.759 -2.1168 -2.1566 -2.4576
  352MOL0     H47481   4.263   4.605   3.571  1.3395 -0.2371  0.5127
  352MOL0     H47482   4.189   4.698   3.431  1.0014  1.3982 -0.4082
  352MOL0     H47483   4.361   4.717   3.470  1.7891 -1.6291  1.4204
  352MOL0     H47484   3.805   4.845   3.354  0.3861  0.2002  1.4228
  352MOL0     H47485   3.660   4.927   3.155 -1.5226 -0.2065  1.8682
  352MOL0     H47486   3.588   5.343   3.114 -0.8223 -1.2485  0.4006
  352MOL0     H47487   3.740   5.327   3.007 -0.3535  1.4936  2.9778
  352MOL0     H47488   3.515   5.405   2.886 -0.5279 -0.7308 -0.3555
  352MOL0     H47489   3.590   5.255   2.819 -0.5360  0.4157 -0.8224
  352MOL0     H47490   3.358   5.293   3.015  2.8211  1.5886  0.9124
  352MOL0     H47491   3.408   5.142   2.954 -0.4397  0.8888  3.7630
  352MOL0     H47492   3.321   5.367   2.773 -0.2004 -0.3529 -1.5667
  352MOL0     H47493   3.375   5.194   2.732  0.7476 -0.8080  2.0465
  352MOL0     H47494   3.135   5.258   2.897  0.5651 -1.2827  1.1008
  352MOL0     H47495   3.185   5.108   2.856  0.4474 -0.0545  0.8626
  352MOL0     H47496   3.112   5.313   2.635 -1.1892  0.5698  1.0438
  352MOL0     H47497   3.156   5.151   2.606 -1.3167 -0.8001  0.2904
  352MOL0     H47498   2.906   5.242   2.762  0.7661  2.2276 -2.0604
  352MOL0     H47499   2.966   5.081   2.788  0.3444 -0.2015  0.7622
  352MOL0     H47500   2.969   5.038   2.543  0.3812  0.2861  2.0554
  352MOL0     H47501   2.882   5.198   2.512  3.7624  1.5754 -0.7311
  352MOL0     H47502   3.840   5.313   3.182  1.6619  0.8732 -0.7598
  352MOL0     H47503   3.947   5.242   3.402  0.1951 -0.2032 -0.4957
  352MOL0     H47504   4.060   5.085   3.697 -1.3039 -1.5418 -1.4457
  352MOL0     H47505   4.161   5.054   3.911 -2.8852  2.3858 -3.3533
  352MOL0     H47506   5.700   4.855   4.923  0.1344 -1.6110  1.9179
  352MOL0     H47507   5.906   4.733   4.879  0.4955  0.2935 -2.1908
  352MOL0     H47508   6.306   4.685   4.666 -0.6970 -0.3949 -1.8819
  352MOL0     H47509   6.511   4.561   4.673  0.3790 -1.9795 -4.2365
  352MOL0     H47510   6.559   4.107   4.730  0.1200  0.3876  0.3276
  352MOL0     H47511   6.486   4.112   4.567  2.5233  0.6140 -1.7284
  352MOL0     H47512   6.715   4.189   4.485 -2.2402 -1.2173 -0.6942
  352MOL0     H47513   6.719   4.037   4.558  3.7712  1.4277 -2.8567
  352MOL0     H47514   6.835   4.117   4.746  1.8990  2.0223 -0.0395
  352MOL0     H47515   6.764   4.274   4.730  0.8642  1.8009 -1.6593
  352MOL0     H47516   6.985   4.165   4.538  2.6013  2.0185  0.9579
  352MOL0     H47517   7.006   4.236   4.695  1.0991  0.7877 -0.7272
  352MOL0     H47518   6.884   4.579   4.466 -0.5562 -0.3159  0.0069
  352MOL0     H47519   6.294   4.193   4.660  0.5963 -0.5859  0.0396
  352MOL0     H47520   6.083   4.325   4.648  1.8855 -2.0115  0.4510
  353MOL0     O47521   2.666   6.213   1.523 -0.0613 -0.3675 -0.5549
  353MOL0     C47522   2.693   6.093   1.548 -0.2963 -1.4824  0.3446
  353MOL0     O47523   2.617   5.985   1.521 -0.0425  0.2612 -0.1555
  353MOL0     C47524   2.511   6.008   1.450  0.2465 -0.3577  0.0814
  353MOL0     C47525   2.520   5.991   1.311 -0.5393  0.1580 -0.2275
  353MOL0     C47526   2.409   6.010   1.233  0.3114  0.2449 -0.6571
  353MOL0     C47527   2.281   6.033   1.283  0.4550  0.4896 -0.2049
  353MOL0     O47528   2.167   6.049   1.213  0.0702  0.0120  0.3263
  353MOL0     C47529   2.177   6.003   1.079 -0.5810 -0.4357 -0.3831
  353MOL0     C47530   2.054   6.001   1.004  1.3729  0.4230  0.3830
  353MOL0     C47531   1.950   5.916   1.068 -0.4594  0.2713 -0.9505
  353MOL0     C47532   1.814   5.951   1.001 -0.0990  0.3789  0.5297
  353MOL0     C47533   1.712   5.839   1.038  0.6048  0.2489 -0.4056
  353MOL0     C47534   1.562   5.889   1.025 -0.1305 -0.3487 -0.5225
  353MOL0     C47535   1.446   5.792   1.064 -0.9536  0.9299  0.2394
  353MOL0     C47536   1.307   5.842   1.035 -0.5762  0.2571 -0.3302
  353MOL0     N47537   1.207   5.773   1.117 -0.2561 -0.5121 -0.9008
  353MOL0     C47538   1.184   5.813   1.246 -0.6783 -0.5802 -0.4665
  353MOL0     C47539   1.057   5.778   1.280 -0.2849 -0.4947 -0.4392
  353MOL0     C47540   0.987   5.805   1.408 -0.2319 -0.0491  0.2397
  353MOL0     C47541   0.987   5.668   1.482  0.0189  0.0278  0.5858
  353MOL0     C47542   0.846   5.615   1.499 -0.3532 -0.6520  1.3807
  353MOL0     C47543   0.805   5.531   1.375 -0.6075  0.7349  0.8449
  353MOL0     O47544   0.678   5.479   1.409  0.4655 -0.0473  0.4631
  353MOL0     C47545   0.557   5.554   1.390  0.0729  0.1555  0.0480
  353MOL0     C47546   0.505   5.559   1.260 -0.0623 -0.7064  0.4834
  353MOL0     C47547   0.379   5.614   1.227 -0.1817 -0.4650 -0.0231
  353MOL0     C47548   0.332   5.584   1.087 -0.7013 -0.4624 -0.7895
  353MOL0     C47549   0.306   5.685   1.330  0.4955 -0.3327 -0.1354
  353MOL0     C47550   0.180   5.753   1.303 -0.0728 -0.0267  0.2754
  353MOL0     O47551   0.114   5.790   1.414  1.0210  0.1456  0.1661
  353MOL0     C47552   0.016   5.884   1.408 -0.4327  0.6710  0.6467
  353MOL0     C47553  -0.118   5.851   1.375 -0.3628  0.8228 -0.2234
  353MOL0     C47554  -0.208   5.957   1.375  0.2242  0.4214 -0.1710
  353MOL0     C47555  -0.169   6.092   1.386 -0.1179  0.1288  0.2759
  353MOL0     O47556  -0.262   6.195   1.375 -0.2132  0.1300  0.5770
  353MOL0     C47557  -0.404   6.183   1.368 -0.6879  1.4322 -0.4622
  353MOL0     C47558  -0.466   6.327   1.379 -0.8003  0.3201  0.8737
  353MOL0     C47559  -0.619   6.305   1.409 -1.4645 -1.0245  0.4022
  353MOL0     C47560  -0.718   6.414   1.353 -1.0018  0.2446  0.1729
  353MOL0     C47561  -0.848   6.427   1.431  0.4519  0.3035 -0.5389
  353MOL0     C47562  -0.938   6.526   1.372  0.6360  0.0526 -0.3788
  353MOL0     C47563  -1.057   6.569   1.466 -0.9042  0.8337 -0.4727
  353MOL0     C47564  -1.091   6.723   1.452 -0.1378  0.0884  0.3497
  353MOL0    Cl47565  -1.155   6.759   1.287 -0.2757  0.1778 -0.2160
  353MOL0     C47566  -0.036   6.114   1.409 -1.1800  0.3236  0.2643
  353MOL0     C47567   0.058   6.015   1.429  0.3151  0.0972  0.7603
  353MOL0     O47568   0.156   5.787   1.194 -0.0230  0.0702 -0.2676
  353MOL0     C47569   0.366   5.688   1.460 -0.1813 -0.0878  0.5196
  353MOL0     C47570   0.493   5.626   1.485 -0.2746 -0.5615 -0.0347
  353MOL0     N47571   1.011   5.705   1.168  0.1209  0.4436  0.2519
  353MOL0     N47572   1.100   5.706   1.073 -0.1067 -0.2282  0.2248
  353MOL0     C47573   2.278   6.052   1.423  0.0488  0.3130  0.1687
  353MOL0     C47574   2.390   6.038   1.505  0.2920  0.9187 -0.8263
  353MOL0     C47575   2.828   6.066   1.599  0.3607  0.1819 -0.0376
  353MOL0     C47576   2.927   6.171   1.621 -0.0361 -0.4082 -0.3219
  353MOL0     C47577   3.040   6.132   1.690 -0.8134  0.8281  0.7647
  353MOL0     C47578   3.068   6.003   1.734 -0.3727  0.4517 -0.1526
  353MOL0     O47579   3.189   5.977   1.796 -0.5376  0.4047 -0.2647
  353MOL0     C47580   3.202   5.849   1.855 -0.0218 -0.1000 -0.4800
  353MOL0     C47581   3.341   5.849   1.924 -0.0476 -0.6114  0.7674
  353MOL0     C47582   3.457   5.901   1.828 -0.8918  0.3377  0.3176
  353MOL0     C47583   3.469   6.048   1.776  0.1042 -0.6715  0.5217
  353MOL0     C47584   3.604   6.088   1.732 -0.8065  0.0784  0.5775
  353MOL0     C47585   3.718   6.105   1.704  0.7945  1.2527  0.5571
  353MOL0     C47586   2.973   5.900   1.714 -0.9976  0.0443 -0.3300
  353MOL0     C47587   2.851   5.932   1.650  0.6499 -0.2382 -0.1821
  353MOL0     H47588   2.613   5.972   1.258  0.2375  3.2813 -0.1726
  353MOL0     H47589   2.430   6.018   1.127 -0.1227 -2.6384 -1.0398
  353MOL0     H47590   2.250   6.065   1.026 -0.8399  1.1404  1.0052
  353MOL0     H47591   2.216   5.901   1.081 -0.2817 -0.3114  1.0071
  353MOL0     H47592   2.034   6.109   1.001  2.5700  0.7874  2.8764
  353MOL0     H47593   2.065   5.956   0.905  0.3477 -1.4262  1.0502
  353MOL0     H47594   1.979   5.812   1.054 -4.7486 -1.1075 -1.1030
  353MOL0     H47595   1.945   5.943   1.174 -0.6348  3.6916 -1.7155
  353MOL0     H47596   1.765   6.042   1.036 -1.4193 -0.9957  2.4440
  353MOL0     H47597   1.818   5.943   0.892 -0.8517 -0.1635  0.5345
  353MOL0     H47598   1.735   5.748   0.982  2.2964  1.0081 -1.0170
  353MOL0     H47599   1.725   5.818   1.145  2.4451 -0.8930 -0.8048
  353MOL0     H47600   1.556   5.978   1.089  3.1602  2.2678 -3.4674
  353MOL0     H47601   1.545   5.932   0.926  0.8039  4.3800  1.1059
  353MOL0     H47602   1.474   5.706   1.002  0.8182 -0.0580  2.2574
  353MOL0     H47603   1.463   5.758   1.167 -2.0099 -0.8451 -0.1366
  353MOL0     H47604   1.288   5.838   0.927 -1.4241 -2.1962 -0.1460
  353MOL0     H47605   1.306   5.944   1.075 -1.4360  0.4067 -0.7116
  353MOL0     H47606   1.246   5.881   1.302 -0.4116 -1.3590  0.2034
  353MOL0     H47607   1.041   5.876   1.470  0.8151 -0.7090  0.1153
  353MOL0     H47608   0.884   5.836   1.388 -0.2744  0.3990  1.1006
  353MOL0     H47609   1.025   5.698   1.580  2.8517  3.0425 -1.1814
  353MOL0     H47610   1.048   5.591   1.435 -1.7699 -2.4062  2.0350
  353MOL0     H47611   0.777   5.697   1.516 -1.5445 -0.8939 -1.5996
  353MOL0     H47612   0.842   5.550   1.586 -1.0793 -2.7754 -0.1411
  353MOL0     H47613   0.875   5.454   1.342 -0.5477 -0.1320  2.8245
  353MOL0     H47614   0.798   5.614   1.304 -3.6570  0.0057  0.1153
  353MOL0     H47615   0.570   5.515   1.185  1.0718 -1.3273  1.7900
  353MOL0     H47616   0.329   5.675   1.026  0.9150 -1.0814 -1.8581
  353MOL0     H47617   0.411   5.531   1.033  0.4295  0.3184  0.0488
  353MOL0     H47618   0.229   5.548   1.079 -1.1457  0.8863 -1.5319
  353MOL0     H47619  -0.153   5.749   1.371  0.0859  0.6358  0.4788
  353MOL0     H47620  -0.310   5.940   1.343 -0.2208 -0.4417  1.5669
  353MOL0     H47621  -0.437   6.134   1.276  1.9318 -0.9528 -0.2794
  353MOL0     H47622  -0.439   6.131   1.458 -0.8582  2.1536 -0.1048
  353MOL0     H47623  -0.418   6.384   1.459  0.2158  0.5771  0.1039
  353MOL0     H47624  -0.460   6.387   1.288  0.5971  0.0226  0.7473
  353MOL0     H47625  -0.634   6.294   1.517 -1.4982 -0.7678  0.4244
  353MOL0     H47626  -0.647   6.215   1.353 -2.0239  0.6975 -2.2627
  353MOL0     H47627  -0.658   6.505   1.359  0.1455 -0.4038 -0.8410
  353MOL0     H47628  -0.744   6.390   1.250 -1.5032 -2.3858  0.8342
  353MOL0     H47629  -0.822   6.445   1.536  1.2363  0.4945 -0.7585
  353MOL0     H47630  -0.917   6.342   1.431 -0.8731  1.3406 -1.5564
  353MOL0     H47631  -0.869   6.609   1.353 -0.2613  0.9898  0.3603
  353MOL0     H47632  -0.977   6.492   1.275 -0.4935 -1.0385  0.4330
  353MOL0     H47633  -1.025   6.544   1.567 -0.8276  0.3204 -0.6192
  353MOL0     H47634  -1.138   6.498   1.445  1.2868 -1.3521 -2.1223
  353MOL0     H47635  -0.998   6.781   1.456 -0.1275  0.0566  0.5949
  353MOL0     H47636  -1.157   6.752   1.534 -0.9258 -0.8068  0.0466
  353MOL0     H47637  -0.003   6.217   1.407 -1.4449  0.4704 -3.6428
  353MOL0     H47638   0.163   6.038   1.444  1.3896 -0.4172 -4.3066
  353MOL0     H47639   0.321   5.740   1.544  1.1147  1.4277  0.3332
  353MOL0     H47640   0.544   5.619   1.581 -1.5202 -2.0070  0.5651
  353MOL0     H47641   2.184   6.076   1.472  1.3069  1.6594  2.0388
  353MOL0     H47642   2.387   6.038   1.614 -0.0720 -1.2778 -0.8042
  353MOL0     H47643   2.914   6.276   1.599  2.7404  0.8298  2.9857
  353MOL0     H47644   3.120   6.203   1.705  2.0532 -2.1038  0.5984
  353MOL0     H47645   3.128   5.838   1.934  1.7009  1.5726  1.5011
  353MOL0     H47646   3.209   5.769   1.781  0.9359 -0.1413 -0.3582
  353MOL0     H47647   3.367   5.744   1.941 -0.6464 -0.8933 -0.0013
  353MOL0     H47648   3.335   5.899   2.021  0.8677  0.3437  0.3555
  353MOL0     H47649   3.455   5.844   1.735  1.7146  1.4229 -0.4703
  353MOL0     H47650   3.555   5.887   1.875 -0.6479  0.2200 -0.2240
  353MOL0     H47651   3.444   6.116   1.857 -2.0541 -2.7782  1.7685
  353MOL0     H47652   3.398   6.064   1.694  0.8392  1.2756  0.2237
  353MOL0     H47653   3.819   6.111   1.669  1.3661 -0.9516  1.6687
  353MOL0     H47654   2.975   5.799   1.754 -1.4595  0.3146  0.4008
  353MOL0     H47655   2.776   5.853   1.646  2.1071 -1.7320  0.4679
  354MOL0     O47656   5.417  10.932   9.604  0.0423 -0.4523  0.0268
  354MOL0     C47657   5.498  10.993   9.676  0.4656  0.1211  0.3428
  354MOL0     O47658   5.467  11.097   9.758  0.1063 -1.0806 -0.6238
  354MOL0     C47659   5.349  11.158   9.728  0.2631 -0.3502 -0.1972
  354MOL0     C47660   5.325  11.241   9.621  0.0523  1.5865  0.2886
  354MOL0     C47661   5.212  11.313   9.607 -0.7539 -0.1870 -0.0961
  354MOL0     C47662   5.109  11.308   9.708 -0.5951 -0.3033 -0.6852
  354MOL0     O47663   5.001  11.386   9.679  0.1823  0.0060  0.4652
  354MOL0     C47664   4.908  11.343   9.574 -0.3401 -0.0075 -0.5965
  354MOL0     C47665   4.814  11.462   9.554 -0.0605  0.2703 -0.1893
  354MOL0     C47666   4.887  11.597   9.531  0.1432 -0.7633 -0.6098
  354MOL0     C47667   4.808  11.708   9.466 -0.6942  0.1371 -0.4111
  354MOL0     C47668   4.891  11.841   9.469 -0.2745  0.1273  0.8356
  354MOL0     C47669   4.825  11.961   9.392 -0.5484 -0.3294  0.6069
  354MOL0     C47670   4.896  12.097   9.391 -0.1623 -0.3944  0.1966
  354MOL0     C47671   5.048  12.079   9.346  0.8131 -0.6927  0.1584
  354MOL0     N47672   5.105  12.214   9.330 -0.3086  0.6044  0.5552
  354MOL0     C47673   5.084  12.318   9.420  1.0014  0.0121  0.2795
  354MOL0     C47674   5.135  12.431   9.366 -0.1945  0.2771 -0.2004
  354MOL0     C47675   5.140  12.565   9.430 -0.1407 -0.9902 -0.2297
  354MOL0     C47676   5.049  12.670   9.360  0.2098  0.6301  0.9813
  354MOL0     C47677   4.895  12.616   9.376  0.2181  0.1201  1.0395
  354MOL0     C47678   4.808  12.739   9.344  0.0498  0.8676  0.2705
  354MOL0     O47679   4.791  12.756   9.200 -0.2046 -0.9371  0.1727
  354MOL0     C47680   4.672  12.829   9.154 -0.2360  0.5254  0.0898
  354MOL0     C47681   4.617  12.935   9.233  0.6829  0.5744  0.0902
  354MOL0     C47682   4.511  13.005   9.175  0.9957 -0.2370 -0.6011
  354MOL0     C47683   4.459  13.120   9.266  0.6337  0.3129  0.6083
  354MOL0     C47684   4.464  12.985   9.042  0.0178  0.4212 -0.0774
  354MOL0     C47685   4.364  13.064   8.977  0.0540  0.0279  0.3646
  354MOL0     O47686   4.261  12.998   8.921  0.0015 -0.2041 -0.4474
  354MOL0     C47687   4.188  13.085   8.847 -0.3127  0.0409 -1.2652
  354MOL0     C47688   4.177  13.084   8.712 -1.0405  1.2662 -0.6482
  354MOL0     C47689   4.079  13.149   8.643 -0.1860  0.4446 -0.8573
  354MOL0     C47690   3.981  13.225   8.711  0.3479  0.1678 -0.0055
  354MOL0     O47691   3.869  13.286   8.653  0.2742  0.8076  0.2189
  354MOL0     C47692   3.855  13.292   8.509  0.2132 -0.5141  1.6303
  354MOL0     C47693   3.789  13.161   8.460 -0.8421  0.4058 -0.3544
  354MOL0     C47694   3.647  13.155   8.523 -0.6448 -0.7581  0.0768
  354MOL0     C47695   3.583  13.021   8.499 -0.2682 -0.4449  0.4351
  354MOL0     C47696   3.443  13.018   8.553  0.6675  0.4538 -0.1144
  354MOL0     C47697   3.413  12.900   8.642 -0.7027  0.8829  0.0688
  354MOL0     C47698   3.499  12.890   8.775  0.3496  0.1148  0.1231
  354MOL0     C47699   3.513  12.754   8.829 -0.7779  0.4565  0.4073
  354MOL0    Cl47700   3.636  12.652   8.732 -0.0017  0.2106 -0.0283
  354MOL0     C47701   3.986  13.232   8.849  0.1601 -0.2593  0.1116
  354MOL0     C47702   4.087  13.163   8.917 -0.9236  0.1427  0.7273
  354MOL0     O47703   4.394  13.186   8.967  1.1513 -0.1224  0.4678
  354MOL0     C47704   4.513  12.874   8.975  0.1669  0.1917 -0.0376
  354MOL0     C47705   4.621  12.800   9.026 -0.2016  0.6961  0.0696
  354MOL0     N47706   5.200  12.393   9.249  0.2074 -0.7590 -0.2883
  354MOL0     N47707   5.174  12.272   9.228  0.0678  0.0433 -0.6181
  354MOL0     C47708   5.121  11.215   9.813 -0.3410 -0.3817 -0.6913
  354MOL0     C47709   5.245  11.143   9.825 -1.5226  0.4543 -0.1282
  354MOL0     C47710   5.642  10.947   9.677 -0.1165  0.1552 -0.1954
  354MOL0     C47711   5.743  11.014   9.752  0.1613 -0.0504 -0.2951
  354MOL0     C47712   5.866  10.965   9.755 -1.3437 -0.1427 -0.6636
  354MOL0     C47713   5.902  10.845   9.684 -0.3311 -0.2463  0.4127
  354MOL0     O47714   6.027  10.793   9.678 -0.5013  0.0655 -0.2616
  354MOL0     C47715   6.121  10.846   9.761 -0.1668 -0.2032  1.0590
  354MOL0     C47716   6.256  10.765   9.739 -0.2896  0.0533  0.2462
  354MOL0     C47717   6.325  10.778   9.598  0.3242 -0.3090  0.7474
  354MOL0     C47718   6.475  10.746   9.598  0.2956  0.3139 -0.9985
  354MOL0     C47719   6.494  10.602   9.636 -0.1335 -0.6750  0.1547
  354MOL0     C47720   6.515  10.486   9.669  0.6513 -0.2799 -0.3714
  354MOL0     C47721   5.807  10.775   9.610  1.0718 -0.0199 -0.1464
  354MOL0     C47722   5.678  10.827   9.605 -0.1213 -0.5267 -0.6464
  354MOL0     H47723   5.402  11.252   9.544 -2.1515 -1.4536 -2.6040
  354MOL0     H47724   5.194  11.387   9.530 -0.6012 -0.3445 -0.2833
  354MOL0     H47725   4.960  11.337   9.478 -0.8356  2.5824 -1.1050
  354MOL0     H47726   4.853  11.254   9.607 -0.4256  1.0692  2.5184
  354MOL0     H47727   4.752  11.434   9.468 -2.6775  0.1280  1.6282
  354MOL0     H47728   4.744  11.447   9.637 -1.8189 -0.7165 -1.7652
  354MOL0     H47729   4.904  11.631   9.633 -4.1899 -4.4777  1.7334
  354MOL0     H47730   4.978  11.582   9.472  1.5447  1.7449  0.7512
  354MOL0     H47731   4.784  11.688   9.361 -1.1082 -2.8475  0.1658
  354MOL0     H47732   4.719  11.742   9.520 -2.3695  0.1110 -2.9524
  354MOL0     H47733   4.914  11.878   9.569 -0.6369 -0.8194  1.2753
  354MOL0     H47734   4.988  11.813   9.426  0.0697 -0.4919  1.9681
  354MOL0     H47735   4.807  11.941   9.285  0.0932 -2.5147  0.8526
  354MOL0     H47736   4.732  11.996   9.437  0.1740 -0.3078  2.1317
  354MOL0     H47737   4.833  12.159   9.327 -0.2157 -0.5465  0.1015
  354MOL0     H47738   4.908  12.130   9.494  0.0645 -0.6244  0.2456
  354MOL0     H47739   5.055  12.034   9.247  1.4936  1.1422 -0.6883
  354MOL0     H47740   5.104  12.025   9.423 -0.9072  0.3853  2.3075
  354MOL0     H47741   5.030  12.318   9.514  1.3282  0.8236  0.4814
  354MOL0     H47742   5.111  12.551   9.534  1.2985  0.9084  0.4868
  354MOL0     H47743   5.236  12.615   9.449 -0.7474 -0.6363  2.2280
  354MOL0     H47744   5.084  12.690   9.258  0.3557 -0.7264  0.7457
  354MOL0     H47745   5.063  12.759   9.422  2.2158  0.8641  0.2951
  354MOL0     H47746   4.882  12.580   9.479 -0.3451  1.3203  1.4163
  354MOL0     H47747   4.867  12.534   9.309 -2.2399  1.6391  0.0540
  354MOL0     H47748   4.849  12.830   9.391 -0.8630  1.3732  0.1001
  354MOL0     H47749   4.710  12.716   9.385  0.3950 -0.8153  0.2320
  354MOL0     H47750   4.655  12.958   9.332 -0.1631 -1.5708  0.9677
  354MOL0     H47751   4.458  13.215   9.211 -2.9542 -0.2759 -0.5879
  354MOL0     H47752   4.358  13.106   9.306  1.0045 -1.2481  1.0509
  354MOL0     H47753   4.528  13.140   9.349  2.0000 -0.0272 -0.4085
  354MOL0     H47754   4.245  13.019   8.658 -0.2050 -2.1396  3.8374
  354MOL0     H47755   4.055  13.147   8.537 -1.1132 -0.4549 -0.6462
  354MOL0     H47756   3.785  13.373   8.489  0.3953 -1.1077 -1.9168
  354MOL0     H47757   3.940  13.305   8.442 -0.9788 -3.2343 -0.5887
  354MOL0     H47758   3.773  13.161   8.351 -1.1450  1.9468 -0.3446
  354MOL0     H47759   3.846  13.075   8.493 -2.6247 -0.2872  1.0812
  354MOL0     H47760   3.586  13.233   8.476  2.6614  2.1987  0.2528
  354MOL0     H47761   3.653  13.188   8.627  1.1073 -0.3936 -0.0990
  354MOL0     H47762   3.588  12.978   8.398 -1.5469 -0.2248  0.2602
  354MOL0     H47763   3.640  12.955   8.565 -1.3701  1.1720  3.1670
  354MOL0     H47764   3.379  13.014   8.464  1.5695 -1.0958 -0.7331
  354MOL0     H47765   3.427  13.117   8.596 -1.3115  2.1986 -4.2482
  354MOL0     H47766   3.310  12.903   8.680 -0.1534 -1.4999  1.9888
  354MOL0     H47767   3.421  12.804   8.589 -2.6019 -0.1341  1.4830
  354MOL0     H47768   3.460  12.964   8.846  2.8692  1.4588  0.2257
  354MOL0     H47769   3.604  12.919   8.762  0.7862 -1.1191  0.7996
  354MOL0     H47770   3.416  12.706   8.845 -0.4271 -0.5783 -0.4065
  354MOL0     H47771   3.560  12.764   8.927 -0.3675  0.4971  0.2091
  354MOL0     H47772   3.925  13.303   8.903  1.8843  0.7119  0.8833
  354MOL0     H47773   4.093  13.157   9.025  1.9941 -2.6538  0.5772
  354MOL0     H47774   4.477  12.867   8.873  1.9702  2.2414 -0.9018
  354MOL0     H47775   4.677  12.724   8.973 -2.8979 -0.1122 -1.8561
  354MOL0     H47776   5.043  11.196   9.886  2.6663 -0.7384  2.6705
  354MOL0     H47777   5.265  11.070   9.903 -1.2495 -3.4864 -3.5284
  354MOL0     H47778   5.730  11.098   9.821  1.7618  1.0923 -1.3273
  354MOL0     H47779   5.940  11.015   9.817 -0.3040 -0.0840 -1.9024
  354MOL0     H47780   6.149  10.950   9.738 -0.6205 -0.0555  1.1607
  354MOL0     H47781   6.090  10.842   9.865  0.4174  0.2349  1.2610
  354MOL0     H47782   6.244  10.664   9.778  0.6665 -0.0469  0.3031
  354MOL0     H47783   6.324  10.803   9.815 -1.3573  0.0286  1.2333
  354MOL0     H47784   6.306  10.876   9.554  3.6974  0.3651  0.4726
  354MOL0     H47785   6.267  10.714   9.532 -1.0626  1.9804 -0.3705
  354MOL0     H47786   6.525  10.812   9.670 -0.8763  1.6693 -1.3930
  354MOL0     H47787   6.507  10.761   9.495 -0.1042  1.2871 -0.9867
  354MOL0     H47788   6.548  10.389   9.700  0.5035 -0.2999 -0.2738
  354MOL0     H47789   5.844  10.685   9.562  2.2744 -0.3417  1.2802
  354MOL0     H47790   5.611  10.776   9.536  0.7022  0.8937 -2.6108
  355MOL0     O47791   7.345  10.173   7.671 -0.4822  0.6365 -0.3260
  355MOL0     C47792   7.337  10.285   7.631 -0.4340 -0.2196  0.6984
  355MOL0     O47793   7.228  10.340   7.569 -0.4999 -0.2105  0.5147
  355MOL0     C47794   7.098  10.294   7.578 -0.4065 -0.7362  0.3650
  355MOL0     C47795   7.020  10.319   7.467 -0.2879  0.2146 -0.1799
  355MOL0     C47796   6.887  10.304   7.469  1.0565 -0.3321  0.2667
  355MOL0     C47797   6.822  10.267   7.587 -0.1600 -0.6337  0.1986
  355MOL0     O47798   6.685  10.239   7.607 -0.5237 -0.5785 -0.1485
  355MOL0     C47799   6.616  10.183   7.490  0.5073 -0.5678  0.0430
  355MOL0     C47800   6.462  10.173   7.508  0.7160 -0.0849 -0.2364
  355MOL0     C47801   6.398  10.312   7.513  0.3361  0.5920  0.8181
  355MOL0     C47802   6.253  10.290   7.550  0.8589 -0.9112 -0.0192
  355MOL0     C47803   6.167  10.413   7.587 -0.1972 -0.8397  0.2449
  355MOL0     C47804   6.233  10.494   7.697 -0.1527  0.5209  0.5079
  355MOL0     C47805   6.144  10.603   7.751  0.0193  0.7216 -0.4751
  355MOL0     C47806   6.129  10.704   7.641 -0.7136  0.7680 -0.2724
  355MOL0     N47807   6.055  10.821   7.675 -0.5505 -0.2159 -0.7273
  355MOL0     C47808   6.029  10.863   7.800  0.4478  0.1148 -0.0854
  355MOL0     C47809   5.928  10.958   7.780 -0.0398  0.3597  0.0673
  355MOL0     C47810   5.868  11.037   7.895 -0.2975  0.3130  0.8208
  355MOL0     C47811   5.712  11.043   7.881 -0.4159 -0.6488 -0.2625
  355MOL0     C47812   5.649  11.133   7.984  0.0823  0.1518 -0.7311
  355MOL0     C47813   5.502  11.132   7.955 -0.2856  0.0256 -0.7403
  355MOL0     O47814   5.465  11.226   8.053  0.2524  0.2135  0.1071
  355MOL0     C47815   5.328  11.257   8.051 -0.3119  0.4764  0.6889
  355MOL0     C47816   5.296  11.365   8.127  1.0854 -0.0916  0.8782
  355MOL0     C47817   5.166  11.416   8.143  0.3177  0.3960 -0.1556
  355MOL0     C47818   5.142  11.532   8.241  0.1171 -0.6894  0.2090
  355MOL0     C47819   5.060  11.353   8.069  0.1838  0.2574 -0.6309
  355MOL0     C47820   4.912  11.386   8.080  0.5576  0.4194 -0.4127
  355MOL0     O47821   4.829  11.370   7.975  0.0782 -0.3510  0.7696
  355MOL0     C47822   4.697  11.404   7.984  0.0873  0.2576 -0.2067
  355MOL0     C47823   4.603  11.332   7.899 -0.4640 -0.4996  0.0132
  355MOL0     C47824   4.464  11.370   7.886  0.3149  0.2673 -0.1976
  355MOL0     C47825   4.409  11.475   7.964  0.2191 -0.4259  0.6174
  355MOL0     O47826   4.277  11.514   7.952  0.1843  0.4946 -0.5665
  355MOL0     C47827   4.195  11.437   7.855 -0.2275 -0.6110  0.6891
  355MOL0     C47828   4.075  11.534   7.830  0.7484 -0.5232 -0.3859
  355MOL0     C47829   3.963  11.454   7.772  1.0138 -0.0733 -0.3164
  355MOL0     C47830   3.836  11.532   7.737  0.3216  0.0371  0.1656
  355MOL0     C47831   3.706  11.457   7.726 -0.5007 -0.9156 -1.1106
  355MOL0     C47832   3.623  11.451   7.858 -0.7430  0.2469 -0.0816
  355MOL0     C47833   3.466  11.453   7.844 -1.4025 -0.5454  0.8326
  355MOL0     C47834   3.421  11.354   7.734 -0.2054 -0.1248  0.0015
  355MOL0    Cl47835   3.235  11.366   7.720  0.0403  0.3441 -0.4781
  355MOL0     C47836   4.497  11.534   8.051 -0.4880 -0.8454 -0.1039
  355MOL0     C47837   4.636  11.510   8.051 -0.5185 -0.9485  0.1676
  355MOL0     O47838   4.866  11.420   8.190  0.0024  0.2323  0.3674
  355MOL0     C47839   5.099  11.260   7.979 -0.3615 -0.5674  0.1698
  355MOL0     C47840   5.231  11.212   7.961  0.1737 -0.4749  0.6917
  355MOL0     N47841   5.885  10.959   7.646 -0.2863 -0.1631 -0.6510
  355MOL0     N47842   5.961  10.876   7.587 -0.0599 -0.6395 -0.9148
  355MOL0     C47843   6.903  10.243   7.703  0.2108 -0.6495 -0.0091
  355MOL0     C47844   7.039  10.257   7.699 -0.3622  0.1816  0.4449
  355MOL0     C47845   7.454  10.372   7.661 -0.0563  0.0320  0.5988
  355MOL0     C47846   7.579  10.317   7.691 -0.0819 -0.7244 -0.1613
  355MOL0     C47847   7.699  10.394   7.715  0.1633 -0.6532  0.1140
  355MOL0     C47848   7.679  10.531   7.699 -0.2524  1.2788  0.3188
  355MOL0     O47849   7.783  10.620   7.722 -0.1481 -0.1733 -0.3555
  355MOL0     C47850   7.898  10.596   7.643  0.1747  0.0464 -0.0530
  355MOL0     C47851   7.995  10.708   7.654 -0.3769  0.5355  0.4011
  355MOL0     C47852   7.958  10.829   7.559  0.2242  0.5177 -0.4681
  355MOL0     C47853   8.061  10.934   7.584 -0.6118 -0.1600  0.3791
  355MOL0     C47854   8.039  11.051   7.501 -1.1112 -0.4499  1.3879
  355MOL0     C47855   8.013  11.140   7.424  1.2179 -0.4030  0.4836
  355MOL0     C47856   7.558  10.587   7.659  0.4060  0.1815  0.0584
  355MOL0     C47857   7.446  10.508   7.637 -0.6900  0.2633  0.1630
  355MOL0     H47858   7.064  10.377   7.386  1.3937  1.3782  1.4759
  355MOL0     H47859   6.841  10.327   7.374  3.7935 -0.5252 -1.2165
  355MOL0     H47860   6.644  10.243   7.403  2.6570  1.2994  1.9010
  355MOL0     H47861   6.662  10.085   7.471  2.3221 -0.3865  2.9113
  355MOL0     H47862   6.415  10.121   7.424 -1.0618 -1.9701  1.7870
  355MOL0     H47863   6.448  10.111   7.597  1.2584 -0.9070 -0.7035
  355MOL0     H47864   6.446  10.370   7.592  0.2250  0.6966  0.8090
  355MOL0     H47865   6.401  10.369   7.419  1.1629 -0.5407  0.1341
  355MOL0     H47866   6.207  10.235   7.468  0.0898 -1.1570  0.5633
  355MOL0     H47867   6.251  10.221   7.636 -0.9898 -1.5841 -0.5576
  355MOL0     H47868   6.150  10.465   7.492  1.3195 -0.6563  0.0520
  355MOL0     H47869   6.070  10.376   7.621  0.5702 -0.5395  3.0080
  355MOL0     H47870   6.262  10.427   7.778 -0.8094 -0.0427  0.2890
  355MOL0     H47871   6.326  10.542   7.664  1.5038 -3.3056 -0.9510
  355MOL0     H47872   6.046  10.561   7.772  0.5572 -0.9903 -1.1589
  355MOL0     H47873   6.195  10.641   7.840 -0.5509  0.2337  0.0608
  355MOL0     H47874   6.086  10.651   7.556 -2.0558 -1.1977  1.5067
  355MOL0     H47875   6.227  10.743   7.611 -0.0582  0.6195  1.5506
  355MOL0     H47876   6.091  10.840   7.886  1.3249 -3.8761 -1.5556
  355MOL0     H47877   5.883  10.993   7.993 -1.5800  2.3395  2.0190
  355MOL0     H47878   5.917  11.135   7.897 -0.6298  0.7168 -3.0181
  355MOL0     H47879   5.683  10.939   7.897 -0.7085 -0.5386 -0.0672
  355MOL0     H47880   5.682  11.080   7.783 -1.4263 -3.3503 -1.0569
  355MOL0     H47881   5.693  11.232   7.976  2.9908 -1.0476 -0.9219
  355MOL0     H47882   5.664  11.102   8.088  0.9190  1.5204 -0.4293
  355MOL0     H47883   5.451  11.038   7.977  0.0663  0.4024  2.2082
  355MOL0     H47884   5.490  11.170   7.853  0.3391 -0.0051 -0.8311
  355MOL0     H47885   5.389  11.417   8.150  0.3032  2.0667 -0.5242
  355MOL0     H47886   5.056  11.525   8.308 -0.2831 -0.3384 -0.2555
  355MOL0     H47887   5.227  11.551   8.307 -0.5957  2.6788  0.3556
  355MOL0     H47888   5.132  11.624   8.182  0.6490 -1.6922 -1.5243
  355MOL0     H47889   4.634  11.252   7.833  0.7788 -0.2577  0.2660
  355MOL0     H47890   4.404  11.303   7.825 -0.0993 -0.9262  1.4301
  355MOL0     H47891   4.244  11.430   7.757 -0.1597 -1.7568  0.7849
  355MOL0     H47892   4.161  11.339   7.890 -3.0138  0.2271  0.5703
  355MOL0     H47893   4.049  11.576   7.928  0.3323 -1.8226  0.0848
  355MOL0     H47894   4.109  11.618   7.769 -1.6367  1.4947  0.8649
  355MOL0     H47895   3.930  11.384   7.849  0.6567 -0.3429 -0.7052
  355MOL0     H47896   3.994  11.390   7.689  0.3506 -2.3004  1.0592
  355MOL0     H47897   3.838  11.615   7.807  2.2335 -0.4276  0.7154
  355MOL0     H47898   3.854  11.575   7.638  0.6582  0.8401  0.5725
  355MOL0     H47899   3.730  11.361   7.681  2.1597 -1.1252  0.5656
  355MOL0     H47900   3.653  11.523   7.656  2.4258  1.7777 -1.0157
  355MOL0     H47901   3.646  11.356   7.907 -0.1733  1.1978  1.5833
  355MOL0     H47902   3.654  11.522   7.935  0.8908 -1.7816  1.2384
  355MOL0     H47903   3.439  11.553   7.811  1.1232  0.0317  0.2529
  355MOL0     H47904   3.424  11.446   7.944 -2.0596  1.7240  0.7538
  355MOL0     H47905   3.444  11.250   7.757  1.4107 -0.4800 -2.8395
  355MOL0     H47906   3.465  11.380   7.637  0.4116 -1.7058 -0.1699
  355MOL0     H47907   4.453  11.613   8.111 -0.7023 -0.3448 -0.9063
  355MOL0     H47908   4.696  11.579   8.109 -3.1326  0.4197  1.4557
  355MOL0     H47909   5.021  11.219   7.916 -1.1739  1.7260 -0.4371
  355MOL0     H47910   5.245  11.142   7.880 -0.1326  0.2050  0.0368
  355MOL0     H47911   6.857  10.228   7.801  0.1209 -1.9551 -0.2344
  355MOL0     H47912   7.102  10.258   7.787 -0.2053  0.6616  0.3281
  355MOL0     H47913   7.594  10.211   7.706  1.0130 -0.5435  0.1261
  355MOL0     H47914   7.791  10.342   7.739  0.8315  0.4131 -0.0986
  355MOL0     H47915   7.940  10.501   7.678  2.7579  1.6446  1.4932
  355MOL0     H47916   7.856  10.578   7.543 -2.3075  0.9214  0.7737
  355MOL0     H47917   8.097  10.675   7.630 -0.4172 -0.3180  1.3370
  355MOL0     H47918   7.991  10.740   7.759 -2.1611 -0.4254  0.6526
  355MOL0     H47919   7.859  10.863   7.590  0.2716 -0.5569  0.9703
  355MOL0     H47920   7.953  10.790   7.456 -2.4997 -2.1778  0.5162
  355MOL0     H47921   8.161  10.894   7.567  0.3276  1.9170  0.7818
  355MOL0     H47922   8.068  10.972   7.686 -1.4251  4.1874 -1.0029
  355MOL0     H47923   7.977  11.217   7.359  0.8513 -0.9439  0.0389
  355MOL0     H47924   7.562  10.692   7.635  2.0162 -0.1257 -1.2057
  355MOL0     H47925   7.363  10.556   7.586 -1.9075 -0.9954  0.8819
  356MOL0     O47926   1.347   5.304   7.304  0.1837 -0.0351  0.4963
  356MOL0     C47927   1.399   5.402   7.356  0.1740  0.0990 -0.5139
  356MOL0     O47928   1.333   5.515   7.373 -0.6813  0.4376  0.2051
  356MOL0     C47929   1.201   5.527   7.349  0.1744 -0.2565  0.2102
  356MOL0     C47930   1.121   5.582   7.451 -0.9346 -0.6045  0.5227
  356MOL0     C47931   0.994   5.606   7.418  0.8277  0.5802 -0.0927
  356MOL0     C47932   0.933   5.582   7.294 -1.5277 -0.5647  0.2307
  356MOL0     O47933   0.796   5.602   7.276 -0.3013  0.0203  0.2132
  356MOL0     C47934   0.705   5.644   7.381 -0.2802  0.1581 -0.5600
  356MOL0     C47935   0.568   5.665   7.319 -0.1040 -0.5257  0.1040
  356MOL0     C47936   0.450   5.687   7.411 -0.6711  0.1143  0.6826
  356MOL0     C47937   0.313   5.651   7.340 -0.3963  0.1998  0.1427
  356MOL0     C47938   0.200   5.712   7.420  0.5793  0.8806 -0.4757
  356MOL0     C47939   0.078   5.649   7.355  0.0077 -1.0571  0.2728
  356MOL0     C47940  -0.055   5.719   7.371 -0.3323 -1.0294 -1.5275
  356MOL0     C47941  -0.148   5.654   7.273 -0.1401 -0.2682 -0.1500
  356MOL0     N47942  -0.277   5.723   7.283 -1.1502 -0.3148 -0.9171
  356MOL0     C47943  -0.294   5.854   7.265  0.5485  0.3103 -0.1800
  356MOL0     C47944  -0.420   5.879   7.310  0.3432  0.0987  0.2672
  356MOL0     C47945  -0.490   6.011   7.302 -0.4250 -0.2238  0.7370
  356MOL0     C47946  -0.600   6.000   7.203 -0.4646 -0.5374  0.3050
  356MOL0     C47947  -0.659   6.139   7.157 -1.0150 -0.3206 -0.2118
  356MOL0     C47948  -0.774   6.129   7.054  0.3777 -0.2236 -0.2778
  356MOL0     O47949  -0.882   6.059   7.122  0.9957 -0.2303  0.1965
  356MOL0     C47950  -1.011   6.074   7.072 -0.2057 -0.9568 -0.1264
  356MOL0     C47951  -1.111   6.078   7.158 -0.1396  0.3263  0.0961
  356MOL0     C47952  -1.245   6.109   7.127  0.6280 -0.8512  1.0092
  356MOL0     C47953  -1.352   6.118   7.238  1.0869  0.1988 -1.4212
  356MOL0     C47954  -1.272   6.126   6.984  0.9374  0.2461  0.2249
  356MOL0     C47955  -1.408   6.142   6.932  0.1439  0.0343  0.0974
  356MOL0     O47956  -1.419   6.158   6.794  0.6088 -0.3320 -0.5808
  356MOL0     C47957  -1.529   6.216   6.753 -0.0407 -0.7774  1.4713
  356MOL0     C47958  -1.629   6.155   6.673  0.8497 -0.0063 -0.5282
  356MOL0     C47959  -1.742   6.224   6.628  0.2639 -0.1613 -0.5733
  356MOL0     C47960  -1.766   6.355   6.653 -0.3444  0.3050  0.5396
  356MOL0     O47961  -1.889   6.402   6.601 -0.2039 -0.4247 -0.6220
  356MOL0     C47962  -1.937   6.531   6.638 -0.2439 -0.4371  0.0953
  356MOL0     C47963  -2.050   6.510   6.741  0.5256  0.5893  1.1142
  356MOL0     C47964  -2.184   6.440   6.712 -0.6312  0.9155 -0.2308
  356MOL0     C47965  -2.164   6.290   6.722  0.5474 -0.8489 -0.1110
  356MOL0     C47966  -2.293   6.211   6.728 -0.3054 -0.0380 -0.0769
  356MOL0     C47967  -2.274   6.059   6.748 -0.2906 -0.2591  0.0271
  356MOL0     C47968  -2.407   5.992   6.751 -0.3951  0.0115 -0.5670
  356MOL0     C47969  -2.386   5.843   6.751 -0.1638  0.6174 -0.7350
  356MOL0    Cl47970  -2.540   5.760   6.753  0.3560  0.1196 -0.3255
  356MOL0     C47971  -1.665   6.419   6.716 -0.3128  0.7014  0.3129
  356MOL0     C47972  -1.551   6.350   6.763 -0.1901  0.5038  0.5272
  356MOL0     O47973  -1.503   6.164   7.008  0.1169 -0.5821  0.1988
  356MOL0     C47974  -1.164   6.121   6.893  0.0197 -0.0524 -0.6379
  356MOL0     C47975  -1.041   6.099   6.943 -0.8572 -0.1478  0.1221
  356MOL0     N47976  -0.483   5.765   7.341 -0.2976 -0.2711  0.7790
  356MOL0     N47977  -0.390   5.672   7.331  0.5626 -0.2697  0.2222
  356MOL0     C47978   1.016   5.524   7.202  0.7948  0.0860  0.1186
  356MOL0     C47979   1.155   5.509   7.223 -0.2908  0.3959 -0.1151
  356MOL0     C47980   1.545   5.403   7.393  0.3221  0.0371 -0.4026
  356MOL0     C47981   1.625   5.284   7.383  0.1133 -0.2562  0.0995
  356MOL0     C47982   1.754   5.268   7.419 -0.3233  0.3578  0.1561
  356MOL0     C47983   1.816   5.375   7.482  0.7581 -0.0803  0.2975
  356MOL0     O47984   1.940   5.379   7.533  0.7093  0.1819 -0.3693
  356MOL0     C47985   2.017   5.246   7.545  0.2823 -0.5465  0.2747
  356MOL0     C47986   2.132   5.267   7.645 -0.4323  0.0939  0.0624
  356MOL0     C47987   2.081   5.300   7.793  0.4449  0.0180 -0.0996
  356MOL0     C47988   2.192   5.282   7.892 -0.0116 -0.1216 -0.4826
  356MOL0     C47989   2.325   5.327   7.842 -0.8518 -0.5028 -0.0768
  356MOL0     C47990   2.433   5.354   7.789 -0.3332  0.1630 -0.6887
  356MOL0     C47991   1.740   5.494   7.500  0.2195  0.5979 -0.2234
  356MOL0     C47992   1.608   5.511   7.453 -0.5171  0.4915  0.1201
  356MOL0     H47993   1.164   5.612   7.546 -0.6139  0.8439 -0.0516
  356MOL0     H47994   0.932   5.651   7.494  2.3631  1.3281  0.7731
  356MOL0     H47995   0.693   5.564   7.455  2.2492  1.6261  1.6053
  356MOL0     H47996   0.747   5.732   7.429  0.5382  0.1762 -1.2905
  356MOL0     H47997   0.578   5.756   7.259  1.1981 -1.4584 -1.1583
  356MOL0     H47998   0.540   5.585   7.250  0.3991 -0.6698  0.0631
  356MOL0     H47999   0.466   5.627   7.501  1.9812  0.3402  0.4607
  356MOL0     H48000   0.442   5.793   7.437 -1.3533  0.8951 -2.3709
  356MOL0     H48001   0.310   5.696   7.240  1.1930 -1.9107 -0.9491
  356MOL0     H48002   0.310   5.544   7.317  2.0820  0.0748  0.1424
  356MOL0     H48003   0.211   5.680   7.524  2.7996  1.7898 -0.3729
  356MOL0     H48004   0.186   5.821   7.422 -1.5752  0.6338  1.1657
  356MOL0     H48005   0.098   5.637   7.248 -1.3369  2.9573 -0.5942
  356MOL0     H48006   0.074   5.546   7.391 -1.2233 -1.1197  0.0082
  356MOL0     H48007  -0.103   5.730   7.469 -1.8921  1.7429 -2.4866
  356MOL0     H48008  -0.039   5.825   7.347 -3.8571 -0.1657 -0.5909
  356MOL0     H48009  -0.163   5.549   7.302  1.2822 -0.1266  1.1867
  356MOL0     H48010  -0.111   5.674   7.172 -1.6134  2.2368 -0.2697
  356MOL0     H48011  -0.227   5.930   7.226  0.7043  1.3818  2.0187
  356MOL0     H48012  -0.519   6.053   7.399 -0.0278  2.6916 -0.3118
  356MOL0     H48013  -0.420   6.085   7.264 -0.6466 -0.2762  0.2227
  356MOL0     H48014  -0.673   5.926   7.236 -2.0322  2.2497  3.6661
  356MOL0     H48015  -0.548   5.964   7.113  0.3779  0.3821  0.3999
  356MOL0     H48016  -0.578   6.193   7.108 -1.0059  1.1835  1.3655
  356MOL0     H48017  -0.691   6.201   7.242 -1.4987 -4.5769  3.0425
  356MOL0     H48018  -0.749   6.074   6.963 -4.2322  0.7175 -2.4072
  356MOL0     H48019  -0.806   6.231   7.030  2.0583  0.9044  1.8939
  356MOL0     H48020  -1.086   6.056   7.261 -0.9463 -0.2763  0.1664
  356MOL0     H48021  -1.433   6.045   7.231 -0.6560  1.8140  0.4148
  356MOL0     H48022  -1.303   6.100   7.334 -1.3543  2.2224  0.3307
  356MOL0     H48023  -1.391   6.220   7.245  0.6708 -0.0771  2.0447
  356MOL0     H48024  -1.615   6.055   6.634 -1.0117 -0.1986 -0.8081
  356MOL0     H48025  -1.821   6.188   6.563 -2.5291  1.1339  1.8687
  356MOL0     H48026  -1.869   6.597   6.691 -0.6714 -1.2534  1.7321
  356MOL0     H48027  -1.967   6.584   6.547  2.5980  1.3863  0.0973
  356MOL0     H48028  -2.013   6.458   6.830 -0.6617 -1.8350  0.2790
  356MOL0     H48029  -2.070   6.613   6.772 -1.9437  0.6597 -0.4168
  356MOL0     H48030  -2.219   6.463   6.612  0.9538  0.3145 -0.9670
  356MOL0     H48031  -2.258   6.474   6.785 -0.8969  1.2171 -0.6406
  356MOL0     H48032  -2.101   6.260   6.638  2.6693  2.2559  0.2015
  356MOL0     H48033  -2.105   6.267   6.812  2.3153 -0.9157 -1.2328
  356MOL0     H48034  -2.337   6.216   6.628 -2.6829 -1.4177  0.8190
  356MOL0     H48035  -2.360   6.246   6.808  0.8088 -0.6304  1.1538
  356MOL0     H48036  -2.225   6.017   6.660  0.4361  0.2456  0.1861
  356MOL0     H48037  -2.213   6.043   6.837 -0.1115  0.6845  0.0766
  356MOL0     H48038  -2.469   6.037   6.673  0.0524  1.4194 -0.1298
  356MOL0     H48039  -2.458   6.013   6.845  0.2859 -1.4204  0.1676
  356MOL0     H48040  -2.332   5.814   6.842 -1.0704  1.3474  0.0553
  356MOL0     H48041  -2.321   5.799   6.675  0.5922  0.2854  0.0775
  356MOL0     H48042  -1.669   6.526   6.736  3.5482  0.6156  2.4439
  356MOL0     H48043  -1.476   6.409   6.815  3.0537 -1.0478 -1.9663
  356MOL0     H48044  -1.177   6.129   6.786  0.0727  2.0721 -0.5209
  356MOL0     H48045  -0.961   6.103   6.869 -0.0621  0.5556  1.0012
  356MOL0     H48046   0.991   5.489   7.102  0.0149  1.2677 -0.1189
  356MOL0     H48047   1.213   5.470   7.140  0.4047 -2.3832  1.5732
  356MOL0     H48048   1.566   5.199   7.347  1.2798 -1.0166 -0.0599
  356MOL0     H48049   1.812   5.179   7.398 -0.9650  0.3825 -1.8829
  356MOL0     H48050   1.938   5.174   7.569 -0.4204  0.0982 -0.0438
  356MOL0     H48051   2.064   5.201   7.458  0.4841 -3.2989  1.7088
  356MOL0     H48052   2.191   5.354   7.615  0.2562 -0.0323  0.9848
  356MOL0     H48053   2.207   5.189   7.632  1.1503  1.5160  0.2935
  356MOL0     H48054   2.005   5.227   7.823  1.3420 -2.0415 -2.5302
  356MOL0     H48055   2.032   5.398   7.795 -1.4750 -0.7722  3.9427
  356MOL0     H48056   2.206   5.178   7.924 -2.4943 -0.4737 -0.3374
  356MOL0     H48057   2.175   5.340   7.984  1.7327  2.0510 -1.4361
  356MOL0     H48058   2.534   5.379   7.761 -0.0647  0.4944  0.5169
  356MOL0     H48059   1.775   5.583   7.551 -4.5996  2.6611  0.0013
  356MOL0     H48060   1.548   5.600   7.468  0.4404  1.2510 -0.4475
  357MOL0     O48061  10.697   3.240   3.949  0.0472 -0.0998 -0.2575
  357MOL0     C48062  10.809   3.199   3.959  0.1410 -0.1812  0.1166
  357MOL0     O48063  10.857   3.093   3.891 -0.2608 -0.0436 -0.0949
  357MOL0     C48064  10.781   3.025   3.801  0.2746 -0.0298 -0.5480
  357MOL0     C48065  10.723   2.902   3.834 -0.8194  0.7292  0.0044
  357MOL0     C48066  10.640   2.837   3.740  0.1203 -0.2803  0.3843
  357MOL0     C48067  10.618   2.891   3.612 -0.3672 -0.7373  0.1169
  357MOL0     O48068  10.531   2.837   3.519  1.1826 -0.2035  0.5433
  357MOL0     C48069  10.483   2.709   3.546 -0.1943 -0.7226 -0.0870
  357MOL0     C48070  10.399   2.660   3.435  0.3249  0.7840 -0.0019
  357MOL0     C48071  10.316   2.537   3.476 -0.3018 -0.6285  0.3256
  357MOL0     C48072  10.197   2.507   3.377  0.6326 -0.2582 -0.7749
  357MOL0     C48073  10.109   2.381   3.411 -0.7710  0.0693  0.4481
  357MOL0     C48074   9.985   2.385   3.317  0.1468  0.1622  0.0330
  357MOL0     C48075   9.907   2.255   3.333 -1.1878 -0.2513 -0.0001
  357MOL0     C48076   9.886   2.191   3.480 -0.2212  0.1940 -0.8064
  357MOL0     N48077   9.808   2.267   3.572 -0.0847 -0.0627 -0.0244
  357MOL0     C48078   9.833   2.286   3.710 -0.1956  0.0511 -0.3904
  357MOL0     C48079   9.712   2.320   3.757  0.4274  0.4155 -0.4777
  357MOL0     C48080   9.690   2.352   3.909 -1.2231  0.0535  0.0990
  357MOL0     C48081   9.722   2.222   3.986  0.4366  0.5687  0.3459
  357MOL0     C48082   9.700   2.230   4.137  0.2730 -0.1574 -0.4957
  357MOL0     C48083   9.741   2.112   4.224  0.2939 -0.1813 -0.4326
  357MOL0     O48084   9.681   1.989   4.196  0.8290  0.4819  0.4571
  357MOL0     C48085   9.546   1.980   4.197 -0.7123  0.8880 -0.5164
  357MOL0     C48086   9.494   1.875   4.126 -0.4144 -0.0033  0.1210
  357MOL0     C48087   9.357   1.849   4.117 -0.1203 -0.0110 -0.3699
  357MOL0     C48088   9.318   1.724   4.040 -0.0560 -0.7696  1.0542
  357MOL0     C48089   9.270   1.932   4.186  0.1344  0.3202  0.3282
  357MOL0     C48090   9.120   1.906   4.185  0.3040  0.0176  0.2741
  357MOL0     O48091   9.048   1.997   4.262  0.5040  0.3466  0.6349
  357MOL0     C48092   8.913   2.014   4.252  0.1436  0.2041  0.1150
  357MOL0     C48093   8.849   1.989   4.119 -0.3394  0.1616 -0.7149
  357MOL0     C48094   8.713   2.001   4.111  0.7371 -1.1321  0.2285
  357MOL0     C48095   8.638   2.034   4.223  0.0331 -0.2932 -0.7098
  357MOL0     O48096   8.498   2.038   4.220 -0.2670  0.6259  0.4423
  357MOL0     C48097   8.455   2.161   4.154  0.9295 -0.4503 -0.2996
  357MOL0     C48098   8.319   2.128   4.089 -0.5300  0.5537  0.0215
  357MOL0     C48099   8.205   2.101   4.188 -0.3485 -0.3811 -0.3008
  357MOL0     C48100   8.075   2.110   4.125  0.2787  0.0834 -0.0389
  357MOL0     C48101   7.957   2.078   4.213 -0.2421  0.2862 -0.0325
  357MOL0     C48102   7.819   2.109   4.150  0.2820  0.8175  0.1665
  357MOL0     C48103   7.712   2.076   4.251 -0.9700 -0.3842  0.2968
  357MOL0     C48104   7.585   2.062   4.181 -0.1874  0.3117 -0.2507
  357MOL0    Cl48105   7.463   2.004   4.284  0.5083 -0.0607  0.0186
  357MOL0     C48106   8.696   2.051   4.351 -0.5775  0.1405  0.1347
  357MOL0     C48107   8.838   2.034   4.368  0.8625 -0.4245 -0.1634
  357MOL0     O48108   9.077   1.795   4.153  0.3379  0.6594 -0.3554
  357MOL0     C48109   9.315   2.041   4.266  0.4627 -0.0296  0.2255
  357MOL0     C48110   9.456   2.066   4.271  0.2673 -0.3466 -0.8919
  357MOL0     N48111   9.615   2.306   3.658 -0.4956 -0.2920  0.3653
  357MOL0     N48112   9.669   2.287   3.546 -0.7217  0.4938 -0.9115
  357MOL0     C48113  10.673   3.020   3.576 -0.5430  0.4008  0.4437
  357MOL0     C48114  10.755   3.077   3.673 -0.2233 -0.5435 -0.6422
  357MOL0     C48115  10.905   3.281   4.037 -0.8853 -0.2155 -0.0718
  357MOL0     C48116  10.860   3.379   4.127 -0.8638  0.8274  0.1356
  357MOL0     C48117  10.956   3.452   4.197 -0.7386 -0.0087  0.4066
  357MOL0     C48118  11.092   3.427   4.190 -0.3985 -0.7168  0.5850
  357MOL0     O48119  11.178   3.499   4.268 -0.1307  0.0237  0.8570
  357MOL0     C48120  11.160   3.640   4.258  0.0028 -0.5781  0.1078
  357MOL0     C48121  11.294   3.704   4.265 -0.3494 -0.4048 -1.0588
  357MOL0     C48122  11.386   3.672   4.137 -0.3010 -0.4056  0.8087
  357MOL0     C48123  11.529   3.720   4.177  0.7407  0.2074  0.8564
  357MOL0     C48124  11.638   3.691   4.074 -0.2275 -0.2207  0.2094
  357MOL0     C48125  11.718   3.671   3.985 -0.3218 -0.5141  0.6246
  357MOL0     C48126  11.136   3.317   4.115  0.1137  0.1763  0.0003
  357MOL0     C48127  11.041   3.241   4.042 -0.0268 -0.5220  0.7730
  357MOL0     H48128  10.737   2.859   3.932  1.3475  1.3405  0.0096
  357MOL0     H48129  10.582   2.752   3.774 -1.1501 -0.2045 -1.4386
  357MOL0     H48130  10.572   2.647   3.546 -0.7379 -1.5225 -0.7566
  357MOL0     H48131  10.428   2.711   3.641  0.4219 -1.8380  0.3112
  357MOL0     H48132  10.332   2.742   3.406  1.6520  1.6721 -0.6514
  357MOL0     H48133  10.462   2.640   3.348 -1.6807  3.0207 -2.1261
  357MOL0     H48134  10.383   2.451   3.476 -2.2021 -2.1918 -0.7383
  357MOL0     H48135  10.277   2.548   3.577  0.3066 -1.8411  0.7123
  357MOL0     H48136  10.137   2.599   3.383  0.9502 -0.1101  0.5245
  357MOL0     H48137  10.227   2.505   3.272  0.6684 -0.0978 -0.7687
  357MOL0     H48138  10.169   2.292   3.388  0.6924  1.3450 -0.9261
  357MOL0     H48139  10.086   2.386   3.518 -0.9960  0.6780  0.3731
  357MOL0     H48140   9.916   2.468   3.335 -1.0003  0.1895 -3.7186
  357MOL0     H48141  10.024   2.391   3.215  1.7020  1.9849  0.6599
  357MOL0     H48142   9.803   2.279   3.307 -1.4593  1.4212  2.2872
  357MOL0     H48143   9.950   2.186   3.260 -0.6445 -1.0682  1.0678
  357MOL0     H48144   9.982   2.167   3.527  0.2022 -0.3982 -1.9338
  357MOL0     H48145   9.831   2.098   3.464  2.8742 -2.2030  1.1903
  357MOL0     H48146   9.925   2.278   3.766 -0.5969  2.2516  0.7393
  357MOL0     H48147   9.758   2.435   3.933 -0.8475 -0.5278  1.1388
  357MOL0     H48148   9.586   2.383   3.921 -1.1386  0.8002 -0.9713
  357MOL0     H48149   9.820   2.177   3.969 -0.6245 -2.3424  1.1994
  357MOL0     H48150   9.642   2.155   3.952 -0.6013  2.3261 -0.8185
  357MOL0     H48151   9.597   2.257   4.162  0.3349 -0.2025 -0.1871
  357MOL0     H48152   9.770   2.309   4.167 -0.6446  1.0621 -1.4810
  357MOL0     H48153   9.724   2.147   4.326 -2.8210  0.2392 -0.9880
  357MOL0     H48154   9.849   2.092   4.221  0.6936  1.4189  1.1861
  357MOL0     H48155   9.559   1.812   4.066 -0.4459 -0.6394  0.7321
  357MOL0     H48156   9.287   1.649   4.113 -3.5143  0.3521  0.9292
  357MOL0     H48157   9.233   1.738   3.973  0.6897 -0.9766  0.0344
  357MOL0     H48158   9.401   1.689   3.977 -1.2015  1.6606 -2.0669
  357MOL0     H48159   8.899   1.959   4.028  2.0361 -2.8824  1.3826
  357MOL0     H48160   8.651   1.986   4.023  0.5449  0.7109 -0.0012
  357MOL0     H48161   8.449   2.246   4.223  1.9542 -2.2220  2.0874
  357MOL0     H48162   8.528   2.183   4.075  1.9952  0.5661  0.9310
  357MOL0     H48163   8.294   2.218   4.031  0.8649  1.1303  0.2707
  357MOL0     H48164   8.323   2.044   4.019  0.3527  0.7889 -0.2262
  357MOL0     H48165   8.189   2.180   4.261 -1.5355  1.2104 -2.1898
  357MOL0     H48166   8.223   2.004   4.235  2.0193 -0.3055 -0.9116
  357MOL0     H48167   8.057   2.215   4.100 -0.2336 -0.3964 -1.9221
  357MOL0     H48168   8.068   2.049   4.034 -2.3570 -1.4071  1.0551
  357MOL0     H48169   7.970   2.136   4.305  3.0709  1.1097 -0.8869
  357MOL0     H48170   7.959   1.973   4.244 -2.0201  0.3314  0.2949
  357MOL0     H48171   7.822   2.211   4.110  1.3218 -0.2752 -2.7721
  357MOL0     H48172   7.809   2.029   4.076 -0.7489 -0.9114  2.0689
  357MOL0     H48173   7.708   2.166   4.313  0.0737 -0.6840  0.8208
  357MOL0     H48174   7.743   1.985   4.302 -1.4765 -0.6732  0.0991
  357MOL0     H48175   7.596   1.983   4.106 -1.8382 -1.1573  0.9732
  357MOL0     H48176   7.561   2.159   4.136 -1.2034  1.3036  2.2459
  357MOL0     H48177   8.635   2.073   4.438  4.1197  0.7415  3.7104
  357MOL0     H48178   8.883   2.056   4.465 -1.5643  0.0985  0.9162
  357MOL0     H48179   9.250   2.103   4.326 -3.2611 -3.7289  0.4341
  357MOL0     H48180   9.493   2.147   4.334 -2.5081  2.6666 -2.8462
  357MOL0     H48181  10.637   3.073   3.488 -3.4215  2.1081  2.4654
  357MOL0     H48182  10.784   3.180   3.653  0.3741 -0.6581 -0.3847
  357MOL0     H48183  10.755   3.406   4.136 -0.2212  3.6110  0.4323
  357MOL0     H48184  10.917   3.533   4.257  1.4956  1.8252 -0.4654
  357MOL0     H48185  11.108   3.667   4.165 -1.3074 -0.5032  0.8396
  357MOL0     H48186  11.098   3.669   4.343 -0.9066  1.4683 -1.1738
  357MOL0     H48187  11.344   3.668   4.356 -1.0804 -1.3401 -1.0124
  357MOL0     H48188  11.271   3.810   4.279 -1.9068 -0.9621  1.0024
  357MOL0     H48189  11.347   3.727   4.051 -2.5622 -0.7164  1.5668
  357MOL0     H48190  11.380   3.566   4.113  1.6719 -0.4230  0.2187
  357MOL0     H48191  11.550   3.677   4.276 -1.1972  3.3589  2.8019
  357MOL0     H48192  11.520   3.829   4.181  2.9447  0.4765  0.0411
  357MOL0     H48193  11.783   3.663   3.900 -0.7238  4.5818 -0.4910
  357MOL0     H48194  11.239   3.283   4.118 -0.5480 -2.0994  4.0482
  357MOL0     H48195  11.078   3.150   3.998  2.1761  1.3450 -1.5752
  358MOL0     O48196   9.898   0.071   5.336  0.8235 -0.0690 -0.4623
  358MOL0     C48197   9.858   0.067   5.450  0.9439  0.0205 -0.7209
  358MOL0     O48198   9.724   0.056   5.496  0.4583  0.2318  0.6252
  358MOL0     C48199   9.627   0.028   5.402  0.4457 -0.7501  0.1352
  358MOL0     C48200   9.514   0.102   5.399  1.0317  0.1240  0.0708
  358MOL0     C48201   9.417   0.091   5.300 -0.1249 -0.2248 -0.4109
  358MOL0     C48202   9.429  -0.008   5.199 -0.0016  0.3635  0.0309
  358MOL0     O48203   9.341  -0.013   5.093 -0.0253 -0.0325 -0.7085
  358MOL0     C48204   9.325   0.111   5.019 -0.4071  0.4481 -0.1920
  358MOL0     C48205   9.227   0.094   4.909 -0.1376 -0.8417 -0.1031
  358MOL0     C48206   9.078   0.059   4.956 -0.5953 -0.8020 -0.5738
  358MOL0     C48207   9.014   0.173   5.040 -0.4783 -0.7856  0.6712
  358MOL0     C48208   8.868   0.142   5.056  0.4311  0.0204 -0.5702
  358MOL0     C48209   8.836   0.004   5.102 -0.0101  0.6042 -0.6423
  358MOL0     C48210   8.691  -0.027   5.134  0.7142  0.2497 -0.3523
  358MOL0     C48211   8.638   0.063   5.240 -1.1298  0.6075 -0.4033
  358MOL0     N48212   8.511   0.023   5.288 -0.2952  0.9494 -0.2108
  358MOL0     C48213   8.397   0.024   5.216  0.1575 -0.6741  0.3681
  358MOL0     C48214   8.297  -0.024   5.297 -0.6904  0.8344 -0.6901
  358MOL0     C48215   8.159  -0.030   5.258  0.8675  0.0092 -0.2892
  358MOL0     C48216   8.045  -0.003   5.366 -0.1846 -1.4161 -0.1428
  358MOL0     C48217   8.035  -0.111   5.474  0.2825  0.1947  0.1618
  358MOL0     C48218   7.933  -0.061   5.575  0.8342 -0.3637 -0.7725
  358MOL0     O48219   7.793  -0.073   5.529 -0.6787 -0.4181  0.4658
  358MOL0     C48220   7.697   0.005   5.595  0.1844  0.3723  0.0473
  358MOL0     C48221   7.596   0.069   5.520  0.4927 -0.0837  0.1308
  358MOL0     C48222   7.483   0.132   5.577 -0.2135  0.6562  0.5272
  358MOL0     C48223   7.363   0.166   5.477  0.0554 -0.3158  0.3402
  358MOL0     C48224   7.469   0.147   5.721 -0.2167  0.0556  0.9514
  358MOL0     C48225   7.362   0.218   5.788 -1.3672  0.3624  0.1273
  358MOL0     O48226   7.276   0.288   5.716 -0.5343  0.5620  0.2734
  358MOL0     C48227   7.148   0.322   5.750 -0.9429 -0.0905 -0.2259
  358MOL0     C48228   7.073   0.246   5.839  0.2347 -0.1874  0.9628
  358MOL0     C48229   6.940   0.298   5.859 -0.9400  0.5525  0.6341
  358MOL0     C48230   6.896   0.417   5.820  0.1111  0.7820  0.0849
  358MOL0     O48231   6.768   0.441   5.858 -0.0173 -0.6660  0.4975
  358MOL0     C48232   6.730   0.572   5.808  1.0679 -0.4675 -0.9316
  358MOL0     C48233   6.585   0.592   5.863 -0.4121  0.0663 -0.3101
  358MOL0     C48234   6.520   0.707   5.797  0.7345 -0.0952 -0.1235
  358MOL0     C48235   6.368   0.740   5.841  0.3026  0.5772 -0.4971
  358MOL0     C48236   6.306   0.885   5.805 -0.4455 -0.5599  0.5946
  358MOL0     C48237   6.163   0.892   5.854 -0.4627 -0.4377 -0.2628
  358MOL0     C48238   6.066   0.811   5.758 -0.3085 -0.4124  0.0610
  358MOL0     C48239   5.928   0.808   5.816  0.4355 -0.2331  0.8862
  358MOL0    Cl48240   5.816   0.734   5.695 -0.1179 -0.1641 -0.0669
  358MOL0     C48241   6.979   0.487   5.729  0.5596 -0.0981 -0.0166
  358MOL0     C48242   7.107   0.443   5.694 -0.6086 -0.5144 -0.0905
  358MOL0     O48243   7.356   0.200   5.909  0.4660  0.6175 -0.4028
  358MOL0     C48244   7.583   0.087   5.787  0.5640  0.6462  0.1012
  358MOL0     C48245   7.684   0.015   5.731 -0.7963  0.0806 -0.5286
  358MOL0     N48246   8.358  -0.056   5.419 -0.1228 -0.0958  0.6214
  358MOL0     N48247   8.485  -0.025   5.412  0.1765 -0.0640  0.0540
  358MOL0     C48248   9.535  -0.099   5.206  0.5764  0.1290 -0.1313
  358MOL0     C48249   9.630  -0.081   5.309  0.1338  1.0997  0.9801
  358MOL0     C48250   9.964   0.073   5.550  0.2228 -0.5154 -1.1410
  358MOL0     C48251  10.098   0.054   5.516  0.0752 -0.5788 -0.5475
  358MOL0     C48252  10.205   0.084   5.602  0.4126 -0.0665 -0.3138
  358MOL0     C48253  10.172   0.148   5.732 -0.4523  0.6262 -0.1702
  358MOL0     O48254  10.271   0.165   5.832  0.4103 -0.0474  1.1346
  358MOL0     C48255  10.230   0.192   5.963  0.2856 -0.3868 -0.0398
  358MOL0     C48256  10.333   0.186   6.071 -0.4728 -0.4053  0.0974
  358MOL0     C48257  10.454   0.291   6.056 -0.3513 -0.8216 -0.0281
  358MOL0     C48258  10.556   0.258   5.947  0.1910 -0.7162  0.2939
  358MOL0     C48259  10.670   0.352   5.980  0.5084 -1.0939 -0.4284
  358MOL0     C48260  10.769   0.412   6.004  0.0285 -0.2533 -1.2173
  358MOL0     C48261  10.033   0.161   5.760 -0.3961 -0.3867  0.5425
  358MOL0     C48262   9.932   0.134   5.674 -0.6874 -0.0935  1.1402
  358MOL0     H48263   9.495   0.167   5.484 -1.6558 -0.0008 -0.3484
  358MOL0     H48264   9.341   0.168   5.294  1.0818  1.1922  1.4043
  358MOL0     H48265   9.290   0.193   5.082  1.1478  0.2798  0.9491
  358MOL0     H48266   9.427   0.135   4.985  0.5740 -0.1519  2.1508
  358MOL0     H48267   9.225   0.192   4.860 -4.8521  0.0392  1.2916
  358MOL0     H48268   9.259   0.021   4.834 -0.2428 -0.2223 -0.7703
  358MOL0     H48269   9.023   0.027   4.867 -0.2070 -1.9664 -0.4150
  358MOL0     H48270   9.086  -0.034   5.014 -1.0833 -1.2047 -1.1351
  358MOL0     H48271   9.064   0.183   5.136  2.7691  4.1028 -1.1426
  358MOL0     H48272   9.027   0.272   4.996  0.9511  1.2415  5.0684
  358MOL0     H48273   8.833   0.207   5.137 -1.5014 -1.5877 -0.0624
  358MOL0     H48274   8.817   0.163   4.962 -0.3325  2.2676  0.2705
  358MOL0     H48275   8.877  -0.069   5.031 -1.4788 -0.9005  0.0003
  358MOL0     H48276   8.896  -0.004   5.193 -1.2958 -0.6739  0.1354
  358MOL0     H48277   8.633  -0.016   5.042 -0.8994 -0.1263  0.5753
  358MOL0     H48278   8.687  -0.128   5.176  1.0939  0.4356  0.1381
  358MOL0     H48279   8.639   0.165   5.199 -1.8588  1.7720  2.2672
  358MOL0     H48280   8.701   0.047   5.328 -2.4643  0.6582  0.5872
  358MOL0     H48281   8.386   0.060   5.114  0.3160 -0.4913  0.4155
  358MOL0     H48282   8.142   0.055   5.191 -2.5820 -1.8771 -2.0879
  358MOL0     H48283   8.140  -0.117   5.195  1.4078 -1.3148  1.2987
  358MOL0     H48284   7.953   0.024   5.314  0.5681  1.6662 -0.0910
  358MOL0     H48285   8.079   0.086   5.420 -3.4937 -1.7174  2.7174
  358MOL0     H48286   8.133  -0.118   5.520  0.7495  2.7580 -0.3144
  358MOL0     H48287   8.008  -0.208   5.432  3.1378  0.5129 -2.7993
  358MOL0     H48288   7.956   0.043   5.603  1.3503 -0.4244 -0.9736
  358MOL0     H48289   7.950  -0.115   5.668 -3.3667  1.9303  1.6664
  358MOL0     H48290   7.593   0.052   5.413 -0.4617  1.6826 -0.1488
  358MOL0     H48291   7.277   0.099   5.489 -1.6576  1.5206 -1.0116
  358MOL0     H48292   7.323   0.267   5.486  1.0370  0.1833 -0.6851
  358MOL0     H48293   7.388   0.147   5.372 -0.8078 -0.7873  0.2131
  358MOL0     H48294   7.107   0.167   5.904 -2.8311 -1.7875  0.8342
  358MOL0     H48295   6.879   0.232   5.921 -1.2466 -1.0657 -1.2913
  358MOL0     H48296   6.796   0.653   5.839  0.9243 -0.0109 -1.7848
  358MOL0     H48297   6.717   0.557   5.701 -2.9956  1.1641 -0.8611
  358MOL0     H48298   6.528   0.501   5.841 -0.0761 -0.0270 -0.8078
  358MOL0     H48299   6.592   0.603   5.972 -2.4384 -1.9152  0.1031
  358MOL0     H48300   6.514   0.682   5.690 -1.8259 -0.6934  0.0975
  358MOL0     H48301   6.587   0.794   5.803 -0.0281  0.5523 -0.6749
  358MOL0     H48302   6.309   0.661   5.794 -0.0786 -0.4169  1.5371
  358MOL0     H48303   6.353   0.728   5.949  0.3271 -0.5896 -0.6075
  358MOL0     H48304   6.324   0.915   5.702  0.5859  2.8016  1.6154
  358MOL0     H48305   6.357   0.962   5.863 -0.3824 -0.6771  0.6945
  358MOL0     H48306   6.150   0.849   5.954 -2.3111 -3.2683 -1.5655
  358MOL0     H48307   6.132   0.996   5.854 -0.5467 -0.4613  0.0457
  358MOL0     H48308   6.095   0.705   5.759  0.5375 -0.2255 -1.3189
  358MOL0     H48309   6.077   0.857   5.660 -0.3500  1.7714  1.0288
  358MOL0     H48310   5.896   0.912   5.829 -0.2035 -0.0177 -1.7764
  358MOL0     H48311   5.911   0.756   5.910 -0.0827 -2.5523 -0.3944
  358MOL0     H48312   6.940   0.579   5.686 -0.3090 -0.7952 -0.7621
  358MOL0     H48313   7.167   0.499   5.624 -2.1265  0.7345 -0.4519
  358MOL0     H48314   7.583   0.098   5.895  1.4682 -2.2455  0.4738
  358MOL0     H48315   7.751  -0.042   5.794 -1.8249 -1.3538 -0.6944
  358MOL0     H48316   9.549  -0.164   5.120 -0.1435  1.2611 -1.1219
  358MOL0     H48317   9.714  -0.150   5.309  0.6405  1.6504 -1.0707
  358MOL0     H48318  10.123   0.027   5.414 -3.0567  0.6539 -1.7607
  358MOL0     H48319  10.308   0.049   5.597 -0.6037 -4.9727  4.2372
  358MOL0     H48320  10.203   0.298   5.960  1.1575 -0.1300  0.6824
  358MOL0     H48321  10.145   0.127   5.986 -0.3490 -0.5180 -2.4625
  358MOL0     H48322  10.381   0.087   6.063  0.7371  0.3130 -3.0779
  358MOL0     H48323  10.281   0.205   6.165 -2.3068  2.0402 -1.3031
  358MOL0     H48324  10.502   0.291   6.154  1.7437 -0.5514 -1.0070
  358MOL0     H48325  10.411   0.392   6.051 -1.3423 -1.2063  0.3565
  358MOL0     H48326  10.514   0.290   5.852  0.8983 -1.4826 -0.2943
  358MOL0     H48327  10.587   0.154   5.961  0.2295 -0.9343 -1.2058
  358MOL0     H48328  10.866   0.441   6.037 -2.3015  2.1432  5.2423
  358MOL0     H48329   9.996   0.206   5.852  1.2609  0.8581  0.6477
  358MOL0     H48330   9.835   0.180   5.687  1.1031  5.3504 -1.5494
  359MOL0     O48331   1.075   5.908   0.058  0.2218  0.8624  0.0379
  359MOL0     C48332   1.194   5.907   0.084 -0.4763  0.4533 -0.0351
  359MOL0     O48333   1.255   5.829   0.171  0.0582  0.6928 -1.0546
  359MOL0     C48334   1.192   5.714   0.230  0.0642 -0.4301 -0.4916
  359MOL0     C48335   1.276   5.615   0.281  0.9238  0.0341  0.2080
  359MOL0     C48336   1.224   5.498   0.333 -0.2090  0.3268 -0.0308
  359MOL0     C48337   1.091   5.474   0.335 -0.1617 -0.3144 -0.0205
  359MOL0     O48338   1.041   5.355   0.386  0.2676  0.6215  0.1623
  359MOL0     C48339   0.966   5.268   0.298  0.0974 -0.4105  1.1789
  359MOL0     C48340   0.874   5.180   0.377 -0.2941 -0.1403  0.3159
  359MOL0     C48341   0.721   5.191   0.338  0.3020 -1.2565 -0.2190
  359MOL0     C48342   0.647   5.065   0.371  0.1309  0.1931  0.3395
  359MOL0     C48343   0.497   5.084   0.340  0.2459  0.0978  0.0710
  359MOL0     C48344   0.457   5.073   0.201  0.5379  0.2830  1.0222
  359MOL0     C48345   0.313   5.051   0.174  0.6813  0.1040  0.2922
  359MOL0     C48346   0.227   5.174   0.213  0.5192  0.4245 -0.2704
  359MOL0     N48347   0.090   5.174   0.159  0.8800  0.1925  0.7139
  359MOL0     C48348  -0.027   5.176   0.236 -0.7461 -0.1141 -0.5046
  359MOL0     C48349  -0.126   5.174   0.144  0.3445  0.6177 -0.3700
  359MOL0     C48350  -0.277   5.177   0.162 -0.2777 -0.0198  0.0392
  359MOL0     C48351  -0.312   5.316   0.211 -0.5597 -0.2639 -0.2265
  359MOL0     C48352  -0.330   5.324   0.365 -0.0459 -0.2390  0.4671
  359MOL0     C48353  -0.461   5.258   0.415  0.5756  0.3661  0.1720
  359MOL0     O48354  -0.576   5.318   0.349  0.0687  0.2711 -0.4266
  359MOL0     C48355  -0.695   5.289   0.398  0.3857 -0.1599 -0.0447
  359MOL0     C48356  -0.813   5.354   0.358  0.0070 -0.7205 -0.8528
  359MOL0     C48357  -0.944   5.331   0.410 -0.3166 -0.6953 -0.0435
  359MOL0     C48358  -1.053   5.426   0.366 -0.2396  0.2075 -0.8526
  359MOL0     C48359  -0.962   5.236   0.516 -0.1426 -0.1362 -0.5466
  359MOL0     C48360  -1.092   5.198   0.587  0.4650 -0.0281  0.3298
  359MOL0     O48361  -1.085   5.085   0.666 -0.3417  0.0350  0.5042
  359MOL0     C48362  -1.203   5.035   0.721 -0.8292  0.5017 -0.5168
  359MOL0     C48363  -1.234   4.899   0.690  0.1373  0.0438  0.0099
  359MOL0     C48364  -1.349   4.840   0.748 -0.0704 -0.1461 -0.9701
  359MOL0     C48365  -1.428   4.904   0.839 -0.6387 -1.0882 -0.0534
  359MOL0     O48366  -1.538   4.840   0.885  0.6338 -0.5680  0.1545
  359MOL0     C48367  -1.609   4.899   0.989  0.4369 -0.4751 -0.8405
  359MOL0     C48368  -1.714   4.804   1.023  0.2165 -0.1577  1.1093
  359MOL0     C48369  -1.820   4.843   1.120  0.2061 -0.5171  0.4730
  359MOL0     C48370  -1.780   4.851   1.264  0.1655  0.7577 -0.2919
  359MOL0     C48371  -1.876   4.907   1.371  1.0396  0.1609 -0.2658
  359MOL0     C48372  -2.000   4.826   1.406 -0.3912 -0.2688 -0.4758
  359MOL0     C48373  -1.985   4.676   1.425  0.2160  0.4419  0.0265
  359MOL0     C48374  -2.116   4.617   1.472  0.1222 -0.0419  0.6673
  359MOL0    Cl48375  -2.198   4.694   1.614 -0.3753  0.0307 -0.0864
  359MOL0     C48376  -1.395   5.034   0.875  0.6488 -0.7499 -0.1004
  359MOL0     C48377  -1.283   5.103   0.818  0.2163 -0.1734 -0.2949
  359MOL0     O48378  -1.193   5.267   0.573  0.7372 -0.4766 -0.6408
  359MOL0     C48379  -0.841   5.163   0.537  0.7094 -0.5597 -1.5959
  359MOL0     C48380  -0.716   5.189   0.491 -0.3405 -0.7141 -1.1479
  359MOL0     N48381  -0.071   5.156   0.021 -0.4282  0.4364 -0.3585
  359MOL0     N48382   0.055   5.165   0.028 -0.0230  0.2458  0.0812
  359MOL0     C48383   1.001   5.569   0.278 -0.1237 -0.1303 -0.4937
  359MOL0     C48384   1.053   5.691   0.230 -0.0039  0.8102  0.0810
  359MOL0     C48385   1.282   5.993   0.009  0.1469 -0.4060  0.1549
  359MOL0     C48386   1.424   5.972  -0.001  0.2367 -0.3362 -0.5789
  359MOL0     C48387   1.509   6.058  -0.072 -0.3149 -0.2519 -0.2433
  359MOL0     C48388   1.455   6.171  -0.132 -0.0742 -0.1630  0.6298
  359MOL0     O48389   1.525   6.271  -0.193 -0.2392  0.0431  0.1070
  359MOL0     C48390   1.655   6.222  -0.247 -0.0749 -0.6777 -0.2292
  359MOL0     C48391   1.702   6.328  -0.352  1.1047  0.0575 -0.7644
  359MOL0     C48392   1.837   6.309  -0.415  0.1672  0.2114 -0.0837
  359MOL0     C48393   1.900   6.441  -0.434  0.0175 -0.1406  0.7830
  359MOL0     C48394   2.023   6.420  -0.515  0.8685  0.2774 -0.6892
  359MOL0     C48395   2.128   6.402  -0.560 -0.2466 -0.9598 -0.4892
  359MOL0     C48396   1.317   6.196  -0.132  0.3617  0.1425  0.0511
  359MOL0     C48397   1.241   6.116  -0.054 -0.8441  0.7589  0.0615
  359MOL0     H48398   1.382   5.635   0.268  0.7882  1.8231  1.4903
  359MOL0     H48399   1.281   5.417   0.376 -2.6113 -1.3157  0.2658
  359MOL0     H48400   0.899   5.332   0.239  0.7230  0.1771  1.0994
  359MOL0     H48401   1.032   5.209   0.234  1.1979 -0.1722  2.0651
  359MOL0     H48402   0.912   5.079   0.357 -2.0856 -0.6614 -0.6560
  359MOL0     H48403   0.890   5.202   0.483  2.9117  0.8051 -0.2486
  359MOL0     H48404   0.668   5.272   0.388 -2.8667 -0.4121 -4.3600
  359MOL0     H48405   0.718   5.228   0.235  0.5602  2.9678  1.0802
  359MOL0     H48406   0.698   4.976   0.333  0.8089  1.0974 -0.9629
  359MOL0     H48407   0.647   5.046   0.479  1.0060 -2.8316 -0.0817
  359MOL0     H48408   0.437   5.007   0.389  0.5803  0.3203  0.8458
  359MOL0     H48409   0.470   5.181   0.384 -0.2547 -0.6214  1.3940
  359MOL0     H48410   0.480   5.160   0.140 -2.6488 -1.7898 -3.7763
  359MOL0     H48411   0.525   4.998   0.159  0.9342  1.4942 -0.5839
  359MOL0     H48412   0.310   5.041   0.065 -0.5006 -1.3494  0.4184
  359MOL0     H48413   0.280   4.955   0.216 -0.5752 -0.3098 -1.5211
  359MOL0     H48414   0.284   5.266   0.200  0.7635  0.2965 -0.1216
  359MOL0     H48415   0.213   5.157   0.321  1.6089 -5.5222 -0.7279
  359MOL0     H48416  -0.022   5.184   0.344 -2.0332  3.5126 -0.5676
  359MOL0     H48417  -0.331   5.156   0.069  1.6500  2.1771 -1.6961
  359MOL0     H48418  -0.299   5.102   0.238 -0.2742 -1.0289 -0.9399
  359MOL0     H48419  -0.399   5.351   0.156 -0.6952 -0.5459 -0.1901
  359MOL0     H48420  -0.233   5.387   0.183 -0.8607 -0.4040 -1.4947
  359MOL0     H48421  -0.330   5.426   0.404 -4.5056 -0.6597  2.2154
  359MOL0     H48422  -0.244   5.277   0.414 -1.4010  0.8406  4.2736
  359MOL0     H48423  -0.464   5.262   0.524  1.8087 -2.3034  0.3814
  359MOL0     H48424  -0.465   5.151   0.395 -0.6917  0.1069  1.5902
  359MOL0     H48425  -0.805   5.421   0.273 -1.2093  2.3033  1.2445
  359MOL0     H48426  -1.152   5.381   0.381  0.7023 -2.2669 -1.5269
  359MOL0     H48427  -1.035   5.514   0.429 -3.9399  0.8132 -0.4022
  359MOL0     H48428  -1.035   5.452   0.261  0.5148  1.8138 -0.3484
  359MOL0     H48429  -1.175   4.832   0.628 -0.0095 -1.1814  1.1554
  359MOL0     H48430  -1.381   4.739   0.724 -0.5076  0.0901 -1.3806
  359MOL0     H48431  -1.554   4.910   1.083 -2.7425 -2.1226  1.4340
  359MOL0     H48432  -1.649   4.995   0.955 -0.3057 -0.1441  0.8344
  359MOL0     H48433  -1.767   4.772   0.933  0.4627  2.8817 -0.2191
  359MOL0     H48434  -1.671   4.711   1.063 -0.1210 -1.8247 -2.0540
  359MOL0     H48435  -1.905   4.776   1.105 -0.8252  0.2638  2.5216
  359MOL0     H48436  -1.855   4.944   1.098  0.5800  0.1736  2.7897
  359MOL0     H48437  -1.758   4.748   1.297 -0.2611  0.5436 -0.6801
  359MOL0     H48438  -1.686   4.905   1.251  3.0811 -3.7132 -0.3183
  359MOL0     H48439  -1.911   5.005   1.338  0.2433  1.3023  3.4942
  359MOL0     H48440  -1.821   4.927   1.464  1.4032  1.5766 -0.7563
  359MOL0     H48441  -2.039   4.869   1.499  2.1556 -3.1853  2.1557
  359MOL0     H48442  -2.062   4.840   1.317 -0.3234  0.3693 -0.4260
  359MOL0     H48443  -1.904   4.664   1.497  0.1156  1.7135  0.3782
  359MOL0     H48444  -1.967   4.625   1.330 -4.7007 -1.2911 -0.2825
  359MOL0     H48445  -2.091   4.513   1.495 -0.4200 -0.2335  0.4029
  359MOL0     H48446  -2.191   4.610   1.394 -1.1133 -1.3365  1.9251
  359MOL0     H48447  -1.456   5.092   0.945  0.5851  0.7436 -1.3428
  359MOL0     H48448  -1.263   5.209   0.826  0.0368  0.0146 -1.9752
  359MOL0     H48449  -0.856   5.094   0.619  2.8104 -1.1582 -1.6609
  359MOL0     H48450  -0.633   5.132   0.531  1.0926  2.8738  1.6617
  359MOL0     H48451   0.895   5.560   0.297 -0.1492  2.4948  1.0898
  359MOL0     H48452   0.970   5.753   0.198 -0.8947 -0.6857 -0.6036
  359MOL0     H48453   1.470   5.890   0.054  1.1639 -0.2265 -1.1750
  359MOL0     H48454   1.609   6.018  -0.085 -0.5919 -0.4162 -2.2490
  359MOL0     H48455   1.734   6.217  -0.171  1.8513 -2.7412 -2.2297
  359MOL0     H48456   1.643   6.125  -0.296  0.0745 -1.4373  1.1838
  359MOL0     H48457   1.688   6.428  -0.310  1.1038  0.8107 -2.4517
  359MOL0     H48458   1.629   6.331  -0.434 -1.0522  0.8340  1.0598
  359MOL0     H48459   1.821   6.257  -0.510 -0.4158 -1.8473  1.0760
  359MOL0     H48460   1.902   6.252  -0.348 -0.7046 -2.0155 -1.0405
  359MOL0     H48461   1.930   6.487  -0.340  1.3281  3.6078 -1.2646
  359MOL0     H48462   1.831   6.513  -0.480  0.8211  0.5531  0.6459
  359MOL0     H48463   2.232   6.385  -0.579  1.0085  1.8077  2.8423
  359MOL0     H48464   1.266   6.281  -0.175  2.4601  0.8731 -1.1467
  359MOL0     H48465   1.137   6.145  -0.041 -1.3506 -0.5644 -0.7555
  360MOL0     O48466   9.309   8.746   8.303  0.1409 -0.2094 -0.2195
  360MOL0     C48467   9.327   8.864   8.279  0.0407 -0.2400  0.2555
  360MOL0     O48468   9.231   8.961   8.266 -0.9548  0.0843 -0.5450
  360MOL0     C48469   9.100   8.926   8.288  0.2960  0.7696 -0.2586
  360MOL0     C48470   9.036   8.940   8.410 -0.4723  0.3823  0.8183
  360MOL0     C48471   8.902   8.901   8.431  0.0032  0.0994  0.6991
  360MOL0     C48472   8.836   8.818   8.334  0.9645 -0.5135  0.1734
  360MOL0     O48473   8.701   8.787   8.345 -0.1057 -0.2404 -0.1273
  360MOL0     C48474   8.637   8.749   8.467  0.2678  0.0290 -0.1871
  360MOL0     C48475   8.485   8.713   8.450  0.5056  0.0708  0.1752
  360MOL0     C48476   8.465   8.564   8.448 -0.2171 -0.8064 -0.3860
  360MOL0     C48477   8.342   8.514   8.532  0.6431  0.6907 -0.7863
  360MOL0     C48478   8.393   8.499   8.677  0.2665 -0.2250 -0.0447
  360MOL0     C48479   8.288   8.442   8.774 -0.0395 -0.1672  0.2858
  360MOL0     C48480   8.319   8.462   8.925  0.5646  0.3645  0.4524
  360MOL0     C48481   8.442   8.378   8.970  0.1729 -0.0244 -1.0406
  360MOL0     N48482   8.434   8.232   8.956 -0.2890  0.1545 -0.0671
  360MOL0     C48483   8.374   8.146   9.047 -0.0815 -0.0770 -0.8067
  360MOL0     C48484   8.398   8.025   9.004  0.6268 -0.1098  0.0357
  360MOL0     C48485   8.353   7.904   9.079  0.4213 -0.4901  0.4478
  360MOL0     C48486   8.197   7.894   9.080 -0.2223 -0.1939 -0.0595
  360MOL0     C48487   8.139   7.781   9.171  0.8016  0.8120 -0.3283
  360MOL0     C48488   8.162   7.628   9.130 -0.6100  0.9910  0.5441
  360MOL0     O48489   8.113   7.589   8.991 -0.5386  0.6561  0.1219
  360MOL0     C48490   7.981   7.601   8.952  0.9191  0.8927 -1.0792
  360MOL0     C48491   7.951   7.591   8.819  0.3316  0.3990  1.5593
  360MOL0     C48492   7.822   7.612   8.764 -0.8574 -0.4754  0.3284
  360MOL0     C48493   7.786   7.597   8.624 -0.4554 -0.0402  0.5254
  360MOL0     C48494   7.720   7.636   8.861  0.3179 -0.3120 -0.5282
  360MOL0     C48495   7.578   7.645   8.831 -0.4662 -0.0913 -0.3792
  360MOL0     O48496   7.491   7.606   8.931 -0.0665  0.1072  0.2045
  360MOL0     C48497   7.367   7.669   8.948  0.5182 -0.8113 -0.7468
  360MOL0     C48498   7.262   7.598   9.015 -0.8678 -0.4266  0.3578
  360MOL0     C48499   7.136   7.651   9.034 -0.2756  0.0032 -0.8218
  360MOL0     C48500   7.116   7.787   9.009  0.4627 -0.9373 -0.1669
  360MOL0     O48501   6.997   7.828   9.045  0.6646 -0.1060 -0.0285
  360MOL0     C48502   7.005   7.966   9.090 -0.1649 -0.3531  0.0550
  360MOL0     C48503   6.893   7.996   9.190 -0.2912  0.4281 -0.1261
  360MOL0     C48504   6.763   8.061   9.138  0.0327 -0.3178  0.5731
  360MOL0     C48505   6.661   8.098   9.247 -0.4193 -0.5972 -0.6037
  360MOL0     C48506   6.544   8.200   9.200 -0.2741 -0.0256 -0.3647
  360MOL0     C48507   6.425   8.224   9.292  0.4843  0.4563  0.5764
  360MOL0     C48508   6.455   8.297   9.425  1.2585  0.2393 -0.4955
  360MOL0     C48509   6.324   8.331   9.500 -0.4045  0.2605  0.1538
  360MOL0    Cl48510   6.218   8.184   9.512 -0.1176 -0.6011 -0.3019
  360MOL0     C48511   7.215   7.859   8.946  0.0166 -0.7578  0.0597
  360MOL0     C48512   7.341   7.807   8.917  0.1150  0.1357  0.2249
  360MOL0     O48513   7.539   7.680   8.725 -0.0106  0.0168 -0.5591
  360MOL0     C48514   7.751   7.638   8.997 -0.8636  0.7444  0.1428
  360MOL0     C48515   7.881   7.622   9.043 -0.7644  0.2629  0.2604
  360MOL0     N48516   8.480   8.029   8.888  0.1415 -0.7339  0.0662
  360MOL0     N48517   8.489   8.156   8.857 -0.1592  0.3286 -0.0341
  360MOL0     C48518   8.902   8.808   8.203 -0.1427 -0.2140 -0.2354
  360MOL0     C48519   9.032   8.856   8.191 -0.2188 -0.5590  0.2629
  360MOL0     C48520   9.466   8.911   8.280 -0.8190 -0.9992 -0.4957
  360MOL0     C48521   9.494   9.051   8.292 -0.1293 -0.6072 -0.5246
  360MOL0     C48522   9.624   9.098   8.293  0.1361  0.0223  0.2626
  360MOL0     C48523   9.733   9.008   8.292 -0.5661  0.0692  0.3982
  360MOL0     O48524   9.861   9.057   8.304 -0.0989  0.2676  0.1588
  360MOL0     C48525   9.969   8.961   8.314  0.4673 -0.5784 -0.6725
  360MOL0     C48526  10.101   9.047   8.312 -0.2381  0.1005  0.6205
  360MOL0     C48527  10.137   9.088   8.452 -0.4349  0.0818 -0.0124
  360MOL0     C48528  10.245   9.204   8.442  0.1009  0.1294  0.8254
  360MOL0     C48529  10.294   9.238   8.575  0.9681 -0.0887 -0.9979
  360MOL0     C48530  10.349   9.252   8.686 -0.3844  0.4060  0.4440
  360MOL0     C48531   9.704   8.872   8.280 -0.4151 -0.2337  0.6979
  360MOL0     C48532   9.574   8.826   8.277  0.0987 -0.0151  0.2812
  360MOL0     H48533   9.083   8.984   8.498 -2.2185  1.6224  1.1923
  360MOL0     H48534   8.852   8.930   8.524  1.3877 -2.1051  2.2274
  360MOL0     H48535   8.694   8.664   8.506  0.1863  0.0326 -0.0576
  360MOL0     H48536   8.640   8.832   8.539 -0.6210 -0.3214  0.2794
  360MOL0     H48537   8.434   8.762   8.534 -0.7730  1.2154 -1.1941
  360MOL0     H48538   8.454   8.751   8.352  1.8187 -2.6358 -1.4167
  360MOL0     H48539   8.431   8.561   8.344  0.1174  1.1452 -0.5871
  360MOL0     H48540   8.556   8.505   8.463 -2.8493 -4.4102  3.3687
  360MOL0     H48541   8.250   8.570   8.513  2.6059  3.4987 -2.8043
  360MOL0     H48542   8.319   8.412   8.501 -0.5741  0.2722  1.2732
  360MOL0     H48543   8.494   8.457   8.680  0.8059  1.0034 -0.1668
  360MOL0     H48544   8.400   8.599   8.721  0.2174 -0.7656  1.2571
  360MOL0     H48545   8.202   8.507   8.759 -0.7409 -0.2149  3.3595
  360MOL0     H48546   8.270   8.338   8.747 -0.4940  0.1018 -0.4607
  360MOL0     H48547   8.348   8.566   8.943  1.6192 -0.0672  1.4130
  360MOL0     H48548   8.232   8.432   8.984  0.9145 -0.3424  0.6218
  360MOL0     H48549   8.461   8.394   9.077 -1.6499 -0.3019 -0.6498
  360MOL0     H48550   8.527   8.417   8.912 -0.5003  2.7187 -0.3450
  360MOL0     H48551   8.313   8.168   9.135  1.7936  0.2930  0.4521
  360MOL0     H48552   8.393   7.815   9.030  1.2376  0.1979 -0.1781
  360MOL0     H48553   8.398   7.919   9.177  3.4239  2.6697 -1.1754
  360MOL0     H48554   8.169   7.871   8.977 -2.9394 -0.5864  0.7083
  360MOL0     H48555   8.154   7.992   9.103 -0.1435  0.3543 -2.0401
  360MOL0     H48556   8.031   7.792   9.184  0.7199 -0.4221  0.1863
  360MOL0     H48557   8.180   7.805   9.270 -1.9703  0.1590  1.1058
  360MOL0     H48558   8.110   7.563   9.201  0.8179 -0.0752  0.6598
  360MOL0     H48559   8.271   7.618   9.127 -0.5159  1.9882  0.5778
  360MOL0     H48560   8.031   7.562   8.752  0.2449 -1.0320  2.0511
  360MOL0     H48561   7.740   7.498   8.608 -1.3812  0.3138  0.8976
  360MOL0     H48562   7.721   7.676   8.584  1.2793  1.7432  1.0885
  360MOL0     H48563   7.877   7.602   8.565 -0.4501  2.0816  0.6585
  360MOL0     H48564   7.294   7.496   9.035 -0.3440 -0.2331  0.5149
  360MOL0     H48565   7.061   7.595   9.089  0.3884 -0.3636 -0.2733
  360MOL0     H48566   7.101   7.986   9.139  1.4000 -1.1152 -2.4959
  360MOL0     H48567   6.989   8.035   9.006  0.7709 -0.3802 -0.1553
  360MOL0     H48568   6.875   7.897   9.231  2.2817 -0.6911 -1.4870
  360MOL0     H48569   6.934   8.058   9.270 -0.1336  2.0670 -1.4216
  360MOL0     H48570   6.712   7.993   9.069 -2.6333  2.7762 -0.7418
  360MOL0     H48571   6.783   8.153   9.084  0.6807 -0.1614  1.0674
  360MOL0     H48572   6.612   8.005   9.278 -1.8735  0.4493  0.4030
  360MOL0     H48573   6.715   8.138   9.334 -0.4917  0.7507 -1.1519
  360MOL0     H48574   6.503   8.157   9.108 -2.4847  0.4106  0.3543
  360MOL0     H48575   6.575   8.301   9.173 -2.6248  0.6491 -0.8069
  360MOL0     H48576   6.359   8.289   9.234 -1.1381 -0.8516  0.8881
  360MOL0     H48577   6.363   8.134   9.295  1.2076 -0.0191  1.8397
  360MOL0     H48578   6.520   8.385   9.422 -1.9806  2.7676 -1.8915
  360MOL0     H48579   6.500   8.221   9.490  1.7469  1.6325  0.8406
  360MOL0     H48580   6.275   8.412   9.446  2.2377  0.8374 -1.6027
  360MOL0     H48581   6.354   8.368   9.599  1.1193 -4.6252  1.8081
  360MOL0     H48582   7.183   7.949   8.894 -1.1389 -3.1720 -3.8620
  360MOL0     H48583   7.414   7.873   8.871  0.0105 -0.5987 -1.0467
  360MOL0     H48584   7.686   7.649   9.082  2.0977  2.1782  2.4064
  360MOL0     H48585   7.901   7.628   9.150 -1.8906  0.7135  0.4572
  360MOL0     H48586   8.844   8.747   8.134  0.3351 -0.2433 -0.6163
  360MOL0     H48587   9.071   8.859   8.090 -1.4621 -0.2342 -0.2301
  360MOL0     H48588   9.416   9.126   8.287 -1.5897 -2.1461 -1.7240
  360MOL0     H48589   9.644   9.205   8.297  0.2359  0.1116 -1.5640
  360MOL0     H48590   9.964   8.915   8.413 -0.7313  1.7116  0.4126
  360MOL0     H48591   9.964   8.884   8.237 -1.0521 -1.4575  0.2544
  360MOL0     H48592  10.098   9.128   8.238  4.2864 -2.0502 -2.3121
  360MOL0     H48593  10.172   8.975   8.272 -0.7599 -0.0479 -0.0554
  360MOL0     H48594  10.172   8.998   8.502  0.5809  0.1761 -0.5165
  360MOL0     H48595  10.050   9.125   8.506 -1.7154  1.6105 -2.9143
  360MOL0     H48596  10.198   9.295   8.404 -0.2216  0.6177  2.2904
  360MOL0     H48597  10.324   9.185   8.369 -1.1626  1.7027 -1.0384
  360MOL0     H48598  10.397   9.260   8.782  3.0109  1.9705 -1.2229
  360MOL0     H48599   9.779   8.794   8.271 -1.3393 -0.9077 -1.8870
  360MOL0     H48600   9.557   8.719   8.279  1.4849 -0.2352  1.6345
  361MOL0     O48601   8.703   1.815   2.727 -0.2755 -0.2418 -0.2412
  361MOL0     C48602   8.767   1.754   2.806  0.0358 -0.0929 -0.4801
  361MOL0     O48603   8.719   1.640   2.866  0.0170 -0.2519 -0.7089
  361MOL0     C48604   8.598   1.586   2.855  0.0482 -0.0430 -0.1206
  361MOL0     C48605   8.542   1.580   2.728  0.0094  0.1942  0.6899
  361MOL0     C48606   8.417   1.523   2.702  0.1895 -0.5888  0.4877
  361MOL0     C48607   8.343   1.467   2.803  0.3178 -0.7105  0.9618
  361MOL0     O48608   8.232   1.409   2.763  0.3537  0.2730 -0.2174
  361MOL0     C48609   8.109   1.485   2.788 -1.4110  0.8804 -0.1081
  361MOL0     C48610   7.992   1.392   2.815  0.6187  0.1312  0.4209
  361MOL0     C48611   7.986   1.333   2.958  0.0104 -0.2379 -0.7655
  361MOL0     C48612   7.859   1.245   2.993 -0.5535  0.4450  0.6671
  361MOL0     C48613   7.859   1.171   3.135 -0.1350  0.5124 -0.3086
  361MOL0     C48614   7.874   1.252   3.260  0.0503 -0.0113 -0.6898
  361MOL0     C48615   7.740   1.324   3.277 -0.6161 -0.1796 -0.9812
  361MOL0     C48616   7.748   1.399   3.405 -0.5328  0.4651  0.7980
  361MOL0     N48617   7.616   1.449   3.446  0.8944 -0.1308  0.3432
  361MOL0     C48618   7.497   1.382   3.457 -0.6621  0.8307 -1.0238
  361MOL0     C48619   7.392   1.463   3.457 -0.3285 -0.2878  0.1082
  361MOL0     C48620   7.249   1.427   3.466 -0.7086 -0.9797  0.2728
  361MOL0     C48621   7.199   1.382   3.609  0.4531 -0.3827  0.2682
  361MOL0     C48622   7.155   1.500   3.700  0.3166  0.8455  0.4921
  361MOL0     C48623   7.003   1.535   3.687  0.1275  0.2912  0.1607
  361MOL0     O48624   6.920   1.418   3.722  0.3865 -0.0272  0.4114
  361MOL0     C48625   6.784   1.439   3.740  0.2413 -0.0671 -0.6728
  361MOL0     C48626   6.710   1.520   3.661 -0.0142 -0.9801 -0.4287
  361MOL0     C48627   6.575   1.543   3.680  0.3585  0.2830 -0.5613
  361MOL0     C48628   6.503   1.633   3.585  0.0254  0.9177  0.5160
  361MOL0     C48629   6.510   1.465   3.779  0.3326  0.6312  0.7551
  361MOL0     C48630   6.364   1.467   3.804 -0.9064  0.1886  0.5895
  361MOL0     O48631   6.314   1.354   3.868 -0.0403  0.0186 -0.2882
  361MOL0     C48632   6.179   1.331   3.871  0.9434 -0.2839 -0.5199
  361MOL0     C48633   6.081   1.371   3.788  0.3948  0.6241  0.4095
  361MOL0     C48634   5.944   1.328   3.796  0.0071 -0.8602 -0.4712
  361MOL0     C48635   5.900   1.250   3.907 -0.3556  0.0901  0.7202
  361MOL0     O48636   5.774   1.198   3.904  0.7590  0.0946 -0.5213
  361MOL0     C48637   5.713   1.200   4.033 -0.3906 -0.8690  0.0533
  361MOL0     C48638   5.563   1.242   4.010 -0.3690  0.0585  0.0899
  361MOL0     C48639   5.508   1.145   3.907 -0.0965  0.6510  0.7330
  361MOL0     C48640   5.348   1.152   3.917  0.4813 -0.1176 -0.0491
  361MOL0     C48641   5.290   1.045   3.822 -0.1858  1.0292 -0.0668
  361MOL0     C48642   5.140   1.068   3.820  0.8905  0.8665  0.8532
  361MOL0     C48643   5.068   0.967   3.733 -0.1559  0.3776 -0.2857
  361MOL0     C48644   4.918   0.975   3.752  0.4900 -0.1859  0.2783
  361MOL0    Cl48645   4.841   0.920   3.604 -0.6426  0.1888  0.5190
  361MOL0     C48646   5.998   1.218   4.006  0.7592 -0.9804 -0.0015
  361MOL0     C48647   6.133   1.263   3.985 -0.0393  0.1113 -0.8959
  361MOL0     O48648   6.296   1.565   3.771 -0.3264  0.0768  0.6975
  361MOL0     C48649   6.589   1.372   3.850  0.2931  0.4343 -0.7256
  361MOL0     C48650   6.722   1.360   3.827 -0.3629  0.4084  0.1975
  361MOL0     N48651   7.449   1.586   3.440  0.0553 -0.9892  1.0850
  361MOL0     N48652   7.576   1.583   3.438 -0.0643  0.3213  0.4265
  361MOL0     C48653   8.394   1.462   2.934  0.5172 -0.2126  0.7532
  361MOL0     C48654   8.519   1.522   2.956  0.1107 -0.0827  0.1825
  361MOL0     C48655   8.906   1.797   2.834 -0.3021 -0.5798 -0.8905
  361MOL0     C48656   8.954   1.930   2.827 -0.1673  0.7646 -0.4853
  361MOL0     C48657   9.088   1.958   2.859 -1.2544 -0.3907 -0.0909
  361MOL0     C48658   9.175   1.848   2.902 -0.0193  0.0056  0.2948
  361MOL0     O48659   9.301   1.869   2.933  0.3197 -0.5878 -0.3729
  361MOL0     C48660   9.409   1.775   2.937 -0.0783 -0.5106 -0.0223
  361MOL0     C48661   9.543   1.843   2.983  0.2048  0.0541 -0.2789
  361MOL0     C48662   9.536   1.929   3.115 -0.0073 -0.0905 -0.5097
  361MOL0     C48663   9.483   1.850   3.239  0.8441 -0.6261 -0.0720
  361MOL0     C48664   9.461   1.941   3.352 -1.3519  0.6374 -0.2780
  361MOL0     C48665   9.456   2.015   3.447 -0.7516  0.6160 -0.5374
  361MOL0     C48666   9.127   1.714   2.900  0.5549 -0.2866  0.3837
  361MOL0     C48667   8.997   1.700   2.867 -0.0873  0.5903  0.2237
  361MOL0     H48668   8.597   1.626   2.646  0.7910  1.8379  2.0810
  361MOL0     H48669   8.365   1.534   2.608  1.1230  1.2133  0.1329
  361MOL0     H48670   8.119   1.552   2.873  0.1201 -1.8602  2.0353
  361MOL0     H48671   8.087   1.545   2.699 -0.7241 -1.0770 -1.6806
  361MOL0     H48672   7.900   1.449   2.800 -0.0721 -0.4876  2.0411
  361MOL0     H48673   7.984   1.307   2.746  0.1881 -0.2003  0.8627
  361MOL0     H48674   8.077   1.277   2.984  0.2952  0.3227 -0.5257
  361MOL0     H48675   7.991   1.423   3.020  1.7476 -1.3652  0.8434
  361MOL0     H48676   7.769   1.303   2.969  0.8553  1.9930 -1.3188
  361MOL0     H48677   7.858   1.160   2.924 -0.1552 -0.2396  1.4867
  361MOL0     H48678   7.773   1.104   3.145  1.9094 -2.4090 -0.8495
  361MOL0     H48679   7.943   1.102   3.148  0.6537  1.4643 -0.2417
  361MOL0     H48680   7.884   1.186   3.347  0.4000 -0.6041 -1.1672
  361MOL0     H48681   7.961   1.318   3.254 -0.0239  0.1124 -0.4108
  361MOL0     H48682   7.700   1.388   3.198 -0.1938  1.2526 -0.0867
  361MOL0     H48683   7.666   1.246   3.296  1.5754 -2.1695 -0.1078
  361MOL0     H48684   7.817   1.480   3.379 -0.1257 -0.4032 -0.9795
  361MOL0     H48685   7.791   1.336   3.483 -5.1410 -3.1897  0.8326
  361MOL0     H48686   7.484   1.275   3.471 -2.6730  1.2668  1.1752
  361MOL0     H48687   7.185   1.505   3.425 -0.6302  0.4265  2.6821
  361MOL0     H48688   7.234   1.339   3.402 -3.3399 -1.1819  1.0742
  361MOL0     H48689   7.286   1.331   3.652  0.9032  1.1194  1.2054
  361MOL0     H48690   7.110   1.319   3.594 -0.2115  0.7274 -0.6203
  361MOL0     H48691   7.213   1.591   3.684 -1.5188  2.0552  0.5120
  361MOL0     H48692   7.174   1.480   3.806  1.3458 -0.0826  0.1594
  361MOL0     H48693   6.985   1.556   3.582  2.3824 -0.2073 -0.3817
  361MOL0     H48694   6.978   1.620   3.751 -0.8580 -1.1806  1.8579
  361MOL0     H48695   6.763   1.585   3.592 -3.2886  0.9776 -1.3469
  361MOL0     H48696   6.576   1.671   3.513  0.6705  0.8663  1.1302
  361MOL0     H48697   6.421   1.582   3.534 -0.1546 -1.8134  3.2196
  361MOL0     H48698   6.453   1.713   3.641 -2.3278 -1.5239  2.1513
  361MOL0     H48699   6.109   1.421   3.696  0.6628 -2.7702 -1.5288
  361MOL0     H48700   5.870   1.331   3.716  2.5968  0.3371 -3.0281
  361MOL0     H48701   5.704   1.101   4.077 -0.3310 -0.2782  1.4607
  361MOL0     H48702   5.758   1.269   4.106  0.6357 -3.0711  1.6216
  361MOL0     H48703   5.512   1.233   4.106 -1.2636 -0.2894 -0.3998
  361MOL0     H48704   5.542   1.343   3.972 -2.6129 -0.1222  0.7063
  361MOL0     H48705   5.545   1.042   3.909 -1.5969  0.0911  0.7706
  361MOL0     H48706   5.525   1.186   3.807  2.0309 -1.2043  0.2412
  361MOL0     H48707   5.302   1.127   4.013 -0.3887  0.5297 -0.2855
  361MOL0     H48708   5.321   1.256   3.897 -0.1971 -0.0404  1.1458
  361MOL0     H48709   5.313   0.946   3.864  0.6002  0.5835 -1.4970
  361MOL0     H48710   5.328   1.050   3.720  2.1006  0.1400  0.6854
  361MOL0     H48711   5.090   1.075   3.918  1.2681  0.1386  1.0994
  361MOL0     H48712   5.140   1.172   3.785  4.5050  0.0713 -2.0601
  361MOL0     H48713   5.105   0.864   3.741  0.6952  0.3458 -3.3801
  361MOL0     H48714   5.084   0.985   3.626 -2.8676 -3.4127 -1.5593
  361MOL0     H48715   4.891   1.081   3.764  1.8766  0.2317 -0.0820
  361MOL0     H48716   4.889   0.907   3.832  1.4452 -4.6252 -2.7498
  361MOL0     H48717   5.978   1.166   4.099  3.4545 -0.1605  1.1381
  361MOL0     H48718   6.202   1.246   4.068  0.9761 -0.0962 -1.7662
  361MOL0     H48719   6.549   1.305   3.924  2.8313  2.8888  3.2563
  361MOL0     H48720   6.772   1.291   3.895 -2.9499 -0.7646  1.0505
  361MOL0     H48721   8.336   1.416   3.013  0.2081 -1.4837 -0.1876
  361MOL0     H48722   8.568   1.518   3.053 -0.1560 -0.5473  0.3008
  361MOL0     H48723   8.880   2.004   2.800 -1.3413  0.7130  2.2795
  361MOL0     H48724   9.132   2.057   2.868 -0.9854 -0.4483 -0.7609
  361MOL0     H48725   9.387   1.687   2.998 -1.7869 -0.5518 -0.6501
  361MOL0     H48726   9.434   1.750   2.834 -1.0367 -1.5530 -0.0258
  361MOL0     H48727   9.570   1.915   2.905  4.7790 -3.5568 -2.5262
  361MOL0     H48728   9.626   1.773   2.977 -0.2182 -0.3907 -1.1201
  361MOL0     H48729   9.482   2.024   3.111  1.5275  0.8029 -0.4592
  361MOL0     H48730   9.641   1.951   3.137  0.0848 -1.6496  0.8004
  361MOL0     H48731   9.551   1.766   3.257 -0.9273 -1.9515  0.8007
  361MOL0     H48732   9.387   1.799   3.223  0.0172  0.3834  1.4166
  361MOL0     H48733   9.470   2.086   3.526 -0.5591 -1.7212  1.6356
  361MOL0     H48734   9.194   1.630   2.921  1.7242  0.1313 -1.3975
  361MOL0     H48735   8.963   1.597   2.874  0.2172  0.4392 -0.4523
  362MOL0     O48736   3.120   2.927   3.088  0.3116 -0.3002 -0.1781
  362MOL0     C48737   3.202   2.837   3.089 -0.3646  0.5949  0.4581
  362MOL0     O48738   3.174   2.715   3.043 -0.8843 -0.0094 -0.4198
  362MOL0     C48739   3.048   2.684   3.006  0.1332 -0.1455  0.5498
  362MOL0     C48740   3.030   2.651   2.875  0.2768  0.2407 -0.0697
  362MOL0     C48741   2.898   2.612   2.828 -0.6006  0.6011 -0.3029
  362MOL0     C48742   2.788   2.629   2.911  0.2620  0.0376 -0.2281
  362MOL0     O48743   2.667   2.588   2.864 -0.0843 -0.0930 -0.4346
  362MOL0     C48744   2.548   2.598   2.950  0.0806 -0.3265  0.9223
  362MOL0     C48745   2.432   2.546   2.867  0.2591  0.3743  0.3622
  362MOL0     C48746   2.287   2.554   2.926  0.1741  0.1196  0.8748
  362MOL0     C48747   2.267   2.649   3.043 -1.2935  0.1047  0.7141
  362MOL0     C48748   2.136   2.682   3.095  0.2226  0.0819 -0.2768
  362MOL0     C48749   2.046   2.722   2.982  0.0979  0.2357 -0.6597
  362MOL0     C48750   1.908   2.754   3.039  0.4040 -0.9108 -0.2273
  362MOL0     C48751   1.816   2.810   2.936  0.4908  0.5284 -0.0823
  362MOL0     N48752   1.698   2.863   3.004  0.1670  0.8432  0.4733
  362MOL0     C48753   1.666   2.994   3.016  0.0373 -1.4085 -0.2076
  362MOL0     C48754   1.538   3.000   3.047  0.2057  0.8966  0.4822
  362MOL0     C48755   1.459   3.113   3.100  1.1930  0.7499  0.3624
  362MOL0     C48756   1.333   3.149   3.015  0.0470 -0.5087  0.0067
  362MOL0     C48757   1.248   3.273   3.044  0.1636  0.0944 -0.5057
  362MOL0     C48758   1.141   3.239   3.150  0.0725  0.6941  0.6276
  362MOL0     O48759   1.052   3.131   3.099 -0.1133  0.0055  1.0120
  362MOL0     C48760   0.928   3.162   3.047  0.2173  0.6975  0.1470
  362MOL0     C48761   0.861   3.050   3.003  0.6513 -0.1275  0.7192
  362MOL0     C48762   0.736   3.055   2.936 -0.7840 -0.7820  0.2121
  362MOL0     C48763   0.682   2.923   2.884  0.2715  0.6075 -0.4719
  362MOL0     C48764   0.674   3.191   2.934  0.2250  0.7735  0.5600
  362MOL0     C48765   0.532   3.200   2.896 -0.1999  0.2479 -1.0997
  362MOL0     O48766   0.467   3.320   2.923 -0.4772 -0.1859  0.4586
  362MOL0     C48767   0.329   3.319   2.918 -0.5195 -0.4024  0.4838
  362MOL0     C48768   0.249   3.311   2.802 -1.2154 -0.1860  0.1275
  362MOL0     C48769   0.112   3.325   2.811 -0.2089 -0.4543 -0.2350
  362MOL0     C48770   0.046   3.333   2.930 -0.0274  0.6051  0.7204
  362MOL0     O48771  -0.086   3.354   2.940  0.4405 -0.6648  0.0900
  362MOL0     C48772  -0.164   3.383   2.822  0.1710  0.4227 -0.8589
  362MOL0     C48773  -0.315   3.399   2.841 -0.1847 -0.3132 -0.7657
  362MOL0     C48774  -0.383   3.278   2.904  0.2705  0.5173 -0.8840
  362MOL0     C48775  -0.531   3.289   2.888 -0.1422 -0.5333  0.4212
  362MOL0     C48776  -0.585   3.399   2.981 -0.0023 -0.5365 -0.0079
  362MOL0     C48777  -0.736   3.397   2.983 -0.2269 -0.3412 -0.8011
  362MOL0     C48778  -0.790   3.512   3.083 -0.1029  0.0807  0.4031
  362MOL0     C48779  -0.938   3.528   3.077  0.6404  0.4064 -0.0337
  362MOL0    Cl48780  -1.040   3.386   3.127 -0.1441 -0.2941 -0.2047
  362MOL0     C48781   0.124   3.328   3.047 -0.9444 -0.5500 -0.0986
  362MOL0     C48782   0.265   3.332   3.042  0.2700 -0.0227  0.3220
  362MOL0     O48783   0.482   3.105   2.833  0.8317  0.3926  0.0893
  362MOL0     C48784   0.751   3.306   2.972 -0.0501  0.0426 -0.2903
  362MOL0     C48785   0.878   3.288   3.034  0.6771 -0.2205 -0.1239
  362MOL0     N48786   1.484   2.872   3.040  0.9228 -0.6698  0.3614
  362MOL0     N48787   1.586   2.790   3.023 -0.9113  0.4177  0.1133
  362MOL0     C48788   2.804   2.673   3.042 -0.2450 -0.6378  0.2707
  362MOL0     C48789   2.936   2.699   3.088 -0.4224 -0.1635 -0.9756
  362MOL0     C48790   3.343   2.870   3.114 -0.1811 -0.6770 -0.0718
  362MOL0     C48791   3.372   3.002   3.168  0.0349 -0.1518  0.2262
  362MOL0     C48792   3.500   3.038   3.188 -0.0461 -0.3925 -1.0214
  362MOL0     C48793   3.603   2.949   3.156 -0.2959  0.0345 -0.3724
  362MOL0     O48794   3.726   3.014   3.160 -0.8116  0.5863  0.6172
  362MOL0     C48795   3.851   2.949   3.112 -0.2526 -0.4586 -0.5193
  362MOL0     C48796   3.961   3.031   3.178  0.4392  0.1812  0.0299
  362MOL0     C48797   4.092   2.950   3.186 -0.7332 -0.4196  0.7094
  362MOL0     C48798   4.113   2.884   3.323  1.0904  0.6041 -0.2091
  362MOL0     C48799   4.241   2.818   3.303  0.0470 -0.1807 -0.6844
  362MOL0     C48800   4.346   2.761   3.297  0.2410  0.6256  0.4791
  362MOL0     C48801   3.577   2.829   3.093  0.1931  0.0931 -0.1876
  362MOL0     C48802   3.447   2.781   3.072 -0.4127  0.5639 -0.1729
  362MOL0     H48803   3.114   2.637   2.808 -1.3079 -1.6817 -1.7782
  362MOL0     H48804   2.890   2.563   2.732 -0.5551  0.9490 -0.4873
  362MOL0     H48805   2.565   2.528   3.033  1.2688 -1.5025 -0.2602
  362MOL0     H48806   2.528   2.697   2.991 -0.3649 -0.4749  1.0704
  362MOL0     H48807   2.435   2.593   2.768  1.6888 -2.2464 -0.9361
  362MOL0     H48808   2.458   2.441   2.847 -0.2309 -0.2248  2.6109
  362MOL0     H48809   2.240   2.596   2.836 -0.5300 -1.5540  0.4294
  362MOL0     H48810   2.253   2.452   2.941 -1.3187  0.3271 -0.8435
  362MOL0     H48811   2.332   2.616   3.125 -0.8243 -0.1977  0.2251
  362MOL0     H48812   2.319   2.734   2.996  2.7894 -2.3141  0.3690
  362MOL0     H48813   2.101   2.590   3.143 -0.0118  1.6976  2.8337
  362MOL0     H48814   2.135   2.755   3.176 -3.2969 -1.1556  0.9573
  362MOL0     H48815   2.083   2.814   2.937 -1.8503  1.0688 -0.6555
  362MOL0     H48816   2.030   2.643   2.908  0.7680  0.3619 -0.9442
  362MOL0     H48817   1.878   2.665   3.096 -0.6958 -0.7773 -0.5738
  362MOL0     H48818   1.919   2.834   3.112  1.3239 -1.7391  0.5729
  362MOL0     H48819   1.786   2.738   2.859 -2.3591 -0.8614  2.1067
  362MOL0     H48820   1.863   2.896   2.886 -0.8975  1.3858 -0.0020
  362MOL0     H48821   1.731   3.081   3.023 -1.3859 -0.3878  1.2657
  362MOL0     H48822   1.425   3.086   3.200  1.9022 -1.6877 -0.0012
  362MOL0     H48823   1.527   3.198   3.114 -0.0107  1.9631 -0.9239
  362MOL0     H48824   1.264   3.065   3.020  0.0630 -0.5511 -0.4881
  362MOL0     H48825   1.369   3.161   2.913 -1.6735 -2.0954 -0.8355
  362MOL0     H48826   1.197   3.289   2.948 -0.0875 -1.4720 -0.6561
  362MOL0     H48827   1.307   3.360   3.072  0.5561 -0.6420  1.0435
  362MOL0     H48828   1.089   3.327   3.190 -1.3730  0.8673 -1.4805
  362MOL0     H48829   1.193   3.199   3.238  1.7119  0.4855 -0.4046
  362MOL0     H48830   0.908   2.953   3.020 -1.3613 -1.5743 -1.3083
  362MOL0     H48831   0.591   2.894   2.937  0.6735 -1.7397 -0.9579
  362MOL0     H48832   0.673   2.909   2.776  1.3897  0.1508 -0.5264
  362MOL0     H48833   0.751   2.841   2.909 -1.4927 -1.1889 -1.2128
  362MOL0     H48834   0.296   3.295   2.705 -1.2539  1.9346 -0.2889
  362MOL0     H48835   0.055   3.338   2.720 -3.0309 -0.4621  1.4442
  362MOL0     H48836  -0.123   3.479   2.790  2.6350 -0.2787 -0.0279
  362MOL0     H48837  -0.144   3.300   2.754  0.2779 -0.1753 -0.1026
  362MOL0     H48838  -0.322   3.490   2.900  2.4955  0.0480 -0.8708
  362MOL0     H48839  -0.360   3.410   2.742 -1.8984 -1.4600 -0.1708
  362MOL0     H48840  -0.366   3.267   3.011 -2.8178 -0.9150 -0.4250
  362MOL0     H48841  -0.351   3.189   2.849  1.5727  0.6038 -0.3067
  362MOL0     H48842  -0.570   3.310   2.788 -2.5897  4.1814  2.0876
  362MOL0     H48843  -0.580   3.194   2.913  0.9183 -1.1321  0.2727
  362MOL0     H48844  -0.555   3.499   2.950 -1.7612 -0.7409 -2.6912
  362MOL0     H48845  -0.549   3.391   3.084 -1.5946  0.5539  0.6763
  362MOL0     H48846  -0.768   3.417   2.881 -0.6175  2.1475 -0.2590
  362MOL0     H48847  -0.773   3.303   3.025  2.7600 -0.9171  0.7722
  362MOL0     H48848  -0.757   3.611   3.052  1.2590 -0.7665 -1.0452
  362MOL0     H48849  -0.770   3.490   3.188 -2.9182 -0.1914  0.9580
  362MOL0     H48850  -0.960   3.549   2.972  0.0943 -1.1644 -0.2490
  362MOL0     H48851  -0.966   3.618   3.133  2.6133  0.0272  1.6910
  362MOL0     H48852   0.062   3.329   3.136 -0.8332 -1.1374 -0.0118
  362MOL0     H48853   0.320   3.327   3.136 -0.4749  0.8319  0.8254
  362MOL0     H48854   0.707   3.405   2.966  0.7155  0.3039 -2.2201
  362MOL0     H48855   0.923   3.385   3.049 -0.8356  0.1924  2.1804
  362MOL0     H48856   2.727   2.699   3.114  2.1891  2.9737  1.8332
  362MOL0     H48857   2.944   2.751   3.182  0.4467  1.2554 -1.8037
  362MOL0     H48858   3.293   3.073   3.185 -1.7372 -2.1619  0.7722
  362MOL0     H48859   3.527   3.136   3.226 -5.4554  1.6090 -1.5444
  362MOL0     H48860   3.855   2.841   3.131  1.2390 -0.0014  2.5030
  362MOL0     H48861   3.866   2.958   3.004 -0.4289 -2.1449 -0.7168
  362MOL0     H48862   3.928   3.060   3.278  1.5565 -1.6428  0.9836
  362MOL0     H48863   3.972   3.123   3.120  0.2968 -0.2728 -0.7310
  362MOL0     H48864   4.170   3.019   3.153 -1.5474 -0.1627 -0.7704
  362MOL0     H48865   4.082   2.883   3.101  0.5980  1.5108 -1.0636
  362MOL0     H48866   4.027   2.819   3.343  0.7364  1.3355  0.7668
  362MOL0     H48867   4.126   2.954   3.406 -1.3955  3.7096 -2.2065
  362MOL0     H48868   4.440   2.711   3.290 -0.3777 -0.4493 -1.0120
  362MOL0     H48869   3.662   2.773   3.055  3.0548  4.1211 -0.3860
  362MOL0     H48870   3.426   2.682   3.035 -2.3570  0.0107  2.1749
  363MOL0     O48871   1.274   9.600   3.124 -0.3877 -0.1337 -0.3829
  363MOL0     C48872   1.191   9.507   3.134  0.0955 -1.0658 -0.3689
  363MOL0     O48873   1.066   9.509   3.081 -0.2246 -0.2432 -0.3189
  363MOL0     C48874   1.025   9.632   3.043  0.2987 -0.1670 -0.4532
  363MOL0     C48875   0.913   9.676   3.114 -0.3558  0.0184  0.1770
  363MOL0     C48876   0.842   9.786   3.065  0.2994 -0.7697 -1.1929
  363MOL0     C48877   0.888   9.858   2.953  0.2049 -0.2890  0.1544
  363MOL0     O48878   0.813   9.965   2.911 -0.1360 -0.4372 -0.5874
  363MOL0     C48879   0.846  10.032   2.788  0.5454 -1.0419 -0.4381
  363MOL0     C48880   0.743  10.151   2.750 -0.3647  0.0398  0.4375
  363MOL0     C48881   0.602  10.102   2.709  0.2995 -0.0606 -0.9394
  363MOL0     C48882   0.504  10.098   2.826  0.2559  0.0700  0.6854
  363MOL0     C48883   0.351  10.089   2.786  0.9827 -0.1607  0.1129
  363MOL0     C48884   0.297  10.226   2.730 -0.3193 -0.1909 -0.1334
  363MOL0     C48885   0.159  10.195   2.657 -0.0171  0.3191  0.0331
  363MOL0     C48886   0.168  10.103   2.526 -0.4323  0.9453 -0.5775
  363MOL0     N48887   0.050  10.138   2.441 -0.0920  0.7362 -0.4050
  363MOL0     C48888  -0.064  10.068   2.432 -0.2221 -0.4096  0.5259
  363MOL0     C48889  -0.140  10.142   2.345 -0.4357  0.0912 -0.2571
  363MOL0     C48890  -0.267  10.090   2.295 -0.1741 -0.0106 -0.3875
  363MOL0     C48891  -0.387  10.184   2.324 -0.8853  0.1602 -0.5596
  363MOL0     C48892  -0.442  10.254   2.196 -0.4168  0.7423 -0.1604
  363MOL0     C48893  -0.557  10.348   2.223 -0.7580 -0.1934 -0.2982
  363MOL0     O48894  -0.660  10.267   2.281 -0.4414  0.1739  0.1759
  363MOL0     C48895  -0.766  10.343   2.321  0.5428  0.4406 -0.2415
  363MOL0     C48896  -0.776  10.485   2.341 -0.0531  0.6478 -0.3441
  363MOL0     C48897  -0.899  10.541   2.360  0.0812 -0.4496  0.3798
  363MOL0     C48898  -0.898  10.690   2.386  1.3618  0.7687  0.2832
  363MOL0     C48899  -1.017  10.461   2.383  0.0556  0.4557  0.5177
  363MOL0     C48900  -1.151  10.511   2.411  0.4351  0.2483 -0.9779
  363MOL0     O48901  -1.157  10.631   2.473 -0.3653  0.3582 -0.3798
  363MOL0     C48902  -1.273  10.694   2.502  0.7348  0.4522 -0.4883
  363MOL0     C48903  -1.343  10.639   2.609  0.6193  0.8083 -0.5713
  363MOL0     C48904  -1.469  10.695   2.650 -0.2537 -0.0798  0.3723
  363MOL0     C48905  -1.528  10.794   2.574 -0.4660  0.1225 -0.0744
  363MOL0     O48906  -1.657  10.847   2.597  0.2627 -0.3478  0.4321
  363MOL0     C48907  -1.745  10.786   2.690  0.0583 -0.4687  1.0426
  363MOL0     C48908  -1.881  10.867   2.687  0.0587  0.1277 -0.2228
  363MOL0     C48909  -1.874  11.022   2.674  0.9950 -0.1179 -0.3053
  363MOL0     C48910  -2.012  11.070   2.642  0.3698 -0.2450  0.5653
  363MOL0     C48911  -2.004  11.219   2.595 -1.0532  0.5106 -0.6271
  363MOL0     C48912  -2.136  11.266   2.539  0.0007  0.1173 -0.7660
  363MOL0     C48913  -2.127  11.422   2.527  1.8344 -0.7159 -0.0305
  363MOL0     C48914  -2.224  11.468   2.406 -0.6483  0.5020 -0.0958
  363MOL0    Cl48915  -2.394  11.420   2.443 -0.0387 -0.1876 -0.1929
  363MOL0     C48916  -1.456  10.852   2.470 -0.1901 -0.9230  0.5058
  363MOL0     C48917  -1.323  10.813   2.445  0.3902 -0.0444  0.3183
  363MOL0     O48918  -1.253  10.437   2.389 -0.3698  0.5556 -0.4601
  363MOL0     C48919  -1.004  10.321   2.362 -0.0178 -0.2957 -0.2096
  363MOL0     C48920  -0.878  10.270   2.336  0.2156  1.0166  0.1155
  363MOL0     N48921  -0.069  10.257   2.292 -0.0272  0.7030  0.1074
  363MOL0     N48922   0.047  10.238   2.349 -0.7340 -0.5821  1.3244
  363MOL0     C48923   0.996   9.808   2.884 -0.4353 -0.5264 -0.1027
  363MOL0     C48924   1.065   9.699   2.927 -0.2408  0.2248  0.2584
  363MOL0     C48925   1.235   9.373   3.198 -0.2777 -0.8071 -0.3468
  363MOL0     C48926   1.366   9.350   3.216 -0.7074  0.3976 -0.2004
  363MOL0     C48927   1.414   9.220   3.227 -0.5519  0.0286  0.9229
  363MOL0     C48928   1.329   9.103   3.233  0.3064 -0.8919  0.4624
  363MOL0     O48929   1.393   8.973   3.236 -0.1458 -0.5080  0.2534
  363MOL0     C48930   1.303   8.868   3.227  0.6907  0.1867  0.8489
  363MOL0     C48931   1.373   8.731   3.235 -0.8062 -0.3752 -0.5376
  363MOL0     C48932   1.470   8.723   3.350 -0.5126 -0.2918  0.6218
  363MOL0     C48933   1.490   8.571   3.381 -0.3876  0.2535  0.9023
  363MOL0     C48934   1.533   8.486   3.262 -0.5847  0.0546 -0.3260
  363MOL0     C48935   1.561   8.423   3.165 -0.8713  0.4710  0.4438
  363MOL0     C48936   1.190   9.133   3.223 -0.1232  0.2159  0.0703
  363MOL0     C48937   1.145   9.266   3.206  0.5789  0.7538  0.7049
  363MOL0     H48938   0.877   9.618   3.198  0.8643  1.4494  1.7749
  363MOL0     H48939   0.753   9.813   3.122  0.8073 -2.4291  0.4971
  363MOL0     H48940   0.945  10.080   2.785  0.2181 -0.3239  0.0523
  363MOL0     H48941   0.848   9.954   2.711  1.1417 -0.0358 -1.4808
  363MOL0     H48942   0.732  10.226   2.829 -0.3396  0.9534 -0.4044
  363MOL0     H48943   0.791  10.204   2.666 -2.2262  0.3164 -0.4984
  363MOL0     H48944   0.568  10.180   2.641  0.7320 -0.0934 -1.1955
  363MOL0     H48945   0.596  10.008   2.653  0.8957 -0.6129 -0.0988
  363MOL0     H48946   0.532  10.015   2.892  0.8525 -0.2497  0.0450
  363MOL0     H48947   0.510  10.188   2.889  1.3357 -0.1088  0.8593
  363MOL0     H48948   0.335  10.024   2.700  1.6902  2.6560 -2.2921
  363MOL0     H48949   0.291  10.052   2.870  1.6357 -1.5414 -0.0077
  363MOL0     H48950   0.271  10.298   2.808  0.0914 -0.8759  0.6465
  363MOL0     H48951   0.367  10.277   2.662  0.4038  1.2949  1.6163
  363MOL0     H48952   0.083  10.149   2.721 -1.0747  1.8845 -0.0553
  363MOL0     H48953   0.119  10.291   2.622 -4.4200 -1.0792  0.6015
  363MOL0     H48954   0.170   9.998   2.556 -0.1586  1.6547  2.1643
  363MOL0     H48955   0.260  10.120   2.470 -0.8247  2.2639 -0.8626
  363MOL0     H48956  -0.080   9.964   2.455 -1.7272 -0.1593  0.6917
  363MOL0     H48957  -0.246  10.065   2.190 -0.2392 -3.9476  0.3672
  363MOL0     H48958  -0.288   9.989   2.332 -1.4117  0.3242 -0.1344
  363MOL0     H48959  -0.348  10.261   2.391 -3.4488 -0.1414  1.4270
  363MOL0     H48960  -0.477  10.138   2.366 -0.5283 -0.3777 -0.3709
  363MOL0     H48961  -0.476  10.171   2.133 -0.0609 -0.1473  0.7941
  363MOL0     H48962  -0.357  10.302   2.148  1.7500 -1.5596  1.1198
  363MOL0     H48963  -0.592  10.405   2.137 -2.1107  0.4188  0.6100
  363MOL0     H48964  -0.518  10.428   2.287  0.7404 -1.4278  0.4015
  363MOL0     H48965  -0.689  10.549   2.331  0.4473 -0.3051 -3.4130
  363MOL0     H48966  -0.804  10.728   2.347  1.8718  0.8897  1.5967
  363MOL0     H48967  -0.977  10.746   2.335  1.6115  2.4716  1.6796
  363MOL0     H48968  -0.905  10.725   2.490  0.2571 -3.1069  1.6925
  363MOL0     H48969  -1.305  10.556   2.668 -1.0439  2.4686  3.1676
  363MOL0     H48970  -1.517  10.651   2.736 -1.0191 -0.0167 -0.0131
  363MOL0     H48971  -1.766  10.682   2.665 -0.0322  0.2583 -2.5085
  363MOL0     H48972  -1.696  10.792   2.787  1.6666 -0.8613  0.2841
  363MOL0     H48973  -1.938  10.826   2.603 -0.2130  1.9372 -0.9690
  363MOL0     H48974  -1.932  10.853   2.782 -2.2532  1.2098 -1.2270
  363MOL0     H48975  -1.811  11.049   2.589  0.2544 -3.7436 -2.2406
  363MOL0     H48976  -1.840  11.064   2.769  1.9109 -0.1779 -0.6032
  363MOL0     H48977  -2.051  11.010   2.559  0.0288  2.5391 -1.4588
  363MOL0     H48978  -2.083  11.057   2.724 -1.4789  0.0507 -0.9091
  363MOL0     H48979  -1.919  11.235   2.528  0.4827 -1.5378  0.7109
  363MOL0     H48980  -1.984  11.274   2.687 -1.8338  1.8296 -1.2169
  363MOL0     H48981  -2.148  11.227   2.438 -1.5270  0.3437 -0.6879
  363MOL0     H48982  -2.217  11.255   2.612  1.2924  1.4682  0.9648
  363MOL0     H48983  -2.024  11.453   2.510  2.7747 -2.8230  1.4339
  363MOL0     H48984  -2.164  11.478   2.613  1.9803  3.3357 -2.3821
  363MOL0     H48985  -2.194  11.418   2.313 -1.0707 -1.1461  0.6375
  363MOL0     H48986  -2.222  11.577   2.389 -0.2221 -0.0155 -4.8905
  363MOL0     H48987  -1.504  10.931   2.412 -0.9569 -0.8056  1.2787
  363MOL0     H48988  -1.265  10.868   2.371 -0.0784 -0.4903 -0.3940
  363MOL0     H48989  -1.087  10.252   2.376  0.7475 -0.7179  2.9305
  363MOL0     H48990  -0.867  10.164   2.316 -1.8916  0.7765 -0.0232
  363MOL0     H48991   1.035   9.876   2.809  0.0608 -0.4769  0.1952
  363MOL0     H48992   1.158   9.668   2.881 -0.1134  2.5602 -1.2470
  363MOL0     H48993   1.438   9.430   3.226  1.4526 -1.3274 -1.0805
  363MOL0     H48994   1.520   9.203   3.237 -0.7885 -0.4704  3.4716
  363MOL0     H48995   1.227   8.872   3.305 -1.2266 -0.2773 -0.8932
  363MOL0     H48996   1.248   8.880   3.133  0.9708 -1.8376  0.3692
  363MOL0     H48997   1.415   8.718   3.135  1.1644 -0.6009  0.2833
  363MOL0     H48998   1.292   8.659   3.247 -0.7800 -0.6554 -1.8969
  363MOL0     H48999   1.427   8.773   3.436 -2.3963  1.3869 -1.1887
  363MOL0     H49000   1.564   8.774   3.325  0.2436 -1.3903  1.1316
  363MOL0     H49001   1.392   8.536   3.416 -0.1557 -0.5385  0.7657
  363MOL0     H49002   1.559   8.554   3.464 -1.6183 -0.7703  1.7624
  363MOL0     H49003   1.578   8.382   3.067  0.2779 -0.2840  0.9298
  363MOL0     H49004   1.115   9.055   3.219 -0.0773  0.2279 -2.9331
  363MOL0     H49005   1.038   9.278   3.193  0.4316 -1.0494 -0.0678
  364MOL0     O49006   7.149   7.386   5.204 -0.0047  0.2392 -0.7691
  364MOL0     C49007   7.154   7.424   5.323  0.2541 -0.4337  0.2681
  364MOL0     O49008   7.043   7.452   5.399 -0.3022  0.1752 -0.1148
  364MOL0     C49009   6.910   7.450   5.354  0.4400 -0.3462  0.1598
  364MOL0     C49010   6.872   7.413   5.227 -1.2683 -0.0743  0.1414
  364MOL0     C49011   6.734   7.416   5.195 -0.0620 -0.1613  0.1080
  364MOL0     C49012   6.636   7.443   5.289 -0.1456  0.8257  0.4874
  364MOL0     O49013   6.503   7.433   5.251  0.0967 -0.8835 -0.3931
  364MOL0     C49014   6.456   7.396   5.118 -0.5059  0.1691 -0.1268
  364MOL0     C49015   6.301   7.405   5.115  0.2600  0.0627  0.0206
  364MOL0     C49016   6.257   7.403   4.971  0.0472 -0.1932 -0.0627
  364MOL0     C49017   6.103   7.394   4.961  0.5532 -0.1076  0.1319
  364MOL0     C49018   6.046   7.341   4.832  0.0839  0.0846 -0.0827
  364MOL0     C49019   5.888   7.349   4.836 -0.7370  1.0426  0.5299
  364MOL0     C49020   5.831   7.289   4.704  0.2717 -1.0597  0.0642
  364MOL0     C49021   5.678   7.324   4.688  0.0843  0.1366  0.0954
  364MOL0     N49022   5.639   7.305   4.545  0.4492 -0.7090  0.5301
  364MOL0     C49023   5.689   7.370   4.445 -0.3126  0.5305  0.3611
  364MOL0     C49024   5.636   7.305   4.339  0.1751 -0.5515 -0.4737
  364MOL0     C49025   5.655   7.356   4.197 -0.2896 -0.4456 -0.3053
  364MOL0     C49026   5.554   7.458   4.147  0.9598  0.9639  0.8023
  364MOL0     C49027   5.549   7.580   4.240  0.3465 -0.1632  0.7837
  364MOL0     C49028   5.422   7.673   4.227  0.9578  0.1339  1.3487
  364MOL0     O49029   5.394   7.746   4.103  0.1064 -0.7690 -0.1080
  364MOL0     C49030   5.307   7.854   4.114 -0.0493 -0.3486  1.0723
  364MOL0     C49031   5.301   7.937   4.000 -0.3588 -0.3573 -0.0736
  364MOL0     C49032   5.221   8.053   3.992 -0.1584  0.4477 -0.0056
  364MOL0     C49033   5.240   8.128   3.861  0.0107  0.0619 -0.3225
  364MOL0     C49034   5.135   8.085   4.105  1.0513  0.6455  0.8749
  364MOL0     C49035   5.045   8.196   4.102  0.8342  0.0583  0.6973
  364MOL0     O49036   4.926   8.185   4.171 -0.1038 -0.6195 -0.0184
  364MOL0     C49037   4.841   8.291   4.166 -0.8881  0.1064  0.1778
  364MOL0     C49038   4.854   8.386   4.272  0.7922 -0.1296 -0.0338
  364MOL0     C49039   4.765   8.490   4.293 -0.2065  0.0877  0.0286
  364MOL0     C49040   4.649   8.500   4.209  0.1833  0.4844  0.8393
  364MOL0     O49041   4.556   8.606   4.214 -0.2028  0.1723  0.2518
  364MOL0     C49042   4.619   8.738   4.221  0.1130 -0.5550  0.6747
  364MOL0     C49043   4.518   8.852   4.239 -0.4240  0.0500  0.1670
  364MOL0     C49044   4.437   8.840   4.370 -0.1912  0.5776 -0.0161
  364MOL0     C49045   4.320   8.941   4.370 -1.0117  0.0364 -0.2509
  364MOL0     C49046   4.202   8.898   4.287 -0.1831 -0.2198  0.1544
  364MOL0     C49047   4.088   8.992   4.317 -0.5159 -0.8074 -0.0628
  364MOL0     C49048   3.967   8.970   4.234  0.4411  0.2691  0.2745
  364MOL0     C49049   3.901   8.841   4.237  0.6671 -0.1428  0.4744
  364MOL0    Cl49050   3.761   8.842   4.125  0.1377  0.2492  0.3751
  364MOL0     C49051   4.640   8.401   4.104  0.0537 -0.2028 -0.8062
  364MOL0     C49052   4.732   8.299   4.080 -0.2290  0.1262  0.2659
  364MOL0     O49053   5.086   8.299   4.040  1.1098  0.4401  0.6315
  364MOL0     C49054   5.135   8.009   4.218  0.2676 -0.4566  0.2995
  364MOL0     C49055   5.235   7.900   4.223  0.2246  0.7134 -0.8007
  364MOL0     N49056   5.549   7.207   4.376  0.1766 -0.0681  0.7778
  364MOL0     N49057   5.549   7.210   4.505  0.1959  0.0367 -0.0992
  364MOL0     C49058   6.675   7.464   5.416  0.4349 -0.1712 -0.9121
  364MOL0     C49059   6.810   7.471   5.450  0.5620  0.9350 -0.3251
  364MOL0     C49060   7.293   7.442   5.383  0.9312  0.2236 -0.4375
  364MOL0     C49061   7.398   7.444   5.300 -0.2653 -0.2402  0.0277
  364MOL0     C49062   7.530   7.478   5.348 -0.5833  0.8880  1.2082
  364MOL0     C49063   7.548   7.513   5.476  0.5260 -0.4030 -0.3781
  364MOL0     O49064   7.672   7.523   5.525 -0.0609 -0.2602  0.7442
  364MOL0     C49065   7.742   7.642   5.490  0.3352  0.2973 -0.2198
  364MOL0     C49066   7.691   7.765   5.567 -0.0022  0.0004 -0.3970
  364MOL0     C49067   7.731   7.900   5.500  0.5053  0.0382 -0.1325
  364MOL0     C49068   7.883   7.917   5.509  1.2842 -0.2258  0.3160
  364MOL0     C49069   7.909   8.061   5.488  0.0506 -0.5223  0.2154
  364MOL0     C49070   7.935   8.181   5.476 -0.0749  0.7338  1.4982
  364MOL0     C49071   7.438   7.514   5.560  0.3940  0.5848 -0.5360
  364MOL0     C49072   7.308   7.481   5.518 -1.1758 -0.1608 -0.1929
  364MOL0     H49073   6.935   7.398   5.139 -1.4784  0.7370 -0.1589
  364MOL0     H49074   6.719   7.381   5.093 -1.2481 -0.5665  0.4001
  364MOL0     H49075   6.498   7.468   5.047 -2.1216  1.0580 -0.2394
  364MOL0     H49076   6.501   7.302   5.086 -1.5296 -0.7364  0.9961
  364MOL0     H49077   6.251   7.325   5.172 -2.8070  1.0035 -1.1454
  364MOL0     H49078   6.266   7.494   5.168 -1.0122 -0.0005 -0.6909
  364MOL0     H49079   6.280   7.498   4.921  1.2903  1.1634  2.8478
  364MOL0     H49080   6.306   7.320   4.919  3.2570  0.8071  1.1286
  364MOL0     H49081   6.060   7.328   5.037  0.8181  0.8023  1.0940
  364MOL0     H49082   6.059   7.491   4.984 -2.6141 -1.6393  1.2506
  364MOL0     H49083   6.096   7.402   4.757  1.3923 -0.4670  0.3255
  364MOL0     H49084   6.067   7.236   4.810 -2.1616 -0.6450  0.9094
  364MOL0     H49085   5.841   7.286   4.912  0.0812  1.0007  1.0138
  364MOL0     H49086   5.859   7.452   4.857  0.9299  1.2897  1.8291
  364MOL0     H49087   5.882   7.331   4.616 -0.4204 -2.7772 -1.2127
  364MOL0     H49088   5.861   7.184   4.704 -0.3060 -1.2646  1.7708
  364MOL0     H49089   5.672   7.431   4.712  1.4256  0.3855 -0.5716
  364MOL0     H49090   5.629   7.256   4.758  1.5640  0.7346  1.7961
  364MOL0     H49091   5.759   7.452   4.443 -0.5896  0.7780 -2.1324
  364MOL0     H49092   5.753   7.405   4.186 -1.3393  1.2812 -2.9725
  364MOL0     H49093   5.658   7.262   4.142  3.1058 -3.2301  4.0350
  364MOL0     H49094   5.453   7.415   4.143  0.6591  1.7207 -0.1664
  364MOL0     H49095   5.580   7.495   4.048  0.0128  0.0477  0.1825
  364MOL0     H49096   5.634   7.647   4.225 -1.2581  1.8222 -0.0128
  364MOL0     H49097   5.554   7.556   4.346 -0.5368 -1.9396  0.4680
  364MOL0     H49098   5.438   7.747   4.306 -0.2526  0.9093  0.8947
  364MOL0     H49099   5.336   7.607   4.242  0.6913  0.2567  0.4134
  364MOL0     H49100   5.370   7.915   3.919 -0.9635  1.9861 -1.3108
  364MOL0     H49101   5.308   8.212   3.881  0.7626 -0.8993  1.2946
  364MOL0     H49102   5.272   8.060   3.782 -0.3925 -1.3413  0.7023
  364MOL0     H49103   5.142   8.164   3.826 -0.0404  0.4588  0.2155
  364MOL0     H49104   4.930   8.372   4.349  0.3651 -0.0885  0.3994
  364MOL0     H49105   4.767   8.544   4.387  0.5408 -0.8320  0.5526
  364MOL0     H49106   4.693   8.735   4.302  0.9350  1.5113  0.0545
  364MOL0     H49107   4.681   8.751   4.132 -1.1965  0.6385 -0.1105
  364MOL0     H49108   4.576   8.945   4.243 -1.0225  0.4095  2.6410
  364MOL0     H49109   4.459   8.847   4.147  2.3117 -0.5956 -1.6755
  364MOL0     H49110   4.488   8.853   4.466 -1.3948 -2.5887  1.1949
  364MOL0     H49111   4.400   8.737   4.379 -0.5414  0.8197  1.8022
  364MOL0     H49112   4.288   8.946   4.474  0.8377  2.5960  0.3102
  364MOL0     H49113   4.352   9.043   4.345  1.2044  0.0051  2.1427
  364MOL0     H49114   4.176   8.796   4.318 -1.9209  0.6775  1.9040
  364MOL0     H49115   4.240   8.896   4.185 -0.2856  1.2630  0.0742
  364MOL0     H49116   4.065   8.965   4.420  0.2003 -1.0611  0.0388
  364MOL0     H49117   4.118   9.097   4.307  0.2748 -1.0758 -0.6818
  364MOL0     H49118   4.000   8.999   4.133  0.6506  2.1662  0.8480
  364MOL0     H49119   3.896   9.044   4.270  0.4338 -0.8676  2.7647
  364MOL0     H49120   3.854   8.827   4.334  0.0609 -0.2544  0.1720
  364MOL0     H49121   3.970   8.760   4.209  0.9741  1.1464 -2.9872
  364MOL0     H49122   4.557   8.401   4.035  1.8854 -0.0959 -3.1541
  364MOL0     H49123   4.728   8.224   4.002 -0.1422 -0.8790  1.2017
  364MOL0     H49124   5.067   8.041   4.297 -1.1944  1.6836 -1.7013
  364MOL0     H49125   5.246   7.849   4.318 -1.2677 -1.0018 -1.4713
  364MOL0     H49126   6.603   7.465   5.497  3.0815 -0.6640  1.6228
  364MOL0     H49127   6.843   7.486   5.552 -1.5163 -0.2835  0.5912
  364MOL0     H49128   7.386   7.403   5.200 -0.8824  0.3738 -0.1541
  364MOL0     H49129   7.614   7.475   5.279  0.2381 -1.0854  2.2062
  364MOL0     H49130   7.851   7.631   5.494  0.4607  0.9998 -1.3825
  364MOL0     H49131   7.719   7.655   5.384 -1.5054  0.4057  0.1549
  364MOL0     H49132   7.728   7.758   5.669 -0.0165  1.7658 -0.2477
  364MOL0     H49133   7.582   7.753   5.568 -0.3782  1.7749  4.4146
  364MOL0     H49134   7.679   7.981   5.552  0.0533 -0.2520 -0.1179
  364MOL0     H49135   7.712   7.907   5.393  2.2299  0.8838 -0.4145
  364MOL0     H49136   7.940   7.843   5.452 -0.1226 -2.2939  1.4504
  364MOL0     H49137   7.918   7.891   5.609  2.8371  1.8434  0.3861
  364MOL0     H49138   7.956   8.283   5.454  0.0613  0.1714 -1.4484
  364MOL0     H49139   7.447   7.548   5.662 -0.5189  0.5836 -0.4456
  364MOL0     H49140   7.229   7.485   5.592  0.6049 -0.5061  1.8281
  365MOL0     O49141   9.365  10.438   3.066  0.0096  0.0661  0.0858
  365MOL0     C49142   9.441  10.510   3.005  0.9698  0.0164  0.3814
  365MOL0     O49143   9.404  10.594   2.905 -0.1502  0.5241  0.2430
  365MOL0     C49144   9.271  10.605   2.878  0.7856  0.1075  1.0691
  365MOL0     C49145   9.242  10.588   2.745  0.1762 -0.0810 -0.2672
  365MOL0     C49146   9.109  10.584   2.697  0.4266  0.8851 -0.0145
  365MOL0     C49147   9.000  10.593   2.789 -0.2927 -0.1747  0.0081
  365MOL0     O49148   8.864  10.586   2.762 -0.1407  0.7846  0.0034
  365MOL0     C49149   8.827  10.594   2.625 -0.2477  0.2637  0.2387
  365MOL0     C49150   8.672  10.570   2.612  0.1917 -0.2564  0.3367
  365MOL0     C49151   8.636  10.436   2.682 -0.7279  0.3253  1.0847
  365MOL0     C49152   8.496  10.383   2.644 -0.0932 -0.1843  0.0073
  365MOL0     C49153   8.372  10.465   2.668  0.2631  1.1269  0.7692
  365MOL0     C49154   8.243  10.382   2.679  0.3782 -0.3573 -0.2331
  365MOL0     C49155   8.213  10.276   2.573 -0.2979  0.3647  0.5280
  365MOL0     C49156   8.102  10.187   2.626 -0.4268  0.2684 -0.1711
  365MOL0     N49157   8.080  10.068   2.545  0.6035 -0.3622 -0.3024
  365MOL0     C49158   7.976  10.051   2.460  0.5681 -0.4826  0.2443
  365MOL0     C49159   8.000   9.920   2.416  1.2626  0.2073  0.2243
  365MOL0     C49160   7.903   9.837   2.333 -0.1964  0.5404 -1.1789
  365MOL0     C49161   7.755   9.846   2.395 -0.4064 -0.3954  0.6613
  365MOL0     C49162   7.654   9.775   2.302  1.0355  0.6569 -0.8001
  365MOL0     C49163   7.512   9.790   2.363 -0.9154  0.5591 -0.2475
  365MOL0     O49164   7.471   9.929   2.367  1.0116 -0.1481  0.9262
  365MOL0     C49165   7.338   9.938   2.401  0.1204 -0.7179  0.9677
  365MOL0     C49166   7.255   9.843   2.451  0.0028 -0.4945 -0.5454
  365MOL0     C49167   7.120   9.866   2.493 -0.1417  0.6341  0.0980
  365MOL0     C49168   7.036   9.762   2.559 -0.0462 -0.0080  0.5539
  365MOL0     C49169   7.075  10.001   2.475 -0.9052  0.0345 -0.6946
  365MOL0     C49170   6.930  10.042   2.495 -0.3599 -0.1327  0.3073
  365MOL0     O49171   6.902  10.176   2.522 -0.0126  0.1452 -0.6701
  365MOL0     C49172   6.769  10.216   2.540 -0.6185 -0.1214  0.5283
  365MOL0     C49173   6.690  10.238   2.424  0.4368 -0.3230  0.4791
  365MOL0     C49174   6.556  10.273   2.452  0.5406  0.4633  0.3056
  365MOL0     C49175   6.499  10.279   2.577  0.3390  0.1579 -0.0079
  365MOL0     O49176   6.369  10.307   2.585  0.7359 -0.0277 -0.1273
  365MOL0     C49177   6.320  10.344   2.708  0.3828 -0.2544  0.6017
  365MOL0     C49178   6.196  10.423   2.675 -0.0106  0.6968 -0.3197
  365MOL0     C49179   6.079  10.330   2.649  0.2380 -1.1657 -0.2921
  365MOL0     C49180   5.952  10.392   2.699 -0.1361  0.1426  1.0398
  365MOL0     C49181   5.835  10.299   2.662  0.2149  0.0242 -0.0040
  365MOL0     C49182   5.700  10.366   2.683 -1.0567  0.3613 -0.5066
  365MOL0     C49183   5.594  10.278   2.617  0.8176 -0.1364 -0.5607
  365MOL0     C49184   5.462  10.358   2.635 -0.7098 -0.9363  0.1358
  365MOL0    Cl49185   5.419  10.406   2.810 -0.3977 -0.0163 -0.1096
  365MOL0     C49186   6.587  10.252   2.690  0.2504 -0.4662  0.5945
  365MOL0     C49187   6.720  10.210   2.665  0.9399  0.3200 -0.2563
  365MOL0     O49188   6.846   9.954   2.480 -0.3182  0.2125 -0.6482
  365MOL0     C49189   7.157  10.101   2.426  0.1788  0.3277 -0.1191
  365MOL0     C49190   7.285  10.066   2.381 -0.0291 -0.0634 -0.2745
  365MOL0     N49191   8.118   9.869   2.468  0.3945 -0.7882  0.3233
  365MOL0     N49192   8.167   9.963   2.544 -0.4756  0.2605 -0.0293
  365MOL0     C49193   9.032  10.611   2.928  0.3763 -0.2716 -0.3850
  365MOL0     C49194   9.164  10.617   2.968  0.2719 -0.0967  0.0626
  365MOL0     C49195   9.587  10.482   3.025 -0.6740 -0.2507 -0.1223
  365MOL0     C49196   9.639  10.363   3.084  0.3131 -0.3470 -0.2556
  365MOL0     C49197   9.774  10.342   3.111 -0.0525 -0.8348  0.0572
  365MOL0     C49198   9.868  10.438   3.081 -0.5223  0.0531  0.7158
  365MOL0     O49199  10.001  10.406   3.090 -0.1404  0.6192 -0.3282
  365MOL0     C49200  10.079  10.454   3.189  0.7752  0.5676 -0.5048
  365MOL0     C49201  10.092  10.356   3.307 -1.0454 -0.1465  0.2514
  365MOL0     C49202  10.089  10.198   3.278  0.3155 -0.9518 -0.0613
  365MOL0     C49203  10.177  10.155   3.161  0.6200 -0.1460  0.5275
  365MOL0     C49204  10.196  10.012   3.163  0.2302 -0.4418  0.2999
  365MOL0     C49205  10.211   9.893   3.158 -0.0426 -0.4444 -0.3578
  365MOL0     C49206   9.822  10.560   3.027  0.7061  0.7372 -0.2508
  365MOL0     C49207   9.685  10.580   2.994 -0.4610  0.4232  0.5788
  365MOL0     H49208   9.329  10.592   2.679 -0.2990  1.6119 -0.8326
  365MOL0     H49209   9.100  10.560   2.591 -0.6809  0.5574  0.1502
  365MOL0     H49210   8.851  10.696   2.592 -0.9993  0.8881  1.5302
  365MOL0     H49211   8.884  10.517   2.573 -0.4393 -1.0954  1.9401
  365MOL0     H49212   8.613  10.658   2.639  0.4144  0.0354 -0.1060
  365MOL0     H49213   8.651  10.554   2.505 -4.6048  1.8982  0.7250
  365MOL0     H49214   8.697  10.349   2.655  0.8943  0.6349  3.4986
  365MOL0     H49215   8.642  10.436   2.791 -1.4583  0.1477  1.1306
  365MOL0     H49216   8.494  10.351   2.539 -0.0379  0.2173 -0.1197
  365MOL0     H49217   8.483  10.285   2.691 -1.5670 -0.2038 -0.3707
  365MOL0     H49218   8.380  10.536   2.751  0.7404  3.6894 -1.3176
  365MOL0     H49219   8.346  10.540   2.592 -3.2401  1.6062  2.2673
  365MOL0     H49220   8.248  10.329   2.774 -1.1173  1.2637  0.8164
  365MOL0     H49221   8.161  10.453   2.689  1.8598  1.3382  0.4292
  365MOL0     H49222   8.204  10.324   2.475  1.1440 -1.4334 -0.5776
  365MOL0     H49223   8.305  10.217   2.562  0.4243  1.2270  1.6741
  365MOL0     H49224   8.009  10.245   2.629  1.5673  3.7575 -0.7066
  365MOL0     H49225   8.132  10.153   2.725  0.3549  2.3263  0.3473
  365MOL0     H49226   7.880  10.099   2.449  0.4966 -0.9397 -1.2646
  365MOL0     H49227   7.903   9.883   2.234  0.5592  1.8702 -0.5804
  365MOL0     H49228   7.938   9.736   2.311  2.8947  1.4244 -0.7542
  365MOL0     H49229   7.721   9.946   2.420 -4.1269 -1.3795  0.1263
  365MOL0     H49230   7.747   9.808   2.497  0.4733  1.1151  1.3224
  365MOL0     H49231   7.685   9.670   2.295  0.9712  0.4284  1.5791
  365MOL0     H49232   7.651   9.821   2.202 -2.9390 -0.9449 -1.6019
  365MOL0     H49233   7.525   9.754   2.465 -0.1962  1.9307  0.1549
  365MOL0     H49234   7.447   9.721   2.307  0.0805 -0.3631 -0.2872
  365MOL0     H49235   7.294   9.743   2.470  2.5262  0.6931  0.9886
  365MOL0     H49236   6.958   9.735   2.486 -0.5059 -0.2405  1.1259
  365MOL0     H49237   7.098   9.678   2.590  0.1221 -0.2935 -0.4932
  365MOL0     H49238   6.989   9.796   2.651  0.3198 -2.2542  1.6404
  365MOL0     H49239   6.730  10.233   2.324  0.4803 -3.6038  0.5559
  365MOL0     H49240   6.489  10.287   2.368  1.1138 -2.1435 -0.6834
  365MOL0     H49241   6.305  10.249   2.759  0.6034 -1.3900 -1.3480
  365MOL0     H49242   6.391  10.400   2.770  0.8260  0.6966 -0.7309
  365MOL0     H49243   6.179  10.503   2.749 -1.6816 -0.5639  0.7227
  365MOL0     H49244   6.200  10.481   2.582  0.4967  1.5856  0.2386
  365MOL0     H49245   6.082  10.229   2.692 -0.3590 -0.6274  1.0664
  365MOL0     H49246   6.088  10.314   2.541  2.8212 -1.2608 -0.1282
  365MOL0     H49247   5.958  10.401   2.808 -0.7102  0.3573  1.0601
  365MOL0     H49248   5.937  10.490   2.651  0.1720 -0.3516 -0.0920
  365MOL0     H49249   5.837  10.206   2.720  2.0919 -1.1295 -1.7755
  365MOL0     H49250   5.845  10.257   2.562 -0.2202 -0.9700  0.3528
  365MOL0     H49251   5.684  10.381   2.790 -0.5513 -3.4841  0.2531
  365MOL0     H49252   5.709  10.468   2.643  0.3983  0.1786 -0.7164
  365MOL0     H49253   5.578  10.186   2.674 -2.5117  0.5418 -0.2199
  365MOL0     H49254   5.616  10.260   2.511 -2.0014 -1.1395 -1.0611
  365MOL0     H49255   5.376  10.299   2.603 -0.7216 -0.1164 -1.4255
  365MOL0     H49256   5.456  10.444   2.567 -0.2412 -2.8328 -2.4428
  365MOL0     H49257   6.554  10.240   2.793 -1.3761 -0.6369  0.0785
  365MOL0     H49258   6.762  10.171   2.757 -2.1005 -2.1073  0.2513
  365MOL0     H49259   7.131  10.206   2.417  1.1664  0.6392  0.4791
  365MOL0     H49260   7.347  10.147   2.345 -1.7979  2.6477  2.3617
  365MOL0     H49261   8.947  10.637   2.991  0.3509  1.2577 -0.9882
  365MOL0     H49262   9.185  10.625   3.075  1.2520 -2.2164  0.0802
  365MOL0     H49263   9.558  10.297   3.115 -0.1094 -0.2568 -1.1379
  365MOL0     H49264   9.795  10.246   3.157  1.3978 -0.0331  1.1498
  365MOL0     H49265  10.177  10.479   3.147  0.5394 -2.2232 -3.0650
  365MOL0     H49266  10.030  10.543   3.229 -0.8000 -0.0228 -1.0186
  365MOL0     H49267  10.004  10.381   3.367 -0.6356  1.8951  0.1060
  365MOL0     H49268  10.183  10.372   3.366 -1.6695 -0.3154  1.2848
  365MOL0     H49269   9.981  10.178   3.270  0.0102 -0.1250  1.5426
  365MOL0     H49270  10.118  10.148   3.372  0.7617 -0.8629 -0.1514
  365MOL0     H49271  10.274  10.207   3.166  0.4273  0.1230  1.7910
  365MOL0     H49272  10.123  10.188   3.071  1.1602 -1.1448 -0.1859
  365MOL0     H49273  10.231   9.788   3.153 -3.3208 -1.3418  2.4642
  365MOL0     H49274   9.879  10.650   3.010  0.1484  0.6604 -2.9288
  365MOL0     H49275   9.656  10.681   2.965  1.8695  0.9261 -0.1514
  366MOL0     O49276   6.139   3.218   0.975  0.2979 -0.8075  0.4710
  366MOL0     C49277   6.150   3.257   1.092  0.2544 -0.7991 -0.3627
  366MOL0     O49278   6.047   3.282   1.183 -0.5420 -0.3665  0.1076
  366MOL0     C49279   5.914   3.288   1.141  0.3276 -0.2379 -0.9339
  366MOL0     C49280   5.869   3.324   1.016  0.6478 -0.3793  0.3391
  366MOL0     C49281   5.730   3.341   0.992 -0.6774 -0.7246 -0.5486
  366MOL0     C49282   5.636   3.306   1.095 -0.2953  0.4324  0.6177
  366MOL0     O49283   5.502   3.315   1.064  0.4682 -0.0903  1.1683
  366MOL0     C49284   5.422   3.201   1.083  0.1329  0.6063 -1.0181
  366MOL0     C49285   5.287   3.218   0.996  0.0022  0.1374 -0.2455
  366MOL0     C49286   5.191   3.101   1.016 -0.8061 -0.6032  0.3113
  366MOL0     C49287   5.059   3.113   0.938  0.3065 -0.3407  0.6209
  366MOL0     C49288   4.979   3.002   0.983  0.0701  0.2606  0.3486
  366MOL0     C49289   4.839   3.001   0.920  1.0592 -0.1421 -0.1872
  366MOL0     C49290   4.835   2.970   0.766  0.6012 -0.2278  0.1757
  366MOL0     C49291   4.714   2.882   0.710 -0.2992 -0.5486  0.5845
  366MOL0     N49292   4.588   2.948   0.710  0.1195  0.0894  0.2946
  366MOL0     C49293   4.527   2.998   0.824 -0.9082  0.9371 -0.2824
  366MOL0     C49294   4.427   3.079   0.785 -0.5610 -0.2276 -0.0149
  366MOL0     C49295   4.333   3.158   0.868  0.1061  0.4463 -0.9715
  366MOL0     C49296   4.209   3.078   0.896  0.1217 -0.6602 -0.4294
  366MOL0     C49297   4.115   3.059   0.773  1.2151 -0.7786 -0.7771
  366MOL0     C49298   3.992   2.978   0.811  0.2649 -0.5167  0.2205
  366MOL0     O49299   3.921   3.050   0.909 -0.1852 -0.0523 -0.3600
  366MOL0     C49300   3.784   3.035   0.928 -0.4052  0.2465 -0.1493
  366MOL0     C49301   3.730   3.137   1.000 -0.3025  0.8116  0.2758
  366MOL0     C49302   3.592   3.141   1.034 -0.3291  0.1561  0.3651
  366MOL0     C49303   3.552   3.252   1.123 -0.0690  0.3818 -0.3814
  366MOL0     C49304   3.504   3.042   0.981 -0.4642 -0.8109  0.5272
  366MOL0     C49305   3.355   3.045   1.008  0.7698 -0.1150 -0.2787
  366MOL0     O49306   3.304   3.111   1.124 -0.3147  0.0882  0.1494
  366MOL0     C49307   3.166   3.122   1.129  0.1466 -0.4125 -0.1330
  366MOL0     C49308   3.093   3.025   1.186  0.5052  0.7801 -0.8523
  366MOL0     C49309   2.956   3.035   1.219 -0.2821  0.3601 -0.5101
  366MOL0     C49310   2.886   3.153   1.194  0.7611 -0.0049 -0.9259
  366MOL0     O49311   2.752   3.158   1.225  0.2479 -0.1934 -0.0218
  366MOL0     C49312   2.676   3.273   1.220 -0.3171  0.6676  0.1758
  366MOL0     C49313   2.537   3.249   1.275 -0.1878  0.4658  0.4104
  366MOL0     C49314   2.540   3.223   1.422  0.3157  0.1304  0.0505
  366MOL0     C49315   2.393   3.220   1.466 -0.2539  0.3662 -0.0415
  366MOL0     C49316   2.382   3.234   1.621 -0.5051 -0.0655  0.1829
  366MOL0     C49317   2.244   3.192   1.675  0.4556 -1.2890  0.9645
  366MOL0     C49318   2.242   3.042   1.706 -0.1232  0.0407 -0.0195
  366MOL0     C49319   2.224   3.018   1.861 -0.0226 -0.9084  0.2568
  366MOL0    Cl49320   2.275   2.851   1.897  0.1889  0.2271 -0.6588
  366MOL0     C49321   2.970   3.265   1.159  0.2454  0.1437 -0.1739
  366MOL0     C49322   3.104   3.245   1.121  0.2709 -0.6034  0.2248
  366MOL0     O49323   3.287   2.967   0.940 -0.0247  0.3311 -0.0215
  366MOL0     C49324   3.558   2.942   0.895 -0.1556 -0.7311 -0.1322
  366MOL0     C49325   3.696   2.944   0.872  0.1623  0.4963  0.2426
  366MOL0     N49326   4.434   3.079   0.648 -0.9079 -0.1798 -0.1381
  366MOL0     N49327   4.516   2.989   0.606 -1.0993  0.3878 -0.0337
  366MOL0     C49328   5.679   3.253   1.214  0.0970  0.0193  0.1458
  366MOL0     C49329   5.818   3.246   1.235  0.2056  0.5755  0.1716
  366MOL0     C49330   6.286   3.281   1.149  0.2792  0.1346  0.0848
  366MOL0     C49331   6.302   3.301   1.285  0.0262  0.2867  0.0711
  366MOL0     C49332   6.431   3.323   1.338 -0.3865 -0.6885 -0.4571
  366MOL0     C49333   6.543   3.306   1.257 -0.1821  0.1575 -0.0755
  366MOL0     O49334   6.667   3.330   1.307 -0.1471  0.8283  0.0533
  366MOL0     C49335   6.695   3.307   1.445 -0.5055  0.3720 -0.0992
  366MOL0     C49336   6.844   3.282   1.455 -0.3380  0.8024 -0.4447
  366MOL0     C49337   6.935   3.416   1.456 -0.6825  0.7646  0.2793
  366MOL0     C49338   7.075   3.407   1.385 -0.4208 -0.3730  0.3825
  366MOL0     C49339   7.161   3.313   1.454 -0.0995  0.1958 -0.1413
  366MOL0     C49340   7.243   3.237   1.507  0.7495 -0.8862 -0.1576
  366MOL0     C49341   6.527   3.278   1.118 -0.6010 -0.1044  1.1629
  366MOL0     C49342   6.395   3.271   1.061  0.1568  0.3689  0.1720
  366MOL0     H49343   5.937   3.338   0.933  1.3973 -0.5295  0.9162
  366MOL0     H49344   5.694   3.385   0.900 -1.1576  1.0901  0.4521
  366MOL0     H49345   5.474   3.113   1.042 -0.0585  1.1094 -2.3986
  366MOL0     H49346   5.403   3.177   1.188 -1.8453  0.3378 -1.3960
  366MOL0     H49347   5.234   3.309   1.025 -3.6350 -1.2821 -1.9196
  366MOL0     H49348   5.307   3.219   0.889 -1.9870  0.1583 -0.6606
  366MOL0     H49349   5.245   3.014   0.977  1.9298 -0.5266  3.4868
  366MOL0     H49350   5.176   3.086   1.124  0.6035 -1.5968  0.4027
  366MOL0     H49351   5.016   3.211   0.963  2.9815  0.8554  0.8311
  366MOL0     H49352   5.074   3.107   0.830 -1.5764  5.8985 -0.4129
  366MOL0     H49353   5.026   2.903   0.988  3.8419  1.9075  4.4830
  366MOL0     H49354   4.965   3.013   1.091  0.7987  2.0785  0.2917
  366MOL0     H49355   4.779   2.929   0.976 -2.0579  2.6413  0.3658
  366MOL0     H49356   4.796   3.098   0.944  2.5306 -0.1531  3.0423
  366MOL0     H49357   4.828   3.070   0.723 -0.6456 -0.9199 -1.3445
  366MOL0     H49358   4.928   2.915   0.751 -0.4159 -1.4697 -2.4443
  366MOL0     H49359   4.724   2.782   0.754  1.8365  0.5722  2.9355
  366MOL0     H49360   4.737   2.867   0.604 -0.1628 -2.3605  0.8398
  366MOL0     H49361   4.552   2.981   0.928 -2.2354 -2.1425 -0.3582
  366MOL0     H49362   4.374   3.188   0.965  1.8128 -0.1176 -1.4889
  366MOL0     H49363   4.311   3.252   0.816  0.7634  0.7994 -0.6242
  366MOL0     H49364   4.153   3.133   0.972 -0.8707 -0.6825 -1.1142
  366MOL0     H49365   4.245   2.983   0.936  1.2930  0.5451  1.5553
  366MOL0     H49366   4.155   3.016   0.681 -0.2074  1.2439 -2.4595
  366MOL0     H49367   4.077   3.158   0.743  0.4408 -0.4649  1.1223
  366MOL0     H49368   4.015   2.883   0.859 -0.9567 -0.7504  0.3631
  366MOL0     H49369   3.936   2.961   0.719  0.9629 -0.7171 -0.1735
  366MOL0     H49370   3.804   3.211   1.027  0.8356 -0.2920  0.2481
  366MOL0     H49371   3.629   3.330   1.130  0.2404 -0.0161  1.1457
  366MOL0     H49372   3.462   3.301   1.085 -0.4948  0.5002  0.7458
  366MOL0     H49373   3.535   3.223   1.228 -2.5655 -2.1236 -1.3503
  366MOL0     H49374   3.148   2.932   1.195 -1.2478 -0.1183  1.6294
  366MOL0     H49375   2.908   2.960   1.281 -0.0296  1.8244  1.5727
  366MOL0     H49376   2.723   3.345   1.287 -3.9936  2.1767  1.3912
  366MOL0     H49377   2.675   3.309   1.117 -1.0781 -2.7206 -1.1343
  366MOL0     H49378   2.480   3.342   1.264 -0.1322  0.6819  1.7271
  366MOL0     H49379   2.499   3.166   1.216  0.1059  0.2033  0.5860
  366MOL0     H49380   2.578   3.311   1.476 -1.8679  0.2524  1.5426
  366MOL0     H49381   2.596   3.132   1.444  0.7448 -0.3406 -2.6127
  366MOL0     H49382   2.343   3.307   1.422 -0.6506  0.3437  0.3635
  366MOL0     H49383   2.332   3.132   1.446  0.3888  0.0525 -0.6569
  366MOL0     H49384   2.405   3.337   1.650  3.4048  0.0726 -2.6016
  366MOL0     H49385   2.461   3.175   1.670 -0.4756 -0.7651 -0.6754
  366MOL0     H49386   2.208   3.252   1.759 -0.4494  1.7568 -1.4041
  366MOL0     H49387   2.175   3.223   1.596  1.9542 -0.2951 -0.0068
  366MOL0     H49388   2.332   2.987   1.677 -0.4871 -1.3648  1.3700
  366MOL0     H49389   2.163   3.000   1.644  0.1963 -0.1218 -0.3205
  366MOL0     H49390   2.119   3.031   1.889 -0.0506 -0.2049 -0.1464
  366MOL0     H49391   2.288   3.085   1.920  0.7660  0.6679 -2.2312
  366MOL0     H49392   2.928   3.363   1.138  0.3486  0.8690  2.5413
  366MOL0     H49393   3.154   3.333   1.082  1.0306 -0.3681  1.6743
  366MOL0     H49394   3.490   2.867   0.854 -0.6994 -1.0259  1.2436
  366MOL0     H49395   3.734   2.857   0.821  0.2554  0.0811  1.0123
  366MOL0     H49396   5.607   3.217   1.286 -0.5005  1.5741  0.3708
  366MOL0     H49397   5.862   3.212   1.328  1.1887 -1.7605 -1.0706
  366MOL0     H49398   6.223   3.301   1.359 -0.3529  1.5581 -0.3041
  366MOL0     H49399   6.449   3.348   1.442  3.2884  1.2758 -1.3971
  366MOL0     H49400   6.667   3.396   1.501 -1.1344  0.4053 -0.4658
  366MOL0     H49401   6.634   3.225   1.483 -0.2691 -1.2264 -2.8926
  366MOL0     H49402   6.885   3.210   1.382  3.1110 -0.1258  2.1190
  366MOL0     H49403   6.853   3.241   1.556 -0.0231 -0.5223 -0.9864
  366MOL0     H49404   6.966   3.438   1.559 -0.8624 -0.1996  0.5604
  366MOL0     H49405   6.875   3.492   1.406  0.2718  0.5931 -1.1959
  366MOL0     H49406   7.120   3.506   1.380  0.8772 -0.9787 -0.7504
  366MOL0     H49407   7.065   3.382   1.279 -1.0878  0.6072  0.1959
  366MOL0     H49408   7.300   3.158   1.552 -1.1729 -1.0115  2.3173
  366MOL0     H49409   6.620   3.267   1.064 -1.1129  0.1797  0.2150
  366MOL0     H49410   6.382   3.249   0.955  1.8342  2.2881 -0.4949
  367MOL0     O49411   1.214   9.104   9.170 -0.0250  0.3495  0.6191
  367MOL0     C49412   1.240   9.230   9.190  0.3010  0.2413  0.5442
  367MOL0     O49413   1.346   9.282   9.249  0.8173  0.3889 -0.2025
  367MOL0     C49414   1.431   9.185   9.302 -0.7394  0.2311  0.1167
  367MOL0     C49415   1.523   9.105   9.225  1.1206 -0.8196 -0.1063
  367MOL0     C49416   1.597   8.995   9.269  0.2909  0.2011  0.4375
  367MOL0     C49417   1.582   8.963   9.405  0.6670  0.4661  0.4623
  367MOL0     O49418   1.651   8.856   9.432 -0.1272 -0.1066  0.5558
  367MOL0     C49419   1.612   8.770   9.537  0.3065  0.3628 -0.2587
  367MOL0     C49420   1.498   8.667   9.499 -0.1255  0.5803 -1.3537
  367MOL0     C49421   1.470   8.572   9.616 -0.1224  0.1424 -0.4651
  367MOL0     C49422   1.376   8.459   9.568  0.4610 -0.2294 -0.0135
  367MOL0     C49423   1.325   8.382   9.691 -0.0522 -0.6699 -0.0572
  367MOL0     C49424   1.213   8.278   9.676 -0.1897 -0.1186  0.1964
  367MOL0     C49425   1.073   8.334   9.661  0.2302  0.1329 -0.0807
  367MOL0     C49426   0.958   8.232   9.674  0.4788  0.7183 -0.2581
  367MOL0     N49427   0.831   8.298   9.686 -0.0726  0.2134 -0.0136
  367MOL0     C49428   0.756   8.333   9.794  0.3481 -0.8071  0.5635
  367MOL0     C49429   0.637   8.387   9.755  0.4074 -0.6788  0.3606
  367MOL0     C49430   0.536   8.448   9.844  0.0568  0.4335  0.3553
  367MOL0     C49431   0.410   8.500   9.779  0.3318  0.0429  0.6099
  367MOL0     C49432   0.318   8.388   9.728 -0.1893  0.6024  0.0098
  367MOL0     C49433   0.204   8.443   9.636 -0.3246 -0.8669 -0.0525
  367MOL0     O49434   0.122   8.332   9.612  0.6142  0.7541  0.4263
  367MOL0     C49435   0.021   8.343   9.523 -0.3216 -1.3889  0.4173
  367MOL0     C49436  -0.005   8.462   9.448 -0.7710  0.0212  0.2727
  367MOL0     C49437  -0.106   8.469   9.347 -0.4100  1.1056  0.2793
  367MOL0     C49438  -0.137   8.610   9.305 -0.0019  0.4642 -0.2546
  367MOL0     C49439  -0.165   8.340   9.315  0.7586  0.5791 -0.6637
  367MOL0     C49440  -0.266   8.314   9.204 -0.1726 -0.3027  0.2442
  367MOL0     O49441  -0.308   8.185   9.185  0.2838  0.3355  0.5451
  367MOL0     C49442  -0.399   8.165   9.085 -0.7745 -0.0631  0.3021
  367MOL0     C49443  -0.507   8.092   9.114 -1.2773 -0.4497  0.0670
  367MOL0     C49444  -0.583   8.046   9.013 -0.7707 -0.1988  0.5332
  367MOL0     C49445  -0.551   8.080   8.881  0.2031  0.1253 -0.2956
  367MOL0     O49446  -0.649   8.041   8.790 -0.0084 -0.1166 -0.1645
  367MOL0     C49447  -0.624   7.924   8.718 -0.5648  0.4615 -0.9555
  367MOL0     C49448  -0.731   7.923   8.607  0.2889  0.4213  1.3524
  367MOL0     C49449  -0.880   7.907   8.658 -0.1303  0.1875 -0.7026
  367MOL0     C49450  -0.964   7.834   8.558 -0.8509  0.6188  0.5156
  367MOL0     C49451  -1.094   7.787   8.614  0.0380 -0.4319  0.2388
  367MOL0     C49452  -1.189   7.761   8.495 -0.2159  0.1844  0.3278
  367MOL0     C49453  -1.311   7.684   8.547 -1.0209  0.4076  0.8399
  367MOL0     C49454  -1.281   7.540   8.552 -0.6059  0.2603 -0.5316
  367MOL0    Cl49455  -1.383   7.447   8.660  0.2767 -0.1260 -0.6126
  367MOL0     C49456  -0.443   8.153   8.843 -0.3563 -0.5198  0.3672
  367MOL0     C49457  -0.359   8.187   8.947  0.6050 -0.5583 -0.7254
  367MOL0     O49458  -0.294   8.411   9.131 -0.0387  0.3118  0.2084
  367MOL0     C49459  -0.130   8.219   9.387 -1.1067 -0.0641  0.0349
  367MOL0     C49460  -0.043   8.229   9.491  0.6650  0.8108  0.2378
  367MOL0     N49461   0.635   8.365   9.622  0.1668 -0.0529 -0.4426
  367MOL0     N49462   0.748   8.321   9.578 -0.6720 -0.0591 -0.9055
  367MOL0     C49463   1.488   9.040   9.492 -0.0177  0.0330  0.5685
  367MOL0     C49464   1.420   9.147   9.437  0.2057 -0.5868 -0.6911
  367MOL0     C49465   1.117   9.314   9.186  0.0910 -0.1633  0.7034
  367MOL0     C49466   1.135   9.450   9.192 -0.0717  0.1950 -0.4267
  367MOL0     C49467   1.020   9.537   9.183  0.2657  0.2865  0.2206
  367MOL0     C49468   0.885   9.488   9.167  0.4079 -0.1235  0.2211
  367MOL0     O49469   0.770   9.560   9.148  0.8241  0.2751 -0.6574
  367MOL0     C49470   0.775   9.694   9.174  0.7446  0.3667 -0.4806
  367MOL0     C49471   0.633   9.745   9.203  0.2359 -0.3351  0.3487
  367MOL0     C49472   0.584   9.719   9.345 -0.2262 -0.3837  0.5021
  367MOL0     C49473   0.426   9.720   9.363 -0.4391 -0.9918 -0.0384
  367MOL0     C49474   0.350   9.621   9.290  0.1794 -0.0624 -0.3356
  367MOL0     C49475   0.275   9.555   9.223 -0.0781  0.6732  0.4204
  367MOL0     C49476   0.876   9.347   9.170  0.5480 -0.3172  0.1981
  367MOL0     C49477   0.985   9.257   9.171 -0.1886 -0.1359  0.6849
  367MOL0     H49478   1.539   9.126   9.119  4.9385 -0.5963  0.3912
  367MOL0     H49479   1.662   8.946   9.197  1.9881  2.8525  0.0359
  367MOL0     H49480   1.704   8.713   9.555  1.1255  1.4919 -0.8053
  367MOL0     H49481   1.588   8.824   9.629 -2.2046  1.0011 -1.2161
  367MOL0     H49482   1.413   8.717   9.451 -0.2990  0.0520 -1.6136
  367MOL0     H49483   1.548   8.605   9.424  0.9991  0.6116 -0.6485
  367MOL0     H49484   1.561   8.530   9.660 -0.4537 -1.1076 -0.9306
  367MOL0     H49485   1.426   8.635   9.695  2.0201  0.6604  0.3868
  367MOL0     H49486   1.300   8.501   9.501  2.8758  1.4939 -1.8383
  367MOL0     H49487   1.433   8.384   9.513 -0.2100 -1.2002  0.5824
  367MOL0     H49488   1.407   8.343   9.752  0.8089 -1.5940 -1.7507
  367MOL0     H49489   1.284   8.456   9.761  1.0231 -2.0987  2.2335
  367MOL0     H49490   1.238   8.209   9.594  1.2032 -1.0705  1.3627
  367MOL0     H49491   1.221   8.211   9.762  2.4962  0.4821  0.5195
  367MOL0     H49492   1.064   8.407   9.742  1.7372  2.4494 -1.8637
  367MOL0     H49493   1.073   8.396   9.571 -1.1863  2.8020  1.5910
  367MOL0     H49494   0.993   8.173   9.758 -1.3757  0.6128  0.4873
  367MOL0     H49495   0.952   8.161   9.591 -1.7195  0.1749  0.3194
  367MOL0     H49496   0.790   8.305   9.893  0.1546  0.2869  0.9490
  367MOL0     H49497   0.511   8.373   9.920  2.4152 -1.3158 -0.4684
  367MOL0     H49498   0.591   8.529   9.894 -1.1637  0.4620  1.7151
  367MOL0     H49499   0.438   8.551   9.686  1.3777 -1.0996  0.2682
  367MOL0     H49500   0.364   8.564   9.855  0.2048 -1.5615  1.9509
  367MOL0     H49501   0.277   8.318   9.801  0.3648  0.8686  0.5845
  367MOL0     H49502   0.370   8.319   9.660 -1.7585 -0.3862 -0.2244
  367MOL0     H49503   0.247   8.485   9.544  0.0594 -2.0568 -0.4454
  367MOL0     H49504   0.142   8.513   9.692  2.9731  1.0266  1.4553
  367MOL0     H49505   0.042   8.558   9.472 -2.1043  0.1792  2.6051
  367MOL0     H49506  -0.244   8.620   9.283  0.0319 -1.8441 -1.8873
  367MOL0     H49507  -0.115   8.686   9.381  1.6893 -0.3931  0.1376
  367MOL0     H49508  -0.084   8.638   9.213  0.3025 -1.0521 -0.5628
  367MOL0     H49509  -0.530   8.074   9.219 -0.1720  2.8448  0.9997
  367MOL0     H49510  -0.665   7.983   9.047 -0.2533 -1.2480 -0.1346
  367MOL0     H49511  -0.527   7.929   8.668  0.1656  0.2920  0.4037
  367MOL0     H49512  -0.627   7.841   8.790  1.8512  1.2655  0.1747
  367MOL0     H49513  -0.721   8.018   8.553  1.5312  0.2516  1.2389
  367MOL0     H49514  -0.715   7.847   8.529 -0.6745  1.8404 -0.3050
  367MOL0     H49515  -0.932   7.999   8.684 -3.7118 -1.7537 -0.4115
  367MOL0     H49516  -0.878   7.848   8.751  2.3516  1.9385  0.4835
  367MOL0     H49517  -0.987   7.899   8.473 -0.2501 -0.5606 -0.5871
  367MOL0     H49518  -0.918   7.739   8.529 -1.9706  0.1369  0.2692
  367MOL0     H49519  -1.142   7.865   8.674 -0.3084  1.3971 -2.2110
  367MOL0     H49520  -1.073   7.701   8.678 -0.4800  0.3451  1.4927
  367MOL0     H49521  -1.209   7.858   8.451  4.2448  0.0354 -2.6787
  367MOL0     H49522  -1.143   7.698   8.419 -2.7231 -0.4977 -0.7347
  367MOL0     H49523  -1.395   7.703   8.479  0.4161 -1.7779 -1.7232
  367MOL0     H49524  -1.336   7.718   8.648  0.3121  0.6785  1.0973
  367MOL0     H49525  -1.178   7.515   8.579  0.5461  1.8527 -3.1767
  367MOL0     H49526  -1.283   7.505   8.449 -0.2532 -0.3028 -0.3513
  367MOL0     H49527  -0.419   8.169   8.739  0.9086  0.6767  0.7975
  367MOL0     H49528  -0.266   8.235   8.919  0.0437  0.3270 -1.1199
  367MOL0     H49529  -0.161   8.117   9.365  2.6865 -1.2249 -0.5144
  367MOL0     H49530  -0.007   8.150   9.557  1.4436  0.9372 -0.0303
  367MOL0     H49531   1.475   9.032   9.600 -0.8208 -1.0558  0.4131
  367MOL0     H49532   1.349   9.208   9.491 -0.1441  1.3649 -3.1386
  367MOL0     H49533   1.236   9.487   9.202 -0.8577  2.0631  1.2111
  367MOL0     H49534   1.036   9.644   9.186  2.0573  0.4746 -5.3066
  367MOL0     H49535   0.831   9.712   9.267  1.4955 -1.6169 -0.4903
  367MOL0     H49536   0.813   9.732   9.079  3.2716 -0.0878  0.2651
  367MOL0     H49537   0.564   9.683   9.144  0.6193  0.0079 -0.4848
  367MOL0     H49538   0.630   9.852   9.178  2.1578 -0.4679 -0.6208
  367MOL0     H49539   0.618   9.802   9.408 -0.3729  0.2730 -0.2611
  367MOL0     H49540   0.635   9.626   9.374  2.7855  0.3699 -1.8329
  367MOL0     H49541   0.390   9.821   9.338 -0.0682 -1.2189 -1.5956
  367MOL0     H49542   0.398   9.705   9.468 -1.0013  2.5472  0.4620
  367MOL0     H49543   0.199   9.500   9.172  1.7502 -1.6553  0.0479
  367MOL0     H49544   0.777   9.306   9.183  0.4340  0.1809  0.9890
  367MOL0     H49545   0.970   9.151   9.159 -1.0815  0.0104  0.3999
  368MOL0     O49546   7.309   7.057   0.448 -0.5593 -0.3079 -0.0471
  368MOL0     C49547   7.253   7.022   0.555  0.6450  0.3455  0.3466
  368MOL0     O49548   7.111   6.982   0.560  0.5330  0.1602 -0.7478
  368MOL0     C49549   7.043   6.982   0.441 -0.3248 -0.3371 -0.3900
  368MOL0     C49550   6.948   7.081   0.421  0.0310 -0.2999 -0.4302
  368MOL0     C49551   6.873   7.073   0.304  0.2596  0.0797 -0.1192
  368MOL0     C49552   6.904   6.979   0.210  0.7030  0.0047 -0.4332
  368MOL0     O49553   6.815   6.975   0.100  0.7233  0.0620  0.0304
  368MOL0     C49554   6.859   6.908  -0.019  0.0826  0.5384 -0.0094
  368MOL0     C49555   6.761   6.939  -0.132  0.1597 -0.0347  0.5219
  368MOL0     C49556   6.630   6.841  -0.117 -0.7872 -0.1555 -0.3425
  368MOL0     C49557   6.519   6.893  -0.021 -0.5050  0.7310 -0.1137
  368MOL0     C49558   6.399   6.789  -0.018 -0.6993 -1.3260 -0.0943
  368MOL0     C49559   6.253   6.837   0.019 -1.2613  0.1152  0.2269
  368MOL0     C49560   6.267   6.862   0.169  0.6103 -0.4821  1.3462
  368MOL0     C49561   6.127   6.885   0.232 -0.9861  0.1789  0.2290
  368MOL0     N49562   6.056   7.014   0.203 -0.0806 -0.3726 -0.0882
  368MOL0     C49563   6.044   7.118   0.298 -0.9361  0.7406  0.7152
  368MOL0     C49564   5.975   7.214   0.232  0.2776 -0.5365 -0.3991
  368MOL0     C49565   5.920   7.330   0.302  0.4478 -0.1994  0.1973
  368MOL0     C49566   5.763   7.325   0.315 -0.1507  0.6954 -0.6879
  368MOL0     C49567   5.687   7.377   0.193 -0.2040  0.1998  1.2534
  368MOL0     C49568   5.535   7.410   0.214 -0.1041  0.9477  0.0221
  368MOL0     O49569   5.471   7.292   0.255  0.8286 -0.3559 -0.5455
  368MOL0     C49570   5.334   7.295   0.272  0.5592 -0.6545  0.0475
  368MOL0     C49571   5.260   7.417   0.277 -0.4538 -0.3132 -0.3878
  368MOL0     C49572   5.119   7.411   0.300  0.2634 -0.4922  0.8744
  368MOL0     C49573   5.055   7.543   0.296 -0.1249  0.0883 -0.0539
  368MOL0     C49574   5.043   7.283   0.317 -0.5220 -0.2856 -0.3900
  368MOL0     C49575   4.892   7.263   0.331 -0.6039 -0.2401  0.8366
  368MOL0     O49576   4.851   7.139   0.367  0.8165  0.2958 -0.3029
  368MOL0     C49577   4.718   7.129   0.395 -0.4959 -0.2612 -0.2158
  368MOL0     C49578   4.619   7.116   0.296 -0.4887 -0.8413  0.2392
  368MOL0     C49579   4.483   7.105   0.326  0.2325  0.3947 -0.4155
  368MOL0     C49580   4.443   7.107   0.466 -0.4226 -0.7900  0.7612
  368MOL0     O49581   4.311   7.084   0.505 -0.1476  0.4708  0.0564
  368MOL0     C49582   4.207   7.150   0.443  0.6665 -0.7655  0.2775
  368MOL0     C49583   4.078   7.135   0.525 -0.1824 -0.6496  0.2999
  368MOL0     C49584   4.052   6.987   0.556  0.4854  0.3599  0.3394
  368MOL0     C49585   3.936   6.969   0.652  0.8289  0.2120 -0.9445
  368MOL0     C49586   3.860   6.833   0.670 -0.2196 -0.0280  0.4591
  368MOL0     C49587   3.731   6.834   0.756 -0.1075 -0.8484  0.0734
  368MOL0     C49588   3.653   6.703   0.749 -0.2328  0.5357 -0.9011
  368MOL0     C49589   3.553   6.698   0.861  0.4162 -0.0646  0.1850
  368MOL0    Cl49590   3.420   6.832   0.855  0.6708  0.2304 -0.2122
  368MOL0     C49591   4.544   7.112   0.571  0.8290 -0.0889  0.2635
  368MOL0     C49592   4.676   7.135   0.532  0.6645 -0.1305 -0.1185
  368MOL0     O49593   4.814   7.352   0.312 -0.2845 -0.6478  0.2954
  368MOL0     C49594   5.124   7.168   0.309  0.3874 -0.7049  0.4213
  368MOL0     C49595   5.265   7.177   0.287  0.5470  0.6188 -0.2969
  368MOL0     N49596   5.941   7.168   0.107  0.1383 -0.0184 -0.6620
  368MOL0     N49597   5.984   7.041   0.093 -0.2711 -0.2996  0.2596
  368MOL0     C49598   7.005   6.883   0.224  0.0124 -0.2604 -0.1366
  368MOL0     C49599   7.075   6.884   0.347 -0.6118  0.1795  0.3636
  368MOL0     C49600   7.328   6.991   0.675  0.9181 -0.2686 -0.0953
  368MOL0     C49601   7.257   6.959   0.788  0.0573 -0.3566  0.2317
  368MOL0     C49602   7.317   6.919   0.905 -0.5430 -0.5334  0.9479
  368MOL0     C49603   7.459   6.922   0.917  0.8118  0.9292 -0.8137
  368MOL0     O49604   7.525   6.867   1.030  0.1274 -0.2861  0.3813
  368MOL0     C49605   7.668   6.889   1.043  0.1278  0.6101  0.3841
  368MOL0     C49606   7.695   6.863   1.197  0.1821 -0.0936  0.1455
  368MOL0     C49607   7.702   6.709   1.232 -0.1066 -0.1788 -0.5252
  368MOL0     C49608   7.712   6.681   1.379  0.2963 -0.2223  0.1465
  368MOL0     C49609   7.602   6.724   1.467 -0.1557  0.9416  0.1811
  368MOL0     C49610   7.504   6.750   1.538  0.6882 -1.0598 -0.5470
  368MOL0     C49611   7.528   6.955   0.799 -0.4702  0.0895  0.9251
  368MOL0     C49612   7.469   6.986   0.675 -0.1355  0.2241  0.1875
  368MOL0     H49613   6.940   7.169   0.485 -0.8162  1.6142 -2.9790
  368MOL0     H49614   6.790   7.142   0.295 -0.0213 -0.0004  1.5228
  368MOL0     H49615   6.958   6.942  -0.050 -0.2067  1.3881 -0.0054
  368MOL0     H49616   6.863   6.799  -0.008 -1.3374  0.5355  0.6087
  368MOL0     H49617   6.733   7.044  -0.132 -0.1256 -0.1071  1.0855
  368MOL0     H49618   6.809   6.916  -0.228 -2.9760 -3.0619 -0.5118
  368MOL0     H49619   6.592   6.831  -0.219  1.7896 -0.6061 -1.3319
  368MOL0     H49620   6.658   6.744  -0.076 -0.8020 -0.1791 -0.3886
  368MOL0     H49621   6.556   6.905   0.081 -0.0234  1.0405 -0.3218
  368MOL0     H49622   6.489   6.990  -0.062 -1.7226 -0.5690 -2.5215
  368MOL0     H49623   6.379   6.753  -0.119 -1.1267 -0.4501 -0.3375
  368MOL0     H49624   6.437   6.702   0.036 -0.2180 -2.9232 -2.8377
  368MOL0     H49625   6.225   6.924  -0.042  2.6954 -1.0558 -3.7259
  368MOL0     H49626   6.177   6.760   0.005 -1.1829 -0.4037  2.3434
  368MOL0     H49627   6.308   6.772   0.216  0.0387 -1.4355  0.0717
  368MOL0     H49628   6.339   6.941   0.188  1.4129 -1.1253  1.0088
  368MOL0     H49629   6.129   6.881   0.342 -1.0936  2.6319  0.3966
  368MOL0     H49630   6.062   6.805   0.196 -1.4981  1.4362 -1.7750
  368MOL0     H49631   6.087   7.118   0.397  0.0950 -0.9264  0.3046
  368MOL0     H49632   5.962   7.332   0.403 -1.8107 -0.8209  1.2145
  368MOL0     H49633   5.955   7.409   0.235 -2.5603  0.0501 -1.2310
  368MOL0     H49634   5.734   7.379   0.406 -0.0128 -0.5284  0.1018
  368MOL0     H49635   5.741   7.220   0.333 -2.0612  1.1198 -0.3800
  368MOL0     H49636   5.701   7.306   0.111 -0.3236  2.6017 -0.9706
  368MOL0     H49637   5.727   7.471   0.155 -0.2166 -1.3894 -3.3040
  368MOL0     H49638   5.500   7.430   0.112 -0.4548 -2.2653 -0.5978
  368MOL0     H49639   5.527   7.486   0.292  1.2433 -0.1104  1.2642
  368MOL0     H49640   5.306   7.513   0.257 -0.8856  0.3667  1.6962
  368MOL0     H49641   4.980   7.549   0.217  2.1201  1.6845 -2.2315
  368MOL0     H49642   4.991   7.554   0.384 -1.9345 -2.2225 -0.9785
  368MOL0     H49643   5.127   7.626   0.289  2.2521 -1.8887 -0.7548
  368MOL0     H49644   4.648   7.094   0.194  1.0157 -3.7399  1.1865
  368MOL0     H49645   4.409   7.111   0.247 -0.2064 -1.7178 -0.2255
  368MOL0     H49646   4.224   7.257   0.427  2.8254 -0.9754  0.8772
  368MOL0     H49647   4.187   7.110   0.343 -2.0895 -0.6663  0.7038
  368MOL0     H49648   4.086   7.185   0.623 -0.7296  0.3875 -0.1706
  368MOL0     H49649   3.996   7.179   0.468  0.3262  0.7250  0.5752
  368MOL0     H49650   4.138   6.943   0.606  1.2986  0.1878 -1.1677
  368MOL0     H49651   4.042   6.937   0.459  1.4929  1.4315 -0.3468
  368MOL0     H49652   3.966   7.010   0.749 -2.2329  0.8747 -0.1647
  368MOL0     H49653   3.867   7.048   0.621  1.5235  0.4319 -1.9651
  368MOL0     H49654   3.930   6.766   0.721  1.9036 -0.4053 -2.7045
  368MOL0     H49655   3.844   6.793   0.570  0.7833  0.7805 -0.0373
  368MOL0     H49656   3.762   6.857   0.858  0.5981  1.9340 -0.6883
  368MOL0     H49657   3.655   6.903   0.720  1.3258  0.4593 -0.5687
  368MOL0     H49658   3.723   6.624   0.779  1.4525  3.2464  3.1512
  368MOL0     H49659   3.606   6.672   0.655 -2.0215 -1.0940  0.4464
  368MOL0     H49660   3.606   6.718   0.954  0.0213  2.7558 -0.1241
  368MOL0     H49661   3.506   6.599   0.852  0.3563  0.1288 -3.1565
  368MOL0     H49662   4.512   7.107   0.674 -4.0858 -2.1339 -1.0944
  368MOL0     H49663   4.755   7.146   0.606  0.3740  1.0139  0.0309
  368MOL0     H49664   5.084   7.068   0.321  0.8703 -1.1896 -1.5393
  368MOL0     H49665   5.313   7.083   0.262 -2.2092 -0.5962 -1.4946
  368MOL0     H49666   7.036   6.800   0.161  0.3533 -1.0292  1.0119
  368MOL0     H49667   7.152   6.809   0.363 -1.3734 -0.3209  1.8636
  368MOL0     H49668   7.149   6.949   0.787 -0.1930 -0.4246  4.6564
  368MOL0     H49669   7.252   6.872   0.978 -2.4518 -1.3967 -1.1988
  368MOL0     H49670   7.719   6.811   0.986 -4.0343 -0.9300 -1.6592
  368MOL0     H49671   7.715   6.983   1.013  4.6428 -2.3286 -3.1628
  368MOL0     H49672   7.610   6.911   1.247  0.6203  0.7706  0.0800
  368MOL0     H49673   7.787   6.915   1.225  1.1396 -1.8046  0.3127
  368MOL0     H49674   7.787   6.662   1.181  0.1132 -0.6608  0.2645
  368MOL0     H49675   7.612   6.659   1.195 -0.1201 -1.8335  1.5542
  368MOL0     H49676   7.803   6.715   1.427 -0.3101 -0.2348  1.3361
  368MOL0     H49677   7.716   6.572   1.393  0.0775 -0.1829  0.5363
  368MOL0     H49678   7.416   6.769   1.596  0.3720  0.6082 -1.5286
  368MOL0     H49679   7.635   6.943   0.790 -0.5462 -1.7570  2.0484
  368MOL0     H49680   7.523   7.028   0.591  1.2393  1.9024  1.8336
  369MOL0     O49681   6.551   8.300   3.565  0.3475  0.5413  0.7618
  369MOL0     C49682   6.659   8.238   3.589 -0.8594 -0.2179  1.2958
  369MOL0     O49683   6.678   8.105   3.632 -0.0165 -0.1416 -0.2564
  369MOL0     C49684   6.560   8.032   3.629 -0.6521 -0.1545  0.2591
  369MOL0     C49685   6.485   8.015   3.740 -0.0425  0.5750  0.0605
  369MOL0     C49686   6.366   7.940   3.747  0.3679  1.0510  0.8365
  369MOL0     C49687   6.331   7.870   3.632 -0.1599 -0.1753  0.3299
  369MOL0     O49688   6.209   7.802   3.633  0.0877 -0.6917  0.1490
  369MOL0     C49689   6.155   7.740   3.513 -0.5295  0.9560  0.3718
  369MOL0     C49690   6.015   7.677   3.545  0.2929 -0.5648  0.0170
  369MOL0     C49691   6.020   7.529   3.580 -0.1507 -0.2950 -0.0450
  369MOL0     C49692   5.886   7.462   3.605  0.3688 -0.1385  0.5456
  369MOL0     C49693   5.872   7.313   3.612 -0.7522  0.6933  0.0966
  369MOL0     C49694   5.973   7.266   3.726 -0.0255  1.0524  0.3611
  369MOL0     C49695   5.933   7.127   3.792 -0.2099  0.5770 -0.7213
  369MOL0     C49696   6.016   7.090   3.915  0.9302  0.3549  0.0780
  369MOL0     N49697   6.153   7.056   3.878  0.2165 -0.1386 -0.1623
  369MOL0     C49698   6.194   6.954   3.803 -0.2257  0.1653 -0.7937
  369MOL0     C49699   6.324   6.983   3.776 -0.3267  0.2115  0.3735
  369MOL0     C49700   6.424   6.905   3.695 -0.0540 -1.1277 -0.1996
  369MOL0     C49701   6.564   6.960   3.728  0.8931  0.5664 -0.0307
  369MOL0     C49702   6.612   7.097   3.682  0.2967  0.0428 -0.2819
  369MOL0     C49703   6.719   7.096   3.572 -0.1939 -0.4200  0.5240
  369MOL0     O49704   6.663   7.062   3.444  0.0301  0.2647 -1.0859
  369MOL0     C49705   6.712   7.110   3.326 -0.0493  0.0273  0.2139
  369MOL0     C49706   6.631   7.123   3.212 -0.1948  0.1058 -0.1426
  369MOL0     C49707   6.678   7.178   3.088  0.1556  0.4288 -0.1936
  369MOL0     C49708   6.570   7.187   2.986  0.0785 -1.0120  0.8069
  369MOL0     C49709   6.814   7.206   3.077  0.4623 -0.6176  0.1386
  369MOL0     C49710   6.885   7.238   2.943  0.7410 -0.6731 -1.4274
  369MOL0     O49711   7.025   7.246   2.945 -0.1257  0.6428 -0.5113
  369MOL0     C49712   7.085   7.305   2.842  0.5613  0.8821  1.0584
  369MOL0     C49713   7.155   7.420   2.865 -0.4741 -0.2486 -0.1447
  369MOL0     C49714   7.235   7.481   2.767  0.2536  0.5533 -1.0137
  369MOL0     C49715   7.250   7.419   2.642 -0.7704 -0.8086  0.0885
  369MOL0     O49716   7.337   7.460   2.545 -0.1008 -0.3793 -0.6148
  369MOL0     C49717   7.441   7.554   2.581  1.1410 -0.0551 -0.3971
  369MOL0     C49718   7.535   7.563   2.472 -0.9703 -0.4948 -0.8273
  369MOL0     C49719   7.639   7.669   2.526 -0.1907 -0.2791 -0.7163
  369MOL0     C49720   7.768   7.683   2.436 -0.1688 -1.2692  0.1489
  369MOL0     C49721   7.893   7.602   2.486  0.1434  0.6818 -0.9406
  369MOL0     C49722   8.002   7.591   2.379 -0.3724  0.2693  0.6839
  369MOL0     C49723   8.084   7.467   2.408 -0.0812  0.9151 -0.2388
  369MOL0     C49724   8.218   7.474   2.332  0.2762 -0.1928  0.2639
  369MOL0    Cl49725   8.307   7.591   2.426  0.0161  0.1191  0.1645
  369MOL0     C49726   7.180   7.296   2.611 -0.7132 -0.7269 -0.1191
  369MOL0     C49727   7.099   7.240   2.719  0.6751 -1.2382  0.2659
  369MOL0     O49728   6.825   7.263   2.846  0.1187  0.4321  0.3647
  369MOL0     C49729   6.894   7.192   3.195 -0.0927 -0.2810  0.8098
  369MOL0     C49730   6.841   7.148   3.316  0.5370  1.0573  0.2933
  369MOL0     N49731   6.349   7.107   3.826 -0.5541  0.1443  0.7019
  369MOL0     N49732   6.254   7.151   3.891  0.0589  0.2370  0.0319
  369MOL0     C49733   6.408   7.881   3.516 -0.1114  0.1023  0.2077
  369MOL0     C49734   6.526   7.953   3.517 -1.4932 -1.1100 -0.6089
  369MOL0     C49735   6.785   8.320   3.613 -0.3081 -0.0895 -0.3747
  369MOL0     C49736   6.786   8.462   3.604 -0.3655  0.1259  0.4737
  369MOL0     C49737   6.891   8.528   3.648  0.5474  0.5028  0.2006
  369MOL0     C49738   7.011   8.476   3.690  0.4188  0.3493  0.6306
  369MOL0     O49739   7.106   8.573   3.716 -0.8033 -0.0912 -0.0123
  369MOL0     C49740   7.207   8.549   3.815 -0.2888 -0.8864 -0.3575
  369MOL0     C49741   7.302   8.675   3.851 -0.1200  0.2248  0.4803
  369MOL0     C49742   7.424   8.626   3.931  0.6911 -0.8193  0.4701
  369MOL0     C49743   7.534   8.737   3.951  0.0542 -0.1216 -1.0759
  369MOL0     C49744   7.664   8.694   3.999 -0.1168  0.6677 -0.0674
  369MOL0     C49745   7.767   8.655   4.043 -0.4877  0.2035  0.6341
  369MOL0     C49746   7.011   8.334   3.706  0.2689 -0.2087 -0.3873
  369MOL0     C49747   6.899   8.260   3.669 -0.6796  0.6411  0.1676
  369MOL0     H49748   6.505   8.071   3.831  2.9231  1.1373 -0.8425
  369MOL0     H49749   6.309   7.931   3.838  0.2725  0.2756  0.7041
  369MOL0     H49750   6.151   7.816   3.435  1.3952 -0.7391 -1.5153
  369MOL0     H49751   6.223   7.664   3.472  1.6747  1.3741  2.9560
  369MOL0     H49752   5.959   7.729   3.623  1.3482 -0.9560  1.0697
  369MOL0     H49753   5.951   7.684   3.456 -2.3066  1.3292  1.9152
  369MOL0     H49754   6.066   7.498   3.486  3.3737  2.3754  0.5562
  369MOL0     H49755   6.083   7.523   3.670 -1.4353  4.4907  1.4931
  369MOL0     H49756   5.840   7.500   3.697 -0.1804 -2.2738  1.2001
  369MOL0     H49757   5.814   7.496   3.530 -1.2551 -0.8157  1.7329
  369MOL0     H49758   5.768   7.290   3.639 -0.2169 -3.2230 -0.4923
  369MOL0     H49759   5.906   7.263   3.520  1.7936  0.9840  0.8074
  369MOL0     H49760   6.065   7.253   3.669 -1.0934 -1.9933 -0.8870
  369MOL0     H49761   5.972   7.333   3.812  0.1673  0.1176  1.0987
  369MOL0     H49762   5.827   7.135   3.818 -0.4350 -0.0794 -1.4359
  369MOL0     H49763   5.922   7.047   3.719 -1.3859  0.0384  0.0193
  369MOL0     H49764   5.971   7.010   3.974  1.0583  1.6527  2.0485
  369MOL0     H49765   6.021   7.176   3.983  0.5513  0.5880 -0.1834
  369MOL0     H49766   6.137   6.871   3.762 -0.1683  0.1986 -0.9388
  369MOL0     H49767   6.426   6.806   3.741  2.2938 -1.2526 -0.4666
  369MOL0     H49768   6.414   6.884   3.588  1.4075 -1.1290 -0.3642
  369MOL0     H49769   6.629   6.887   3.678 -0.2740 -0.0796 -0.6230
  369MOL0     H49770   6.569   6.955   3.837 -1.0275  1.4661  0.1334
  369MOL0     H49771   6.646   7.147   3.774  2.3156 -0.9930 -0.4003
  369MOL0     H49772   6.525   7.155   3.651  0.4774  0.4559 -0.0284
  369MOL0     H49773   6.808   7.035   3.591 -0.1093 -0.9459 -1.3756
  369MOL0     H49774   6.757   7.199   3.570 -1.0050  0.0358  3.5030
  369MOL0     H49775   6.528   7.090   3.215 -1.2908  3.2115  0.2941
  369MOL0     H49776   6.587   7.101   2.920  0.6672 -1.2981  1.3244
  369MOL0     H49777   6.468   7.187   3.025 -0.9108 -0.3947 -1.5691
  369MOL0     H49778   6.583   7.277   2.925 -0.8504 -0.7216  1.0092
  369MOL0     H49779   7.155   7.456   2.967  3.6690  1.4712 -0.5343
  369MOL0     H49780   7.279   7.579   2.782  1.3064  0.0579 -0.7589
  369MOL0     H49781   7.402   7.656   2.593  1.0516 -0.1091 -0.2236
  369MOL0     H49782   7.495   7.531   2.673 -0.7699 -0.7816  0.6151
  369MOL0     H49783   7.600   7.475   2.470  0.2017  0.3497 -1.9330
  369MOL0     H49784   7.490   7.598   2.379  2.6739 -1.1144 -3.0500
  369MOL0     H49785   7.664   7.639   2.628 -1.2108  0.3721 -0.2484
  369MOL0     H49786   7.594   7.769   2.531  3.1405  1.2678  0.8929
  369MOL0     H49787   7.747   7.654   2.333  1.2191  0.7075 -0.7445
  369MOL0     H49788   7.796   7.788   2.447 -1.7295 -0.9124  1.0531
  369MOL0     H49789   7.858   7.503   2.514 -0.0152  0.2966 -2.4309
  369MOL0     H49790   7.936   7.648   2.575 -3.1897  1.8600  0.2312
  369MOL0     H49791   7.966   7.598   2.277 -0.8149  1.5231  0.9116
  369MOL0     H49792   8.070   7.676   2.388  2.2426 -1.5282 -0.6845
  369MOL0     H49793   8.043   7.371   2.374  2.7076 -0.4811  0.0165
  369MOL0     H49794   8.103   7.456   2.515  1.5025  1.8562 -0.3950
  369MOL0     H49795   8.202   7.498   2.227 -0.9872 -1.0269  0.2537
  369MOL0     H49796   8.265   7.377   2.314 -2.9804 -1.6588 -1.0383
  369MOL0     H49797   7.181   7.253   2.511 -1.6398  0.4104 -0.6340
  369MOL0     H49798   7.045   7.148   2.699 -0.9845 -0.5027  1.1796
  369MOL0     H49799   6.999   7.215   3.185  0.0785 -2.0216 -2.9760
  369MOL0     H49800   6.915   7.139   3.395  0.0384  0.6330  0.7195
  369MOL0     H49801   6.378   7.831   3.425 -1.4552  2.1230 -0.5214
  369MOL0     H49802   6.576   7.962   3.421 -1.0527  2.1055 -0.1706
  369MOL0     H49803   6.703   8.521   3.567 -0.8748 -1.5838 -1.2911
  369MOL0     H49804   6.871   8.632   3.625 -1.1661 -0.0937 -1.1345
  369MOL0     H49805   7.161   8.508   3.905 -3.1166  0.7036 -0.9394
  369MOL0     H49806   7.275   8.480   3.763 -0.7816 -0.6187 -1.3878
  369MOL0     H49807   7.241   8.752   3.898  2.9528  2.9059  0.4210
  369MOL0     H49808   7.334   8.713   3.754  0.6634 -2.5002 -0.4431
  369MOL0     H49809   7.459   8.535   3.883 -1.4784 -1.7086  0.4457
  369MOL0     H49810   7.387   8.607   4.032  2.9144  2.4876  2.1197
  369MOL0     H49811   7.491   8.797   4.031  1.1635 -0.3846 -0.2482
  369MOL0     H49812   7.532   8.807   3.867  0.0659  0.7349 -0.3636
  369MOL0     H49813   7.863   8.639   4.088 -0.0823 -1.7912 -0.8257
  369MOL0     H49814   7.097   8.285   3.750 -0.4097 -1.8049 -0.7580
  369MOL0     H49815   6.900   8.151   3.678 -2.8642  0.2510 -2.9213
  370MOL0     O49816   7.543   2.505   9.442  0.5381  0.0373  0.0345
  370MOL0     C49817   7.527   2.411   9.370  0.7564 -0.5747  0.1684
  370MOL0     O49818   7.427   2.386   9.284 -0.7904  0.2275  0.9033
  370MOL0     C49819   7.304   2.451   9.268  1.1736  0.4371 -0.8707
  370MOL0     C49820   7.257   2.566   9.346  0.1140  0.2961 -0.1795
  370MOL0     C49821   7.152   2.646   9.304 -0.1979 -0.2626  0.1225
  370MOL0     C49822   7.085   2.607   9.192 -0.3941  0.7762  0.1947
  370MOL0     O49823   6.990   2.694   9.144  0.1393  0.2237  0.1961
  370MOL0     C49824   6.984   2.713   9.000  0.4204 -0.3697 -0.5329
  370MOL0     C49825   6.932   2.854   8.971 -0.1553  0.4464  0.4051
  370MOL0     C49826   6.796   2.887   9.033  0.5697 -0.0613 -0.2878
  370MOL0     C49827   6.749   3.028   8.982  0.3808  0.8001 -0.3719
  370MOL0     C49828   6.599   3.062   9.011  0.3056 -0.4603 -0.7886
  370MOL0     C49829   6.561   3.193   8.933  0.5482  0.3738 -0.2338
  370MOL0     C49830   6.419   3.258   8.978 -0.2081  0.1386 -0.5458
  370MOL0     C49831   6.428   3.322   9.120 -0.3371 -0.5693 -0.2276
  370MOL0     N49832   6.327   3.423   9.136  0.6203  0.0307  0.0381
  370MOL0     C49833   6.284   3.515   9.042  0.4255  1.0495  0.6369
  370MOL0     C49834   6.186   3.580   9.107 -0.0062  0.2105  0.1564
  370MOL0     C49835   6.109   3.700   9.051  0.7379  0.3956 -1.0494
  370MOL0     C49836   5.958   3.673   9.053 -0.4805 -0.2188 -0.3929
  370MOL0     C49837   5.895   3.703   9.193  1.1663 -0.2628 -1.2018
  370MOL0     C49838   5.740   3.724   9.192 -0.4769  0.6708 -0.0904
  370MOL0     O49839   5.706   3.769   9.317 -0.0490 -0.8252 -0.4226
  370MOL0     C49840   5.577   3.820   9.339 -0.8219 -1.2075  0.0279
  370MOL0     C49841   5.554   3.886   9.465 -0.2802 -0.2248  0.9441
  370MOL0     C49842   5.426   3.932   9.500  0.7083 -0.1489 -0.4544
  370MOL0     C49843   5.418   4.023   9.621  0.0563 -0.5718  0.3475
  370MOL0     C49844   5.309   3.883   9.431 -0.0419 -0.2832 -0.4673
  370MOL0     C49845   5.169   3.903   9.475 -0.3614  0.0663  0.3039
  370MOL0     O49846   5.143   3.958   9.594  0.3914 -0.1164 -0.2104
  370MOL0     C49847   5.009   3.990   9.631 -0.9771  0.1548 -0.3167
  370MOL0     C49848   4.971   4.111   9.683 -1.0128  0.3364 -0.8102
  370MOL0     C49849   4.837   4.135   9.720 -0.0881 -0.3596 -0.6325
  370MOL0     C49850   4.738   4.036   9.730  0.7637  0.8171 -0.4797
  370MOL0     O49851   4.606   4.046   9.768  0.3881 -0.7392  0.4346
  370MOL0     C49852   4.584   4.010   9.910 -0.6738  0.5791  1.0668
  370MOL0     C49853   4.434   4.027   9.954  0.5908 -0.0715  0.3113
  370MOL0     C49854   4.352   3.908   9.909 -0.2269  0.1773 -0.0731
  370MOL0     C49855   4.207   3.956   9.907  0.3661  0.0419  0.2749
  370MOL0     C49856   4.164   3.972  10.055  0.3090  0.2695  0.8466
  370MOL0     C49857   4.128   3.852  10.146 -1.7214 -0.4378  0.1166
  370MOL0     C49858   4.078   3.896  10.287  0.0116  0.2297  0.0617
  370MOL0     C49859   3.977   4.012  10.287 -0.4586  0.6305  0.4723
  370MOL0    Cl49860   3.906   4.022  10.449  0.0180 -0.2835  0.0727
  370MOL0     C49861   4.778   3.913   9.678 -0.3057  0.6491 -0.0918
  370MOL0     C49862   4.911   3.896   9.622  0.3122 -0.4831 -0.0571
  370MOL0     O49863   5.082   3.864   9.404 -0.0107  0.4054 -0.1345
  370MOL0     C49864   5.338   3.811   9.312 -0.1551 -0.0568  0.7235
  370MOL0     C49865   5.469   3.779   9.268 -0.2462  0.2416 -1.3312
  370MOL0     N49866   6.173   3.521   9.231  0.2433  1.0710 -0.4853
  370MOL0     N49867   6.255   3.430   9.249 -0.0990 -0.0116 -0.1447
  370MOL0     C49868   7.123   2.493   9.119 -0.3746 -0.4098 -0.8120
  370MOL0     C49869   7.228   2.414   9.160 -0.2285  0.0106  0.5300
  370MOL0     C49870   7.635   2.310   9.367 -0.4535  0.1351 -0.0971
  370MOL0     C49871   7.720   2.297   9.480  0.9505 -0.1348 -0.5624
  370MOL0     C49872   7.810   2.193   9.491  0.6264 -0.8428  0.0276
  370MOL0     C49873   7.827   2.095   9.393  0.8404 -0.0361  0.0843
  370MOL0     O49874   7.925   1.999   9.398 -0.6741  0.2103  0.0149
  370MOL0     C49875   8.021   2.008   9.504 -0.3291  0.3693 -0.4705
  370MOL0     C49876   8.116   1.883   9.525 -0.0037 -0.0445 -0.0233
  370MOL0     C49877   8.216   1.875   9.404 -0.1627 -0.0977 -0.7136
  370MOL0     C49878   8.328   1.780   9.439 -1.5815 -0.2613 -0.2044
  370MOL0     C49879   8.445   1.856   9.491  0.6998 -0.5115 -0.0283
  370MOL0     C49880   8.536   1.923   9.533 -0.2888 -0.7762  0.0504
  370MOL0     C49881   7.746   2.108   9.273  0.1723  0.4183 -0.5257
  370MOL0     C49882   7.663   2.219   9.262  0.8032  0.2686 -0.5977
  370MOL0     H49883   7.315   2.587   9.435 -0.0124 -2.1995  0.5663
  370MOL0     H49884   7.118   2.732   9.361 -1.0860  0.5316 -1.5204
  370MOL0     H49885   7.076   2.714   8.941 -0.5527  4.0439 -2.3867
  370MOL0     H49886   6.916   2.637   8.961  2.1407 -1.6120 -1.2224
  370MOL0     H49887   7.008   2.926   9.003  0.3923  0.5618 -1.0719
  370MOL0     H49888   6.917   2.851   8.863 -2.7360  0.6716  0.7015
  370MOL0     H49889   6.718   2.813   9.014 -0.3673  1.1192 -1.2057
  370MOL0     H49890   6.801   2.880   9.142 -0.7708  0.7701 -0.1618
  370MOL0     H49891   6.818   3.100   9.029  0.6310 -0.1687  0.8217
  370MOL0     H49892   6.760   3.032   8.874  2.0031  1.8420 -0.2079
  370MOL0     H49893   6.542   2.976   8.974  2.2512 -1.5270 -1.4120
  370MOL0     H49894   6.572   3.077   9.116 -1.3895  0.0497 -1.2661
  370MOL0     H49895   6.648   3.259   8.925  0.3972  0.4585 -1.3040
  370MOL0     H49896   6.546   3.163   8.829 -2.2443  1.3419 -0.2167
  370MOL0     H49897   6.403   3.329   8.897  1.4409 -0.7232 -1.6717
  370MOL0     H49898   6.334   3.189   8.976 -1.1796  1.3030 -0.8277
  370MOL0     H49899   6.523   3.369   9.145  0.6920 -1.7548 -1.7241
  370MOL0     H49900   6.412   3.241   9.191 -1.6159  1.2650  1.7188
  370MOL0     H49901   6.325   3.527   8.942 -0.8228 -0.4021 -0.0938
  370MOL0     H49902   6.130   3.785   9.117  0.7045 -0.0059 -0.5156
  370MOL0     H49903   6.131   3.730   8.948 -1.9805  0.7666 -1.5854
  370MOL0     H49904   5.933   3.569   9.030 -0.4694 -0.0982 -0.9542
  370MOL0     H49905   5.897   3.727   8.981  1.2348 -0.1151 -1.8435
  370MOL0     H49906   5.946   3.781   9.249 -2.0149  0.5867  0.8149
  370MOL0     H49907   5.912   3.623   9.266  1.7306  2.5478  1.9512
  370MOL0     H49908   5.695   3.629   9.164 -1.6157  1.6866 -1.8712
  370MOL0     H49909   5.719   3.795   9.112  0.3266  0.8461 -0.1563
  370MOL0     H49910   5.640   3.910   9.525 -0.1826 -2.9017  2.0315
  370MOL0     H49911   5.391   3.972   9.714 -0.4232  2.7252  2.1341
  370MOL0     H49912   5.517   4.069   9.630 -0.5512  0.9583 -0.4191
  370MOL0     H49913   5.343   4.097   9.592 -1.7689 -1.7982  1.7503
  370MOL0     H49914   5.047   4.187   9.697 -3.1430  2.8905 -2.1317
  370MOL0     H49915   4.821   4.236   9.757 -2.3304 -0.1172 -2.0761
  370MOL0     H49916   4.618   3.908   9.930  0.4624  0.6800 -0.2158
  370MOL0     H49917   4.642   4.074   9.978 -0.4159 -0.5982  2.0035
  370MOL0     H49918   4.434   4.038  10.063 -2.1461  2.5986  0.1755
  370MOL0     H49919   4.385   4.117   9.917 -2.2927 -0.8567  1.8539
  370MOL0     H49920   4.371   3.821   9.972  0.7478  0.5998  0.2374
  370MOL0     H49921   4.382   3.876   9.809  2.2867 -1.4412  1.1005
  370MOL0     H49922   4.201   4.054   9.859  1.7036  0.6486  1.2662
  370MOL0     H49923   4.149   3.879   9.855  3.1639 -0.4022 -2.5179
  370MOL0     H49924   4.069   4.025  10.049  0.7876  0.9667 -1.6222
  370MOL0     H49925   4.230   4.039  10.112  0.5636  1.7693 -1.1060
  370MOL0     H49926   4.038   3.814  10.098 -2.4852  0.9096  0.4363
  370MOL0     H49927   4.214   3.785  10.150  1.6517  3.3823 -1.0235
  370MOL0     H49928   4.163   3.935  10.344 -1.8125  1.6780  1.9354
  370MOL0     H49929   4.030   3.807  10.329 -1.3172 -0.2556 -2.2949
  370MOL0     H49930   3.906   3.999  10.205  0.2380  0.3057 -0.0896
  370MOL0     H49931   4.034   4.102  10.262 -1.6952  1.6608  1.2288
  370MOL0     H49932   4.717   3.824   9.671  1.4308 -0.5688 -0.3529
  370MOL0     H49933   4.930   3.801   9.574  0.6363 -0.5841  0.2621
  370MOL0     H49934   5.249   3.774   9.263  0.0641 -0.1985  0.4281
  370MOL0     H49935   5.479   3.724   9.175 -2.9996  0.4648 -1.8608
  370MOL0     H49936   7.074   2.449   9.032  1.5913 -1.3782 -1.4841
  370MOL0     H49937   7.263   2.333   9.096  1.3608 -0.0169  1.3806
  370MOL0     H49938   7.718   2.370   9.561 -3.3716  0.0238 -0.5526
  370MOL0     H49939   7.874   2.203   9.578 -1.0512  0.3603  1.1691
  370MOL0     H49940   8.089   2.091   9.483 -0.2458  0.3822 -0.1492
  370MOL0     H49941   7.980   2.027   9.603  2.8915 -2.2667  1.5706
  370MOL0     H49942   8.054   1.794   9.530 -0.7536  0.4639 -0.1442
  370MOL0     H49943   8.171   1.897   9.619  2.3276  1.1413 -1.4525
  370MOL0     H49944   8.251   1.966   9.355 -2.0898 -0.5264 -3.0411
  370MOL0     H49945   8.156   1.833   9.323 -0.3339  0.6367 -0.9777
  370MOL0     H49946   8.360   1.723   9.350 -1.5901 -0.2429 -0.2189
  370MOL0     H49947   8.299   1.722   9.527  2.1092  2.7717  3.4105
  370MOL0     H49948   8.622   1.978   9.563 -1.7958  0.1445  3.1002
  370MOL0     H49949   7.761   2.046   9.186  2.7243  0.8147 -0.4332
  370MOL0     H49950   7.609   2.237   9.169 -1.8836 -2.3605  0.2921
  371MOL0     O49951   7.183   0.980   9.791  0.2264 -0.2117 -0.3998
  371MOL0     C49952   7.214   1.053   9.888  0.9320  0.1201  0.2813
  371MOL0     O49953   7.134   1.100   9.998  0.3317  0.6956  1.0058
  371MOL0     C49954   7.007   1.046   9.988  0.0524  0.1477 -0.5794
  371MOL0     C49955   6.961   0.979  10.106  0.4751 -0.4061  0.1131
  371MOL0     C49956   6.831   0.927  10.116 -0.1049  0.1906 -0.7031
  371MOL0     C49957   6.743   0.929  10.004 -0.1941 -0.9319 -0.2582
  371MOL0     O49958   6.624   0.868  10.006  0.0661  0.1628 -0.4621
  371MOL0     C49959   6.511   0.958   9.984 -0.8973 -0.6612  0.0946
  371MOL0     C49960   6.381   0.883   9.957 -0.5083 -0.2135  0.0983
  371MOL0     C49961   6.261   0.985   9.939 -0.4055 -0.0676  0.8696
  371MOL0     C49962   6.134   0.902   9.923  0.2598  0.2730 -0.3503
  371MOL0     C49963   6.002   0.980   9.946 -0.1340  0.1421 -0.3260
  371MOL0     C49964   5.976   1.101   9.873 -0.5797  0.5497 -0.2660
  371MOL0     C49965   5.829   1.125   9.850 -0.6343  0.0842 -0.2112
  371MOL0     C49966   5.765   1.139   9.991  0.7239  0.0034  0.4585
  371MOL0     N49967   5.637   1.208   9.976 -0.6939  0.4445  0.8199
  371MOL0     C49968   5.617   1.342   9.965 -0.6004 -0.3596 -0.7697
  371MOL0     C49969   5.482   1.366   9.944 -0.2863 -0.2431 -0.3366
  371MOL0     C49970   5.406   1.489   9.945 -0.0582  0.6341 -0.5199
  371MOL0     C49971   5.291   1.492  10.048 -0.0297 -0.4669 -0.8695
  371MOL0     C49972   5.233   1.635  10.058 -0.1095  1.0277  0.3066
  371MOL0     C49973   5.099   1.642  10.131  0.8816  0.3178  0.2966
  371MOL0     O49974   4.996   1.608  10.036 -0.6032 -0.1902  0.1119
  371MOL0     C49975   4.884   1.545  10.097 -0.1603  0.6508 -0.6119
  371MOL0     C49976   4.764   1.611  10.092 -0.1585 -0.8556 -0.0257
  371MOL0     C49977   4.645   1.561  10.138  0.3846 -0.7223 -0.4278
  371MOL0     C49978   4.524   1.654  10.103 -0.7169 -0.7314  0.1206
  371MOL0     C49979   4.643   1.431  10.192 -1.3186 -1.1232 -0.0856
  371MOL0     C49980   4.514   1.367  10.215 -0.7684  0.3247 -0.4871
  371MOL0     O49981   4.514   1.262  10.318 -0.1435 -0.4502  0.0706
  371MOL0     C49982   4.414   1.176  10.306  0.5941 -0.1903 -0.1096
  371MOL0     C49983   4.284   1.216  10.342 -0.4341  0.7858 -0.3420
  371MOL0     C49984   4.177   1.128  10.340 -0.2347  0.0508  0.0856
  371MOL0     C49985   4.197   0.993  10.309 -0.3514  0.8969  0.3431
  371MOL0     O49986   4.085   0.911  10.310 -0.8500  0.5374  0.3373
  371MOL0     C49987   4.094   0.769  10.297  0.1447  0.2822  0.5189
  371MOL0     C49988   3.959   0.707  10.339  0.8259  0.6746  1.0744
  371MOL0     C49989   3.837   0.794  10.287 -1.2622  0.8958 -0.6838
  371MOL0     C49990   3.705   0.709  10.279 -0.3653  0.1248 -0.9285
  371MOL0     C49991   3.586   0.786  10.234  0.2722 -0.4394  0.7305
  371MOL0     C49992   3.590   0.848  10.087  0.2806 -0.0077 -0.5250
  371MOL0     C49993   3.649   0.764   9.981 -0.3240 -0.0175  1.4780
  371MOL0     C49994   3.596   0.825   9.849 -0.4757 -0.7548  0.1693
  371MOL0    Cl49995   3.655   0.743   9.708 -0.2468  0.0133  0.0114
  371MOL0     C49996   4.325   0.944  10.289 -0.4492  0.2620  0.1861
  371MOL0     C49997   4.432   1.034  10.290 -0.7186 -0.1341 -0.0193
  371MOL0     O49998   4.423   1.399  10.143  0.4607 -0.2932 -0.2400
  371MOL0     C49999   4.762   1.352  10.193 -0.1038  0.5851  0.3868
  371MOL0     C50000   4.885   1.410  10.147 -0.2181 -0.4086  0.2164
  371MOL0     N50001   5.423   1.243   9.932  0.5362  0.6188 -1.1835
  371MOL0     N50002   5.513   1.153   9.946  0.2283  1.1775  0.6208
  371MOL0     C50003   6.792   1.002   9.890  1.2720 -0.6633  0.5125
  371MOL0     C50004   6.914   1.064   9.887 -0.9349 -0.2745 -1.0219
  371MOL0     C50005   7.358   1.075   9.896 -0.2362 -0.8236  0.0898
  371MOL0     C50006   7.402   1.171   9.992  0.0911 -0.0311 -0.0108
  371MOL0     C50007   7.540   1.191  10.017 -1.0602  0.1932  0.4262
  371MOL0     C50008   7.634   1.143   9.919 -0.1470  0.1196 -0.9699
  371MOL0     O50009   7.771   1.176   9.916  0.3186 -0.0685 -0.4884
  371MOL0     C50010   7.830   1.244  10.028 -0.4258  0.0282  0.4228
  371MOL0     C50011   7.856   1.144  10.139  0.6152  0.0185  0.0719
  371MOL0     C50012   7.922   1.199  10.263 -0.2217  0.0978  0.6146
  371MOL0     C50013   7.819   1.270  10.354 -0.2854  0.5034  0.2547
  371MOL0     C50014   7.857   1.281  10.498  0.4759  0.7512 -0.0826
  371MOL0     C50015   7.892   1.265  10.610 -0.3084  0.1597  1.2852
  371MOL0     C50016   7.585   1.063   9.817 -0.0431 -0.3978 -0.1045
  371MOL0     C50017   7.452   1.025   9.809  0.3267 -0.1979 -0.5313
  371MOL0     H50018   7.029   0.971  10.190 -0.0077  1.9893  0.8085
  371MOL0     H50019   6.795   0.886  10.210  1.2902  1.2392  0.3341
  371MOL0     H50020   6.505   1.016  10.076 -1.2677  0.2760 -0.5060
  371MOL0     H50021   6.520   1.016   9.891 -1.3130  2.6398  1.9627
  371MOL0     H50022   6.401   0.827   9.865  1.9608  1.6667 -0.6137
  371MOL0     H50023   6.366   0.815  10.041  0.6047  0.2510  0.6965
  371MOL0     H50024   6.245   1.055  10.021  2.6956  1.5295  0.2518
  371MOL0     H50025   6.285   1.045   9.851 -0.8555 -1.7746 -0.4673
  371MOL0     H50026   6.130   0.871   9.818 -1.3616  1.8230 -0.7950
  371MOL0     H50027   6.140   0.809   9.981  1.0881  0.5393  0.0023
  371MOL0     H50028   5.922   0.908   9.923 -0.7180  0.8207 -0.4483
  371MOL0     H50029   6.002   1.009  10.051 -0.4092  1.9656 -0.7942
  371MOL0     H50030   6.017   1.187   9.926 -0.3005  1.6821 -2.2036
  371MOL0     H50031   6.022   1.095   9.774 -2.0186 -2.7372 -0.8710
  371MOL0     H50032   5.818   1.215   9.788  2.0626 -0.3104 -1.3985
  371MOL0     H50033   5.784   1.044   9.792 -2.6693  2.6546 -2.5113
  371MOL0     H50034   5.823   1.186  10.071 -1.2619 -0.7233  2.4243
  371MOL0     H50035   5.739   1.037  10.020 -1.3707 -0.4550 -2.5742
  371MOL0     H50036   5.703   1.407   9.980 -0.7059 -0.5366  0.6567
  371MOL0     H50037   5.462   1.578   9.975  1.2362  0.3272 -1.8998
  371MOL0     H50038   5.367   1.506   9.844  0.3036  1.5373 -0.5164
  371MOL0     H50039   5.326   1.451  10.143  0.3657  0.2415 -0.6970
  371MOL0     H50040   5.211   1.427  10.012  0.5353 -1.2914 -0.6606
  371MOL0     H50041   5.218   1.665   9.954 -1.4918  0.8568  0.4356
  371MOL0     H50042   5.306   1.702  10.104  0.7731  0.3879 -0.1413
  371MOL0     H50043   5.085   1.746  10.162 -1.7563 -0.3052  1.4365
  371MOL0     H50044   5.110   1.579  10.220 -1.4455 -0.8486 -0.1791
  371MOL0     H50045   4.761   1.715  10.060 -0.5697 -0.3873  1.4318
  371MOL0     H50046   4.555   1.758  10.101 -0.4603 -0.8200 -1.0820
  371MOL0     H50047   4.477   1.621  10.010  1.7761 -2.3698 -0.6309
  371MOL0     H50048   4.444   1.656  10.178 -2.3052 -0.1488 -1.5275
  371MOL0     H50049   4.264   1.319  10.370  1.8726  0.6366  2.2164
  371MOL0     H50050   4.075   1.163  10.356 -0.1624  0.3788 -0.1695
  371MOL0     H50051   4.107   0.745  10.191 -0.9150 -1.1964  0.6883
  371MOL0     H50052   4.179   0.739  10.360 -0.5890 -0.8478  1.0138
  371MOL0     H50053   3.936   0.619  10.279 -3.5352  1.9270  0.5747
  371MOL0     H50054   3.934   0.685  10.443  1.2718 -1.9169  0.7162
  371MOL0     H50055   3.867   0.849  10.197  1.0523  1.7489  0.5359
  371MOL0     H50056   3.824   0.874  10.360 -2.2443  1.9919 -2.0019
  371MOL0     H50057   3.719   0.631  10.203  1.0718  0.2699 -0.8308
  371MOL0     H50058   3.676   0.673  10.378 -2.1863  1.2841 -0.9835
  371MOL0     H50059   3.583   0.872  10.301  3.5582  1.1643 -0.9608
  371MOL0     H50060   3.492   0.732  10.249 -0.5896  1.2794  1.8338
  371MOL0     H50061   3.489   0.873  10.054  1.0360  0.8532 -2.3482
  371MOL0     H50062   3.638   0.945  10.101 -0.6216  0.4697 -0.6302
  371MOL0     H50063   3.622   0.658   9.989 -2.1163  0.1594 -1.1621
  371MOL0     H50064   3.758   0.772   9.982 -0.3526  1.0279 -0.2236
  371MOL0     H50065   3.629   0.929   9.841 -4.0800  0.6217  1.2638
  371MOL0     H50066   3.489   0.808   9.840 -0.0267 -2.8557 -2.5039
  371MOL0     H50067   4.339   0.840  10.261  1.4703  1.1087 -2.4670
  371MOL0     H50068   4.533   0.994  10.280  0.3332  2.4145 -0.3988
  371MOL0     H50069   4.755   1.252  10.233 -0.3906  1.3456  2.3675
  371MOL0     H50070   4.967   1.340  10.132 -0.0344 -1.0033  3.2532
  371MOL0     H50071   6.723   1.029   9.810  0.3775 -2.6024  0.5540
  371MOL0     H50072   6.953   1.118   9.801  2.1034  0.8843  0.9034
  371MOL0     H50073   7.330   1.214  10.061 -1.2583  0.4307 -1.6234
  371MOL0     H50074   7.563   1.254  10.102 -4.1841  2.1341 -0.0006
  371MOL0     H50075   7.930   1.265   9.991 -0.9328  0.4176 -0.7936
  371MOL0     H50076   7.771   1.332  10.058 -1.4414 -1.2041  2.2476
  371MOL0     H50077   7.921   1.066  10.098  0.5339 -1.4289  2.4683
  371MOL0     H50078   7.760   1.100  10.169 -0.6769  2.8442  0.3352
  371MOL0     H50079   8.007   1.262  10.235 -0.1824 -0.3968 -0.4159
  371MOL0     H50080   7.949   1.110  10.321  0.6386 -0.6217 -0.8256
  371MOL0     H50081   7.724   1.218  10.346 -1.2271  1.7511  2.2567
  371MOL0     H50082   7.805   1.370  10.313  0.7338  0.5764  0.0478
  371MOL0     H50083   7.919   1.254  10.713  0.7177  0.8318  1.1047
  371MOL0     H50084   7.650   1.023   9.739 -1.5647 -0.6238 -1.3113
  371MOL0     H50085   7.422   0.948   9.739 -3.0336 -1.0348  1.5961
  372MOL0     O50086   5.871   7.844  11.122  0.2764 -0.3350  0.2031
  372MOL0     C50087   5.903   7.819  11.003 -0.1192 -0.2900 -0.0290
  372MOL0     O50088   5.861   7.707  10.925 -0.5646 -0.0259 -0.0541
  372MOL0     C50089   5.773   7.626  10.988  0.9317 -0.0500  1.1313
  372MOL0     C50090   5.635   7.652  10.971 -0.1969 -0.1317 -0.1582
  372MOL0     C50091   5.538   7.560  11.017  0.4272  0.7362 -0.6054
  372MOL0     C50092   5.576   7.442  11.085 -0.5535 -0.7322  0.3365
  372MOL0     O50093   5.476   7.372  11.135  0.2272 -0.2459 -0.8586
  372MOL0     C50094   5.499   7.232  11.164 -0.5017 -0.3018 -0.2468
  372MOL0     C50095   5.354   7.173  11.141 -1.4013  0.4082  0.1531
  372MOL0     C50096   5.276   7.188  11.267  0.2488 -0.5174  0.4559
  372MOL0     C50097   5.126   7.143  11.246 -0.3869 -0.0667  0.6115
  372MOL0     C50098   5.021   7.248  11.221  0.1196 -0.1301 -0.1819
  372MOL0     C50099   4.876   7.197  11.216 -0.5684 -0.5797  0.2377
  372MOL0     C50100   4.769   7.297  11.177 -0.3209 -0.5832  0.1952
  372MOL0     C50101   4.624   7.249  11.208 -0.8173 -1.2072 -0.1837
  372MOL0     N50102   4.527   7.355  11.199  0.4143 -0.7873  0.3133
  372MOL0     C50103   4.460   7.413  11.301  0.0972 -1.4519 -0.3095
  372MOL0     C50104   4.376   7.503  11.250  0.2160 -0.6787 -0.0163
  372MOL0     C50105   4.317   7.628  11.324 -0.7077 -0.6677  0.7461
  372MOL0     C50106   4.169   7.632  11.331  0.1090  0.1646 -0.6862
  372MOL0     C50107   4.087   7.608  11.201  0.6945  1.1762  0.4936
  372MOL0     C50108   4.120   7.684  11.069 -0.0151  0.7067  0.1000
  372MOL0     O50109   4.002   7.744  11.018 -0.2924 -0.2991 -0.2371
  372MOL0     C50110   3.887   7.679  10.979 -0.5720  1.3496  0.8878
  372MOL0     C50111   3.878   7.543  10.976  0.1489  0.2505  0.5479
  372MOL0     C50112   3.762   7.475  10.950  0.3419 -0.7013 -0.1934
  372MOL0     C50113   3.775   7.320  10.941 -0.4991 -0.1413 -0.1732
  372MOL0     C50114   3.646   7.549  10.927  0.0501 -0.2143  0.4234
  372MOL0     C50115   3.509   7.496  10.892  0.7887 -0.7286  0.0347
  372MOL0     O50116   3.411   7.576  10.832 -0.1847  0.5259  0.3202
  372MOL0     C50117   3.278   7.541  10.818 -1.2029  0.1820 -0.6254
  372MOL0     C50118   3.188   7.643  10.777  0.2670  0.2506 -0.4216
  372MOL0     C50119   3.054   7.623  10.767  0.6549  0.2834 -0.0520
  372MOL0     C50120   2.995   7.505  10.802  0.9958  0.2950 -0.4945
  372MOL0     O50121   2.858   7.501  10.802 -0.0226 -0.6475  0.3439
  372MOL0     C50122   2.791   7.375  10.787 -0.3965  0.2956  0.4947
  372MOL0     C50123   2.637   7.394  10.774  0.1419 -0.9724  0.0870
  372MOL0     C50124   2.563   7.283  10.714  0.2406 -0.1826 -0.1668
  372MOL0     C50125   2.510   7.180  10.819  0.2531  0.0249  0.4106
  372MOL0     C50126   2.441   7.069  10.748 -0.6396 -0.0168 -0.2369
  372MOL0     C50127   2.421   6.941  10.826  0.0416  0.1812  0.4473
  372MOL0     C50128   2.371   6.826  10.730  0.9100 -0.5143 -0.2875
  372MOL0     C50129   2.347   6.699  10.812 -0.7649 -0.0756  0.6483
  372MOL0    Cl50130   2.199   6.722  10.913  0.0624  0.0967  0.0437
  372MOL0     C50131   3.083   7.397  10.831 -0.2810 -0.6505  0.1828
  372MOL0     C50132   3.223   7.415  10.839  0.5452  1.3936 -0.1728
  372MOL0     O50133   3.494   7.385  10.931  0.9878  0.3945 -0.0723
  372MOL0     C50134   3.650   7.691  10.930  0.3040 -0.8281  0.2989
  372MOL0     C50135   3.774   7.762  10.964  0.1143 -0.6572  0.1119
  372MOL0     N50136   4.378   7.481  11.109  0.3227  0.0105 -1.1031
  372MOL0     N50137   4.479   7.411  11.082  0.3167  0.5260 -0.5662
  372MOL0     C50138   5.713   7.416  11.108  0.2094 -0.3933 -0.1612
  372MOL0     C50139   5.805   7.511  11.051 -0.0661 -0.9506 -0.1014
  372MOL0     C50140   6.003   7.909  10.940 -0.4823 -0.0641  0.0069
  372MOL0     C50141   6.052   8.024  11.011 -0.9893  0.2313  0.3412
  372MOL0     C50142   6.171   8.089  10.969  0.1793  0.0760  1.2960
  372MOL0     C50143   6.226   8.061  10.840 -0.6452 -0.0321  0.9175
  372MOL0     O50144   6.336   8.133  10.789 -0.2315  0.1299  0.2058
  372MOL0     C50145   6.367   8.125  10.646 -0.7598 -0.0284  1.2267
  372MOL0     C50146   6.489   8.215  10.610  0.5678  0.0560 -0.1700
  372MOL0     C50147   6.457   8.356  10.572 -0.4682 -0.0318  0.1068
  372MOL0     C50148   6.578   8.438  10.552 -0.0334  0.1927 -0.1525
  372MOL0     C50149   6.682   8.388  10.463 -0.3244  0.3473  0.1334
  372MOL0     C50150   6.773   8.335  10.396  0.6880 -0.6856  0.2778
  372MOL0     C50151   6.175   7.957  10.771  0.0855 -0.2255 -0.1005
  372MOL0     C50152   6.069   7.876  10.822  0.2559  0.0924  0.0230
  372MOL0     H50153   5.607   7.728  10.900  1.0758 -0.7476 -1.3820
  372MOL0     H50154   5.433   7.565  10.992  0.2020  0.8101  0.3321
  372MOL0     H50155   5.574   7.191  11.095 -0.7378  1.5732 -1.6916
  372MOL0     H50156   5.535   7.213  11.266 -0.8468 -0.0960 -0.0854
  372MOL0     H50157   5.302   7.205  11.050 -2.6522 -2.6469 -0.3278
  372MOL0     H50158   5.371   7.066  11.129 -0.7531  0.2200  2.2875
  372MOL0     H50159   5.324   7.118  11.336  3.1061  1.7389  0.9312
  372MOL0     H50160   5.281   7.291  11.303  0.5424 -1.3922  3.1174
  372MOL0     H50161   5.117   7.073  11.162 -0.3000  1.1054 -0.3992
  372MOL0     H50162   5.105   7.100  11.344 -4.2796  0.6485  0.2391
  372MOL0     H50163   5.020   7.311  11.311 -0.1642 -1.5010  0.8128
  372MOL0     H50164   5.043   7.291  11.123 -1.2182  1.1278  0.0294
  372MOL0     H50165   4.881   7.125  11.134  4.6473  1.5953 -1.7669
  372MOL0     H50166   4.864   7.149  11.313  2.6380 -1.8194  0.1342
  372MOL0     H50167   4.782   7.373  11.255 -2.3620 -1.1752  1.1874
  372MOL0     H50168   4.788   7.339  11.078  0.4961 -1.2373  0.0628
  372MOL0     H50169   4.622   7.193  11.302  2.5468  1.3818  1.6888
  372MOL0     H50170   4.597   7.175  11.133 -3.4307 -0.2577 -0.2671
  372MOL0     H50171   4.459   7.398  11.408  1.4894 -0.0557 -0.0604
  372MOL0     H50172   4.370   7.649  11.417 -0.3310 -2.5871  1.0128
  372MOL0     H50173   4.342   7.713  11.260  0.0655  1.2816  3.4610
  372MOL0     H50174   4.136   7.718  11.390 -0.7172  0.1564 -1.1146
  372MOL0     H50175   4.147   7.540  11.386 -1.9693  0.8209 -0.3334
  372MOL0     H50176   3.981   7.618  11.227  0.7071  0.8445  0.6782
  372MOL0     H50177   4.095   7.500  11.182 -1.1761  0.7082  2.0571
  372MOL0     H50178   4.170   7.620  10.996 -0.3814  0.1696  0.3141
  372MOL0     H50179   4.184   7.769  11.096 -2.1707  2.8065 -1.0187
  372MOL0     H50180   3.975   7.496  10.988  1.5452  2.3816 -1.5796
  372MOL0     H50181   3.756   7.282  11.042 -0.8564 -1.0941 -0.5786
  372MOL0     H50182   3.699   7.279  10.873 -0.4607  2.6335 -2.0355
  372MOL0     H50183   3.878   7.298  10.910 -0.6663  0.3320 -1.1030
  372MOL0     H50184   3.230   7.742  10.761 -0.8980  0.8483  0.1066
  372MOL0     H50185   2.984   7.697  10.730 -0.1339 -2.1793 -4.1721
  372MOL0     H50186   2.815   7.326  10.692 -0.8580  0.8196  0.0962
  372MOL0     H50187   2.823   7.313  10.871 -1.7490  2.4569  2.7455
  372MOL0     H50188   2.590   7.419  10.870  0.1366  2.1558 -0.6093
  372MOL0     H50189   2.612   7.481  10.712 -0.9184  0.1339  1.9406
  372MOL0     H50190   2.628   7.234  10.640 -0.4921 -0.7122 -0.4662
  372MOL0     H50191   2.468   7.318  10.674  0.2499  0.7880  0.6422
  372MOL0     H50192   2.599   7.139  10.868  0.4024  1.1877  1.1387
  372MOL0     H50193   2.443   7.230  10.889 -0.3665  0.4304 -0.4516
  372MOL0     H50194   2.508   7.031  10.671  1.5444  0.4460  1.3316
  372MOL0     H50195   2.353   7.112  10.700 -1.9804  1.1893  2.9640
  372MOL0     H50196   2.512   6.919  10.882  0.0534 -0.4658  0.1826
  372MOL0     H50197   2.356   6.956  10.913 -1.3192 -2.1222 -0.0915
  372MOL0     H50198   2.453   6.815  10.659  1.3647  1.7027 -0.1621
  372MOL0     H50199   2.280   6.842  10.672  1.9907  0.8768 -1.6831
  372MOL0     H50200   2.440   6.677  10.866 -0.4448 -3.6998 -1.0700
  372MOL0     H50201   2.333   6.613  10.747 -1.3580  0.1602  0.4581
  372MOL0     H50202   3.037   7.302  10.855 -0.1216  0.2301  4.9435
  372MOL0     H50203   3.282   7.326  10.860 -1.8902 -0.5100 -0.9810
  372MOL0     H50204   3.565   7.756  10.913 -0.5119 -1.4902  1.6560
  372MOL0     H50205   3.793   7.868  10.980 -1.8548 -0.1482 -0.6701
  372MOL0     H50206   5.761   7.331  11.155 -0.4087 -0.2638  0.7353
  372MOL0     H50207   5.912   7.504  11.068 -0.0853  1.0077  1.0597
  372MOL0     H50208   5.992   8.062  11.093 -3.2894 -0.7000 -0.7910
  372MOL0     H50209   6.223   8.169  11.022  2.9190 -0.6232 -0.1650
  372MOL0     H50210   6.400   8.023  10.626 -1.2812  0.2347 -1.3427
  372MOL0     H50211   6.275   8.143  10.590 -0.5131 -0.6961  0.6049
  372MOL0     H50212   6.540   8.180  10.520 -0.8391 -2.1824 -0.1867
  372MOL0     H50213   6.566   8.210  10.687  0.9687  1.3030 -0.4629
  372MOL0     H50214   6.391   8.401  10.648 -2.5019 -1.4508 -0.7312
  372MOL0     H50215   6.400   8.355  10.479  0.5779 -0.0932 -0.5415
  372MOL0     H50216   6.623   8.454  10.650 -3.5880 -0.7413  1.8017
  372MOL0     H50217   6.546   8.540  10.525  1.7718  1.6022  2.5160
  372MOL0     H50218   6.853   8.301  10.334  2.1721  3.1052 -0.1459
  372MOL0     H50219   6.214   7.940  10.671  2.0626 -1.7177  0.8575
  372MOL0     H50220   6.030   7.793  10.764  2.7099 -1.5508  0.5914
  373MOL0     O50221   2.620   5.688   0.669 -0.4309 -0.3569  0.1859
  373MOL0     C50222   2.643   5.579   0.623  0.2788  0.2017  0.2998
  373MOL0     O50223   2.559   5.468   0.628 -0.0012  0.2781  0.2660
  373MOL0     C50224   2.434   5.480   0.688 -0.0331 -0.5449 -0.6704
  373MOL0     C50225   2.346   5.593   0.700  0.4665 -0.4063  0.2843
  373MOL0     C50226   2.217   5.577   0.758  0.3418  0.3484  0.0261
  373MOL0     C50227   2.173   5.449   0.800 -0.4638  0.9475 -1.0949
  373MOL0     O50228   2.047   5.426   0.854  0.2906 -0.5370  0.0584
  373MOL0     C50229   2.002   5.530   0.946  0.5792  0.1641  0.2515
  373MOL0     C50230   1.890   5.479   1.038  0.6148  0.3855 -0.8781
  373MOL0     C50231   1.756   5.442   0.974  0.3479  0.1644  0.4793
  373MOL0     C50232   1.663   5.401   1.087 -0.7658 -0.2126  0.0296
  373MOL0     C50233   1.521   5.398   1.036  0.7664  0.1680 -0.1846
  373MOL0     C50234   1.428   5.380   1.154  0.6073 -0.3358  0.5444
  373MOL0     C50235   1.283   5.379   1.117 -0.0630  0.0745 -0.2925
  373MOL0     C50236   1.181   5.407   1.232  0.2527  0.0906 -0.6518
  373MOL0     N50237   1.198   5.335   1.359  0.1969  0.2740 -0.1681
  373MOL0     C50238   1.257   5.210   1.360 -0.3801 -1.0665 -0.2714
  373MOL0     C50239   1.269   5.187   1.493  0.5331  0.0427 -0.2476
  373MOL0     C50240   1.327   5.061   1.552 -0.4116  0.1050 -0.5267
  373MOL0     C50241   1.217   4.945   1.564 -0.2351 -0.1939  0.3707
  373MOL0     C50242   1.178   4.878   1.430 -0.2174 -0.5700  0.2029
  373MOL0     C50243   1.252   4.757   1.386  0.7228  0.2460  0.0843
  373MOL0     O50244   1.369   4.805   1.322 -0.6276 -0.6910  0.0560
  373MOL0     C50245   1.491   4.748   1.353 -0.2083  0.4340  0.0028
  373MOL0     C50246   1.509   4.613   1.384 -0.1689  0.1093 -0.0399
  373MOL0     C50247   1.638   4.568   1.424 -0.1885 -0.2006  0.4188
  373MOL0     C50248   1.636   4.420   1.473 -0.4897  0.1337 -0.2227
  373MOL0     C50249   1.752   4.661   1.418  0.5330  0.6206  0.0618
  373MOL0     C50250   1.890   4.610   1.421 -0.4173 -0.0865  0.5167
  373MOL0     O50251   1.981   4.703   1.469  0.1685  0.2767 -0.6131
  373MOL0     C50252   2.115   4.667   1.474  0.2748  0.2252 -0.5142
  373MOL0     C50253   2.147   4.585   1.583 -0.7815 -0.2738  0.2257
  373MOL0     C50254   2.288   4.557   1.603  0.4434  0.3703  0.2797
  373MOL0     C50255   2.384   4.622   1.529 -0.2473 -0.4949 -0.0645
  373MOL0     O50256   2.520   4.588   1.549 -0.3775  0.0978  0.3703
  373MOL0     C50257   2.585   4.697   1.618  0.6145 -0.1666 -0.2966
  373MOL0     C50258   2.580   4.657   1.754 -0.5340 -1.0143  0.2404
  373MOL0     C50259   2.654   4.753   1.850 -0.2297  0.3538 -0.5673
  373MOL0     C50260   2.630   4.713   1.998 -0.3762 -0.3815  0.1136
  373MOL0     C50261   2.701   4.819   2.086 -0.4770  0.4359  1.6564
  373MOL0     C50262   2.731   4.760   2.221  0.7350 -0.2094  0.0582
  373MOL0     C50263   2.812   4.848   2.328 -0.0727 -0.6350 -0.2587
  373MOL0     C50264   2.956   4.878   2.279 -0.4422  0.1279 -0.2584
  373MOL0    Cl50265   3.042   4.719   2.253  0.3439 -0.5331  0.5284
  373MOL0     C50266   2.351   4.717   1.432 -0.1078 -0.0152  0.5155
  373MOL0     C50267   2.213   4.737   1.405  0.2427 -0.4074  0.4468
  373MOL0     O50268   1.919   4.492   1.402  0.0543  0.3235  0.0310
  373MOL0     C50269   1.732   4.795   1.377  0.1619  0.3263  0.1995
  373MOL0     C50270   1.602   4.836   1.362 -0.0751 -0.7600 -0.2088
  373MOL0     N50271   1.200   5.287   1.556 -0.2030  0.3844 -0.5430
  373MOL0     N50272   1.164   5.386   1.480 -0.2578  0.0037  0.2333
  373MOL0     C50273   2.265   5.341   0.783  0.1494  0.3852  0.6054
  373MOL0     C50274   2.393   5.356   0.728  0.6502 -0.3084  0.6541
  373MOL0     C50275   2.778   5.542   0.591  0.3582  0.6092 -0.0521
  373MOL0     C50276   2.830   5.417   0.620 -0.2089 -0.4443 -0.5209
  373MOL0     C50277   2.961   5.399   0.613 -0.1115 -0.3009  0.3948
  373MOL0     C50278   3.049   5.499   0.569 -0.8315  0.9377 -0.5941
  373MOL0     O50279   3.184   5.489   0.569 -0.2532 -0.6447 -0.0269
  373MOL0     C50280   3.252   5.410   0.669 -0.2922 -0.6795  0.0510
  373MOL0     C50281   3.397   5.385   0.624  0.3377 -0.1272 -1.3173
  373MOL0     C50282   3.396   5.279   0.506  0.1088  0.0045  0.5733
  373MOL0     C50283   3.383   5.133   0.558  0.0972 -0.1081  0.8666
  373MOL0     C50284   3.497   5.092   0.644 -0.9084 -0.3162  0.2150
  373MOL0     C50285   3.595   5.076   0.704 -1.0876 -0.3149 -1.1562
  373MOL0     C50286   2.999   5.623   0.526 -0.3716 -0.5980 -0.1334
  373MOL0     C50287   2.864   5.646   0.547  0.2605 -0.0670  0.1036
  373MOL0     H50288   2.381   5.691   0.666 -0.4525 -0.6383 -1.4551
  373MOL0     H50289   2.143   5.656   0.772 -0.0363  0.1977 -1.0187
  373MOL0     H50290   2.083   5.567   1.010  1.7017 -1.2783 -0.2881
  373MOL0     H50291   1.966   5.616   0.888 -0.2877  2.1383  3.4364
  373MOL0     H50292   1.928   5.387   1.084 -0.9972 -0.0341 -0.3375
  373MOL0     H50293   1.874   5.555   1.115  0.6540  0.1518 -0.6378
  373MOL0     H50294   1.719   5.525   0.912  3.6436 -0.1550 -2.2105
  373MOL0     H50295   1.778   5.363   0.902 -0.0898  0.5530 -0.0938
  373MOL0     H50296   1.699   5.307   1.130  0.4451 -1.3337 -3.1346
  373MOL0     H50297   1.671   5.484   1.157  0.0027  0.4685 -0.8423
  373MOL0     H50298   1.502   5.485   0.974  0.0269  0.0061 -0.1876
  373MOL0     H50299   1.509   5.306   0.978  0.5759 -1.6478  2.5291
  373MOL0     H50300   1.458   5.287   1.203  0.9465 -1.6711 -1.9936
  373MOL0     H50301   1.442   5.459   1.229 -3.1841 -0.8562  2.0292
  373MOL0     H50302   1.266   5.462   1.047  1.6390  0.9754  0.2833
  373MOL0     H50303   1.267   5.282   1.069  0.2510 -1.7204  2.9853
  373MOL0     H50304   1.078   5.393   1.198  0.5079 -0.0048 -1.4049
  373MOL0     H50305   1.198   5.511   1.259 -0.2652 -0.4207  1.8819
  373MOL0     H50306   1.300   5.159   1.275  0.5951  2.0251 -1.7895
  373MOL0     H50307   1.418   5.038   1.495  0.2676  2.9708 -0.7560
  373MOL0     H50308   1.369   5.081   1.651 -0.7595 -0.6889 -0.2118
  373MOL0     H50309   1.125   4.983   1.610 -0.1523  0.1161  0.2823
  373MOL0     H50310   1.256   4.869   1.633  1.2019  0.4941  0.3516
  373MOL0     H50311   1.164   4.960   1.359  0.1242 -2.1502 -1.8051
  373MOL0     H50312   1.076   4.839   1.443 -1.2244  0.7336 -2.8083
  373MOL0     H50313   1.195   4.703   1.310  1.1008  1.1578 -0.8697
  373MOL0     H50314   1.271   4.694   1.474 -5.5219 -2.7695 -0.2299
  373MOL0     H50315   1.426   4.543   1.379  0.8119 -1.0696 -0.5576
  373MOL0     H50316   1.705   4.403   1.556  2.3417  2.0259 -1.9835
  373MOL0     H50317   1.540   4.384   1.511  0.4766 -0.6434  1.6126
  373MOL0     H50318   1.685   4.356   1.399  0.8690  0.1691  0.6217
  373MOL0     H50319   2.076   4.547   1.656  0.3284  2.3582  2.8862
  373MOL0     H50320   2.313   4.474   1.668 -0.4370 -1.2968 -1.4041
  373MOL0     H50321   2.690   4.708   1.589  1.6545 -4.5438  0.9913
  373MOL0     H50322   2.545   4.798   1.607 -0.4767 -0.4215  1.0668
  373MOL0     H50323   2.474   4.664   1.779 -0.7193  0.1737 -0.7864
  373MOL0     H50324   2.633   4.563   1.774  2.9111  0.4042 -1.4334
  373MOL0     H50325   2.616   4.854   1.834  1.6146  1.2266  0.3610
  373MOL0     H50326   2.762   4.753   1.834  0.6492 -3.0126  3.6699
  373MOL0     H50327   2.524   4.713   2.025 -0.3671 -0.0972  0.1491
  373MOL0     H50328   2.678   4.616   2.014  1.6254  0.6383  0.6141
  373MOL0     H50329   2.635   4.906   2.092 -0.4511  0.5312  0.7276
  373MOL0     H50330   2.798   4.846   2.045 -1.1427 -1.1790 -1.2046
  373MOL0     H50331   2.640   4.726   2.270  1.1607 -0.7935  0.4514
  373MOL0     H50332   2.781   4.664   2.208 -2.2574 -2.3556  2.8778
  373MOL0     H50333   2.823   4.791   2.421  0.5490  0.3104  0.2576
  373MOL0     H50334   2.759   4.939   2.358  1.7731  0.0426  1.0861
  373MOL0     H50335   3.008   4.916   2.367 -0.4968 -1.9958  0.7529
  373MOL0     H50336   2.961   4.944   2.192  1.3866 -0.1985 -0.4325
  373MOL0     H50337   2.427   4.777   1.382  0.7676 -0.5426  1.2017
  373MOL0     H50338   2.171   4.809   1.336  0.1526 -2.6360 -1.9640
  373MOL0     H50339   1.812   4.869   1.371 -0.7080  1.2590 -0.1109
  373MOL0     H50340   1.578   4.937   1.327 -0.9152 -1.3915 -1.5477
  373MOL0     H50341   2.232   5.240   0.805 -3.0286  1.2195  0.1584
  373MOL0     H50342   2.460   5.271   0.728  0.2630 -0.6510  2.0369
  373MOL0     H50343   2.770   5.345   0.675  1.6243 -2.7362 -1.3817
  373MOL0     H50344   3.004   5.306   0.650  2.8442  1.0819  0.7177
  373MOL0     H50345   3.242   5.463   0.765 -1.1825  0.2683 -0.5434
  373MOL0     H50346   3.205   5.314   0.694  0.9388 -1.9860 -2.3937
  373MOL0     H50347   3.462   5.338   0.699 -1.5311 -1.7518 -0.6121
  373MOL0     H50348   3.442   5.478   0.590 -0.6142  0.3298 -1.3620
  373MOL0     H50349   3.492   5.271   0.454  0.7813 -0.3733  1.8169
  373MOL0     H50350   3.318   5.299   0.432 -1.3515  1.3449  2.3532
  373MOL0     H50351   3.377   5.069   0.470 -2.2871  1.0676  0.0696
  373MOL0     H50352   3.290   5.126   0.615  0.7885  0.2454  2.0789
  373MOL0     H50353   3.678   5.053   0.767 -0.5802  0.8463 -1.3815
  373MOL0     H50354   3.053   5.715   0.503 -0.9768 -0.3676 -0.6533
  373MOL0     H50355   2.817   5.744   0.539 -1.9113 -1.1100 -0.8470
  374MOL0     O50356   7.418   1.748  10.843  0.0870  0.1397  0.1086
  374MOL0     C50357   7.519   1.815  10.863 -0.0622  0.1714  0.7832
  374MOL0     O50358   7.517   1.938  10.912 -0.2693 -0.2861  0.4566
  374MOL0     C50359   7.407   2.019  10.941 -0.9283  0.3130 -0.1317
  374MOL0     C50360   7.317   2.050  10.837 -0.9146  0.8434  0.3931
  374MOL0     C50361   7.218   2.136  10.860  0.7897  0.0294  0.0081
  374MOL0     C50362   7.213   2.207  10.986 -0.3370  0.1282  0.5036
  374MOL0     O50363   7.124   2.310  11.013  0.3573 -0.4775  0.1198
  374MOL0     C50364   7.036   2.347  10.903 -0.3631  0.0471 -0.9308
  374MOL0     C50365   6.941   2.456  10.937 -0.1902  0.2891  0.0186
  374MOL0     C50366   6.830   2.413  11.029  0.5951  0.1089 -0.1530
  374MOL0     C50367   6.772   2.538  11.097 -1.1442  0.3788 -0.0002
  374MOL0     C50368   6.683   2.481  11.213 -0.5577  1.0376  0.1610
  374MOL0     C50369   6.576   2.578  11.269  0.2521 -0.2759  0.0922
  374MOL0     C50370   6.450   2.567  11.180 -0.3785 -0.2188  0.2848
  374MOL0     C50371   6.332   2.658  11.215  0.8610  0.1345  0.1667
  374MOL0     N50372   6.201   2.620  11.150  0.2444 -0.4672 -0.3214
  374MOL0     C50373   6.143   2.498  11.173 -0.0245  0.8761 -0.0300
  374MOL0     C50374   6.016   2.509  11.135 -0.7523 -0.2524 -0.2519
  374MOL0     C50375   5.924   2.396  11.136  0.1966  0.4702 -1.0721
  374MOL0     C50376   5.803   2.418  11.238  0.0612  0.8651  0.7166
  374MOL0     C50377   5.674   2.391  11.153  0.7347  0.3463 -0.0867
  374MOL0     C50378   5.642   2.243  11.131 -0.1129 -0.3248 -0.0662
  374MOL0     O50379   5.531   2.218  11.043  0.1087  0.3292  0.0304
  374MOL0     C50380   5.411   2.202  11.096  0.3474 -0.2296  0.0825
  374MOL0     C50381   5.367   2.224  11.232  0.4879 -0.0609 -0.4095
  374MOL0     C50382   5.232   2.214  11.272 -0.1439 -0.0733 -0.2406
  374MOL0     C50383   5.203   2.236  11.421 -0.2891  0.3257 -0.2385
  374MOL0     C50384   5.135   2.181  11.174  0.2472 -0.3257  0.7149
  374MOL0     C50385   4.986   2.166  11.198 -0.2540  0.4570  0.5938
  374MOL0     O50386   4.908   2.093  11.099 -0.4332 -0.0792  0.0826
  374MOL0     C50387   4.780   2.070  11.135  0.2300 -0.7827  0.7330
  374MOL0     C50388   4.672   2.119  11.057 -1.4650 -0.0731 -0.3775
  374MOL0     C50389   4.539   2.092  11.090  0.0060 -0.5149  0.0688
  374MOL0     C50390   4.510   2.010  11.196  0.3853  0.1749  0.6356
  374MOL0     O50391   4.380   1.972  11.199 -0.0606 -0.0137 -0.4195
  374MOL0     C50392   4.343   1.932  11.326 -0.3555  0.4299  0.3210
  374MOL0     C50393   4.193   1.951  11.339  0.0832 -0.0777 -0.5970
  374MOL0     C50394   4.116   1.872  11.233  0.4261 -0.2823  0.8847
  374MOL0     C50395   3.964   1.866  11.277  0.6713 -0.0205 -0.2946
  374MOL0     C50396   3.883   1.774  11.198  0.6827  0.2179  0.1385
  374MOL0     C50397   3.739   1.815  11.185  0.4491  0.1759  0.4947
  374MOL0     C50398   3.669   1.832  11.320 -0.4918 -0.0394  0.4289
  374MOL0     C50399   3.520   1.856  11.292 -0.2947  0.6499 -0.9644
  374MOL0    Cl50400   3.478   2.019  11.228  0.2860  0.3492  0.0138
  374MOL0     C50401   4.615   1.959  11.280 -0.7743  0.0914  0.6053
  374MOL0     C50402   4.748   1.996  11.253  0.2053 -0.0139 -0.2665
  374MOL0     O50403   4.949   2.207  11.307  0.1019 -0.1066 -0.5901
  374MOL0     C50404   5.176   2.153  11.040 -0.0638 -0.7347  0.5590
  374MOL0     C50405   5.308   2.174  11.009  0.5349 -0.8689 -0.1697
  374MOL0     N50406   5.997   2.638  11.083  0.2173  0.2255 -0.3250
  374MOL0     N50407   6.105   2.702  11.097 -0.1052  0.2526 -0.2997
  374MOL0     C50408   7.302   2.174  11.087 -0.9148 -0.0078  0.8006
  374MOL0     C50409   7.397   2.074  11.064  0.2199  0.4334  0.2920
  374MOL0     C50410   7.644   1.761  10.810  0.0280 -0.3785 -0.0023
  374MOL0     C50411   7.633   1.664  10.702  0.2801 -0.5576 -0.0102
  374MOL0     C50412   7.747   1.604  10.642  0.3718  0.6277  0.5656
  374MOL0     C50413   7.874   1.631  10.696 -0.8994  0.0525  0.7941
  374MOL0     O50414   7.982   1.570  10.634 -1.0952  0.5013  0.3157
  374MOL0     C50415   8.117   1.589  10.676 -0.5955 -0.4478  0.6534
  374MOL0     C50416   8.202   1.498  10.598  0.2012 -0.0021  0.7425
  374MOL0     C50417   8.232   1.375  10.673  0.2928 -0.3308 -0.2936
  374MOL0     C50418   8.269   1.251  10.589 -0.3415 -0.2726 -0.0192
  374MOL0     C50419   8.409   1.251  10.539 -0.1185  0.2527  0.0054
  374MOL0     C50420   8.518   1.239  10.482  0.1471 -0.1512 -0.1172
  374MOL0     C50421   7.886   1.728  10.796  0.2383  0.0979  0.8449
  374MOL0     C50422   7.776   1.794  10.851 -1.2961  0.7537 -1.0075
  374MOL0     H50423   7.333   1.998  10.742  1.0259 -0.7555  1.5057
  374MOL0     H50424   7.148   2.164  10.782 -1.5495  0.8094  2.2577
  374MOL0     H50425   7.094   2.375  10.815  2.0586 -0.1929  0.5223
  374MOL0     H50426   6.982   2.257  10.869 -0.3590 -1.9952  3.7297
  374MOL0     H50427   7.000   2.541  10.973  1.0912 -1.0545  1.2142
  374MOL0     H50428   6.899   2.491  10.842 -1.3697  0.5847  0.6221
  374MOL0     H50429   6.750   2.369  10.969 -0.5776  1.0532  0.6790
  374MOL0     H50430   6.861   2.344  11.109  0.4696 -2.0123 -1.8226
  374MOL0     H50431   6.852   2.594  11.148 -1.1261  0.3733 -0.0225
  374MOL0     H50432   6.722   2.598  11.020 -1.6198 -0.6806 -0.5412
  374MOL0     H50433   6.637   2.390  11.175 -0.8546  1.3014 -0.1126
  374MOL0     H50434   6.752   2.461  11.296  0.8464  2.9417 -0.4682
  374MOL0     H50435   6.559   2.558  11.375  0.4540  1.4941  0.4949
  374MOL0     H50436   6.616   2.679  11.255  1.2502 -0.5845  0.6563
  374MOL0     H50437   6.482   2.589  11.077  1.7766 -3.2596  0.1341
  374MOL0     H50438   6.426   2.460  11.184  0.0968 -0.2914  1.2649
  374MOL0     H50439   6.349   2.765  11.203 -1.8536  0.8350  1.6445
  374MOL0     H50440   6.309   2.643  11.321 -1.8329 -3.0990 -0.6739
  374MOL0     H50441   6.196   2.408  11.201  1.9081  1.8282 -0.4580
  374MOL0     H50442   5.887   2.371  11.036  0.3588 -0.2392 -0.9587
  374MOL0     H50443   5.979   2.307  11.166 -0.7673 -0.7242 -2.7062
  374MOL0     H50444   5.805   2.525  11.263  3.2419  0.9286  0.5771
  374MOL0     H50445   5.811   2.352  11.325 -3.0953 -0.5735  0.0312
  374MOL0     H50446   5.679   2.451  11.062  1.4152  0.0223 -0.2660
  374MOL0     H50447   5.594   2.425  11.219 -0.1098 -1.3426 -0.1820
  374MOL0     H50448   5.636   2.187  11.225 -0.4473  2.3831  1.6244
  374MOL0     H50449   5.731   2.200  11.083  1.0772  2.6751 -0.7766
  374MOL0     H50450   5.439   2.243  11.310 -1.2517  0.4792  1.1423
  374MOL0     H50451   5.138   2.161  11.467  3.3532 -1.9056  1.7970
  374MOL0     H50452   5.292   2.240  11.485  0.9738  1.2807 -1.9879
  374MOL0     H50453   5.159   2.334  11.435  0.5086  0.5374  1.0010
  374MOL0     H50454   4.703   2.182  10.974 -0.2085  2.2452  1.7099
  374MOL0     H50455   4.459   2.129  11.027  0.3558 -0.6596 -0.4654
  374MOL0     H50456   4.362   1.825  11.332  0.2066  0.5521  0.7544
  374MOL0     H50457   4.396   1.981  11.408  0.0856  2.4457 -1.0784
  374MOL0     H50458   4.167   1.913  11.439  0.2284 -1.6949 -1.1533
  374MOL0     H50459   4.165   2.057  11.338  0.0869 -0.0479  0.6700
  374MOL0     H50460   4.153   1.770  11.218 -3.0540 -1.4319 -0.9903
  374MOL0     H50461   4.132   1.925  11.139  1.4241  1.9696  2.2440
  374MOL0     H50462   3.958   1.836  11.381 -1.1312  0.5007 -0.2131
  374MOL0     H50463   3.920   1.966  11.268 -1.3270 -0.8850 -0.4647
  374MOL0     H50464   3.892   1.672  11.238  0.2846  0.5428  1.0957
  374MOL0     H50465   3.915   1.763  11.094 -3.4879 -2.5495 -1.1019
  374MOL0     H50466   3.729   1.906  11.126  1.9158 -1.2084 -2.0917
  374MOL0     H50467   3.679   1.733  11.142 -2.8837  2.2349  0.8706
  374MOL0     H50468   3.708   1.921  11.370  4.1925 -0.6262 -1.5606
  374MOL0     H50469   3.686   1.744  11.382  0.9432  0.5802  0.9649
  374MOL0     H50470   3.464   1.838  11.383 -0.6539 -0.0677 -1.3200
  374MOL0     H50471   3.496   1.781  11.215 -0.5918  0.6243 -0.8431
  374MOL0     H50472   4.597   1.888  11.360 -1.1036 -3.1702 -2.1554
  374MOL0     H50473   4.831   1.979  11.320 -0.9152  0.7971  1.3995
  374MOL0     H50474   5.100   2.138  10.965 -0.9646 -1.2372  1.5455
  374MOL0     H50475   5.328   2.185  10.903 -1.1870 -0.5337 -0.4932
  374MOL0     H50476   7.312   2.231  11.178  1.7953 -0.8099  1.0971
  374MOL0     H50477   7.461   2.039  11.144  0.4354  3.0075  1.3375
  374MOL0     H50478   7.531   1.652  10.668 -0.0922  1.5101  0.2068
  374MOL0     H50479   7.734   1.530  10.563  0.8475 -1.3341  2.2454
  374MOL0     H50480   8.152   1.692  10.673  1.5287 -1.0789  1.8209
  374MOL0     H50481   8.114   1.548  10.778 -3.0161 -1.4070  0.2716
  374MOL0     H50482   8.296   1.551  10.577  0.0260 -0.1183 -0.3905
  374MOL0     H50483   8.157   1.465  10.504 -1.0324 -0.2214  1.3906
  374MOL0     H50484   8.149   1.342  10.736  1.1032 -0.2569  0.8508
  374MOL0     H50485   8.316   1.391  10.742  1.9229 -0.4437 -2.1767
  374MOL0     H50486   8.199   1.233  10.507  1.9660  1.4202 -2.5347
  374MOL0     H50487   8.278   1.162  10.652  1.9777 -0.7504 -0.9125
  374MOL0     H50488   8.601   1.257  10.416 -0.8618 -1.7013 -1.9297
  374MOL0     H50489   7.979   1.752  10.848 -0.5028 -1.4725  3.0422
  374MOL0     H50490   7.793   1.866  10.931  2.4668 -2.8487  1.8858
  375MOL0     O50491   3.221  10.187   6.134  0.0701 -1.0090 -0.1556
  375MOL0     C50492   3.322  10.260   6.136 -0.7046  0.4700  0.1281
  375MOL0     O50493   3.322  10.396   6.137 -0.4592 -0.0087  0.4026
  375MOL0     C50494   3.203  10.465   6.136  0.0176 -0.5016 -0.7700
  375MOL0     C50495   3.176  10.543   6.021  1.1313 -0.3346 -0.0181
  375MOL0     C50496   3.063  10.621   6.003  0.3442 -0.0249 -0.2644
  375MOL0     C50497   2.978  10.638   6.115 -0.0169 -0.7152 -1.2530
  375MOL0     O50498   2.876  10.732   6.104 -0.1266  0.0108 -0.2870
  375MOL0     C50499   2.752  10.696   6.158  0.4558 -0.0598 -0.7414
  375MOL0     C50500   2.640  10.788   6.099  0.4792  1.0367 -0.3360
  375MOL0     C50501   2.510  10.733   6.155  0.0710  0.3043 -0.5610
  375MOL0     C50502   2.395  10.831   6.132 -0.9444 -0.8261 -0.5719
  375MOL0     C50503   2.261  10.776   6.188 -0.2785 -0.1402  0.6073
  375MOL0     C50504   2.146  10.869   6.156  0.6959  0.7751 -0.5449
  375MOL0     C50505   2.005  10.813   6.195  0.3112 -0.7297 -0.9116
  375MOL0     C50506   1.936  10.747   6.072  0.8306  1.1554  0.1372
  375MOL0     N50507   1.788  10.757   6.083  0.1528 -0.0635 -0.6533
  375MOL0     C50508   1.713  10.677   6.160 -1.2924  0.1420 -0.7783
  375MOL0     C50509   1.601  10.748   6.166 -0.5805  0.2000  0.5673
  375MOL0     C50510   1.485  10.711   6.244  0.2210 -0.1427  0.0056
  375MOL0     C50511   1.401  10.840   6.267  0.2000 -0.2995 -0.3889
  375MOL0     C50512   1.294  10.798   6.374 -0.2953 -0.2792  0.6536
  375MOL0     C50513   1.231  10.918   6.429 -0.1458 -0.0873 -0.0501
  375MOL0     O50514   1.149  10.987   6.336  0.8228 -0.9425  0.0565
  375MOL0     C50515   1.014  10.964   6.330 -0.0014 -0.0770 -0.7597
  375MOL0     C50516   0.953  11.037   6.230  0.2903  0.9203  0.4114
  375MOL0     C50517   0.819  11.029   6.209 -0.2672 -0.0675 -0.8023
  375MOL0     C50518   0.777  11.101   6.089  0.5289 -0.0540 -0.0416
  375MOL0     C50519   0.740  10.945   6.290  1.1323  0.5478  0.6891
  375MOL0     C50520   0.585  10.935   6.273  0.3021 -0.7237  0.4533
  375MOL0     O50521   0.513  10.853   6.366  0.8777 -0.6975  0.3196
  375MOL0     C50522   0.377  10.840   6.344 -0.0601  0.4455  0.1456
  375MOL0     C50523   0.340  10.714   6.307  0.7312  0.5685 -0.4825
  375MOL0     C50524   0.204  10.683   6.298 -1.3929 -0.7227  0.8599
  375MOL0     C50525   0.104  10.776   6.319 -0.3829 -0.5632 -0.8032
  375MOL0     O50526  -0.031  10.746   6.313  0.6797 -0.8267  0.3725
  375MOL0     C50527  -0.065  10.622   6.251  0.5520 -1.5505  0.3662
  375MOL0     C50528  -0.217  10.608   6.256  1.0865 -0.7105 -0.4219
  375MOL0     C50529  -0.265  10.623   6.398  0.0124 -0.6216 -0.2356
  375MOL0     C50530  -0.418  10.618   6.403 -0.5046  0.3163 -0.1013
  375MOL0     C50531  -0.473  10.601   6.545 -0.4982  0.4121 -0.4676
  375MOL0     C50532  -0.621  10.614   6.562  0.8559  0.4971 -0.2167
  375MOL0     C50533  -0.664  10.597   6.708  0.1459  0.7620  0.0946
  375MOL0     C50534  -0.817  10.585   6.724 -0.7821  1.0708 -0.2985
  375MOL0    Cl50535  -0.852  10.556   6.904  0.5322  0.2982  0.1944
  375MOL0     C50536   0.138  10.907   6.353 -0.2064 -0.2493  0.0957
  375MOL0     C50537   0.275  10.936   6.363 -0.1977  0.2967 -0.5880
  375MOL0     O50538   0.530  11.002   6.180  0.0803 -0.4315 -0.3058
  375MOL0     C50539   0.797  10.877   6.399  0.3424  0.2248 -0.2257
  375MOL0     C50540   0.937  10.880   6.414  0.1150  0.4952  0.3159
  375MOL0     N50541   1.602  10.850   6.081  0.2067 -0.3831  0.1082
  375MOL0     N50542   1.719  10.860   6.030 -0.2774 -0.0490 -0.5425
  375MOL0     C50543   3.003  10.564   6.232 -0.2290 -0.0595 -0.2159
  375MOL0     C50544   3.117  10.481   6.249  0.4019  0.0850  0.5087
  375MOL0     C50545   3.453  10.186   6.132 -0.3265 -0.2335  0.8688
  375MOL0     C50546   3.579  10.259   6.134 -0.7262 -0.3619  0.5838
  375MOL0     C50547   3.699  10.187   6.139  0.3682  0.6280  0.4111
  375MOL0     C50548   3.697  10.041   6.128 -0.6503  0.4377 -0.0464
  375MOL0     O50549   3.808   9.955   6.136  0.0032 -0.5628  0.9461
  375MOL0     C50550   3.937  10.003   6.168 -0.1044  0.2615  0.2482
  375MOL0     C50551   4.055   9.910   6.151  0.3360 -0.0861  0.4654
  375MOL0     C50552   4.059   9.859   5.996 -0.0593  0.0206  0.9878
  375MOL0     C50553   4.179   9.773   5.954 -0.8464  0.3804  0.2599
  375MOL0     C50554   4.306   9.839   5.985 -0.3323 -0.7321 -1.2471
  375MOL0     C50555   4.409   9.894   6.026 -0.4893 -0.2871  0.6759
  375MOL0     C50556   3.574   9.974   6.121  0.1893 -0.6557 -0.8153
  375MOL0     C50557   3.453  10.043   6.119  0.3675  0.0210 -0.0666
  375MOL0     H50558   3.248  10.550   5.940  0.6686 -1.3526 -0.5348
  375MOL0     H50559   3.051  10.680   5.913 -1.9075 -0.6565 -0.4487
  375MOL0     H50560   2.717  10.597   6.128  0.6184 -0.6038  0.7771
  375MOL0     H50561   2.751  10.692   6.267 -2.8175  0.0125 -0.6652
  375MOL0     H50562   2.660  10.891   6.129  0.8079  0.2632  2.4093
  375MOL0     H50563   2.650  10.789   5.990  3.5441  2.6470 -0.1552
  375MOL0     H50564   2.497  10.633   6.113  4.1057 -0.6030 -0.0820
  375MOL0     H50565   2.516  10.726   6.264 -1.8155 -0.5354 -0.4615
  375MOL0     H50566   2.413  10.926   6.183  2.3674 -1.5468 -0.2143
  375MOL0     H50567   2.380  10.858   6.027 -0.1834  2.2935  0.0097
  375MOL0     H50568   2.234  10.675   6.156 -0.1498 -0.2954  0.9814
  375MOL0     H50569   2.270  10.767   6.297  0.9856  2.3946  0.7969
  375MOL0     H50570   2.158  10.966   6.206  1.7281  0.7039 -0.6333
  375MOL0     H50571   2.152  10.898   6.051  1.7870  0.5304 -0.5680
  375MOL0     H50572   2.003  10.751   6.285 -2.5113  2.1467  1.2196
  375MOL0     H50573   1.960  10.907   6.227  3.2952 -0.0741  1.8773
  375MOL0     H50574   1.961  10.644   6.044  0.4648  1.3160 -0.8435
  375MOL0     H50575   1.963  10.808   5.984  0.5359  0.3290 -0.5374
  375MOL0     H50576   1.748  10.596   6.223 -0.0687  0.9984 -0.3223
  375MOL0     H50577   1.421  10.646   6.184  2.5304 -1.1189 -1.5477
  375MOL0     H50578   1.516  10.664   6.338 -1.5857  3.4516  2.6191
  375MOL0     H50579   1.366  10.866   6.166  0.6583 -1.2341 -0.8024
  375MOL0     H50580   1.467  10.914   6.313 -1.4263  1.6187 -0.9777
  375MOL0     H50581   1.342  10.738   6.452  2.3497 -0.3114 -0.8713
  375MOL0     H50582   1.216  10.730   6.339  0.2402 -3.0043  4.1646
  375MOL0     H50583   1.317  10.983   6.452  0.0378 -0.9413  1.8791
  375MOL0     H50584   1.178  10.894   6.522  1.4998  0.5656  1.1286
  375MOL0     H50585   1.023  11.101   6.178  2.4136  1.0857  3.1824
  375MOL0     H50586   0.709  11.179   6.122  1.2388  0.1868  0.8781
  375MOL0     H50587   0.858  11.155   6.039  0.9833 -1.2771 -0.6804
  375MOL0     H50588   0.729  11.031   6.019 -1.3231  0.5030  0.6093
  375MOL0     H50589   0.412  10.635   6.320 -1.7907 -1.8232 -0.0147
  375MOL0     H50590   0.169  10.581   6.281  1.6287 -1.7067 -0.1253
  375MOL0     H50591  -0.028  10.608   6.150  0.2967 -4.3222  0.5961
  375MOL0     H50592  -0.044  10.532   6.310  0.4497 -1.7054  0.1667
  375MOL0     H50593  -0.270  10.688   6.204 -0.9066 -1.6850 -0.0142
  375MOL0     H50594  -0.259  10.512   6.222  0.1985 -0.6132  0.3620
  375MOL0     H50595  -0.225  10.716   6.439 -1.2504  0.6253 -1.7184
  375MOL0     H50596  -0.231  10.540   6.461 -1.3101 -0.5388  0.6429
  375MOL0     H50597  -0.453  10.714   6.363  1.6962  2.2695  2.3462
  375MOL0     H50598  -0.459  10.539   6.339  1.9919 -1.7037  0.6032
  375MOL0     H50599  -0.426  10.676   6.610 -2.7051  1.6766 -0.2272
  375MOL0     H50600  -0.447  10.502   6.583 -1.5010 -0.0244 -0.8854
  375MOL0     H50601  -0.673  10.701   6.522  0.5829 -0.0382 -1.0554
  375MOL0     H50602  -0.650  10.524   6.505  0.6961  0.3390  0.1122
  375MOL0     H50603  -0.625  10.683   6.763 -1.9352  2.1559 -0.4982
  375MOL0     H50604  -0.618  10.501   6.734  0.9356  1.4252  1.2513
  375MOL0     H50605  -0.860  10.500   6.669  0.8376  0.3541 -0.5261
  375MOL0     H50606  -0.868  10.676   6.690 -1.2921  0.9316  0.0884
  375MOL0     H50607   0.064  10.984   6.369  1.0403  0.4340  3.4111
  375MOL0     H50608   0.305  11.035   6.398  1.1282 -0.3914  0.3267
  375MOL0     H50609   0.743  10.822   6.476  0.8262 -0.7804 -0.5809
  375MOL0     H50610   0.991  10.833   6.495 -0.6290  0.7397  0.9712
  375MOL0     H50611   2.934  10.569   6.316  1.0873 -3.3448  1.2462
  375MOL0     H50612   3.115  10.428   6.344 -2.8674  2.1516  1.7818
  375MOL0     H50613   3.591  10.366   6.135  1.9979 -0.5735 -0.2856
  375MOL0     H50614   3.794  10.237   6.124 -1.4753  3.9537 -1.3880
  375MOL0     H50615   3.953  10.094   6.110 -2.2236  0.2026 -0.4903
  375MOL0     H50616   3.936  10.038   6.271 -1.0391 -2.3803  1.2153
  375MOL0     H50617   4.042   9.824   6.217 -0.3951 -1.4828 -1.3982
  375MOL0     H50618   4.150   9.954   6.180  0.3010 -0.0301  0.4953
  375MOL0     H50619   4.059   9.945   5.928 -3.0026  0.1806  1.0474
  375MOL0     H50620   3.973   9.795   5.973 -1.2918  1.3181  1.8082
  375MOL0     H50621   4.178   9.740   5.850 -1.3794 -2.7220  1.1443
  375MOL0     H50622   4.184   9.684   6.018  1.0987 -0.9165 -1.5609
  375MOL0     H50623   4.499   9.927   6.074 -0.2932 -1.0191  0.8222
  375MOL0     H50624   3.568   9.866   6.112 -0.1395 -0.7972  0.7383
  375MOL0     H50625   3.357   9.994   6.110  0.9611 -1.6465  1.8863
  376MOL0     O50626  10.731   7.655   5.763 -0.0245 -0.0374 -0.1476
  376MOL0     C50627  10.827   7.615   5.695  0.5421  0.4830  0.1010
  376MOL0     O50628  10.820   7.573   5.570  0.3895 -0.0070  0.1277
  376MOL0     C50629  10.721   7.595   5.481 -0.3560 -0.0286 -0.5757
  376MOL0     C50630  10.681   7.497   5.381 -0.0847 -0.1981 -0.0640
  376MOL0     C50631  10.568   7.517   5.295 -0.0814  0.6091 -0.7662
  376MOL0     C50632  10.505   7.640   5.292  0.1326  0.4419 -0.1247
  376MOL0     O50633  10.391   7.650   5.213 -0.2359 -0.6849 -0.0816
  376MOL0     C50634  10.370   7.783   5.163 -0.5943 -0.0511  0.8512
  376MOL0     C50635  10.286   7.770   5.029 -0.2063 -0.2701  0.3283
  376MOL0     C50636  10.145   7.727   5.049  0.8533 -0.0351  0.3874
  376MOL0     C50637  10.096   7.663   4.923 -0.5242 -0.1709 -1.0413
  376MOL0     C50638   9.946   7.656   4.915  0.0158  0.6802 -0.1826
  376MOL0     C50639   9.883   7.560   5.025  0.1247 -0.1400  0.3421
  376MOL0     C50640   9.894   7.409   4.985 -0.0408  1.1124  0.2897
  376MOL0     C50641   9.815   7.378   4.857 -0.3787 -1.1718 -0.4785
  376MOL0     N50642   9.675   7.421   4.864  0.1124 -0.8103  0.2808
  376MOL0     C50643   9.575   7.345   4.920  1.0842  0.4534  0.5291
  376MOL0     C50644   9.454   7.407   4.882  0.5199 -0.3321 -0.1377
  376MOL0     C50645   9.307   7.394   4.921 -0.1400  0.2909  0.3776
  376MOL0     C50646   9.225   7.375   4.799 -0.4572 -0.1532 -0.0598
  376MOL0     C50647   9.074   7.360   4.816 -0.9651  0.5041  0.1046
  376MOL0     C50648   9.000   7.482   4.761  0.8977  0.3724 -0.2351
  376MOL0     O50649   8.857   7.457   4.780  0.2018  0.4097 -0.7065
  376MOL0     C50650   8.766   7.553   4.727  0.5077  0.3743  0.1906
  376MOL0     C50651   8.627   7.552   4.760  0.2366 -0.8613 -0.6831
  376MOL0     C50652   8.547   7.668   4.739  0.6737  0.9505 -0.5679
  376MOL0     C50653   8.411   7.670   4.809  0.2495 -0.7633  0.2338
  376MOL0     C50654   8.596   7.775   4.656  0.0792 -0.0356  0.1247
  376MOL0     C50655   8.508   7.892   4.607  0.0608  1.5143  1.1081
  376MOL0     O50656   8.495   7.898   4.469  0.0743  0.2955  0.2258
  376MOL0     C50657   8.431   8.002   4.411  0.0064  0.5347 -0.4123
  376MOL0     C50658   8.355   7.975   4.295  0.2555 -0.3027  0.0244
  376MOL0     C50659   8.268   8.081   4.233 -0.0554  0.6187 -0.0922
  376MOL0     C50660   8.266   8.209   4.297  0.2981 -0.0977  0.1138
  376MOL0     O50661   8.201   8.311   4.243 -0.1343 -0.6527 -0.0713
  376MOL0     C50662   8.056   8.294   4.218 -0.5982 -0.1409 -0.2403
  376MOL0     C50663   7.957   8.317   4.334  0.4262 -0.3079  0.2088
  376MOL0     C50664   7.816   8.352   4.288  0.4013 -0.0792  0.1685
  376MOL0     C50665   7.746   8.243   4.203 -0.3527  0.7866 -0.8923
  376MOL0     C50666   7.613   8.294   4.135 -0.7356  0.3112 -0.0565
  376MOL0     C50667   7.532   8.178   4.087  0.4431  0.1244 -0.5797
  376MOL0     C50668   7.426   8.232   3.981 -0.0447 -0.4322 -0.3821
  376MOL0     C50669   7.330   8.128   3.943  0.2827  0.2367 -0.0959
  376MOL0    Cl50670   7.406   8.020   3.819  0.5801 -0.3705 -0.0767
  376MOL0     C50671   8.341   8.237   4.407  0.0474  0.8737 -0.1035
  376MOL0     C50672   8.414   8.135   4.462 -0.0735  0.2876  0.4326
  376MOL0     O50673   8.457   7.963   4.688 -0.3465 -0.0521 -0.7552
  376MOL0     C50674   8.726   7.764   4.602 -0.2477 -0.2302  0.1676
  376MOL0     C50675   8.813   7.657   4.642  0.7853 -0.0920  0.2398
  376MOL0     N50676   9.494   7.531   4.821  0.1163  0.3438 -0.1204
  376MOL0     N50677   9.621   7.534   4.811 -0.7239  0.4007 -0.0061
  376MOL0     C50678  10.537   7.739   5.389  0.3660  0.5970 -0.2689
  376MOL0     C50679  10.649   7.715   5.474 -0.5634 -0.8900  0.6973
  376MOL0     C50680  10.963   7.607   5.756  0.2817  0.4193 -0.4589
  376MOL0     C50681  11.064   7.528   5.697  0.7811 -0.0956  0.1520
  376MOL0     C50682  11.183   7.499   5.758  0.5164  0.3772 -0.3347
  376MOL0     C50683  11.209   7.551   5.883 -1.1687 -0.1863 -0.2298
  376MOL0     O50684  11.334   7.507   5.938 -0.2476  0.4248  0.1516
  376MOL0     C50685  11.403   7.612   6.013  0.9447  0.1610  0.5092
  376MOL0     C50686  11.541   7.556   6.045 -0.0127 -0.4722 -0.2869
  376MOL0     C50687  11.528   7.422   6.125 -0.2577 -1.2224 -0.0933
  376MOL0     C50688  11.648   7.359   6.185  0.1197 -0.4555  0.0856
  376MOL0     C50689  11.687   7.455   6.287  0.4434 -0.6257  0.2806
  376MOL0     C50690  11.728   7.524   6.379  0.9358 -0.4630 -0.4470
  376MOL0     C50691  11.118   7.643   5.942 -1.4693 -0.2221  0.0654
  376MOL0     C50692  10.990   7.660   5.891 -0.1182 -0.2290 -0.0557
  376MOL0     H50693  10.742   7.407   5.372  0.0263 -0.0645 -0.6878
  376MOL0     H50694  10.526   7.437   5.235 -1.8637 -0.7337  2.0234
  376MOL0     H50695  10.318   7.841   5.239 -1.9171 -1.7740  1.3232
  376MOL0     H50696  10.470   7.815   5.131 -0.8907 -1.4858 -1.8357
  376MOL0     H50697  10.284   7.866   4.978 -2.6333  0.4467  1.6421
  376MOL0     H50698  10.337   7.709   4.954 -2.7856  1.7469 -3.3666
  376MOL0     H50699  10.144   7.653   5.129  0.1204  0.0315  0.4481
  376MOL0     H50700  10.075   7.806   5.078 -1.8012 -2.6364  1.5907
  376MOL0     H50701  10.136   7.726   4.844 -1.5841  4.1411  1.5385
  376MOL0     H50702  10.134   7.562   4.905  1.0389 -0.3596  2.4293
  376MOL0     H50703   9.909   7.759   4.924  0.3578  0.7811  0.0780
  376MOL0     H50704   9.922   7.626   4.812 -0.3242  0.3704 -0.0153
  376MOL0     H50705   9.944   7.569   5.116  1.3396 -1.2616 -0.3142
  376MOL0     H50706   9.779   7.591   5.030 -0.2307 -1.2730  0.4291
  376MOL0     H50707   9.998   7.377   4.969 -0.7404 -1.4323  0.4562
  376MOL0     H50708   9.857   7.351   5.070  0.2761 -1.8915 -1.4836
  376MOL0     H50709   9.818   7.273   4.826 -5.2364 -1.3871 -0.8843
  376MOL0     H50710   9.866   7.421   4.770  2.7317 -2.7764  0.3792
  376MOL0     H50711   9.582   7.248   4.968 -1.6688  1.0029  2.2547
  376MOL0     H50712   9.306   7.305   4.984 -2.4294  1.4165  2.1110
  376MOL0     H50713   9.274   7.481   4.979 -1.0624  0.9094 -1.0077
  376MOL0     H50714   9.263   7.280   4.760  2.9904  0.9814  0.2499
  376MOL0     H50715   9.246   7.456   4.728  4.1770 -0.8317  0.2725
  376MOL0     H50716   9.047   7.342   4.921  1.2806 -0.9007  0.5094
  376MOL0     H50717   9.041   7.270   4.763 -0.8498  1.2339 -1.2404
  376MOL0     H50718   9.009   7.477   4.653 -2.1117 -0.5295 -0.5341
  376MOL0     H50719   9.031   7.574   4.812  0.3601  0.9630 -0.9493
  376MOL0     H50720   8.607   7.467   4.823  1.1733  0.4197  1.4564
  376MOL0     H50721   8.335   7.708   4.740  2.0085  1.6632 -0.5280
  376MOL0     H50722   8.394   7.571   4.850  2.4804 -1.1351  0.3749
  376MOL0     H50723   8.414   7.741   4.893  3.1728 -1.5348  0.9111
  376MOL0     H50724   8.348   7.874   4.256 -1.2557  0.3038 -1.3714
  376MOL0     H50725   8.229   8.055   4.136  0.3291 -0.1430 -0.0506
  376MOL0     H50726   8.034   8.368   4.140  2.3629  1.5767  0.3839
  376MOL0     H50727   8.039   8.197   4.169  3.8349 -1.0244 -0.4209
  376MOL0     H50728   7.954   8.235   4.406  1.9710 -0.3722  0.2497
  376MOL0     H50729   7.995   8.401   4.394 -2.3144  0.5962  0.7956
  376MOL0     H50730   7.824   8.444   4.229 -0.5801  0.7358  1.2636
  376MOL0     H50731   7.756   8.384   4.374  0.5502 -0.4388  0.4088
  376MOL0     H50732   7.811   8.206   4.123  1.4162  1.1233  0.3214
  376MOL0     H50733   7.716   8.166   4.274 -2.1435  1.8508 -0.4304
  376MOL0     H50734   7.647   8.363   4.057 -1.3279 -0.5094 -1.0765
  376MOL0     H50735   7.551   8.356   4.200 -0.2298  0.7195  0.0407
  376MOL0     H50736   7.600   8.102   4.050  0.3668 -1.7032  2.6238
  376MOL0     H50737   7.488   8.120   4.169  0.6092  1.5430  0.5704
  376MOL0     H50738   7.477   8.280   3.897  0.3624  0.7783  0.5250
  376MOL0     H50739   7.364   8.310   4.026 -1.3584 -0.3995 -2.1541
  376MOL0     H50740   7.246   8.175   3.891  1.4202  1.7514 -0.6284
  376MOL0     H50741   7.285   8.072   4.026 -1.1175  2.5623  0.8214
  376MOL0     H50742   8.320   8.333   4.454 -1.2876 -0.5805  2.4942
  376MOL0     H50743   8.473   8.161   4.550  0.3193 -2.8303  1.2069
  376MOL0     H50744   8.773   7.844   4.545 -0.4548  0.7197  1.2819
  376MOL0     H50745   8.912   7.660   4.598 -0.0114 -1.5441 -1.8278
  376MOL0     H50746  10.488   7.836   5.382 -2.1853 -0.4059  1.8089
  376MOL0     H50747  10.675   7.798   5.539  0.2079  1.4129 -2.2888
  376MOL0     H50748  11.035   7.477   5.606 -1.3412 -0.6831  1.0883
  376MOL0     H50749  11.249   7.428   5.710  0.0060  1.2394 -2.4179
  376MOL0     H50750  11.420   7.700   5.951  1.9360 -0.2507  0.1913
  376MOL0     H50751  11.343   7.641   6.100 -0.9508  2.5499 -1.4288
  376MOL0     H50752  11.580   7.630   6.115  0.2370 -0.1949 -0.7155
  376MOL0     H50753  11.605   7.546   5.957 -0.8013  2.1823 -1.2709
  376MOL0     H50754  11.474   7.360   6.053 -1.7231  0.2857 -0.3571
  376MOL0     H50755  11.463   7.435   6.212 -2.3031 -2.9714 -1.2803
  376MOL0     H50756  11.728   7.355   6.110  0.6117 -1.2232  0.6369
  376MOL0     H50757  11.624   7.257   6.216 -2.6362  0.4912  1.3895
  376MOL0     H50758  11.777   7.575   6.460 -0.7223 -0.4944  0.6243
  376MOL0     H50759  11.141   7.681   6.041 -1.7357  0.4824 -0.1394
  376MOL0     H50760  10.913   7.714   5.946 -2.4770 -1.1527 -2.2563
  377MOL0     O50761  11.077   1.095   6.778 -0.0286 -0.7962 -0.8622
  377MOL0     C50762  11.103   1.096   6.899  1.1594  0.2259  0.4666
  377MOL0     O50763  11.012   1.045   6.999 -0.5072 -1.0113  0.1614
  377MOL0     C50764  10.888   1.013   6.956  0.2371  0.3752  0.4337
  377MOL0     C50765  10.867   0.892   6.890  0.3199 -0.0836  0.0678
  377MOL0     C50766  10.740   0.866   6.835  0.6864 -0.1134  0.1893
  377MOL0     C50767  10.632   0.953   6.850  0.2335 -0.7453 -0.0558
  377MOL0     O50768  10.507   0.918   6.819 -0.3651 -0.5495 -0.1486
  377MOL0     C50769  10.463   0.900   6.682 -0.3205 -0.5621 -0.5669
  377MOL0     C50770  10.313   0.862   6.683 -0.0727 -0.1564  0.4275
  377MOL0     C50771  10.245   0.868   6.542  0.0961 -0.4127 -0.1042
  377MOL0     C50772  10.091   0.869   6.539 -0.8171 -0.5015 -1.0925
  377MOL0     C50773  10.017   0.937   6.425  0.8389 -0.3078 -0.2990
  377MOL0     C50774  10.092   0.945   6.282  0.1778  0.9283 -0.6013
  377MOL0     C50775  10.013   1.024   6.177 -0.8015 -0.9642 -0.2019
  377MOL0     C50776   9.902   0.940   6.128  0.3595 -0.4237 -0.8918
  377MOL0     N50777   9.779   0.965   6.197 -0.7129 -0.5246  0.2028
  377MOL0     C50778   9.709   1.078   6.170 -0.0834 -0.1709  0.4566
  377MOL0     C50779   9.596   1.061   6.251 -0.6312 -0.0049  0.7939
  377MOL0     C50780   9.497   1.167   6.270  0.5404  0.5438 -0.5892
  377MOL0     C50781   9.356   1.105   6.273  0.2901  1.3851 -0.3405
  377MOL0     C50782   9.258   1.201   6.351  0.0739  0.1049  0.0306
  377MOL0     C50783   9.108   1.162   6.328  0.2275  0.2288 -0.4948
  377MOL0     O50784   9.092   1.020   6.348  0.4244  0.5628 -0.3866
  377MOL0     C50785   9.018   0.984   6.462 -0.5813  0.4789  0.3285
  377MOL0     C50786   8.879   0.999   6.458  0.6316  0.2716  0.4617
  377MOL0     C50787   8.795   0.973   6.560 -0.3252  0.5198 -0.3380
  377MOL0     C50788   8.644   0.991   6.539 -1.0456 -0.3553  1.0077
  377MOL0     C50789   8.853   0.944   6.687  0.0482  1.3673  0.4810
  377MOL0     C50790   8.776   0.938   6.815  0.3139 -0.5253  0.7006
  377MOL0     O50791   8.639   0.903   6.816 -0.5794 -0.2090  0.0449
  377MOL0     C50792   8.570   0.940   6.928 -0.0576 -0.6647  0.1134
  377MOL0     C50793   8.471   0.849   6.972  0.0001  0.7682  0.2749
  377MOL0     C50794   8.385   0.885   7.070 -0.4437 -0.8162 -0.2277
  377MOL0     C50795   8.389   1.020   7.124  0.2234 -0.5619 -0.7215
  377MOL0     O50796   8.303   1.062   7.211  0.6896  0.0062 -0.1261
  377MOL0     C50797   8.179   0.991   7.234 -0.5065 -0.4034 -0.2623
  377MOL0     C50798   8.102   1.087   7.334  0.5950  0.0484  0.7451
  377MOL0     C50799   8.043   0.998   7.443  0.1673 -0.8123  0.9261
  377MOL0     C50800   7.928   0.906   7.396  0.3196 -0.1834 -0.8485
  377MOL0     C50801   7.841   0.869   7.520  0.3884  0.0577  0.1816
  377MOL0     C50802   7.707   0.819   7.478  0.8189  0.1122  0.1796
  377MOL0     C50803   7.701   0.665   7.452 -0.6200  0.2988 -0.2438
  377MOL0     C50804   7.568   0.600   7.486  0.1008 -0.7749 -0.5419
  377MOL0    Cl50805   7.591   0.416   7.477  0.4193  0.1513  0.0229
  377MOL0     C50806   8.491   1.098   7.082 -0.6004 -0.4577  0.0145
  377MOL0     C50807   8.576   1.068   6.984  0.2438  0.4462  0.7630
  377MOL0     O50808   8.845   0.949   6.920 -0.2202  0.1571  0.2258
  377MOL0     C50809   8.994   0.938   6.690 -0.2724  0.1696  0.1040
  377MOL0     C50810   9.081   0.949   6.577 -0.2196 -1.9584 -0.1402
  377MOL0     N50811   9.602   0.947   6.321 -0.5265  0.5148  0.5523
  377MOL0     N50812   9.715   0.888   6.280 -0.0408  0.8237 -0.1542
  377MOL0     C50813  10.655   1.071   6.925 -0.1123 -0.2215  0.0970
  377MOL0     C50814  10.779   1.094   6.986 -0.3811 -0.3378 -0.1295
  377MOL0     C50815  11.242   1.143   6.939 -0.3757  0.2147 -0.0980
  377MOL0     C50816  11.298   1.120   7.065  0.1542  0.5317 -0.3221
  377MOL0     C50817  11.416   1.178   7.102 -0.4884 -0.0561  0.1019
  377MOL0     C50818  11.476   1.265   7.018 -0.3419 -0.4406  0.7646
  377MOL0     O50819  11.593   1.331   7.067  0.7470 -0.3864 -0.3922
  377MOL0     C50820  11.647   1.444   6.991 -0.5760  0.1847 -0.1903
  377MOL0     C50821  11.786   1.484   7.053 -0.0471 -0.5918 -0.5945
  377MOL0     C50822  11.897   1.381   7.017  0.8102  0.5547  0.3833
  377MOL0     C50823  11.879   1.236   7.069 -0.3233  0.3793 -0.0037
  377MOL0     C50824  12.009   1.170   7.103 -0.3376 -0.6433  0.6822
  377MOL0     C50825  12.121   1.135   7.133 -0.2843 -0.2883  0.6662
  377MOL0     C50826  11.421   1.291   6.886  0.2185 -0.1072 -0.3464
  377MOL0     C50827  11.306   1.230   6.846 -0.3128  0.7890 -0.6967
  377MOL0     H50828  10.947   0.821   6.872  1.6276  1.9087 -3.0249
  377MOL0     H50829  10.717   0.775   6.780  0.6091  1.8648 -3.3043
  377MOL0     H50830  10.478   0.989   6.621  3.6175  1.6997  3.1175
  377MOL0     H50831  10.525   0.822   6.637  0.6006  0.8632 -1.8176
  377MOL0     H50832  10.301   0.758   6.717 -0.4532 -1.3042 -2.8818
  377MOL0     H50833  10.263   0.935   6.748  1.2438  1.0221  0.1503
  377MOL0     H50834  10.279   0.962   6.497 -0.3494  0.2746  0.9516
  377MOL0     H50835  10.283   0.779   6.490 -0.8228 -1.7716  1.4508
  377MOL0     H50836  10.058   0.767   6.561  0.4206 -0.3311  2.1088
  377MOL0     H50837  10.067   0.928   6.627  5.8360 -0.7919  1.5322
  377MOL0     H50838   9.915   0.898   6.418  0.2483  1.1221 -0.2155
  377MOL0     H50839   9.999   1.043   6.449  2.7358  0.2990 -1.3123
  377MOL0     H50840  10.189   0.993   6.299  0.5514 -0.5860  2.0573
  377MOL0     H50841  10.110   0.840   6.255  0.0659  0.8985 -0.5612
  377MOL0     H50842   9.972   1.114   6.223  0.3176  1.1297 -3.0365
  377MOL0     H50843  10.084   1.053   6.099 -1.7500  0.0519 -0.7062
  377MOL0     H50844   9.924   0.833   6.126 -3.9581 -1.4738 -1.4628
  377MOL0     H50845   9.877   0.975   6.028  1.3640  1.5363 -0.5183
  377MOL0     H50846   9.738   1.164   6.112  1.1315  0.3649  1.7916
  377MOL0     H50847   9.511   1.220   6.364  3.0465 -0.9228 -0.0580
  377MOL0     H50848   9.511   1.247   6.196  0.9049  0.9607 -0.0713
  377MOL0     H50849   9.369   1.014   6.331  0.2873  1.1171 -0.7529
  377MOL0     H50850   9.327   1.079   6.170  3.1988 -0.3283 -0.8465
  377MOL0     H50851   9.277   1.305   6.324  1.2078 -0.3346 -0.9314
  377MOL0     H50852   9.280   1.191   6.457 -3.5600  0.3484  0.9613
  377MOL0     H50853   9.069   1.198   6.232  1.6114  1.8390 -0.4916
  377MOL0     H50854   9.052   1.221   6.401  0.7671 -0.3153  0.3776
  377MOL0     H50855   8.830   1.026   6.365  1.5708  3.4475  0.7480
  377MOL0     H50856   8.599   1.070   6.601 -1.0844 -0.4918  1.1536
  377MOL0     H50857   8.635   1.034   6.438 -2.1371  1.9248  2.0018
  377MOL0     H50858   8.581   0.902   6.536 -0.3160 -0.8689 -1.0919
  377MOL0     H50859   8.466   0.748   6.934 -1.5073  0.8848  0.1171
  377MOL0     H50860   8.306   0.818   7.101  0.4793 -1.5871  0.5316
  377MOL0     H50861   8.123   0.962   7.145  1.6189 -3.0036 -0.8647
  377MOL0     H50862   8.212   0.898   7.281  0.6816  1.6518  3.4004
  377MOL0     H50863   8.166   1.162   7.381  2.5838 -2.3228  2.0825
  377MOL0     H50864   8.020   1.135   7.279  0.2755 -0.6510  0.6028
  377MOL0     H50865   8.009   1.068   7.521  1.5299  0.6255  0.2816
  377MOL0     H50866   8.127   0.941   7.482  3.9256  2.3326 -1.8162
  377MOL0     H50867   7.863   0.967   7.333 -1.0289  0.7865  1.3809
  377MOL0     H50868   7.964   0.817   7.343 -0.3315 -0.0842 -1.4784
  377MOL0     H50869   7.825   0.961   7.578 -1.5507 -0.5741  0.7374
  377MOL0     H50870   7.882   0.801   7.594 -2.0540  0.0974  1.6814
  377MOL0     H50871   7.636   0.840   7.558  1.9385  1.7742  0.7937
  377MOL0     H50872   7.669   0.880   7.395 -3.3557  0.6596  2.2340
  377MOL0     H50873   7.770   0.609   7.516 -0.2241 -0.2213 -1.1204
  377MOL0     H50874   7.738   0.658   7.349  1.1954  1.7768  0.2376
  377MOL0     H50875   7.496   0.625   7.408 -1.6605 -1.6593  0.7166
  377MOL0     H50876   7.535   0.630   7.586  0.0482  0.0804 -0.8106
  377MOL0     H50877   8.492   1.198   7.126 -2.1319 -0.0484 -0.8210
  377MOL0     H50878   8.654   1.126   6.937  1.2252  1.4397  3.4734
  377MOL0     H50879   9.043   0.897   6.778 -0.8481  1.1939  0.9200
  377MOL0     H50880   9.186   0.922   6.583 -0.5386 -3.1198  0.5346
  377MOL0     H50881  10.568   1.132   6.945 -0.0660 -1.0182  3.4036
  377MOL0     H50882  10.790   1.187   7.040 -0.9838  0.4060 -1.2351
  377MOL0     H50883  11.263   1.046   7.137 -0.7830  0.3171 -0.9883
  377MOL0     H50884  11.454   1.151   7.199  0.6977 -0.4842 -0.4697
  377MOL0     H50885  11.662   1.414   6.887 -2.3444 -1.1969 -0.0939
  377MOL0     H50886  11.587   1.535   6.983 -2.7041 -1.0556  0.8754
  377MOL0     H50887  11.789   1.487   7.162  1.0047  2.7115 -0.5856
  377MOL0     H50888  11.808   1.585   7.016 -1.7936 -0.0233 -0.1580
  377MOL0     H50889  11.984   1.440   7.046 -0.7531  3.2960 -0.2347
  377MOL0     H50890  11.908   1.383   6.908  0.3676  2.0889  0.3480
  377MOL0     H50891  11.833   1.184   6.984  0.0730  4.2975 -2.9351
  377MOL0     H50892  11.809   1.246   7.152 -1.9514 -2.7200 -0.8351
  377MOL0     H50893  12.215   1.086   7.146  2.5006  2.6887 -4.7769
  377MOL0     H50894  11.468   1.361   6.816  1.6943  0.0285  0.7232
  377MOL0     H50895  11.263   1.248   6.748 -0.8242  0.3311 -0.5561
  378MOL0     O50896   4.009   3.471   9.958 -0.4389 -0.0516  0.2449
  378MOL0     C50897   4.044   3.365  10.014  0.8348  0.1477  0.2007
  378MOL0     O50898   3.962   3.261  10.040 -0.6520 -0.1934 -0.0792
  378MOL0     C50899   3.834   3.268   9.997 -0.1349  0.3032 -0.4392
  378MOL0     C50900   3.748   3.365  10.041  0.9328 -0.5119 -0.4668
  378MOL0     C50901   3.608   3.357  10.007  0.6046 -0.1232 -0.2432
  378MOL0     C50902   3.559   3.253   9.919 -0.0552 -0.0914  0.3918
  378MOL0     O50903   3.421   3.232   9.925 -0.1224  0.0702 -0.1257
  378MOL0     C50904   3.371   3.116   9.855 -0.0777 -0.5937 -0.3482
  378MOL0     C50905   3.228   3.134   9.811  0.1811 -0.2749  0.3475
  378MOL0     C50906   3.159   3.003   9.769 -0.4683  0.1617 -0.1727
  378MOL0     C50907   3.004   3.028   9.763  0.1955 -0.0917  0.5689
  378MOL0     C50908   2.964   3.114   9.644 -0.7367  0.5537  0.5208
  378MOL0     C50909   2.812   3.133   9.631 -0.4304 -0.0037  0.3269
  378MOL0     C50910   2.757   3.206   9.512 -0.3309 -0.6895  0.1502
  378MOL0     C50911   2.762   3.135   9.378  0.3159 -0.1190  0.0244
  378MOL0     N50912   2.743   2.992   9.394  0.4026  0.9229  0.1908
  378MOL0     C50913   2.627   2.931   9.433  0.6782 -0.2982  0.8619
  378MOL0     C50914   2.666   2.800   9.458 -0.8221  0.1560 -0.2714
  378MOL0     C50915   2.566   2.692   9.489  0.1973 -0.1155  0.2764
  378MOL0     C50916   2.541   2.584   9.378  0.2999 -0.9689 -0.4071
  378MOL0     C50917   2.427   2.488   9.419  0.1965 -0.5018 -0.6617
  378MOL0     C50918   2.405   2.377   9.325 -0.4712  0.3330  0.8976
  378MOL0     O50919   2.397   2.437   9.193  0.5700 -0.2461  0.1366
  378MOL0     C50920   2.362   2.354   9.085 -0.0002  0.0238  0.5085
  378MOL0     C50921   2.352   2.214   9.094  0.5964  0.2112  0.5249
  378MOL0     C50922   2.330   2.121   8.990  0.6548  0.7454 -0.7973
  378MOL0     C50923   2.325   1.976   9.029 -0.2707 -0.3090  0.1648
  378MOL0     C50924   2.298   2.180   8.864 -0.9328  0.2781  0.2726
  378MOL0     C50925   2.268   2.092   8.745  0.6064 -0.2340  0.0843
  378MOL0     O50926   2.264   2.159   8.625 -0.1010 -0.2576 -0.3054
  378MOL0     C50927   2.232   2.093   8.503  0.8440  0.0065  0.1330
  378MOL0     C50928   2.114   2.007   8.485 -0.1557 -0.1679 -0.0329
  378MOL0     C50929   2.086   1.950   8.358 -0.4260 -0.9271 -1.2394
  378MOL0     C50930   2.170   1.975   8.251 -0.4310  0.2239  0.3708
  378MOL0     O50931   2.158   1.904   8.139 -0.2483 -0.0924 -0.2365
  378MOL0     C50932   2.034   1.914   8.068 -0.3045 -0.6497 -0.2183
  378MOL0     C50933   2.065   1.959   7.929 -0.2483  1.5059  0.4340
  378MOL0     C50934   2.134   2.085   7.931 -0.5042 -0.5043 -0.6456
  378MOL0     C50935   2.115   2.160   7.800 -0.0563 -0.4737 -0.2336
  378MOL0     C50936   2.223   2.266   7.795  0.1177  0.0737 -0.1815
  378MOL0     C50937   2.188   2.361   7.674  0.8646 -0.2500  0.0961
  378MOL0     C50938   2.284   2.477   7.650  0.3052 -0.7701 -0.4976
  378MOL0     C50939   2.433   2.425   7.669 -0.0056  0.5035  1.1181
  378MOL0    Cl50940   2.459   2.301   7.535  0.1179  0.0274 -0.7330
  378MOL0     C50941   2.284   2.065   8.267  0.1455  0.5622 -0.3834
  378MOL0     C50942   2.307   2.126   8.393  0.2408 -0.4608  0.1065
  378MOL0     O50943   2.248   1.975   8.758  0.5857  0.0788  0.1297
  378MOL0     C50944   2.319   2.320   8.848  0.4371  0.6949  0.0172
  378MOL0     C50945   2.334   2.405   8.957 -0.1697  0.4805  0.1535
  378MOL0     N50946   2.800   2.779   9.425  0.0393 -0.5215 -0.1163
  378MOL0     N50947   2.838   2.893   9.383  0.0064 -0.1783 -0.2900
  378MOL0     C50948   3.658   3.164   9.874 -0.2672  0.2947 -0.3770
  378MOL0     C50949   3.788   3.172   9.911  0.2978 -0.0010  0.1132
  378MOL0     C50950   4.180   3.358  10.048 -0.8303  0.0735 -0.8866
  378MOL0     C50951   4.213   3.242  10.119 -0.1356 -0.7656 -0.2878
  378MOL0     C50952   4.336   3.230  10.171  0.3858 -0.4204 -0.0852
  378MOL0     C50953   4.427   3.334  10.154 -0.6802 -0.7797 -0.7120
  378MOL0     O50954   4.548   3.315  10.215 -0.6479 -0.7064 -0.3911
  378MOL0     C50955   4.530   3.360  10.357 -0.3495 -0.9199 -0.3793
  378MOL0     C50956   4.666   3.409  10.416  0.6964 -0.1385  0.2817
  378MOL0     C50957   4.779   3.301  10.397  0.1720  0.4729  0.3715
  378MOL0     C50958   4.921   3.345  10.436 -0.0101 -0.3838 -0.2231
  378MOL0     C50959   4.984   3.430  10.341 -0.7360  1.2536  0.6327
  378MOL0     C50960   5.032   3.517  10.273  0.3553 -0.1583 -0.6568
  378MOL0     C50961   4.399   3.444  10.079 -0.7980  0.1463  0.5633
  378MOL0     C50962   4.276   3.458  10.025  0.1583 -0.7259  0.1650
  378MOL0     H50963   3.777   3.441  10.113 -0.3302  1.2133 -1.6870
  378MOL0     H50964   3.536   3.424  10.055  1.1313  0.6192 -0.4747
  378MOL0     H50965   3.419   3.076   9.766  0.6543 -2.1290  0.6913
  378MOL0     H50966   3.369   3.032   9.925 -0.7168 -0.2408  0.0668
  378MOL0     H50967   3.173   3.180   9.893 -1.9112  1.5325 -1.9217
  378MOL0     H50968   3.236   3.206   9.729  1.4419  0.9953  1.5454
  378MOL0     H50969   3.199   2.958   9.678 -1.6071 -3.9430  1.1444
  378MOL0     H50970   3.171   2.925   9.844 -0.9705 -0.4840 -0.7565
  378MOL0     H50971   2.951   2.933   9.749  0.6307 -0.4197  1.1299
  378MOL0     H50972   2.978   3.060   9.864  0.1160 -1.5145  1.0194
  378MOL0     H50973   3.019   3.208   9.642  3.6474 -1.7552 -0.4717
  378MOL0     H50974   3.004   3.059   9.558  2.5935  3.0972  0.2557
  378MOL0     H50975   2.765   3.037   9.652  1.6213 -1.2170 -0.3721
  378MOL0     H50976   2.788   3.197   9.717 -1.6317 -0.3480  0.2621
  378MOL0     H50977   2.659   3.244   9.544 -0.2921 -1.1588  0.8425
  378MOL0     H50978   2.822   3.294   9.517  0.6158 -1.3925  0.5703
  378MOL0     H50979   2.852   3.157   9.320  1.0389 -0.2580  1.0653
  378MOL0     H50980   2.682   3.174   9.314 -0.0598  1.1961  1.2457
  378MOL0     H50981   2.528   2.975   9.424 -0.6483 -3.1282  0.3605
  378MOL0     H50982   2.590   2.622   9.570  1.4435 -0.7298 -0.5884
  378MOL0     H50983   2.468   2.738   9.506 -0.8185 -1.9576 -0.2668
  378MOL0     H50984   2.632   2.524   9.385  1.0585  0.3292  2.5488
  378MOL0     H50985   2.532   2.632   9.281  0.7758 -1.4206 -0.6802
  378MOL0     H50986   2.329   2.537   9.417  0.1605 -0.4996  0.4293
  378MOL0     H50987   2.450   2.447   9.517  0.5586  2.4828  0.6225
  378MOL0     H50988   2.318   2.314   9.342 -1.9234  1.5189 -1.5896
  378MOL0     H50989   2.492   2.310   9.321 -1.5480 -1.0668 -2.2620
  378MOL0     H50990   2.352   2.166   9.191 -0.3730 -1.4140 -0.2321
  378MOL0     H50991   2.389   1.909   8.970 -2.4909 -2.7927  0.4089
  378MOL0     H50992   2.343   1.965   9.136  0.5269  1.2207  0.2112
  378MOL0     H50993   2.228   1.934   9.004  0.3046 -1.1929 -0.6869
  378MOL0     H50994   2.048   1.972   8.564 -1.7262  0.4456 -1.0224
  378MOL0     H50995   2.001   1.882   8.355 -0.3990 -1.1313  1.0601
  378MOL0     H50996   1.990   1.814   8.064  0.8362 -1.3316  2.3895
  378MOL0     H50997   1.962   1.986   8.108  0.4052  0.7128 -1.3255
  378MOL0     H50998   2.126   1.895   7.864 -2.4324 -0.0797 -0.1609
  378MOL0     H50999   1.968   1.958   7.878 -1.3654 -3.3251  2.0538
  378MOL0     H51000   2.239   2.059   7.944 -0.6962 -0.2344  2.1444
  378MOL0     H51001   2.093   2.144   8.013 -1.2793  1.0342 -2.0842
  378MOL0     H51002   2.102   2.098   7.710 -3.5484 -0.1128 -0.1434
  378MOL0     H51003   2.012   2.198   7.802 -0.8974 -2.5065 -1.2701
  378MOL0     H51004   2.321   2.219   7.793 -0.2965 -0.7940 -0.4871
  378MOL0     H51005   2.215   2.321   7.890  1.8839  1.3702 -0.7295
  378MOL0     H51006   2.180   2.310   7.578  1.3763  1.8754 -1.1522
  378MOL0     H51007   2.095   2.409   7.704  0.8609 -0.3836  0.2950
  378MOL0     H51008   2.280   2.555   7.726  2.0280  0.5416 -1.6577
  378MOL0     H51009   2.258   2.524   7.555  0.1779  1.4245  0.5670
  378MOL0     H51010   2.452   2.381   7.768 -0.0094 -2.6054 -0.1565
  378MOL0     H51011   2.503   2.509   7.659 -0.3316  0.8859  1.9269
  378MOL0     H51012   2.351   2.086   8.185 -1.8911 -3.0451 -3.2717
  378MOL0     H51013   2.389   2.196   8.406  1.1519 -1.9129  3.1905
  378MOL0     H51014   2.305   2.359   8.747 -3.5710 -2.1204 -0.7821
  378MOL0     H51015   2.333   2.512   8.938  0.9243  0.7172  1.2734
  378MOL0     H51016   3.624   3.091   9.801 -0.7966  0.7372 -0.5715
  378MOL0     H51017   3.861   3.095   9.889 -0.4412 -0.1260 -2.1375
  378MOL0     H51018   4.148   3.156  10.138 -0.6567 -0.5825 -1.2155
  378MOL0     H51019   4.378   3.140  10.216  1.4355 -1.3931 -2.7653
  378MOL0     H51020   4.456   3.441  10.357 -1.3433 -1.8024 -0.1517
  378MOL0     H51021   4.482   3.280  10.415 -1.9947 -0.5794 -1.2212
  378MOL0     H51022   4.647   3.451  10.515 -2.5216  1.7876 -1.0145
  378MOL0     H51023   4.698   3.493  10.353 -1.1297 -1.1691 -2.1917
  378MOL0     H51024   4.777   3.273  10.292 -0.9208  0.3353  0.4227
  378MOL0     H51025   4.755   3.212  10.456  1.0551 -0.7745 -1.0708
  378MOL0     H51026   4.984   3.257  10.451 -0.4985 -0.6489  0.3304
  378MOL0     H51027   4.908   3.401  10.530 -3.8695  0.7247 -1.2342
  378MOL0     H51028   5.065   3.591  10.203 -1.7510  1.1007 -0.4039
  378MOL0     H51029   4.473   3.522  10.074 -0.9841  0.2999  0.1239
  378MOL0     H51030   4.262   3.548   9.965  1.6650 -0.3830  0.2806
  379MOL0     O51031   9.513   4.749   7.363 -0.6192 -0.0919  0.0451
  379MOL0     C51032   9.535   4.691   7.469  0.2399 -0.2724 -0.6032
  379MOL0     O51033   9.439   4.619   7.545 -0.2896  0.7551 -0.3975
  379MOL0     C51034   9.305   4.637   7.513 -0.2284  0.6229 -0.1032
  379MOL0     C51035   9.242   4.756   7.559  0.7391 -0.1201  0.4171
  379MOL0     C51036   9.102   4.768   7.550 -0.6534  0.9978  0.1828
  379MOL0     C51037   9.026   4.661   7.494  0.4597 -0.7669  0.0302
  379MOL0     O51038   8.893   4.667   7.478  0.1114 -0.7483 -0.0151
  379MOL0     C51039   8.806   4.752   7.554  0.3627  0.2564 -0.3090
  379MOL0     C51040   8.680   4.666   7.603  0.3219  0.3689 -0.4520
  379MOL0     C51041   8.570   4.663   7.494  0.0773 -0.3751  0.1234
  379MOL0     C51042   8.463   4.563   7.543  0.1196  0.1404 -0.3188
  379MOL0     C51043   8.330   4.565   7.469  0.5077 -0.3987  0.4518
  379MOL0     C51044   8.241   4.449   7.512 -0.1107  0.5101 -0.3157
  379MOL0     C51045   8.299   4.314   7.475 -0.0924 -0.0744 -0.5621
  379MOL0     C51046   8.195   4.210   7.457 -0.5990 -0.2161  0.2330
  379MOL0     N51047   8.109   4.182   7.572  0.3602  0.1548  0.1731
  379MOL0     C51048   7.996   4.248   7.615 -0.4879  0.3392  0.4793
  379MOL0     C51049   7.963   4.185   7.731 -0.3531  0.1210  1.0234
  379MOL0     C51050   7.851   4.218   7.818 -0.3781 -0.1411 -0.9893
  379MOL0     C51051   7.730   4.278   7.749  0.3237 -0.6135 -0.9143
  379MOL0     C51052   7.631   4.326   7.844 -0.5239  0.5758  0.5257
  379MOL0     C51053   7.528   4.404   7.763 -0.1258  0.2222 -0.6419
  379MOL0     O51054   7.412   4.422   7.848  0.7576  0.2425  0.4791
  379MOL0     C51055   7.313   4.335   7.813 -0.1334 -0.4686  0.6715
  379MOL0     C51056   7.179   4.378   7.817 -0.1604 -0.0712  1.3316
  379MOL0     C51057   7.063   4.310   7.767  0.2309 -0.2180 -0.2902
  379MOL0     C51058   6.939   4.396   7.756 -0.3487 -0.3778  0.4978
  379MOL0     C51059   7.086   4.175   7.735 -0.0109  0.1627  0.4926
  379MOL0     C51060   6.978   4.091   7.675  0.3646  0.8907 -0.6988
  379MOL0     O51061   6.852   4.133   7.660  0.0274  0.1862  0.1707
  379MOL0     C51062   6.742   4.053   7.657  1.1750 -0.1452  0.4193
  379MOL0     C51063   6.732   3.910   7.670  0.1225  0.7478 -0.5192
  379MOL0     C51064   6.607   3.842   7.671 -0.1367  0.8102  0.4221
  379MOL0     C51065   6.491   3.917   7.669 -0.5566 -0.3649 -0.2839
  379MOL0     O51066   6.372   3.852   7.679 -0.1408 -0.5268  0.3256
  379MOL0     C51067   6.252   3.919   7.710  0.0320 -0.7530 -0.0383
  379MOL0     C51068   6.138   3.821   7.704 -0.4100 -0.3902  0.0719
  379MOL0     C51069   5.998   3.878   7.729 -0.0532  0.8908  0.4145
  379MOL0     C51070   5.884   3.782   7.694  0.6289  0.5456  0.1837
  379MOL0     C51071   5.742   3.840   7.718  0.8055 -0.1567  0.1761
  379MOL0     C51072   5.724   3.981   7.646 -1.1088  0.7375  0.0239
  379MOL0     C51073   5.581   4.027   7.663  0.1599  0.2173  0.3064
  379MOL0     C51074   5.538   4.132   7.569 -0.5590 -0.7917 -0.1441
  379MOL0    Cl51075   5.379   4.199   7.613 -0.0818  0.4792  0.2254
  379MOL0     C51076   6.504   4.058   7.665  0.0151 -0.6700  0.2563
  379MOL0     C51077   6.630   4.127   7.651  0.4631 -0.0491 -0.4852
  379MOL0     O51078   7.018   3.985   7.632 -0.0990  0.4509 -0.4679
  379MOL0     C51079   7.221   4.122   7.744 -0.1788 -0.1502 -0.2209
  379MOL0     C51080   7.323   4.202   7.771  0.0238  0.7936 -0.7631
  379MOL0     N51081   8.057   4.079   7.757  0.5680 -0.5320  0.6316
  379MOL0     N51082   8.140   4.077   7.656  0.5192  0.6116  0.3673
  379MOL0     C51083   9.097   4.559   7.432  0.2699 -0.2939  0.2180
  379MOL0     C51084   9.237   4.543   7.440  0.1265 -0.1278  0.2342
  379MOL0     C51085   9.672   4.711   7.518  0.7022  0.5659  0.8597
  379MOL0     C51086   9.771   4.782   7.448  0.2161 -0.8804  0.3850
  379MOL0     C51087   9.905   4.797   7.495 -1.0896  0.3750  0.2367
  379MOL0     C51088   9.944   4.734   7.611 -0.5625  0.3546 -0.3525
  379MOL0     O51089  10.059   4.750   7.681 -0.2235 -0.4605  0.4359
  379MOL0     C51090  10.172   4.804   7.602 -0.2654  0.3859  0.3163
  379MOL0     C51091  10.296   4.808   7.687 -0.1800  0.1312  0.6949
  379MOL0     C51092  10.368   4.677   7.683  0.4444  0.4024  0.5744
  379MOL0     C51093  10.495   4.653   7.773  0.4034  0.3813 -0.0520
  379MOL0     C51094  10.615   4.726   7.716  0.7447  0.7806 -0.6142
  379MOL0     C51095  10.712   4.785   7.673 -0.0385  0.0317 -0.1833
  379MOL0     C51096   9.847   4.678   7.686  0.6094  0.3296 -0.2951
  379MOL0     C51097   9.713   4.660   7.640  0.5110  0.3857  0.1957
  379MOL0     H51098   9.298   4.824   7.622  2.7725 -2.9947  1.9375
  379MOL0     H51099   9.061   4.852   7.606  1.7046 -0.6455  4.9497
  379MOL0     H51100   8.858   4.780   7.646  0.0920 -0.4115  0.0580
  379MOL0     H51101   8.782   4.842   7.497  0.8023  1.4116  1.2414
  379MOL0     H51102   8.710   4.571   7.649  0.5192 -0.4141 -2.0783
  379MOL0     H51103   8.630   4.724   7.680 -1.3069  3.2386 -3.3963
  379MOL0     H51104   8.521   4.760   7.484  1.4602  0.3101 -0.2223
  379MOL0     H51105   8.619   4.647   7.397  1.7807 -0.0476  0.8934
  379MOL0     H51106   8.512   4.468   7.520 -0.3985  0.0081 -0.8906
  379MOL0     H51107   8.438   4.569   7.650 -0.2285  1.7814 -0.4687
  379MOL0     H51108   8.272   4.656   7.486  0.8548 -0.0106 -0.3672
  379MOL0     H51109   8.332   4.560   7.360  2.4993  4.6468 -0.0420
  379MOL0     H51110   8.221   4.451   7.619  1.4854 -1.0089  0.0466
  379MOL0     H51111   8.145   4.455   7.460 -1.9177 -1.0018  2.5770
  379MOL0     H51112   8.348   4.313   7.377 -0.3521  1.1796 -0.7137
  379MOL0     H51113   8.377   4.294   7.549  1.8920  3.0687 -1.6366
  379MOL0     H51114   8.232   4.112   7.423  0.3104 -0.4403  1.7541
  379MOL0     H51115   8.128   4.242   7.377  0.4913  0.5480 -0.4087
  379MOL0     H51116   7.939   4.331   7.573  0.1949  0.8683  0.5764
  379MOL0     H51117   7.819   4.136   7.882  0.1403 -0.3813 -1.0366
  379MOL0     H51118   7.888   4.300   7.882  0.6873  0.2358 -2.0584
  379MOL0     H51119   7.680   4.207   7.683  0.2609 -2.2303  0.7794
  379MOL0     H51120   7.775   4.358   7.690  1.2429  0.6920  1.3978
  379MOL0     H51121   7.681   4.381   7.924 -1.4374 -1.0346  2.2774
  379MOL0     H51122   7.584   4.243   7.897  1.0104  0.5659  1.9396
  379MOL0     H51123   7.498   4.352   7.672 -2.3385 -1.2009  0.7769
  379MOL0     H51124   7.573   4.500   7.736  0.4772  0.1943  0.2200
  379MOL0     H51125   7.174   4.483   7.844 -2.2850  0.7294 -1.5854
  379MOL0     H51126   6.934   4.447   7.659 -0.7982 -0.7584  0.3184
  379MOL0     H51127   6.846   4.346   7.784 -1.6745  1.7161  0.0802
  379MOL0     H51128   6.943   4.465   7.841  0.9466 -0.7249  0.7508
  379MOL0     H51129   6.819   3.845   7.672 -0.6042 -0.2647 -0.8839
  379MOL0     H51130   6.595   3.736   7.686 -2.8242  1.2439  1.9715
  379MOL0     H51131   6.253   3.973   7.805 -2.9668 -1.4626  0.4907
  379MOL0     H51132   6.236   3.998   7.636  1.8018 -1.7567 -1.5762
  379MOL0     H51133   6.134   3.767   7.609 -3.3878 -2.1382  1.0604
  379MOL0     H51134   6.172   3.760   7.788  0.1734  2.7526  2.3272
  379MOL0     H51135   5.981   3.954   7.652 -1.1944 -1.7515 -2.1573
  379MOL0     H51136   5.989   3.912   7.833 -0.6708 -3.1471  1.8580
  379MOL0     H51137   5.904   3.753   7.591  4.8975  1.2200  0.6208
  379MOL0     H51138   5.895   3.694   7.758  0.3592 -0.5850 -1.2736
  379MOL0     H51139   5.725   3.846   7.826 -1.2053  0.1655 -0.1119
  379MOL0     H51140   5.668   3.767   7.685  1.7518 -1.0596  0.0221
  379MOL0     H51141   5.791   4.061   7.679 -0.5316  0.4218 -0.3570
  379MOL0     H51142   5.732   3.977   7.537 -0.2811 -0.3001  0.1040
  379MOL0     H51143   5.587   4.070   7.764 -0.8027 -1.1493  0.9729
  379MOL0     H51144   5.513   3.942   7.656  1.5827 -0.8713 -1.2735
  379MOL0     H51145   5.525   4.098   7.465 -4.7195 -1.7852  0.5178
  379MOL0     H51146   5.601   4.221   7.567 -2.1812  0.4062 -1.4418
  379MOL0     H51147   6.416   4.122   7.664  0.2716 -0.2981 -1.3739
  379MOL0     H51148   6.650   4.233   7.651  1.1209 -0.1641 -0.8303
  379MOL0     H51149   7.244   4.016   7.744 -0.4881 -0.4198  4.3610
  379MOL0     H51150   7.421   4.160   7.788 -0.7456 -0.3962  1.0036
  379MOL0     H51151   9.038   4.487   7.376 -1.2424 -0.3942  1.8447
  379MOL0     H51152   9.280   4.456   7.392 -1.7546 -1.0420  0.0969
  379MOL0     H51153   9.748   4.849   7.366  1.3739  0.3063  0.9887
  379MOL0     H51154   9.973   4.864   7.443 -3.4480  1.6381 -1.4207
  379MOL0     H51155  10.179   4.741   7.512  1.0954 -3.1964  2.7244
  379MOL0     H51156  10.167   4.902   7.554 -0.2578 -0.0786 -0.6773
  379MOL0     H51157  10.262   4.830   7.788 -0.9435  1.8411  0.1027
  379MOL0     H51158  10.364   4.884   7.649  0.2637 -1.6076 -2.3105
  379MOL0     H51159  10.394   4.656   7.578 -3.9873  1.2023 -0.9087
  379MOL0     H51160  10.290   4.606   7.714 -2.1075  1.8816 -1.9861
  379MOL0     H51161  10.523   4.549   7.753  1.0708  0.6394 -0.5259
  379MOL0     H51162  10.482   4.667   7.881 -0.6892 -2.6281  0.2877
  379MOL0     H51163  10.795   4.840   7.632  0.7553 -0.8645  0.1830
  379MOL0     H51164   9.869   4.653   7.789 -0.2292 -0.9269 -0.3943
  379MOL0     H51165   9.639   4.622   7.710 -1.4274  2.5777 -0.5191
  380MOL0     O51166   1.967   5.299  10.264  0.3920  0.1557  0.1841
  380MOL0     C51167   2.018   5.379  10.187  0.9019  0.1991  0.0815
  380MOL0     O51168   1.951   5.455  10.099  0.1433  0.6936 -0.6243
  380MOL0     C51169   1.817   5.434  10.091  0.0790 -0.1856 -0.4491
  380MOL0     C51170   1.731   5.493  10.182  0.8570  0.2443 -0.8244
  380MOL0     C51171   1.592   5.499  10.148 -0.2417 -0.3711  0.5078
  380MOL0     C51172   1.538   5.440  10.035 -0.0520  0.5959 -0.2416
  380MOL0     O51173   1.403   5.441  10.029 -0.7748  0.0136  0.1920
  380MOL0     C51174   1.337   5.321   9.985 -0.2888  0.0482  0.0845
  380MOL0     C51175   1.320   5.220  10.090 -0.1101  1.1562  0.4515
  380MOL0     C51176   1.235   5.260  10.209 -0.2812  0.3606 -0.0408
  380MOL0     C51177   1.199   5.160  10.309 -0.3334 -0.1954  0.3873
  380MOL0     C51178   1.103   5.056  10.261 -0.0157  0.1819  0.3377
  380MOL0     C51179   1.042   4.981  10.376 -0.4079  0.3228 -0.0239
  380MOL0     C51180   0.948   4.859  10.329  0.2587  0.2645  0.9898
  380MOL0     C51181   0.821   4.891  10.247 -0.0161  0.1531 -0.4323
  380MOL0     N51182   0.741   4.783  10.192 -0.6693 -0.4259  0.1387
  380MOL0     C51183   0.720   4.662  10.251 -0.2206 -0.6999 -0.4903
  380MOL0     C51184   0.601   4.621  10.197 -0.0888  0.0370  0.2205
  380MOL0     C51185   0.548   4.480  10.215 -1.1772 -0.0904 -0.2561
  380MOL0     C51186   0.405   4.498  10.271  0.4200  0.6861  0.4308
  380MOL0     C51187   0.398   4.502  10.427  0.5941  0.5297  0.0550
  380MOL0     C51188   0.256   4.481  10.469 -0.1338  0.4091  0.1250
  380MOL0     O51189   0.237   4.550  10.596 -0.2206 -0.1516  0.3564
  380MOL0     C51190   0.110   4.594  10.623 -0.2470  1.1601  0.4602
  380MOL0     C51191   0.097   4.714  10.692 -0.3014 -0.5304 -0.1768
  380MOL0     C51192  -0.026   4.769  10.736  0.3901 -0.7067 -0.2679
  380MOL0     C51193  -0.030   4.892  10.829  0.6684 -0.2006  0.9274
  380MOL0     C51194  -0.142   4.702  10.689  0.0077  0.1675  0.5803
  380MOL0     C51195  -0.281   4.737  10.724 -0.0313  0.4526  0.0371
  380MOL0     O51196  -0.296   4.867  10.760 -0.8072 -0.7796  0.2342
  380MOL0     C51197  -0.416   4.909  10.810  0.0180  0.3996  0.4135
  380MOL0     C51198  -0.485   5.016  10.748  0.3350  0.5183 -0.3260
  380MOL0     C51199  -0.620   5.046  10.787  0.5459  0.0466 -0.3486
  380MOL0     C51200  -0.672   4.981  10.903  0.1806 -0.0144  0.9529
  380MOL0     O51201  -0.800   5.001  10.928  0.0048 -0.5813  0.2771
  380MOL0     C51202  -0.846   5.129  10.987  0.5791  0.6160 -0.0892
  380MOL0     C51203  -0.802   5.132  11.140 -0.7699  0.5051  0.9953
  380MOL0     C51204  -0.928   5.130  11.214 -0.5779 -0.0846  0.3688
  380MOL0     C51205  -0.901   5.167  11.359 -0.1094  0.0703 -0.2864
  380MOL0     C51206  -0.997   5.088  11.457 -0.1433 -0.0972 -0.2135
  380MOL0     C51207  -1.149   5.129  11.443 -0.4071 -0.2024  0.4238
  380MOL0     C51208  -1.229   5.053  11.566 -0.4022  0.1784 -0.2333
  380MOL0     C51209  -1.359   5.127  11.606  0.0937 -0.6565  0.4222
  380MOL0    Cl51210  -1.474   5.145  11.468 -0.0001 -0.4221 -0.1293
  380MOL0     C51211  -0.602   4.876  10.963 -0.5671 -0.2873 -0.4431
  380MOL0     C51212  -0.475   4.847  10.924  0.4756  0.4293  0.6338
  380MOL0     O51213  -0.361   4.649  10.741  0.0945 -0.1170  0.2070
  380MOL0     C51214  -0.129   4.579  10.611 -0.1378  0.0199 -0.0868
  380MOL0     C51215  -0.005   4.524  10.575  0.3646  0.6231 -0.3566
  380MOL0     N51216   0.550   4.716  10.112  0.1563  0.3291 -0.2843
  380MOL0     N51217   0.627   4.817  10.119  0.5517 -0.2066 -0.6579
  380MOL0     C51218   1.628   5.370   9.956  0.4343 -0.0621  0.8359
  380MOL0     C51219   1.761   5.364   9.985  0.3788  0.3238 -0.1654
  380MOL0     C51220   2.165   5.399  10.184  0.4911  0.0172  0.2352
  380MOL0     C51221   2.246   5.331  10.266 -0.8303 -0.2772  0.4055
  380MOL0     C51222   2.381   5.342  10.249 -0.4028  0.1222 -0.3791
  380MOL0     C51223   2.442   5.418  10.156  1.0437  0.7456 -0.3197
  380MOL0     O51224   2.574   5.426  10.149 -0.1980 -0.0342 -0.3893
  380MOL0     C51225   2.629   5.507  10.250 -0.2111  0.1096 -0.4050
  380MOL0     C51226   2.774   5.466  10.252  0.4211 -0.1006 -1.3830
  380MOL0     C51227   2.846   5.514  10.382  0.0694 -0.0832 -0.3803
  380MOL0     C51228   2.994   5.525  10.361  0.3684 -0.3990  0.1152
  380MOL0     C51229   3.058   5.531  10.496  0.7870 -0.6101 -0.1455
  380MOL0     C51230   3.119   5.536  10.608  0.9637  0.5764  0.4509
  380MOL0     C51231   2.359   5.497  10.080  0.2800  0.0358 -0.5889
  380MOL0     C51232   2.220   5.485  10.100  0.6521  0.3340  1.3145
  380MOL0     H51233   1.767   5.532  10.276 -0.4234 -0.8962  0.1779
  380MOL0     H51234   1.525   5.557  10.210 -0.5794  0.6236 -0.7581
  380MOL0     H51235   1.240   5.355   9.946  0.6297  4.3396  1.0153
  380MOL0     H51236   1.385   5.274   9.898 -0.5115 -1.8080  0.9233
  380MOL0     H51237   1.268   5.140  10.035  0.3355  0.7333  0.6385
  380MOL0     H51238   1.419   5.190  10.126 -1.6633 -0.8412  3.5637
  380MOL0     H51239   1.281   5.345  10.261 -3.4276  1.8155  0.6252
  380MOL0     H51240   1.147   5.301  10.158  0.7835  3.7371  0.5734
  380MOL0     H51241   1.287   5.109  10.350 -0.4736 -0.6983  0.0788
  380MOL0     H51242   1.152   5.209  10.395  1.7379  1.7558  0.5075
  380MOL0     H51243   1.031   5.103  10.193 -0.8192  2.3734  2.5756
  380MOL0     H51244   1.148   4.981  10.195 -1.2232 -1.2284  1.0632
  380MOL0     H51245   1.120   4.933  10.436 -1.5534 -1.7548 -0.1049
  380MOL0     H51246   0.983   5.049  10.439 -1.9572 -1.0681  0.0847
  380MOL0     H51247   1.003   4.790  10.264 -2.3560 -0.8231 -0.1996
  380MOL0     H51248   0.907   4.807  10.417  2.6532 -1.5154  1.1728
  380MOL0     H51249   0.865   4.950  10.165  1.3437 -0.8467 -0.4621
  380MOL0     H51250   0.765   4.963  10.307  0.7391 -0.5006  1.1144
  380MOL0     H51251   0.793   4.615  10.316  2.6415  2.5775 -1.0721
  380MOL0     H51252   0.555   4.425  10.121 -0.0510 -2.1905  0.9747
  380MOL0     H51253   0.618   4.426  10.280  0.5593  1.5676 -0.6404
  380MOL0     H51254   0.358   4.408  10.231  0.1264  1.4476 -0.9713
  380MOL0     H51255   0.365   4.590  10.227  1.0436  1.0551  0.6111
  380MOL0     H51256   0.426   4.604  10.456  1.4025  0.1816  0.5333
  380MOL0     H51257   0.460   4.430  10.482 -0.9914  0.5424  1.9619
  380MOL0     H51258   0.239   4.373  10.478 -3.4818  1.0025  2.7077
  380MOL0     H51259   0.190   4.520  10.392 -0.7020  4.0351  2.2275
  380MOL0     H51260   0.188   4.765  10.721 -0.1518 -0.5049 -0.6825
  380MOL0     H51261   0.067   4.929  10.866  0.0465 -1.0835  3.7380
  380MOL0     H51262  -0.084   4.972  10.778 -0.9925 -0.0102  2.8561
  380MOL0     H51263  -0.089   4.859  10.915 -0.6271 -0.6264 -0.1093
  380MOL0     H51264  -0.422   5.049  10.666  3.8407 -0.3573  1.8164
  380MOL0     H51265  -0.686   5.110  10.730 -0.0029 -1.0881 -0.9991
  380MOL0     H51266  -0.799   5.215  10.938 -0.8953  0.9697 -0.9555
  380MOL0     H51267  -0.955   5.138  10.984  0.2710  1.0562  4.5869
  380MOL0     H51268  -0.748   5.039  11.158  0.0949  0.6249 -0.7456
  380MOL0     H51269  -0.740   5.222  11.147  3.1959 -1.7273 -1.5135
  380MOL0     H51270  -0.971   5.029  11.211  1.7579 -1.1254 -1.1883
  380MOL0     H51271  -0.999   5.203  11.176 -2.1536 -0.7519  1.8838
  380MOL0     H51272  -0.799   5.136  11.384  0.9647  3.3546 -0.0935
  380MOL0     H51273  -0.905   5.275  11.371  2.1825  0.1483  0.3181
  380MOL0     H51274  -0.963   5.106  11.559  4.5145 -0.1193 -1.5713
  380MOL0     H51275  -0.991   4.980  11.445 -0.8699 -0.2091  0.3630
  380MOL0     H51276  -1.142   5.237  11.456 -4.7759  0.1942  1.0354
  380MOL0     H51277  -1.189   5.103  11.345  4.2997 -3.3159 -0.9978
  380MOL0     H51278  -1.168   5.046  11.656 -2.9605  2.2795  1.8332
  380MOL0     H51279  -1.239   4.952  11.523 -0.1438  0.7812 -1.7604
  380MOL0     H51280  -1.333   5.228  11.639 -2.7297 -0.3409  1.9743
  380MOL0     H51281  -1.410   5.090  11.696  0.5073  0.1778  1.0143
  380MOL0     H51282  -0.646   4.834  11.053  0.9934  4.2915  2.8389
  380MOL0     H51283  -0.418   4.768  10.972  1.9056  0.4790 -0.9092
  380MOL0     H51284  -0.215   4.514  10.597 -1.2167  1.6330 -1.2670
  380MOL0     H51285  -0.002   4.421  10.544  0.8333  0.2745  0.7796
  380MOL0     H51286   1.588   5.330   9.863  0.0639 -2.2190  1.8621
  380MOL0     H51287   1.826   5.298   9.929 -2.6072 -3.3338  0.3284
  380MOL0     H51288   2.201   5.275  10.347  0.7008 -1.2654  0.6287
  380MOL0     H51289   2.437   5.279  10.316 -3.5926 -2.4238  0.1419
  380MOL0     H51290   2.617   5.608  10.209 -2.4742 -0.5290 -1.4593
  380MOL0     H51291   2.581   5.484  10.346  1.2280 -2.0721 -0.1375
  380MOL0     H51292   2.818   5.502  10.159  2.6673  0.3635 -0.2147
  380MOL0     H51293   2.773   5.357  10.256 -2.9062 -0.1646  1.4329
  380MOL0     H51294   2.812   5.446  10.460  0.7143  1.8543  1.6833
  380MOL0     H51295   2.803   5.611  10.411 -0.8749 -1.2366  2.4391
  380MOL0     H51296   3.028   5.608  10.299 -0.7297  0.8522  1.1210
  380MOL0     H51297   3.020   5.433  10.308  1.9780 -0.9686  1.8108
  380MOL0     H51298   3.173   5.527  10.700  0.7432  1.8660  0.7212
  380MOL0     H51299   2.400   5.564  10.006 -1.3242  1.4385 -0.2600
  380MOL0     H51300   2.162   5.540  10.026  2.1979 -1.7621 -1.7098
  381MOL0     O51301   4.390   9.694   1.476  0.4093  0.1779  0.6211
  381MOL0     C51302   4.470   9.624   1.420 -0.5464  0.2314  0.0800
  381MOL0     O51303   4.434   9.534   1.311 -0.1461 -0.4347 -0.4352
  381MOL0     C51304   4.317   9.530   1.249  0.2985  0.5499  1.5083
  381MOL0     C51305   4.196   9.550   1.305  1.3367 -0.0235  0.1666
  381MOL0     C51306   4.079   9.518   1.237  0.1107 -0.4653 -0.0289
  381MOL0     C51307   4.085   9.473   1.097  0.5582 -0.3802 -0.3158
  381MOL0     O51308   3.969   9.444   1.028 -0.1585 -0.2899 -0.6725
  381MOL0     C51309   3.967   9.472   0.891  0.0284  0.8781 -0.3583
  381MOL0     C51310   3.819   9.463   0.851  0.9936  0.3403  0.1603
  381MOL0     C51311   3.794   9.453   0.705  0.8785  0.4399  0.7972
  381MOL0     C51312   3.785   9.596   0.643  0.0360 -0.0929  0.1552
  381MOL0     C51313   3.815   9.596   0.498  0.1050 -0.4092  0.6830
  381MOL0     C51314   3.712   9.518   0.408  0.2204  0.4401 -0.7364
  381MOL0     C51315   3.759   9.510   0.262 -0.7908 -0.6694  0.0172
  381MOL0     C51316   3.678   9.414   0.181 -0.0005  0.8229 -0.2043
  381MOL0     N51317   3.701   9.417   0.036  0.0739 -0.1528  0.5309
  381MOL0     C51318   3.770   9.320  -0.028  0.1979  0.4170  0.0755
  381MOL0     C51319   3.765   9.352  -0.159  0.0344  0.0251  0.6172
  381MOL0     C51320   3.817   9.261  -0.268  0.1233  0.9469  0.0060
  381MOL0     C51321   3.909   9.322  -0.366 -0.5966 -0.5639  0.2286
  381MOL0     C51322   3.999   9.229  -0.443 -1.0683 -0.0053 -0.5062
  381MOL0     C51323   4.119   9.195  -0.366 -1.0221 -1.0029 -0.6923
  381MOL0     O51324   4.192   9.304  -0.306 -0.6768 -0.5095 -0.3514
  381MOL0     C51325   4.303   9.354  -0.377 -0.3281  0.0261 -0.4593
  381MOL0     C51326   4.316   9.491  -0.406 -0.1026 -0.6188 -1.2153
  381MOL0     C51327   4.426   9.548  -0.478  0.0079 -0.6725 -0.0837
  381MOL0     C51328   4.425   9.697  -0.500  0.2751 -0.1488  0.5452
  381MOL0     C51329   4.530   9.460  -0.516  0.5496  0.4757 -0.6885
  381MOL0     C51330   4.664   9.515  -0.571 -0.1488 -0.4278 -0.4126
  381MOL0     O51331   4.769   9.430  -0.572 -1.3477  0.0701 -0.3069
  381MOL0     C51332   4.893   9.483  -0.609  0.1683 -0.5202 -0.4253
  381MOL0     C51333   4.959   9.575  -0.523 -0.1595 -0.3300  0.1866
  381MOL0     C51334   5.084   9.632  -0.559  0.2055  0.0329  0.0165
  381MOL0     C51335   5.140   9.583  -0.680  0.1789 -0.2373 -0.1374
  381MOL0     O51336   5.258   9.640  -0.713  0.1312  0.2965  0.4244
  381MOL0     C51337   5.235   9.704  -0.833 -0.1562  0.2469  0.3920
  381MOL0     C51338   5.368   9.769  -0.872  1.1035 -0.1130  0.3133
  381MOL0     C51339   5.410   9.872  -0.767  0.6998  0.9943 -0.0886
  381MOL0     C51340   5.529   9.951  -0.819 -0.0947 -0.1527  0.6361
  381MOL0     C51341   5.582  10.052  -0.706  0.1467 -0.5394  0.6197
  381MOL0     C51342   5.718  10.123  -0.733  0.0621 -0.1840 -0.6012
  381MOL0     C51343   5.795  10.159  -0.604 -0.1517 -0.2687 -0.8362
  381MOL0     C51344   5.918  10.247  -0.631 -0.0204  0.1592  0.2200
  381MOL0    Cl51345   5.942  10.370  -0.505 -0.1267  0.2149 -0.6200
  381MOL0     C51346   5.076   9.487  -0.755 -0.0046  0.7498 -0.2223
  381MOL0     C51347   4.954   9.430  -0.722  0.6867 -0.2873  0.3442
  381MOL0     O51348   4.673   9.632  -0.615 -0.2306  0.2235  0.7117
  381MOL0     C51349   4.508   9.320  -0.498 -0.6507  0.2321 -0.4578
  381MOL0     C51350   4.402   9.265  -0.424  0.3524  0.3401  0.0501
  381MOL0     N51351   3.690   9.465  -0.179 -0.7393 -0.2623 -0.2605
  381MOL0     N51352   3.644   9.500  -0.059  0.0731  0.5064  0.4734
  381MOL0     C51353   4.208   9.454   1.037 -0.7573 -0.8600 -0.0474
  381MOL0     C51354   4.326   9.485   1.110  0.1066  0.2063 -0.9099
  381MOL0     C51355   4.607   9.617   1.473  0.1728  0.1735 -0.8881
  381MOL0     C51356   4.644   9.699   1.585  0.6259  0.6289 -0.4738
  381MOL0     C51357   4.771   9.698   1.638  0.1816 -0.1652  0.0742
  381MOL0     C51358   4.873   9.633   1.568  0.0337 -0.4907  0.6515
  381MOL0     O51359   5.008   9.627   1.603 -0.6999 -0.4646  0.4623
  381MOL0     C51360   5.058   9.722   1.705  0.5507  0.5286  0.1482
  381MOL0     C51361   5.210   9.719   1.700 -1.0486 -0.4182 -0.8009
  381MOL0     C51362   5.268   9.769   1.565 -0.4754 -0.1424  0.8722
  381MOL0     C51363   5.414   9.816   1.574 -0.1604 -0.2750 -0.2177
  381MOL0     C51364   5.514   9.711   1.578  0.1969  0.1280 -0.7146
  381MOL0     C51365   5.593   9.623   1.581 -0.8546 -0.1657  0.1508
  381MOL0     C51366   4.839   9.562   1.454 -0.3009 -0.1486  0.3378
  381MOL0     C51367   4.707   9.551   1.410 -0.9516 -0.1586  0.7089
  381MOL0     H51368   4.184   9.566   1.412  0.9401  0.8225 -0.0030
  381MOL0     H51369   3.993   9.536   1.301  1.2346 -0.7665  1.6468
  381MOL0     H51370   4.002   9.574   0.870 -1.1952  1.1670 -1.1046
  381MOL0     H51371   4.030   9.406   0.831 -1.3826  0.5204 -1.4980
  381MOL0     H51372   3.770   9.381   0.905 -2.3603  2.1347  0.0702
  381MOL0     H51373   3.766   9.547   0.895  1.2478  0.1848  0.7663
  381MOL0     H51374   3.862   9.386   0.653 -1.3276 -2.1503  1.0331
  381MOL0     H51375   3.698   9.404   0.684  2.2792 -1.8127 -0.7997
  381MOL0     H51376   3.685   9.638   0.654  0.1062 -0.2077  1.3246
  381MOL0     H51377   3.853   9.665   0.696 -4.0539  2.4896  2.5883
  381MOL0     H51378   3.818   9.701   0.465 -2.9445 -0.3794  0.2512
  381MOL0     H51379   3.914   9.554   0.477  0.4140  0.8540 -0.5546
  381MOL0     H51380   3.714   9.415   0.445  2.4591  1.2431  1.6944
  381MOL0     H51381   3.611   9.559   0.415  0.6589  1.4136  0.1485
  381MOL0     H51382   3.736   9.612   0.229  1.4872 -0.3740 -0.8813
  381MOL0     H51383   3.865   9.489   0.241 -1.2822 -0.1980 -3.7945
  381MOL0     H51384   3.572   9.441   0.192 -0.3445  0.0171 -1.3376
  381MOL0     H51385   3.691   9.311   0.214 -0.9049  0.7557 -0.0361
  381MOL0     H51386   3.803   9.221   0.003 -0.6994 -0.8214 -2.6555
  381MOL0     H51387   3.878   9.183  -0.224 -1.7570 -1.5247 -1.4992
  381MOL0     H51388   3.726   9.220  -0.314 -0.1117  0.9979  0.4158
  381MOL0     H51389   3.967   9.402  -0.317 -1.1362 -0.6499  1.0156
  381MOL0     H51390   3.844   9.381  -0.430 -0.2089 -0.1864  0.1741
  381MOL0     H51391   4.049   9.282  -0.524 -0.7944 -1.9247 -1.6422
  381MOL0     H51392   3.943   9.140  -0.471 -1.7693  0.3958 -0.4046
  381MOL0     H51393   4.182   9.147  -0.441  1.5876  0.5407  0.3882
  381MOL0     H51394   4.103   9.121  -0.287  0.2197 -2.7834 -2.0399
  381MOL0     H51395   4.242   9.562  -0.371 -0.5857 -0.1795 -3.0228
  381MOL0     H51396   4.327   9.736  -0.471  1.0055  0.4327  2.3682
  381MOL0     H51397   4.508   9.749  -0.451  1.5034 -0.9867 -0.5731
  381MOL0     H51398   4.427   9.718  -0.608 -0.1170 -2.1626  0.1138
  381MOL0     H51399   4.908   9.602  -0.432 -2.0569 -2.9270  0.0156
  381MOL0     H51400   5.132   9.704  -0.493 -1.0286  0.7607  0.1507
  381MOL0     H51401   5.188   9.645  -0.913 -2.1293  0.0874  1.5902
  381MOL0     H51402   5.159   9.783  -0.825  0.7276  0.9939  1.6956
  381MOL0     H51403   5.444   9.691  -0.879 -1.3756 -2.5836 -2.4418
  381MOL0     H51404   5.357   9.826  -0.965 -0.7080  0.1541  0.6473
  381MOL0     H51405   5.440   9.822  -0.675 -1.1458  0.6931  0.3963
  381MOL0     H51406   5.330   9.942  -0.740  0.8768  0.9208  0.6461
  381MOL0     H51407   5.601   9.876  -0.852  0.9207  0.4477  1.4293
  381MOL0     H51408   5.495  10.018  -0.898 -0.2291 -1.2201 -0.2269
  381MOL0     H51409   5.594   9.987  -0.619  0.9891  1.7175  2.2796
  381MOL0     H51410   5.501  10.122  -0.685  1.3795  0.1646  3.4374
  381MOL0     H51411   5.783  10.059  -0.794  0.8869 -0.2034  0.2553
  381MOL0     H51412   5.704  10.215  -0.790 -0.6027  0.0333 -0.0972
  381MOL0     H51413   5.827  10.064  -0.561 -0.9604  0.3000  1.0821
  381MOL0     H51414   5.729  10.205  -0.530  0.6880 -4.1589  2.7096
  381MOL0     H51415   5.906  10.287  -0.732  0.6127 -1.0294 -0.3479
  381MOL0     H51416   6.004  10.179  -0.634  0.1119  0.3292  0.1743
  381MOL0     H51417   5.125   9.446  -0.842 -2.7880  2.3707 -2.7687
  381MOL0     H51418   4.914   9.358  -0.792  2.7700 -0.3590 -0.8737
  381MOL0     H51419   4.581   9.256  -0.548 -0.7845 -0.8443  0.6660
  381MOL0     H51420   4.390   9.158  -0.412 -0.4352  0.6680  2.9866
  381MOL0     H51421   4.215   9.425   0.933 -0.0149  0.2775 -0.3274
  381MOL0     H51422   4.418   9.476   1.053  1.3930  0.2811  1.0722
  381MOL0     H51423   4.567   9.758   1.633  0.4969  0.3948 -0.3912
  381MOL0     H51424   4.795   9.765   1.720 -2.3916  0.0742  0.7139
  381MOL0     H51425   5.018   9.823   1.703  0.2139  0.4299  1.3702
  381MOL0     H51426   5.041   9.673   1.801 -1.8490 -0.7806 -0.8645
  381MOL0     H51427   5.249   9.619   1.720 -0.6744 -0.0432  0.4262
  381MOL0     H51428   5.251   9.790   1.773  1.4353 -0.6385 -1.8731
  381MOL0     H51429   5.213   9.857   1.530 -1.2511 -1.1842 -0.6362
  381MOL0     H51430   5.272   9.693   1.488  0.3213  0.0504  0.7170
  381MOL0     H51431   5.426   9.890   1.654  2.2215  1.2817 -1.8865
  381MOL0     H51432   5.435   9.873   1.483 -0.8074  0.2707 -0.0363
  381MOL0     H51433   5.672   9.551   1.594  0.0429  0.7512 -0.0609
  381MOL0     H51434   4.927   9.514   1.414  2.3439  3.8127  0.8548
  381MOL0     H51435   4.693   9.486   1.325 -0.9270  2.3057 -1.2923
  382MOL0     O51436   8.536   5.631   7.575  0.2989  0.3897  0.3171
  382MOL0     C51437   8.508   5.698   7.476 -0.1594  0.4706  0.4719
  382MOL0     O51438   8.385   5.714   7.427 -0.0857 -0.4632 -0.2521
  382MOL0     C51439   8.268   5.661   7.471  0.6211 -0.0806 -0.2523
  382MOL0     C51440   8.237   5.603   7.595 -0.4559 -0.8600  0.1256
  382MOL0     C51441   8.116   5.534   7.619  0.2281  0.3065 -0.7814
  382MOL0     C51442   8.030   5.519   7.508  0.3356 -0.2090 -0.0415
  382MOL0     O51443   7.918   5.440   7.517 -0.2386  0.7935  0.2995
  382MOL0     C51444   7.869   5.396   7.642 -0.1961  0.3501  0.4575
  382MOL0     C51445   7.739   5.294   7.624  0.0732 -0.4757 -0.0833
  382MOL0     C51446   7.625   5.331   7.721  1.3062  0.0781 -0.9336
  382MOL0     C51447   7.489   5.257   7.690 -0.8636  0.2651 -0.6202
  382MOL0     C51448   7.392   5.267   7.807  0.8667 -0.0981  0.4126
  382MOL0     C51449   7.262   5.188   7.784  0.1866  0.3627 -0.8624
  382MOL0     C51450   7.158   5.214   7.886 -0.1013 -0.2948 -0.3619
  382MOL0     C51451   7.022   5.155   7.842  0.7153 -0.7486  0.2889
  382MOL0     N51452   6.904   5.168   7.934 -0.3472  0.2384  0.2427
  382MOL0     C51453   6.771   5.135   7.903  0.2706 -0.4292 -0.3640
  382MOL0     C51454   6.698   5.182   8.002  0.0268  1.0663  0.3791
  382MOL0     C51455   6.547   5.176   7.997  0.4477 -0.2337  0.3082
  382MOL0     C51456   6.498   5.100   8.117  0.2483 -0.4851  0.1990
  382MOL0     C51457   6.368   5.034   8.111  0.3994  0.2055  0.5594
  382MOL0     C51458   6.251   5.132   8.079  0.1770 -0.6692  0.4690
  382MOL0     O51459   6.126   5.069   8.086 -0.0381 -0.2944 -0.2021
  382MOL0     C51460   6.011   5.148   8.096 -0.2622  0.1898 -0.0983
  382MOL0     C51461   5.991   5.253   8.002  0.7390 -0.1524 -0.3784
  382MOL0     C51462   5.874   5.330   7.999 -0.0863  0.2404  0.8985
  382MOL0     C51463   5.866   5.442   7.887  0.1159  0.4396  0.4453
  382MOL0     C51464   5.763   5.300   8.088  0.3852 -0.4688  0.6546
  382MOL0     C51465   5.630   5.370   8.080  0.4144 -0.2086  0.3332
  382MOL0     O51466   5.531   5.308   8.149 -0.2811  0.2315  0.2975
  382MOL0     C51467   5.425   5.384   8.198 -0.7201  1.4552  0.4104
  382MOL0     C51468   5.401   5.373   8.330 -0.1447  0.6642  0.6312
  382MOL0     C51469   5.286   5.435   8.388 -0.3725 -0.3289  0.2877
  382MOL0     C51470   5.209   5.523   8.305 -1.6163 -0.4303 -0.4803
  382MOL0     O51471   5.099   5.587   8.354 -0.1058  0.5215 -1.1305
  382MOL0     C51472   5.104   5.619   8.492  0.4557 -0.0046  0.9707
  382MOL0     C51473   4.974   5.694   8.524 -0.2369  0.1255  0.2483
  382MOL0     C51474   4.845   5.613   8.504 -0.6594  0.4535  0.2358
  382MOL0     C51475   4.726   5.643   8.610 -0.2406  0.4641 -0.6148
  382MOL0     C51476   4.648   5.760   8.566 -0.5383  0.3493  0.0103
  382MOL0     C51477   4.527   5.790   8.657  0.1989  0.1098 -0.3007
  382MOL0     C51478   4.426   5.675   8.647  0.5257 -0.3766  1.1331
  382MOL0     C51479   4.300   5.707   8.724  0.2408 -0.5086  0.2056
  382MOL0    Cl51480   4.213   5.835   8.629  0.0208 -0.0513  0.3148
  382MOL0     C51481   5.241   5.529   8.168 -0.1330  0.1211  0.3122
  382MOL0     C51482   5.347   5.453   8.118  0.3593 -0.4340 -0.3176
  382MOL0     O51483   5.621   5.483   8.037 -0.0142 -0.5272 -0.2506
  382MOL0     C51484   5.789   5.197   8.177  0.3042 -1.0014 -0.4483
  382MOL0     C51485   5.913   5.129   8.195 -0.8309  0.0454  0.2114
  382MOL0     N51486   6.784   5.246   8.086  0.0161  0.1868  1.1364
  382MOL0     N51487   6.905   5.244   8.044 -0.0476  0.0293  0.0980
  382MOL0     C51488   8.055   5.573   7.382 -0.3760 -0.7683  0.1418
  382MOL0     C51489   8.169   5.657   7.368  0.5406 -0.3948  0.4828
  382MOL0     C51490   8.613   5.773   7.404  0.5717 -0.7054 -0.0044
  382MOL0     C51491   8.747   5.774   7.448 -0.5085 -0.1221 -0.2463
  382MOL0     C51492   8.848   5.847   7.374  0.6571 -0.1277 -0.1412
  382MOL0     C51493   8.819   5.906   7.252  0.1107  0.9265  0.3836
  382MOL0     O51494   8.910   5.952   7.151  0.0199  0.4800 -0.1159
  382MOL0     C51495   9.043   5.980   7.185  0.4964  0.7554 -1.0805
  382MOL0     C51496   9.061   6.134   7.213  0.2419 -0.2146  0.2483
  382MOL0     C51497   9.032   6.213   7.085 -0.4841 -0.0434 -0.5940
  382MOL0     C51498   9.077   6.359   7.081  0.6227 -0.3664 -0.5260
  382MOL0     C51499   9.019   6.420   7.204 -0.6914 -0.5790  0.3028
  382MOL0     C51500   8.959   6.493   7.288  0.4305 -0.0680  0.7606
  382MOL0     C51501   8.683   5.909   7.211 -0.9305  0.2559 -0.2138
  382MOL0     C51502   8.586   5.853   7.284  0.0106 -0.0778 -0.1873
  382MOL0     H51503   8.313   5.590   7.672 -1.0727 -0.9810  0.7158
  382MOL0     H51504   8.097   5.497   7.719  0.2595  1.8595 -0.1744
  382MOL0     H51505   7.943   5.335   7.694 -1.6570 -1.6963  0.2467
  382MOL0     H51506   7.850   5.479   7.711  2.1890  1.8904 -0.6223
  382MOL0     H51507   7.702   5.298   7.522 -2.2156 -2.4707  0.5885
  382MOL0     H51508   7.744   5.189   7.653  0.9534 -0.4088  0.0477
  382MOL0     H51509   7.651   5.320   7.826 -2.6984 -0.8358  0.1311
  382MOL0     H51510   7.602   5.437   7.710 -2.4932 -0.3448  1.3687
  382MOL0     H51511   7.436   5.316   7.616  0.0957  4.0320  1.4338
  382MOL0     H51512   7.505   5.154   7.656  0.1469  0.5869 -1.1546
  382MOL0     H51513   7.441   5.223   7.894  1.2961 -0.8563 -0.2022
  382MOL0     H51514   7.357   5.369   7.828  2.3459  0.6511 -0.5852
  382MOL0     H51515   7.237   5.218   7.682  3.6972 -1.4779 -2.4370
  382MOL0     H51516   7.293   5.083   7.786 -4.4994 -1.2443 -0.1844
  382MOL0     H51517   7.186   5.162   7.978  0.2611 -0.1860 -0.4101
  382MOL0     H51518   7.151   5.319   7.914  1.1104 -0.1152 -0.6610
  382MOL0     H51519   7.033   5.048   7.824  1.9975 -0.5787  0.0144
  382MOL0     H51520   6.994   5.180   7.740  0.6698 -0.6894  0.3162
  382MOL0     H51521   6.738   5.083   7.814  0.6091 -2.8109  0.8288
  382MOL0     H51522   6.491   5.270   7.996  0.3145 -0.2813  1.4007
  382MOL0     H51523   6.522   5.121   7.906  1.8786 -0.4881  0.0480
  382MOL0     H51524   6.500   5.173   8.199  3.6726  0.1599 -0.3290
  382MOL0     H51525   6.578   5.027   8.134  0.9224  0.4569  1.2169
  382MOL0     H51526   6.347   4.995   8.211 -1.8132 -0.1049  0.0338
  382MOL0     H51527   6.363   4.954   8.038 -0.9190  1.0940 -0.3910
  382MOL0     H51528   6.269   5.169   7.978 -1.6852  0.7113  0.5941
  382MOL0     H51529   6.252   5.215   8.150 -1.8526  0.0866 -0.3381
  382MOL0     H51530   6.075   5.280   7.939 -0.3990  0.1422 -1.8035
  382MOL0     H51531   5.832   5.543   7.910  2.5111  1.6969 -1.0903
  382MOL0     H51532   5.966   5.452   7.844  0.2370 -0.9792  0.3370
  382MOL0     H51533   5.808   5.402   7.803  2.4119  2.2836 -2.1931
  382MOL0     H51534   5.466   5.309   8.389 -4.7077 -1.8608  3.5604
  382MOL0     H51535   5.272   5.406   8.491  1.8066  0.4634  0.8665
  382MOL0     H51536   5.114   5.531   8.557 -1.2396 -0.8168  0.1936
  382MOL0     H51537   5.191   5.682   8.513  1.0567 -0.2695 -0.5882
  382MOL0     H51538   4.974   5.723   8.630  0.3712 -1.6633  0.7664
  382MOL0     H51539   4.978   5.783   8.460  0.4373 -0.6178 -0.7738
  382MOL0     H51540   4.869   5.506   8.513 -1.4639  0.2937  0.6022
  382MOL0     H51541   4.797   5.618   8.406 -1.0695  0.7844  0.4492
  382MOL0     H51542   4.661   5.555   8.606 -1.2897  1.1132  1.0584
  382MOL0     H51543   4.766   5.648   8.711 -2.3612 -2.5911  0.5225
  382MOL0     H51544   4.614   5.749   8.463  0.9893  0.1525 -0.5004
  382MOL0     H51545   4.716   5.845   8.581 -0.0541 -0.3865  2.3396
  382MOL0     H51546   4.558   5.807   8.761  1.5372  2.0257 -0.9463
  382MOL0     H51547   4.481   5.887   8.634  3.0744  1.9801  1.1771
  382MOL0     H51548   4.471   5.581   8.682  1.0772  0.3578  2.4560
  382MOL0     H51549   4.395   5.670   8.542  0.9288  2.0732  0.8438
  382MOL0     H51550   4.314   5.741   8.827  1.2805  2.0027 -0.6864
  382MOL0     H51551   4.235   5.619   8.724  2.1522 -2.0146 -0.9294
  382MOL0     H51552   5.169   5.581   8.106 -0.6368 -2.4028 -1.3974
  382MOL0     H51553   5.359   5.458   8.010  3.5294  1.6790 -0.0095
  382MOL0     H51554   5.712   5.157   8.241  0.9248  0.0912  1.0239
  382MOL0     H51555   5.912   5.042   8.259  0.8410 -1.3459 -1.5494
  382MOL0     H51556   7.978   5.577   7.306  0.3509  1.0104 -0.5624
  382MOL0     H51557   8.186   5.708   7.274  0.5740 -1.1731  0.0645
  382MOL0     H51558   8.770   5.715   7.536  0.8549  1.1182  0.2827
  382MOL0     H51559   8.946   5.851   7.419  0.0266 -0.0703  1.2991
  382MOL0     H51560   9.078   5.919   7.269  0.9886 -0.3668 -2.0798
  382MOL0     H51561   9.101   5.958   7.095 -0.7611  0.9413 -1.9746
  382MOL0     H51562   9.162   6.160   7.244 -0.9293  1.8011  2.6963
  382MOL0     H51563   9.002   6.165   7.300  0.7343 -0.4541  0.6704
  382MOL0     H51564   8.925   6.210   7.061 -0.6385  1.6332 -0.2090
  382MOL0     H51565   9.078   6.156   7.004 -0.0998  0.9744 -1.1050
  382MOL0     H51566   9.044   6.407   6.988  0.3946  0.8829  0.1796
  382MOL0     H51567   9.186   6.368   7.076  0.5807  1.7383  0.9599
  382MOL0     H51568   8.911   6.557   7.360 -2.4070  1.4336 -2.1882
  382MOL0     H51569   8.671   5.929   7.105  0.5596 -4.1693 -1.4567
  382MOL0     H51570   8.488   5.853   7.238 -0.1169  1.6934  0.0148
  383MOL0     O51571   8.400   0.962   9.720 -0.3563 -0.0159 -0.6496
  383MOL0     C51572   8.326   1.061   9.723 -0.1781 -0.1231 -0.0284
  383MOL0     O51573   8.202   1.065   9.784 -0.5692  0.0118  0.8885
  383MOL0     C51574   8.145   0.943   9.821  0.4072  0.0423 -0.7955
  383MOL0     C51575   8.010   0.942   9.802  0.5006  0.8336 -0.7441
  383MOL0     C51576   7.933   0.827   9.827  0.1315  0.0826 -1.2745
  383MOL0     C51577   7.993   0.712   9.870  0.0146 -0.4660 -0.4290
  383MOL0     O51578   7.912   0.606   9.876  0.1995 -0.2908 -0.0161
  383MOL0     C51579   7.970   0.475   9.899 -0.2291 -0.9947  0.6598
  383MOL0     C51580   7.850   0.370   9.924  0.4346 -0.1865 -0.1915
  383MOL0     C51581   7.767   0.337   9.796 -1.3551 -0.3633  0.3151
  383MOL0     C51582   7.654   0.253   9.834 -0.3843  0.9786  0.1448
  383MOL0     C51583   7.573   0.215   9.711  0.4824  0.4807  0.0841
  383MOL0     C51584   7.486   0.331   9.664  0.5818  0.4220  0.7787
  383MOL0     C51585   7.368   0.357   9.763 -0.4061 -0.2349  0.8509
  383MOL0     C51586   7.268   0.237   9.774  0.2379  0.4603 -0.3595
  383MOL0     N51587   7.199   0.196   9.655  0.4405 -0.1894 -0.9539
  383MOL0     C51588   7.108   0.273   9.592  0.5537 -0.0589  0.1336
  383MOL0     C51589   7.081   0.213   9.475 -0.2643 -0.0883  0.3364
  383MOL0     C51590   6.973   0.249   9.380  0.6587 -1.0282  0.3219
  383MOL0     C51591   6.844   0.263   9.445  0.0103  0.3015  0.4374
  383MOL0     C51592   6.728   0.304   9.354 -0.3283 -0.4727 -0.0243
  383MOL0     C51593   6.595   0.258   9.417 -0.4411 -0.6845 -0.1445
  383MOL0     O51594   6.572   0.118   9.401 -0.6097 -0.0229 -0.1932
  383MOL0     C51595   6.556   0.048   9.515 -0.4634 -0.5219  0.0157
  383MOL0     C51596   6.440   0.080   9.589 -0.1695 -0.4646  0.2210
  383MOL0     C51597   6.403  -0.002   9.696  0.5652 -0.6320 -0.7018
  383MOL0     C51598   6.266   0.028   9.764 -0.5832  1.2700  0.2844
  383MOL0     C51599   6.482  -0.116   9.734  0.0539  0.9791  0.0277
  383MOL0     C51600   6.441  -0.217   9.837 -0.1440  0.5865 -0.2240
  383MOL0     O51601   6.539  -0.290   9.892 -0.5170 -0.2458 -0.2206
  383MOL0     C51602   6.522  -0.376   9.997  0.8814 -0.2258  0.0668
  383MOL0     C51603   6.451  -0.341  10.113  0.4676  1.3347  0.1033
  383MOL0     C51604   6.441  -0.427  10.229  0.1147  0.2880 -0.2711
  383MOL0     C51605   6.494  -0.554  10.211 -0.0861  0.8629  0.8695
  383MOL0     O51606   6.488  -0.642  10.318  0.0900  0.1764 -0.2324
  383MOL0     C51607   6.522  -0.780  10.296 -0.3213  0.2966  0.2322
  383MOL0     C51608   6.424  -0.839  10.201 -0.3832  0.9590 -0.9207
  383MOL0     C51609   6.444  -0.997  10.211  0.6320 -0.1095  0.6604
  383MOL0     C51610   6.334  -1.054  10.303 -0.0598  0.2560  0.4765
  383MOL0     C51611   6.372  -1.062  10.451  0.2191  0.9754  0.3638
  383MOL0     C51612   6.252  -1.081  10.554  0.8490 -0.3051 -0.0400
  383MOL0     C51613   6.311  -1.081  10.697 -0.6818 -0.3663  0.3504
  383MOL0     C51614   6.344  -0.946  10.763  0.3107  0.0130 -1.1876
  383MOL0    Cl51615   6.515  -0.890  10.700  0.0186 -0.1028 -0.0421
  383MOL0     C51616   6.561  -0.590  10.088  0.2346 -0.2876 -0.1453
  383MOL0     C51617   6.578  -0.503   9.983  0.1034  0.1555 -0.5820
  383MOL0     O51618   6.326  -0.234   9.864  0.4758 -0.6292 -0.4771
  383MOL0     C51619   6.601  -0.131   9.665  0.3755 -0.1797 -0.2374
  383MOL0     C51620   6.638  -0.056   9.552 -0.0168  0.7395 -0.5259
  383MOL0     N51621   7.161   0.095   9.476 -0.4099 -0.0531  0.2896
  383MOL0     N51622   7.236   0.094   9.576 -0.5408 -0.2965 -0.0510
  383MOL0     C51623   8.135   0.715   9.895 -0.3307  0.0061  0.0381
  383MOL0     C51624   8.209   0.830   9.872  0.0157  0.7212  0.3323
  383MOL0     C51625   8.368   1.183   9.660  0.1812  0.4035 -0.0782
  383MOL0     C51626   8.300   1.305   9.665  0.1024  0.7614  0.0462
  383MOL0     C51627   8.337   1.404   9.585 -0.2750 -0.2233 -0.0974
  383MOL0     C51628   8.457   1.396   9.507  0.0116  0.4212 -0.3457
  383MOL0     O51629   8.471   1.507   9.428 -0.0650 -0.8413  0.4419
  383MOL0     C51630   8.587   1.519   9.350  0.6044 -0.1656 -0.6111
  383MOL0     C51631   8.586   1.429   9.222 -0.5600 -0.4592 -0.1406
  383MOL0     C51632   8.582   1.511   9.099  0.0810 -0.1873 -0.2200
  383MOL0     C51633   8.442   1.569   9.057 -0.4615 -0.1940 -0.5149
  383MOL0     C51634   8.343   1.464   9.069 -0.1857 -0.0947 -0.5622
  383MOL0     C51635   8.260   1.374   9.078 -0.0281  0.0014 -0.2911
  383MOL0     C51636   8.537   1.281   9.510  0.0533  0.2356 -0.2814
  383MOL0     C51637   8.494   1.178   9.590  0.0368  0.5937  0.0020
  383MOL0     H51638   7.958   1.028   9.761  0.2907  0.4596 -1.2821
  383MOL0     H51639   7.825   0.834   9.812  0.4388 -0.4754 -4.4279
  383MOL0     H51640   8.023   0.445   9.808  1.7151  4.0462 -0.1864
  383MOL0     H51641   8.035   0.478   9.987 -2.0194  0.9940  1.9967
  383MOL0     H51642   7.892   0.283   9.975 -0.2120 -0.2411  0.2648
  383MOL0     H51643   7.790   0.415  10.005  0.5644 -3.8840  2.1938
  383MOL0     H51644   7.744   0.431   9.745 -0.9211 -1.4527 -1.9904
  383MOL0     H51645   7.831   0.293   9.719  0.0926  1.4405  0.4161
  383MOL0     H51646   7.707   0.167   9.875  1.4279  2.2869  0.6275
  383MOL0     H51647   7.588   0.286   9.915 -3.4402 -2.6757 -0.5544
  383MOL0     H51648   7.649   0.175   9.643  3.2517 -2.6880  4.3941
  383MOL0     H51649   7.512   0.127   9.735  2.8393 -1.4999 -0.6601
  383MOL0     H51650   7.554   0.417   9.662  2.1491 -0.7905 -1.5095
  383MOL0     H51651   7.453   0.311   9.562  1.1342  0.4995  0.5812
  383MOL0     H51652   7.413   0.390   9.858  1.1042  1.2765 -0.3314
  383MOL0     H51653   7.308   0.437   9.720 -0.6183 -0.2442  1.1244
  383MOL0     H51654   7.189   0.274   9.840  1.1104  0.6776  0.5958
  383MOL0     H51655   7.318   0.150   9.817 -1.2634 -0.1172  0.2938
  383MOL0     H51656   7.056   0.360   9.631 -1.5826 -0.6587 -1.1939
  383MOL0     H51657   6.993   0.350   9.342 -2.2146 -0.2500  0.6352
  383MOL0     H51658   6.971   0.172   9.303 -1.1361 -0.9141  0.2284
  383MOL0     H51659   6.849   0.342   9.520  1.3385  1.1369 -0.4928
  383MOL0     H51660   6.810   0.165   9.481 -1.4369  0.3306 -0.7720
  383MOL0     H51661   6.749   0.253   9.260  1.3239 -0.9840  0.5901
  383MOL0     H51662   6.728   0.413   9.344 -3.8500 -0.4627 -1.4411
  383MOL0     H51663   6.519   0.325   9.378 -0.4662 -1.0339 -0.7224
  383MOL0     H51664   6.604   0.292   9.520 -4.4027 -0.0412  0.1238
  383MOL0     H51665   6.370   0.156   9.556  0.6471 -0.7150 -2.2898
  383MOL0     H51666   6.225   0.127   9.741 -2.4445  0.7462  1.2099
  383MOL0     H51667   6.193  -0.050   9.742  0.9861 -0.1805  0.1016
  383MOL0     H51668   6.277   0.016   9.872 -3.2165 -0.3269  0.4421
  383MOL0     H51669   6.410  -0.241  10.126 -0.3884  0.9933  0.0978
  383MOL0     H51670   6.403  -0.396  10.326  1.5089  1.3234 -0.0246
  383MOL0     H51671   6.625  -0.785  10.262 -0.3869  1.3289 -0.1448
  383MOL0     H51672   6.525  -0.828  10.395 -0.4926 -1.0037 -0.3690
  383MOL0     H51673   6.320  -0.820  10.231 -0.2591 -1.3792  1.3329
  383MOL0     H51674   6.448  -0.793  10.105  3.9724  1.0126  0.0177
  383MOL0     H51675   6.541  -1.024  10.254  1.3689  1.0190 -0.2454
  383MOL0     H51676   6.430  -1.037  10.110  0.6825 -1.9069  1.3235
  383MOL0     H51677   6.241  -0.997  10.294 -0.6893 -0.7252  0.5341
  383MOL0     H51678   6.307  -1.151  10.259 -0.4085  0.7063 -0.3180
  383MOL0     H51679   6.430  -0.974  10.478  2.4942 -1.0314  2.5555
  383MOL0     H51680   6.437  -1.148  10.470 -1.3417 -0.0362  1.3711
  383MOL0     H51681   6.172  -1.008  10.544  1.7739  0.8995  1.0590
  383MOL0     H51682   6.212  -1.182  10.540  0.5692 -0.8378  3.7360
  383MOL0     H51683   6.400  -1.143  10.709  0.6070  1.5141  1.0549
  383MOL0     H51684   6.233  -1.116  10.766 -0.5337 -2.0143 -0.2923
  383MOL0     H51685   6.341  -0.952  10.872  1.3797  3.5324 -0.8544
  383MOL0     H51686   6.266  -0.875  10.736 -1.7935 -1.8180 -0.2232
  383MOL0     H51687   6.609  -0.686  10.071  0.6116  0.1373 -1.6765
  383MOL0     H51688   6.635  -0.545   9.901  0.5152 -2.2352  0.8059
  383MOL0     H51689   6.674  -0.209   9.682  0.6102  0.1696  0.4294
  383MOL0     H51690   6.725  -0.061   9.487  0.2944  0.9603 -0.1271
  383MOL0     H51691   8.196   0.634   9.934 -1.3621  0.8575  3.8350
  383MOL0     H51692   8.313   0.837   9.902 -0.1617  1.5563  0.7721
  383MOL0     H51693   8.198   1.304   9.704  0.7161 -0.7075  1.7155
  383MOL0     H51694   8.270   1.489   9.571 -0.4784 -0.3891 -0.1232
  383MOL0     H51695   8.592   1.623   9.317  0.0106  0.6322  1.5996
  383MOL0     H51696   8.672   1.486   9.410  1.8771 -0.2826 -2.3972
  383MOL0     H51697   8.505   1.356   9.221 -1.0769  0.1085 -0.4698
  383MOL0     H51698   8.682   1.376   9.229 -1.8519 -2.6980  2.3564
  383MOL0     H51699   8.590   1.450   9.008 -3.2023  1.7091 -1.9783
  383MOL0     H51700   8.664   1.583   9.101  0.2677 -0.4147  0.7947
  383MOL0     H51701   8.443   1.620   8.960  1.5349  2.2551  0.6705
  383MOL0     H51702   8.424   1.645   9.134  1.1565 -0.6222  0.3295
  383MOL0     H51703   8.192   1.292   9.088  1.7261 -1.5546 -0.5310
  383MOL0     H51704   8.626   1.275   9.447 -1.7103  2.7124 -3.2922
  383MOL0     H51705   8.559   1.092   9.604 -2.0357 -1.1125 -0.4464
  384MOL0     O51706   0.455  10.639  11.173  0.9127 -0.5687  0.3391
  384MOL0     C51707   0.429  10.640  11.293  0.3907 -0.0521 -0.3374
  384MOL0     O51708   0.353  10.734  11.356 -0.3223  0.7474  0.2725
  384MOL0     C51709   0.273  10.818  11.282  0.1624 -0.0583 -0.6087
  384MOL0     C51710   0.139  10.824  11.319 -0.0612  0.0400  0.6569
  384MOL0     C51711   0.062  10.924  11.263  0.1634 -0.5503  0.1985
  384MOL0     C51712   0.113  11.023  11.177  0.2948 -0.1996 -0.5085
  384MOL0     O51713   0.040  11.131  11.121 -0.3855  0.4346  0.0033
  384MOL0     C51714  -0.066  11.178  11.215 -0.2584  1.3628  0.3613
  384MOL0     C51715  -0.203  11.118  11.169  0.6375  0.1729  0.2057
  384MOL0     C51716  -0.317  11.168  11.262 -0.1314 -0.4251  0.0508
  384MOL0     C51717  -0.453  11.159  11.196  0.0617  0.7800 -0.7238
  384MOL0     C51718  -0.554  11.217  11.289  1.0264  0.4783  0.0853
  384MOL0     C51719  -0.688  11.226  11.211 -0.6900  0.3939  0.9044
  384MOL0     C51720  -0.819  11.262  11.294  0.9343  0.0935  0.1052
  384MOL0     C51721  -0.935  11.272  11.193  0.0039 -0.5155 -0.0603
  384MOL0     N51722  -1.072  11.290  11.246 -0.1080  0.3509  0.2343
  384MOL0     C51723  -1.188  11.274  11.174 -0.5357  1.2038  0.5359
  384MOL0     C51724  -1.285  11.289  11.260  0.3219  0.5591 -0.8138
  384MOL0     C51725  -1.427  11.241  11.233 -0.6649  1.0002 -0.4538
  384MOL0     C51726  -1.503  11.233  11.366  0.8046 -0.0329 -0.3347
  384MOL0     C51727  -1.658  11.222  11.357  0.3002 -0.2216 -0.2335
  384MOL0     C51728  -1.717  11.205  11.500  0.3275  0.2881  1.2050
  384MOL0     O51729  -1.848  11.148  11.494 -0.2281  0.1775  0.0662
  384MOL0     C51730  -1.952  11.232  11.522  0.3719  0.3200 -0.4221
  384MOL0     C51731  -1.950  11.309  11.640 -0.4707  0.0907 -0.0954
  384MOL0     C51732  -2.052  11.392  11.674 -0.3120 -0.0949 -0.2219
  384MOL0     C51733  -2.038  11.472  11.802  0.4247 -0.5831  0.5987
  384MOL0     C51734  -2.157  11.423  11.583 -0.1066  0.2613  0.0793
  384MOL0     C51735  -2.261  11.527  11.607 -0.6383 -0.0543 -0.4337
  384MOL0     O51736  -2.381  11.493  11.563  0.4323 -0.5008 -0.3551
  384MOL0     C51737  -2.499  11.548  11.614  0.3772 -0.3159  0.8412
  384MOL0     C51738  -2.611  11.532  11.532  1.2529  0.1065 -0.3707
  384MOL0     C51739  -2.732  11.590  11.574  0.4094 -0.1622 -0.1266
  384MOL0     C51740  -2.745  11.638  11.709  0.3864 -0.3949 -0.2502
  384MOL0     O51741  -2.865  11.674  11.759 -0.3129  0.7839  0.4461
  384MOL0     C51742  -2.965  11.714  11.666 -0.4863  0.3591 -0.1554
  384MOL0     C51743  -3.066  11.804  11.735 -0.1325 -0.1200  0.4142
  384MOL0     C51744  -3.128  11.707  11.849 -1.0725 -0.6780  0.0824
  384MOL0     C51745  -3.273  11.734  11.874 -0.5289 -0.1213  0.0980
  384MOL0     C51746  -3.346  11.632  11.960  0.0130  0.1789  0.2656
  384MOL0     C51747  -3.488  11.676  11.978  0.1121  0.3495 -0.4019
  384MOL0     C51748  -3.569  11.678  11.850  0.3547 -0.8205  0.1972
  384MOL0     C51749  -3.697  11.590  11.846  0.2913 -0.8108  0.3815
  384MOL0    Cl51750  -3.821  11.669  11.954  0.3356 -0.3222 -0.2262
  384MOL0     C51751  -2.632  11.646  11.791  0.3561 -0.8823  0.4130
  384MOL0     C51752  -2.518  11.609  11.741 -0.3679 -1.1997  0.4701
  384MOL0     O51753  -2.226  11.637  11.635  0.4474 -0.8267 -0.6109
  384MOL0     C51754  -2.156  11.341  11.468  0.0820  0.7254 -0.3888
  384MOL0     C51755  -2.062  11.247  11.444 -0.0095  0.3487 -0.6101
  384MOL0     N51756  -1.233  11.343  11.382 -0.4036  0.3090 -0.1570
  384MOL0     N51757  -1.108  11.344  11.367 -0.0371 -0.4009 -0.8499
  384MOL0     C51758   0.249  11.005  11.140  0.6525 -0.2658 -0.0658
  384MOL0     C51759   0.329  10.904  11.192  0.4379 -0.0432  0.5604
  384MOL0     C51760   0.510  10.546  11.377 -0.5263  0.0910  0.5961
  384MOL0     C51761   0.498  10.523  11.512 -0.3624 -0.2885 -0.1254
  384MOL0     C51762   0.581  10.426  11.575  0.3754  0.7067 -0.5558
  384MOL0     C51763   0.669  10.342  11.500  0.1691 -0.2032  0.3689
  384MOL0     O51764   0.746  10.254  11.574 -0.1993  0.1120  0.7085
  384MOL0     C51765   0.869  10.223  11.512 -0.0034  0.3470 -0.0924
  384MOL0     C51766   0.954  10.125  11.602 -0.1103 -0.3110 -0.3947
  384MOL0     C51767   1.079  10.073  11.522  0.8099 -0.4870  0.0985
  384MOL0     C51768   1.041   9.941  11.450 -0.3884 -0.4996  0.3149
  384MOL0     C51769   1.149   9.905  11.365 -0.8231  0.3897 -0.1972
  384MOL0     C51770   1.232   9.866  11.287  0.1360  0.0792  0.2029
  384MOL0     C51771   0.675  10.358  11.360 -1.1793 -1.1395 -0.6851
  384MOL0     C51772   0.605  10.461  11.299  0.6942 -0.4751  0.4000
  384MOL0     H51773   0.099  10.757  11.394 -1.4369 -0.3438 -0.3691
  384MOL0     H51774  -0.043  10.921  11.293 -0.7619 -1.4061 -2.8328
  384MOL0     H51775  -0.052  11.152  11.320 -3.0298  2.9532  1.2143
  384MOL0     H51776  -0.054  11.286  11.222  1.5445  1.5003 -2.7964
  384MOL0     H51777  -0.241  11.155  11.074 -1.0004 -1.1265  0.3275
  384MOL0     H51778  -0.200  11.009  11.164  1.1816  0.2442 -2.2910
  384MOL0     H51779  -0.323  11.118  11.359  1.6018 -0.7705  0.0230
  384MOL0     H51780  -0.288  11.272  11.284  2.9210 -1.1067 -0.2119
  384MOL0     H51781  -0.461  11.216  11.103  0.6817 -1.8453 -2.4861
  384MOL0     H51782  -0.469  11.055  11.166  1.6798  0.7722 -1.6304
  384MOL0     H51783  -0.583  11.152  11.373 -3.5011 -0.6176 -1.9897
  384MOL0     H51784  -0.530  11.312  11.337  2.5233 -0.6733  1.7501
  384MOL0     H51785  -0.667  11.294  11.129 -1.5701 -0.8810 -0.4316
  384MOL0     H51786  -0.703  11.128  11.164 -3.1111  0.2499  1.7847
  384MOL0     H51787  -0.839  11.182  11.366  0.8712  0.4971  0.5417
  384MOL0     H51788  -0.810  11.352  11.355  0.4840 -0.7922  1.5359
  384MOL0     H51789  -0.940  11.181  11.133  0.9577 -0.8799  0.3980
  384MOL0     H51790  -0.911  11.346  11.117  2.5449 -1.2735 -0.0748
  384MOL0     H51791  -1.198  11.246  11.069 -3.0543  0.0700  1.0030
  384MOL0     H51792  -1.475  11.315  11.168  0.4997  1.9893 -0.2164
  384MOL0     H51793  -1.421  11.142  11.186 -0.8409  1.3565 -1.2437
  384MOL0     H51794  -1.482  11.326  11.419 -1.8395  0.8048 -0.5928
  384MOL0     H51795  -1.475  11.141  11.419 -0.7034 -0.2313  0.1632
  384MOL0     H51796  -1.685  11.154  11.275 -0.0566  2.1593 -2.1993
  384MOL0     H51797  -1.701  11.319  11.332  0.1398  0.5167  2.6102
  384MOL0     H51798  -1.719  11.306  11.541  2.3501  0.9468 -0.1579
  384MOL0     H51799  -1.654  11.133  11.552  0.7121 -0.8119 -0.6689
  384MOL0     H51800  -1.866  11.291  11.707 -0.9575 -1.9880  0.0520
  384MOL0     H51801  -2.005  11.572  11.773 -1.5092 -0.0230  0.1741
  384MOL0     H51802  -2.136  11.475  11.852 -0.1450  2.9666 -0.4289
  384MOL0     H51803  -1.957  11.438  11.867 -0.6557 -1.7123  1.4136
  384MOL0     H51804  -2.611  11.470  11.443  0.7552 -0.6203  0.1208
  384MOL0     H51805  -2.813  11.576  11.504 -0.5880  2.4062  0.3931
  384MOL0     H51806  -2.913  11.786  11.602  1.3242 -0.7881 -0.0454
  384MOL0     H51807  -3.014  11.637  11.608 -0.8225  0.6899 -0.3154
  384MOL0     H51808  -3.022  11.892  11.783  1.0678 -0.1662 -0.5550
  384MOL0     H51809  -3.142  11.835  11.662  2.6191  0.4416 -2.3958
  384MOL0     H51810  -3.068  11.719  11.939  0.1665 -0.3585 -0.7477
  384MOL0     H51811  -3.126  11.604  11.810  2.4018 -1.4077  1.7211
  384MOL0     H51812  -3.295  11.835  11.908  1.3273  0.4965 -0.4256
  384MOL0     H51813  -3.324  11.726  11.778  0.6669  0.6286 -0.6223
  384MOL0     H51814  -3.298  11.613  12.056 -1.9339 -0.0480  1.2353
  384MOL0     H51815  -3.335  11.529  11.923  1.2955  0.2642  0.3590
  384MOL0     H51816  -3.534  11.612  12.054 -0.2027  3.1800  1.9540
  384MOL0     H51817  -3.498  11.777  12.018  0.3342  0.2125  0.0075
  384MOL0     H51818  -3.506  11.630  11.774 -0.3601 -0.0584 -0.9140
  384MOL0     H51819  -3.600  11.774  11.808  1.7364 -1.7517 -3.3265
  384MOL0     H51820  -3.677  11.490  11.887 -1.1922 -0.8044  1.1917
  384MOL0     H51821  -3.732  11.586  11.743 -0.0889  0.0437  0.4744
  384MOL0     H51822  -2.644  11.690  11.890 -2.3323 -0.8387  0.1514
  384MOL0     H51823  -2.439  11.614  11.816  0.4286  0.9293 -0.4426
  384MOL0     H51824  -2.237  11.349  11.397 -0.4994  2.8303  0.4399
  384MOL0     H51825  -2.061  11.188  11.353 -1.3814 -1.3121  0.4153
  384MOL0     H51826   0.306  11.083  11.092 -1.1819  0.8350 -0.5647
  384MOL0     H51827   0.437  10.902  11.188  0.6522  1.2579  3.3823
  384MOL0     H51828   0.433  10.588  11.568  0.4696 -0.4811  1.1071
  384MOL0     H51829   0.580  10.420  11.684  1.8824  0.4287 -0.5302
  384MOL0     H51830   0.846  10.170  11.419  0.2551 -1.6461  0.9049
  384MOL0     H51831   0.915  10.321  11.497 -0.3900  0.7996  1.5158
  384MOL0     H51832   0.892  10.038  11.627 -1.1734  0.1396 -1.3484
  384MOL0     H51833   0.990  10.163  11.697  0.2689 -2.3450  0.3407
  384MOL0     H51834   1.161  10.066  11.594  0.7210  0.8713  0.3686
  384MOL0     H51835   1.114  10.143  11.446  0.3174 -2.9048 -2.5086
  384MOL0     H51836   0.955   9.952  11.383  0.3678 -0.0719 -0.6028
  384MOL0     H51837   1.031   9.860  11.524  3.0564 -2.6085 -1.2673
  384MOL0     H51838   1.302   9.838  11.211  4.6281  1.6477  3.2817
  384MOL0     H51839   0.734  10.294  11.295  0.8787  0.6728 -0.6942
  384MOL0     H51840   0.632  10.482  11.196  1.4936 -1.5991  0.3622
  385MOL0     O51841   6.306   5.446   9.940 -0.4301  0.2584 -0.3540
  385MOL0     C51842   6.396   5.409   9.865  0.1623  0.0982 -0.6031
  385MOL0     O51843   6.379   5.400   9.734 -0.4419  0.4877  0.1302
  385MOL0     C51844   6.267   5.451   9.673 -0.8441 -0.1884  0.6838
  385MOL0     C51845   6.283   5.565   9.600  0.9007  0.2449  0.2111
  385MOL0     C51846   6.177   5.612   9.515  0.2026  0.9019  0.2280
  385MOL0     C51847   6.056   5.550   9.508  0.1656 -0.1038 -0.3012
  385MOL0     O51848   5.962   5.607   9.421  0.5162  0.3448 -0.5118
  385MOL0     C51849   5.826   5.572   9.428 -0.6758 -0.0785 -0.1476
  385MOL0     C51850   5.768   5.714   9.461  0.1936 -1.0171 -0.3391
  385MOL0     C51851   5.621   5.720   9.503  0.4414  0.1260 -0.8785
  385MOL0     C51852   5.523   5.680   9.382  0.8482  1.3119  0.3973
  385MOL0     C51853   5.379   5.726   9.419 -0.3623 -1.2752  0.7107
  385MOL0     C51854   5.297   5.741   9.295 -0.3173 -0.1081  0.3259
  385MOL0     C51855   5.175   5.836   9.308 -0.8980  0.5739  0.3454
  385MOL0     C51856   5.133   5.890   9.172  0.5331  0.3031 -0.3776
  385MOL0     N51857   4.998   5.941   9.175 -0.0829  0.0067 -0.3399
  385MOL0     C51858   4.961   6.071   9.208  0.7626  0.2446  0.0713
  385MOL0     C51859   4.822   6.054   9.219  0.1126  0.3752 -0.0089
  385MOL0     C51860   4.713   6.161   9.220 -0.1930  0.5733  0.1576
  385MOL0     C51861   4.743   6.286   9.307 -0.4731 -0.8267 -0.3092
  385MOL0     C51862   4.687   6.273   9.445  0.7164  0.0540  0.5896
  385MOL0     C51863   4.749   6.184   9.548 -0.5520  0.2747  0.1650
  385MOL0     O51864   4.673   6.196   9.667 -0.5235 -0.6418 -0.1472
  385MOL0     C51865   4.547   6.147   9.685  0.0834 -1.0060 -0.2534
  385MOL0     C51866   4.489   6.184   9.811  0.7468 -0.5845 -0.1599
  385MOL0     C51867   4.361   6.147   9.848  0.1733  0.0983 -0.3046
  385MOL0     C51868   4.314   6.214   9.980  0.2655 -0.1688 -0.0139
  385MOL0     C51869   4.285   6.054   9.772 -0.3460 -0.2485 -0.5704
  385MOL0     C51870   4.144   6.000   9.801  0.5002 -0.5461 -0.8954
  385MOL0     O51871   4.097   5.903   9.724 -0.0228 -0.4566 -0.0614
  385MOL0     C51872   3.967   5.868   9.765 -0.4430 -0.7084  0.0103
  385MOL0     C51873   3.949   5.779   9.870 -0.2416  0.3562  0.2938
  385MOL0     C51874   3.830   5.718   9.895 -0.3496 -0.0096 -0.4480
  385MOL0     C51875   3.713   5.780   9.839  0.4732  0.4883 -0.0533
  385MOL0     O51876   3.587   5.747   9.869  1.1213  0.2517 -0.0621
  385MOL0     C51877   3.560   5.650   9.977  0.3866  0.3793  0.2599
  385MOL0     C51878   3.538   5.520   9.912 -0.1867  0.6168 -0.4652
  385MOL0     C51879   3.492   5.409  10.003  0.7969 -0.6998  0.3034
  385MOL0     C51880   3.365   5.415  10.088 -0.1148 -0.0492 -0.2383
  385MOL0     C51881   3.246   5.458  10.010  0.2344  0.4465  0.4235
  385MOL0     C51882   3.185   5.353   9.910 -0.4285  0.1618  0.3320
  385MOL0     C51883   3.070   5.413   9.830  0.2211  0.4103 -0.3719
  385MOL0     C51884   2.944   5.331   9.808  0.8660  0.5250 -0.0619
  385MOL0    Cl51885   2.868   5.292   9.962  0.1897  0.5893 -0.3173
  385MOL0     C51886   3.733   5.884   9.748  0.1441  0.8406 -0.0112
  385MOL0     C51887   3.856   5.928   9.705  0.2855 -0.3752 -0.4310
  385MOL0     O51888   4.084   6.050   9.903  0.3124  0.0231  0.1976
  385MOL0     C51889   4.348   6.012   9.654 -0.1455  0.4471  0.9378
  385MOL0     C51890   4.474   6.057   9.603 -0.5889 -0.5561 -0.8785
  385MOL0     N51891   4.792   5.920   9.195 -0.5660  0.9276 -0.3429
  385MOL0     N51892   4.897   5.855   9.164 -1.2039  0.7436 -0.1616
  385MOL0     C51893   6.034   5.441   9.598 -0.9387  0.1751  0.6211
  385MOL0     C51894   6.139   5.388   9.675  0.2019  0.3759 -0.0984
  385MOL0     C51895   6.523   5.371   9.922 -0.2222 -0.2021  0.0930
  385MOL0     C51896   6.537   5.316  10.050  0.9666 -0.0850 -0.0837
  385MOL0     C51897   6.660   5.292  10.098 -0.8351 -0.2301  0.0785
  385MOL0     C51898   6.776   5.313  10.022 -0.7695  0.1802  1.1507
  385MOL0     O51899   6.903   5.292  10.069 -1.3312  0.3564  0.5141
  385MOL0     C51900   6.934   5.192  10.170 -0.2675 -0.1652  0.6999
  385MOL0     C51901   7.087   5.159  10.169  0.8488  0.0526  0.5329
  385MOL0     C51902   7.164   5.266  10.243 -0.8800  0.2549 -0.4882
  385MOL0     C51903   7.320   5.244  10.237  0.3905 -0.2957  0.4432
  385MOL0     C51904   7.350   5.110  10.278  0.7333  0.0865 -0.5067
  385MOL0     C51905   7.375   4.997  10.298  0.0078 -0.4318 -0.3975
  385MOL0     C51906   6.770   5.352   9.887  0.5878  0.4241 -1.3928
  385MOL0     C51907   6.644   5.382   9.842 -0.4476  0.0191  0.1511
  385MOL0     H51908   6.384   5.605   9.608  1.0089  0.1754 -0.6780
  385MOL0     H51909   6.188   5.712   9.473  2.3790  1.1590  1.2242
  385MOL0     H51910   5.793   5.532   9.332 -0.6499  1.2765 -0.7460
  385MOL0     H51911   5.807   5.499   9.507 -0.9327 -0.2687 -0.3816
  385MOL0     H51912   5.830   5.758   9.540 -0.0387  2.5234 -1.9755
  385MOL0     H51913   5.781   5.785   9.380 -2.0863  1.6983  1.4908
  385MOL0     H51914   5.599   5.654   9.588 -2.7895  2.5523  0.3984
  385MOL0     H51915   5.593   5.821   9.535  0.6474 -0.0016 -0.2872
  385MOL0     H51916   5.555   5.727   9.288  1.0952  1.9041  0.7718
  385MOL0     H51917   5.529   5.574   9.355 -0.0393  0.8430  1.9568
  385MOL0     H51918   5.327   5.660   9.488  0.4244 -1.8747  0.7437
  385MOL0     H51919   5.386   5.825   9.466  0.2661  0.1255 -2.0664
  385MOL0     H51920   5.362   5.780   9.216  1.5029  0.0658  1.8371
  385MOL0     H51921   5.279   5.637   9.267  1.0597 -0.2600 -0.0630
  385MOL0     H51922   5.099   5.776   9.359  1.2281 -1.6462  1.0920
  385MOL0     H51923   5.203   5.916   9.377 -0.5255 -3.0595  4.9851
  385MOL0     H51924   5.148   5.811   9.098  1.5038  0.1524 -0.0221
  385MOL0     H51925   5.204   5.971   9.154  1.7989 -0.5827  0.4781
  385MOL0     H51926   5.027   6.156   9.224  1.5967 -0.3533 -0.1236
  385MOL0     H51927   4.717   6.192   9.115  0.4602 -0.5404 -0.1755
  385MOL0     H51928   4.620   6.112   9.249 -0.0925 -0.0688 -0.5779
  385MOL0     H51929   4.684   6.370   9.269 -0.9749 -0.8470  0.4072
  385MOL0     H51930   4.845   6.324   9.307 -0.0821 -1.7689 -1.9185
  385MOL0     H51931   4.583   6.242   9.436  0.6960 -0.0052  0.9828
  385MOL0     H51932   4.693   6.374   9.487  1.9581  1.1673 -2.0454
  385MOL0     H51933   4.849   6.217   9.575 -1.3490  0.0548  3.8851
  385MOL0     H51934   4.757   6.082   9.511  0.8750  0.7878 -1.0538
  385MOL0     H51935   4.548   6.248   9.874 -1.1892 -0.2021  1.3710
  385MOL0     H51936   4.399   6.249  10.039  0.8341 -2.4270  0.6066
  385MOL0     H51937   4.241   6.292   9.957  1.3481  1.8022  2.7118
  385MOL0     H51938   4.263   6.142  10.044 -1.6687  0.1086 -1.1875
  385MOL0     H51939   4.040   5.742   9.917  1.9596  3.1534 -1.3888
  385MOL0     H51940   3.838   5.633   9.963 -0.4289  0.0852 -0.3196
  385MOL0     H51941   3.638   5.645  10.053  0.1824  3.7172  0.8458
  385MOL0     H51942   3.464   5.681  10.018 -0.8654 -0.2202 -2.0041
  385MOL0     H51943   3.474   5.539   9.825  0.7756  1.8882 -0.9229
  385MOL0     H51944   3.634   5.497   9.865 -0.4176  1.0810 -1.1822
  385MOL0     H51945   3.576   5.398  10.072  0.8409 -2.0383  0.0636
  385MOL0     H51946   3.508   5.310   9.959  3.6092 -0.2163  0.0341
  385MOL0     H51947   3.342   5.316  10.127 -0.4984  0.3908  0.6803
  385MOL0     H51948   3.378   5.478  10.177  1.6863 -0.8143  0.0874
  385MOL0     H51949   3.266   5.550   9.956 -2.3479  1.7354  1.4945
  385MOL0     H51950   3.170   5.487  10.084 -1.6155  1.0291 -1.6024
  385MOL0     H51951   3.264   5.325   9.839 -0.2958  0.5972  0.3093
  385MOL0     H51952   3.152   5.268   9.971  2.1828 -0.4597  1.0455
  385MOL0     H51953   3.109   5.438   9.731  4.6106 -2.1229  0.4908
  385MOL0     H51954   3.036   5.506   9.877  1.5099  1.0496 -0.6506
  385MOL0     H51955   2.970   5.235   9.761 -2.6547 -1.1980  1.1496
  385MOL0     H51956   2.868   5.383   9.750 -0.1793 -1.5504 -0.6676
  385MOL0     H51957   3.648   5.916   9.689  1.9087  2.2615 -1.9153
  385MOL0     H51958   3.847   6.005   9.629 -1.9059  0.2346  0.3608
  385MOL0     H51959   4.311   5.937   9.584  3.2234 -0.3915 -0.1253
  385MOL0     H51960   4.520   6.020   9.512  2.9550  2.1518 -0.4185
  385MOL0     H51961   5.936   5.399   9.620 -1.7451  2.2099  1.1511
  385MOL0     H51962   6.132   5.301   9.741  0.3939  1.6899  1.7212
  385MOL0     H51963   6.451   5.288  10.110  1.3094 -0.7185  0.1173
  385MOL0     H51964   6.662   5.248  10.197 -0.8184 -0.6400 -0.0989
  385MOL0     H51965   6.917   5.232  10.271  0.4275  2.1384 -0.0503
  385MOL0     H51966   6.877   5.101  10.145  0.8381 -1.1492  1.6487
  385MOL0     H51967   7.120   5.154  10.065 -1.3557 -3.2413 -0.1415
  385MOL0     H51968   7.106   5.062  10.217 -0.1207 -0.7028 -0.5617
  385MOL0     H51969   7.136   5.268  10.349  0.8674  3.7609  0.0369
  385MOL0     H51970   7.142   5.359  10.190 -0.6135 -0.7863 -2.5113
  385MOL0     H51971   7.369   5.315  10.304  0.7597  0.7134 -0.8557
  385MOL0     H51972   7.351   5.255  10.133 -2.0359  0.4259 -0.2829
  385MOL0     H51973   7.395   4.892  10.311 -0.2772 -0.1763  3.0269
  385MOL0     H51974   6.855   5.363   9.821 -0.5930 -1.8875 -3.4896
  385MOL0     H51975   6.647   5.421   9.740  0.7777  0.8163  0.4704
  386MOL0     O51976  10.364   4.512  10.335 -0.7454 -0.0237  0.5104
  386MOL0     C51977  10.468   4.519  10.408  0.6817  0.5169  0.1447
  386MOL0     O51978  10.477   4.483  10.545  0.0967 -0.4180  0.4269
  386MOL0     C51979  10.357   4.454  10.602 -0.0544 -0.0453  0.9557
  386MOL0     C51980  10.294   4.550  10.675  0.1518  0.1001 -0.2378
  386MOL0     C51981  10.167   4.532  10.730  0.4797  0.4650 -1.0163
  386MOL0     C51982  10.098   4.413  10.704  0.3269 -0.1187  0.2004
  386MOL0     O51983   9.967   4.392  10.753  0.2576 -0.7268 -1.1590
  386MOL0     C51984   9.871   4.489  10.707 -0.4879  0.0454 -0.6938
  386MOL0     C51985   9.760   4.491  10.802  0.5783  0.5070  0.1157
  386MOL0     C51986   9.798   4.567  10.934  0.1900  0.4780 -0.4855
  386MOL0     C51987   9.759   4.716  10.930  0.3302  0.2085  0.4967
  386MOL0     C51988   9.608   4.753  10.921 -0.9300  0.4947 -0.4041
  386MOL0     C51989   9.509   4.663  10.996  0.2464  0.5039 -0.6077
  386MOL0     C51990   9.370   4.716  10.982  1.0046  0.2554  0.8726
  386MOL0     C51991   9.306   4.667  10.849  0.0707  0.3076 -0.3770
  386MOL0     N51992   9.374   4.704  10.730 -0.4929 -0.7394 -0.8145
  386MOL0     C51993   9.441   4.612  10.646  0.5562 -1.5908 -0.3434
  386MOL0     C51994   9.449   4.681  10.527 -0.0283  0.6186  0.5177
  386MOL0     C51995   9.491   4.631  10.391 -0.8613 -0.3770 -0.2749
  386MOL0     C51996   9.533   4.483  10.400  0.3438  0.0875 -0.2431
  386MOL0     C51997   9.578   4.422  10.268 -0.1084  0.5087 -0.3993
  386MOL0     C51998   9.716   4.459  10.227 -0.3344 -0.7433  0.1164
  386MOL0     O51999   9.806   4.412  10.337  0.2602 -0.3854 -0.0606
  386MOL0     C52000   9.895   4.316  10.307 -0.3742 -0.1227  0.2259
  386MOL0     C52001   9.865   4.182  10.321  0.2935 -0.1410  0.3519
  386MOL0     C52002   9.962   4.086  10.300  0.2590  0.0653 -1.4825
  386MOL0     C52003   9.916   3.936  10.310  0.4939  0.2192 -1.2160
  386MOL0     C52004  10.096   4.120  10.288  0.1645 -0.3225 -0.5067
  386MOL0     C52005  10.201   4.019  10.275 -0.1424  0.0655 -0.5591
  386MOL0     O52006  10.327   4.072  10.303 -0.2358  0.2258 -0.6230
  386MOL0     C52007  10.444   4.012  10.247  0.3710  0.1183 -0.2467
  386MOL0     C52008  10.548   4.093  10.235  0.0239  0.1739 -0.2319
  386MOL0     C52009  10.664   4.060  10.168  0.6618 -0.1197 -1.8961
  386MOL0     C52010  10.673   3.928  10.106  0.3435  0.5106  0.7729
  386MOL0     O52011  10.784   3.876  10.047 -0.7443 -0.2815 -0.1584
  386MOL0     C52012  10.908   3.930  10.097 -0.5872  0.4976  0.6971
  386MOL0     C52013  11.016   3.823  10.093 -0.0497 -0.5919 -0.4850
  386MOL0     C52014  11.158   3.873  10.136  0.6504 -0.0695  0.9757
  386MOL0     C52015  11.259   3.750  10.149 -0.3206  0.1661  0.2919
  386MOL0     C52016  11.407   3.796  10.135  0.1808 -0.6397 -0.0369
  386MOL0     C52017  11.493   3.749  10.257  0.4815 -0.1772  0.9359
  386MOL0     C52018  11.466   3.608  10.312 -0.6562 -0.8767 -0.3628
  386MOL0     C52019  11.575   3.550  10.399 -0.2742 -0.0661 -0.1333
  386MOL0    Cl52020  11.745   3.534  10.331  0.7097  0.3884 -0.1510
  386MOL0     C52021  10.570   3.841  10.127 -0.0692 -0.7392 -0.1770
  386MOL0     C52022  10.454   3.877  10.205 -0.2328  0.6468 -0.2106
  386MOL0     O52023  10.176   3.899  10.242 -0.1069  0.4717 -1.3141
  386MOL0     C52024  10.132   4.261  10.285  0.6962  0.4888 -0.0283
  386MOL0     C52025  10.030   4.355  10.278 -0.1600  0.0845 -0.4742
  386MOL0     N52026   9.388   4.799  10.536 -0.6619  0.2261 -0.2741
  386MOL0     N52027   9.342   4.814  10.658  0.5769 -0.6075  0.4093
  386MOL0     C52028  10.168   4.319  10.642  0.8418 -0.5264  0.1601
  386MOL0     C52029  10.296   4.332  10.587 -0.3221 -0.3582  0.2914
  386MOL0     C52030  10.587   4.592  10.364 -1.2341  0.9228  0.9128
  386MOL0     C52031  10.616   4.609  10.223 -0.0273 -0.2719  0.4422
  386MOL0     C52032  10.726   4.673  10.173 -0.3080 -0.5555 -0.2768
  386MOL0     C52033  10.826   4.701  10.269 -0.4816 -0.0126  0.1705
  386MOL0     O52034  10.958   4.740  10.235  0.2210  0.2497 -1.0915
  386MOL0     C52035  10.975   4.852  10.150 -0.5363  0.4943 -0.2999
  386MOL0     C52036  11.107   4.930  10.187 -0.5861  0.0323  0.0906
  386MOL0     C52037  11.099   4.976  10.336 -0.9645 -0.2043  0.2397
  386MOL0     C52038  11.199   5.092  10.366  0.1886 -0.3885  0.2139
  386MOL0     C52039  11.147   5.224  10.313  0.1088 -0.2728  0.6125
  386MOL0     C52040  11.104   5.324  10.253  0.5076 -1.1114 -0.5750
  386MOL0     C52041  10.804   4.693  10.406 -0.2444 -0.6874 -0.3866
  386MOL0     C52042  10.687   4.636  10.456 -0.3114 -0.1289 -0.6291
  386MOL0     H52043  10.342   4.648  10.677  0.9939 -0.2418 -1.9572
  386MOL0     H52044  10.126   4.610  10.793  1.0717 -0.5318  0.6575
  386MOL0     H52045   9.915   4.589  10.700  3.2801 -1.4796 -1.6168
  386MOL0     H52046   9.825   4.460  10.612  0.5954 -2.9439 -0.4152
  386MOL0     H52047   9.675   4.543  10.756  1.5554  1.6214 -0.4745
  386MOL0     H52048   9.749   4.385  10.827 -0.3642 -0.0372 -2.3145
  386MOL0     H52049   9.731   4.534  11.014  0.8899  0.9899  0.3297
  386MOL0     H52050   9.904   4.545  10.948  0.0225 -1.3040 -1.6889
  386MOL0     H52051   9.785   4.756  11.028 -3.1343  2.4961  0.6530
  386MOL0     H52052   9.814   4.769  10.851  0.9230 -1.8694 -0.5542
  386MOL0     H52053   9.600   4.855  10.959  1.3502  0.1609  1.2481
  386MOL0     H52054   9.585   4.762  10.815 -0.6607  1.2636 -0.4002
  386MOL0     H52055   9.511   4.558  10.966 -1.5804  0.4162 -0.5376
  386MOL0     H52056   9.542   4.674  11.100  1.5067  2.0764 -1.1219
  386MOL0     H52057   9.311   4.668  11.061  0.3744 -0.4778 -0.0161
  386MOL0     H52058   9.364   4.825  10.982  1.4908  0.3659 -2.0075
  386MOL0     H52059   9.203   4.704  10.844 -0.4937 -0.9923  0.9810
  386MOL0     H52060   9.282   4.560  10.847  0.1355  0.2055  1.7150
  386MOL0     H52061   9.458   4.509  10.675 -1.0028 -1.2833  1.9116
  386MOL0     H52062   9.415   4.648  10.314 -1.2959  0.6138  0.3473
  386MOL0     H52063   9.588   4.674  10.364  0.7314 -1.1475  3.5577
  386MOL0     H52064   9.446   4.430  10.439  2.5028 -1.4184  2.9611
  386MOL0     H52065   9.603   4.469  10.483 -2.4040 -0.1637  2.2300
  386MOL0     H52066   9.504   4.452  10.192 -0.8321 -1.4462 -0.5262
  386MOL0     H52067   9.566   4.313  10.269  3.2362  0.0303  0.4558
  386MOL0     H52068   9.719   4.567  10.218 -0.4985 -0.7267  0.2452
  386MOL0     H52069   9.747   4.410  10.134 -1.6008 -0.8428 -0.2772
  386MOL0     H52070   9.760   4.166  10.343 -1.1598  1.6416 -4.1087
  386MOL0     H52071   9.906   3.891  10.211  2.4413  1.3155 -1.9647
  386MOL0     H52072   9.982   3.878  10.375  0.7504  0.2567 -1.4408
  386MOL0     H52073   9.822   3.926  10.366  2.5391  0.0676  2.4768
  386MOL0     H52074  10.544   4.196  10.269  1.2045 -0.4168  1.8825
  386MOL0     H52075  10.742   4.135  10.162  0.4206  0.1988 -1.1248
  386MOL0     H52076  10.933   4.011  10.027  1.2328  0.6442  1.4546
  386MOL0     H52077  10.898   3.975  10.196 -2.3975  0.1925  0.6807
  386MOL0     H52078  10.995   3.752  10.174  0.3572  0.6677  0.7604
  386MOL0     H52079  11.022   3.778   9.994  1.0523  0.1219 -0.7566
  386MOL0     H52080  11.152   3.908  10.239  1.3892 -1.8715  1.6818
  386MOL0     H52081  11.193   3.957  10.076  1.4959 -2.1027 -1.6223
  386MOL0     H52082  11.231   3.695  10.240 -0.4268  2.4322  1.7020
  386MOL0     H52083  11.240   3.673  10.073 -0.8256 -1.2509  1.7910
  386MOL0     H52084  11.414   3.905  10.128 -1.8182 -0.3340  1.5828
  386MOL0     H52085  11.443   3.748  10.044  1.5014  2.4676 -1.2571
  386MOL0     H52086  11.597   3.753  10.222  0.9661 -3.0674  1.8325
  386MOL0     H52087  11.476   3.818  10.340 -2.0500 -0.8974  1.0953
  386MOL0     H52088  11.440   3.542  10.229 -2.8914  1.1178 -1.3588
  386MOL0     H52089  11.380   3.610  10.379  0.5767 -2.3402  1.3494
  386MOL0     H52090  11.544   3.451  10.433 -1.1916  0.6276  1.1259
  386MOL0     H52091  11.572   3.607  10.492 -1.8721  1.1296 -0.8937
  386MOL0     H52092  10.577   3.739  10.091  3.1845 -0.8042  0.3418
  386MOL0     H52093  10.379   3.804  10.232  0.0176  1.2194  2.3295
  386MOL0     H52094  10.231   4.305  10.274 -0.3907  3.0419 -0.2486
  386MOL0     H52095  10.065   4.457  10.266  0.4742  0.0039  0.5762
  386MOL0     H52096  10.118   4.224  10.627  2.0184 -1.2098  0.4403
  386MOL0     H52097  10.352   4.250  10.545  0.3902  1.0030 -1.5394
  386MOL0     H52098  10.537   4.574  10.157 -0.8343 -0.9712  1.7248
  386MOL0     H52099  10.738   4.693  10.067  2.1243  2.3917  0.4163
  386MOL0     H52100  10.973   4.818  10.046 -2.9256  0.4493 -0.2997
  386MOL0     H52101  10.889   4.919  10.165 -2.0463 -0.8972 -2.2103
  386MOL0     H52102  11.121   5.023  10.130 -1.2753 -0.5560 -1.0807
  386MOL0     H52103  11.188   4.861  10.161 -2.2915 -2.0270  0.0390
  386MOL0     H52104  11.136   4.888  10.389 -0.2654  0.0158  0.1324
  386MOL0     H52105  10.999   5.010  10.364 -1.8022 -0.9020 -1.7179
  386MOL0     H52106  11.305   5.071  10.345  0.5607 -0.0754  1.6447
  386MOL0     H52107  11.205   5.113  10.473  1.4296 -1.3439  0.3505
  386MOL0     H52108  11.074   5.421  10.218  0.3755 -0.8893  0.1300
  386MOL0     H52109  10.880   4.724  10.476  0.9618 -2.6304 -0.7536
  386MOL0     H52110  10.666   4.627  10.562  0.3018 -0.5328 -0.5351
  387MOL0     O52111   2.252   0.717   8.868 -0.9597 -1.0580 -0.1217
  387MOL0     C52112   2.341   0.784   8.925  0.4272 -0.3325  0.0847
  387MOL0     O52113   2.322   0.901   8.994  0.2491 -0.0734  0.9780
  387MOL0     C52114   2.194   0.945   9.005 -0.8215 -0.4054 -0.9686
  387MOL0     C52115   2.067   0.882   9.013  0.0600  0.2009 -0.0769
  387MOL0     C52116   1.960   0.956   9.038 -0.6212  0.4281 -0.7386
  387MOL0     C52117   1.955   1.097   9.057 -0.2917  0.9418 -0.3068
  387MOL0     O52118   1.839   1.160   9.081 -0.3947 -0.9101  0.2810
  387MOL0     C52119   1.810   1.254   8.983  1.0185  0.0127  0.0969
  387MOL0     C52120   1.669   1.309   9.005  0.0347 -0.1550  0.3469
  387MOL0     C52121   1.661   1.449   8.952 -0.2547  0.2487  0.5423
  387MOL0     C52122   1.533   1.524   8.995  0.5724  0.5090 -0.5790
  387MOL0     C52123   1.491   1.626   8.891 -0.6485 -0.0159 -0.4918
  387MOL0     C52124   1.440   1.751   8.959  0.2004 -1.3851 -0.5372
  387MOL0     C52125   1.403   1.845   8.849  1.0267 -0.5800  0.0066
  387MOL0     C52126   1.344   1.975   8.903 -0.3791 -0.6814  1.1096
  387MOL0     N52127   1.223   1.954   8.987  0.1629  0.3277  0.7311
  387MOL0     C52128   1.127   1.880   8.937  0.2139 -0.0374  0.0336
  387MOL0     C52129   1.031   1.876   9.025  1.4515 -0.9515  0.3356
  387MOL0     C52130   0.896   1.806   9.016  0.8929  0.6020 -0.2064
  387MOL0     C52131   0.812   1.861   8.900 -0.5957  0.0136 -0.2690
  387MOL0     C52132   0.736   1.986   8.956  0.0632 -0.1676  0.5728
  387MOL0     C52133   0.632   2.046   8.861  1.1445 -0.4316 -0.2493
  387MOL0     O52134   0.695   2.124   8.751  0.1872 -0.1741 -0.1636
  387MOL0     C52135   0.784   2.225   8.781 -0.7313  0.6368 -0.4170
  387MOL0     C52136   0.749   2.336   8.863  0.0518  0.8690  0.0619
  387MOL0     C52137   0.839   2.443   8.885  1.1177  0.7507 -0.6099
  387MOL0     C52138   0.780   2.551   8.966  0.7504 -0.2760  0.5551
  387MOL0     C52139   0.960   2.454   8.821 -0.7157  0.0681  0.0149
  387MOL0     C52140   1.049   2.573   8.816  0.4304 -0.7132 -0.3991
  387MOL0     O52141   1.009   2.688   8.879 -0.2707 -0.3253 -0.1958
  387MOL0     C52142   1.102   2.784   8.895  0.9357  0.8208 -0.7698
  387MOL0     C52143   1.111   2.897   8.813 -1.0942  0.4108  0.4245
  387MOL0     C52144   1.207   2.990   8.845 -0.1975  0.4909 -0.2187
  387MOL0     C52145   1.287   2.987   8.963 -0.3631 -0.0722 -0.4837
  387MOL0     O52146   1.383   3.080   8.984 -0.7406 -0.2580 -0.2741
  387MOL0     C52147   1.340   3.220   9.007 -0.5618 -0.0825  0.5640
  387MOL0     C52148   1.390   3.259   9.145 -0.2486  0.0348 -0.5493
  387MOL0     C52149   1.329   3.176   9.259 -1.2034 -0.6343  0.2762
  387MOL0     C52150   1.293   3.266   9.380 -0.2158 -0.1774  0.4767
  387MOL0     C52151   1.218   3.182   9.485 -1.1788  0.4706 -0.1033
  387MOL0     C52152   1.106   3.243   9.562  0.4107 -0.4228  0.0614
  387MOL0     C52153   1.036   3.149   9.671  0.0669  0.7576  0.4330
  387MOL0     C52154   0.975   3.021   9.619  0.1897  0.4941  0.2426
  387MOL0    Cl52155   0.843   3.054   9.509  0.1678  0.4970 -0.2991
  387MOL0     C52156   1.275   2.879   9.049 -1.1141  0.0519  0.8306
  387MOL0     C52157   1.189   2.775   9.008 -0.4269  0.7123  0.0613
  387MOL0     O52158   1.162   2.560   8.760  0.2716 -0.3323 -0.4067
  387MOL0     C52159   0.995   2.340   8.740 -0.0865 -0.5514  0.6697
  387MOL0     C52160   0.914   2.228   8.728  0.6764  0.0800  0.2757
  387MOL0     N52161   1.076   1.934   9.146  0.4635 -0.1143 -0.2840
  387MOL0     N52162   1.195   1.986   9.116  0.8355  0.4500  0.6732
  387MOL0     C52163   2.077   1.162   9.057 -0.7852 -0.2286 -0.3533
  387MOL0     C52164   2.196   1.086   9.034  0.1122  0.3088 -0.7302
  387MOL0     C52165   2.475   0.743   8.916  0.1762  0.4799 -0.0400
  387MOL0     C52166   2.512   0.635   8.835  0.7599  0.2522  0.2454
  387MOL0     C52167   2.645   0.598   8.830 -0.0523  0.4337  0.7868
  387MOL0     C52168   2.749   0.661   8.893 -0.1135 -0.3752 -0.5463
  387MOL0     O52169   2.880   0.627   8.873  0.5446  0.3649 -0.5452
  387MOL0     C52170   2.923   0.540   8.762 -0.0182 -0.4349 -0.5010
  387MOL0     C52171   3.070   0.569   8.739 -1.0613  0.7621  0.6259
  387MOL0     C52172   3.128   0.519   8.605  0.8864 -0.1037  0.0212
  387MOL0     C52173   3.180   0.372   8.601  0.7358 -1.0777  0.8037
  387MOL0     C52174   3.059   0.284   8.616 -1.1211  0.0736 -0.4011
  387MOL0     C52175   2.966   0.209   8.609 -0.6002  0.7109 -0.3577
  387MOL0     C52176   2.713   0.764   8.979  0.3014 -0.9887 -0.0282
  387MOL0     C52177   2.579   0.809   8.993  0.8166  0.8445  0.6787
  387MOL0     H52178   2.049   0.776   9.000 -3.4598  0.8837 -1.9004
  387MOL0     H52179   1.860   0.914   9.038  0.1581 -1.6874  2.0080
  387MOL0     H52180   1.881   1.336   8.999  0.8983  0.2702 -0.6350
  387MOL0     H52181   1.819   1.213   8.882 -0.6233  1.5761 -0.7385
  387MOL0     H52182   1.581   1.259   8.965 -1.6516  2.5104  0.4603
  387MOL0     H52183   1.656   1.307   9.114  3.8463  0.3301  0.9647
  387MOL0     H52184   1.745   1.512   8.979 -0.6163  1.2338 -0.5568
  387MOL0     H52185   1.669   1.437   8.844  0.0480 -4.0437  0.8366
  387MOL0     H52186   1.448   1.455   8.997  1.9259 -1.2229  1.5599
  387MOL0     H52187   1.558   1.562   9.094  0.0084 -2.9382  1.0210
  387MOL0     H52188   1.579   1.662   8.837 -1.6342 -0.5977 -2.5912
  387MOL0     H52189   1.409   1.601   8.824 -2.5203  3.0790  0.4358
  387MOL0     H52190   1.353   1.726   9.021  1.2664  0.4364  1.8480
  387MOL0     H52191   1.511   1.795   9.029 -0.2877 -1.3467 -0.0598
  387MOL0     H52192   1.491   1.876   8.792  1.4299 -1.0420  0.3648
  387MOL0     H52193   1.329   1.802   8.781 -0.7149 -0.3241  1.6613
  387MOL0     H52194   1.316   2.024   8.810  1.4733 -1.1704  0.2540
  387MOL0     H52195   1.423   2.034   8.951  0.5270  0.1941 -1.3349
  387MOL0     H52196   1.128   1.842   8.836  3.7349 -1.5753  0.5263
  387MOL0     H52197   0.921   1.705   8.985  0.8101  1.2811 -2.7613
  387MOL0     H52198   0.839   1.808   9.109 -0.4075  0.6775 -0.9723
  387MOL0     H52199   0.737   1.787   8.868  0.4106 -0.8119 -0.8027
  387MOL0     H52200   0.882   1.892   8.822 -0.1204  2.4512  1.0372
  387MOL0     H52201   0.807   2.066   8.981  1.2006 -0.9375 -0.0931
  387MOL0     H52202   0.687   1.947   9.046 -1.9380  2.5438  0.7928
  387MOL0     H52203   0.563   2.109   8.917  3.2657 -0.2898  2.3490
  387MOL0     H52204   0.575   1.960   8.823 -1.3431  1.3960 -0.9044
  387MOL0     H52205   0.645   2.338   8.895  0.2761  0.2091  0.8521
  387MOL0     H52206   0.682   2.515   8.997  0.7223 -0.0434  0.7375
  387MOL0     H52207   0.849   2.577   9.046 -0.9838 -2.7231  3.0374
  387MOL0     H52208   0.764   2.642   8.907 -0.1343  0.4895  1.9124
  387MOL0     H52209   1.055   2.912   8.721 -0.3942 -0.6929 -0.2060
  387MOL0     H52210   1.212   3.074   8.776 -0.0402  0.6500 -0.0131
  387MOL0     H52211   1.379   3.288   8.930 -2.5110  1.9302  1.2410
  387MOL0     H52212   1.231   3.229   9.002 -0.5290 -0.3139 -1.9364
  387MOL0     H52213   1.499   3.252   9.150  0.0497  3.5186  0.9173
  387MOL0     H52214   1.370   3.366   9.151  0.8459  0.2648 -0.8194
  387MOL0     H52215   1.399   3.098   9.289  0.2170  0.0742 -1.0560
  387MOL0     H52216   1.234   3.139   9.218 -1.3052 -2.1420  1.7805
  387MOL0     H52217   1.383   3.305   9.428  2.7639 -2.6267 -2.6742
  387MOL0     H52218   1.224   3.343   9.343 -0.6000  0.0415  1.6097
  387MOL0     H52219   1.287   3.136   9.557 -0.7540  1.8304  0.4060
  387MOL0     H52220   1.168   3.103   9.430  0.3562 -0.1814 -0.6288
  387MOL0     H52221   1.150   3.323   9.621 -2.2529 -0.6061  2.4775
  387MOL0     H52222   1.032   3.283   9.492 -1.3302 -2.2404  0.7446
  387MOL0     H52223   0.954   3.202   9.722 -1.4859 -0.2842 -0.8978
  387MOL0     H52224   1.106   3.118   9.750 -0.2772  1.3582  0.9910
  387MOL0     H52225   0.931   2.955   9.694  0.1473 -0.8186 -0.8927
  387MOL0     H52226   1.045   2.955   9.567 -0.0641  0.0797  0.4224
  387MOL0     H52227   1.317   2.884   9.149  2.2524  2.2506 -0.5051
  387MOL0     H52228   1.193   2.685   9.069 -0.7652  0.5384 -0.1693
  387MOL0     H52229   1.089   2.347   8.686 -0.0906  3.5452  0.9130
  387MOL0     H52230   0.970   2.160   8.665  1.2849 -0.2187  1.1237
  387MOL0     H52231   2.084   1.265   9.090  1.3630 -0.8290  1.3526
  387MOL0     H52232   2.286   1.146   9.040 -0.2127  0.6541  3.0557
  387MOL0     H52233   2.435   0.574   8.788  0.7901 -1.0626  1.7864
  387MOL0     H52234   2.675   0.516   8.766  0.0790 -0.7188  2.2746
  387MOL0     H52235   2.914   0.435   8.792  0.1730 -1.3166 -3.2736
  387MOL0     H52236   2.866   0.566   8.673 -1.0471  0.0238  0.2684
  387MOL0     H52237   3.131   0.514   8.812 -1.9892 -0.6783  0.3462
  387MOL0     H52238   3.092   0.677   8.735 -1.4561  0.8282  0.1456
  387MOL0     H52239   3.215   0.583   8.588 -0.0357  1.1580 -0.0144
  387MOL0     H52240   3.059   0.527   8.521  1.0555 -4.6700 -0.8396
  387MOL0     H52241   3.249   0.352   8.683  1.1976  2.6856  1.5241
  387MOL0     H52242   3.234   0.354   8.508 -1.9589 -0.6910 -0.9636
  387MOL0     H52243   2.896   0.128   8.606 -0.9014  0.7138  2.8157
  387MOL0     H52244   2.787   0.813   9.042 -2.0946  0.7858  1.6176
  387MOL0     H52245   2.547   0.890   9.058 -0.3931  1.6339 -0.8338
  388MOL0     O52246   2.790   6.568   8.212 -1.0917  0.2457  0.1089
  388MOL0     C52247   2.816   6.552   8.095  0.8487 -0.3195  0.0858
  388MOL0     O52248   2.726   6.555   7.990 -0.0099 -0.9434 -0.6482
  388MOL0     C52249   2.600   6.590   8.000  0.1337 -0.3249  0.1333
  388MOL0     C52250   2.514   6.583   8.107 -0.0554 -0.2711 -0.4701
  388MOL0     C52251   2.380   6.612   8.105  0.1309 -0.3580 -0.0991
  388MOL0     C52252   2.327   6.645   7.979 -0.5212  0.1603  0.3848
  388MOL0     O52253   2.187   6.661   7.988  0.1343 -0.1429  0.0480
  388MOL0     C52254   2.122   6.723   7.880  0.2745 -0.2804 -0.4627
  388MOL0     C52255   1.972   6.731   7.909  0.6484 -1.0014  0.0172
  388MOL0     C52256   1.924   6.580   7.890 -0.0516  0.3577 -0.4112
  388MOL0     C52257   1.773   6.561   7.942  0.2942  0.1720  0.6220
  388MOL0     C52258   1.703   6.438   7.888 -0.9134  0.2124 -0.0317
  388MOL0     C52259   1.783   6.309   7.911  0.5529 -0.2844  0.5392
  388MOL0     C52260   1.694   6.188   7.898 -0.3912  0.1439  0.2948
  388MOL0     C52261   1.638   6.169   7.752  0.6462  0.0683 -0.6322
  388MOL0     N52262   1.616   6.034   7.728 -0.2561  0.6944 -0.6508
  388MOL0     C52263   1.509   5.963   7.774 -0.4102  0.5652  0.4116
  388MOL0     C52264   1.531   5.839   7.725 -0.0822  0.0373 -0.2026
  388MOL0     C52265   1.430   5.731   7.725  0.0763 -0.6452 -1.0652
  388MOL0     C52266   1.498   5.593   7.760 -0.2133 -0.0501  0.1817
  388MOL0     C52267   1.560   5.600   7.899  0.2079  0.3996 -0.4233
  388MOL0     C52268   1.622   5.463   7.934  0.3844  0.1982 -0.2004
  388MOL0     O52269   1.667   5.458   8.076 -0.4080  0.3105 -0.5397
  388MOL0     C52270   1.764   5.359   8.105  0.5846  0.1840 -0.6783
  388MOL0     C52271   1.862   5.390   8.194  0.3876  0.7523  0.1866
  388MOL0     C52272   1.968   5.303   8.215  0.1259  0.7927  0.5445
  388MOL0     C52273   2.085   5.362   8.288 -0.5430 -0.1107 -0.0858
  388MOL0     C52274   1.974   5.178   8.146  0.0526  0.4142  0.2506
  388MOL0     C52275   2.082   5.069   8.156  0.5436  0.0202 -0.0145
  388MOL0     O52276   2.194   5.109   8.214 -0.8336 -0.4457  0.2198
  388MOL0     C52277   2.294   5.015   8.217  0.0597 -0.8625 -0.0006
  388MOL0     C52278   2.396   5.031   8.122 -1.0640 -0.0785  0.0841
  388MOL0     C52279   2.511   4.942   8.128  0.5648 -0.0747  0.0281
  388MOL0     C52280   2.532   4.849   8.224  0.3988  1.2898 -0.6751
  388MOL0     O52281   2.639   4.767   8.253 -0.0751 -0.5525 -0.8418
  388MOL0     C52282   2.741   4.783   8.160 -0.3906 -0.2820 -0.5332
  388MOL0     C52283   2.850   4.678   8.201 -0.2636 -0.3013 -0.4140
  388MOL0     C52284   2.951   4.666   8.092 -0.4612  0.5982  0.0363
  388MOL0     C52285   3.049   4.784   8.063  0.0984  1.3016  0.2894
  388MOL0     C52286   3.163   4.756   7.957 -0.4300 -0.4359 -0.0263
  388MOL0     C52287   3.274   4.673   8.033  0.6722 -0.3187 -0.5069
  388MOL0     C52288   3.385   4.633   7.930 -0.8363 -0.1061  0.0986
  388MOL0     C52289   3.370   4.503   7.846  0.1068  0.9039  0.2342
  388MOL0    Cl52290   3.506   4.487   7.725  0.1999  0.3332 -0.2138
  388MOL0     C52291   2.434   4.843   8.314 -0.0372 -0.0923 -0.4479
  388MOL0     C52292   2.316   4.915   8.312  0.1877 -0.6413  0.2460
  388MOL0     O52293   2.062   4.960   8.105  0.0167  0.0358 -0.2485
  388MOL0     C52294   1.870   5.147   8.056  0.1468 -0.6410 -0.3681
  388MOL0     C52295   1.767   5.236   8.039 -0.2674 -0.1418  0.0682
  388MOL0     N52296   1.657   5.832   7.662 -0.0105  0.1385  0.3758
  388MOL0     N52297   1.708   5.952   7.682  0.0115 -0.9514  1.0425
  388MOL0     C52298   2.408   6.650   7.865 -0.2501 -0.5176  0.7069
  388MOL0     C52299   2.542   6.628   7.878 -0.4411 -0.1766 -0.5915
  388MOL0     C52300   2.953   6.509   8.063  0.3186 -0.0730 -0.1380
  388MOL0     C52301   2.989   6.479   7.932  0.2932 -0.8523 -0.6348
  388MOL0     C52302   3.117   6.439   7.906  0.5000  1.2302  0.0571
  388MOL0     C52303   3.219   6.430   7.999  0.5313  0.1898  0.1159
  388MOL0     O52304   3.339   6.379   7.948  0.1468  0.2840  0.1383
  388MOL0     C52305   3.434   6.324   8.039  0.1339 -0.3358 -0.3231
  388MOL0     C52306   3.558   6.287   7.953 -0.3296  0.3250  0.7535
  388MOL0     C52307   3.665   6.204   8.022  0.3020 -0.1554 -0.2719
  388MOL0     C52308   3.780   6.183   7.919 -0.6600 -0.6144  0.5533
  388MOL0     C52309   3.885   6.102   7.983  0.6724 -0.1193  0.1835
  388MOL0     C52310   3.975   6.028   8.024  1.1904 -0.4209  0.0062
  388MOL0     C52311   3.185   6.460   8.130 -0.2918 -0.1772  0.4863
  388MOL0     C52312   3.057   6.497   8.161  0.1550 -0.3104 -0.1470
  388MOL0     H52313   2.553   6.536   8.197 -0.1842  0.6129  0.0582
  388MOL0     H52314   2.324   6.595   8.196  0.5751 -1.1565  0.0279
  388MOL0     H52315   2.164   6.823   7.866  1.1448 -0.8843 -2.4536
  388MOL0     H52316   2.121   6.670   7.784 -4.4906 -1.1486 -0.2184
  388MOL0     H52317   1.947   6.783   8.002  1.9022  0.0696 -0.2123
  388MOL0     H52318   1.930   6.794   7.830 -0.6129 -0.8869  0.7632
  388MOL0     H52319   1.938   6.560   7.784 -1.6200 -1.3757 -0.3340
  388MOL0     H52320   1.989   6.515   7.949 -1.3572 -1.6256 -1.0664
  388MOL0     H52321   1.769   6.557   8.051 -2.3463 -0.9083  0.5645
  388MOL0     H52322   1.719   6.650   7.907  1.0769  1.4447  2.5048
  388MOL0     H52323   1.604   6.436   7.934 -1.5693  0.9009 -1.3675
  388MOL0     H52324   1.672   6.445   7.784 -1.5355 -0.5405  0.0936
  388MOL0     H52325   1.870   6.297   7.845  2.2870  0.8936  2.4920
  388MOL0     H52326   1.813   6.312   8.016  1.3423 -0.9415  0.3418
  388MOL0     H52327   1.768   6.114   7.929 -0.7340  0.1022  1.0220
  388MOL0     H52328   1.616   6.186   7.974  1.4321 -0.0278  2.2476
  388MOL0     H52329   1.716   6.191   7.678  0.7709 -1.3312 -0.9431
  388MOL0     H52330   1.543   6.221   7.741  0.7900  0.3732 -0.4532
  388MOL0     H52331   1.416   6.006   7.812 -0.6404  0.4953 -0.0640
  388MOL0     H52332   1.352   5.744   7.801  0.5146  0.8523 -0.8515
  388MOL0     H52333   1.380   5.717   7.628 -0.2325  3.0043 -1.5670
  388MOL0     H52334   1.572   5.575   7.681 -0.5714  3.4059 -1.1508
  388MOL0     H52335   1.418   5.520   7.766 -2.8662  2.7145  5.7382
  388MOL0     H52336   1.485   5.621   7.975  1.4935  1.0718  0.7155
  388MOL0     H52337   1.625   5.686   7.916 -0.6540  0.9586  0.0698
  388MOL0     H52338   1.704   5.431   7.869  1.4636 -2.4149  2.2098
  388MOL0     H52339   1.553   5.379   7.924  1.6049 -0.8156 -0.4563
  388MOL0     H52340   1.844   5.478   8.254  1.5441  1.6169 -0.6846
  388MOL0     H52341   2.085   5.313   8.386 -0.3603  0.1168  0.0276
  388MOL0     H52342   2.178   5.337   8.236 -1.0451 -1.6339 -0.3170
  388MOL0     H52343   2.074   5.467   8.316 -0.6523 -0.6934  2.2545
  388MOL0     H52344   2.391   5.094   8.034 -0.8527 -1.6798 -1.1340
  388MOL0     H52345   2.589   4.955   8.053 -0.7458  1.5789 -1.1540
  388MOL0     H52346   2.716   4.748   8.059 -0.6032 -0.7304 -0.3263
  388MOL0     H52347   2.784   4.883   8.167 -1.0042 -0.0238 -0.3347
  388MOL0     H52348   2.895   4.706   8.297 -1.2887 -1.4586  0.4255
  388MOL0     H52349   2.799   4.582   8.199  2.1759 -1.6760 -1.2568
  388MOL0     H52350   2.894   4.645   8.001  0.1320 -3.9332  0.4764
  388MOL0     H52351   3.010   4.575   8.112 -1.0384 -0.0124 -0.9317
  388MOL0     H52352   2.983   4.857   8.016 -1.1790 -0.5342 -0.8730
  388MOL0     H52353   3.081   4.828   8.158 -2.3834  3.0425  0.3946
  388MOL0     H52354   3.217   4.845   7.925  1.8650 -1.8460 -0.3165
  388MOL0     H52355   3.125   4.692   7.877  1.6136 -2.5628  0.5748
  388MOL0     H52356   3.316   4.740   8.108 -1.2359 -0.8675  1.1456
  388MOL0     H52357   3.222   4.591   8.084 -1.0021  1.4874  0.8556
  388MOL0     H52358   3.485   4.630   7.975 -0.8024 -2.1170 -0.0264
  388MOL0     H52359   3.389   4.704   7.846 -1.6929  0.6119  0.6548
  388MOL0     H52360   3.282   4.496   7.780  0.1249 -0.8189  0.3534
  388MOL0     H52361   3.360   4.423   7.919 -0.7549  0.1435 -0.6759
  388MOL0     H52362   2.449   4.773   8.395 -0.6395  1.2397  0.8676
  388MOL0     H52363   2.243   4.896   8.390 -1.4041 -0.3267 -1.1048
  388MOL0     H52364   1.871   5.062   7.988 -1.9379 -1.4005  0.4785
  388MOL0     H52365   1.682   5.206   7.979  0.1827 -1.6393  0.1402
  388MOL0     H52366   2.363   6.680   7.771  0.3696  1.7279  1.0549
  388MOL0     H52367   2.610   6.623   7.794 -0.8269 -4.3426 -0.8621
  388MOL0     H52368   2.927   6.505   7.847 -0.4296  3.6169  1.0085
  388MOL0     H52369   3.152   6.436   7.803  1.2010 -1.0052  0.3156
  388MOL0     H52370   3.468   6.403   8.108 -1.3878  3.4628 -3.5029
  388MOL0     H52371   3.403   6.238   8.099 -2.0185  0.8031  0.2825
  388MOL0     H52372   3.601   6.373   7.901 -0.6613 -1.4796 -2.8641
  388MOL0     H52373   3.515   6.226   7.873 -0.8101  0.3678  0.9761
  388MOL0     H52374   3.626   6.115   8.073 -0.3888 -0.5351 -1.4208
  388MOL0     H52375   3.709   6.260   8.105 -3.0863  0.9455  0.9510
  388MOL0     H52376   3.816   6.279   7.881 -0.8682 -0.3081  1.1236
  388MOL0     H52377   3.749   6.123   7.833  0.8557  0.8304 -1.0808
  388MOL0     H52378   4.064   5.984   8.064 -0.8197 -3.7173  1.2161
  388MOL0     H52379   3.255   6.446   8.212 -2.5565  1.6570  2.9426
  388MOL0     H52380   3.026   6.515   8.264  3.2668 -2.2247  1.2542
  389MOL0     O52381   7.272   4.122   2.680 -0.0784  0.4114  0.0854
  389MOL0     C52382   7.335   4.089   2.582  0.5278  0.1742 -0.0078
  389MOL0     O52383   7.303   3.996   2.493 -0.0279 -0.4892  0.2196
  389MOL0     C52384   7.174   3.968   2.490  0.8132  0.0117 -0.1574
  389MOL0     C52385   7.105   4.040   2.400 -0.8100 -0.0412 -0.4758
  389MOL0     C52386   6.967   4.019   2.390  0.2199  0.2450  0.0227
  389MOL0     C52387   6.897   3.926   2.473 -0.3610 -0.0501  1.6115
  389MOL0     O52388   6.763   3.898   2.464  0.4644 -0.4668  0.6155
  389MOL0     C52389   6.689   3.939   2.344 -0.0002 -1.2706 -0.5559
  389MOL0     C52390   6.643   4.087   2.348 -0.3154  0.3373 -0.0564
  389MOL0     C52391   6.532   4.121   2.443  0.1845 -0.5692  0.3657
  389MOL0     C52392   6.401   4.044   2.401 -0.0000 -0.6036 -0.5818
  389MOL0     C52393   6.266   4.113   2.430 -1.0539  0.4016 -0.8048
  389MOL0     C52394   6.150   4.031   2.377  0.2161 -0.2223  1.2747
  389MOL0     C52395   6.008   4.101   2.392 -0.3738  0.4530 -0.1900
  389MOL0     C52396   5.982   4.232   2.312  0.3808 -0.5651 -0.6606
  389MOL0     N52397   5.845   4.287   2.334  0.1767 -1.1224  0.6555
  389MOL0     C52398   5.756   4.292   2.229  0.2268  0.6269  0.0653
  389MOL0     C52399   5.643   4.343   2.285 -0.6309 -0.3836 -0.0015
  389MOL0     C52400   5.515   4.373   2.209  0.5852  0.4107  0.4742
  389MOL0     C52401   5.450   4.239   2.159 -0.1140 -0.7417 -0.7629
  389MOL0     C52402   5.304   4.273   2.130  0.7376  0.5110  0.6058
  389MOL0     C52403   5.236   4.139   2.095  0.4011  0.7365 -0.4759
  389MOL0     O52404   5.094   4.151   2.094 -0.6658 -0.4044  0.9741
  389MOL0     C52405   5.012   4.049   2.063  0.2583  0.6687 -0.3708
  389MOL0     C52406   5.036   3.908   2.076  0.1872 -0.1555 -0.5247
  389MOL0     C52407   4.932   3.810   2.070  0.1026  0.3320 -0.7750
  389MOL0     C52408   4.970   3.665   2.081 -0.1854 -0.1236 -0.3142
  389MOL0     C52409   4.799   3.857   2.052  0.9214 -0.2520 -0.2924
  389MOL0     C52410   4.683   3.760   2.067  0.2840  0.0587  0.3528
  389MOL0     O52411   4.564   3.819   2.016 -0.6931 -0.1724  0.2761
  389MOL0     C52412   4.449   3.744   2.008 -0.6408  0.3329 -0.7425
  389MOL0     C52413   4.450   3.611   1.963 -0.6843 -0.8115  0.1499
  389MOL0     C52414   4.324   3.546   1.951 -0.4072  0.3735  0.5059
  389MOL0     C52415   4.205   3.606   1.980 -0.0570  0.3105 -0.0023
  389MOL0     O52416   4.088   3.532   1.958 -0.3499  0.1049 -0.7876
  389MOL0     C52417   3.966   3.586   2.013  0.8648 -0.0608  0.4480
  389MOL0     C52418   3.838   3.499   2.011  0.3069  0.3616 -0.3697
  389MOL0     C52419   3.713   3.578   2.045 -0.0863 -0.5133 -0.6242
  389MOL0     C52420   3.579   3.498   2.061  0.1697  0.5235  0.3379
  389MOL0     C52421   3.450   3.560   2.127 -0.1594 -0.0239  0.0417
  389MOL0     C52422   3.389   3.652   2.028 -0.5399 -0.6592  0.6104
  389MOL0     C52423   3.285   3.737   2.098  1.1034 -0.0754  1.3405
  389MOL0     C52424   3.172   3.657   2.162 -0.1571  0.5631 -0.0617
  389MOL0    Cl52425   3.028   3.765   2.205 -0.5149  0.0593  0.0352
  389MOL0     C52426   4.208   3.744   2.017  0.4802  0.0105 -0.2208
  389MOL0     C52427   4.327   3.806   2.046 -0.9030 -0.2253  0.7320
  389MOL0     O52428   4.689   3.650   2.112  0.0742  0.1331 -0.1053
  389MOL0     C52429   4.775   3.993   2.026  0.1625  0.1527  0.1404
  389MOL0     C52430   4.881   4.083   2.032  0.8840  0.3359 -0.2637
  389MOL0     N52431   5.667   4.366   2.418  0.4989  0.8658 -0.4366
  389MOL0     N52432   5.783   4.317   2.446  0.4518 -0.0168 -0.2129
  389MOL0     C52433   6.971   3.857   2.564 -0.0474 -0.4181 -0.1870
  389MOL0     C52434   7.103   3.874   2.571 -0.3732  0.6725  0.0535
  389MOL0     C52435   7.471   4.153   2.562  0.8310  1.0734 -0.2552
  389MOL0     C52436   7.529   4.241   2.647  0.9635 -0.5287 -0.1728
  389MOL0     C52437   7.644   4.308   2.622 -0.4385 -0.9691 -0.0630
  389MOL0     C52438   7.712   4.297   2.502  0.0028 -1.0062 -0.7763
  389MOL0     O52439   7.830   4.356   2.470 -0.1632 -0.0799 -0.4953
  389MOL0     C52440   7.889   4.447   2.564 -0.6670  0.4978 -0.6780
  389MOL0     C52441   8.035   4.470   2.529  0.6705 -0.3724 -0.0561
  389MOL0     C52442   8.120   4.339   2.552  0.1187  0.0725 -0.2001
  389MOL0     C52443   8.276   4.368   2.523 -0.1274 -0.0425 -0.0270
  389MOL0     C52444   8.345   4.240   2.522 -0.7053 -0.3397 -0.6322
  389MOL0     C52445   8.407   4.137   2.543  0.2693 -0.0546  1.2247
  389MOL0     C52446   7.651   4.217   2.405 -0.5843 -0.2509 -0.4664
  389MOL0     C52447   7.540   4.139   2.439 -0.7878 -0.3466  0.0594
  389MOL0     H52448   7.156   4.112   2.337 -1.0162  0.7403  0.2134
  389MOL0     H52449   6.918   4.089   2.323 -0.5931  0.0319  0.3761
  389MOL0     H52450   6.760   3.935   2.260  1.7008 -0.9161  0.8154
  389MOL0     H52451   6.607   3.867   2.339 -0.9192 -0.4427  1.5944
  389MOL0     H52452   6.726   4.153   2.374 -0.4058  1.0437 -1.4266
  389MOL0     H52453   6.607   4.109   2.247 -2.9840 -0.4791  0.6389
  389MOL0     H52454   6.563   4.100   2.545 -1.5351  1.7357  1.4630
  389MOL0     H52455   6.503   4.226   2.432  0.5888 -0.6655 -2.1388
  389MOL0     H52456   6.409   4.022   2.294  0.7215  1.4317 -0.9973
  389MOL0     H52457   6.403   3.951   2.459 -1.4966 -1.2548 -1.5101
  389MOL0     H52458   6.260   4.121   2.539 -0.3766 -1.9894 -0.5350
  389MOL0     H52459   6.283   4.213   2.389  1.5305 -0.6713 -2.6158
  389MOL0     H52460   6.183   4.003   2.277  0.3295 -1.5231  1.6582
  389MOL0     H52461   6.146   3.940   2.438  0.8770  0.5919  2.5675
  389MOL0     H52462   5.934   4.035   2.346  1.1321 -0.1759 -1.8240
  389MOL0     H52463   5.985   4.120   2.497 -1.9189 -0.3832 -0.3418
  389MOL0     H52464   5.987   4.213   2.205  0.6850 -0.0595 -0.7368
  389MOL0     H52465   6.060   4.303   2.340 -0.6275  0.3048  0.0096
  389MOL0     H52466   5.775   4.271   2.124 -0.0208 -0.2960  0.1893
  389MOL0     H52467   5.453   4.441   2.268  0.8894  2.6137 -1.5506
  389MOL0     H52468   5.545   4.424   2.117  0.0816 -0.8447 -0.4057
  389MOL0     H52469   5.438   4.176   2.248  0.0996  1.1900  0.7059
  389MOL0     H52470   5.510   4.192   2.081  2.3765 -0.6633  0.9773
  389MOL0     H52471   5.286   4.340   2.045 -2.2833 -1.2733 -0.3396
  389MOL0     H52472   5.249   4.311   2.216 -1.7649  2.8399 -1.8362
  389MOL0     H52473   5.269   4.051   2.152  0.9976  1.2061 -0.0722
  389MOL0     H52474   5.277   4.113   1.997 -0.7398  1.5764 -1.1892
  389MOL0     H52475   5.133   3.869   2.104 -1.5832 -3.4955  1.6006
  389MOL0     H52476   4.918   3.615   2.162  3.1555 -1.5554  1.1471
  389MOL0     H52477   4.941   3.623   1.984 -3.7995 -0.9694  1.0146
  389MOL0     H52478   5.079   3.657   2.090 -0.1927 -0.0621 -0.1833
  389MOL0     H52479   4.535   3.554   1.927 -0.3505 -0.7576  0.8224
  389MOL0     H52480   4.325   3.442   1.919  0.3425 -0.9120  4.1799
  389MOL0     H52481   3.983   3.632   2.111 -2.2266  1.0054  0.5912
  389MOL0     H52482   3.948   3.669   1.944  3.7323 -1.1676 -1.8381
  389MOL0     H52483   3.845   3.457   1.910  3.1281  1.6508 -0.7993
  389MOL0     H52484   3.847   3.421   2.086  0.2634  1.6568  1.0261
  389MOL0     H52485   3.695   3.668   1.986 -3.0984  1.1839  2.5193
  389MOL0     H52486   3.732   3.623   2.143 -0.8744 -1.1178 -0.1857
  389MOL0     H52487   3.553   3.459   1.963 -0.4398  0.1149  0.6566
  389MOL0     H52488   3.604   3.414   2.127  1.4057  0.6594  0.0709
  389MOL0     H52489   3.478   3.599   2.225  1.7731  0.3682 -0.6286
  389MOL0     H52490   3.380   3.479   2.150 -0.9100 -0.2045 -2.5841
  389MOL0     H52491   3.459   3.720   1.978 -2.1601  0.7823  0.1740
  389MOL0     H52492   3.338   3.595   1.949 -0.3437 -1.4859  1.0801
  389MOL0     H52493   3.239   3.795   2.017  0.9672 -1.7998  0.1404
  389MOL0     H52494   3.319   3.803   2.179  1.8868  0.8834  0.2553
  389MOL0     H52495   3.209   3.620   2.258 -2.2844  1.0134  1.0022
  389MOL0     H52496   3.137   3.580   2.092  0.3104  0.5604 -0.2905
  389MOL0     H52497   4.120   3.806   2.025  0.8775  0.5665 -0.1244
  389MOL0     H52498   4.324   3.908   2.084  1.6379  0.0458  0.4128
  389MOL0     H52499   4.679   4.042   2.014 -0.0530 -0.2802  0.0884
  389MOL0     H52500   4.866   4.190   2.025 -0.4103  0.1587 -0.3092
  389MOL0     H52501   6.920   3.795   2.637  1.5555  0.7157  2.0190
  389MOL0     H52502   7.161   3.813   2.640  0.0722  0.0034 -0.9025
  389MOL0     H52503   7.472   4.266   2.736 -2.4394 -1.7740 -1.8473
  389MOL0     H52504   7.674   4.378   2.700 -1.4606 -2.1981  1.5051
  389MOL0     H52505   7.842   4.545   2.558 -2.8285 -0.4305  0.3149
  389MOL0     H52506   7.886   4.425   2.671 -0.6548  1.5001 -0.4615
  389MOL0     H52507   8.087   4.538   2.597 -1.8244 -0.4942  2.1194
  389MOL0     H52508   8.049   4.514   2.430 -0.2559 -1.5383 -0.7323
  389MOL0     H52509   8.094   4.259   2.482 -0.4409  1.8482 -2.0958
  389MOL0     H52510   8.094   4.308   2.654 -0.5574 -0.1035 -0.4198
  389MOL0     H52511   8.312   4.427   2.608  0.1005 -0.4419  0.1538
  389MOL0     H52512   8.305   4.423   2.433  2.3279 -0.3996  0.4960
  389MOL0     H52513   8.455   4.043   2.561  1.2232 -0.0718 -1.0931
  389MOL0     H52514   7.686   4.215   2.303  1.3906  1.3157  0.1266
  389MOL0     H52515   7.503   4.076   2.359  2.9685 -1.1508 -1.2440
  390MOL0     O52516   5.803   3.811   2.831  0.5293  0.2210 -0.0645
  390MOL0     C52517   5.880   3.870   2.765 -0.0778 -1.5593  1.1252
  390MOL0     O52518   5.857   3.936   2.650 -0.1638  0.1217 -0.2994
  390MOL0     C52519   5.724   3.925   2.601 -1.0717  1.2857 -0.3765
  390MOL0     C52520   5.646   4.041   2.583 -0.6236  0.5125  0.0445
  390MOL0     C52521   5.523   4.039   2.516 -0.0228 -1.3504  0.4636
  390MOL0     C52522   5.470   3.928   2.467  0.2302 -0.1021  0.5097
  390MOL0     O52523   5.346   3.939   2.414  0.6829 -0.4515 -0.2459
  390MOL0     C52524   5.281   3.816   2.372 -0.2571 -0.3335  0.0118
  390MOL0     C52525   5.229   3.727   2.493  0.1970  0.3232  0.1920
  390MOL0     C52526   5.097   3.779   2.543 -0.1500 -0.4975 -0.4978
  390MOL0     C52527   4.974   3.764   2.444  1.5469  0.4433  0.2339
  390MOL0     C52528   4.834   3.748   2.519 -0.4664 -0.1306  0.2603
  390MOL0     C52529   4.716   3.767   2.420  0.0546 -0.0709  0.2665
  390MOL0     C52530   4.586   3.781   2.487 -0.3982 -0.2790 -0.6293
  390MOL0     C52531   4.486   3.795   2.375  0.4420  0.7938  0.2614
  390MOL0     N52532   4.347   3.758   2.429  0.2706 -0.4466  0.1599
  390MOL0     C52533   4.245   3.691   2.367  0.1084  0.0206  0.2117
  390MOL0     C52534   4.127   3.701   2.441  0.2289 -0.0296  0.2550
  390MOL0     C52535   3.987   3.638   2.412  0.1720  0.8312  0.7624
  390MOL0     C52536   3.872   3.697   2.494  0.0609 -0.4689 -0.2324
  390MOL0     C52537   3.737   3.648   2.447 -0.0755 -0.7714  0.5772
  390MOL0     C52538   3.619   3.745   2.487  0.3773 -0.3360 -0.0579
  390MOL0     O52539   3.501   3.662   2.490 -0.2414 -0.0266  0.5185
  390MOL0     C52540   3.388   3.703   2.560 -0.7884 -0.1761  0.0616
  390MOL0     C52541   3.267   3.649   2.529 -0.3489 -0.0477 -0.0266
  390MOL0     C52542   3.141   3.685   2.575 -0.3362  0.3539  1.2147
  390MOL0     C52543   3.010   3.621   2.538  0.0279 -0.1669 -0.0290
  390MOL0     C52544   3.141   3.794   2.665 -0.0647 -0.2911 -0.3298
  390MOL0     C52545   3.025   3.841   2.743 -0.8843  0.2188  0.0696
  390MOL0     O52546   2.973   3.758   2.840  0.4421  0.1352  0.0910
  390MOL0     C52547   2.836   3.743   2.848 -0.0330 -0.1837  0.6494
  390MOL0     C52548   2.742   3.799   2.754  1.1360  0.3753 -0.0944
  390MOL0     C52549   2.607   3.782   2.778 -0.1131 -0.4175  0.6457
  390MOL0     C52550   2.562   3.713   2.892 -0.1180  0.8934  0.2580
  390MOL0     O52551   2.430   3.681   2.921 -0.1383 -0.1548 -0.1237
  390MOL0     C52552   2.332   3.708   2.813 -0.0043 -0.0706  0.7621
  390MOL0     C52553   2.189   3.697   2.866 -0.5029 -0.2774 -0.1154
  390MOL0     C52554   2.095   3.733   2.753  0.8453  0.1275 -0.3718
  390MOL0     C52555   1.958   3.687   2.789  0.0911  1.1012 -0.0602
  390MOL0     C52556   1.859   3.727   2.677  0.2452  0.7720  0.5322
  390MOL0     C52557   1.877   3.638   2.553  0.1790  0.3164 -0.2738
  390MOL0     C52558   1.767   3.654   2.452 -0.0270 -0.6998  0.0991
  390MOL0     C52559   1.755   3.531   2.366  0.1884  0.1906  0.0816
  390MOL0    Cl52560   1.641   3.569   2.236 -0.0910  0.5295 -0.4540
  390MOL0     C52561   2.651   3.641   2.973  1.0723  0.9531 -0.0490
  390MOL0     C52562   2.781   3.665   2.954  0.1080  0.0768  0.1162
  390MOL0     O52563   2.987   3.955   2.726  0.2638 -0.5228  0.1195
  390MOL0     C52564   3.263   3.854   2.710 -1.5301 -0.8611  0.8781
  390MOL0     C52565   3.383   3.810   2.647  0.4103  0.7238 -0.5844
  390MOL0     N52566   4.159   3.773   2.559 -0.1166 -0.0730  0.4632
  390MOL0     N52567   4.289   3.798   2.551  0.1234 -0.3758  0.1003
  390MOL0     C52568   5.546   3.808   2.493 -0.6449 -0.3964  0.7726
  390MOL0     C52569   5.672   3.804   2.557 -0.1594 -0.2058  0.0342
  390MOL0     C52570   6.014   3.894   2.813 -0.4293 -0.3907 -0.3153
  390MOL0     C52571   6.066   3.805   2.915 -0.2981 -0.3164 -0.1013
  390MOL0     C52572   6.193   3.830   2.964  0.0730 -0.1287 -0.5899
  390MOL0     C52573   6.271   3.941   2.929  0.3805 -0.6928  0.4900
  390MOL0     O52574   6.384   3.966   2.992  1.0442 -0.0394  0.1527
  390MOL0     C52575   6.499   3.881   2.961  0.2793  0.4259 -0.2978
  390MOL0     C52576   6.633   3.954   2.949 -0.5658 -0.4087  0.0154
  390MOL0     C52577   6.761   3.861   2.961 -0.1093 -0.5883  0.0414
  390MOL0     C52578   6.889   3.944   2.916  0.3022  0.1072  0.3754
  390MOL0     C52579   6.919   4.049   3.012  0.4609  0.5501 -0.2409
  390MOL0     C52580   6.941   4.154   3.072 -0.1767 -0.1816 -0.0002
  390MOL0     C52581   6.225   4.019   2.827  0.0012  0.2548 -0.0840
  390MOL0     C52582   6.093   4.002   2.769 -0.5190  0.8357  0.7062
  390MOL0     H52583   5.686   4.134   2.620 -0.1680 -0.5295  2.3782
  390MOL0     H52584   5.469   4.133   2.513  0.5131 -1.0440  0.3008
  390MOL0     H52585   5.194   3.837   2.308  0.9705 -2.9610 -2.7479
  390MOL0     H52586   5.338   3.758   2.299 -0.2196 -0.3505  0.0535
  390MOL0     H52587   5.208   3.624   2.460  1.9512  0.2474 -0.8438
  390MOL0     H52588   5.300   3.730   2.576 -0.7073 -1.5734  1.1056
  390MOL0     H52589   5.063   3.719   2.629 -0.7864 -0.2767 -0.5911
  390MOL0     H52590   5.110   3.883   2.572  1.3314  0.0318 -2.8643
  390MOL0     H52591   4.967   3.858   2.390 -3.0836 -0.2054 -0.7422
  390MOL0     H52592   4.986   3.684   2.371  2.1132 -0.1438  0.9483
  390MOL0     H52593   4.826   3.645   2.556 -0.3203 -0.8049 -1.5092
  390MOL0     H52594   4.839   3.814   2.607 -0.6411 -0.2653  0.3735
  390MOL0     H52595   4.729   3.856   2.358  1.2871 -1.2979 -1.3196
  390MOL0     H52596   4.722   3.682   2.350  1.2779  0.6260 -0.5245
  390MOL0     H52597   4.553   3.703   2.557 -0.5099  0.4458  0.1410
  390MOL0     H52598   4.583   3.867   2.554  0.0509 -1.8352  1.5089
  390MOL0     H52599   4.511   3.727   2.294 -2.2075  0.3857 -0.2839
  390MOL0     H52600   4.469   3.896   2.336 -0.4336  0.4961 -0.1447
  390MOL0     H52601   4.258   3.640   2.272 -1.6698 -1.9999  0.9673
  390MOL0     H52602   3.971   3.636   2.304 -1.7825  1.1000  0.9983
  390MOL0     H52603   3.992   3.536   2.450 -1.8551  0.0910 -0.7530
  390MOL0     H52604   3.875   3.806   2.485 -0.6178 -0.2339  1.7870
  390MOL0     H52605   3.884   3.669   2.599  1.1978  2.6861  0.5742
  390MOL0     H52606   3.721   3.553   2.498  2.3842  0.2011  3.5381
  390MOL0     H52607   3.739   3.635   2.339  3.9660  2.7253 -0.0619
  390MOL0     H52608   3.609   3.824   2.412  2.2755  1.7751  1.7582
  390MOL0     H52609   3.636   3.797   2.582  0.9400  3.0850 -1.8537
  390MOL0     H52610   3.271   3.561   2.466 -1.0997  0.0599 -0.2373
  390MOL0     H52611   3.015   3.563   2.445  2.1144  1.5998 -1.1191
  390MOL0     H52612   2.998   3.553   2.622  3.9969  1.4845  2.1407
  390MOL0     H52613   2.935   3.699   2.526  0.0152 -0.4118 -1.9403
  390MOL0     H52614   2.778   3.853   2.667 -0.4550  0.1241 -0.9413
  390MOL0     H52615   2.529   3.819   2.712 -0.8498 -3.2502 -0.2555
  390MOL0     H52616   2.343   3.805   2.763  0.0799 -0.4827 -0.0298
  390MOL0     H52617   2.344   3.632   2.736 -0.8572 -0.5746  1.1206
  390MOL0     H52618   2.176   3.594   2.901 -0.8094 -0.8582 -1.8248
  390MOL0     H52619   2.187   3.774   2.944  1.6518 -0.9591  0.6739
  390MOL0     H52620   2.130   3.689   2.659 -0.3005  0.8331 -1.1608
  390MOL0     H52621   2.089   3.840   2.732  0.4842 -0.2785 -2.5598
  390MOL0     H52622   1.955   3.578   2.793  0.1829  1.1106  0.3360
  390MOL0     H52623   1.922   3.719   2.887 -0.8496 -3.7106  1.4089
  390MOL0     H52624   1.857   3.835   2.660 -2.1652  0.8306  0.8832
  390MOL0     H52625   1.763   3.698   2.720 -0.7356  2.3967 -0.4776
  390MOL0     H52626   1.969   3.645   2.494  0.5807  0.6422  0.3936
  390MOL0     H52627   1.865   3.534   2.586  0.3376 -0.2332 -1.8497
  390MOL0     H52628   1.793   3.742   2.392  3.0946  0.3938  2.7931
  390MOL0     H52629   1.673   3.681   2.501  0.5343  0.4509  0.5866
  390MOL0     H52630   1.713   3.452   2.429  1.0210 -2.5912 -2.5902
  390MOL0     H52631   1.851   3.497   2.325 -0.6049  0.1159 -1.8096
  390MOL0     H52632   2.603   3.579   3.048  0.8497  1.7097  0.4489
  390MOL0     H52633   2.840   3.620   3.033 -1.9667 -0.1991  1.5988
  390MOL0     H52634   3.271   3.934   2.782  2.6451  0.4504 -0.7733
  390MOL0     H52635   3.464   3.870   2.687 -0.9198  0.7343  2.3967
  390MOL0     H52636   5.510   3.715   2.450  0.9907 -1.3519  1.3805
  390MOL0     H52637   5.719   3.707   2.573  0.7592  0.0864 -0.7801
  390MOL0     H52638   6.008   3.717   2.940 -2.2991  0.5696 -1.3699
  390MOL0     H52639   6.228   3.757   3.037  2.9439  1.4874 -0.2426
  390MOL0     H52640   6.504   3.815   3.048 -2.2016 -0.4843 -0.7405
  390MOL0     H52641   6.495   3.819   2.870  0.4071  1.7266 -1.2178
  390MOL0     H52642   6.638   4.019   3.037 -1.5660 -2.0846  1.3690
  390MOL0     H52643   6.636   4.009   2.854 -0.3656  2.2636  1.4788
  390MOL0     H52644   6.755   3.781   2.887 -1.5057 -1.2939  0.8791
  390MOL0     H52645   6.780   3.833   3.066  1.5864  0.5231  0.0811
  390MOL0     H52646   6.865   3.993   2.822  0.0879  0.6870  0.7292
  390MOL0     H52647   6.970   3.871   2.907 -0.2144 -0.6111  1.2971
  390MOL0     H52648   6.979   4.237   3.129  1.6939 -0.9485 -0.0528
  390MOL0     H52649   6.291   4.096   2.788 -0.6845  0.5239 -0.7430
  390MOL0     H52650   6.062   4.065   2.686  2.2358  0.3677 -0.7929
  391MOL0     O52651   8.631   7.770   0.130 -0.5013  0.2882 -0.2659
  391MOL0     C52652   8.683   7.877   0.158  0.4435 -0.1002  0.5373
  391MOL0     O52653   8.616   7.982   0.219  0.7527 -0.0533  0.0370
  391MOL0     C52654   8.486   7.974   0.255  0.3344  0.1493 -0.1183
  391MOL0     C52655   8.442   7.870   0.345  0.2900  0.1212 -0.0272
  391MOL0     C52656   8.307   7.880   0.399  0.0644  1.2565  0.0435
  391MOL0     C52657   8.235   7.991   0.378 -0.9085  0.8029 -0.1885
  391MOL0     O52658   8.113   7.990   0.432 -0.1186 -0.0168  0.1938
  391MOL0     C52659   8.051   8.125   0.436 -0.0422  0.2332 -0.2227
  391MOL0     C52660   7.946   8.142   0.551  0.0380 -0.8061 -1.4820
  391MOL0     C52661   7.988   8.209   0.678 -0.1520 -1.1116 -0.5428
  391MOL0     C52662   8.041   8.355   0.652 -0.1780  0.5659 -0.8882
  391MOL0     C52663   8.049   8.430   0.792  0.3572 -0.2728  0.4627
  391MOL0     C52664   8.132   8.565   0.792  1.0361 -0.2751 -0.1921
  391MOL0     C52665   8.170   8.615   0.932 -0.2618 -0.2349 -0.0673
  391MOL0     C52666   8.268   8.738   0.920  0.1433  0.0125  0.8139
  391MOL0     N52667   8.192   8.862   0.881 -0.1051 -1.1300 -0.2667
  391MOL0     C52668   8.198   8.914   0.759  0.6939 -0.9592  0.7745
  391MOL0     C52669   8.116   9.030   0.762 -0.6109  0.0728 -0.0671
  391MOL0     C52670   8.075   9.117   0.649  0.9115  0.2221 -0.1812
  391MOL0     C52671   7.924   9.091   0.617 -0.2788 -0.1181 -0.3105
  391MOL0     C52672   7.880   9.176   0.498 -0.4290  0.5800 -0.0640
  391MOL0     C52673   7.733   9.162   0.467 -0.9449 -0.6485  0.5711
  391MOL0     O52674   7.650   9.239   0.548  0.3299 -0.6977 -0.0095
  391MOL0     C52675   7.531   9.283   0.495 -0.2219  0.2988 -0.5439
  391MOL0     C52676   7.477   9.222   0.381  0.2152  0.1291  0.3196
  391MOL0     C52677   7.352   9.260   0.325 -1.1362  1.6439  0.0812
  391MOL0     C52678   7.323   9.198   0.188  0.6892  0.3012 -1.1286
  391MOL0     C52679   7.268   9.356   0.395 -0.1523  0.4664  0.7180
  391MOL0     C52680   7.126   9.384   0.354 -0.1708 -0.0684 -0.9392
  391MOL0     O52681   7.055   9.292   0.286  0.2893  0.0355  0.0346
  391MOL0     C52682   6.924   9.316   0.258 -0.1192 -0.5499 -0.6657
  391MOL0     C52683   6.837   9.362   0.370  0.8966 -0.2109  0.8378
  391MOL0     C52684   6.695   9.363   0.349  0.6719  0.1711 -0.6315
  391MOL0     C52685   6.639   9.334   0.229 -0.0914  0.7744 -0.7955
  391MOL0     O52686   6.505   9.356   0.202 -0.1095 -0.4336  0.2498
  391MOL0     C52687   6.426   9.436   0.292  0.2239  0.3235 -0.1561
  391MOL0     C52688   6.294   9.475   0.230  0.1015  0.2266 -0.0887
  391MOL0     C52689   6.200   9.554   0.333 -0.6911 -0.1985 -0.8962
  391MOL0     C52690   6.058   9.561   0.281  0.4115 -1.0186 -0.4945
  391MOL0     C52691   5.983   9.438   0.222 -0.0053  0.6918 -0.5402
  391MOL0     C52692   5.979   9.322   0.325  0.7987  0.4017  0.6651
  391MOL0     C52693   5.897   9.202   0.267  0.5567 -0.2616  0.2025
  391MOL0     C52694   5.896   9.072   0.338 -0.6462 -0.9999 -0.1786
  391MOL0    Cl52695   6.072   9.007   0.357  0.5159  0.3201  0.4601
  391MOL0     C52696   6.720   9.281   0.133 -0.5957  0.0772 -0.0503
  391MOL0     C52697   6.859   9.267   0.148  0.1042  0.2838  0.5759
  391MOL0     O52698   7.084   9.499   0.387  0.4793  0.5123  0.3877
  391MOL0     C52699   7.334   9.424   0.502 -1.0062 -0.0657  0.3140
  391MOL0     C52700   7.459   9.389   0.554 -0.6015  0.1681  0.5343
  391MOL0     N52701   8.061   9.042   0.887 -0.0550 -0.9545 -0.6632
  391MOL0     N52702   8.114   8.947   0.959 -0.6133 -0.4958  0.8254
  391MOL0     C52703   8.273   8.088   0.290 -0.2445  1.0223  0.3998
  391MOL0     C52704   8.403   8.086   0.230 -0.0577  0.2947 -0.0196
  391MOL0     C52705   8.832   7.893   0.139  0.4938  0.0461 -0.4733
  391MOL0     C52706   8.914   7.781   0.106  0.0381  0.0580 -0.5223
  391MOL0     C52707   9.049   7.783   0.086  0.2837  0.2561  0.3401
  391MOL0     C52708   9.114   7.902   0.090  0.0674 -0.8485  0.1483
  391MOL0     O52709   9.248   7.896   0.056  0.4910  0.0104  0.3670
  391MOL0     C52710   9.314   8.022   0.050  0.1637 -0.3032  0.9367
  391MOL0     C52711   9.449   8.001  -0.024  0.6957 -0.1562  0.3932
  391MOL0     C52712   9.540   7.908   0.065  0.6972 -0.1466 -0.0779
  391MOL0     C52713   9.667   7.887  -0.011 -1.0458 -0.9020 -0.8751
  391MOL0     C52714   9.742   7.771   0.040  0.4713  0.4971  0.0632
  391MOL0     C52715   9.798   7.668   0.083  0.6408 -0.0981 -0.6838
  391MOL0     C52716   9.042   8.018   0.137 -0.2890 -0.0645  0.2217
  391MOL0     C52717   8.900   8.014   0.156  0.1537 -0.4182  0.5544
  391MOL0     H52718   8.503   7.783   0.367  0.4957 -0.2425 -1.8828
  391MOL0     H52719   8.272   7.792   0.452  3.1286 -0.6372 -0.8060
  391MOL0     H52720   8.126   8.200   0.465 -1.1179  1.6966 -1.0683
  391MOL0     H52721   8.003   8.152   0.341 -0.0084 -2.0839 -0.9425
  391MOL0     H52722   7.856   8.196   0.522 -0.4075 -0.8742 -0.2683
  391MOL0     H52723   7.919   8.043   0.589  0.4453 -0.2825  0.2687
  391MOL0     H52724   7.904   8.216   0.747 -0.6948 -0.2668 -1.2594
  391MOL0     H52725   8.062   8.144   0.725 -1.6943 -2.5406 -0.0104
  391MOL0     H52726   8.143   8.355   0.612  0.8471  0.4298  1.5115
  391MOL0     H52727   7.969   8.404   0.587 -0.6710  1.5676  0.3587
  391MOL0     H52728   7.945   8.451   0.819  0.5087 -0.5421  1.2819
  391MOL0     H52729   8.075   8.363   0.874 -1.0663  1.0434  2.0758
  391MOL0     H52730   8.226   8.556   0.737  0.9171 -0.5440 -0.3527
  391MOL0     H52731   8.072   8.644   0.746  1.7565 -0.3987 -1.3628
  391MOL0     H52732   8.080   8.649   0.984  1.1986  2.3554  0.9086
  391MOL0     H52733   8.229   8.537   0.982  1.8767  1.1786 -0.2598
  391MOL0     H52734   8.349   8.723   0.848  0.6688  1.6428  1.0105
  391MOL0     H52735   8.309   8.746   1.022 -1.1350 -4.0836  1.7998
  391MOL0     H52736   8.243   8.880   0.666  0.2383  1.8758 -0.5723
  391MOL0     H52737   8.087   9.221   0.680 -1.2988  0.1800  1.0534
  391MOL0     H52738   8.138   9.092   0.564  2.8312 -0.0714  1.2495
  391MOL0     H52739   7.863   9.119   0.703 -0.8278 -2.1168  0.0080
  391MOL0     H52740   7.907   8.986   0.591  0.7160  0.0989 -1.9554
  391MOL0     H52741   7.936   9.161   0.406 -2.0260 -0.4540 -0.9017
  391MOL0     H52742   7.886   9.283   0.520  0.2252  0.8132 -1.3162
  391MOL0     H52743   7.697   9.058   0.469  0.5014 -1.2432 -1.3017
  391MOL0     H52744   7.721   9.192   0.362 -0.3180 -2.2869 -0.0090
  391MOL0     H52745   7.532   9.140   0.335 -0.7634 -0.5293  0.3103
  391MOL0     H52746   7.281   9.097   0.195 -2.7923  1.4182 -3.4946
  391MOL0     H52747   7.242   9.253   0.140  0.9129  1.7275  0.0601
  391MOL0     H52748   7.404   9.214   0.117  0.6538  1.8716 -0.8578
  391MOL0     H52749   6.883   9.389   0.464  1.3219 -1.8458  1.1462
  391MOL0     H52750   6.648   9.400   0.440  2.7669  2.1952 -0.2709
  391MOL0     H52751   6.405   9.381   0.384 -1.5611 -1.5443 -1.6036
  391MOL0     H52752   6.484   9.528   0.305 -1.7943  1.8148 -1.2128
  391MOL0     H52753   6.318   9.543   0.149  0.2104 -0.0322 -0.2755
  391MOL0     H52754   6.238   9.384   0.205 -0.3615  0.9699 -1.9280
  391MOL0     H52755   6.236   9.655   0.352 -0.2008 -0.7643  1.5263
  391MOL0     H52756   6.198   9.506   0.431 -0.5586 -1.0510 -1.2953
  391MOL0     H52757   6.004   9.595   0.369 -0.9210 -1.2572 -1.1880
  391MOL0     H52758   6.050   9.644   0.210  1.8822 -0.4422 -0.0175
  391MOL0     H52759   6.042   9.394   0.141  0.3558 -2.2735  1.2048
  391MOL0     H52760   5.879   9.462   0.197 -0.4141 -2.6385 -2.6562
  391MOL0     H52761   6.081   9.297   0.355  0.0157 -1.9405  1.5967
  391MOL0     H52762   5.926   9.353   0.415 -0.9809  1.6948 -0.7458
  391MOL0     H52763   5.939   9.170   0.172  3.3327 -1.2667  1.6570
  391MOL0     H52764   5.791   9.224   0.252  0.8397 -0.3320 -2.3302
  391MOL0     H52765   5.845   9.012   0.262 -1.2138 -0.9384  0.1510
  391MOL0     H52766   5.841   9.069   0.432  1.8787 -3.3892  1.3959
  391MOL0     H52767   6.665   9.249   0.045  1.5949 -1.6699 -0.8844
  391MOL0     H52768   6.921   9.227   0.068  1.3669  2.9394  0.1294
  391MOL0     H52769   7.271   9.505   0.539 -1.7340 -1.1900  1.6496
  391MOL0     H52770   7.501   9.442   0.639 -0.0645 -0.8715  0.9460
  391MOL0     H52771   8.214   8.174   0.261  1.1817  0.8861 -3.3176
  391MOL0     H52772   8.428   8.167   0.161 -1.1839 -1.6896 -2.9678
  391MOL0     H52773   8.869   7.682   0.097 -2.0424  1.0141 -1.2971
  391MOL0     H52774   9.104   7.691   0.071 -1.0039 -0.4071 -0.4897
  391MOL0     H52775   9.247   8.085  -0.010  0.8842  0.8682  1.3494
  391MOL0     H52776   9.331   8.057   0.152  0.0354  1.6935  0.3067
  391MOL0     H52777   9.502   8.095  -0.045  0.6783 -0.6701 -2.1929
  391MOL0     H52778   9.436   7.944  -0.116  0.9636  2.5964 -1.4928
  391MOL0     H52779   9.492   7.810   0.075 -1.8200  1.1523  1.6326
  391MOL0     H52780   9.558   7.948   0.165  1.6098  0.2152 -0.3744
  391MOL0     H52781   9.727   7.978  -0.009 -1.8226 -0.3630 -1.3566
  391MOL0     H52782   9.641   7.857  -0.113 -0.9837 -4.9091  0.1270
  391MOL0     H52783   9.835   7.583   0.136 -0.8462 -0.8021 -0.7211
  391MOL0     H52784   9.096   8.112   0.138 -0.5141  0.0859  1.9853
  391MOL0     H52785   8.844   8.098   0.195 -0.0747 -0.5575  0.5277
  392MOL0     O52786   8.196   5.445   0.028 -0.0673 -0.0760  0.1462
  392MOL0     C52787   8.269   5.521  -0.033  0.3588 -0.4825  0.2671
  392MOL0     O52788   8.237   5.648  -0.066  0.1060 -0.3323  0.0286
  392MOL0     C52789   8.101   5.688  -0.041  0.2468  0.8723  0.1142
  392MOL0     C52790   7.994   5.621  -0.100  0.5339 -0.4978 -0.6042
  392MOL0     C52791   7.862   5.651  -0.066 -0.0876 -0.0704  0.1457
  392MOL0     C52792   7.836   5.764   0.010  0.4771  0.5052  0.7245
  392MOL0     O52793   7.695   5.790   0.034 -0.2825 -0.2766  0.2739
  392MOL0     C52794   7.676   5.905   0.117 -0.2374 -0.2947 -0.1063
  392MOL0     C52795   7.525   5.929   0.144 -0.1533 -1.2275 -0.3862
  392MOL0     C52796   7.474   5.816   0.227 -0.1989 -0.0643 -0.0857
  392MOL0     C52797   7.326   5.819   0.220  0.7799  0.0381 -0.1856
  392MOL0     C52798   7.266   5.702   0.294 -0.0182 -0.6914 -1.5324
  392MOL0     C52799   7.122   5.685   0.268  0.1241 -0.1198 -0.0854
  392MOL0     C52800   7.050   5.566   0.326 -0.2876  1.0517 -0.2663
  392MOL0     C52801   6.922   5.520   0.251  0.3326  0.2053  1.3422
  392MOL0     N52802   6.820   5.628   0.254  0.0870 -0.0293 -0.0044
  392MOL0     C52803   6.729   5.662   0.157 -0.9799  0.1451 -0.0040
  392MOL0     C52804   6.670   5.771   0.196 -0.6164 -0.0621 -0.2755
  392MOL0     C52805   6.566   5.845   0.122  0.8307  0.4735 -0.2017
  392MOL0     C52806   6.438   5.761   0.134 -0.3617 -0.2948  0.0270
  392MOL0     C52807   6.316   5.830   0.074 -0.0530  0.0653 -0.5454
  392MOL0     C52808   6.192   5.741   0.069  0.1667  0.4749  0.3162
  392MOL0     O52809   6.108   5.807  -0.030  0.1699  0.2308  0.2783
  392MOL0     C52810   5.971   5.789  -0.025 -0.0053 -0.5208 -0.0955
  392MOL0     C52811   5.885   5.892  -0.044 -1.0136 -0.3779  0.0124
  392MOL0     C52812   5.750   5.883  -0.025  0.3135  0.4893  0.5626
  392MOL0     C52813   5.650   5.996  -0.064 -0.1726  0.1961 -0.4254
  392MOL0     C52814   5.699   5.759   0.016 -0.2556  0.0467  0.4617
  392MOL0     C52815   5.556   5.732   0.029 -0.0140 -0.7696  0.1656
  392MOL0     O52816   5.481   5.752  -0.081 -0.5580 -0.1438  0.4812
  392MOL0     C52817   5.350   5.719  -0.082 -0.2122  1.0224  0.0053
  392MOL0     C52818   5.258   5.805  -0.031  0.5303 -0.3055  1.3466
  392MOL0     C52819   5.116   5.770  -0.021 -0.5912 -0.1321 -0.5649
  392MOL0     C52820   5.072   5.643  -0.065 -0.3985  0.5518 -0.1990
  392MOL0     O52821   4.941   5.609  -0.055 -0.3077  0.0224  0.4529
  392MOL0     C52822   4.891   5.487  -0.126 -0.5441 -0.2173 -0.1907
  392MOL0     C52823   4.742   5.483  -0.110 -1.1988 -0.9535  0.4917
  392MOL0     C52824   4.691   5.358  -0.185  0.3647 -1.0753 -0.1344
  392MOL0     C52825   4.542   5.333  -0.164 -0.0447  0.6484 -0.1304
  392MOL0     C52826   4.454   5.428  -0.245  0.6478 -0.1195  0.5949
  392MOL0     C52827   4.307   5.382  -0.237  0.1611  0.1402 -0.8699
  392MOL0     C52828   4.209   5.465  -0.325 -0.2452  0.4440  0.1687
  392MOL0     C52829   4.190   5.610  -0.278  0.7970 -0.1723  0.3947
  392MOL0    Cl52830   4.067   5.682  -0.368  0.2693 -0.0007  0.4036
  392MOL0     C52831   5.170   5.551  -0.106 -0.0172 -0.3407 -0.1226
  392MOL0     C52832   5.306   5.593  -0.112  0.5557 -0.2313  0.4135
  392MOL0     O52833   5.517   5.686   0.135 -0.0863 -0.3371  0.3191
  392MOL0     C52834   5.789   5.658   0.036 -0.0404 -0.0080  0.1323
  392MOL0     C52835   5.920   5.672   0.014 -0.6901  0.3713  0.2114
  392MOL0     N52836   6.727   5.811   0.319  0.1960  0.2088  0.0503
  392MOL0     N52837   6.816   5.719   0.355 -0.2956  0.1197 -0.0963
  392MOL0     C52838   7.943   5.831   0.071 -1.0224 -1.3223  0.1068
  392MOL0     C52839   8.074   5.783   0.056  0.0351  0.0979  0.0600
  392MOL0     C52840   8.408   5.476  -0.062 -0.4215 -0.3472  0.5704
  392MOL0     C52841   8.444   5.341  -0.055  0.4501 -0.0022 -0.6535
  392MOL0     C52842   8.571   5.298  -0.088 -0.1207  1.1613 -0.5333
  392MOL0     C52843   8.676   5.382  -0.116  0.5834 -0.8664 -0.1264
  392MOL0     O52844   8.796   5.322  -0.138  1.1503 -0.6745  0.6825
  392MOL0     C52845   8.906   5.408  -0.175  0.3010 -0.4813 -0.1087
  392MOL0     C52846   9.036   5.323  -0.174  0.3122  0.1409  0.0601
  392MOL0     C52847   9.153   5.397  -0.241 -0.2661 -1.1229  1.0626
  392MOL0     C52848   9.247   5.284  -0.311  0.6191  0.4126 -0.2286
  392MOL0     C52849   9.188   5.217  -0.423 -0.0749  0.2999  0.9328
  392MOL0     C52850   9.145   5.192  -0.532 -0.0289  0.4348  0.3876
  392MOL0     C52851   8.639   5.517  -0.135 -0.7023  0.6993 -0.3898
  392MOL0     C52852   8.513   5.563  -0.105  0.5915  0.1256  0.2931
  392MOL0     H52853   8.021   5.555  -0.182  1.4900  0.3685 -1.0168
  392MOL0     H52854   7.783   5.593  -0.113 -0.0857 -0.7308  0.9184
  392MOL0     H52855   7.731   5.880   0.208  0.1157 -0.6699 -0.4214
  392MOL0     H52856   7.725   5.988   0.065 -0.5960 -0.9379 -1.5221
  392MOL0     H52857   7.510   6.022   0.199 -0.3049 -0.7213 -1.2610
  392MOL0     H52858   7.476   5.934   0.046  1.5785 -0.1245 -1.2258
  392MOL0     H52859   7.520   5.722   0.195 -0.8640 -0.1310 -0.8710
  392MOL0     H52860   7.493   5.846   0.330 -4.0607  1.0348  0.4750
  392MOL0     H52861   7.301   5.916   0.263 -0.1855  0.1281 -0.9213
  392MOL0     H52862   7.297   5.818   0.115  1.3548  2.0011 -0.3890
  392MOL0     H52863   7.314   5.609   0.260 -0.8712 -1.6018 -0.3534
  392MOL0     H52864   7.283   5.700   0.402  1.2890  0.0628 -1.7084
  392MOL0     H52865   7.058   5.769   0.297  1.0734  0.7769 -0.5516
  392MOL0     H52866   7.113   5.683   0.159  0.6337  2.3289 -0.2135
  392MOL0     H52867   7.115   5.479   0.333 -1.2551  0.2344 -1.1749
  392MOL0     H52868   7.018   5.582   0.430 -2.9926 -3.1870 -0.1820
  392MOL0     H52869   6.885   5.431   0.303  0.2553 -1.7875 -1.8539
  392MOL0     H52870   6.941   5.496   0.147  1.1499  2.2941  0.9560
  392MOL0     H52871   6.710   5.616   0.060  0.6178  2.3779 -1.4722
  392MOL0     H52872   6.552   5.947   0.159 -2.2353  0.2496 -0.4836
  392MOL0     H52873   6.596   5.850   0.017  1.0698 -0.2654 -0.1734
  392MOL0     H52874   6.415   5.722   0.234 -1.2279  0.0843 -0.0148
  392MOL0     H52875   6.448   5.664   0.086  0.5354 -1.2541  2.0238
  392MOL0     H52876   6.344   5.863  -0.026 -0.4830 -0.7335 -0.9326
  392MOL0     H52877   6.299   5.921   0.132  1.0563 -0.9338  1.4462
  392MOL0     H52878   6.152   5.733   0.171 -0.9160  3.2906  0.2011
  392MOL0     H52879   6.224   5.644   0.030 -0.2601 -0.4130  2.0445
  392MOL0     H52880   5.920   5.987  -0.085  0.7238 -0.8963  0.2685
  392MOL0     H52881   5.584   5.947  -0.136 -0.6600 -0.4447  0.4385
  392MOL0     H52882   5.588   6.032   0.019  1.7672  1.3463  0.5924
  392MOL0     H52883   5.697   6.080  -0.116  1.2745 -0.1745  0.2482
  392MOL0     H52884   5.291   5.907  -0.016 -1.9897  0.7038  0.4814
  392MOL0     H52885   5.048   5.838   0.029 -0.5204 -0.6866  0.3035
  392MOL0     H52886   4.913   5.500  -0.232 -0.6178  1.5250 -0.0108
  392MOL0     H52887   4.937   5.393  -0.091  1.0552  0.5375 -0.1617
  392MOL0     H52888   4.705   5.462  -0.009 -0.4199 -0.3795  0.9077
  392MOL0     H52889   4.699   5.572  -0.155 -2.8615 -1.1680  1.5980
  392MOL0     H52890   4.746   5.280  -0.133 -0.2251 -2.5009 -1.5832
  392MOL0     H52891   4.722   5.347  -0.289  5.0017  1.8763  0.6389
  392MOL0     H52892   4.524   5.228  -0.187 -1.6704  0.4847  1.6499
  392MOL0     H52893   4.516   5.332  -0.058 -0.0466 -0.0672 -0.1357
  392MOL0     H52894   4.481   5.424  -0.350 -3.4068  1.7400 -0.7255
  392MOL0     H52895   4.448   5.532  -0.210 -2.2624 -1.1799  3.9543
  392MOL0     H52896   4.307   5.282  -0.281 -0.7208 -0.5577  0.6169
  392MOL0     H52897   4.254   5.386  -0.141 -0.8732  0.8601 -1.4448
  392MOL0     H52898   4.113   5.419  -0.301  0.3095  0.1269  1.9744
  392MOL0     H52899   4.240   5.452  -0.429  0.9791 -0.5421  0.6304
  392MOL0     H52900   4.283   5.666  -0.267  1.3844 -1.2459  1.1139
  392MOL0     H52901   4.144   5.613  -0.179 -3.1300  2.5530 -1.2538
  392MOL0     H52902   5.138   5.452  -0.138 -0.8410 -0.0479 -0.2203
  392MOL0     H52903   5.379   5.515  -0.128  0.3996 -0.7327  2.0157
  392MOL0     H52904   5.751   5.560   0.061 -1.0706  0.1370 -0.7978
  392MOL0     H52905   5.985   5.586   0.030 -0.7212  0.2748 -0.1738
  392MOL0     H52906   7.942   5.918   0.136  1.3363 -1.4924  0.4532
  392MOL0     H52907   8.163   5.832   0.093 -1.7363  3.8675 -0.1006
  392MOL0     H52908   8.387   5.264  -0.004  2.6981 -0.0678  2.0495
  392MOL0     H52909   8.595   5.195  -0.062 -0.1805 -0.1690 -4.8154
  392MOL0     H52910   8.887   5.463  -0.267  1.2819  1.1497  0.6219
  392MOL0     H52911   8.915   5.475  -0.089 -1.1037 -1.1876  0.6264
  392MOL0     H52912   9.004   5.234  -0.230 -2.2566  1.3013 -0.4422
  392MOL0     H52913   9.074   5.301  -0.073  1.8451  1.2519 -0.2379
  392MOL0     H52914   9.219   5.455  -0.176  1.4836 -0.3773 -1.2572
  392MOL0     H52915   9.108   5.470  -0.309 -0.1877 -0.9096  1.2370
  392MOL0     H52916   9.271   5.212  -0.232  1.8771  1.2763  0.2067
  392MOL0     H52917   9.332   5.340  -0.351  0.7981 -0.3358 -0.9259
  392MOL0     H52918   9.105   5.158  -0.626 -2.3603 -4.3713  2.7495
  392MOL0     H52919   8.712   5.583  -0.178 -0.0704  0.3659  0.1534
  392MOL0     H52920   8.490   5.669  -0.112 -1.2195 -0.3315 -2.2033
  393MOL0     O52921   9.119   0.119   1.510 -0.2601  0.4479  0.2950
  393MOL0     C52922   9.159   0.004   1.499  0.3316  0.7787 -0.0464
  393MOL0     O52923   9.076  -0.104   1.469 -0.3997 -0.6004 -0.3905
  393MOL0     C52924   8.949  -0.067   1.463  0.1700  0.2574  0.2683
  393MOL0     C52925   8.908   0.027   1.364 -0.0230  0.2974  0.6493
  393MOL0     C52926   8.780   0.068   1.359  0.3541 -0.0580  0.0494
  393MOL0     C52927   8.682   0.021   1.444  0.1348  0.6173 -0.0034
  393MOL0     O52928   8.544   0.046   1.436 -0.5210 -0.1399  0.2935
  393MOL0     C52929   8.485   0.127   1.327 -0.3057 -0.3537 -0.3786
  393MOL0     C52930   8.503   0.274   1.364  0.8128  0.3890  0.1395
  393MOL0     C52931   8.433   0.324   1.498 -0.1940  0.3427  0.1197
  393MOL0     C52932   8.294   0.294   1.525 -0.0226  0.3056  0.0809
  393MOL0     C52933   8.204   0.396   1.453  0.1041  0.1015  0.0881
  393MOL0     C52934   8.056   0.385   1.489  0.0305 -0.4416 -0.0132
  393MOL0     C52935   7.995   0.526   1.451 -0.1571 -0.3545 -0.6836
  393MOL0     C52936   7.852   0.518   1.507  0.4382  0.6146  0.2634
  393MOL0     N52937   7.772   0.641   1.485 -1.4018 -0.5056 -0.6474
  393MOL0     C52938   7.650   0.666   1.538 -0.5264  0.2946 -0.0087
  393MOL0     C52939   7.625   0.801   1.516  0.4659  0.2525  0.7518
  393MOL0     C52940   7.509   0.880   1.560  0.2679  0.1633  0.6089
  393MOL0     C52941   7.415   0.891   1.448 -0.1207 -1.2428  0.6437
  393MOL0     C52942   7.316   0.780   1.452  0.4880  0.0604 -0.2322
  393MOL0     C52943   7.218   0.776   1.337 -0.4431 -0.0694  0.1267
  393MOL0     O52944   7.130   0.667   1.369  0.1649  0.0579  0.0217
  393MOL0     C52945   7.035   0.626   1.285 -0.7378  0.2185 -0.7543
  393MOL0     C52946   7.062   0.647   1.152  0.7429 -0.3305 -0.7920
  393MOL0     C52947   6.954   0.625   1.064  0.0920  0.3098  0.0767
  393MOL0     C52948   6.983   0.633   0.916 -0.5439 -0.2508 -0.8578
  393MOL0     C52949   6.826   0.597   1.106  0.8387 -0.7242  0.9635
  393MOL0     C52950   6.708   0.575   1.017  0.0363  0.2401  0.5135
  393MOL0     O52951   6.617   0.484   1.053  0.1816  0.4712 -1.0176
  393MOL0     C52952   6.543   0.423   0.954 -0.6919 -0.4679 -0.1944
  393MOL0     C52953   6.406   0.428   0.955  0.4092  0.5682  0.2250
  393MOL0     C52954   6.333   0.384   0.851 -0.3759 -0.2146  0.9356
  393MOL0     C52955   6.395   0.335   0.735  0.4831  0.9692  0.7018
  393MOL0     O52956   6.327   0.310   0.623  0.0856 -0.2051 -1.0579
  393MOL0     C52957   6.320   0.169   0.596 -0.3301 -0.5976  0.3552
  393MOL0     C52958   6.187   0.134   0.526 -0.7031  0.4237 -0.6957
  393MOL0     C52959   6.171  -0.012   0.500 -0.5269  0.6332 -0.2275
  393MOL0     C52960   6.025  -0.040   0.505  0.2125 -0.5322  0.0392
  393MOL0     C52961   5.991  -0.187   0.523  0.2418  1.0923 -0.7330
  393MOL0     C52962   5.838  -0.205   0.534  0.8711  0.2708 -0.2037
  393MOL0     C52963   5.763  -0.187   0.408  0.3754 -0.0897 -0.0754
  393MOL0     C52964   5.611  -0.221   0.441  0.1421 -0.3670 -0.0305
  393MOL0    Cl52965   5.547  -0.088   0.548 -0.1802  0.6537  0.2773
  393MOL0     C52966   6.525   0.310   0.737  1.5155  0.0701  0.0790
  393MOL0     C52967   6.606   0.353   0.846  0.2758  0.0537  0.5875
  393MOL0     O52968   6.696   0.650   0.917 -0.4438 -0.5322 -0.1393
  393MOL0     C52969   6.805   0.559   1.243  0.8153  0.2904  0.4617
  393MOL0     C52970   6.912   0.587   1.335  0.4933 -0.2159  0.2833
  393MOL0     N52971   7.734   0.847   1.451  0.3738 -1.0556  0.1353
  393MOL0     N52972   7.819   0.754   1.431 -0.2432 -0.3868  0.4651
  393MOL0     C52973   8.723  -0.068   1.544 -0.3140  0.1806 -0.5749
  393MOL0     C52974   8.856  -0.110   1.563 -0.5273  0.3622  0.4083
  393MOL0     C52975   9.310  -0.010   1.511  0.2701 -0.2679 -0.7719
  393MOL0     C52976   9.370  -0.132   1.513 -0.3568  0.0264 -0.4886
  393MOL0     C52977   9.500  -0.149   1.522 -0.5254 -0.9090 -0.2563
  393MOL0     C52978   9.591  -0.042   1.534 -0.4130 -0.0143 -0.1559
  393MOL0     O52979   9.723  -0.080   1.549 -1.1242 -0.3619  0.6147
  393MOL0     C52980   9.833   0.014   1.569  0.1198  0.1019 -0.1750
  393MOL0     C52981   9.946  -0.068   1.633 -0.4009 -0.4643 -0.3043
  393MOL0     C52982  10.072   0.004   1.671 -0.1398 -0.0420  0.2312
  393MOL0     C52983  10.114   0.117   1.587  0.5597 -0.2180  0.3135
  393MOL0     C52984  10.127   0.089   1.441 -0.1080  0.1159  0.8451
  393MOL0     C52985  10.135   0.066   1.320  0.4370 -0.0245 -0.3758
  393MOL0     C52986   9.541   0.089   1.530 -0.3730 -0.2143 -0.4904
  393MOL0     C52987   9.402   0.103   1.516 -0.3224  0.9305 -0.1798
  393MOL0     H52988   8.982   0.068   1.296 -2.9567  3.7165 -0.7795
  393MOL0     H52989   8.762   0.140   1.280  1.3653 -2.8536 -2.9409
  393MOL0     H52990   8.532   0.102   1.231  1.0244 -1.7483  0.5747
  393MOL0     H52991   8.379   0.103   1.340 -0.6928  2.1437  1.9159
  393MOL0     H52992   8.604   0.317   1.366  0.3747  1.4556 -0.0421
  393MOL0     H52993   8.449   0.332   1.288 -0.9960  0.1629  1.2026
  393MOL0     H52994   8.493   0.264   1.566  2.8634 -0.3470 -2.8584
  393MOL0     H52995   8.463   0.427   1.519  2.7901 -0.4335  0.0596
  393MOL0     H52996   8.273   0.191   1.496  0.8942  0.4507 -1.2231
  393MOL0     H52997   8.270   0.307   1.631 -0.9291  1.5710 -0.2511
  393MOL0     H52998   8.241   0.497   1.474 -1.1956  0.9196 -1.3178
  393MOL0     H52999   8.215   0.393   1.344 -2.5134  0.9711 -0.2823
  393MOL0     H53000   8.008   0.306   1.432 -0.2263  0.8370 -1.6542
  393MOL0     H53001   8.041   0.366   1.595 -2.2349  1.4443  0.0772
  393MOL0     H53002   8.049   0.607   1.502 -1.1015 -1.5941  2.5497
  393MOL0     H53003   7.995   0.550   1.345  0.7754  2.1877 -0.1806
  393MOL0     H53004   7.842   0.500   1.615 -1.9875 -0.4905 -0.0760
  393MOL0     H53005   7.790   0.437   1.466  0.2379  0.4216  0.9338
  393MOL0     H53006   7.587   0.596   1.592 -0.0009 -0.4163 -0.2883
  393MOL0     H53007   7.466   0.837   1.651  0.5621  0.0496  0.6937
  393MOL0     H53008   7.547   0.980   1.586  1.6251 -0.7753  2.4800
  393MOL0     H53009   7.463   0.899   1.351  0.1742  2.3293  0.9436
  393MOL0     H53010   7.352   0.980   1.456 -0.4519 -1.4111 -0.0427
  393MOL0     H53011   7.242   0.800   1.531 -2.1175  0.0605 -2.5313
  393MOL0     H53012   7.362   0.681   1.462 -1.3763 -0.9398 -1.1222
  393MOL0     H53013   7.277   0.760   1.246 -1.7045  2.1280 -1.1676
  393MOL0     H53014   7.170   0.874   1.328  3.1267  1.7406 -1.0976
  393MOL0     H53015   7.160   0.673   1.114  0.2767  1.0066 -1.1160
  393MOL0     H53016   6.953   0.542   0.865  2.4697 -1.2387 -1.0294
  393MOL0     H53017   6.932   0.722   0.876  0.8823  1.1359  0.2650
  393MOL0     H53018   7.091   0.636   0.905 -0.0793 -3.3217  1.4617
  393MOL0     H53019   6.357   0.473   1.041  0.4563 -0.3160  0.7135
  393MOL0     H53020   6.228   0.407   0.842 -0.3146  0.2338  1.3217
  393MOL0     H53021   6.402   0.144   0.527 -0.0312  1.3079 -0.0512
  393MOL0     H53022   6.341   0.105   0.682  2.0852 -0.2214  0.1152
  393MOL0     H53023   6.108   0.164   0.594  2.0512  1.5293  2.2913
  393MOL0     H53024   6.189   0.195   0.435  1.1522  1.4886 -0.0029
  393MOL0     H53025   6.224  -0.074   0.572  0.2087  1.1142 -0.3409
  393MOL0     H53026   6.212  -0.034   0.401 -0.2230  0.8604 -0.1537
  393MOL0     H53027   5.983   0.006   0.594 -1.5598 -2.9117  0.5552
  393MOL0     H53028   5.967  -0.010   0.417 -1.7799 -2.4369  0.5959
  393MOL0     H53029   6.035  -0.223   0.617 -1.5328  0.7453  0.0045
  393MOL0     H53030   6.034  -0.239   0.437  3.3887 -1.5000  2.1060
  393MOL0     H53031   5.823  -0.311   0.558  3.5159 -0.4527 -1.3381
  393MOL0     H53032   5.797  -0.156   0.623  1.7749  0.5018  0.0974
  393MOL0     H53033   5.810  -0.247   0.329 -0.0020  0.6466 -0.8768
  393MOL0     H53034   5.760  -0.084   0.371 -0.4761 -1.2984 -3.8294
  393MOL0     H53035   5.590  -0.315   0.494 -2.1937  0.2210  0.1753
  393MOL0     H53036   5.543  -0.230   0.355 -1.8584 -1.9061  1.5903
  393MOL0     H53037   6.572   0.266   0.649  2.6368 -1.6973  1.4849
  393MOL0     H53038   6.714   0.357   0.852  0.2551  0.3187  0.8213
  393MOL0     H53039   6.719   0.505   1.280  2.6986 -1.2028  2.9920
  393MOL0     H53040   6.889   0.586   1.441 -1.8955  3.9907  0.0170
  393MOL0     H53041   8.656  -0.119   1.613  2.4933  2.3220  4.2342
  393MOL0     H53042   8.875  -0.185   1.639 -1.2267  1.8786  2.1513
  393MOL0     H53043   9.306  -0.219   1.524 -0.6338  0.4539  1.8496
  393MOL0     H53044   9.543  -0.249   1.514  2.7284  0.3513  0.1464
  393MOL0     H53045   9.862   0.052   1.470  3.0002  1.2208  0.9951
  393MOL0     H53046   9.810   0.095   1.638  1.6207  1.5026 -1.2431
  393MOL0     H53047   9.969  -0.159   1.576  0.2780 -0.4694 -0.0254
  393MOL0     H53048   9.922  -0.107   1.732  0.3485  0.2814  0.1850
  393MOL0     H53049  10.157  -0.062   1.686  0.2946 -0.3183 -2.7175
  393MOL0     H53050  10.051   0.055   1.765 -0.3311  2.0081 -0.8560
  393MOL0     H53051  10.199   0.169   1.633 -1.0110  1.4391  1.4393
  393MOL0     H53052  10.037   0.194   1.592 -1.2806 -2.0246  1.1868
  393MOL0     H53053  10.126   0.051   1.214  2.6590  0.9957 -0.7541
  393MOL0     H53054   9.606   0.171   1.561 -1.0456 -0.9062  3.0956
  393MOL0     H53055   9.360   0.203   1.514 -0.8272  0.7110 -1.5675
  394MOL0     O53056   0.036  11.223   0.265 -0.5253 -0.3913 -0.3672
  394MOL0     C53057   0.093  11.280   0.176  0.6856 -0.0095 -0.4787
  394MOL0     O53058   0.057  11.405   0.138 -0.7424  0.4573  0.3792
  394MOL0     C53059  -0.054  11.459   0.188 -0.9355  0.1940  0.3542
  394MOL0     C53060  -0.045  11.600   0.212 -0.1106 -0.2186  0.3408
  394MOL0     C53061  -0.154  11.676   0.242 -0.5501  0.3468 -0.3955
  394MOL0     C53062  -0.276  11.614   0.263 -0.9774  0.2911 -0.1742
  394MOL0     O53063  -0.385  11.687   0.303 -0.4872 -0.4787  0.2801
  394MOL0     C53064  -0.373  11.806   0.378 -0.2227  0.7101 -0.3046
  394MOL0     C53065  -0.505  11.886   0.393 -0.3238  0.0528 -0.4880
  394MOL0     C53066  -0.624  11.824   0.460  0.6482  0.4826  0.7327
  394MOL0     C53067  -0.744  11.924   0.472  0.0401  0.9081  0.2914
  394MOL0     C53068  -0.859  11.882   0.561  0.0841 -0.1073 -0.1819
  394MOL0     C53069  -0.986  11.959   0.511 -0.4427 -0.6776 -0.6667
  394MOL0     C53070  -1.111  11.927   0.598 -0.0294  0.6353 -0.6942
  394MOL0     C53071  -1.230  12.014   0.561 -0.3301 -0.1703  0.1038
  394MOL0     N53072  -1.345  11.985   0.646 -0.1507  0.0629 -0.9471
  394MOL0     C53073  -1.429  12.079   0.691  0.6944  0.6437  0.0407
  394MOL0     C53074  -1.499  12.014   0.787 -0.6760 -0.9314 -0.5086
  394MOL0     C53075  -1.599  12.089   0.875 -0.5441  0.0580 -1.0050
  394MOL0     C53076  -1.603  12.029   1.016 -0.0221  0.9068  0.7065
  394MOL0     C53077  -1.686  12.107   1.124 -0.1737 -0.0637  0.4480
  394MOL0     C53078  -1.824  12.056   1.147 -0.5027  0.5231 -0.5076
  394MOL0     O53079  -1.895  12.055   1.028  0.8961 -0.3769  0.7298
  394MOL0     C53080  -2.025  12.109   1.017  0.1323 -0.7372  0.4201
  394MOL0     C53081  -2.067  12.156   0.890  0.7480 -0.4329  0.0158
  394MOL0     C53082  -2.194  12.215   0.869 -0.7546  0.1422  0.7878
  394MOL0     C53083  -2.223  12.262   0.733  0.1556  0.3070 -1.2015
  394MOL0     C53084  -2.285  12.219   0.980 -0.3149  0.7140 -0.0073
  394MOL0     C53085  -2.427  12.264   0.975 -0.5064 -0.2378 -0.4384
  394MOL0     O53086  -2.491  12.271   1.087 -0.1134 -0.0870  0.0555
  394MOL0     C53087  -2.619  12.305   1.089  0.2691  0.1400  1.4271
  394MOL0     C53088  -2.720  12.211   1.059  0.4685 -0.0331 -0.0040
  394MOL0     C53089  -2.853  12.243   1.076 -0.2383 -0.8299 -0.1685
  394MOL0     C53090  -2.891  12.368   1.123 -0.0926  0.2300 -0.0625
  394MOL0     O53091  -3.020  12.398   1.163 -0.2416 -0.0307 -0.3726
  394MOL0     C53092  -3.124  12.352   1.080  0.8463 -0.3144  0.2276
  394MOL0     C53093  -3.227  12.471   1.043  0.3697  0.1167 -0.2452
  394MOL0     C53094  -3.305  12.519   1.173 -0.5301 -0.3495  0.4641
  394MOL0     C53095  -3.453  12.469   1.168 -0.1849  0.4249 -0.1582
  394MOL0     C53096  -3.543  12.552   1.261 -0.0264  0.7075 -1.1741
  394MOL0     C53097  -3.674  12.473   1.309  0.2049  0.3149  0.5485
  394MOL0     C53098  -3.780  12.568   1.370 -0.1307  0.5312 -0.9107
  394MOL0     C53099  -3.877  12.628   1.276 -0.5246 -0.5750 -0.4810
  394MOL0    Cl53100  -3.996  12.488   1.223 -0.2453 -0.2238 -0.1082
  394MOL0     C53101  -2.793  12.464   1.147  0.5799 -0.3051  0.2828
  394MOL0     C53102  -2.660  12.439   1.118 -0.1416  0.7603 -0.1188
  394MOL0     O53103  -2.475  12.293   0.866 -0.1344  0.3689 -0.2497
  394MOL0     C53104  -2.240  12.168   1.107  0.1481 -0.0467  0.8270
  394MOL0     C53105  -2.116  12.119   1.123  0.3116  0.3253  0.3126
  394MOL0     N53106  -1.468  11.876   0.792  0.1563  0.2017  0.5506
  394MOL0     N53107  -1.372  11.860   0.707 -0.5726 -0.0071 -1.2360
  394MOL0     C53108  -0.290  11.478   0.221 -0.0047 -0.4577  1.0891
  394MOL0     C53109  -0.177  11.404   0.199  0.2862  0.2446  0.3442
  394MOL0     C53110   0.222  11.227   0.128 -0.3140 -0.5698 -0.4096
  394MOL0     C53111   0.282  11.116   0.195 -0.1155  1.2498 -0.1555
  394MOL0     C53112   0.414  11.075   0.166  0.7408  0.5738  0.6778
  394MOL0     C53113   0.488  11.148   0.063 -0.0158 -0.7976 -0.2329
  394MOL0     O53114   0.628  11.135   0.036  0.5086 -0.3840 -0.7205
  394MOL0     C53115   0.683  11.005   0.010 -0.0069 -0.3142 -0.7903
  394MOL0     C53116   0.705  10.998  -0.135 -0.1695 -0.2866 -0.3712
  394MOL0     C53117   0.806  11.100  -0.192 -0.0328  0.3161  0.6230
  394MOL0     C53118   0.818  11.094  -0.350 -0.2105  0.8460 -0.2230
  394MOL0     C53119   0.947  11.146  -0.402  0.2039  0.1903  0.2007
  394MOL0     C53120   1.049  11.187  -0.439 -0.2436  0.3444 -0.7017
  394MOL0     C53121   0.430  11.263   0.006  0.0753 -0.6021 -0.8048
  394MOL0     C53122   0.297  11.302   0.039 -0.6640 -0.0249  0.1529
  394MOL0     H53123   0.052  11.647   0.206  0.9480 -2.4327 -1.2234
  394MOL0     H53124  -0.138  11.783   0.242 -1.7125  0.5511  0.7262
  394MOL0     H53125  -0.343  11.776   0.479  0.1030 -1.8677 -1.1088
  394MOL0     H53126  -0.303  11.882   0.342 -2.5414  3.5441  0.7241
  394MOL0     H53127  -0.473  11.969   0.456 -1.7123  1.0632 -1.0498
  394MOL0     H53128  -0.529  11.930   0.296 -1.1089 -0.3465 -0.4788
  394MOL0     H53129  -0.636  11.734   0.398  2.3576  1.4229 -1.0793
  394MOL0     H53130  -0.605  11.788   0.562 -0.8862 -1.8035  0.3028
  394MOL0     H53131  -0.712  12.018   0.518 -0.8654 -0.1242  3.2870
  394MOL0     H53132  -0.774  11.938   0.368  5.0015 -0.3139 -1.5831
  394MOL0     H53133  -0.876  11.775   0.545 -0.6015  0.2422 -2.0231
  394MOL0     H53134  -0.841  11.908   0.666 -2.4953 -1.0219  0.5644
  394MOL0     H53135  -0.963  12.064   0.532 -0.9646 -0.4360 -1.2710
  394MOL0     H53136  -1.006  11.937   0.406 -0.4611 -0.4446 -0.7132
  394MOL0     H53137  -1.144  11.822   0.593 -0.3556  0.5974  1.5624
  394MOL0     H53138  -1.088  11.937   0.704 -0.8027 -1.4566 -0.2810
  394MOL0     H53139  -1.266  12.000   0.459  1.1609  2.1956 -0.8454
  394MOL0     H53140  -1.196  12.118   0.560 -2.0905  0.4504 -1.7123
  394MOL0     H53141  -1.436  12.185   0.668  0.1655  1.1159  2.1767
  394MOL0     H53142  -1.573  12.194   0.891  1.2405 -0.8454  3.7142
  394MOL0     H53143  -1.704  12.081   0.846 -1.5051  0.0370  2.1236
  394MOL0     H53144  -1.498  12.036   1.046 -0.2482  2.0258  1.2843
  394MOL0     H53145  -1.625  11.922   1.023  3.4437  0.1288  1.3435
  394MOL0     H53146  -1.697  12.209   1.085  1.9445  0.3320  0.7610
  394MOL0     H53147  -1.630  12.114   1.218  1.1370  1.8187 -0.4029
  394MOL0     H53148  -1.868  12.121   1.223  1.8125  1.5998 -0.0186
  394MOL0     H53149  -1.809  11.958   1.193  0.7636  2.6453  4.1879
  394MOL0     H53150  -1.995  12.136   0.811 -1.3163 -1.9179 -1.6142
  394MOL0     H53151  -2.244  12.369   0.730 -0.1173  0.5548  2.9034
  394MOL0     H53152  -2.139  12.249   0.664  1.3093 -0.6288  0.2776
  394MOL0     H53153  -2.307  12.199   0.703  0.0965  0.9328 -2.3704
  394MOL0     H53154  -2.716  12.106   1.030 -2.4028 -0.0981 -0.4298
  394MOL0     H53155  -2.931  12.172   1.053  0.5962 -1.5904 -0.7342
  394MOL0     H53156  -3.099  12.304   0.985 -0.5777 -1.0103  0.1726
  394MOL0     H53157  -3.176  12.275   1.138  3.5997 -1.2444  1.6706
  394MOL0     H53158  -3.167  12.550   0.998 -0.8294  0.7917 -0.7012
  394MOL0     H53159  -3.301  12.440   0.969 -2.6611  0.4694  2.4204
  394MOL0     H53160  -3.301  12.628   1.162  3.3909 -0.4973 -1.3443
  394MOL0     H53161  -3.247  12.491   1.262  1.0402 -3.0729 -1.2746
  394MOL0     H53162  -3.498  12.467   1.069  0.5540  0.5085 -0.5020
  394MOL0     H53163  -3.440  12.364   1.195 -1.2640  0.2108 -0.4121
  394MOL0     H53164  -3.583  12.638   1.206  2.0775  1.3666 -1.7592
  394MOL0     H53165  -3.495  12.591   1.351 -1.6402  1.8585 -0.7563
  394MOL0     H53166  -3.709  12.428   1.216  1.5157  1.5991 -0.6275
  394MOL0     H53167  -3.644  12.400   1.386  2.2149 -0.7442 -1.1417
  394MOL0     H53168  -3.733  12.646   1.431 -2.8673  1.1562  0.6059
  394MOL0     H53169  -3.838  12.511   1.444  0.0126 -0.2977 -1.4346
  394MOL0     H53170  -3.820  12.681   1.198  0.7696  3.1341  2.6127
  394MOL0     H53171  -3.932  12.707   1.328  0.8479  1.0304 -1.3436
  394MOL0     H53172  -2.827  12.552   1.200  0.9677  0.7842 -1.1879
  394MOL0     H53173  -2.584  12.511   1.148 -1.9933  1.6339  2.7768
  394MOL0     H53174  -2.318  12.170   1.182 -2.8110  1.6975 -2.0331
  394MOL0     H53175  -2.098  12.064   1.214 -1.6652 -1.8543 -0.5404
  394MOL0     H53176  -0.387  11.429   0.215  0.0436 -0.4827  0.4888
  394MOL0     H53177  -0.187  11.297   0.180 -0.6052 -0.3131  3.3079
  394MOL0     H53178   0.224  11.057   0.264 -0.3475  1.8519  0.1772
  394MOL0     H53179   0.467  11.001   0.225  0.4903 -0.1925 -0.0275
  394MOL0     H53180   0.782  11.006   0.057 -0.0779  0.4832 -0.6353
  394MOL0     H53181   0.610  10.931   0.043 -0.2403  0.8890  1.5740
  394MOL0     H53182   0.613  11.010  -0.193  1.5430  0.9435 -3.0160
  394MOL0     H53183   0.748  10.899  -0.152 -1.3550 -0.6109 -1.6847
  394MOL0     H53184   0.903  11.077  -0.146  0.8788  0.6179 -1.0573
  394MOL0     H53185   0.781  11.204  -0.169 -0.6605  0.3233 -0.0638
  394MOL0     H53186   0.731  11.148  -0.389  0.6931  2.0323 -0.6466
  394MOL0     H53187   0.815  10.987  -0.373  3.6711  0.0864  1.9846
  394MOL0     H53188   1.142  11.219  -0.484 -1.7114  1.9656 -2.8105
  394MOL0     H53189   0.485  11.329  -0.060 -3.3281  3.0062 -0.3682
  394MOL0     H53190   0.259  11.392  -0.008 -2.8783 -0.8236  0.2960
  395MOL0     O53191  11.227  10.724   2.792  0.5198 -0.3038  0.3218
  395MOL0     C53192  11.219  10.602   2.812  0.2215 -0.6673  1.2064
  395MOL0     O53193  11.146  10.518   2.732 -0.2526  0.0391 -0.5223
  395MOL0     C53194  11.082  10.564   2.618  0.1482  1.0127 -0.5289
  395MOL0     C53195  11.114  10.505   2.494 -0.4197 -0.5457  0.4621
  395MOL0     C53196  11.054  10.540   2.375  0.3980 -0.2673 -0.0441
  395MOL0     C53197  10.952  10.642   2.381 -1.2529  0.6299  0.0620
  395MOL0     O53198  10.887  10.686   2.270  0.5079 -0.7868 -0.4749
  395MOL0     C53199  10.955  10.680   2.144 -0.1222 -0.0341 -0.4099
  395MOL0     C53200  10.887  10.764   2.029 -0.1820 -0.0892  1.2636
  395MOL0     C53201  10.754  10.692   2.003 -0.2677 -0.2061 -0.3728
  395MOL0     C53202  10.691  10.767   1.882  0.0609 -0.1238  0.2775
  395MOL0     C53203  10.540  10.769   1.890  0.6235  0.2497 -0.5515
  395MOL0     C53204  10.489  10.862   1.997  0.0983  0.2796 -0.5816
  395MOL0     C53205  10.334  10.878   1.990  0.2036 -1.4041 -0.1702
  395MOL0     C53206  10.284  10.981   2.091 -0.3937  0.3407 -0.3016
  395MOL0     N53207  10.149  11.037   2.072 -0.6676  0.4316  0.0527
  395MOL0     C53208  10.033  10.965   2.075  0.0491 -0.2092 -0.0941
  395MOL0     C53209   9.939  11.057   2.034 -0.1231 -0.2981 -0.2634
  395MOL0     C53210   9.799  11.043   2.016 -0.3752  0.6730 -0.6728
  395MOL0     C53211   9.726  11.008   2.151 -0.1468 -0.4159  0.0247
  395MOL0     C53212   9.587  11.068   2.141  0.1054 -0.9650  0.4122
  395MOL0     C53213   9.502  11.028   2.253 -0.4298  0.4452 -1.0544
  395MOL0     O53214   9.368  11.088   2.253 -0.2657 -0.1288  0.5540
  395MOL0     C53215   9.273  11.047   2.156  0.5018  0.0763 -1.3641
  395MOL0     C53216   9.147  11.111   2.167  0.3429  0.4239  0.1739
  395MOL0     C53217   9.037  11.079   2.084  0.0524  0.5155  0.0111
  395MOL0     C53218   8.911  11.155   2.103 -1.0284  0.5670 -0.2199
  395MOL0     C53219   9.046  10.980   1.989 -0.2481 -0.5017  0.0705
  395MOL0     C53220   8.937  10.929   1.903 -1.4408  0.4911 -0.2543
  395MOL0     O53221   8.816  10.919   1.968 -0.8516  0.0732  0.0062
  395MOL0     C53222   8.703  10.877   1.903  0.6531 -0.4011  0.6470
  395MOL0     C53223   8.587  10.953   1.930  0.1940  0.1078 -0.5603
  395MOL0     C53224   8.460  10.915   1.882 -0.0620 -0.3645 -0.5606
  395MOL0     C53225   8.449  10.798   1.812 -0.0005 -0.4745  0.4319
  395MOL0     O53226   8.327  10.750   1.772  0.6689  0.5436  0.3349
  395MOL0     C53227   8.210  10.827   1.796  0.9400 -0.3037  0.5762
  395MOL0     C53228   8.087  10.757   1.737  0.8876 -0.1426  0.3098
  395MOL0     C53229   8.031  10.647   1.831 -0.5925 -0.6299  0.9735
  395MOL0     C53230   8.122  10.517   1.821  0.4973 -0.2481  0.6520
  395MOL0     C53231   8.064  10.396   1.896  0.0118 -0.2597 -0.3093
  395MOL0     C53232   8.060  10.417   2.046  0.4144 -0.4221  0.0312
  395MOL0     C53233   8.013  10.309   2.140 -0.1185 -0.2379 -0.6357
  395MOL0     C53234   7.902  10.346   2.236  0.3207 -0.4134 -0.3120
  395MOL0    Cl53235   7.980  10.428   2.377  0.4237 -0.3775 -0.3016
  395MOL0     C53236   8.558  10.717   1.785 -1.0437  0.4632 -0.1543
  395MOL0     C53237   8.687  10.762   1.820 -0.9087  0.0258 -0.1886
  395MOL0     O53238   8.955  10.920   1.787  0.0873 -0.1168  0.1869
  395MOL0     C53239   9.172  10.917   1.972  0.2673  0.0246  1.6486
  395MOL0     C53240   9.279  10.940   2.063  1.1942  0.1518 -0.0877
  395MOL0     N53241  10.004  11.175   2.012 -0.0732  0.1565  0.7315
  395MOL0     N53242  10.124  11.161   2.034  0.3843  0.7696  0.1882
  395MOL0     C53243  10.922  10.694   2.508 -0.7659 -1.8318  0.5533
  395MOL0     C53244  10.985  10.666   2.626  0.1476 -0.2721 -0.6044
  395MOL0     C53245  11.296  10.547   2.922 -0.1603 -0.1239 -0.4181
  395MOL0     C53246  11.320  10.406   2.920  0.0010  0.4652  0.4367
  395MOL0     C53247  11.388  10.341   3.019 -0.1008  0.9593 -1.2248
  395MOL0     C53248  11.433  10.413   3.129  0.8092  0.1882 -0.3150
  395MOL0     O53249  11.473  10.362   3.248 -0.4354 -0.1443 -0.0784
  395MOL0     C53250  11.488  10.216   3.271 -0.0287 -0.3159 -0.0526
  395MOL0     C53251  11.611  10.151   3.213  0.2446  0.1974 -0.0803
  395MOL0     C53252  11.738  10.217   3.265 -1.0989  0.1972  0.1783
  395MOL0     C53253  11.865  10.146   3.207  0.6490 -0.3445 -0.3233
  395MOL0     C53254  11.901  10.041   3.295  0.2508 -0.0015 -0.3342
  395MOL0     C53255  11.941   9.945   3.361  1.6017  0.4346 -0.8441
  395MOL0     C53256  11.415  10.549   3.129 -0.8015  0.0156 -0.4614
  395MOL0     C53257  11.358  10.623   3.022  0.2600  0.2411  0.7777
  395MOL0     H53258  11.192  10.430   2.487 -0.2509 -0.4682  1.3691
  395MOL0     H53259  11.099  10.512   2.280 -1.4124  0.0563 -1.0238
  395MOL0     H53260  11.056  10.720   2.158 -0.6572  0.5514  2.4297
  395MOL0     H53261  10.966  10.572   2.128 -2.3703 -1.3347  4.6420
  395MOL0     H53262  10.864  10.865   2.066 -2.3356 -0.4308  1.0063
  395MOL0     H53263  10.945  10.763   1.937 -2.4753  2.1424 -0.3597
  395MOL0     H53264  10.783  10.589   1.983  2.1761  0.5855 -1.2745
  395MOL0     H53265  10.692  10.706   2.092  1.4350  0.1461  0.8085
  395MOL0     H53266  10.729  10.869   1.873  0.1940 -0.2399 -0.6117
  395MOL0     H53267  10.713  10.712   1.790  0.3124  0.9191 -0.2910
  395MOL0     H53268  10.491  10.792   1.795 -3.6658  0.0803  1.3620
  395MOL0     H53269  10.498  10.669   1.908  0.6245  0.2080 -0.7820
  395MOL0     H53270  10.513  10.831   2.099  2.1852 -0.6790 -1.3149
  395MOL0     H53271  10.532  10.962   1.988  0.3229  0.2810  0.4075
  395MOL0     H53272  10.312  10.916   1.890 -0.2939  1.1841  0.8410
  395MOL0     H53273  10.278  10.784   2.000 -3.2014  0.4874  0.1225
  395MOL0     H53274  10.357  11.063   2.086  0.0326 -0.1062 -1.8930
  395MOL0     H53275  10.294  10.931   2.188  0.1108 -0.6576 -0.8532
  395MOL0     H53276  10.018  10.862   2.104 -0.0879 -0.4143 -0.8700
  395MOL0     H53277   9.762  11.139   1.981  1.6222  1.2705 -1.2495
  395MOL0     H53278   9.791  10.973   1.932 -0.1797 -0.9871  0.6321
  395MOL0     H53279   9.781  11.059   2.230  1.5732  0.0008 -1.3777
  395MOL0     H53280   9.714  10.900   2.166 -1.5544 -0.7285 -2.6945
  395MOL0     H53281   9.539  11.031   2.049 -0.5887 -0.7976  0.7008
  395MOL0     H53282   9.591  11.177   2.141 -0.3557 -0.9391 -0.2110
  395MOL0     H53283   9.550  11.064   2.344  0.2447 -1.6084 -0.5432
  395MOL0     H53284   9.498  10.919   2.262  1.6440  0.4709  0.8564
  395MOL0     H53285   9.138  11.185   2.246  0.2032  0.7152 -0.1153
  395MOL0     H53286   8.929  11.238   2.172 -2.5895  0.9044 -0.1746
  395MOL0     H53287   8.877  11.199   2.009  1.9910  2.0637 -0.7266
  395MOL0     H53288   8.834  11.094   2.152 -3.8911  2.2850 -2.2412
  395MOL0     H53289   8.593  11.033   2.003  0.4614 -3.8778  4.4278
  395MOL0     H53290   8.367  10.955   1.920  1.2690  0.9820  1.4693
  395MOL0     H53291   8.187  10.829   1.903 -0.5588 -2.5649  0.3638
  395MOL0     H53292   8.212  10.932   1.764 -2.2617 -0.4655 -0.5453
  395MOL0     H53293   8.002  10.826   1.734 -0.1594 -1.4112  0.5259
  395MOL0     H53294   8.122  10.726   1.638  0.5045  3.8045 -1.2795
  395MOL0     H53295   7.931  10.623   1.796 -0.7327  1.7060 -0.3433
  395MOL0     H53296   8.019  10.686   1.933 -1.2686  0.9154  0.3282
  395MOL0     H53297   8.116  10.484   1.717 -2.4209 -1.3429  1.0744
  395MOL0     H53298   8.227  10.541   1.843  0.5226  1.3242 -0.8850
  395MOL0     H53299   8.122  10.309   1.863 -1.9496 -2.0264  0.7072
  395MOL0     H53300   7.960  10.374   1.869  0.9607 -2.1558 -2.9486
  395MOL0     H53301   8.162  10.451   2.069  0.2662  1.9616 -2.3769
  395MOL0     H53302   7.994  10.504   2.056  1.0054 -0.0286  0.6008
  395MOL0     H53303   8.103  10.279   2.194 -0.0377  2.3564  0.8437
  395MOL0     H53304   7.983  10.219   2.085 -0.4635  0.6498 -1.9733
  395MOL0     H53305   7.846  10.257   2.267  0.7153 -0.2352  0.9606
  395MOL0     H53306   7.826  10.413   2.194 -0.5351  1.2075  3.4597
  395MOL0     H53307   8.545  10.622   1.735  1.9555  0.4565 -1.0852
  395MOL0     H53308   8.772  10.706   1.783 -1.8185 -1.7512  0.2626
  395MOL0     H53309   9.172  10.835   1.901 -1.7066 -0.5521  2.2348
  395MOL0     H53310   9.371  10.883   2.054 -0.1456 -1.9955 -0.9992
  395MOL0     H53311  10.850  10.775   2.513  0.8342 -0.1177 -1.9298
  395MOL0     H53312  10.962  10.719   2.718  1.4581 -1.1154  0.2452
  395MOL0     H53313  11.292  10.348   2.833  2.5686  0.4362 -0.4657
  395MOL0     H53314  11.424  10.239   3.009 -0.5320  0.1154  3.5182
  395MOL0     H53315  11.493  10.206   3.380  1.1633  1.8655  0.1640
  395MOL0     H53316  11.397  10.169   3.235 -0.2190 -1.1161  1.4096
  395MOL0     H53317  11.602  10.147   3.104  0.7796  2.5464 -0.2643
  395MOL0     H53318  11.621  10.047   3.243  0.4319 -0.7609 -3.0906
  395MOL0     H53319  11.751  10.221   3.374  0.2123 -0.4376  0.0606
  395MOL0     H53320  11.744  10.322   3.233 -1.6598  0.8597  2.0991
  395MOL0     H53321  11.955  10.207   3.198  1.3130 -1.4015 -1.1126
  395MOL0     H53322  11.852  10.091   3.113  0.4845 -2.9590  1.1225
  395MOL0     H53323  11.969   9.861   3.422 -2.5914  0.0052  0.8271
  395MOL0     H53324  11.436  10.602   3.222 -2.2482 -1.9032  1.0666
  395MOL0     H53325  11.339  10.730   3.030  1.2838  0.6402 -1.5301
  396MOL0     O53326   1.332   0.950   0.603 -0.1429  0.5552 -0.9252
  396MOL0     C53327   1.399   1.040   0.558 -0.2224 -0.2816  0.3602
  396MOL0     O53328   1.348   1.147   0.501 -0.0330 -0.1924 -0.0050
  396MOL0     C53329   1.216   1.147   0.474 -0.2615  0.8403  0.8710
  396MOL0     C53330   1.127   1.209   0.561 -0.1820 -0.2975  0.7595
  396MOL0     C53331   0.993   1.221   0.527  1.2355 -0.6961  0.2377
  396MOL0     C53332   0.945   1.164   0.415  0.8462 -0.7143  0.6002
  396MOL0     O53333   0.808   1.168   0.389 -0.3032 -0.0272  0.1440
  396MOL0     C53334   0.716   1.173   0.505 -0.0988 -0.4003  0.3813
  396MOL0     C53335   0.576   1.110   0.471 -0.7274 -0.4197  0.7350
  396MOL0     C53336   0.480   1.146   0.584  0.6967  0.1800  0.4544
  396MOL0     C53337   0.332   1.125   0.532  0.4540 -0.3033 -0.4666
  396MOL0     C53338   0.241   1.123   0.654  0.2955  0.0424  0.5725
  396MOL0     C53339   0.218   1.263   0.715  0.5468 -0.1429 -0.3274
  396MOL0     C53340   0.094   1.252   0.798 -0.9494 -0.6859  0.0393
  396MOL0     C53341   0.058   1.381   0.873  0.7813 -0.6512 -1.2877
  396MOL0     N53342  -0.048   1.446   0.794  0.7673 -0.4081 -0.0810
  396MOL0     C53343  -0.181   1.454   0.818 -0.6734 -0.4356  0.3035
  396MOL0     C53344  -0.230   1.540   0.726 -0.9854  0.7333  0.6603
  396MOL0     C53345  -0.367   1.598   0.700  0.2600  0.2983  0.2836
  396MOL0     C53346  -0.410   1.695   0.811  0.6093 -0.5239  0.6469
  396MOL0     C53347  -0.556   1.743   0.791  0.1627  0.3726  0.3433
  396MOL0     C53348  -0.590   1.864   0.876 -0.9436  0.4756  0.0159
  396MOL0     O53349  -0.627   1.974   0.803 -0.2423 -0.2882 -0.0850
  396MOL0     C53350  -0.647   2.096   0.860  0.4087 -0.1839 -0.6463
  396MOL0     C53351  -0.668   2.210   0.773 -0.1406  0.6316 -0.1566
  396MOL0     C53352  -0.695   2.337   0.827  0.4033 -0.0538  0.4883
  396MOL0     C53353  -0.704   2.456   0.730 -0.3649  0.1348  0.6315
  396MOL0     C53354  -0.712   2.353   0.964 -0.8967 -0.5180  0.3185
  396MOL0     C53355  -0.747   2.479   1.027  0.4725 -0.6990  0.3615
  396MOL0     O53356  -0.788   2.594   0.952 -0.5863 -0.3340 -0.4658
  396MOL0     C53357  -0.826   2.709   1.007 -0.1992 -0.4370  0.1895
  396MOL0     C53358  -0.952   2.725   1.069 -0.3564 -0.2806  0.4220
  396MOL0     C53359  -1.004   2.856   1.119 -0.1208 -0.0225  0.0109
  396MOL0     C53360  -0.933   2.969   1.092 -0.7933 -0.4456  0.4927
  396MOL0     O53361  -0.981   3.085   1.134  0.6402 -0.4694  0.2865
  396MOL0     C53362  -0.908   3.204   1.121  0.4893  0.2979 -0.0891
  396MOL0     C53363  -1.005   3.313   1.167  0.0965 -0.6436  0.2595
  396MOL0     C53364  -0.939   3.451   1.216  0.2355  0.5221  0.4130
  396MOL0     C53365  -1.040   3.552   1.278 -0.6720 -0.0487 -0.3254
  396MOL0     C53366  -0.966   3.677   1.349 -0.7444 -0.1184  0.4585
  396MOL0     C53367  -0.885   3.760   1.256 -0.0710 -0.2047 -0.3212
  396MOL0     C53368  -0.849   3.889   1.314  0.0447 -0.8877  0.3423
  396MOL0     C53369  -0.816   3.988   1.206 -0.1069 -0.4360  0.4767
  396MOL0    Cl53370  -0.741   4.139   1.291 -0.2246 -0.4615  0.0945
  396MOL0     C53371  -0.816   2.955   1.014  0.1797 -0.4055 -0.2197
  396MOL0     C53372  -0.762   2.828   0.974 -0.9949 -0.2262  0.2188
  396MOL0     O53373  -0.759   2.477   1.152 -0.2808  0.6542  0.9155
  396MOL0     C53374  -0.708   2.239   1.044  0.2075  0.1966 -0.1174
  396MOL0     C53375  -0.669   2.116   0.993  0.0388  0.1960 -1.0576
  396MOL0     N53376  -0.127   1.564   0.636 -0.4353  0.3029 -0.3972
  396MOL0     N53377  -0.019   1.505   0.669 -0.6265  0.2017  0.0947
  396MOL0     C53378   1.031   1.099   0.327 -0.0356 -0.1594  0.5419
  396MOL0     C53379   1.171   1.088   0.355 -0.4009  0.8886  0.4123
  396MOL0     C53380   1.543   1.037   0.566  0.8205  0.2544  1.2700
  396MOL0     C53381   1.604   0.934   0.645  0.0557 -1.5118  0.2085
  396MOL0     C53382   1.740   0.928   0.656  0.4291 -0.5071 -0.5092
  396MOL0     C53383   1.821   1.027   0.588  0.3901  0.1717 -0.3503
  396MOL0     O53384   1.962   1.018   0.585  0.0766  0.3536  0.6304
  396MOL0     C53385   2.022   0.945   0.697 -0.2214 -0.5873  0.0463
  396MOL0     C53386   2.173   0.954   0.694 -0.8035 -0.9743  0.3482
  396MOL0     C53387   2.216   1.094   0.697 -0.0012 -0.2287  0.0615
  396MOL0     C53388   2.292   1.136   0.564 -0.0140  0.4482 -1.3202
  396MOL0     C53389   2.327   1.276   0.597 -0.1609  0.2132 -0.4914
  396MOL0     C53390   2.348   1.393   0.621  0.6066  0.6013 -0.2824
  396MOL0     C53391   1.754   1.132   0.511 -0.0711  0.3944  0.3890
  396MOL0     C53392   1.616   1.138   0.497 -0.3253  0.7966 -0.5999
  396MOL0     H53393   1.169   1.248   0.653  1.9639  0.3764 -0.4364
  396MOL0     H53394   0.923   1.285   0.581  0.4019 -0.7652 -0.7216
  396MOL0     H53395   0.754   1.127   0.596  1.1686  0.2516  0.1949
  396MOL0     H53396   0.703   1.278   0.533  0.7120  0.0678 -0.9149
  396MOL0     H53397   0.541   1.155   0.378  0.2313  0.0956  0.6092
  396MOL0     H53398   0.589   1.002   0.463 -2.0138 -0.5313 -0.1768
  396MOL0     H53399   0.508   1.076   0.664  1.1239  2.0213  1.9965
  396MOL0     H53400   0.501   1.246   0.624 -0.2082 -0.4045  2.5492
  396MOL0     H53401   0.302   1.202   0.460  0.7074  0.1346 -0.1085
  396MOL0     H53402   0.324   1.032   0.475 -0.0127 -1.1501  0.9268
  396MOL0     H53403   0.141   1.086   0.628  0.6510 -1.0003  0.6572
  396MOL0     H53404   0.271   1.050   0.730  2.4923  0.0367 -0.2284
  396MOL0     H53405   0.299   1.293   0.782  0.4283  0.3254 -0.3942
  396MOL0     H53406   0.203   1.342   0.641  1.2508  1.3674  1.0969
  396MOL0     H53407   0.008   1.217   0.740 -2.5035  1.0868  1.1325
  396MOL0     H53408   0.115   1.178   0.877  0.7184 -0.2277  0.0513
  396MOL0     H53409   0.138   1.453   0.892 -0.5305  0.2873  1.1112
  396MOL0     H53410   0.011   1.363   0.970 -3.1618 -0.1668 -2.9089
  396MOL0     H53411  -0.223   1.413   0.909 -0.4076  0.6932  0.9621
  396MOL0     H53412  -0.358   1.658   0.609  2.6877 -1.0673 -0.4685
  396MOL0     H53413  -0.445   1.524   0.682 -0.4596  1.1272 -0.1376
  396MOL0     H53414  -0.343   1.781   0.813  1.1434 -0.9451  0.8259
  396MOL0     H53415  -0.409   1.660   0.914  0.2534  2.6025  1.8324
  396MOL0     H53416  -0.612   1.653   0.816  1.1382 -0.5997 -0.8175
  396MOL0     H53417  -0.576   1.763   0.685 -3.3894 -0.2499  0.7743
  396MOL0     H53418  -0.510   1.887   0.947 -0.4987 -0.4894 -0.1490
  396MOL0     H53419  -0.674   1.830   0.938 -1.3919 -0.9894 -1.3209
  396MOL0     H53420  -0.663   2.200   0.665 -0.7567 -0.8923 -0.0700
  396MOL0     H53421  -0.615   2.516   0.749 -0.1450 -0.1974  0.6629
  396MOL0     H53422  -0.688   2.415   0.630 -0.4479 -1.1325  1.1181
  396MOL0     H53423  -0.792   2.521   0.726 -0.4574  0.1812  2.5963
  396MOL0     H53424  -1.020   2.645   1.097  1.1302 -0.9769  2.2139
  396MOL0     H53425  -1.095   2.859   1.178 -0.0150 -1.1046  0.2514
  396MOL0     H53426  -0.819   3.204   1.185 -0.5273 -0.6737  1.3947
  396MOL0     H53427  -0.883   3.229   1.018 -3.8736  1.0156 -1.1781
  396MOL0     H53428  -1.063   3.329   1.076 -1.2634 -3.9057  0.4145
  396MOL0     H53429  -1.085   3.277   1.232 -1.0212  1.9774  0.4603
  396MOL0     H53430  -0.884   3.506   1.138 -3.7154  4.4662  0.0138
  396MOL0     H53431  -0.866   3.435   1.297 -0.5590  0.1275  1.0641
  396MOL0     H53432  -1.099   3.591   1.195 -0.9725 -2.1480 -1.1623
  396MOL0     H53433  -1.102   3.489   1.342 -1.7055 -0.2427 -1.4723
  396MOL0     H53434  -0.908   3.645   1.436  2.8788  2.8602 -0.6448
  396MOL0     H53435  -1.051   3.734   1.389 -0.5939  0.5864 -0.2186
  396MOL0     H53436  -0.799   3.698   1.228  1.4165  1.6742 -0.0751
  396MOL0     H53437  -0.941   3.784   1.165  1.6706  1.7099 -0.9690
  396MOL0     H53438  -0.765   3.858   1.376 -0.1735 -1.3927  0.3883
  396MOL0     H53439  -0.925   3.934   1.379 -1.3464  0.8882 -2.3091
  396MOL0     H53440  -0.902   4.014   1.145  1.1384  0.5817 -0.9248
  396MOL0     H53441  -0.746   3.946   1.133 -0.4230 -0.4427  0.1765
  396MOL0     H53442  -0.766   3.043   0.975 -1.5065 -0.4737 -2.7813
  396MOL0     H53443  -0.687   2.822   0.895 -0.0252  0.0647  1.0948
  396MOL0     H53444  -0.734   2.250   1.149 -0.8143 -0.7015 -0.2514
  396MOL0     H53445  -0.643   2.035   1.059  0.8256 -1.0548 -2.8176
  396MOL0     H53446   0.982   1.077   0.233 -1.3045 -1.4156  1.4666
  396MOL0     H53447   1.250   1.049   0.292 -0.1118 -0.7321  1.6907
  396MOL0     H53448   1.546   0.854   0.689 -1.6772  0.9848  2.8429
  396MOL0     H53449   1.791   0.859   0.722  1.0754  2.0887  1.9481
  396MOL0     H53450   1.981   0.987   0.789  0.1884 -0.6366  0.2558
  396MOL0     H53451   1.980   0.844   0.699 -3.1809  0.5808  0.4830
  396MOL0     H53452   2.214   0.901   0.608  0.4914 -1.0013  0.9762
  396MOL0     H53453   2.209   0.899   0.781  0.0272 -0.0937  0.5817
  396MOL0     H53454   2.278   1.110   0.786 -2.0561  3.6939  1.0389
  396MOL0     H53455   2.139   1.166   0.725  3.2847  3.5182  0.4146
  396MOL0     H53456   2.216   1.124   0.486 -1.5552 -2.8791  0.4604
  396MOL0     H53457   2.377   1.068   0.561  0.3727  0.9589 -2.1229
  396MOL0     H53458   2.375   1.495   0.642  4.2298 -0.5525  1.5383
  396MOL0     H53459   1.818   1.200   0.455 -0.5883 -0.5380 -1.4258
  396MOL0     H53460   1.568   1.214   0.435 -1.7018  0.1608 -0.3639
  397MOL0     O53461  11.035   9.322  10.188  1.5143 -0.5206 -0.0476
  397MOL0     C53462  11.024   9.201  10.167  0.2076  0.5382 -0.9663
  397MOL0     O53463  11.100   9.120  10.087 -0.0338  0.1400  0.4690
  397MOL0     C53464  11.229   9.164  10.045  0.9128  0.8856 -0.3488
  397MOL0     C53465  11.262   9.154   9.910 -0.2055 -0.1422  0.1840
  397MOL0     C53466  11.391   9.198   9.866 -0.2842  0.2820 -0.5614
  397MOL0     C53467  11.495   9.243   9.959  0.6664  0.1096  0.6328
  397MOL0     O53468  11.615   9.285   9.895  0.4712  0.2060 -0.2356
  397MOL0     C53469  11.704   9.380   9.958  0.6225  0.0727  0.0030
  397MOL0     C53470  11.732   9.491   9.858  0.1045  0.6668  0.8069
  397MOL0     C53471  11.636   9.604   9.837 -0.0166 -0.3061 -0.2142
  397MOL0     C53472  11.510   9.547   9.772  0.4731 -0.1656 -0.2206
  397MOL0     C53473  11.437   9.659   9.696 -0.8090  0.7467 -0.6071
  397MOL0     C53474  11.302   9.616   9.647  0.8188 -0.1596  0.7570
  397MOL0     C53475  11.290   9.562   9.502 -0.2448  0.6711 -0.6599
  397MOL0     C53476  11.150   9.583   9.432 -0.2943  0.4673 -0.2838
  397MOL0     N53477  11.172   9.541   9.292  0.2045 -0.3189 -0.0791
  397MOL0     C53478  11.168   9.416   9.246 -0.2579  0.1822 -0.4335
  397MOL0     C53479  11.189   9.422   9.117 -0.0733  0.0098 -0.7872
  397MOL0     C53480  11.189   9.293   9.034 -0.5630  0.1829  0.3559
  397MOL0     C53481  11.044   9.257   8.984 -0.7882  0.6738 -0.1059
  397MOL0     C53482  10.932   9.270   9.087  0.2505 -0.2824 -0.5597
  397MOL0     C53483  10.796   9.243   9.016  0.2242  0.2356  0.0892
  397MOL0     O53484  10.691   9.218   9.111 -0.5865  0.2349 -0.6189
  397MOL0     C53485  10.577   9.157   9.060  0.3315  0.2317  0.2242
  397MOL0     C53486  10.563   9.082   8.941  0.1718  0.0380 -0.2770
  397MOL0     C53487  10.442   9.023   8.909  0.5175 -0.0528 -0.0974
  397MOL0     C53488  10.454   8.935   8.780 -0.3266  0.6699  0.5974
  397MOL0     C53489  10.328   9.047   8.980  0.1772  0.9153  1.2043
  397MOL0     C53490  10.194   8.997   8.950 -0.4687  0.1112  0.3213
  397MOL0     O53491  10.093   9.085   8.978 -0.2970  0.8032  1.0129
  397MOL0     C53492   9.975   9.040   8.922 -0.2927 -0.6621 -0.5879
  397MOL0     C53493   9.884   8.974   9.008 -0.4360  0.7633 -0.1537
  397MOL0     C53494   9.763   8.931   8.957 -0.4182 -0.4375  0.3701
  397MOL0     C53495   9.729   8.945   8.820 -0.6019 -0.1511  0.0755
  397MOL0     O53496   9.613   8.888   8.779 -0.5035 -0.0569 -0.1843
  397MOL0     C53497   9.550   8.949   8.668 -0.3891  0.2470 -0.5533
  397MOL0     C53498   9.405   8.974   8.702 -0.0366  0.2444  0.2262
  397MOL0     C53499   9.339   8.864   8.788  0.1742 -0.1170  0.4968
  397MOL0     C53500   9.184   8.883   8.788  0.2104 -0.1322  0.1347
  397MOL0     C53501   9.115   8.778   8.870 -0.4771 -0.7811 -0.4685
  397MOL0     C53502   8.967   8.789   8.870  0.6443  0.3360  0.6416
  397MOL0     C53503   8.908   8.709   8.993  0.9267  0.0550 -0.2306
  397MOL0     C53504   8.760   8.663   8.958  0.3729 -1.1036 -0.1601
  397MOL0    Cl53505   8.752   8.545   8.820  0.4110 -0.0139 -0.2287
  397MOL0     C53506   9.824   9.010   8.740 -0.0119 -1.4511 -0.3386
  397MOL0     C53507   9.942   9.062   8.785 -0.6883  0.1262 -0.1861
  397MOL0     O53508  10.178   8.881   8.915  0.0077  0.0130  0.0559
  397MOL0     C53509  10.343   9.125   9.096  0.9798 -0.1620  0.9319
  397MOL0     C53510  10.463   9.187   9.131 -0.3688  0.8981 -0.1046
  397MOL0     N53511  11.194   9.559   9.089 -0.6141 -0.9211  0.2892
  397MOL0     N53512  11.188   9.629   9.195 -0.5117  0.9112  0.3706
  397MOL0     C53513  11.450   9.252  10.090 -0.6009  0.8846  0.0155
  397MOL0     C53514  11.317   9.214  10.134 -0.4581 -1.4649  1.2599
  397MOL0     C53515  10.912   9.141  10.238 -0.2351 -0.2529 -0.0881
  397MOL0     C53516  10.801   9.221  10.278  0.2549  0.1826 -0.7477
  397MOL0     C53517  10.693   9.171  10.349 -0.1288  0.0771 -1.0447
  397MOL0     C53518  10.691   9.031  10.381 -0.0296  0.2375  1.3141
  397MOL0     O53519  10.592   8.968  10.447 -0.4194 -0.4695  0.3554
  397MOL0     C53520  10.495   9.030  10.534 -0.3907  0.3573  0.3496
  397MOL0     C53521  10.545   9.058  10.673 -0.3979 -0.4239  0.6062
  397MOL0     C53522  10.667   9.150  10.690 -0.0959 -0.3027 -0.1514
  397MOL0     C53523  10.674   9.200  10.837  0.2735 -0.3582  0.2473
  397MOL0     C53524  10.804   9.252  10.877 -0.6573 -0.7342 -0.4444
  397MOL0     C53525  10.908   9.308  10.899  0.0291 -0.2802  0.4519
  397MOL0     C53526  10.798   8.950  10.333  0.1264 -0.2242 -0.6771
  397MOL0     C53527  10.905   9.004  10.266  0.3369  0.9404 -0.0751
  397MOL0     H53528  11.208   9.091   9.840  0.9596 -2.6225  1.3652
  397MOL0     H53529  11.422   9.192   9.762 -0.0456 -2.1965 -0.4118
  397MOL0     H53530  11.665   9.428  10.047 -0.8077 -3.8785  1.7563
  397MOL0     H53531  11.791   9.321   9.989 -0.0134 -2.0012 -1.8801
  397MOL0     H53532  11.825   9.539   9.892 -0.1613  2.1481 -0.4408
  397MOL0     H53533  11.771   9.453   9.764 -2.3565  0.6135 -0.2732
  397MOL0     H53534  11.593   9.631   9.933 -4.4542 -0.1345 -2.0109
  397MOL0     H53535  11.688   9.688   9.791  0.6461 -0.3488  0.4400
  397MOL0     H53536  11.538   9.473   9.696 -0.9888 -0.4005 -0.5531
  397MOL0     H53537  11.451   9.490   9.843  1.9359  0.3437  1.4811
  397MOL0     H53538  11.426   9.745   9.762  1.4503 -0.4948  1.5920
  397MOL0     H53539  11.499   9.704   9.618 -0.6461  3.4682  0.9679
  397MOL0     H53540  11.244   9.557   9.719 -3.7239  1.5971 -1.0796
  397MOL0     H53541  11.249   9.711   9.651  1.5854  0.3010  0.1949
  397MOL0     H53542  11.368   9.612   9.444 -0.6724  0.0237 -1.8404
  397MOL0     H53543  11.313   9.455   9.514  0.1542  0.9432  1.2776
  397MOL0     H53544  11.140   9.691   9.445  4.1496  1.0207  0.1696
  397MOL0     H53545  11.072   9.530   9.486  1.5586 -1.1564  0.9679
  397MOL0     H53546  11.158   9.328   9.308  0.6071  0.3174 -0.0946
  397MOL0     H53547  11.251   9.297   8.944 -0.1790 -2.2901  0.4276
  397MOL0     H53548  11.232   9.211   9.092 -0.8669 -0.4944 -0.3446
  397MOL0     H53549  11.050   9.151   8.961 -0.2300  0.7743 -0.4478
  397MOL0     H53550  11.019   9.317   8.896  0.2728  2.0091  0.4643
  397MOL0     H53551  10.923   9.374   9.119 -1.6674 -0.3495 -0.7255
  397MOL0     H53552  10.942   9.214   9.180 -3.1752  0.9923  0.7341
  397MOL0     H53553  10.810   9.143   8.975 -0.2368 -1.1778  3.0917
  397MOL0     H53554  10.774   9.313   8.934 -1.1904 -0.1462  0.1142
  397MOL0     H53555  10.653   9.046   8.891 -0.4113 -1.7520 -0.1218
  397MOL0     H53556  10.504   8.991   8.700 -0.3235  0.3295  0.3611
  397MOL0     H53557  10.513   8.850   8.816  0.5519  1.6445  1.5366
  397MOL0     H53558  10.359   8.901   8.739  0.4153  0.4010 -0.9830
  397MOL0     H53559   9.911   8.963   9.112  0.8723  3.4940 -0.1020
  397MOL0     H53560   9.683   8.899   9.023 -0.9408 -0.5874 -0.3168
  397MOL0     H53561   9.589   9.048   8.644 -1.4812  0.2179 -2.7854
  397MOL0     H53562   9.562   8.902   8.570 -3.3821  1.7189 -1.7667
  397MOL0     H53563   9.398   9.064   8.763 -0.8534  0.4299 -0.1182
  397MOL0     H53564   9.349   8.986   8.608 -1.7377 -3.5182  0.5872
  397MOL0     H53565   9.377   8.880   8.889  0.4627 -2.0983  0.7299
  397MOL0     H53566   9.367   8.762   8.760 -1.0103 -0.6511  1.2083
  397MOL0     H53567   9.150   8.983   8.819  0.2009  0.3969 -1.4741
  397MOL0     H53568   9.148   8.863   8.686  0.4279  0.5523 -0.0816
  397MOL0     H53569   9.157   8.791   8.971  1.4676  1.2327 -1.4388
  397MOL0     H53570   9.139   8.680   8.829 -0.5599 -0.0845 -2.2551
  397MOL0     H53571   8.935   8.893   8.862  1.0138  0.4010  0.0077
  397MOL0     H53572   8.934   8.745   8.775 -0.4505  1.2464  0.5819
  397MOL0     H53573   8.906   8.778   9.078  0.4670  0.0127 -0.2010
  397MOL0     H53574   8.971   8.622   9.012  1.5911  0.7811  1.0437
  397MOL0     H53575   8.718   8.759   8.925  0.5061 -1.9048 -2.8795
  397MOL0     H53576   8.716   8.628   9.052  0.0640  0.6906  0.3986
  397MOL0     H53577   9.812   9.031   8.635 -3.2424  0.5164  0.2749
  397MOL0     H53578  10.010   9.112   8.717  0.6537 -2.0576 -0.5444
  397MOL0     H53579  10.258   9.147   9.161  0.6400  0.4009  0.3083
  397MOL0     H53580  10.476   9.244   9.223  3.0711 -1.8975  1.4128
  397MOL0     H53581  11.510   9.290  10.172 -0.9603 -0.5626  0.9975
  397MOL0     H53582  11.295   9.214  10.240 -2.2142 -2.0792  0.9321
  397MOL0     H53583  10.804   9.329  10.268 -0.6417  0.2139 -0.7694
  397MOL0     H53584  10.612   9.237  10.377 -0.7238 -1.0895  0.0841
  397MOL0     H53585  10.462   9.123  10.486 -0.1142 -1.1907 -3.1307
  397MOL0     H53586  10.411   8.962  10.546  1.4464 -2.3875 -1.3023
  397MOL0     H53587  10.577   8.963  10.717  3.1640  0.2096 -0.3063
  397MOL0     H53588  10.456   9.097  10.723 -1.7301 -1.2158 -1.0561
  397MOL0     H53589  10.660   9.238  10.624  1.9961 -1.2479 -1.7614
  397MOL0     H53590  10.757   9.100  10.652 -2.0244 -2.2404 -2.4552
  397MOL0     H53591  10.637   9.123  10.906 -2.7492  0.8887  0.1921
  397MOL0     H53592  10.606   9.285  10.847  1.9447  1.1584 -0.7774
  397MOL0     H53593  10.997   9.363  10.923 -1.8315  3.0264  0.3778
  397MOL0     H53594  10.809   8.844  10.355  0.0025  0.2614  2.1761
  397MOL0     H53595  10.977   8.929  10.235  1.2069  2.1105 -0.9815
  398MOL0     O53596   2.612   8.311   5.910 -0.3779 -0.1604  0.6289
  398MOL0     C53597   2.655   8.350   5.802  1.1838 -0.2318  0.3868
  398MOL0     O53598   2.586   8.350   5.680  0.1277 -0.0944 -0.1994
  398MOL0     C53599   2.459   8.290   5.683 -0.4122 -1.1663  0.2280
  398MOL0     C53600   2.415   8.193   5.591  0.8085  0.7798  0.3665
  398MOL0     C53601   2.276   8.166   5.581  0.4311  0.6601  0.1407
  398MOL0     C53602   2.188   8.196   5.685  0.0040 -0.3515  0.4758
  398MOL0     O53603   2.067   8.136   5.701  0.2123 -0.0963  0.0085
  398MOL0     C53604   2.015   8.056   5.595  1.0953  0.8046 -0.5725
  398MOL0     C53605   1.882   7.976   5.646 -1.2015 -0.0795 -0.6498
  398MOL0     C53606   1.763   8.069   5.673 -0.4638 -0.6649 -0.1442
  398MOL0     C53607   1.642   7.982   5.726 -1.2260  0.0890 -1.0617
  398MOL0     C53608   1.509   8.064   5.760 -0.1341 -0.1211  0.5511
  398MOL0     C53609   1.378   7.975   5.776  0.0801 -0.0055 -0.2965
  398MOL0     C53610   1.402   7.858   5.871 -0.4411 -0.3084 -0.1065
  398MOL0     C53611   1.274   7.803   5.942  0.1097  0.6752  0.3857
  398MOL0     N53612   1.163   7.768   5.852  0.4938  0.4023 -0.2309
  398MOL0     C53613   1.086   7.865   5.794 -0.5040  0.2983  0.6224
  398MOL0     C53614   1.009   7.798   5.703  0.0552  0.6445  0.0024
  398MOL0     C53615   0.889   7.849   5.631 -0.0716  0.3179 -0.2158
  398MOL0     C53616   0.821   7.736   5.542  0.7175  0.5848  0.2276
  398MOL0     C53617   0.692   7.778   5.461 -0.4029 -0.1151 -0.6870
  398MOL0     C53618   0.608   7.655   5.409 -0.7039  0.5298 -0.4582
  398MOL0     O53619   0.512   7.716   5.322 -0.6519 -0.3953 -0.0911
  398MOL0     C53620   0.423   7.638   5.246  0.4156  0.3748  0.4707
  398MOL0     C53621   0.373   7.688   5.122  0.2900 -0.3138 -0.7094
  398MOL0     C53622   0.286   7.617   5.031 -0.6039 -0.4596  0.3155
  398MOL0     C53623   0.231   7.693   4.904  0.1606 -0.4438  0.6497
  398MOL0     C53624   0.244   7.485   5.065 -0.2335  0.3473 -0.2481
  398MOL0     C53625   0.168   7.394   4.979  0.0299  0.4002  0.2616
  398MOL0     O53626   0.045   7.436   4.934 -0.2416 -0.5745 -0.0386
  398MOL0     C53627  -0.046   7.343   4.893 -0.1180 -0.9582  0.0888
  398MOL0     C53628  -0.117   7.367   4.778 -0.2600 -0.0003 -0.6789
  398MOL0     C53629  -0.214   7.285   4.726 -0.7518  0.5607 -1.1037
  398MOL0     C53630  -0.246   7.170   4.795 -0.1133  0.3755 -0.2784
  398MOL0     O53631  -0.340   7.079   4.766 -0.2840 -0.3689 -0.3017
  398MOL0     C53632  -0.434   7.100   4.664  0.5649  0.5606  0.8192
  398MOL0     C53633  -0.525   6.970   4.659 -0.0027  0.1077  0.1714
  398MOL0     C53634  -0.453   6.836   4.613 -0.3039  0.7442 -0.1723
  398MOL0     C53635  -0.556   6.734   4.582  1.3721  0.3101 -1.2289
  398MOL0     C53636  -0.495   6.616   4.498  0.1314  0.0262  0.3616
  398MOL0     C53637  -0.470   6.664   4.361  0.2597 -0.4254 -0.7204
  398MOL0     C53638  -0.422   6.549   4.270  0.3637 -0.2154  0.4918
  398MOL0     C53639  -0.362   6.611   4.139 -1.2281 -0.3804 -0.1396
  398MOL0    Cl53640  -0.279   6.475   4.052  0.4837  0.3070  0.0201
  398MOL0     C53641  -0.177   7.141   4.918 -0.2940 -0.0181 -0.4793
  398MOL0     C53642  -0.076   7.230   4.961  0.4269 -0.5200 -0.0561
  398MOL0     O53643   0.212   7.282   4.960 -0.7732  0.3759  0.3593
  398MOL0     C53644   0.296   7.432   5.184  0.6082 -0.7340 -0.8696
  398MOL0     C53645   0.382   7.511   5.269  0.3575 -1.7965  0.4797
  398MOL0     N53646   1.052   7.664   5.706 -0.8886  0.1587 -1.3667
  398MOL0     N53647   1.154   7.653   5.782  0.5737 -0.1537 -0.0530
  398MOL0     C53648   2.234   8.278   5.791 -0.5731  0.0449 -0.0903
  398MOL0     C53649   2.363   8.339   5.772 -0.4459  0.1468  0.3509
  398MOL0     C53650   2.787   8.413   5.794  0.0255 -0.5361 -0.1007
  398MOL0     C53651   2.890   8.375   5.884 -0.0768 -0.0549 -0.6617
  398MOL0     C53652   3.014   8.442   5.893 -0.1452 -0.4330  0.1245
  398MOL0     C53653   3.038   8.550   5.808 -0.4283 -0.0617 -0.4977
  398MOL0     O53654   3.162   8.622   5.828  0.3254 -0.5523 -0.2659
  398MOL0     C53655   3.198   8.749   5.770  0.3203 -0.5598  0.2153
  398MOL0     C53656   3.236   8.751   5.623  0.6059  0.6085 -0.6756
  398MOL0     C53657   3.262   8.612   5.565 -0.8449  0.4394 -0.2719
  398MOL0     C53658   3.310   8.609   5.416 -0.5636 -0.2448  0.1013
  398MOL0     C53659   3.439   8.674   5.392  0.0423 -0.7534  0.0384
  398MOL0     C53660   3.525   8.759   5.381  0.0662 -0.1936  0.5802
  398MOL0     C53661   2.940   8.579   5.707 -0.1699  0.7672 -0.8085
  398MOL0     C53662   2.815   8.515   5.700 -0.3279  0.1230  0.3322
  398MOL0     H53663   2.492   8.168   5.519 -2.2995 -0.5404 -2.8013
  398MOL0     H53664   2.233   8.113   5.497 -1.2507  1.7786  0.2594
  398MOL0     H53665   1.996   8.119   5.507 -1.9314  1.1489  0.1825
  398MOL0     H53666   2.079   7.972   5.569 -3.0791 -2.9130 -0.1671
  398MOL0     H53667   1.846   7.896   5.581  1.8901 -1.4615 -0.8213
  398MOL0     H53668   1.922   7.933   5.738  5.4427  0.0444 -2.9364
  398MOL0     H53669   1.787   8.145   5.748 -0.4388 -0.1870 -0.6326
  398MOL0     H53670   1.735   8.127   5.585 -0.6170  1.9150  1.5099
  398MOL0     H53671   1.618   7.901   5.657 -0.0523 -1.2912  0.0910
  398MOL0     H53672   1.674   7.932   5.818  1.4437  2.8991 -0.2740
  398MOL0     H53673   1.521   8.126   5.849  0.0489  2.0448 -0.8903
  398MOL0     H53674   1.490   8.131   5.675  2.5517  0.1888  0.1143
  398MOL0     H53675   1.296   8.041   5.804 -2.7168 -2.1482 -2.8290
  398MOL0     H53676   1.363   7.921   5.682 -1.1891  0.5001 -0.3995
  398MOL0     H53677   1.462   7.779   5.825  2.5962  2.0098 -0.3888
  398MOL0     H53678   1.469   7.893   5.949 -1.2314  0.5806  0.1971
  398MOL0     H53679   1.235   7.872   6.017  0.8529  0.4204  1.0184
  398MOL0     H53680   1.310   7.719   6.002  1.8765  0.8829 -0.3310
  398MOL0     H53681   1.077   7.973   5.805 -1.5753  0.2325  0.4695
  398MOL0     H53682   0.815   7.895   5.697  0.1350  0.1138  0.1658
  398MOL0     H53683   0.926   7.924   5.560  1.2925 -0.4814 -0.3931
  398MOL0     H53684   0.788   7.663   5.617 -1.9773  1.4733  0.0000
  398MOL0     H53685   0.883   7.681   5.471 -1.0201 -0.1639 -0.7797
  398MOL0     H53686   0.706   7.840   5.372 -0.4762 -1.0978 -1.3902
  398MOL0     H53687   0.626   7.835   5.528  0.1673  0.3180 -0.4867
  398MOL0     H53688   0.553   7.608   5.491  0.2315  0.6742  0.2624
  398MOL0     H53689   0.670   7.579   5.361 -2.2031  0.6207 -2.7094
  398MOL0     H53690   0.399   7.793   5.109 -3.7497  1.3996  2.4995
  398MOL0     H53691   0.267   7.656   4.808  0.2760  1.3104 -0.0198
  398MOL0     H53692   0.122   7.685   4.910  0.1573  0.5867  2.9650
  398MOL0     H53693   0.248   7.800   4.919 -0.9057 -0.2487  0.5423
  398MOL0     H53694  -0.109   7.462   4.726 -1.4055 -0.9652 -2.7284
  398MOL0     H53695  -0.259   7.319   4.633 -0.4052 -0.4214 -1.6434
  398MOL0     H53696  -0.503   7.184   4.681 -2.2298 -1.4399 -0.0278
  398MOL0     H53697  -0.386   7.104   4.566  2.3414  0.4806  1.6376
  398MOL0     H53698  -0.557   6.956   4.763 -0.4388  2.1897  0.3567
  398MOL0     H53699  -0.611   6.989   4.594 -0.1480 -0.2167  0.2669
  398MOL0     H53700  -0.387   6.806   4.694  1.7407  1.9364 -1.3086
  398MOL0     H53701  -0.385   6.849   4.528 -1.8270 -1.5587 -1.8661
  398MOL0     H53702  -0.596   6.692   4.675 -0.0404  1.4112 -1.3055
  398MOL0     H53703  -0.644   6.770   4.528  0.7896  1.0711  0.1830
  398MOL0     H53704  -0.559   6.527   4.497  1.3928 -1.0841  3.2624
  398MOL0     H53705  -0.402   6.592   4.552  0.5226  3.6501  1.5218
  398MOL0     H53706  -0.557   6.718   4.323  1.6735  1.3872 -1.5657
  398MOL0     H53707  -0.397   6.746   4.363 -1.1688  0.8745 -0.1934
  398MOL0     H53708  -0.501   6.476   4.251  0.1444 -0.1167  0.9910
  398MOL0     H53709  -0.346   6.492   4.324  0.3462  0.2038  0.9665
  398MOL0     H53710  -0.296   6.697   4.154 -2.1580  0.3932 -0.3892
  398MOL0     H53711  -0.427   6.652   4.061  2.7156 -1.7825 -4.7056
  398MOL0     H53712  -0.202   7.065   4.991 -3.3399  2.4535  1.2881
  398MOL0     H53713  -0.025   7.213   5.055 -0.1015  1.6608  0.6661
  398MOL0     H53714   0.262   7.335   5.218 -0.0938 -0.5188 -0.9527
  398MOL0     H53715   0.415   7.455   5.357  3.0045 -2.5114 -0.8768
  398MOL0     H53716   2.164   8.310   5.867 -0.8343 -1.5060  0.3386
  398MOL0     H53717   2.393   8.423   5.833  1.9251  0.9289 -1.7014
  398MOL0     H53718   2.852   8.302   5.954 -0.2102  0.5620 -0.0779
  398MOL0     H53719   3.092   8.417   5.964  0.3609 -0.8001 -0.5475
  398MOL0     H53720   3.129   8.833   5.781  0.5593 -0.2328 -0.7044
  398MOL0     H53721   3.294   8.776   5.816  0.7266  1.4164 -1.6787
  398MOL0     H53722   3.329   8.809   5.623  1.5085 -0.7621  0.6010
  398MOL0     H53723   3.164   8.809   5.566 -0.3930  1.4079  1.3374
  398MOL0     H53724   3.171   8.551   5.568 -1.4196  1.1605 -1.9445
  398MOL0     H53725   3.347   8.575   5.623  1.4239  0.7096 -3.1572
  398MOL0     H53726   3.227   8.651   5.358  0.6743  0.6563 -1.0750
  398MOL0     H53727   3.327   8.503   5.397  3.2875  0.3847 -0.7704
  398MOL0     H53728   3.605   8.830   5.374  1.6197 -1.9750 -1.1643
  398MOL0     H53729   2.966   8.646   5.626  0.0886  0.4902 -0.9569
  398MOL0     H53730   2.754   8.555   5.619 -0.3771  1.9871  1.2395
  399MOL0     O53731  10.754   5.739   1.220  0.3572 -0.4269 -0.0122
  399MOL0     C53732  10.758   5.621   1.199  0.1689  0.0075 -0.5866
  399MOL0     O53733  10.650   5.531   1.205 -1.0797 -0.3164 -0.3664
  399MOL0     C53734  10.540   5.569   1.279  0.4833  0.2341  0.3829
  399MOL0     C53735  10.534   5.578   1.419  0.3548  0.4975  0.3425
  399MOL0     C53736  10.416   5.601   1.484  0.2176 -0.0909 -0.0712
  399MOL0     C53737  10.303   5.646   1.413 -0.6761  0.4659 -0.3014
  399MOL0     O53738  10.189   5.683   1.464  0.2487  0.0305  0.3646
  399MOL0     C53739  10.132   5.606   1.573  0.4797  0.2783  0.3515
  399MOL0     C53740   9.991   5.651   1.594  0.2138  0.0009 -0.3576
  399MOL0     C53741   9.900   5.604   1.472 -0.1152  0.8290 -0.3029
  399MOL0     C53742   9.754   5.586   1.524  0.6382 -0.1570  0.0306
  399MOL0     C53743   9.662   5.557   1.397 -0.1373 -0.0185 -0.7255
  399MOL0     C53744   9.526   5.497   1.444  0.5432  0.1555  0.1174
  399MOL0     C53745   9.441   5.467   1.319 -0.0102 -1.0578 -0.3867
  399MOL0     C53746   9.409   5.583   1.222 -0.1279  0.2060 -0.9013
  399MOL0     N53747   9.333   5.550   1.107  0.2712 -0.3603 -0.2287
  399MOL0     C53748   9.227   5.460   1.103 -0.3189  1.0233 -0.7991
  399MOL0     C53749   9.200   5.439   0.973  0.4822  0.7442  0.2238
  399MOL0     C53750   9.109   5.336   0.911  0.1979  0.2106  0.7052
  399MOL0     C53751   9.184   5.215   0.860  0.0197  0.1559  0.0064
  399MOL0     C53752   9.239   5.127   0.969  0.2898 -0.1017 -0.2293
  399MOL0     C53753   9.139   5.037   1.042  0.3259  0.1136 -0.1898
  399MOL0     O53754   9.061   5.122   1.128  0.1237  0.1128 -0.1459
  399MOL0     C53755   8.947   5.067   1.195  0.2527  0.7913 -0.9077
  399MOL0     C53756   8.926   4.923   1.217 -0.2090  0.2585  0.1569
  399MOL0     C53757   8.806   4.870   1.258  0.4261 -1.1794 -0.4607
  399MOL0     C53758   8.785   4.721   1.265 -0.7417  0.2033  0.0207
  399MOL0     C53759   8.698   4.956   1.283 -0.4222 -0.1685  0.3079
  399MOL0     C53760   8.563   4.903   1.328 -0.3145  0.9395 -0.2511
  399MOL0     O53761   8.459   4.927   1.241  0.3204  0.0851 -0.3809
  399MOL0     C53762   8.336   4.883   1.273 -0.0789  0.0319 -0.3350
  399MOL0     C53763   8.238   4.964   1.335 -1.1074 -1.3402  0.6069
  399MOL0     C53764   8.114   4.902   1.381 -0.3129 -0.8462 -0.0941
  399MOL0     C53765   8.091   4.771   1.347  0.6152  0.0099  0.6261
  399MOL0     O53766   7.968   4.710   1.370  0.6104  0.2052  0.2836
  399MOL0     C53767   7.862   4.789   1.423  0.0664  0.0427  0.4188
  399MOL0     C53768   7.742   4.684   1.439  0.3352 -1.0364 -0.0944
  399MOL0     C53769   7.618   4.749   1.497 -0.9034 -0.0452 -0.6075
  399MOL0     C53770   7.554   4.871   1.413  0.0595 -0.6238 -0.3625
  399MOL0     C53771   7.417   4.908   1.474 -0.2473  0.0871 -0.6426
  399MOL0     C53772   7.292   4.809   1.448  0.0108 -0.2020 -0.3497
  399MOL0     C53773   7.156   4.841   1.500  0.2588  0.1215  0.1764
  399MOL0     C53774   7.093   4.971   1.431  0.6200  0.5946  0.0795
  399MOL0    Cl53775   6.914   4.949   1.466 -0.1464 -0.0633 -0.2702
  399MOL0     C53776   8.193   4.688   1.293  0.4476 -0.3149  0.6227
  399MOL0     C53777   8.315   4.744   1.267 -0.0511 -0.1385  0.4084
  399MOL0     O53778   8.558   4.849   1.439 -0.1015 -0.2922  0.3136
  399MOL0     C53779   8.719   5.094   1.270  0.4812 -0.1997 -0.1463
  399MOL0     C53780   8.841   5.153   1.233 -0.2553 -0.6789 -0.0572
  399MOL0     N53781   9.284   5.517   0.896 -0.7787 -0.2478  0.2375
  399MOL0     N53782   9.366   5.579   0.980 -0.1563 -0.3132 -0.0306
  399MOL0     C53783  10.309   5.654   1.275 -0.6920  0.0475  0.5296
  399MOL0     C53784  10.428   5.611   1.214  0.8275 -0.4611  0.3499
  399MOL0     C53785  10.890   5.570   1.161  0.2322 -0.0164  0.5886
  399MOL0     C53786  10.911   5.435   1.151  0.3536  0.8993 -0.5830
  399MOL0     C53787  11.035   5.375   1.127  0.0318  0.3387  0.4519
  399MOL0     C53788  11.152   5.448   1.112 -0.1018  0.5273 -0.4456
  399MOL0     O53789  11.282   5.393   1.106 -0.0258  0.5689 -0.5083
  399MOL0     C53790  11.293   5.253   1.075  0.1062  0.5142 -0.1064
  399MOL0     C53791  11.436   5.214   1.019  0.2035  0.1324 -0.4436
  399MOL0     C53792  11.538   5.213   1.131 -0.4482 -0.1625 -0.0387
  399MOL0     C53793  11.686   5.181   1.093  0.6532  0.1959 -0.2738
  399MOL0     C53794  11.792   5.184   1.193  0.2250  0.6789  0.2978
  399MOL0     C53795  11.865   5.187   1.284 -0.6403  0.2577  0.0722
  399MOL0     C53796  11.140   5.586   1.126  0.0431 -0.7318 -0.4507
  399MOL0     C53797  11.010   5.645   1.141 -0.0658 -0.7046 -0.4192
  399MOL0     H53798  10.626   5.554   1.471  0.9232 -1.1552 -1.3133
  399MOL0     H53799  10.419   5.597   1.592 -1.2062  1.7965  0.0974
  399MOL0     H53800  10.130   5.498   1.555 -1.4878  0.6302 -2.0784
  399MOL0     H53801  10.188   5.628   1.664 -0.0317  0.3335  0.6517
  399MOL0     H53802   9.946   5.623   1.689 -0.8703 -0.0790 -0.8768
  399MOL0     H53803   9.982   5.760   1.598  1.1543  0.0536  1.3074
  399MOL0     H53804   9.910   5.671   1.387  3.4548 -1.3057 -1.8116
  399MOL0     H53805   9.930   5.508   1.428 -0.9964  0.5855 -0.3892
  399MOL0     H53806   9.740   5.507   1.597 -0.3489 -2.7320 -2.7429
  399MOL0     H53807   9.715   5.670   1.583 -2.5783  0.8622 -3.1466
  399MOL0     H53808   9.633   5.647   1.342  4.1104  2.8402  1.1698
  399MOL0     H53809   9.717   5.489   1.331  1.2903 -0.9045  1.2876
  399MOL0     H53810   9.547   5.412   1.510 -1.7580  0.7545  1.7827
  399MOL0     H53811   9.478   5.569   1.511 -0.0272 -1.7145  1.8429
  399MOL0     H53812   9.510   5.412   1.253  2.3834  1.6523 -0.3222
  399MOL0     H53813   9.351   5.412   1.348 -1.8612  1.4361 -1.0997
  399MOL0     H53814   9.497   5.633   1.180  1.1430  0.6700  2.0757
  399MOL0     H53815   9.363   5.650   1.295  1.2321  0.8338 -0.5994
  399MOL0     H53816   9.183   5.412   1.191  1.1633 -0.2788 -0.7262
  399MOL0     H53817   9.025   5.307   0.975  2.0503  0.4680  3.4530
  399MOL0     H53818   9.064   5.379   0.821  1.5394 -0.2861 -0.2241
  399MOL0     H53819   9.272   5.246   0.803 -0.4443  0.3727 -0.5954
  399MOL0     H53820   9.111   5.163   0.797  0.2654 -1.3200  0.8921
  399MOL0     H53821   9.310   5.179   1.034 -0.2283 -0.7936  0.9266
  399MOL0     H53822   9.297   5.044   0.927  0.6388 -0.3812  0.7610
  399MOL0     H53823   9.193   4.970   1.110 -1.2279  0.1419  1.1151
  399MOL0     H53824   9.073   4.975   0.980 -0.5944 -0.3138  1.1932
  399MOL0     H53825   9.005   4.853   1.189 -1.2043 -0.9629  0.3274
  399MOL0     H53826   8.768   4.678   1.364  1.3317 -3.0913 -0.8920
  399MOL0     H53827   8.702   4.700   1.197  1.3966 -1.2456 -2.3352
  399MOL0     H53828   8.872   4.671   1.222 -0.2153  0.2022  1.0367
  399MOL0     H53829   8.260   5.070   1.339  3.3414 -1.8303 -3.1474
  399MOL0     H53830   8.037   4.963   1.428  0.3920 -1.3069  1.7467
  399MOL0     H53831   7.890   4.836   1.517  1.7630  0.4093 -0.2263
  399MOL0     H53832   7.834   4.866   1.350 -2.1966 -0.6717  0.4613
  399MOL0     H53833   7.710   4.625   1.354  0.7299 -2.2468  0.5758
  399MOL0     H53834   7.781   4.620   1.519  0.9336  0.9636  1.3015
  399MOL0     H53835   7.639   4.783   1.598 -0.5369 -1.4193 -0.2034
  399MOL0     H53836   7.540   4.673   1.508 -1.6715  0.3914 -2.5748
  399MOL0     H53837   7.613   4.963   1.409 -2.5438  1.1115 -1.5965
  399MOL0     H53838   7.541   4.831   1.311  0.7313 -1.1973 -0.2345
  399MOL0     H53839   7.397   5.004   1.426  1.8182  0.2665 -1.2593
  399MOL0     H53840   7.430   4.925   1.581  2.2397  2.4434 -1.2016
  399MOL0     H53841   7.288   4.792   1.340 -1.4506  1.1444 -0.5453
  399MOL0     H53842   7.320   4.712   1.490  2.6846  0.1720 -1.0588
  399MOL0     H53843   7.163   4.853   1.609  1.0540 -1.7746  0.3834
  399MOL0     H53844   7.082   4.760   1.496 -0.7338  0.9894  0.3092
  399MOL0     H53845   7.111   4.960   1.324 -1.4103 -2.1889 -0.0886
  399MOL0     H53846   7.143   5.062   1.467  2.1025 -0.4435  0.7680
  399MOL0     H53847   8.169   4.592   1.248  0.4950  0.5845 -1.3871
  399MOL0     H53848   8.384   4.681   1.211  0.0588  0.9435 -0.7281
  399MOL0     H53849   8.632   5.158   1.277  1.4900  1.2552 -0.4982
  399MOL0     H53850   8.865   5.256   1.208 -0.5795 -0.5764  0.0645
  399MOL0     H53851  10.229   5.674   1.205 -0.3532  0.4274  0.2433
  399MOL0     H53852  10.438   5.612   1.106  0.7610  0.5284  0.3358
  399MOL0     H53853  10.827   5.368   1.165  1.1788  0.2252  1.3912
  399MOL0     H53854  11.048   5.267   1.122 -2.5722 -0.0115 -1.0004
  399MOL0     H53855  11.276   5.183   1.157 -3.0269 -3.6175 -3.7545
  399MOL0     H53856  11.218   5.229   0.999  0.2112 -2.2424  0.5647
  399MOL0     H53857  11.467   5.295   0.953 -1.4317  0.2891 -1.0652
  399MOL0     H53858  11.440   5.124   0.955  0.7096  0.3640 -0.7401
  399MOL0     H53859  11.504   5.137   1.202  2.2430 -1.6275 -0.1693
  399MOL0     H53860  11.544   5.311   1.180 -1.1414 -0.7738  1.3510
  399MOL0     H53861  11.716   5.241   1.006 -1.8578 -2.6396 -3.3775
  399MOL0     H53862  11.678   5.080   1.052 -2.9127  0.4629 -0.5244
  399MOL0     H53863  11.922   5.201   1.374 -2.5938  3.4015  0.9746
  399MOL0     H53864  11.229   5.647   1.117 -0.6806  0.2704 -1.0865
  399MOL0     H53865  11.021   5.753   1.143 -2.9297 -0.3235 -1.4073
  400MOL0     O53866   9.273   2.597   2.615 -0.0023 -0.1484  0.2755
  400MOL0     C53867   9.303   2.665   2.517  0.1052 -0.1902  1.1128
  400MOL0     O53868   9.232   2.764   2.469  0.1046 -0.2928 -0.6831
  400MOL0     C53869   9.116   2.797   2.542 -0.2446 -0.0194  0.9615
  400MOL0     C53870   9.119   2.891   2.645  0.2342 -0.4428  0.7080
  400MOL0     C53871   9.001   2.928   2.711 -0.7134 -0.0731 -0.7581
  400MOL0     C53872   8.877   2.866   2.673 -0.6952 -1.3042 -0.2753
  400MOL0     O53873   8.777   2.920   2.754 -0.5260  0.3028 -0.5863
  400MOL0     C53874   8.642   2.891   2.723  0.1427  1.0126  0.5097
  400MOL0     C53875   8.558   2.966   2.832 -0.4271  0.4884  0.2623
  400MOL0     C53876   8.405   2.940   2.828 -1.0812 -0.2090  0.6244
  400MOL0     C53877   8.330   3.029   2.925  0.7085  0.0808 -0.1256
  400MOL0     C53878   8.184   3.023   2.880 -0.0539 -0.0667 -0.9766
  400MOL0     C53879   8.092   3.092   2.979 -0.0147  0.2156  0.0313
  400MOL0     C53880   8.064   2.995   3.091 -0.5663  0.1346  0.1152
  400MOL0     C53881   8.037   3.072   3.224  0.4370 -0.1938 -0.8230
  400MOL0     N53882   7.899   3.126   3.227 -0.2624  0.4982  0.5379
  400MOL0     C53883   7.870   3.255   3.208  0.3993 -0.0540  0.0510
  400MOL0     C53884   7.737   3.266   3.225  0.3641 -0.9638 -0.1266
  400MOL0     C53885   7.662   3.398   3.232  0.1087  0.4450  0.4859
  400MOL0     C53886   7.516   3.364   3.256  0.3911 -0.5770 -0.2988
  400MOL0     C53887   7.443   3.491   3.297 -0.9603 -0.6494  0.3898
  400MOL0     C53888   7.299   3.470   3.329  0.5085 -0.4019 -0.3933
  400MOL0     O53889   7.236   3.462   3.200 -0.5171 -0.0394  0.0547
  400MOL0     C53890   7.106   3.433   3.189  0.1052  0.0441 -0.0059
  400MOL0     C53891   7.052   3.423   3.061 -0.0154  0.2244  0.2723
  400MOL0     C53892   6.918   3.400   3.041  0.0759  0.1040 -0.2488
  400MOL0     C53893   6.867   3.401   2.896 -0.1847  0.5484 -0.6477
  400MOL0     C53894   6.831   3.381   3.153  0.4027  0.8398 -0.3282
  400MOL0     C53895   6.688   3.374   3.136 -0.5396 -0.1006 -0.2719
  400MOL0     O53896   6.616   3.470   3.065 -0.7207  0.6868 -0.1621
  400MOL0     C53897   6.485   3.455   3.045 -0.0105  0.0330  0.4838
  400MOL0     C53898   6.402   3.495   3.153 -0.6772 -0.1511  0.6042
  400MOL0     C53899   6.269   3.494   3.151  0.8164  0.0942  0.1270
  400MOL0     C53900   6.202   3.442   3.043 -0.5508 -0.0907  0.5187
  400MOL0     O53901   6.065   3.457   3.048  0.2979 -0.6255  0.6302
  400MOL0     C53902   5.989   3.421   2.936  0.0345  0.5127 -0.0240
  400MOL0     C53903   5.854   3.493   2.956 -0.8719  0.0714  0.6174
  400MOL0     C53904   5.773   3.408   3.044  0.7285 -0.4690 -0.6822
  400MOL0     C53905   5.633   3.467   3.088  1.2157  0.3196 -0.2759
  400MOL0     C53906   5.527   3.500   2.978  0.2377 -0.3313  1.2376
  400MOL0     C53907   5.377   3.535   3.017 -0.9309 -0.1910 -0.3222
  400MOL0     C53908   5.368   3.679   3.069  0.0711 -0.2092 -0.6497
  400MOL0     C53909   5.215   3.717   3.104  0.3216  0.4125 -0.0117
  400MOL0    Cl53910   5.102   3.632   2.983  0.6190 -0.3767  0.0961
  400MOL0     C53911   6.278   3.403   2.936 -0.4156 -1.2732 -0.1945
  400MOL0     C53912   6.422   3.411   2.933  0.6696  0.6788  0.5037
  400MOL0     O53913   6.635   3.286   3.197 -0.6737 -0.2375 -0.0551
  400MOL0     C53914   6.881   3.393   3.286 -0.6852  0.1436 -0.6966
  400MOL0     C53915   7.016   3.425   3.300 -0.2249 -0.1568 -0.8633
  400MOL0     N53916   7.686   3.138   3.262 -0.0380  0.2738  0.6890
  400MOL0     N53917   7.792   3.054   3.264  0.1199  0.9574  0.4073
  400MOL0     C53918   8.882   2.777   2.567  0.3796 -0.3057  0.6918
  400MOL0     C53919   8.996   2.751   2.500  0.1183  1.0416 -0.4740
  400MOL0     C53920   9.422   2.629   2.441 -0.2459  0.3332 -0.1269
  400MOL0     C53921   9.490   2.502   2.461  1.2319 -0.6463  0.6269
  400MOL0     C53922   9.620   2.481   2.402  0.0226  0.7767  0.2740
  400MOL0     C53923   9.687   2.578   2.324  0.5584  0.0895  0.1985
  400MOL0     O53924   9.805   2.540   2.262 -0.3458 -0.0858  0.3801
  400MOL0     C53925   9.879   2.649   2.206 -0.1759  0.5238  0.2921
  400MOL0     C53926  10.015   2.605   2.148  0.2608  0.0320 -0.4786
  400MOL0     C53927   9.988   2.526   2.017 -0.3007 -0.8043 -0.5238
  400MOL0     C53928  10.116   2.480   1.957 -0.3066 -0.0362  0.7054
  400MOL0     C53929  10.101   2.439   1.817 -1.1267  0.1361  0.3228
  400MOL0     C53930  10.069   2.387   1.707 -0.2901 -0.4871 -0.2677
  400MOL0     C53931   9.612   2.696   2.298  0.8983  0.0378  0.1575
  400MOL0     C53932   9.485   2.721   2.356 -0.0294 -0.4391  0.0762
  400MOL0     H53933   9.212   2.933   2.682 -0.1179  0.2655  0.7998
  400MOL0     H53934   9.008   3.002   2.790  0.0648  0.7871 -1.6031
  400MOL0     H53935   8.613   2.928   2.624 -0.0309  0.6624  0.4264
  400MOL0     H53936   8.632   2.782   2.725 -1.0186  0.9501 -2.5188
  400MOL0     H53937   8.587   2.944   2.935 -1.0423  0.2988  0.3986
  400MOL0     H53938   8.578   3.073   2.835 -1.2535  0.6509  0.0546
  400MOL0     H53939   8.370   2.961   2.727 -1.1727 -0.3320  0.6307
  400MOL0     H53940   8.374   2.838   2.850 -0.8511 -0.2134  0.9369
  400MOL0     H53941   8.345   2.986   3.025  2.0398 -1.9736 -1.1261
  400MOL0     H53942   8.364   3.132   2.918 -0.6282  0.8253  2.8987
  400MOL0     H53943   8.168   3.065   2.780  0.3808  2.5901  0.0107
  400MOL0     H53944   8.156   2.917   2.887 -0.3474  0.0951  4.5497
  400MOL0     H53945   8.128   3.187   3.019 -1.1492 -0.2173  2.2461
  400MOL0     H53946   8.003   3.128   2.927  0.5745  4.6578  1.6538
  400MOL0     H53947   7.977   2.934   3.068  0.6669 -1.0269 -1.8436
  400MOL0     H53948   8.150   2.928   3.108 -1.5863 -0.9231  1.2476
  400MOL0     H53949   8.112   3.150   3.241  1.0450 -1.1755  1.3460
  400MOL0     H53950   8.049   3.005   3.309  1.1086  0.0298 -0.7395
  400MOL0     H53951   7.946   3.332   3.200  1.1722 -0.6606  1.2667
  400MOL0     H53952   7.697   3.469   3.308  0.9062  0.8046 -0.1893
  400MOL0     H53953   7.679   3.453   3.139 -1.1453  1.4193  0.8075
  400MOL0     H53954   7.493   3.301   3.343  1.7255  0.4258  0.8329
  400MOL0     H53955   7.467   3.328   3.165  0.1655  1.2016 -0.9098
  400MOL0     H53956   7.443   3.570   3.222  0.2976  0.2170  1.2528
  400MOL0     H53957   7.502   3.527   3.382 -1.3794  1.8748 -0.2991
  400MOL0     H53958   7.258   3.556   3.382  2.0019  0.1181 -0.0314
  400MOL0     H53959   7.274   3.379   3.384 -2.6683  1.1911  1.0356
  400MOL0     H53960   7.129   3.432   2.985  2.3883 -0.0745  2.5124
  400MOL0     H53961   6.768   3.354   2.887  1.3468 -2.6172 -3.1118
  400MOL0     H53962   6.869   3.500   2.850  3.0777  1.6383  1.5187
  400MOL0     H53963   6.936   3.334   2.844  0.5008 -0.0686  0.9831
  400MOL0     H53964   6.457   3.514   3.244 -0.3523 -2.9313  1.0991
  400MOL0     H53965   6.219   3.543   3.234 -3.2414 -1.5013 -1.1278
  400MOL0     H53966   6.034   3.462   2.845  0.3020  0.1864 -0.0429
  400MOL0     H53967   5.978   3.312   2.930  2.2975  0.0265  2.4104
  400MOL0     H53968   5.856   3.595   2.997 -1.7030  0.1788  0.4017
  400MOL0     H53969   5.811   3.498   2.856 -1.8349 -0.5972  0.9738
  400MOL0     H53970   5.820   3.384   3.139  2.0602 -0.1662 -1.2502
  400MOL0     H53971   5.749   3.316   2.990  0.4812 -1.6819  1.3940
  400MOL0     H53972   5.581   3.400   3.157  1.3039  0.9107  0.3817
  400MOL0     H53973   5.652   3.562   3.138  1.1352  0.2232 -0.0610
  400MOL0     H53974   5.512   3.412   2.916  0.6847 -0.7059  1.6570
  400MOL0     H53975   5.575   3.583   2.925 -2.2715 -0.2866 -1.1439
  400MOL0     H53976   5.322   3.529   2.923  1.2687 -2.6706 -1.5619
  400MOL0     H53977   5.337   3.456   3.081  1.1469 -3.2140 -2.4579
  400MOL0     H53978   5.395   3.746   2.987 -0.8886 -0.9724 -1.6296
  400MOL0     H53979   5.432   3.699   3.155 -1.1602  0.8776  0.0551
  400MOL0     H53980   5.196   3.824   3.095 -0.7938  0.3966  1.7135
  400MOL0     H53981   5.183   3.681   3.203 -1.7621 -0.6585 -1.0060
  400MOL0     H53982   6.241   3.374   2.838 -0.7690  0.8582 -0.7578
  400MOL0     H53983   6.486   3.381   2.850  0.1802 -2.3492  1.1407
  400MOL0     H53984   6.814   3.383   3.370 -1.6102 -4.0747 -1.7436
  400MOL0     H53985   7.056   3.443   3.400 -0.1808  1.0406 -1.0776
  400MOL0     H53986   8.792   2.726   2.536 -0.2959  0.1758  1.7921
  400MOL0     H53987   8.999   2.685   2.414  0.4377  1.9577 -1.1810
  400MOL0     H53988   9.451   2.425   2.527  0.0763 -0.2857  0.3756
  400MOL0     H53989   9.682   2.395   2.424  1.1763  1.1211 -1.4274
  400MOL0     H53990   9.825   2.686   2.118  2.1543 -1.3299 -2.0566
  400MOL0     H53991   9.893   2.734   2.273  2.2897  1.2557 -1.0349
  400MOL0     H53992  10.059   2.532   2.216 -0.2756  0.6266  0.5307
  400MOL0     H53993  10.086   2.687   2.132  1.3053 -0.5891  0.8176
  400MOL0     H53994   9.931   2.593   1.952 -0.8360  0.5102  1.2212
  400MOL0     H53995   9.920   2.444   2.040  1.5899 -1.8191  1.9424
  400MOL0     H53996  10.158   2.392   2.007 -1.3311  0.1160  1.8861
  400MOL0     H53997  10.183   2.566   1.966 -0.0949 -0.3848  3.0018
  400MOL0     H53998  10.044   2.333   1.618 -3.1210 -0.1353  0.2097
  400MOL0     H53999   9.654   2.781   2.246  0.1501  0.5099  0.3100
  400MOL0     H54000   9.441   2.816   2.327 -1.6592 -1.9485 -2.9386
  401MOL0     O54001   2.946   3.957  11.116 -1.0277  0.3751  0.6957
  401MOL0     C54002   3.028   4.020  11.049 -0.6555 -0.9264  0.8429
  401MOL0     O54003   2.993   4.109  10.947  0.3219  0.8005  0.6421
  401MOL0     C54004   2.856   4.129  10.920  0.6767  0.9120 -0.1883
  401MOL0     C54005   2.784   4.059  10.828 -0.0015 -0.9914 -0.0359
  401MOL0     C54006   2.646   4.078  10.809 -0.4734  0.2285  0.1785
  401MOL0     C54007   2.580   4.171  10.890  0.3189  0.0006 -0.0056
  401MOL0     O54008   2.448   4.196  10.879 -0.8536  0.4523 -0.3634
  401MOL0     C54009   2.412   4.316  10.824  0.3353  0.5587 -0.3619
  401MOL0     C54010   2.273   4.341  10.875  0.6652 -0.2611 -0.0835
  401MOL0     C54011   2.171   4.241  10.817 -0.0133 -0.0008  1.0487
  401MOL0     C54012   2.028   4.270  10.873 -0.4627 -0.4558 -0.8147
  401MOL0     C54013   1.936   4.294  10.753 -0.2147  0.3998 -0.0487
  401MOL0     C54014   1.950   4.425  10.682  0.7628 -0.2131  0.6910
  401MOL0     C54015   1.839   4.457  10.566  0.0476  0.1519  0.0183
  401MOL0     C54016   1.891   4.560  10.488 -0.3767  0.1605  0.3484
  401MOL0     N54017   1.803   4.585  10.374 -0.3463  0.5958 -0.0679
  401MOL0     C54018   1.702   4.670  10.375 -0.0631 -0.1477  0.6952
  401MOL0     C54019   1.649   4.665  10.255  0.3816 -1.4795  0.6809
  401MOL0     C54020   1.530   4.749  10.214  0.5521  1.0718  0.0785
  401MOL0     C54021   1.524   4.880  10.288  0.8619  0.4153  0.3543
  401MOL0     C54022   1.616   4.982  10.244 -0.1591 -1.0741  0.0090
  401MOL0     C54023   1.767   4.979  10.272  0.1548  0.1070 -0.3677
  401MOL0     O54024   1.810   4.990  10.407 -0.9274  0.2787 -0.4756
  401MOL0     C54025   1.943   4.975  10.438  0.6682  0.9004  0.4060
  401MOL0     C54026   1.975   4.958  10.572 -0.1584  1.0420  0.0481
  401MOL0     C54027   2.104   4.932  10.620 -0.7876 -0.0117  0.2060
  401MOL0     C54028   2.127   4.938  10.770  0.6837  0.6338  1.3795
  401MOL0     C54029   2.209   4.916  10.529  0.6655  0.6228 -0.0303
  401MOL0     C54030   2.344   4.875  10.560  0.1597 -0.0578  0.3083
  401MOL0     O54031   2.362   4.774  10.645  0.4453  0.5653  0.0304
  401MOL0     C54032   2.487   4.728  10.677  0.3228 -0.0740  0.4242
  401MOL0     C54033   2.589   4.805  10.736  0.4208  0.7033  0.7456
  401MOL0     C54034   2.721   4.755  10.760  0.2353  0.5368  0.3938
  401MOL0     C54035   2.742   4.620  10.727  0.4967 -0.0247  0.1386
  401MOL0     O54036   2.864   4.571  10.757  0.3172  0.2186 -0.2799
  401MOL0     C54037   2.919   4.457  10.702 -0.1832  0.5364 -0.1808
  401MOL0     C54038   3.076   4.459  10.702  0.8469 -0.2996  0.1699
  401MOL0     C54039   3.153   4.334  10.672  0.2169 -0.0191  0.1265
  401MOL0     C54040   3.302   4.370  10.658 -0.1988 -0.0595  0.0723
  401MOL0     C54041   3.385   4.239  10.632  0.1159  0.4776  1.2080
  401MOL0     C54042   3.537   4.279  10.608 -0.7128 -0.1513  0.4416
  401MOL0     C54043   3.552   4.339  10.464  0.3365  0.6459  0.3322
  401MOL0     C54044   3.705   4.367  10.436  0.6134  0.6293  0.5439
  401MOL0    Cl54045   3.710   4.474  10.300  0.0383  0.0702  0.2172
  401MOL0     C54046   2.649   4.545  10.659  0.1373 -0.3747  0.4773
  401MOL0     C54047   2.519   4.600  10.640  0.1594  0.3129 -0.1810
  401MOL0     O54048   2.432   4.937  10.495 -0.5102 -0.0225  1.4816
  401MOL0     C54049   2.177   4.939  10.393 -0.3638 -1.2042 -1.2874
  401MOL0     C54050   2.054   4.980  10.348  0.4118 -0.3268  0.0201
  401MOL0     N54051   1.732   4.594  10.164 -0.0677  0.1752 -0.5160
  401MOL0     N54052   1.820   4.540  10.241  0.0552 -0.3068 -0.5928
  401MOL0     C54053   2.649   4.236  10.983  0.4437 -0.1283  0.2483
  401MOL0     C54054   2.785   4.218  11.001 -0.5176  0.0371 -0.7342
  401MOL0     C54055   3.169   4.013  11.087  0.0285 -0.5649  1.2688
  401MOL0     C54056   3.263   4.045  10.982 -0.3878 -0.1667 -0.1408
  401MOL0     C54057   3.392   4.030  11.013 -0.1309  0.0790 -0.1010
  401MOL0     C54058   3.441   3.980  11.133  0.1346  0.1721  0.4716
  401MOL0     O54059   3.581   3.956  11.155  0.4355  0.0734  0.0766
  401MOL0     C54060   3.672   3.998  11.060 -0.2589 -0.0866 -0.5198
  401MOL0     C54061   3.805   3.964  11.124 -0.1156 -0.1886 -0.3037
  401MOL0     C54062   3.846   4.033  11.259  1.3053 -1.1526 -0.2999
  401MOL0     C54063   3.983   3.977  11.311 -0.1700  0.2282 -1.1144
  401MOL0     C54064   4.087   4.045  11.239 -0.7192  0.1906 -0.5263
  401MOL0     C54065   4.177   4.097  11.173 -0.7660  0.5640 -0.0112
  401MOL0     C54066   3.352   3.937  11.238 -0.4512  0.4176  0.3349
  401MOL0     C54067   3.211   3.958  11.210 -0.4368  0.2507 -0.1298
  401MOL0     H54068   2.835   3.979  10.775 -0.1221 -0.6977 -0.6005
  401MOL0     H54069   2.600   4.032  10.723 -1.6376  2.1314 -0.2619
  401MOL0     H54070   2.479   4.397  10.857 -0.5511  0.8072  0.9126
  401MOL0     H54071   2.415   4.301  10.716  2.6812  0.2419 -0.2998
  401MOL0     H54072   2.279   4.335  10.984 -0.9176  0.7429  0.0906
  401MOL0     H54073   2.246   4.445  10.854 -3.9213 -1.5054 -1.5489
  401MOL0     H54074   2.184   4.237  10.708  0.9590  0.3740  1.1394
  401MOL0     H54075   2.195   4.148  10.869  0.0966  0.9266  2.7168
  401MOL0     H54076   1.994   4.188  10.936  0.5237  0.6244  1.2374
  401MOL0     H54077   2.018   4.355  10.941 -0.2072  1.5594 -3.1452
  401MOL0     H54078   1.967   4.207  10.693 -2.2974 -1.0451  0.8906
  401MOL0     H54079   1.836   4.275  10.791  0.4916 -2.1801  0.7527
  401MOL0     H54080   1.943   4.506  10.755  0.3328  0.7020 -0.3366
  401MOL0     H54081   2.044   4.421  10.627 -1.0230 -1.2773 -2.5099
  401MOL0     H54082   1.831   4.369  10.501  0.6109 -0.8831  1.3051
  401MOL0     H54083   1.744   4.479  10.616 -1.5358  1.0560 -3.1376
  401MOL0     H54084   1.986   4.534  10.441 -0.8559  2.8078 -2.4457
  401MOL0     H54085   1.916   4.649  10.546 -1.2152 -0.7621  2.1950
  401MOL0     H54086   1.673   4.729  10.461 -0.4130  1.2251 -0.3413
  401MOL0     H54087   1.542   4.766  10.106  1.6976  0.2150  0.0390
  401MOL0     H54088   1.444   4.683  10.230  1.7384 -0.6715 -0.4187
  401MOL0     H54089   1.518   4.857  10.395 -1.7771 -1.2213 -0.0611
  401MOL0     H54090   1.424   4.916  10.262  0.8144  0.4333  0.5563
  401MOL0     H54091   1.576   5.075  10.284 -2.3364 -1.5478 -0.9423
  401MOL0     H54092   1.611   5.000  10.136  2.4366  2.5271  0.2897
  401MOL0     H54093   1.809   5.068  10.225 -0.1442  0.8370  0.7137
  401MOL0     H54094   1.802   4.890  10.219  0.4636 -1.8212  2.8070
  401MOL0     H54095   1.897   4.973  10.645  1.3850  0.2790  1.9491
  401MOL0     H54096   2.189   4.856  10.808  1.5158  0.9150  0.6645
  401MOL0     H54097   2.180   5.027  10.804  0.5720  1.5864 -0.7583
  401MOL0     H54098   2.027   4.928  10.811 -1.0057  1.1403 -2.2251
  401MOL0     H54099   2.565   4.910  10.750  0.4574  0.9463 -0.8572
  401MOL0     H54100   2.801   4.806  10.813 -0.1328  1.6272 -0.0599
  401MOL0     H54101   2.887   4.371  10.762  1.3920  0.1958  0.2197
  401MOL0     H54102   2.883   4.436  10.601  0.8642 -3.3192  0.1073
  401MOL0     H54103   3.110   4.529  10.626 -0.3508 -0.2525 -0.3369
  401MOL0     H54104   3.111   4.513  10.791  0.4672  0.9179 -0.3957
  401MOL0     H54105   3.110   4.305  10.576  0.2501  2.5307 -0.7477
  401MOL0     H54106   3.137   4.249  10.738 -0.7628  0.7395  0.9006
  401MOL0     H54107   3.322   4.448  10.584  0.0917 -0.7251 -0.5509
  401MOL0     H54108   3.331   4.406  10.758 -0.9807  0.2751  0.1881
  401MOL0     H54109   3.347   4.193  10.540  0.3210 -1.2708  1.9604
  401MOL0     H54110   3.377   4.160  10.707 -0.8720 -3.2945 -2.4519
  401MOL0     H54111   3.570   4.348  10.686  0.4584  1.9057 -1.7300
  401MOL0     H54112   3.597   4.189  10.623  0.9169  0.9045  0.4043
  401MOL0     H54113   3.489   4.428  10.457 -1.1282 -0.4258 -0.7966
  401MOL0     H54114   3.517   4.271  10.385 -0.6561 -2.3504  3.1287
  401MOL0     H54115   3.756   4.272  10.416  2.9184  1.8228  0.4450
  401MOL0     H54116   3.745   4.424  10.521  1.3293 -0.1022  0.7062
  401MOL0     H54117   2.670   4.442  10.632 -1.6285 -0.3481 -1.2510
  401MOL0     H54118   2.446   4.538  10.588  1.7118  0.3190 -2.5368
  401MOL0     H54119   2.261   4.936  10.323  1.1803  0.5950  0.3499
  401MOL0     H54120   2.042   5.010  10.244  1.4144 -1.3221 -0.4047
  401MOL0     H54121   2.600   4.311  11.044  1.2168  1.1862 -0.6828
  401MOL0     H54122   2.842   4.260  11.082 -1.4027 -3.2486  1.8196
  401MOL0     H54123   3.242   4.069  10.878  1.9130 -1.1622 -0.9097
  401MOL0     H54124   3.469   4.059  10.943 -1.0740 -0.3984 -1.3562
  401MOL0     H54125   3.655   3.939  10.969  2.2495  0.0790 -1.1590
  401MOL0     H54126   3.665   4.107  11.049 -0.0674 -0.0926 -0.7110
  401MOL0     H54127   3.886   3.987  11.055 -1.3003  2.4435 -0.9665
  401MOL0     H54128   3.802   3.855  11.136 -0.0827 -0.4475 -2.3463
  401MOL0     H54129   3.771   4.028  11.338 -1.3224  4.3528 -1.9186
  401MOL0     H54130   3.857   4.138  11.231  0.3106 -0.6505  1.0817
  401MOL0     H54131   3.985   3.869  11.295  1.0723 -0.0887  0.8652
  401MOL0     H54132   3.994   3.997  11.418 -2.1990 -0.9192 -0.6336
  401MOL0     H54133   4.255   4.137  11.111 -3.0879  2.9347 -1.5752
  401MOL0     H54134   3.397   3.885  11.322  2.0034  0.3620 -0.9310
  401MOL0     H54135   3.140   3.918  11.281  0.3925 -2.3465 -0.6647
  402MOL0     O54136   2.028   5.108   9.434 -0.4170  0.1235  0.5952
  402MOL0     C54137   2.117   5.127   9.348 -0.4851  0.1551  1.6198
  402MOL0     O54138   2.101   5.160   9.210 -0.5849 -0.1151 -0.3453
  402MOL0     C54139   1.970   5.176   9.170  1.1308 -0.1591  0.4110
  402MOL0     C54140   1.950   5.272   9.064  0.3194 -0.0470 -0.0306
  402MOL0     C54141   1.812   5.302   9.019  0.1889 -0.0703 -0.3901
  402MOL0     C54142   1.706   5.207   9.052 -0.1070 -0.6697 -0.4075
  402MOL0     O54143   1.583   5.222   8.997 -0.0581  0.4100  0.7080
  402MOL0     C54144   1.547   5.136   8.893 -0.0237 -0.1385  0.5296
  402MOL0     C54145   1.463   5.216   8.793  0.8996 -0.5632  0.8181
  402MOL0     C54146   1.324   5.253   8.851  0.0998  0.1892  0.4444
  402MOL0     C54147   1.239   5.135   8.906  0.5965  0.5215  1.3748
  402MOL0     C54148   1.086   5.160   8.945 -0.2057 -0.1868 -0.5760
  402MOL0     C54149   1.009   5.212   8.820  0.0191  0.0444 -0.3052
  402MOL0     C54150   0.865   5.235   8.861  0.3183  0.9645 -1.0029
  402MOL0     C54151   0.787   5.108   8.842 -0.4258  0.4252  0.3695
  402MOL0     N54152   0.646   5.126   8.894 -0.5240 -0.2924 -0.4397
  402MOL0     C54153   0.540   5.166   8.829  0.0931  0.7390  0.1539
  402MOL0     C54154   0.449   5.178   8.919  0.2011  0.1447  0.9545
  402MOL0     C54155   0.305   5.227   8.897 -0.1962  0.5278  0.3994
  402MOL0     C54156   0.227   5.132   8.809  0.7172  0.1018  0.8331
  402MOL0     C54157   0.168   5.018   8.887  0.1503 -0.0486  0.5941
  402MOL0     C54158   0.016   5.027   8.879  0.3519 -0.0150  0.4544
  402MOL0     O54159  -0.049   5.143   8.931  0.1184  0.4711 -0.1799
  402MOL0     C54160  -0.181   5.141   8.970 -0.2767 -0.2888 -0.0757
  402MOL0     C54161  -0.273   5.216   8.895  0.0487  0.7513 -0.9165
  402MOL0     C54162  -0.408   5.219   8.933  0.7085 -0.3539 -0.0837
  402MOL0     C54163  -0.494   5.312   8.847  0.1029  0.5075 -0.2242
  402MOL0     C54164  -0.457   5.152   9.044 -1.3828  0.3530 -0.8934
  402MOL0     C54165  -0.592   5.166   9.106  0.9033 -0.5608 -0.0969
  402MOL0     O54166  -0.659   5.277   9.072 -0.0571  0.0336 -0.3002
  402MOL0     C54167  -0.796   5.294   9.069  0.0214 -0.2327 -0.1122
  402MOL0     C54168  -0.877   5.192   9.018  0.2873 -0.2138 -0.7950
  402MOL0     C54169  -1.020   5.212   9.013 -0.1471  0.2338 -0.0316
  402MOL0     C54170  -1.076   5.334   9.045 -0.3135 -0.8226 -0.9500
  402MOL0     O54171  -1.204   5.364   9.020  0.4741 -0.1562  0.2721
  402MOL0     C54172  -1.306   5.266   9.025 -0.4198 -0.3727 -0.1133
  402MOL0     C54173  -1.441   5.324   8.987 -0.3498 -0.5833 -0.1604
  402MOL0     C54174  -1.504   5.416   9.096 -0.6658 -0.8486  0.3282
  402MOL0     C54175  -1.580   5.537   9.024  0.0887  0.2277 -1.0414
  402MOL0     C54176  -1.639   5.633   9.134 -0.4353  0.4984  0.1971
  402MOL0     C54177  -1.796   5.608   9.143 -0.7393 -0.2279 -0.0467
  402MOL0     C54178  -1.868   5.691   9.245 -0.5214 -0.6039  0.3982
  402MOL0     C54179  -1.974   5.618   9.317  0.6325  0.5104 -0.5230
  402MOL0    Cl54180  -1.899   5.496   9.422  0.0656  0.0545  0.2842
  402MOL0     C54181  -0.990   5.435   9.090 -0.7945 -0.6846 -0.0069
  402MOL0     C54182  -0.851   5.410   9.109  0.5190 -0.3964  0.3648
  402MOL0     O54183  -0.634   5.072   9.174 -0.0297  0.7528 -0.2837
  402MOL0     C54184  -0.362   5.073   9.118  0.5236 -0.1161 -0.2921
  402MOL0     C54185  -0.231   5.068   9.082 -0.1971 -0.3887  0.1643
  402MOL0     N54186   0.504   5.150   9.043  0.1794  1.3663 -0.5299
  402MOL0     N54187   0.619   5.112   9.022 -0.6383 -0.9204 -0.2654
  402MOL0     C54188   1.729   5.108   9.151 -0.5019  0.1032  0.1062
  402MOL0     C54189   1.857   5.095   9.207 -0.0380  0.3840  0.0779
  402MOL0     C54190   2.252   5.114   9.400  0.0282  0.3479  0.1516
  402MOL0     C54191   2.278   5.055   9.522  0.6180  0.7046 -0.1695
  402MOL0     C54192   2.405   5.059   9.577 -0.1895  0.6998  0.0885
  402MOL0     C54193   2.509   5.126   9.510  0.3575 -0.6743  0.5495
  402MOL0     O54194   2.635   5.140   9.554  0.3512 -0.0229 -0.0788
  402MOL0     C54195   2.669   5.119   9.690  0.1558 -0.6144  0.5626
  402MOL0     C54196   2.714   4.977   9.706  0.1558  0.7589 -0.0557
  402MOL0     C54197   2.789   4.915   9.582  0.0376  0.2956 -0.2677
  402MOL0     C54198   2.912   4.996   9.545 -0.2171  0.3844  0.6102
  402MOL0     C54199   3.015   4.968   9.645 -0.3855  0.9874  0.0160
  402MOL0     C54200   3.094   4.932   9.725 -0.8318 -0.5736 -0.2319
  402MOL0     C54201   2.477   5.179   9.390  0.4585  0.1400  0.4063
  402MOL0     C54202   2.353   5.174   9.330 -0.1016 -0.5213 -0.5199
  402MOL0     H54203   2.039   5.327   9.036 -0.0327  1.5454  1.7576
  402MOL0     H54204   1.790   5.371   8.938 -1.8413  1.5616  1.4205
  402MOL0     H54205   1.640   5.107   8.844  0.0751 -2.4133  1.9224
  402MOL0     H54206   1.500   5.046   8.934  2.4949 -1.1529  1.3852
  402MOL0     H54207   1.513   5.308   8.762 -2.3985  1.0552 -0.2160
  402MOL0     H54208   1.455   5.155   8.702 -0.0001  0.4821  0.1792
  402MOL0     H54209   1.340   5.329   8.928  0.0321 -0.9024  1.5630
  402MOL0     H54210   1.263   5.294   8.770 -2.2207 -2.8582  0.4574
  402MOL0     H54211   1.238   5.056   8.830 -1.5228 -0.1440  2.0320
  402MOL0     H54212   1.283   5.089   8.994 -0.0458 -0.8867  0.9800
  402MOL0     H54213   1.048   5.065   8.983 -2.5976  1.9869  3.0157
  402MOL0     H54214   1.085   5.240   9.018 -1.2389  1.8519 -2.6933
  402MOL0     H54215   1.052   5.311   8.805  0.0865 -0.2085 -1.9775
  402MOL0     H54216   1.020   5.150   8.731  0.7834  0.6660 -0.6545
  402MOL0     H54217   0.865   5.258   8.968  1.2131 -2.4397 -0.1424
  402MOL0     H54218   0.820   5.323   8.815  1.0160  2.1518  0.4868
  402MOL0     H54219   0.842   5.032   8.898  0.6068  1.7783  1.2374
  402MOL0     H54220   0.785   5.080   8.736  3.6376  0.2055  0.2034
  402MOL0     H54221   0.543   5.203   8.727 -0.3419  0.8180  0.1674
  402MOL0     H54222   0.250   5.240   8.991 -2.5384  0.3244 -0.8524
  402MOL0     H54223   0.313   5.328   8.854 -0.2543 -0.2770 -1.6159
  402MOL0     H54224   0.286   5.094   8.725 -1.9860  0.5964 -1.4347
  402MOL0     H54225   0.147   5.188   8.760  2.2961  0.8211 -1.0788
  402MOL0     H54226   0.210   5.016   8.987 -0.6207  1.0710  0.9575
  402MOL0     H54227   0.199   4.921   8.847  1.0206  0.0068  1.1188
  402MOL0     H54228  -0.015   4.943   8.941  0.4924  0.8575  1.7493
  402MOL0     H54229  -0.007   5.020   8.773  0.6236  1.3540  0.2802
  402MOL0     H54230  -0.237   5.268   8.807  1.2182 -0.4641 -1.1946
  402MOL0     H54231  -0.448   5.354   8.758  2.8310  0.5748  1.1333
  402MOL0     H54232  -0.582   5.251   8.823  0.1148  0.1489  0.6247
  402MOL0     H54233  -0.525   5.397   8.908  0.0936 -1.3924  2.6089
  402MOL0     H54234  -0.834   5.096   8.990  0.7852  0.1780 -1.3807
  402MOL0     H54235  -1.077   5.132   8.965 -0.7499  1.1434 -0.8815
  402MOL0     H54236  -1.291   5.182   8.958 -2.3273 -1.7695  1.0933
  402MOL0     H54237  -1.318   5.220   9.123 -1.8813  0.7792  0.2893
  402MOL0     H54238  -1.422   5.376   8.893  1.1276 -0.0055  0.4335
  402MOL0     H54239  -1.509   5.239   8.978  0.2193 -0.9904 -0.7150
  402MOL0     H54240  -1.421   5.447   9.160 -0.7000 -2.7238  1.3355
  402MOL0     H54241  -1.571   5.358   9.160  0.6158 -2.2108  0.4721
  402MOL0     H54242  -1.502   5.592   8.970 -0.2274 -0.7711 -2.5782
  402MOL0     H54243  -1.657   5.506   8.953  0.7745 -0.1014 -1.6524
  402MOL0     H54244  -1.618   5.740   9.119  3.3878 -0.1809 -0.4678
  402MOL0     H54245  -1.581   5.603   9.222 -0.5073 -1.8445 -0.4867
  402MOL0     H54246  -1.838   5.616   9.043 -1.3449 -1.6587  0.0570
  402MOL0     H54247  -1.804   5.500   9.163 -2.5848 -0.2558 -0.7337
  402MOL0     H54248  -1.905   5.778   9.191  0.2690 -0.9911 -0.8129
  402MOL0     H54249  -1.801   5.736   9.319 -1.2350  3.7170 -1.3028
  402MOL0     H54250  -2.047   5.564   9.257 -0.1796 -0.2438  1.0625
  402MOL0     H54251  -2.023   5.688   9.386  1.0478  1.0682 -0.7934
  402MOL0     H54252  -1.032   5.532   9.114  2.4777  0.9865 -0.4228
  402MOL0     H54253  -0.787   5.494   9.135  1.8000 -0.2071 -2.9302
  402MOL0     H54254  -0.399   5.026   9.209  0.9763 -0.0529 -0.0737
  402MOL0     H54255  -0.159   5.013   9.141  1.2812 -1.3709 -2.4099
  402MOL0     H54256   1.645   5.042   9.170 -2.3487  1.7656 -1.7054
  402MOL0     H54257   1.877   5.011   9.273 -2.0709 -1.6968 -1.7500
  402MOL0     H54258   2.202   5.016   9.590  0.6017  2.3950  0.8462
  402MOL0     H54259   2.426   5.011   9.672  2.3398  0.4741 -0.5282
  402MOL0     H54260   2.749   5.186   9.721  1.1866 -0.3085 -2.3819
  402MOL0     H54261   2.588   5.145   9.758 -0.3055  1.2880 -0.6131
  402MOL0     H54262   2.621   4.925   9.733  0.8632  0.5348  2.1536
  402MOL0     H54263   2.789   4.968   9.785  1.0296 -1.7848 -1.0239
  402MOL0     H54264   2.722   4.918   9.495 -0.9798 -0.6560  0.4522
  402MOL0     H54265   2.808   4.813   9.615 -1.9016  0.1063  0.4226
  402MOL0     H54266   2.900   5.105   9.546  1.6508  0.6356  2.7415
  402MOL0     H54267   2.933   4.978   9.439 -1.2239 -0.2418  0.5021
  402MOL0     H54268   3.163   4.908   9.804  3.0705 -0.6934 -3.3787
  402MOL0     H54269   2.557   5.225   9.332  0.0885 -0.8229 -0.9112
  402MOL0     H54270   2.341   5.220   9.232  0.9643  0.9925  0.0280
  403MOL0     O54271   0.734   0.033   8.476 -0.3777  0.8641  0.2006
  403MOL0     C54272   0.784  -0.034   8.381 -0.3553  0.8097  0.0699
  403MOL0     O54273   0.724  -0.122   8.297 -0.2409  0.1743 -0.4317
  403MOL0     C54274   0.587  -0.132   8.287 -0.2954  0.4501 -0.0350
  403MOL0     C54275   0.544  -0.203   8.172 -0.1159  0.1056 -0.4547
  403MOL0     C54276   0.404  -0.211   8.147  0.3349 -0.1447  0.5902
  403MOL0     C54277   0.308  -0.157   8.233  0.8694  0.6322 -0.1589
  403MOL0     O54278   0.177  -0.185   8.213  0.4729 -0.4828  0.0579
  403MOL0     C54279   0.063  -0.123   8.278 -0.1975  0.1207 -0.0051
  403MOL0     C54280  -0.029  -0.077   8.161 -0.1060  0.4813 -0.3104
  403MOL0     C54281  -0.162   0.006   8.197 -0.0127  0.0790 -0.1339
  403MOL0     C54282  -0.247  -0.044   8.310 -0.2022  0.7911 -0.6571
  403MOL0     C54283  -0.375   0.040   8.344  0.0815 -0.5776 -0.2801
  403MOL0     C54284  -0.450  -0.032   8.457  0.6909 -0.0794 -0.0432
  403MOL0     C54285  -0.573   0.031   8.515 -0.3905 -0.9561 -0.0115
  403MOL0     C54286  -0.550   0.143   8.608 -0.2582  0.3540 -0.9746
  403MOL0     N54287  -0.681   0.207   8.639 -0.5084  0.1953 -0.3316
  403MOL0     C54288  -0.717   0.337   8.624  0.0082  0.9432  0.1434
  403MOL0     C54289  -0.849   0.342   8.682  0.1895 -0.4921  0.4157
  403MOL0     C54290  -0.929   0.464   8.689  0.1721 -0.2204 -0.0360
  403MOL0     C54291  -0.843   0.581   8.717 -0.7591  0.1732 -0.0841
  403MOL0     C54292  -0.850   0.614   8.869 -0.4453  0.2450 -0.1520
  403MOL0     C54293  -0.744   0.549   8.950 -0.0602 -0.2495  0.0391
  403MOL0     O54294  -0.769   0.565   9.089  0.2984  0.2350 -0.6014
  403MOL0     C54295  -0.855   0.486   9.156  0.0020  1.0363 -0.3240
  403MOL0     C54296  -0.926   0.378   9.095 -0.0993 -0.0855 -0.1239
  403MOL0     C54297  -1.010   0.286   9.169  0.9850 -0.4516 -0.3182
  403MOL0     C54298  -1.082   0.176   9.101  0.5575 -0.5095 -0.2136
  403MOL0     C54299  -1.019   0.312   9.309  0.2814  1.0202 -0.1435
  403MOL0     C54300  -1.107   0.225   9.400  0.1671  0.7383 -0.1436
  403MOL0     O54301  -1.067   0.205   9.530 -0.3190 -0.0444  0.0024
  403MOL0     C54302  -1.152   0.160   9.626 -0.4615  0.2683 -1.0665
  403MOL0     C54303  -1.082   0.109   9.739  0.5842 -1.1441 -0.0808
  403MOL0     C54304  -1.160   0.059   9.853 -0.0261 -0.2950  0.9839
  403MOL0     C54305  -1.296   0.061   9.848  0.6728 -0.0058  0.0818
  403MOL0     O54306  -1.370   0.011   9.950  0.3940  0.2037  0.0785
  403MOL0     C54307  -1.488   0.070   9.999 -0.7756 -0.2022 -0.2498
  403MOL0     C54308  -1.456   0.209  10.062  0.0676  0.0139 -0.3394
  403MOL0     C54309  -1.565   0.293  10.134  0.5081  0.4220  0.4097
  403MOL0     C54310  -1.642   0.204  10.225  0.3400  0.1696  0.4374
  403MOL0     C54311  -1.717   0.282  10.335  0.3958  0.2918 -0.5790
  403MOL0     C54312  -1.614   0.305  10.451  0.1658  0.4421  0.9561
  403MOL0     C54313  -1.679   0.338  10.589  0.1937 -0.2603  0.1228
  403MOL0     C54314  -1.754   0.468  10.602 -0.1025  0.4972 -0.4201
  403MOL0    Cl54315  -1.903   0.499  10.503 -0.5149  0.4365  0.0375
  403MOL0     C54316  -1.361   0.105   9.734  0.5274 -0.7094  0.3979
  403MOL0     C54317  -1.293   0.158   9.626 -0.8749  0.2385 -0.1978
  403MOL0     O54318  -1.218   0.188   9.355  0.0516 -0.1646  0.4688
  403MOL0     C54319  -0.954   0.429   9.359  0.6268  0.2512 -0.8439
  403MOL0     C54320  -0.866   0.514   9.289  0.4734  0.7773 -0.7067
  403MOL0     N54321  -0.881   0.222   8.734  0.2625 -0.1758 -0.4543
  403MOL0     N54322  -0.783   0.143   8.708 -0.4677  0.2993  0.5639
  403MOL0     C54323   0.352  -0.106   8.350  0.3980 -0.0338  0.7326
  403MOL0     C54324   0.488  -0.078   8.376 -0.1161  0.0982 -0.2926
  403MOL0     C54325   0.930  -0.005   8.355 -0.1808  0.2077 -0.2402
  403MOL0     C54326   1.012  -0.089   8.281  1.0473  0.1291 -0.1125
  403MOL0     C54327   1.141  -0.054   8.241  0.0665  0.9210 -0.2800
  403MOL0     C54328   1.196   0.074   8.274 -0.3579  0.3496  0.3915
  403MOL0     O54329   1.321   0.117   8.236  0.4468 -0.8628 -0.3412
  403MOL0     C54330   1.416   0.023   8.173  0.3696  0.7271  0.6126
  403MOL0     C54331   1.561   0.077   8.179 -0.8470  0.6525  0.0486
  403MOL0     C54332   1.635   0.069   8.043  0.9603 -1.2146 -0.7171
  403MOL0     C54333   1.773   0.116   8.053 -0.2384 -0.7913 -0.2699
  403MOL0     C54334   1.811   0.204   7.941  0.0839  0.5894  1.7587
  403MOL0     C54335   1.842   0.278   7.852 -0.3852  0.1709 -0.2456
  403MOL0     C54336   1.116   0.156   8.352 -0.1658 -0.0819 -0.6272
  403MOL0     C54337   0.990   0.108   8.404  0.5310  0.3184  1.1309
  403MOL0     H54338   0.619  -0.248   8.108 -0.5699 -0.7595 -0.4008
  403MOL0     H54339   0.375  -0.264   8.057  0.2979  2.0004 -0.7126
  403MOL0     H54340   0.019  -0.205   8.336  2.5599 -0.5441  1.3280
  403MOL0     H54341   0.098  -0.040   8.341 -1.6675 -0.4219  1.5877
  403MOL0     H54342   0.028  -0.022   8.087  0.0886 -0.0560 -0.5677
  403MOL0     H54343  -0.056  -0.168   8.107 -2.0920  0.1364  1.1458
  403MOL0     H54344  -0.124   0.103   8.231  0.9516 -0.0513 -0.7818
  403MOL0     H54345  -0.218   0.033   8.106  0.5637  0.9410 -0.2458
  403MOL0     H54346  -0.277  -0.147   8.291  2.6384 -0.4076  0.7573
  403MOL0     H54347  -0.177  -0.043   8.394 -1.5767 -2.4319  0.6854
  403MOL0     H54348  -0.352   0.141   8.378  0.3182 -0.2239 -1.4514
  403MOL0     H54349  -0.439   0.051   8.256  2.2520  0.1686 -1.8524
  403MOL0     H54350  -0.481  -0.129   8.417  1.6803 -0.4801  0.1276
  403MOL0     H54351  -0.382  -0.062   8.537 -2.0453  1.1650  2.9604
  403MOL0     H54352  -0.626   0.069   8.427  0.8183 -2.8046 -1.6205
  403MOL0     H54353  -0.629  -0.047   8.567  0.8225 -1.5532  0.4350
  403MOL0     H54354  -0.475   0.209   8.564 -0.0892  1.0909  0.3666
  403MOL0     H54355  -0.496   0.110   8.697  3.5804  1.7364 -2.5969
  403MOL0     H54356  -0.668   0.424   8.582 -0.2741  0.7686 -0.5528
  403MOL0     H54357  -0.977   0.479   8.592 -1.3078 -2.0181  0.3643
  403MOL0     H54358  -1.011   0.457   8.761  0.6036 -1.3753  0.3659
  403MOL0     H54359  -0.876   0.662   8.651  1.9059  1.6023  0.2035
  403MOL0     H54360  -0.741   0.566   8.679 -0.9550 -0.8000 -0.2490
  403MOL0     H54361  -0.941   0.582   8.920  0.6772  2.3341  3.5303
  403MOL0     H54362  -0.855   0.722   8.886 -2.0534  0.0353  0.9143
  403MOL0     H54363  -0.645   0.584   8.918 -0.1876  1.0557  1.0170
  403MOL0     H54364  -0.745   0.442   8.926  0.9564 -0.3697  0.4862
  403MOL0     H54365  -0.918   0.367   8.988  0.3042 -0.6015 -0.0470
  403MOL0     H54366  -1.189   0.200   9.096  1.0632  2.4348  1.0205
  403MOL0     H54367  -1.043   0.177   8.999  1.1374  0.9466 -0.0084
  403MOL0     H54368  -1.061   0.083   9.155 -0.6950 -0.5899  0.1675
  403MOL0     H54369  -0.975   0.096   9.749  0.8892  0.7387 -0.4756
  403MOL0     H54370  -1.127   0.004   9.940 -1.3058 -1.3699  0.8194
  403MOL0     H54371  -1.562   0.073   9.918 -1.0064 -2.2339 -0.1540
  403MOL0     H54372  -1.529   0.000  10.073 -0.3905  1.6909  1.8771
  403MOL0     H54373  -1.374   0.211  10.134  1.3330  3.0730 -1.7101
  403MOL0     H54374  -1.427   0.278   9.982 -1.1993 -0.5344 -1.3169
  403MOL0     H54375  -1.637   0.347  10.073 -1.1556  1.3620  3.0401
  403MOL0     H54376  -1.514   0.369  10.194  1.3505 -0.3013  0.6307
  403MOL0     H54377  -1.724   0.148  10.178 -1.5135  1.2533  2.1888
  403MOL0     H54378  -1.564   0.139  10.263  2.2490  1.6690 -0.7320
  403MOL0     H54379  -1.794   0.213  10.370  0.9859 -1.1483 -1.9744
  403MOL0     H54380  -1.764   0.375  10.303 -3.2508 -1.7709 -1.7633
  403MOL0     H54381  -1.557   0.211  10.450 -2.0807 -1.0025  0.5735
  403MOL0     H54382  -1.539   0.382  10.433 -0.1931  0.2406 -1.6804
  403MOL0     H54383  -1.595   0.345  10.658  0.5588  2.0102 -0.4672
  403MOL0     H54384  -1.749   0.258  10.613  0.3915  0.1410  2.1504
  403MOL0     H54385  -1.681   0.549  10.595  3.6986 -2.4835  1.2822
  403MOL0     H54386  -1.783   0.479  10.707  0.6879 -0.6018 -0.0633
  403MOL0     H54387  -1.468   0.112   9.720  0.5829  2.0694  0.7258
  403MOL0     H54388  -1.361   0.195   9.549 -0.4648 -0.2124 -0.7897
  403MOL0     H54389  -0.961   0.458   9.464  0.3052 -0.7361 -0.5891
  403MOL0     H54390  -0.820   0.600   9.336 -0.6192  1.1708 -0.3059
  403MOL0     H54391   0.277  -0.081   8.424 -1.1500 -0.1405 -0.7464
  403MOL0     H54392   0.512  -0.029   8.469 -0.3955 -2.2678  1.1096
  403MOL0     H54393   0.976  -0.185   8.245  0.9552  0.2641 -0.3856
  403MOL0     H54394   1.196  -0.127   8.182 -0.5661 -0.2874  0.6035
  403MOL0     H54395   1.405  -0.079   8.211 -0.2515  0.6533  0.2579
  403MOL0     H54396   1.377   0.011   8.071 -3.1731 -0.4468  1.9438
  403MOL0     H54397   1.627   0.031   8.253  0.6665  1.1133 -0.9683
  403MOL0     H54398   1.554   0.179   8.218 -0.6433  0.1976  1.3162
  403MOL0     H54399   1.575   0.131   7.975  0.3295  0.0319  0.9020
  403MOL0     H54400   1.634  -0.031   8.000  0.2076 -0.7145 -1.9281
  403MOL0     H54401   1.846   0.036   8.063 -2.6151 -3.0072  0.3996
  403MOL0     H54402   1.782   0.173   8.147  1.5715 -1.1393 -0.1959
  403MOL0     H54403   1.873   0.327   7.763  1.6542  1.6114  1.1777
  403MOL0     H54404   1.163   0.245   8.392  2.6598 -1.8569  0.2569
  403MOL0     H54405   0.930   0.165   8.475 -1.6921  0.1989 -0.5375
  404MOL0     O54406   7.582   7.735   1.096  0.1447 -0.4451  0.2639
  404MOL0     C54407   7.649   7.732   1.191 -0.0940 -1.2960  0.5315
  404MOL0     O54408   7.601   7.728   1.313 -0.3013 -0.0613 -0.6770
  404MOL0     C54409   7.471   7.699   1.330  0.2506 -0.8369 -0.0519
  404MOL0     C54410   7.368   7.795   1.305  0.3861 -0.1637 -0.2351
  404MOL0     C54411   7.236   7.755   1.326 -0.1475  0.3022 -0.0017
  404MOL0     C54412   7.204   7.625   1.362  0.4745 -0.0817 -0.0001
  404MOL0     O54413   7.077   7.591   1.387  0.1003  0.3136  0.7097
  404MOL0     C54414   6.980   7.573   1.274  0.2927  0.0888  0.7613
  404MOL0     C54415   6.921   7.710   1.222  0.3331 -0.4279  0.8209
  404MOL0     C54416   6.785   7.692   1.157 -0.6886 -0.8144  0.7356
  404MOL0     C54417   6.785   7.591   1.043 -0.9079  0.2104  0.3351
  404MOL0     C54418   6.868   7.629   0.912  0.6971  0.4321  0.4148
  404MOL0     C54419   6.864   7.503   0.820 -0.1215  0.6391 -0.5459
  404MOL0     C54420   6.915   7.531   0.679 -0.2627 -0.4886 -0.1099
  404MOL0     C54421   6.902   7.414   0.583  0.4156 -0.4133  0.3120
  404MOL0     N54422   6.981   7.443   0.460 -0.5572  0.4274  1.2027
  404MOL0     C54423   7.123   7.460   0.466  0.4179 -0.3117  0.4628
  404MOL0     C54424   7.163   7.493   0.339 -0.4132 -0.0212 -0.6889
  404MOL0     C54425   7.308   7.509   0.315  0.6574  0.9873 -0.4531
  404MOL0     C54426   7.348   7.649   0.283  0.2441  0.3673 -0.4551
  404MOL0     C54427   7.290   7.707   0.155 -0.0090  0.0514 -0.9811
  404MOL0     C54428   7.338   7.835   0.101 -0.1236  0.3170  0.4383
  404MOL0     O54429   7.294   7.946   0.192 -0.5651  0.2068 -0.3563
  404MOL0     C54430   7.330   8.074   0.173  0.1634 -0.5679 -0.4957
  404MOL0     C54431   7.259   8.176   0.246  0.3283  0.2799  0.3014
  404MOL0     C54432   7.279   8.307   0.238  0.6627 -0.6458 -0.0322
  404MOL0     C54433   7.193   8.389   0.331 -0.7061  0.6720 -0.6128
  404MOL0     C54434   7.402   8.355   0.182 -0.9133  0.0762  0.0275
  404MOL0     C54435   7.442   8.496   0.184 -0.2627  0.2959 -0.3969
  404MOL0     O54436   7.467   8.557   0.064  0.3840  0.0183 -0.1460
  404MOL0     C54437   7.550   8.670   0.064  0.2698  0.0565 -0.4821
  404MOL0     C54438   7.677   8.687   0.126  0.3100  0.0654  0.0790
  404MOL0     C54439   7.747   8.806   0.128 -0.4277  0.1788 -0.4233
  404MOL0     C54440   7.690   8.917   0.066 -0.2884 -0.4406  0.5406
  404MOL0     O54441   7.751   9.042   0.083  0.1644 -1.1000 -0.1856
  404MOL0     C54442   7.757   9.126  -0.032 -0.8079  0.0937  1.3206
  404MOL0     C54443   7.887   9.210  -0.035  1.0217  0.2985  0.3992
  404MOL0     C54444   7.901   9.290   0.093 -0.1993  0.9360  0.6353
  404MOL0     C54445   8.025   9.379   0.094 -0.5119  0.3740 -0.1970
  404MOL0     C54446   8.154   9.295   0.090  0.7893 -0.0043  0.1565
  404MOL0     C54447   8.149   9.184   0.192 -0.4218 -0.5766  0.8021
  404MOL0     C54448   8.281   9.102   0.160  0.4842 -0.6176  0.3023
  404MOL0     C54449   8.316   9.017   0.274  0.1312  0.8749 -0.1085
  404MOL0    Cl54450   8.181   8.910   0.340  0.0636 -0.5075 -0.2203
  404MOL0     C54451   7.565   8.902  -0.002 -0.0751 -0.2954  0.4893
  404MOL0     C54452   7.498   8.781   0.002  0.2562  0.1385  0.2812
  404MOL0     O54453   7.448   8.538   0.300 -0.0143  0.0045  0.4671
  404MOL0     C54454   7.488   8.258   0.124 -0.7561  0.1096 -1.0799
  404MOL0     C54455   7.446   8.124   0.114  0.5875  0.1810  1.0990
  404MOL0     N54456   7.053   7.510   0.258 -0.0626  0.3687 -0.0655
  404MOL0     N54457   6.952   7.472   0.332  0.0013 -0.4275 -0.5534
  404MOL0     C54458   7.305   7.530   1.383 -0.2890  0.3590 -0.4101
  404MOL0     C54459   7.441   7.569   1.369  0.0628  1.3940 -0.0833
  404MOL0     C54460   7.789   7.761   1.169 -0.9392  0.8127 -0.4053
  404MOL0     C54461   7.888   7.695   1.248 -0.5909  0.4366 -0.0881
  404MOL0     C54462   8.022   7.722   1.225 -0.1002 -0.1353  0.9131
  404MOL0     C54463   8.068   7.796   1.113 -0.2748  0.2435 -0.0190
  404MOL0     O54464   8.203   7.827   1.094 -1.1632  0.6934  0.3328
  404MOL0     C54465   8.290   7.710   1.113 -1.0975  0.1534  0.1077
  404MOL0     C54466   8.424   7.770   1.160 -0.1349  0.6708  0.3304
  404MOL0     C54467   8.546   7.668   1.189 -0.6353  0.2454 -0.5572
  404MOL0     C54468   8.589   7.594   1.055  0.9008 -0.5664  0.5841
  404MOL0     C54469   8.720   7.533   1.066 -0.4188 -0.4453 -0.5175
  404MOL0     C54470   8.822   7.470   1.096  0.1149  0.4327 -0.0459
  404MOL0     C54471   7.977   7.861   1.040 -0.0156  0.1103 -0.8190
  404MOL0     C54472   7.839   7.850   1.064  0.6888  0.2225 -0.5637
  404MOL0     H54473   7.406   7.892   1.276 -1.3041  1.4339  2.4380
  404MOL0     H54474   7.157   7.823   1.295  0.4719  0.2345 -1.8767
  404MOL0     H54475   7.015   7.513   1.190  0.2040 -1.2241  1.6340
  404MOL0     H54476   6.898   7.511   1.309 -1.9875  1.8747 -1.0723
  404MOL0     H54477   6.916   7.775   1.310 -0.6281 -0.1434  0.5597
  404MOL0     H54478   6.992   7.748   1.148 -3.3887  1.8234 -1.9421
  404MOL0     H54479   6.715   7.658   1.234  0.4310 -1.9460  1.2918
  404MOL0     H54480   6.756   7.791   1.122 -1.0838 -0.1215  2.8574
  404MOL0     H54481   6.825   7.495   1.078  0.7865  0.7143 -0.0952
  404MOL0     H54482   6.682   7.570   1.015 -1.0959  0.6480  0.6862
  404MOL0     H54483   6.816   7.712   0.862 -1.3519 -0.3899  1.0996
  404MOL0     H54484   6.967   7.668   0.939  0.9154 -0.0461  0.3224
  404MOL0     H54485   6.911   7.416   0.867 -2.8283 -1.8914 -2.1345
  404MOL0     H54486   6.761   7.465   0.821 -0.1442  0.5530  2.4286
  404MOL0     H54487   6.846   7.608   0.643 -1.0027 -0.5478  1.1287
  404MOL0     H54488   7.016   7.571   0.668  0.2622 -1.6799  0.2052
  404MOL0     H54489   6.796   7.391   0.564  0.6041  0.1241 -1.6210
  404MOL0     H54490   6.944   7.335   0.644  0.2981  1.6699  3.3276
  404MOL0     H54491   7.182   7.444   0.556  2.3325  3.7762  0.1463
  404MOL0     H54492   7.361   7.477   0.406 -1.6423 -0.0181  0.6004
  404MOL0     H54493   7.340   7.443   0.234  2.5031 -1.3151  1.9880
  404MOL0     H54494   7.457   7.647   0.275  0.6937  1.1688  3.3054
  404MOL0     H54495   7.316   7.715   0.365 -0.3282 -3.0967  2.3535
  404MOL0     H54496   7.187   7.730   0.184  0.0667 -0.6538 -0.0812
  404MOL0     H54497   7.302   7.641   0.069  3.7434  2.0091 -2.1812
  404MOL0     H54498   7.301   7.857   0.000  1.6262  1.0904 -0.0735
  404MOL0     H54499   7.445   7.840   0.081 -0.2965 -1.5161 -1.2206
  404MOL0     H54500   7.170   8.141   0.298 -0.5252  0.2779 -1.0909
  404MOL0     H54501   7.087   8.361   0.323 -1.1564  1.7854  0.9891
  404MOL0     H54502   7.226   8.353   0.429  1.8394  2.0141 -0.9181
  404MOL0     H54503   7.212   8.495   0.314 -1.1293  0.8783  0.1625
  404MOL0     H54504   7.718   8.601   0.178 -0.0331 -1.2289 -1.6941
  404MOL0     H54505   7.841   8.819   0.182 -0.7211  2.2631 -0.3134
  404MOL0     H54506   7.755   9.069  -0.126  0.1873  0.5127  1.0302
  404MOL0     H54507   7.675   9.199  -0.038  0.7648  1.8359 -1.4083
  404MOL0     H54508   7.969   9.138  -0.039 -0.4845 -1.7431  3.1239
  404MOL0     H54509   7.888   9.275  -0.123  0.5323 -1.6872 -1.1538
  404MOL0     H54510   7.900   9.218   0.176  0.8390  1.1992  0.8887
  404MOL0     H54511   7.810   9.350   0.106 -3.8084 -2.1440 -5.7298
  404MOL0     H54512   8.030   9.448   0.010  2.0268  2.0905  1.2555
  404MOL0     H54513   8.020   9.433   0.188 -1.0109  0.1131 -0.0648
  404MOL0     H54514   8.242   9.355   0.117  0.9614  0.6556 -1.7140
  404MOL0     H54515   8.153   9.254  -0.012 -0.9991  0.7470 -0.1645
  404MOL0     H54516   8.147   9.217   0.296  1.0341 -0.1932  0.7287
  404MOL0     H54517   8.073   9.109   0.171  0.9419 -1.5977 -0.7375
  404MOL0     H54518   8.368   9.167   0.151 -0.0249  0.4481  2.3152
  404MOL0     H54519   8.266   9.048   0.067  3.1051 -0.2233 -0.4300
  404MOL0     H54520   8.354   9.083   0.352 -0.3645  0.6052  0.3637
  404MOL0     H54521   8.404   8.959   0.244  1.9038  3.0094  0.6473
  404MOL0     H54522   7.527   8.982  -0.065 -0.2727 -1.3569 -0.7630
  404MOL0     H54523   7.398   8.780  -0.040  0.3612 -1.5335 -0.0113
  404MOL0     H54524   7.582   8.291   0.080 -1.4899  1.3250 -1.7913
  404MOL0     H54525   7.515   8.062   0.056  0.1740  0.6134  0.1316
  404MOL0     H54526   7.279   7.427   1.404 -1.6849  0.4472 -1.5679
  404MOL0     H54527   7.520   7.498   1.393 -0.0799  0.8970 -1.0465
  404MOL0     H54528   7.860   7.628   1.329 -0.8787  1.6126  0.8158
  404MOL0     H54529   8.090   7.668   1.289 -1.2559 -1.1595  1.3155
  404MOL0     H54530   8.266   7.632   1.186  1.6814 -0.0532  0.8997
  404MOL0     H54531   8.293   7.656   1.017 -3.2863 -0.6990  0.4564
  404MOL0     H54532   8.398   7.828   1.249 -1.3792  0.8564 -0.1235
  404MOL0     H54533   8.462   7.830   1.077  0.3479 -2.6603 -2.0674
  404MOL0     H54534   8.524   7.594   1.267  0.4769 -1.6492 -1.9679
  404MOL0     H54535   8.629   7.732   1.221 -0.5330  1.4724 -2.9925
  404MOL0     H54536   8.595   7.669   0.976  1.0240 -0.6634  0.5017
  404MOL0     H54537   8.526   7.508   1.029  0.0719 -0.5159  2.2603
  404MOL0     H54538   8.896   7.403   1.136 -1.3940 -1.8500 -0.8807
  404MOL0     H54539   8.018   7.908   0.951  0.9010 -1.1304 -1.0901
  404MOL0     H54540   7.762   7.906   1.011 -0.2147 -0.4867 -0.0180
  405MOL0     O54541   1.373   1.605   1.314 -0.5506 -0.5216  0.2596
  405MOL0     C54542   1.383   1.716   1.265 -0.3570  0.2576 -0.4665
  405MOL0     O54543   1.279   1.776   1.196  0.0045 -0.3469  0.0315
  405MOL0     C54544   1.152   1.728   1.175  0.1029 -0.2508 -0.0205
  405MOL0     C54545   1.077   1.777   1.059 -0.5527 -1.2885 -0.4153
  405MOL0     C54546   0.943   1.741   1.035 -0.8228  0.0177  0.2731
  405MOL0     C54547   0.880   1.647   1.115  0.2303 -0.0192  0.4591
  405MOL0     O54548   0.753   1.604   1.087 -0.0010 -0.0000 -0.2269
  405MOL0     C54549   0.666   1.603   1.199 -0.8039 -0.2156  0.3054
  405MOL0     C54550   0.520   1.570   1.143  0.5311  0.6079 -0.4138
  405MOL0     C54551   0.473   1.678   1.048  0.2423 -0.3816 -0.1427
  405MOL0     C54552   0.322   1.676   1.008 -0.3103  0.0122 -0.5967
  405MOL0     C54553   0.243   1.748   1.120 -0.0108 -0.7066 -0.2064
  405MOL0     C54554   0.108   1.794   1.056  0.7181  0.4953 -0.0829
  405MOL0     C54555   0.012   1.849   1.164  0.4051  0.0674 -0.0531
  405MOL0     C54556  -0.128   1.871   1.099 -0.6414 -0.5650  0.2533
  405MOL0     N54557  -0.225   1.966   1.166 -0.6010 -0.0732  0.1329
  405MOL0     C54558  -0.192   2.058   1.269  0.4658  0.8435  0.5891
  405MOL0     C54559  -0.305   2.132   1.278  0.4695 -0.2415 -0.8447
  405MOL0     C54560  -0.326   2.249   1.373 -0.4865  0.4054 -0.0083
  405MOL0     C54561  -0.263   2.387   1.339  0.4135  0.3739  0.3881
  405MOL0     C54562  -0.340   2.450   1.221  0.1321  0.8453 -0.4516
  405MOL0     C54563  -0.444   2.550   1.254 -0.5732  0.0515  0.6753
  405MOL0     O54564  -0.387   2.664   1.315 -0.5451 -0.9019 -1.0771
  405MOL0     C54565  -0.466   2.776   1.348 -0.1703 -0.0833 -0.6378
  405MOL0     C54566  -0.405   2.891   1.381  0.3560 -0.5663 -0.1893
  405MOL0     C54567  -0.469   3.015   1.412 -0.3386 -0.3858 -0.3148
  405MOL0     C54568  -0.382   3.141   1.429 -0.2015 -0.2384 -0.6945
  405MOL0     C54569  -0.606   3.021   1.398  0.6942 -1.2300 -0.9096
  405MOL0     C54570  -0.689   3.147   1.418  0.1908 -0.7817 -0.3338
  405MOL0     O54571  -0.819   3.126   1.456 -0.5456  0.2801 -0.3343
  405MOL0     C54572  -0.873   3.216   1.542 -0.5986 -0.7832  0.3648
  405MOL0     C54573  -1.010   3.209   1.569  0.4347  1.1162  0.4742
  405MOL0     C54574  -1.084   3.296   1.645 -0.9764  0.3663 -0.2749
  405MOL0     C54575  -1.011   3.383   1.724  0.2457  0.7049 -0.0981
  405MOL0     O54576  -1.073   3.460   1.823  0.0700 -0.0802  0.2934
  405MOL0     C54577  -1.190   3.525   1.779  0.4343 -0.2893 -0.0001
  405MOL0     C54578  -1.237   3.600   1.910  0.3842 -0.3004  0.0935
  405MOL0     C54579  -1.373   3.668   1.884 -0.6356 -0.4251  0.5670
  405MOL0     C54580  -1.442   3.729   2.014 -0.4967 -0.4371  0.2047
  405MOL0     C54581  -1.595   3.762   1.996 -0.2399  0.1197 -0.0806
  405MOL0     C54582  -1.617   3.885   1.909 -0.8084  0.6082  0.2173
  405MOL0     C54583  -1.763   3.948   1.934  0.3934 -0.4602 -0.1007
  405MOL0     C54584  -1.878   3.854   1.927  0.0668  0.6500  0.0482
  405MOL0    Cl54585  -2.031   3.952   1.929 -0.4433 -0.3505 -0.2234
  405MOL0     C54586  -0.873   3.380   1.716 -0.2243 -0.5621 -0.4482
  405MOL0     C54587  -0.799   3.299   1.624 -0.5396 -0.4829  0.0327
  405MOL0     O54588  -0.648   3.254   1.373 -0.4770  0.0498  0.7028
  405MOL0     C54589  -0.673   2.908   1.350 -0.2736 -0.3231 -0.8818
  405MOL0     C54590  -0.602   2.786   1.332 -0.0428  0.0566  0.5868
  405MOL0     N54591  -0.401   2.093   1.187  0.0862 -0.2035  0.0319
  405MOL0     N54592  -0.347   2.001   1.116 -0.0968  0.0953 -0.5237
  405MOL0     C54593   0.950   1.605   1.231 -0.4433 -0.6115 -0.2151
  405MOL0     C54594   1.082   1.641   1.257 -0.5003 -0.4526  0.0946
  405MOL0     C54595   1.511   1.789   1.250 -0.4281 -0.0146  0.6225
  405MOL0     C54596   1.638   1.738   1.277  0.2239 -0.4633  0.0351
  405MOL0     C54597   1.756   1.809   1.249  0.4770 -1.0116  1.2034
  405MOL0     C54598   1.750   1.936   1.187 -0.2736  0.1164 -0.2672
  405MOL0     O54599   1.869   1.996   1.160 -0.0037 -0.2049  0.0935
  405MOL0     C54600   1.916   2.072   1.279 -0.4153  0.2725 -0.3629
  405MOL0     C54601   2.055   2.110   1.270  0.5590 -0.9939 -0.8406
  405MOL0     C54602   2.133   1.988   1.272 -0.5926 -0.0797 -0.2615
  405MOL0     C54603   2.283   2.023   1.292 -0.8305  0.4089  0.2637
  405MOL0     C54604   2.381   1.936   1.233 -0.1461  0.4453 -0.6437
  405MOL0     C54605   2.475   1.857   1.206  0.5835  0.6584 -0.2160
  405MOL0     C54606   1.628   1.994   1.152  0.1128  0.3184  0.6591
  405MOL0     C54607   1.512   1.921   1.191 -0.3866 -0.5370  0.6377
  405MOL0     H54608   1.121   1.851   0.993  1.7594 -0.5077  1.8451
  405MOL0     H54609   0.892   1.783   0.949  1.4416 -0.0685 -1.2111
  405MOL0     H54610   0.677   1.520   1.269  1.1952  0.1613  0.4846
  405MOL0     H54611   0.676   1.696   1.255 -0.6030 -0.9762  1.5681
  405MOL0     H54612   0.525   1.474   1.091 -1.0198 -0.4386  1.2879
  405MOL0     H54613   0.448   1.572   1.225  0.5845  0.2315 -0.3569
  405MOL0     H54614   0.506   1.775   1.086  1.6503 -1.3810  1.2849
  405MOL0     H54615   0.535   1.672   0.958  0.1700  0.2347 -0.2417
  405MOL0     H54616   0.299   1.698   0.904 -0.1844  0.5592 -0.5164
  405MOL0     H54617   0.295   1.570   1.004  1.7732 -0.5173 -3.6362
  405MOL0     H54618   0.232   1.686   1.209  1.2791 -2.2633 -1.0759
  405MOL0     H54619   0.297   1.828   1.170 -1.2537  0.5835 -0.8592
  405MOL0     H54620   0.135   1.871   0.984  3.0564 -0.6227 -0.4819
  405MOL0     H54621   0.053   1.711   1.011 -2.4268  0.7497  2.8372
  405MOL0     H54622  -0.006   1.782   1.248 -1.1669  0.3375 -0.1400
  405MOL0     H54623   0.047   1.944   1.205  1.0664  1.0658 -2.7116
  405MOL0     H54624  -0.170   1.770   1.090  3.1541 -2.2228 -0.8530
  405MOL0     H54625  -0.091   1.912   1.004 -1.0294  1.9388  1.1133
  405MOL0     H54626  -0.106   2.070   1.335  1.6414 -1.7546 -0.3313
  405MOL0     H54627  -0.430   2.270   1.397 -0.4086  2.0836 -0.9767
  405MOL0     H54628  -0.278   2.221   1.467 -1.5522  0.5603  0.5909
  405MOL0     H54629  -0.159   2.377   1.308  0.5224  1.0976  0.5039
  405MOL0     H54630  -0.261   2.455   1.425  0.2295  2.0282 -0.8854
  405MOL0     H54631  -0.387   2.369   1.164 -0.6447  0.6368  0.4559
  405MOL0     H54632  -0.268   2.501   1.156  0.8363  0.7227  0.2219
  405MOL0     H54633  -0.525   2.503   1.311  0.3629 -0.9268  1.2169
  405MOL0     H54634  -0.490   2.590   1.163  2.3443  0.3732 -0.7627
  405MOL0     H54635  -0.297   2.899   1.381  0.3616 -0.3475  1.6248
  405MOL0     H54636  -0.388   3.199   1.336  0.6327  1.8842  0.4825
  405MOL0     H54637  -0.406   3.206   1.514  1.3170 -0.8681  0.2578
  405MOL0     H54638  -0.276   3.117   1.445  0.0470  0.0833 -1.7528
  405MOL0     H54639  -1.064   3.131   1.516  3.2249 -0.4566 -0.2385
  405MOL0     H54640  -1.192   3.281   1.648 -0.7549 -1.6732 -0.6054
  405MOL0     H54641  -1.172   3.590   1.693 -1.9861 -2.0390 -1.9911
  405MOL0     H54642  -1.265   3.449   1.755 -1.1544  1.6226 -1.4221
  405MOL0     H54643  -1.235   3.522   1.987  0.3714  0.3133  0.7265
  405MOL0     H54644  -1.158   3.672   1.937  0.5714  0.5991 -2.5982
  405MOL0     H54645  -1.450   3.605   1.841 -0.7768 -0.7062  1.2182
  405MOL0     H54646  -1.364   3.759   1.823  1.2864 -0.0059  1.3808
  405MOL0     H54647  -1.432   3.661   2.099  2.2711 -3.3754 -2.2558
  405MOL0     H54648  -1.387   3.820   2.042  0.7345 -1.4032  1.0036
  405MOL0     H54649  -1.619   3.798   2.097  4.6288  1.5225  0.8461
  405MOL0     H54650  -1.661   3.682   1.963  0.9667 -0.8419 -0.2073
  405MOL0     H54651  -1.549   3.964   1.942 -0.1836  0.0239  0.3382
  405MOL0     H54652  -1.599   3.856   1.805  0.1600 -1.6387  0.9535
  405MOL0     H54653  -1.772   4.033   1.866 -0.9016 -0.6351 -0.1688
  405MOL0     H54654  -1.765   3.990   2.034 -1.7421  3.0774 -1.4720
  405MOL0     H54655  -1.875   3.783   2.010  5.0693 -0.9436 -1.1673
  405MOL0     H54656  -1.858   3.797   1.835  1.5353  2.7386 -0.9900
  405MOL0     H54657  -0.818   3.444   1.784 -0.9520  0.9386 -1.2393
  405MOL0     H54658  -0.691   3.295   1.630 -0.4006  1.3310 -0.6062
  405MOL0     H54659  -0.781   2.912   1.347 -0.3946 -0.5978  1.3544
  405MOL0     H54660  -0.660   2.700   1.299  1.7980 -1.2627  0.6314
  405MOL0     H54661   0.915   1.544   1.314  1.3542  0.0552  1.1130
  405MOL0     H54662   1.131   1.593   1.341  2.4885  0.6189 -0.9004
  405MOL0     H54663   1.644   1.646   1.335 -0.5026 -0.3967  0.2220
  405MOL0     H54664   1.854   1.765   1.266  1.5202  1.3832  1.7459
  405MOL0     H54665   1.851   2.159   1.294 -1.7093 -0.4864 -1.3756
  405MOL0     H54666   1.897   2.005   1.364 -1.5652 -1.5640 -2.0049
  405MOL0     H54667   2.071   2.177   1.355 -2.1170 -2.0179  0.6144
  405MOL0     H54668   2.072   2.171   1.181  1.9318  0.8423  0.6060
  405MOL0     H54669   2.132   1.926   1.182 -0.1746 -0.8411  0.2477
  405MOL0     H54670   2.090   1.931   1.355 -1.2500 -0.1455 -0.6458
  405MOL0     H54671   2.292   2.016   1.400 -2.9069  0.7041  0.4911
  405MOL0     H54672   2.296   2.129   1.264  2.1423  0.9454  3.0833
  405MOL0     H54673   2.563   1.812   1.165 -0.6211 -0.7040 -1.4372
  405MOL0     H54674   1.621   2.090   1.103 -0.0213  0.2691  0.5812
  405MOL0     H54675   1.417   1.968   1.166  1.1336  2.0749 -0.5566
  406MOL0     O54676  10.737   8.961   9.469 -0.8682 -0.2749 -0.1845
  406MOL0     C54677  10.821   8.924   9.387  0.3593 -0.0284 -0.7002
  406MOL0     O54678  10.808   8.813   9.310 -0.3626  0.1239  0.0016
  406MOL0     C54679  10.686   8.754   9.286  0.0674  0.5623  0.8291
  406MOL0     C54680  10.666   8.624   9.335  0.3762 -0.6223 -0.3961
  406MOL0     C54681  10.533   8.579   9.341  0.0555 -0.2093  0.4561
  406MOL0     C54682  10.418   8.647   9.289  0.6542  0.0655  0.0859
  406MOL0     O54683  10.299   8.575   9.303 -0.1896  0.1664 -0.0552
  406MOL0     C54684  10.193   8.622   9.213 -0.2731 -0.3755 -0.1403
  406MOL0     C54685  10.065   8.545   9.253  0.3497 -0.2103  0.4266
  406MOL0     C54686   9.985   8.492   9.129 -0.4807 -0.2803 -0.2627
  406MOL0     C54687   9.943   8.609   9.039  0.5513 -0.3236 -0.4064
  406MOL0     C54688   9.886   8.564   8.906  0.2968  0.7829 -0.8333
  406MOL0     C54689   9.760   8.484   8.921 -0.1631  0.1131 -0.9607
  406MOL0     C54690   9.634   8.569   8.960 -0.2653 -0.8134 -0.0962
  406MOL0     C54691   9.515   8.473   8.976  0.6426 -0.4558 -0.0063
  406MOL0     N54692   9.525   8.363   9.084  0.1441 -0.6884 -0.1590
  406MOL0     C54693   9.546   8.387   9.213 -0.0193  0.1275 -0.1841
  406MOL0     C54694   9.524   8.274   9.279 -0.2932  0.0069  0.6679
  406MOL0     C54695   9.547   8.241   9.425 -0.6762 -0.6065 -0.3339
  406MOL0     C54696   9.488   8.347   9.517  0.1306  0.5367  0.3889
  406MOL0     C54697   9.522   8.333   9.673  0.4085 -0.5344  0.1841
  406MOL0     C54698   9.497   8.469   9.747  0.6588  0.7293  0.0098
  406MOL0     O54699   9.352   8.489   9.757  0.1562  0.2493  0.2913
  406MOL0     C54700   9.302   8.597   9.822 -0.6341  0.4960 -0.6483
  406MOL0     C54701   9.366   8.660   9.937 -0.1384  0.5984 -0.4893
  406MOL0     C54702   9.309   8.767  10.011 -0.4399 -0.8085  0.2405
  406MOL0     C54703   9.401   8.839  10.112 -0.2663 -0.2500 -0.1639
  406MOL0     C54704   9.179   8.794   9.996  0.2106 -0.0240  1.0143
  406MOL0     C54705   9.116   8.904  10.068  0.3184  0.2779  0.2238
  406MOL0     O54706   9.155   8.931  10.203 -0.3703 -0.1045  0.2871
  406MOL0     C54707   9.107   9.047  10.246 -0.5863 -0.1238  0.9065
  406MOL0     C54708   9.185   9.160  10.244  0.3271  0.5540 -0.1260
  406MOL0     C54709   9.143   9.282  10.298 -0.4873 -0.7669  0.2304
  406MOL0     C54710   9.008   9.292  10.350 -0.3294  0.1867  0.2651
  406MOL0     O54711   8.947   9.396  10.415  1.0400  0.1432 -0.5966
  406MOL0     C54712   9.030   9.516  10.401  0.4397 -0.8060  0.3029
  406MOL0     C54713   8.970   9.622  10.498  0.5766 -0.4246 -0.1176
  406MOL0     C54714   9.023   9.761  10.467  0.2603  0.4922  0.1596
  406MOL0     C54715   9.180   9.777  10.447  0.3366  0.4780  0.0610
  406MOL0     C54716   9.266   9.734  10.565 -0.0604  0.1725  0.7168
  406MOL0     C54717   9.406   9.815  10.573 -0.9324 -0.2658  0.0604
  406MOL0     C54718   9.534   9.737  10.625  0.6812 -0.3765  1.0466
  406MOL0     C54719   9.662   9.814  10.606 -0.3971  0.4549 -0.3223
  406MOL0    Cl54720   9.718   9.837  10.435  0.4156 -0.0404  0.1113
  406MOL0     C54721   8.933   9.175  10.354  0.1872 -0.4882  0.4053
  406MOL0     C54722   8.981   9.058  10.304 -0.6312  0.0855 -0.7579
  406MOL0     O54723   9.028   8.958  10.006  0.1519  0.4154 -0.1104
  406MOL0     C54724   9.107   8.732   9.884  0.7559 -0.7178  0.1920
  406MOL0     C54725   9.169   8.637   9.803 -0.6357  1.3822  0.7726
  406MOL0     N54726   9.482   8.186   9.188  0.2005  0.4371  0.2841
  406MOL0     N54727   9.476   8.236   9.076 -0.3501  0.0921  0.1326
  406MOL0     C54728  10.441   8.766   9.222  0.4441  0.1291 -0.0176
  406MOL0     C54729  10.575   8.819   9.217  0.0896  0.1406 -0.4709
  406MOL0     C54730  10.957   8.985   9.389  0.4603 -0.1947  0.3149
  406MOL0     C54731  11.063   8.937   9.310 -0.2316  0.4166 -0.1219
  406MOL0     C54732  11.190   8.984   9.332  0.1812  0.0321  0.0459
  406MOL0     C54733  11.218   9.089   9.428  0.5518 -0.8759 -0.0949
  406MOL0     O54734  11.339   9.142   9.449  0.5663 -0.2729  1.0256
  406MOL0     C54735  11.426   9.163   9.338  0.0882  1.0847  0.1087
  406MOL0     C54736  11.560   9.112   9.399 -0.1886 -0.2089  0.6600
  406MOL0     C54737  11.641   9.228   9.471 -0.2541  0.8423 -0.4466
  406MOL0     C54738  11.773   9.178   9.531  0.0922 -0.1204 -0.8426
  406MOL0     C54739  11.859   9.113   9.434  0.2078  0.0680 -0.8671
  406MOL0     C54740  11.921   9.048   9.353 -0.3588  0.6473 -0.6518
  406MOL0     C54741  11.110   9.139   9.499 -0.1312  0.0445 -0.1392
  406MOL0     C54742  10.982   9.089   9.483  0.2552  0.4900 -0.2874
  406MOL0     H54743  10.742   8.566   9.386 -1.9403 -2.6110  1.0009
  406MOL0     H54744  10.511   8.482   9.384 -0.6200  0.0515  0.7144
  406MOL0     H54745  10.171   8.728   9.225  0.3730 -0.5728  6.2730
  406MOL0     H54746  10.230   8.586   9.117  0.0297  0.5706 -0.3854
  406MOL0     H54747  10.091   8.456   9.311  2.0761 -0.3666 -0.5058
  406MOL0     H54748  10.003   8.619   9.304 -2.7895  0.4943 -3.8256
  406MOL0     H54749  10.054   8.434   9.068 -0.6148  0.2245 -0.9048
  406MOL0     H54750   9.899   8.432   9.161  0.1736 -0.5334  1.1221
  406MOL0     H54751   9.872   8.671   9.095 -1.5028 -2.0951 -0.9065
  406MOL0     H54752  10.026   8.677   9.017 -0.0250  0.7588  0.6234
  406MOL0     H54753   9.858   8.655   8.852 -1.6332 -0.4734 -2.0749
  406MOL0     H54754   9.959   8.500   8.856 -1.1147 -0.9177 -0.8151
  406MOL0     H54755   9.737   8.426   8.832 -1.2270 -1.2483  0.1607
  406MOL0     H54756   9.781   8.410   8.998  2.1819  2.0944  0.4648
  406MOL0     H54757   9.647   8.633   9.047 -0.0739 -3.2151  1.7291
  406MOL0     H54758   9.608   8.624   8.868 -0.8688  0.7840  0.9916
  406MOL0     H54759   9.502   8.414   8.885 -3.8481 -1.2539  0.8813
  406MOL0     H54760   9.419   8.526   8.980  0.7869  0.2564 -3.3122
  406MOL0     H54761   9.588   8.475   9.259 -0.9989 -0.7295  2.5848
  406MOL0     H54762   9.521   8.139   9.452  4.0755 -2.2177 -0.8601
  406MOL0     H54763   9.654   8.232   9.447 -0.2918  1.8242 -0.8511
  406MOL0     H54764   9.380   8.349   9.498  0.5043 -0.2478 -2.3027
  406MOL0     H54765   9.523   8.448   9.494 -0.0645  0.3213 -0.9586
  406MOL0     H54766   9.628   8.312   9.684  1.5505  3.4987 -1.3956
  406MOL0     H54767   9.461   8.260   9.728  0.2742  1.3143  2.6780
  406MOL0     H54768   9.541   8.553   9.693  2.4542  0.8201  1.4825
  406MOL0     H54769   9.547   8.470   9.845  2.2789  3.3356 -0.7451
  406MOL0     H54770   9.464   8.624   9.969 -0.8269  0.6187  1.8639
  406MOL0     H54771   9.506   8.819  10.086  0.1378  0.8445  0.5398
  406MOL0     H54772   9.380   8.946  10.123 -0.5252 -0.1968 -1.0461
  406MOL0     H54773   9.389   8.792  10.210 -0.8945  1.8000  0.7904
  406MOL0     H54774   9.282   9.173  10.199  1.0152  0.5932  1.3161
  406MOL0     H54775   9.200   9.374  10.294  0.3042 -0.9473  3.8116
  406MOL0     H54776   9.128   9.490  10.442 -0.2628 -3.4622  0.4578
  406MOL0     H54777   9.015   9.536  10.295 -1.7104 -0.8069  0.5659
  406MOL0     H54778   8.861   9.619  10.487  0.4672  0.1419  0.7546
  406MOL0     H54779   8.983   9.601  10.604 -3.4880 -3.2946  0.0363
  406MOL0     H54780   8.983   9.829  10.542 -0.4820  0.9121 -0.5926
  406MOL0     H54781   8.978   9.800  10.375 -2.3394 -0.6562  0.8625
  406MOL0     H54782   9.206   9.712  10.363  1.1977 -2.1737  2.2387
  406MOL0     H54783   9.214   9.876  10.416  3.0214 -0.0080  1.1704
  406MOL0     H54784   9.295   9.633  10.536  1.9194  1.0945 -0.7926
  406MOL0     H54785   9.211   9.732  10.659 -2.8245 -0.7890 -0.8228
  406MOL0     H54786   9.429   9.850  10.472  0.0893  1.7423  0.9372
  406MOL0     H54787   9.390   9.905  10.634  1.4398  1.3292 -1.5323
  406MOL0     H54788   9.533   9.641  10.573  1.7290  0.3660 -0.4173
  406MOL0     H54789   9.521   9.711  10.730 -3.3753  1.0605  1.0904
  406MOL0     H54790   9.740   9.749  10.647 -2.3778 -0.8474  1.6133
  406MOL0     H54791   9.660   9.908  10.662 -3.2369 -0.5981  1.5831
  406MOL0     H54792   8.848   9.181  10.421  2.6731  1.7877  3.6932
  406MOL0     H54793   8.917   8.971  10.296 -0.4026 -0.1845  0.2168
  406MOL0     H54794   9.005   8.762   9.867  0.9792  0.8067  1.2903
  406MOL0     H54795   9.109   8.589   9.726 -1.4527  1.4735  1.3316
  406MOL0     H54796  10.350   8.801   9.174 -1.0414 -1.5495  1.4022
  406MOL0     H54797  10.589   8.913   9.165 -0.4774 -1.1316 -3.1088
  406MOL0     H54798  11.047   8.863   9.232 -3.1325  0.3284  0.4734
  406MOL0     H54799  11.265   8.927   9.279  0.2706 -0.9150  1.1457
  406MOL0     H54800  11.391   9.099   9.256 -3.5236 -1.1261  3.0328
  406MOL0     H54801  11.427   9.267   9.306 -2.2214  0.8210 -1.0305
  406MOL0     H54802  11.621   9.084   9.312  0.7494 -3.5454  2.2513
  406MOL0     H54803  11.562   9.019   9.456  2.6445  0.9039  2.6201
  406MOL0     H54804  11.580   9.260   9.556 -5.0383  0.2642 -3.2886
  406MOL0     H54805  11.655   9.316   9.407 -2.0253  1.5373  0.0615
  406MOL0     H54806  11.761   9.108   9.613  0.4993  1.0396  0.2473
  406MOL0     H54807  11.825   9.267   9.568 -0.0449  0.0126 -0.9629
  406MOL0     H54808  11.970   8.986   9.280 -0.4748 -0.3886  0.1146
  406MOL0     H54809  11.126   9.212   9.578 -2.8264 -0.2431  0.7672
  406MOL0     H54810  10.898   9.134   9.534  1.6034  1.0357  1.5687
  407MOL0     O54811   1.084   6.515   7.410 -0.1449  0.5083 -0.8419
  407MOL0     C54812   1.034   6.627   7.420 -0.2357  0.4631 -0.8216
  407MOL0     O54813   0.905   6.649   7.470  0.3488  0.1482 -0.7378
  407MOL0     C54814   0.849   6.549   7.542  0.3362  0.5120  0.0769
  407MOL0     C54815   0.881   6.518   7.676  0.0781  0.4364 -0.0424
  407MOL0     C54816   0.810   6.419   7.744  0.0755  0.0784  0.6940
  407MOL0     C54817   0.700   6.353   7.682  0.5924 -0.0383  0.2626
  407MOL0     O54818   0.644   6.248   7.743  0.1388  0.3415 -0.1625
  407MOL0     C54819   0.524   6.181   7.693  0.6070 -0.5337 -0.3425
  407MOL0     C54820   0.460   6.102   7.806  0.3844  0.1155 -0.2268
  407MOL0     C54821   0.320   6.060   7.769 -0.0282  1.1800 -0.3970
  407MOL0     C54822   0.261   5.973   7.877  0.2312  0.2925 -0.3356
  407MOL0     C54823   0.127   5.910   7.845 -0.2225 -0.8054  0.3474
  407MOL0     C54824   0.056   5.867   7.972 -0.4827  0.1434  0.2826
  407MOL0     C54825  -0.088   5.812   7.959  0.6362  0.4781  0.2339
  407MOL0     C54826  -0.182   5.919   7.889  0.3766 -0.1217 -0.0139
  407MOL0     N54827  -0.320   5.865   7.870 -0.3538  0.4252 -0.5160
  407MOL0     C54828  -0.397   5.880   7.756 -0.1917 -0.6603  0.4341
  407MOL0     C54829  -0.504   5.801   7.772 -0.3564  0.1685  0.1448
  407MOL0     C54830  -0.621   5.787   7.675  0.8385 -0.9065  0.4309
  407MOL0     C54831  -0.682   5.921   7.624  0.3854 -0.1454 -0.3842
  407MOL0     C54832  -0.796   5.876   7.528  0.1915 -0.8857 -0.2626
  407MOL0     C54833  -0.860   6.003   7.472  0.0912 -0.2376  0.1291
  407MOL0     O54834  -0.923   6.078   7.575 -0.2293 -0.1786  0.2165
  407MOL0     C54835  -1.054   6.058   7.608  0.3481 -0.6517  0.3159
  407MOL0     C54836  -1.152   5.975   7.545  0.0150 -0.1638  0.8248
  407MOL0     C54837  -1.286   5.983   7.580  1.0500  0.1933 -1.0294
  407MOL0     C54838  -1.374   5.888   7.513 -0.0164 -0.7518  0.0508
  407MOL0     C54839  -1.330   6.073   7.686  0.1618 -0.6831 -0.3406
  407MOL0     C54840  -1.474   6.098   7.729 -0.4171  0.9182  0.1228
  407MOL0     O54841  -1.488   6.125   7.867 -0.1436  0.0430  0.1051
  407MOL0     C54842  -1.600   6.186   7.916  0.0363  0.5303 -0.2544
  407MOL0     C54843  -1.699   6.105   7.968  0.3266 -0.0906 -0.2403
  407MOL0     C54844  -1.810   6.168   8.023 -0.0444 -0.4404  0.2836
  407MOL0     C54845  -1.827   6.310   8.017  1.1699  0.2418  0.0729
  407MOL0     O54846  -1.938   6.366   8.088  0.0859 -0.8094  0.5621
  407MOL0     C54847  -1.932   6.508   8.136 -0.4882  0.1252 -0.6285
  407MOL0     C54848  -1.838   6.533   8.253  0.3457 -0.4228 -0.1541
  407MOL0     C54849  -1.838   6.676   8.302  0.2303 -0.7855 -1.2305
  407MOL0     C54850  -1.748   6.687   8.423 -0.0082 -0.1142  0.7673
  407MOL0     C54851  -1.771   6.821   8.490 -0.1443 -0.0425  0.5455
  407MOL0     C54852  -1.701   6.863   8.621 -0.0300 -0.0781 -0.2254
  407MOL0     C54853  -1.754   6.993   8.675 -0.1091  0.5291 -0.2269
  407MOL0     C54854  -1.722   7.112   8.585 -0.5108 -0.0941 -0.2634
  407MOL0    Cl54855  -1.819   7.261   8.635 -0.1624 -0.1743  0.1049
  407MOL0     C54856  -1.721   6.388   7.966  0.1619 -0.7503  0.0121
  407MOL0     C54857  -1.608   6.323   7.920 -0.2972  0.2450  0.4395
  407MOL0     O54858  -1.563   6.091   7.647  0.3209  0.3211  0.1994
  407MOL0     C54859  -1.227   6.138   7.759  0.5230 -0.5591  0.6836
  407MOL0     C54860  -1.100   6.135   7.723 -0.5354  1.2515  0.5090
  407MOL0     N54861  -0.490   5.743   7.896  0.0244  0.4411  0.0381
  407MOL0     N54862  -0.387   5.785   7.957 -0.3138  0.5448  0.4096
  407MOL0     C54863   0.657   6.397   7.556  0.5071 -0.5690  0.3370
  407MOL0     C54864   0.739   6.488   7.480 -0.9789  0.3175 -0.9315
  407MOL0     C54865   1.102   6.746   7.362 -0.1452  0.7556 -0.6956
  407MOL0     C54866   1.038   6.871   7.355 -0.5514 -0.9913 -0.0176
  407MOL0     C54867   1.103   6.985   7.305  0.0416  0.1502 -0.1212
  407MOL0     C54868   1.234   6.969   7.249  0.4464 -0.0442  0.7289
  407MOL0     O54869   1.273   7.077   7.170 -0.6229 -0.6422 -0.0739
  407MOL0     C54870   1.379   7.060   7.074 -0.0333 -0.1246  0.5381
  407MOL0     C54871   1.343   7.000   6.944  0.0371 -1.1035 -0.2827
  407MOL0     C54872   1.256   7.098   6.860  0.3026  0.5428  0.0535
  407MOL0     C54873   1.102   7.053   6.843 -0.5131  0.2941  0.8795
  407MOL0     C54874   1.013   7.170   6.868  1.7664  0.8695  0.8804
  407MOL0     C54875   0.930   7.256   6.888 -0.3935  0.5635 -0.5166
  407MOL0     C54876   1.304   6.849   7.268 -0.4543  0.3224  0.1362
  407MOL0     C54877   1.235   6.737   7.326 -0.3675  0.5932  0.4850
  407MOL0     H54878   0.964   6.571   7.720  1.3773  0.9883 -2.9494
  407MOL0     H54879   0.833   6.388   7.846  0.0162 -0.4748  0.5384
  407MOL0     H54880   0.451   6.256   7.659 -0.4489 -0.8137  1.2123
  407MOL0     H54881   0.555   6.120   7.608  0.7107  0.2653 -0.8927
  407MOL0     H54882   0.525   6.015   7.823  1.6218  1.1112  0.3423
  407MOL0     H54883   0.459   6.163   7.897  0.1553  0.1668 -0.2645
  407MOL0     H54884   0.254   6.145   7.748  0.2101  2.0299  1.9641
  407MOL0     H54885   0.327   6.007   7.674 -0.1280  2.4706 -1.1507
  407MOL0     H54886   0.318   5.883   7.903 -0.5533 -0.6771 -1.8432
  407MOL0     H54887   0.246   6.034   7.967 -4.1940 -0.6021 -0.2491
  407MOL0     H54888   0.055   5.974   7.794 -0.8162 -0.1497  1.9487
  407MOL0     H54889   0.144   5.830   7.773  3.9378 -0.0591  0.2200
  407MOL0     H54890   0.131   5.813   8.030 -2.2002 -4.0315 -0.9734
  407MOL0     H54891   0.032   5.958   8.026 -3.6424 -1.2805  1.5423
  407MOL0     H54892  -0.091   5.727   7.890 -0.4945  0.0368  0.7941
  407MOL0     H54893  -0.132   5.787   8.056 -2.6325 -0.9018 -1.4167
  407MOL0     H54894  -0.148   5.943   7.787 -0.9497  3.5357  0.2809
  407MOL0     H54895  -0.192   6.017   7.937  1.3108  1.5008 -2.8588
  407MOL0     H54896  -0.371   5.948   7.676 -2.8671 -0.2632 -0.2017
  407MOL0     H54897  -0.589   5.728   7.588  0.6038  1.8888 -1.7053
  407MOL0     H54898  -0.696   5.722   7.721 -0.6116  0.9935  0.8312
  407MOL0     H54899  -0.605   5.979   7.573  1.2274 -2.5655 -1.9963
  407MOL0     H54900  -0.727   5.972   7.711 -0.6560  0.2013 -1.1025
  407MOL0     H54901  -0.872   5.809   7.568 -1.6252  0.2473 -1.6462
  407MOL0     H54902  -0.749   5.823   7.445 -0.2000 -1.5221 -0.0799
  407MOL0     H54903  -0.930   5.980   7.391  1.2591  2.0361 -1.6655
  407MOL0     H54904  -0.787   6.060   7.414  0.3466 -1.2608 -0.5646
  407MOL0     H54905  -1.116   5.906   7.469  0.0393 -1.9967  2.4179
  407MOL0     H54906  -1.335   5.786   7.504  1.3443 -0.0901 -2.3001
  407MOL0     H54907  -1.472   5.883   7.561 -0.2818 -0.7215 -0.4845
  407MOL0     H54908  -1.375   5.915   7.407 -3.1140  0.8560  0.3624
  407MOL0     H54909  -1.699   5.997   7.975 -0.3620 -0.0051  2.8132
  407MOL0     H54910  -1.882   6.115   8.084  0.0680 -1.0763 -0.1285
  407MOL0     H54911  -1.908   6.574   8.053  2.3676  0.0005 -0.0137
  407MOL0     H54912  -2.034   6.532   8.169 -0.2999 -0.6745  0.6112
  407MOL0     H54913  -1.869   6.476   8.342  1.2237  2.7886  2.4070
  407MOL0     H54914  -1.739   6.505   8.218  0.0093 -0.4551 -1.1127
  407MOL0     H54915  -1.934   6.707   8.344  0.5672  0.9912 -1.7167
  407MOL0     H54916  -1.804   6.752   8.232  1.0431  2.8032  2.6800
  407MOL0     H54917  -1.768   6.609   8.497  1.6232 -1.8396 -0.5104
  407MOL0     H54918  -1.642   6.686   8.396 -0.4455  1.1993 -1.2340
  407MOL0     H54919  -1.880   6.834   8.496 -0.6399 -1.9906 -2.3543
  407MOL0     H54920  -1.734   6.885   8.409 -1.3261 -2.2930 -1.9461
  407MOL0     H54921  -1.720   6.790   8.700 -3.0621  0.7511 -0.0885
  407MOL0     H54922  -1.595   6.879   8.596 -0.2128  3.0287  0.5300
  407MOL0     H54923  -1.700   7.015   8.768 -0.8047  0.8274  0.1171
  407MOL0     H54924  -1.860   6.978   8.697  0.0506 -1.3116 -0.5709
  407MOL0     H54925  -1.759   7.089   8.484  0.7866 -0.7305 -0.6135
  407MOL0     H54926  -1.614   7.126   8.583 -0.6974  1.4598 -0.8596
  407MOL0     H54927  -1.718   6.496   7.971  1.2674 -0.8231  2.0513
  407MOL0     H54928  -1.526   6.384   7.884 -0.3398 -0.2928 -0.5927
  407MOL0     H54929  -1.264   6.190   7.847  0.0881 -1.1749  0.8697
  407MOL0     H54930  -1.021   6.181   7.782  0.8038  0.3508 -0.5156
  407MOL0     H54931   0.572   6.357   7.502 -0.5857  0.2245  1.3820
  407MOL0     H54932   0.709   6.506   7.378  4.8955 -1.8118 -3.4384
  407MOL0     H54933   0.938   6.886   7.395  0.4838 -0.0432  2.3637
  407MOL0     H54934   1.052   7.079   7.283  0.1910 -0.0674 -1.4845
  407MOL0     H54935   1.420   7.156   7.041  0.7770 -0.6719 -0.0785
  407MOL0     H54936   1.461   7.004   7.120 -0.8332 -0.9963  0.9396
  407MOL0     H54937   1.285   6.908   6.958 -0.7034 -1.1328 -2.8832
  407MOL0     H54938   1.432   6.972   6.887 -0.7537 -3.0517 -0.6716
  407MOL0     H54939   1.304   7.115   6.763 -0.7253  2.0537 -0.2283
  407MOL0     H54940   1.272   7.196   6.905  0.1026  0.3502  0.5513
  407MOL0     H54941   1.079   6.977   6.918  2.4549 -1.4351  0.1929
  407MOL0     H54942   1.101   7.014   6.741  0.4194  0.7235  0.6947
  407MOL0     H54943   0.860   7.337   6.891  0.1414  1.1159 -2.0744
  407MOL0     H54944   1.406   6.842   7.232 -0.2408 -1.2705  0.9732
  407MOL0     H54945   1.300   6.650   7.320 -0.2071  0.6868  0.8690
  408MOL0     O54946   7.080   6.242   6.287 -0.3634  0.4884 -0.3185
  408MOL0     C54947   7.113   6.361   6.285 -0.2407 -0.2893 -0.0451
  408MOL0     O54948   7.028   6.467   6.266  0.2149  0.4073  0.4864
  408MOL0     C54949   6.899   6.436   6.260  0.7782 -0.4457 -0.3502
  408MOL0     C54950   6.813   6.475   6.370 -0.2587 -0.9530  0.3813
  408MOL0     C54951   6.674   6.467   6.354 -0.1993  0.2616 -0.5774
  408MOL0     C54952   6.623   6.413   6.237 -0.1399 -0.3048 -0.5573
  408MOL0     O54953   6.486   6.418   6.210  0.2532 -0.6998  0.1291
  408MOL0     C54954   6.391   6.482   6.307  0.4035 -0.1189 -0.6994
  408MOL0     C54955   6.250   6.461   6.260 -0.6809  0.4472  0.4811
  408MOL0     C54956   6.139   6.545   6.330 -0.1010 -0.0600  0.0829
  408MOL0     C54957   6.069   6.468   6.438  0.6986 -0.1884 -0.5306
  408MOL0     C54958   5.952   6.559   6.506 -0.6293 -0.3317 -0.0325
  408MOL0     C54959   5.861   6.470   6.597  0.8439  0.0986  0.3814
  408MOL0     C54960   5.742   6.546   6.666  0.6231 -0.3923 -0.0143
  408MOL0     C54961   5.661   6.440   6.749  0.3019  0.2684 -0.2250
  408MOL0     N54962   5.570   6.360   6.662 -0.5177  0.0317  0.0916
  408MOL0     C54963   5.463   6.407   6.590  0.8180  0.7028  0.2425
  408MOL0     C54964   5.425   6.300   6.525  0.2594  0.4015  0.1419
  408MOL0     C54965   5.296   6.289   6.435 -0.6721  0.3283 -0.4886
  408MOL0     C54966   5.228   6.155   6.453  0.2368 -0.5464 -0.0422
  408MOL0     C54967   5.178   6.137   6.597 -0.8699  1.0385  0.2135
  408MOL0     C54968   5.082   6.015   6.613 -0.0923 -0.3484  1.2920
  408MOL0     O54969   4.979   6.038   6.520 -1.0514  0.0338 -0.8097
  408MOL0     C54970   4.851   5.984   6.541  0.3256 -0.5144  0.2190
  408MOL0     C54971   4.753   6.070   6.591 -0.5772  0.3876 -0.0718
  408MOL0     C54972   4.628   6.020   6.615 -0.0925  0.4260  0.3235
  408MOL0     C54973   4.529   6.118   6.666  0.3618  0.6410  1.0366
  408MOL0     C54974   4.601   5.877   6.588 -0.1469  0.2359 -0.0902
  408MOL0     C54975   4.464   5.819   6.619 -0.7897  0.5866  0.9041
  408MOL0     O54976   4.358   5.904   6.607  0.2028  0.5306 -0.3195
  408MOL0     C54977   4.233   5.872   6.668  0.4345 -0.6028 -0.1847
  408MOL0     C54978   4.187   5.946   6.775  0.1706 -0.2121  0.4067
  408MOL0     C54979   4.064   5.911   6.843  0.6263 -0.3057 -0.1594
  408MOL0     C54980   3.996   5.795   6.805 -0.3102 -1.1284  0.4393
  408MOL0     O54981   3.894   5.758   6.890 -0.2838 -0.1373  0.2094
  408MOL0     C54982   3.793   5.680   6.847 -0.7114 -0.3211  0.0221
  408MOL0     C54983   3.704   5.659   6.973 -0.0196  0.3548 -0.4695
  408MOL0     C54984   3.596   5.548   6.946  0.1224  0.4025  0.6663
  408MOL0     C54985   3.520   5.519   7.077 -0.0831  0.0615 -0.2472
  408MOL0     C54986   3.397   5.445   7.050 -0.3369  0.7317  0.5881
  408MOL0     C54987   3.288   5.540   6.984  0.1081  0.0095  0.3375
  408MOL0     C54988   3.144   5.485   7.009 -0.5660  1.0393 -0.3269
  408MOL0     C54989   3.031   5.569   6.950  0.4518 -0.0746  0.1909
  408MOL0    Cl54990   2.875   5.515   7.008  0.3307 -0.5341 -0.0642
  408MOL0     C54991   4.041   5.716   6.705 -0.4951 -0.3492 -0.2240
  408MOL0     C54992   4.162   5.753   6.635  0.0100  1.0293 -0.1669
  408MOL0     O54993   4.458   5.706   6.668  0.4125  0.8095 -0.4681
  408MOL0     C54994   4.704   5.799   6.544  0.4784  0.7323 -0.1624
  408MOL0     C54995   4.830   5.850   6.521  0.4021 -0.1284  0.3454
  408MOL0     N54996   5.494   6.191   6.571 -0.4049  0.1184  0.2193
  408MOL0     N54997   5.591   6.232   6.633 -0.7747  0.3441  0.2322
  408MOL0     C54998   6.704   6.364   6.139  0.0104 -0.2474 -1.1146
  408MOL0     C54999   6.842   6.374   6.151 -0.0580 -0.4771  0.1870
  408MOL0     C55000   7.254   6.394   6.286  0.0325 -0.0091  0.3167
  408MOL0     C55001   7.289   6.528   6.294  0.1199 -0.2032 -0.7236
  408MOL0     C55002   7.418   6.570   6.269 -0.6631 -0.1789  0.5780
  408MOL0     C55003   7.509   6.479   6.228  0.6597  0.2481 -0.3774
  408MOL0     O55004   7.627   6.535   6.178  0.6824  0.2761 -0.5575
  408MOL0     C55005   7.739   6.458   6.137  0.4866 -0.0273  0.1577
  408MOL0     C55006   7.859   6.547   6.144 -0.0152  1.3717 -0.2442
  408MOL0     C55007   7.874   6.644   6.272 -0.4184  0.7721 -0.4990
  408MOL0     C55008   8.002   6.730   6.264 -0.1005  0.2508  0.0932
  408MOL0     C55009   8.086   6.734   6.379 -0.5882  0.0243  0.1135
  408MOL0     C55010   8.144   6.730   6.481  0.3392 -0.4738  0.3966
  408MOL0     C55011   7.480   6.341   6.224 -0.7684  1.1924  0.7680
  408MOL0     C55012   7.350   6.300   6.257 -0.0946 -0.2365  0.3832
  408MOL0     H55013   6.863   6.514   6.458 -1.8766 -1.0451  1.3832
  408MOL0     H55014   6.601   6.508   6.423 -1.8858 -1.8902 -0.9802
  408MOL0     H55015   6.388   6.439   6.407 -0.9199 -0.5808 -0.9196
  408MOL0     H55016   6.429   6.585   6.305  1.2313 -0.3592  1.2529
  408MOL0     H55017   6.248   6.484   6.153 -0.3452 -2.1776 -0.1373
  408MOL0     H55018   6.230   6.354   6.270  3.0857 -0.3931  0.4342
  408MOL0     H55019   6.186   6.635   6.371  1.2942 -1.3169  1.3760
  408MOL0     H55020   6.072   6.591   6.258 -1.1870 -1.9700 -0.1953
  408MOL0     H55021   6.024   6.379   6.394  0.2210 -0.7358  1.0282
  408MOL0     H55022   6.146   6.433   6.508 -1.3304 -0.3673  1.7198
  408MOL0     H55023   6.005   6.635   6.564 -2.2492 -0.2998  1.4630
  408MOL0     H55024   5.882   6.600   6.432 -1.8190  0.1229  1.3039
  408MOL0     H55025   5.819   6.395   6.530  1.0820  1.3866 -1.2796
  408MOL0     H55026   5.922   6.434   6.681  3.0419  1.8931 -0.3402
  408MOL0     H55027   5.791   6.612   6.738  0.2486 -0.0255 -0.0868
  408MOL0     H55028   5.675   6.604   6.601 -1.5397 -3.1211 -0.4226
  408MOL0     H55029   5.612   6.481   6.838 -2.4927 -4.0487  0.5107
  408MOL0     H55030   5.723   6.362   6.795 -2.5076 -1.5704  0.6745
  408MOL0     H55031   5.427   6.509   6.583  0.3233  0.5684  0.6802
  408MOL0     H55032   5.232   6.372   6.467 -1.7379  0.9562 -3.8471
  408MOL0     H55033   5.331   6.298   6.331  0.7227 -3.3757 -0.5150
  408MOL0     H55034   5.298   6.073   6.434  0.3857 -0.6520  0.9077
  408MOL0     H55035   5.153   6.146   6.374 -2.1064  0.3385  1.9692
  408MOL0     H55036   5.120   6.225   6.624 -0.5804  0.6469  2.3339
  408MOL0     H55037   5.258   6.137   6.671 -0.0962  2.4013 -0.5912
  408MOL0     H55038   5.036   6.016   6.712  0.7377 -4.2155  1.8519
  408MOL0     H55039   5.132   5.919   6.594 -0.3482 -0.1629 -0.5720
  408MOL0     H55040   4.786   6.168   6.623  4.2143 -1.4922  1.6879
  408MOL0     H55041   4.448   6.142   6.596  2.6865  0.3561 -1.9413
  408MOL0     H55042   4.486   6.064   6.752  2.8271 -2.0819  0.7267
  408MOL0     H55043   4.572   6.216   6.688 -0.1128  1.2356 -0.5327
  408MOL0     H55044   4.247   6.031   6.807  1.9086  0.2197 -3.4911
  408MOL0     H55045   4.039   5.966   6.933  1.0993 -2.7729  1.5624
  408MOL0     H55046   3.730   5.729   6.772  1.9223  2.5243 -0.5088
  408MOL0     H55047   3.822   5.584   6.804  2.9559  2.0203 -3.3791
  408MOL0     H55048   3.773   5.620   7.048 -2.5195  0.2670  1.9437
  408MOL0     H55049   3.657   5.748   7.015  1.2680  1.8816 -2.1105
  408MOL0     H55050   3.642   5.457   6.906  0.4646  0.7064  0.3565
  408MOL0     H55051   3.514   5.584   6.884 -0.4685 -0.0802  1.1605
  408MOL0     H55052   3.587   5.452   7.131  1.4561  2.2053  0.6055
  408MOL0     H55053   3.498   5.610   7.133  1.2677  0.3379 -0.1428
  408MOL0     H55054   3.361   5.407   7.147  0.8025  0.9436  1.1128
  408MOL0     H55055   3.423   5.354   6.995  0.5013  1.2108  0.1834
  408MOL0     H55056   3.301   5.642   7.021 -1.3116  0.0986  0.6787
  408MOL0     H55057   3.321   5.533   6.880 -3.7059 -0.5066 -1.0178
  408MOL0     H55058   3.125   5.469   7.116  0.8572  0.4949 -0.1334
  408MOL0     H55059   3.144   5.383   6.969  1.5635  1.2576 -1.0159
  408MOL0     H55060   3.025   5.559   6.842 -2.9918 -0.4066  0.3207
  408MOL0     H55061   3.028   5.676   6.974 -3.7825  0.2407 -1.0176
  408MOL0     H55062   3.996   5.621   6.677 -0.7553 -0.4792  0.6050
  408MOL0     H55063   4.196   5.693   6.551 -1.9182  2.0063 -1.7470
  408MOL0     H55064   4.689   5.693   6.526 -0.9540  0.0336  4.0321
  408MOL0     H55065   4.907   5.780   6.489 -0.3348 -1.0195  0.4942
  408MOL0     H55066   6.658   6.346   6.042 -0.2119 -0.8752 -0.8924
  408MOL0     H55067   6.910   6.333   6.077 -1.3970 -2.5628  0.0268
  408MOL0     H55068   7.212   6.596   6.329  0.6238 -0.7852  1.6804
  408MOL0     H55069   7.432   6.677   6.258  1.7111 -0.5113 -0.0851
  408MOL0     H55070   7.751   6.368   6.198 -0.1750  0.0227  0.3679
  408MOL0     H55071   7.729   6.435   6.031  0.0337  2.2227 -0.3329
  408MOL0     H55072   7.847   6.603   6.051 -3.2889  1.1082 -0.0965
  408MOL0     H55073   7.954   6.495   6.135  0.2292  1.2374  2.2985
  408MOL0     H55074   7.882   6.588   6.365 -0.8814  0.4250 -0.6610
  408MOL0     H55075   7.791   6.715   6.271 -0.3734  0.8310 -0.1121
  408MOL0     H55076   7.980   6.833   6.233 -0.5821 -0.7330 -3.1394
  408MOL0     H55077   8.058   6.675   6.188  1.5065 -2.6703  3.1213
  408MOL0     H55078   8.181   6.742   6.581 -0.0755  0.3388  0.4577
  408MOL0     H55079   7.553   6.266   6.197 -0.5792  1.4849  0.4632
  408MOL0     H55080   7.312   6.199   6.246 -2.2165  0.6544 -0.9111
  409MOL0     O55081   6.964   5.794   3.227  0.1686  0.0676 -0.3207
  409MOL0     C55082   7.055   5.883   3.237  0.6077  0.7049 -0.0090
  409MOL0     O55083   7.036   6.014   3.239  0.5525 -0.5098 -0.5002
  409MOL0     C55084   6.901   6.049   3.239 -1.0794  0.0821  0.1980
  409MOL0     C55085   6.851   6.113   3.353  0.1594 -0.4104  0.2445
  409MOL0     C55086   6.725   6.161   3.355  0.3842 -0.4017  0.2828
  409MOL0     C55087   6.640   6.160   3.241 -0.5103 -0.9637 -0.5976
  409MOL0     O55088   6.508   6.213   3.239  0.2489  0.6347 -0.3840
  409MOL0     C55089   6.467   6.292   3.358  0.0336 -0.5022 -0.4228
  409MOL0     C55090   6.336   6.365   3.329 -0.0733  0.2323  0.1203
  409MOL0     C55091   6.272   6.427   3.453 -0.3038  0.2931  0.3542
  409MOL0     C55092   6.150   6.517   3.427 -0.2046  0.6428  0.0501
  409MOL0     C55093   6.113   6.585   3.565  1.0758 -0.2358 -0.2203
  409MOL0     C55094   5.972   6.651   3.565  0.1815 -0.5334 -0.3668
  409MOL0     C55095   5.951   6.769   3.468 -0.1558 -0.1837 -0.1723
  409MOL0     C55096   5.809   6.813   3.469 -0.4307 -0.5032  0.1445
  409MOL0     N55097   5.781   6.925   3.375  0.1534 -1.0847 -0.3655
  409MOL0     C55098   5.705   7.035   3.391  0.1008 -0.4263  0.1667
  409MOL0     C55099   5.722   7.096   3.272 -0.4940 -0.5042 -0.3014
  409MOL0     C55100   5.665   7.231   3.235 -0.3958  0.3636 -0.6870
  409MOL0     C55101   5.512   7.249   3.246  0.7657  0.3542  0.3358
  409MOL0     C55102   5.464   7.396   3.242  0.1754  0.3644  0.1672
  409MOL0     C55103   5.314   7.414   3.270 -0.6634 -0.1411  0.3307
  409MOL0     O55104   5.231   7.334   3.180 -0.7079  0.7031 -0.6162
  409MOL0     C55105   5.116   7.280   3.234  0.0612 -0.3184  0.6973
  409MOL0     C55106   5.120   7.209   3.356  0.7491  0.5181 -0.0179
  409MOL0     C55107   5.010   7.133   3.399 -0.7761  0.0347  0.0261
  409MOL0     C55108   5.032   7.056   3.530 -0.6041 -0.7643  0.2845
  409MOL0     C55109   4.887   7.136   3.328 -0.7474 -0.1262  0.5448
  409MOL0     C55110   4.768   7.057   3.363 -0.4156 -0.8996  0.6924
  409MOL0     O55111   4.668   7.047   3.265  0.7620 -0.0042 -0.7391
  409MOL0     C55112   4.548   6.984   3.303 -0.3612 -0.0062 -0.9090
  409MOL0     C55113   4.492   6.991   3.427 -0.1152  0.5582  0.1319
  409MOL0     C55114   4.363   6.932   3.450  0.1182 -0.0919 -0.7011
  409MOL0     C55115   4.296   6.856   3.354 -0.2274  0.9440 -0.0682
  409MOL0     O55116   4.174   6.795   3.367  0.1165 -0.5336 -0.1264
  409MOL0     C55117   4.085   6.838   3.469  1.2972  0.2956 -0.7717
  409MOL0     C55118   3.953   6.753   3.451  0.1490  0.1658  0.4231
  409MOL0     C55119   3.857   6.776   3.566  0.0692  0.3903 -0.1859
  409MOL0     C55120   3.774   6.906   3.551 -0.4584  0.3783  0.0248
  409MOL0     C55121   3.835   7.033   3.605 -0.5312  0.0072 -0.3993
  409MOL0     C55122   3.730   7.142   3.627  0.3854 -0.3172  0.2689
  409MOL0     C55123   3.793   7.258   3.711  1.1246  0.0276 -0.2501
  409MOL0     C55124   3.693   7.368   3.722 -0.5049  0.0747 -0.1318
  409MOL0    Cl55125   3.744   7.493   3.831 -0.4953  0.2877 -0.2725
  409MOL0     C55126   4.361   6.838   3.230 -0.0082  0.3844  0.1287
  409MOL0     C55127   4.481   6.905   3.209  0.1051 -0.4641  0.0674
  409MOL0     O55128   4.773   6.993   3.469  0.6653 -0.6095  0.2872
  409MOL0     C55129   4.889   7.201   3.199  0.9510  0.1145  0.2458
  409MOL0     C55130   5.007   7.265   3.150 -0.4038 -0.0486 -0.2350
  409MOL0     N55131   5.783   7.011   3.180  0.2468 -0.4989 -0.2898
  409MOL0     N55132   5.834   6.922   3.252 -0.0391 -0.0161 -0.0625
  409MOL0     C55133   6.686   6.098   3.125 -0.1868 -0.8466  0.0314
  409MOL0     C55134   6.820   6.048   3.124  0.1062  0.7779  0.7114
  409MOL0     C55135   7.198   5.849   3.246 -0.1818 -0.1042  0.4408
  409MOL0     C55136   7.291   5.946   3.275 -0.8658 -0.1938  0.0323
  409MOL0     C55137   7.424   5.915   3.290 -0.2565 -0.3034 -0.3577
  409MOL0     C55138   7.469   5.785   3.270  1.4249 -0.4728 -0.0660
  409MOL0     O55139   7.600   5.743   3.285 -0.2047  0.4123  0.4409
  409MOL0     C55140   7.696   5.807   3.202 -0.4058 -1.0298  0.3657
  409MOL0     C55141   7.794   5.895   3.266 -0.3598 -0.1740 -0.3327
  409MOL0     C55142   7.876   5.838   3.382 -0.4615  0.4200  0.9993
  409MOL0     C55143   7.917   5.940   3.492 -0.1280 -0.2147  0.1097
  409MOL0     C55144   8.011   6.037   3.442  0.0604  0.7179  0.1836
  409MOL0     C55145   8.094   6.108   3.389 -0.0491 -0.5068  0.7361
  409MOL0     C55146   7.379   5.686   3.229  0.5047 -0.3477  0.0346
  409MOL0     C55147   7.249   5.722   3.219  0.2915  0.0010  1.3443
  409MOL0     H55148   6.920   6.113   3.437 -0.3715 -1.0888  0.7026
  409MOL0     H55149   6.691   6.193   3.453  0.9367 -2.8202  1.3577
  409MOL0     H55150   6.443   6.224   3.441  0.0158  0.2413  0.1861
  409MOL0     H55151   6.546   6.366   3.373 -0.5096 -0.1609  0.8802
  409MOL0     H55152   6.354   6.450   3.263 -0.2564 -0.5111 -0.8992
  409MOL0     H55153   6.265   6.295   3.284  0.1261 -0.4943  0.9023
  409MOL0     H55154   6.238   6.344   3.515  0.8686 -0.5700 -0.1351
  409MOL0     H55155   6.348   6.484   3.508  0.4450  0.2088 -0.5659
  409MOL0     H55156   6.180   6.588   3.349  1.6503  0.7406  0.7923
  409MOL0     H55157   6.073   6.453   3.383 -0.0701 -0.2379  1.0579
  409MOL0     H55158   6.114   6.507   3.642  2.8446 -0.5992 -0.5909
  409MOL0     H55159   6.186   6.657   3.602  2.5409 -2.7992  2.2809
  409MOL0     H55160   5.897   6.571   3.564  0.5644 -0.9328  0.9220
  409MOL0     H55161   5.971   6.683   3.670  5.1137 -2.0317  0.4231
  409MOL0     H55162   6.016   6.854   3.488  1.2957 -1.4711  0.7519
  409MOL0     H55163   5.969   6.734   3.366 -0.8004  0.6411 -0.5878
  409MOL0     H55164   5.792   6.845   3.572  2.8369  0.8501  0.3781
  409MOL0     H55165   5.742   6.732   3.440  0.9685 -1.2057 -1.2670
  409MOL0     H55166   5.663   7.075   3.482  0.3265 -1.0815  0.5659
  409MOL0     H55167   5.709   7.312   3.294  0.7330 -0.3198 -0.5553
  409MOL0     H55168   5.703   7.254   3.135 -0.0929 -0.0540 -0.6687
  409MOL0     H55169   5.480   7.196   3.336 -1.1969  0.7675 -0.0721
  409MOL0     H55170   5.464   7.195   3.164  0.1048 -1.4539  1.8418
  409MOL0     H55171   5.475   7.431   3.139  0.0446 -3.2525 -1.2292
  409MOL0     H55172   5.521   7.459   3.310 -1.5571  3.7743 -1.3034
  409MOL0     H55173   5.289   7.520   3.259  1.7170  0.2455 -2.5264
  409MOL0     H55174   5.310   7.397   3.378  0.3067 -0.2856  0.3505
  409MOL0     H55175   5.207   7.209   3.421  0.9900 -4.3173 -0.0309
  409MOL0     H55176   4.980   7.106   3.612 -1.2560  1.6124 -1.4570
  409MOL0     H55177   5.013   6.949   3.517  1.2873 -1.3161  1.5659
  409MOL0     H55178   5.141   7.067   3.541 -0.8461 -0.1093  2.3363
  409MOL0     H55179   4.539   7.051   3.504  1.6466 -2.1983  1.3610
  409MOL0     H55180   4.307   6.932   3.543 -1.3764 -2.4074 -1.4867
  409MOL0     H55181   4.126   6.817   3.568  4.3224 -2.8102 -2.4923
  409MOL0     H55182   4.065   6.944   3.458  1.4231  0.2939 -1.0104
  409MOL0     H55183   3.905   6.777   3.356 -1.3131  2.1274  1.5752
  409MOL0     H55184   3.970   6.645   3.456 -0.5174  0.0996  1.5668
  409MOL0     H55185   3.916   6.766   3.658  0.6408 -5.0224 -0.8193
  409MOL0     H55186   3.790   6.691   3.554  1.2972 -0.4670 -1.0719
  409MOL0     H55187   3.730   6.918   3.451 -0.0406 -0.4449 -0.2679
  409MOL0     H55188   3.686   6.904   3.615 -0.1935  2.7761  0.5844
  409MOL0     H55189   3.895   7.070   3.521  0.1218  1.4754  0.6625
  409MOL0     H55190   3.896   7.014   3.694  0.7597  0.0652 -1.2458
  409MOL0     H55191   3.699   7.186   3.532  0.9778 -1.1881 -0.3542
  409MOL0     H55192   3.641   7.100   3.675 -0.0157  0.2561  0.0282
  409MOL0     H55193   3.887   7.288   3.663  1.2030 -2.5306 -1.8534
  409MOL0     H55194   3.808   7.225   3.815  2.6964  1.7197  0.1225
  409MOL0     H55195   3.598   7.331   3.762 -1.2036  2.1883  0.3126
  409MOL0     H55196   3.665   7.409   3.624  2.3657 -1.2361 -1.6216
  409MOL0     H55197   4.329   6.763   3.159 -0.5589  1.7544 -1.1385
  409MOL0     H55198   4.529   6.895   3.112  0.6942  2.1881  0.0361
  409MOL0     H55199   4.792   7.216   3.154  0.8489 -0.9822  0.0932
  409MOL0     H55200   5.009   7.320   3.056 -0.9895  0.6534  0.1577
  409MOL0     H55201   6.624   6.093   3.036  0.3579 -0.4591 -0.3763
  409MOL0     H55202   6.855   6.002   3.032 -2.1192  2.2469 -0.9675
  409MOL0     H55203   7.263   6.048   3.302 -1.0123 -0.4026  0.7052
  409MOL0     H55204   7.498   5.979   3.337 -0.7488 -1.0030  1.4532
  409MOL0     H55205   7.750   5.719   3.166 -0.5775 -0.4043 -1.5447
  409MOL0     H55206   7.649   5.852   3.114 -1.0867 -0.9127  0.7874
  409MOL0     H55207   7.740   5.986   3.294 -1.9424 -1.3257  0.5232
  409MOL0     H55208   7.868   5.923   3.190 -0.6949 -0.2759 -0.7025
  409MOL0     H55209   7.962   5.788   3.337 -1.0921 -1.2813  1.6415
  409MOL0     H55210   7.819   5.755   3.423  1.2048 -1.4638 -0.3396
  409MOL0     H55211   7.971   5.888   3.572  1.1154  1.1374  0.1869
  409MOL0     H55212   7.829   5.993   3.531 -0.2452 -0.1808 -0.2025
  409MOL0     H55213   8.174   6.143   3.328  1.9338 -2.2015  2.2254
  409MOL0     H55214   7.421   5.587   3.213 -1.5395 -1.4365  0.9832
  409MOL0     H55215   7.179   5.641   3.200 -1.2161  1.2496  1.3431
  410MOL0     O55216   4.186   7.252   3.746 -0.5454 -0.2908  0.3114
  410MOL0     C55217   4.297   7.205   3.740  0.4546  0.7455  0.0886
  410MOL0     O55218   4.324   7.086   3.795 -0.2993  0.1443 -0.3954
  410MOL0     C55219   4.240   7.000   3.867 -1.1673 -0.9650 -0.6294
  410MOL0     C55220   4.104   7.020   3.898  0.6680  0.1770  0.3662
  410MOL0     C55221   4.032   6.918   3.953  0.5410 -0.2007  0.6926
  410MOL0     C55222   4.095   6.795   3.995  1.2186 -0.0802  0.7063
  410MOL0     O55223   4.005   6.708   4.066 -0.0078 -0.2083  0.1413
  410MOL0     C55224   4.064   6.611   4.156  1.2718  0.0829 -0.3673
  410MOL0     C55225   4.023   6.649   4.302 -0.6709 -0.1587 -0.4601
  410MOL0     C55226   4.098   6.762   4.363 -0.2433  0.2573 -0.1372
  410MOL0     C55227   4.065   6.765   4.513 -0.1928 -0.7453  0.2965
  410MOL0     C55228   4.094   6.908   4.566  0.1972 -0.0607 -0.4786
  410MOL0     C55229   4.241   6.946   4.527  0.8543  0.1707 -0.1310
  410MOL0     C55230   4.310   7.062   4.601  0.2113  0.0813  0.0119
  410MOL0     C55231   4.353   7.011   4.741 -0.3568  0.5052 -0.1045
  410MOL0     N55232   4.444   7.112   4.800 -0.1706 -0.2174 -0.0521
  410MOL0     C55233   4.567   7.166   4.766  0.0459  0.2454 -0.1440
  410MOL0     C55234   4.609   7.243   4.866 -0.2722  0.1586 -0.3101
  410MOL0     C55235   4.734   7.324   4.876 -0.0504  0.3170  0.1238
  410MOL0     C55236   4.844   7.252   4.795 -0.5155 -0.0942  0.6925
  410MOL0     C55237   4.990   7.291   4.833  0.2613 -0.6599 -0.7398
  410MOL0     C55238   5.083   7.209   4.747  0.2299  0.0633 -0.2226
  410MOL0     O55239   5.078   7.071   4.778  0.3433  0.6011  0.7882
  410MOL0     C55240   5.135   6.980   4.689 -0.0618 -0.0384 -0.2190
  410MOL0     C55241   5.096   6.846   4.702 -0.4348  0.2721  0.8324
  410MOL0     C55242   5.123   6.744   4.602 -0.4026  0.8358 -0.2307
  410MOL0     C55243   5.049   6.614   4.625 -0.4147 -0.3007 -0.1640
  410MOL0     C55244   5.205   6.777   4.494 -0.8106  0.0502 -0.3333
  410MOL0     C55245   5.234   6.685   4.393  0.1523 -0.4154 -0.2754
  410MOL0     O55246   5.356   6.701   4.336  0.4952 -1.1278  0.3334
  410MOL0     C55247   5.379   6.632   4.220 -0.8637  0.4732  1.2780
  410MOL0     C55248   5.293   6.615   4.107  0.2261  0.0200 -0.0516
  410MOL0     C55249   5.321   6.528   4.000  0.5259  1.4455  0.1587
  410MOL0     C55250   5.438   6.457   4.003 -0.2073  0.5951 -0.0468
  410MOL0     O55251   5.475   6.349   3.921  0.7714 -0.2578  0.3803
  410MOL0     C55252   5.380   6.318   3.813 -0.2701 -0.5054  0.6273
  410MOL0     C55253   5.423   6.420   3.705  1.1972 -0.2829  1.0688
  410MOL0     C55254   5.566   6.422   3.660  0.0790  0.8267  0.4836
  410MOL0     C55255   5.604   6.285   3.617 -0.1866  0.0215 -0.5309
  410MOL0     C55256   5.742   6.281   3.574  1.4240 -0.1859  0.4343
  410MOL0     C55257   5.782   6.140   3.542  0.0021  0.7049  0.0751
  410MOL0     C55258   5.921   6.148   3.469  0.3922 -0.1380  1.0514
  410MOL0     C55259   5.982   6.010   3.480  0.6411  0.9399  0.0305
  410MOL0    Cl55260   6.046   5.986   3.643  0.3133  0.0189 -0.2816
  410MOL0     C55261   5.526   6.480   4.112 -0.2646  0.7941 -0.5953
  410MOL0     C55262   5.499   6.562   4.220 -0.7952 -0.7105  0.0293
  410MOL0     O55263   5.146   6.608   4.351 -0.1841  0.1410 -0.1082
  410MOL0     C55264   5.255   6.909   4.479  0.6878 -0.4662  0.7134
  410MOL0     C55265   5.215   7.011   4.576 -0.2628 -0.7199  0.6010
  410MOL0     N55266   4.512   7.231   4.962  0.0135  0.4636 -0.1289
  410MOL0     N55267   4.414   7.162   4.918 -0.2292  0.2801  0.1296
  410MOL0     C55268   4.224   6.775   3.966  0.2875  0.3612 -0.5569
  410MOL0     C55269   4.300   6.873   3.896  0.2508 -0.8338  0.3256
  410MOL0     C55270   4.397   7.271   3.661  0.1493  0.4858  0.9543
  410MOL0     C55271   4.366   7.362   3.557  1.2023 -0.0932 -0.2528
  410MOL0     C55272   4.458   7.415   3.470 -0.1042 -0.5343  0.3018
  410MOL0     C55273   4.583   7.370   3.469 -0.6625  0.1254  0.0656
  410MOL0     O55274   4.676   7.406   3.373 -0.0928  0.7404 -0.8278
  410MOL0     C55275   4.734   7.538   3.400  0.4992  0.2817  0.4319
  410MOL0     C55276   4.884   7.540   3.433 -0.4498  0.2777 -0.6001
  410MOL0     C55277   4.936   7.679   3.396 -0.4751  0.2771  0.5149
  410MOL0     C55278   5.069   7.715   3.459 -0.1481 -0.4802 -0.1033
  410MOL0     C55279   5.057   7.789   3.589 -0.5042  0.5036 -0.2320
  410MOL0     C55280   5.056   7.847   3.696  0.0927 -0.6999  0.4073
  410MOL0     C55281   4.627   7.283   3.563 -0.0006  0.2599 -0.1907
  410MOL0     C55282   4.536   7.236   3.664  0.0338  0.1806  0.5123
  410MOL0     H55283   4.044   7.107   3.875  0.5782 -0.0096 -0.1420
  410MOL0     H55284   3.927   6.939   3.975  0.0017 -3.1328  1.3971
  410MOL0     H55285   4.021   6.512   4.143 -0.6572  0.7870  0.2909
  410MOL0     H55286   4.173   6.600   4.156  1.2367 -0.2544 -0.8183
  410MOL0     H55287   3.915   6.665   4.305 -0.9155 -1.4963 -1.1397
  410MOL0     H55288   4.052   6.558   4.356 -1.4883  0.5043  1.1710
  410MOL0     H55289   4.205   6.741   4.354 -0.5549 -0.8268 -1.6417
  410MOL0     H55290   4.081   6.855   4.309 -0.0572 -1.0656 -2.6622
  410MOL0     H55291   3.957   6.747   4.522 -0.3208 -0.2472 -0.2146
  410MOL0     H55292   4.111   6.692   4.581  0.9445 -1.9734 -1.6960
  410MOL0     H55293   4.030   6.987   4.525 -1.4060  0.0427  1.9809
  410MOL0     H55294   4.078   6.901   4.674  1.9529 -2.4593 -0.2879
  410MOL0     H55295   4.299   6.856   4.546  1.1608 -0.0074 -1.7611
  410MOL0     H55296   4.248   6.968   4.420 -3.5988 -1.7045 -1.0287
  410MOL0     H55297   4.397   7.103   4.548  2.0033 -1.0231  1.9882
  410MOL0     H55298   4.232   7.139   4.609 -1.4422 -1.6582  1.6461
  410MOL0     H55299   4.417   6.923   4.735 -1.3281 -0.3493  1.4275
  410MOL0     H55300   4.265   6.994   4.804 -0.0488 -1.3315 -0.1372
  410MOL0     H55301   4.619   7.163   4.670  1.7177  2.2553  0.6292
  410MOL0     H55302   4.722   7.428   4.845  0.3043  0.1798 -0.4841
  410MOL0     H55303   4.759   7.312   4.982 -1.3410  0.5169  0.4778
  410MOL0     H55304   4.820   7.277   4.691 -1.5056  2.5445  1.4588
  410MOL0     H55305   4.838   7.145   4.813  2.1261 -0.3055  0.7185
  410MOL0     H55306   5.004   7.264   4.938 -1.9711  1.9093  0.3234
  410MOL0     H55307   5.013   7.395   4.808  0.1160 -0.6645 -0.8935
  410MOL0     H55308   5.187   7.240   4.759  0.4079 -1.4767  4.5769
  410MOL0     H55309   5.055   7.231   4.644 -0.9580 -0.7721 -0.1078
  410MOL0     H55310   5.028   6.807   4.777  0.0376 -3.4747 -0.4518
  410MOL0     H55311   4.957   6.612   4.565 -0.4906 -0.2356 -0.0508
  410MOL0     H55312   5.101   6.520   4.603 -0.6044 -1.6581  4.2136
  410MOL0     H55313   5.032   6.601   4.732 -4.0839  3.0619 -0.0795
  410MOL0     H55314   5.195   6.661   4.107 -0.0288 -0.4641 -1.4814
  410MOL0     H55315   5.240   6.522   3.928 -0.0949  0.0888  0.9284
  410MOL0     H55316   5.391   6.212   3.789  0.6947  0.2245 -2.7508
  410MOL0     H55317   5.274   6.340   3.828 -0.2632  0.9282 -1.0292
  410MOL0     H55318   5.369   6.400   3.612  0.9919 -1.3700  1.4087
  410MOL0     H55319   5.408   6.523   3.739  0.0074  0.0315 -0.3356
  410MOL0     H55320   5.624   6.465   3.742  0.7589  3.7377 -1.3836
  410MOL0     H55321   5.568   6.497   3.580 -1.0012  2.0049  1.5033
  410MOL0     H55322   5.603   6.219   3.705  0.0201  2.5777  1.5171
  410MOL0     H55323   5.537   6.250   3.538  3.2536 -0.8612 -3.2946
  410MOL0     H55324   5.808   6.333   3.644  3.6994  0.5710 -2.0736
  410MOL0     H55325   5.738   6.343   3.484  0.3419 -1.9873 -0.8126
  410MOL0     H55326   5.789   6.069   3.625 -4.0434 -0.6370 -0.4760
  410MOL0     H55327   5.707   6.100   3.473 -3.5423  0.5536  3.6485
  410MOL0     H55328   5.999   6.216   3.506  1.4234 -1.3660  1.1841
  410MOL0     H55329   5.896   6.165   3.364 -1.3797 -0.9117  1.3108
  410MOL0     H55330   6.069   6.007   3.413  1.7295 -0.3341  1.4265
  410MOL0     H55331   5.911   5.931   3.455  1.8440 -1.5075  3.6445
  410MOL0     H55332   5.622   6.430   4.106 -0.4955  0.1842  0.4686
  410MOL0     H55333   5.570   6.568   4.302  0.9168  1.4482 -1.4750
  410MOL0     H55334   5.316   6.934   4.392  0.4371 -1.6854  0.1684
  410MOL0     H55335   5.249   7.114   4.572 -1.6042 -0.2256  1.1454
  410MOL0     H55336   4.262   6.673   3.974 -0.3245  0.2091  0.7130
  410MOL0     H55337   4.402   6.851   3.867  0.5142  1.6122 -0.9400
  410MOL0     H55338   4.263   7.394   3.552  1.7638  1.7477 -0.8477
  410MOL0     H55339   4.428   7.499   3.409 -0.4394 -1.2580 -0.5511
  410MOL0     H55340   4.720   7.593   3.307  0.8574 -0.4804 -0.0862
  410MOL0     H55341   4.684   7.594   3.480 -2.9459  0.0543 -1.3775
  410MOL0     H55342   4.936   7.465   3.372 -1.0330 -0.3318 -0.3612
  410MOL0     H55343   4.906   7.515   3.537  1.2993 -0.5026 -1.1181
  410MOL0     H55344   4.864   7.756   3.427 -0.2308  0.3350  0.9376
  410MOL0     H55345   4.951   7.683   3.288 -0.0914  2.8251  0.6113
  410MOL0     H55346   5.135   7.763   3.386  0.0216 -0.3687  0.1243
  410MOL0     H55347   5.131   7.628   3.481  0.6980  0.0873 -0.1750
  410MOL0     H55348   5.063   7.890   3.794  2.8467  0.4946 -0.2278
  410MOL0     H55349   4.733   7.259   3.557  0.1855  0.9527  0.2590
  410MOL0     H55350   4.571   7.169   3.742 -0.6007  2.2672  2.7083
  411MOL0     O55351   0.153   1.232   8.527 -0.0350  0.0294  0.2304
  411MOL0     C55352   0.195   1.221   8.643  1.1492  0.4499 -0.0745
  411MOL0     O55353   0.136   1.154   8.749  0.2175 -0.1071  0.1663
  411MOL0     C55354   0.002   1.114   8.729  0.4160 -0.2446 -0.5174
  411MOL0     C55355  -0.097   1.191   8.664  0.3321 -0.0921 -0.9163
  411MOL0     C55356  -0.232   1.147   8.649  0.3887  0.8000 -1.0734
  411MOL0     C55357  -0.270   1.019   8.676  0.2786  0.5128  0.5889
  411MOL0     O55358  -0.394   0.986   8.637 -0.7731 -0.4245 -0.6574
  411MOL0     C55359  -0.436   0.851   8.644 -0.3933  0.1137 -0.5242
  411MOL0     C55360  -0.592   0.850   8.613 -0.9150 -0.0519 -0.2508
  411MOL0     C55361  -0.653   0.965   8.532 -0.1880 -0.2736 -0.1962
  411MOL0     C55362  -0.795   0.939   8.495  0.3012  0.4629  0.4974
  411MOL0     C55363  -0.859   1.072   8.466  0.0380  0.2227 -0.2732
  411MOL0     C55364  -1.004   1.035   8.419 -0.4239 -0.5735  0.5546
  411MOL0     C55365  -1.073   1.161   8.359 -0.2624  0.0944 -0.1834
  411MOL0     C55366  -1.219   1.147   8.320 -0.6019 -0.7707 -0.9949
  411MOL0     N55367  -1.304   1.132   8.438  1.3167 -0.3586 -0.6624
  411MOL0     C55368  -1.340   1.235   8.520  0.1006 -0.3529 -0.1418
  411MOL0     C55369  -1.432   1.175   8.597  0.1185 -1.1527 -0.0022
  411MOL0     C55370  -1.517   1.252   8.693  0.5447 -1.2130 -0.0429
  411MOL0     C55371  -1.640   1.311   8.624 -0.6654  0.1174 -0.6447
  411MOL0     C55372  -1.779   1.307   8.687 -0.2719  0.8372  0.1188
  411MOL0     C55373  -1.827   1.159   8.670  0.1727  0.5014 -0.3937
  411MOL0     O55374  -1.973   1.146   8.699  0.0358  0.5368  0.4554
  411MOL0     C55375  -2.029   1.016   8.683 -0.2925  0.0272 -0.7201
  411MOL0     C55376  -1.957   0.895   8.661  0.2222  0.0124  0.3970
  411MOL0     C55377  -2.020   0.774   8.632  1.0348  0.5596  0.3500
  411MOL0     C55378  -1.929   0.667   8.601  0.1426  0.4762  0.1968
  411MOL0     C55379  -2.166   0.762   8.631 -1.1015  0.2442  0.1801
  411MOL0     C55380  -2.241   0.647   8.588  0.8009 -0.7084  0.0260
  411MOL0     O55381  -2.371   0.668   8.552  0.8572  0.8466 -0.0166
  411MOL0     C55382  -2.472   0.574   8.558 -0.8970 -0.2596 -0.7989
  411MOL0     C55383  -2.459   0.437   8.559 -0.5312  0.4138 -0.0711
  411MOL0     C55384  -2.566   0.348   8.566 -0.0300 -0.5024  0.7863
  411MOL0     C55385  -2.697   0.398   8.581 -0.1862 -0.2006  0.7121
  411MOL0     O55386  -2.802   0.315   8.578 -0.3068  0.0905  0.1388
  411MOL0     C55387  -2.838   0.275   8.446  0.4008  0.4303 -0.1335
  411MOL0     C55388  -2.915   0.391   8.379  0.6670  0.1261 -0.4280
  411MOL0     C55389  -3.051   0.410   8.450 -0.1978  0.3555  0.8586
  411MOL0     C55390  -3.172   0.355   8.373 -0.3141  0.1850 -0.0247
  411MOL0     C55391  -3.294   0.346   8.470 -0.0836  0.1246  0.0096
  411MOL0     C55392  -3.425   0.315   8.405 -0.3309 -0.7684 -0.6255
  411MOL0     C55393  -3.432   0.175   8.337 -0.3609  0.3507 -0.1624
  411MOL0     C55394  -3.558   0.100   8.371  0.9239 -0.3182 -0.7488
  411MOL0    Cl55395  -3.701   0.158   8.265  0.0795 -0.0884  0.6718
  411MOL0     C55396  -2.708   0.538   8.587  0.3516 -0.3541 -0.0809
  411MOL0     C55397  -2.601   0.625   8.579  0.3242  0.3300  0.1709
  411MOL0     O55398  -2.192   0.540   8.608  0.0410  0.1818 -0.3822
  411MOL0     C55399  -2.231   0.881   8.673  0.0480  0.4513 -0.3158
  411MOL0     C55400  -2.167   0.999   8.693  0.6731  0.0180 -0.7149
  411MOL0     N55401  -1.444   1.045   8.581 -0.5807  0.0835 -0.1405
  411MOL0     N55402  -1.369   1.020   8.479 -0.9454  1.3717  0.2201
  411MOL0     C55403  -0.173   0.937   8.737  0.1703  0.5612 -0.2315
  411MOL0     C55404  -0.043   0.986   8.770  0.8995  0.5019  0.7931
  411MOL0     C55405   0.322   1.296   8.671 -0.1962  0.0704  0.2125
  411MOL0     C55406   0.413   1.321   8.567 -0.0071 -0.0227 -0.2805
  411MOL0     C55407   0.540   1.380   8.599 -0.9978 -0.0604  0.4787
  411MOL0     C55408   0.582   1.419   8.728 -0.3981  0.6982  0.3897
  411MOL0     O55409   0.701   1.472   8.763  0.1648  0.2273  0.2476
  411MOL0     C55410   0.814   1.423   8.693  0.3206  0.4891  0.0372
  411MOL0     C55411   0.932   1.443   8.785  0.0423  0.6106  0.3029
  411MOL0     C55412   1.072   1.430   8.719 -0.0523 -0.0533 -0.9344
  411MOL0     C55413   1.200   1.421   8.797  0.4311 -0.5615  0.2765
  411MOL0     C55414   1.180   1.490   8.928  0.1815  0.6946  0.0045
  411MOL0     C55415   1.155   1.551   9.031  0.2458 -0.0394 -0.5791
  411MOL0     C55416   0.483   1.390   8.821 -1.6425  0.1811 -1.0134
  411MOL0     C55417   0.363   1.329   8.804 -0.3129 -0.4264 -0.1951
  411MOL0     H55418  -0.075   1.296   8.648 -3.8468  1.3002  0.9405
  411MOL0     H55419  -0.301   1.222   8.613 -0.8965 -0.1801 -0.7004
  411MOL0     H55420  -0.376   0.788   8.579  1.7249  2.5359 -1.1041
  411MOL0     H55421  -0.429   0.804   8.742 -0.3511 -0.6661 -0.8968
  411MOL0     H55422  -0.615   0.752   8.570 -1.9632 -0.6087  1.4670
  411MOL0     H55423  -0.642   0.854   8.711  0.3933  1.8163  0.3928
  411MOL0     H55424  -0.641   1.056   8.593 -0.7901  0.3007 -0.9122
  411MOL0     H55425  -0.595   0.989   8.443 -4.1635  0.4078 -2.8665
  411MOL0     H55426  -0.812   0.873   8.409  3.6215 -0.1348  0.1863
  411MOL0     H55427  -0.861   0.905   8.577 -0.5025 -1.6964 -0.9435
  411MOL0     H55428  -0.859   1.134   8.556  0.7299  1.0493 -0.8245
  411MOL0     H55429  -0.807   1.124   8.385 -0.3662 -1.3102 -1.5642
  411MOL0     H55430  -1.008   0.959   8.341  1.4141 -1.6409  1.4313
  411MOL0     H55431  -1.067   0.996   8.499 -1.2365 -0.4517 -0.0182
  411MOL0     H55432  -1.054   1.247   8.425 -1.0078 -1.4122  2.0896
  411MOL0     H55433  -1.026   1.168   8.260 -2.0647 -0.3500 -1.1101
  411MOL0     H55434  -1.227   1.059   8.255 -0.8966  0.5268 -2.7868
  411MOL0     H55435  -1.245   1.237   8.264 -0.6728 -1.7641 -2.6271
  411MOL0     H55436  -1.320   1.342   8.518 -0.0283 -0.3264  0.0093
  411MOL0     H55437  -1.556   1.181   8.766 -0.8551 -0.8637 -0.4368
  411MOL0     H55438  -1.449   1.321   8.745 -0.3176  1.8071 -2.6387
  411MOL0     H55439  -1.649   1.268   8.524  1.5322  0.3734 -1.0074
  411MOL0     H55440  -1.608   1.414   8.605 -0.8704  0.1791 -0.6632
  411MOL0     H55441  -1.851   1.372   8.635 -1.8394 -0.1088  1.0204
  411MOL0     H55442  -1.764   1.349   8.787  3.6114  2.5156 -0.9975
  411MOL0     H55443  -1.768   1.098   8.739  1.0268  1.4480 -0.2663
  411MOL0     H55444  -1.804   1.124   8.569 -1.2911  0.9732 -0.9253
  411MOL0     H55445  -1.848   0.892   8.664  0.2020 -0.2108  3.0326
  411MOL0     H55446  -1.974   0.595   8.532 -1.6765  0.6280  1.1709
  411MOL0     H55447  -1.838   0.699   8.549  0.6318 -0.9843  0.1041
  411MOL0     H55448  -1.899   0.619   8.695 -1.8740  0.6450  0.9781
  411MOL0     H55449  -2.362   0.390   8.547 -1.5568 -1.3585 -2.0988
  411MOL0     H55450  -2.544   0.243   8.552  2.1860 -0.1985  1.6483
  411MOL0     H55451  -2.747   0.244   8.393 -1.6120 -0.8189 -3.1664
  411MOL0     H55452  -2.901   0.188   8.464  2.6857 -0.9101  1.9572
  411MOL0     H55453  -2.850   0.479   8.384  1.9278 -0.8193  3.8142
  411MOL0     H55454  -2.933   0.358   8.276  1.4019  0.3787 -0.6376
  411MOL0     H55455  -3.063   0.514   8.482 -0.7100 -0.4692  3.6456
  411MOL0     H55456  -3.050   0.351   8.542 -1.6425 -1.5310 -0.2718
  411MOL0     H55457  -3.189   0.413   8.281 -0.8548  2.7238  1.5591
  411MOL0     H55458  -3.144   0.253   8.348 -2.0712 -0.1330 -0.8256
  411MOL0     H55459  -3.310   0.446   8.511 -1.6785 -1.3295  3.3644
  411MOL0     H55460  -3.273   0.271   8.548  3.7093 -3.0941 -3.6279
  411MOL0     H55461  -3.506   0.333   8.476  2.6323  1.1419  2.5842
  411MOL0     H55462  -3.439   0.376   8.315 -1.8928 -0.4361 -0.1936
  411MOL0     H55463  -3.352   0.111   8.377 -0.7841  0.6232  1.1658
  411MOL0     H55464  -3.426   0.182   8.228 -1.8115  0.2778 -0.2609
  411MOL0     H55465  -3.586   0.109   8.477  0.8642 -1.8155 -0.6155
  411MOL0     H55466  -3.542  -0.006   8.347 -0.0055 -1.1425  1.8743
  411MOL0     H55467  -2.808   0.579   8.600  1.3707  1.7133  1.7594
  411MOL0     H55468  -2.609   0.733   8.582 -1.2031  0.2162  2.1905
  411MOL0     H55469  -2.338   0.873   8.683 -0.0147 -0.6469 -1.5426
  411MOL0     H55470  -2.236   1.082   8.708 -0.7757 -1.0137 -1.4762
  411MOL0     H55471  -0.201   0.836   8.768 -0.9431  0.8412 -0.2762
  411MOL0     H55472   0.014   0.913   8.826  1.4224  1.6956  1.8550
  411MOL0     H55473   0.388   1.315   8.462 -1.6900  0.0212  0.0930
  411MOL0     H55474   0.607   1.402   8.516  0.7990 -0.0546  1.8814
  411MOL0     H55475   0.810   1.319   8.661 -0.6595  0.2298  0.9078
  411MOL0     H55476   0.822   1.480   8.600 -0.1752  1.5417  0.6079
  411MOL0     H55477   0.913   1.385   8.876  0.2668 -0.5299 -0.3607
  411MOL0     H55478   0.913   1.549   8.805 -1.3374  1.0470 -2.8559
  411MOL0     H55479   1.081   1.530   8.675  0.7540 -0.5981 -2.0480
  411MOL0     H55480   1.066   1.354   8.641 -1.7343 -0.9617  0.0165
  411MOL0     H55481   1.274   1.470   8.734  0.4035 -0.0170  0.6561
  411MOL0     H55482   1.222   1.317   8.822 -3.2630 -1.2945  1.1633
  411MOL0     H55483   1.157   1.615   9.116 -4.4797 -2.2494  1.5603
  411MOL0     H55484   0.505   1.414   8.925 -1.7777  1.1910 -1.2036
  411MOL0     H55485   0.297   1.311   8.888  1.4272 -0.2602  1.2882
  412MOL0     O55486  10.205  10.907   6.939 -1.1443 -0.6636  0.5784
  412MOL0     C55487  10.222  10.969   6.834  0.5485  0.6017 -0.1503
  412MOL0     O55488  10.125  11.038   6.776 -0.9628 -0.4535 -0.0414
  412MOL0     C55489   9.998  11.028   6.827  0.7465 -1.0030 -1.1437
  412MOL0     C55490   9.902  11.015   6.731  0.6190  0.0738  0.9491
  412MOL0     C55491   9.768  11.002   6.754  0.3457 -0.2176 -0.7839
  412MOL0     C55492   9.727  11.021   6.895  0.2652  0.4694 -0.4899
  412MOL0     O55493   9.598  11.031   6.946  0.4833  0.6434  0.1876
  412MOL0     C55494   9.495  11.040   6.847  1.0756  0.8660  0.8385
  412MOL0     C55495   9.356  11.071   6.894 -0.6007  0.1176  0.5702
  412MOL0     C55496   9.350  11.191   6.984 -0.2933  0.5404 -0.1163
  412MOL0     C55497   9.374  11.161   7.132  0.3242  0.1080 -0.0681
  412MOL0     C55498   9.240  11.145   7.223 -0.6362 -0.0987 -0.3741
  412MOL0     C55499   9.262  11.097   7.376  0.3775 -0.1077 -0.6637
  412MOL0     C55500   9.126  11.128   7.438  0.9990  0.8426 -0.3772
  412MOL0     C55501   9.102  11.053   7.571  0.2465 -0.0129 -0.4646
  412MOL0     N55502   9.093  10.908   7.542  0.1974  0.1574 -0.4579
  412MOL0     C55503   9.002  10.849   7.461 -0.5546 -0.8207  0.1577
  412MOL0     C55504   9.040  10.721   7.445  0.1737  0.6217  0.4874
  412MOL0     C55505   8.963  10.618   7.364 -0.0937 -0.1549 -0.8933
  412MOL0     C55506   8.876  10.541   7.466 -0.1582  0.1601  0.0787
  412MOL0     C55507   8.755  10.631   7.501 -0.2936 -0.0824  0.4066
  412MOL0     C55508   8.632  10.559   7.556 -0.2539  0.5831 -0.4060
  412MOL0     O55509   8.557  10.478   7.455 -0.3823  0.2550  0.1355
  412MOL0     C55510   8.437  10.430   7.486 -0.5015 -0.6357  0.6583
  412MOL0     C55511   8.383  10.441   7.616 -0.7609  1.0899 -0.7785
  412MOL0     C55512   8.270  10.371   7.649 -0.0230  0.1590 -0.4026
  412MOL0     C55513   8.229  10.379   7.796  0.4833  0.3403  0.1607
  412MOL0     C55514   8.198  10.289   7.551 -1.2936 -0.5316  0.5602
  412MOL0     C55515   8.071  10.222   7.577  0.8722  0.4346  0.5495
  412MOL0     O55516   8.045  10.122   7.478  0.1584 -0.1367  0.3379
  412MOL0     C55517   7.946  10.034   7.505  0.9704  0.3809 -0.6002
  412MOL0     C55518   7.808  10.063   7.507 -0.4425  0.0423 -0.1688
  412MOL0     C55519   7.715   9.964   7.534  0.7978  0.6522  0.4353
  412MOL0     C55520   7.754   9.830   7.529 -0.2088  1.2539 -0.5010
  412MOL0     O55521   7.668   9.725   7.559  0.2725  0.1235 -0.1602
  412MOL0     C55522   7.532   9.747   7.537  0.5580  0.1939 -0.0160
  412MOL0     C55523   7.447   9.622   7.578 -0.2566 -0.1760  0.4814
  412MOL0     C55524   7.452   9.515   7.472  0.5565  0.2956  0.8964
  412MOL0     C55525   7.367   9.544   7.347  0.3953 -0.5355  0.1963
  412MOL0     C55526   7.352   9.416   7.267 -0.1043 -0.6630 -0.3099
  412MOL0     C55527   7.258   9.419   7.148  0.0986  0.0614  0.4334
  412MOL0     C55528   7.219   9.280   7.110 -0.5627  0.0455  0.3945
  412MOL0     C55529   7.123   9.293   6.997 -0.1029  0.2920  0.0649
  412MOL0    Cl55530   7.052   9.129   6.973  0.4683  0.6198  0.3807
  412MOL0     C55531   7.892   9.798   7.524  0.1533  0.5600 -0.1283
  412MOL0     C55532   7.989   9.900   7.516 -0.1761 -0.3458 -0.2799
  412MOL0     O55533   8.008  10.231   7.686 -0.0984 -0.8838  0.1765
  412MOL0     C55534   8.258  10.280   7.424  0.4581 -0.0829  0.2620
  412MOL0     C55535   8.372  10.357   7.395  0.7741 -0.2874  0.7339
  412MOL0     N55536   9.155  10.698   7.527 -0.2637 -0.4549  0.6207
  412MOL0     N55537   9.179  10.810   7.587  0.6837  0.0025  0.3556
  412MOL0     C55538   9.824  11.049   6.995 -0.3514 -0.4039  0.0108
  412MOL0     C55539   9.957  11.044   6.960 -1.0115  0.0811 -0.6538
  412MOL0     C55540  10.353  10.992   6.775  0.6174  0.1822 -1.2952
  412MOL0     C55541  10.378  11.080   6.670 -0.0209  0.2586  0.0030
  412MOL0     C55542  10.509  11.097   6.624 -0.6339  0.6660  0.3555
  412MOL0     C55543  10.622  11.034   6.686  0.7096  0.2946 -0.0782
  412MOL0     O55544  10.753  11.045   6.659 -0.0370 -0.5286 -0.1233
  412MOL0     C55545  10.797  11.127   6.546 -0.2480 -0.2455  0.2065
  412MOL0     C55546  10.945  11.086   6.512  0.9769 -0.8481 -0.2833
  412MOL0     C55547  11.003  11.166   6.393  0.5523  0.0084 -0.3804
  412MOL0     C55548  11.154  11.149   6.386 -0.2597 -0.9331 -0.2520
  412MOL0     C55549  11.228  11.230   6.485 -0.1496  0.1723 -0.1182
  412MOL0     C55550  11.314  11.283   6.541 -0.4880 -0.3636  0.0500
  412MOL0     C55551  10.596  10.944   6.788 -0.5482 -0.3281  0.2653
  412MOL0     C55552  10.468  10.929   6.828  0.0014 -0.3432  0.0152
  412MOL0     H55553   9.941  11.010   6.630 -1.6236  0.2599  0.0190
  412MOL0     H55554   9.699  10.982   6.673  1.4946  1.3624 -2.2231
  412MOL0     H55555   9.519  11.111   6.768 -0.4306 -1.7458 -2.2075
  412MOL0     H55556   9.485  10.947   6.790  1.5124  0.8899  0.7174
  412MOL0     H55557   9.288  11.087   6.810  0.7531  2.6291 -0.1396
  412MOL0     H55558   9.321  10.977   6.938 -1.6263  0.7353  1.1199
  412MOL0     H55559   9.430  11.256   6.947 -0.4858  0.6537 -0.3342
  412MOL0     H55560   9.257  11.248   6.973 -0.4736  0.4536  0.9154
  412MOL0     H55561   9.427  11.066   7.137 -0.6027 -0.4117  0.1936
  412MOL0     H55562   9.432  11.242   7.177  0.6167  0.1386 -0.4936
  412MOL0     H55563   9.191  11.242   7.232 -4.1886 -1.8812  1.3121
  412MOL0     H55564   9.175  11.079   7.167  2.4465 -0.2639 -4.1728
  412MOL0     H55565   9.283  10.990   7.379  1.7893  0.1457 -0.6455
  412MOL0     H55566   9.343  11.148   7.431  0.8245 -1.4379 -0.0460
  412MOL0     H55567   9.128  11.237   7.446  1.2778  0.8447 -0.4549
  412MOL0     H55568   9.045  11.096   7.372  0.5747 -0.6700  0.8002
  412MOL0     H55569   9.010  11.082   7.623 -0.4635  0.6752 -2.0277
  412MOL0     H55570   9.190  11.059   7.635 -0.0070 -3.5507  0.4218
  412MOL0     H55571   8.921  10.898   7.409  0.1097  0.0811 -0.0571
  412MOL0     H55572   8.904  10.650   7.277  0.5141  1.3976 -0.7572
  412MOL0     H55573   9.034  10.550   7.317  0.6475 -1.3265  1.7741
  412MOL0     H55574   8.933  10.508   7.554 -0.5795 -1.3368 -0.1897
  412MOL0     H55575   8.839  10.453   7.414  1.8667 -0.0209 -1.1866
  412MOL0     H55576   8.719  10.673   7.407  1.0239  0.0526 -0.0579
  412MOL0     H55577   8.776  10.701   7.582  1.0828 -2.4871  2.2679
  412MOL0     H55578   8.569  10.634   7.606 -0.7477  0.5874 -1.0159
  412MOL0     H55579   8.661  10.488   7.633 -0.3868  0.2660 -0.6456
  412MOL0     H55580   8.433  10.490   7.699 -1.3130  1.8070 -0.8621
  412MOL0     H55581   8.128  10.420   7.795  0.9540  1.6114  1.3984
  412MOL0     H55582   8.228  10.276   7.835  0.5827  1.0523  2.1876
  412MOL0     H55583   8.296  10.433   7.863 -1.2333  0.9373  1.4615
  412MOL0     H55584   7.781  10.168   7.515 -2.1113 -0.3437 -0.5063
  412MOL0     H55585   7.609   9.987   7.547  0.2913 -1.8360  1.2829
  412MOL0     H55586   7.508   9.826   7.610  1.3642  0.9248 -0.5255
  412MOL0     H55587   7.506   9.785   7.438 -1.5088 -0.8958  0.0555
  412MOL0     H55588   7.485   9.584   7.673 -1.6583 -0.6915  0.8685
  412MOL0     H55589   7.342   9.644   7.599 -0.3939 -1.1750  0.8860
  412MOL0     H55590   7.428   9.419   7.519 -0.2081 -0.6593 -1.3179
  412MOL0     H55591   7.558   9.506   7.448  0.0363  1.1852 -2.0748
  412MOL0     H55592   7.272   9.583   7.386  0.4069  0.0702 -0.3602
  412MOL0     H55593   7.413   9.620   7.283 -2.4535 -0.1793 -1.6002
  412MOL0     H55594   7.315   9.331   7.325 -2.4871 -1.3291 -2.5936
  412MOL0     H55595   7.454   9.388   7.241 -0.5926 -0.6161 -2.3916
  412MOL0     H55596   7.173   9.476   7.186  0.7143  1.0974  0.3141
  412MOL0     H55597   7.308   9.463   7.061  2.9032 -2.2631  0.7118
  412MOL0     H55598   7.177   9.233   7.199 -0.1276 -2.2451 -0.5209
  412MOL0     H55599   7.306   9.219   7.081 -1.8156 -1.4250 -0.4221
  412MOL0     H55600   7.172   9.331   6.907  0.1062 -1.3903 -0.5648
  412MOL0     H55601   7.042   9.358   7.033  0.3518 -0.1707  2.0622
  412MOL0     H55602   7.930   9.697   7.538  1.7161  1.2644  1.1041
  412MOL0     H55603   8.095   9.884   7.528  0.0876  2.0623  1.4958
  412MOL0     H55604   8.215  10.215   7.348 -0.0178 -0.1667  0.5965
  412MOL0     H55605   8.425  10.351   7.300  0.3010 -2.9179  0.5623
  412MOL0     H55606   9.798  11.073   7.097  0.1828 -0.7911  0.2409
  412MOL0     H55607  10.032  11.053   7.038  1.5522 -0.5497 -2.9361
  412MOL0     H55608  10.300  11.131   6.615  1.3676 -0.4557 -2.8245
  412MOL0     H55609  10.526  11.170   6.546  3.9720 -1.5621 -1.1410
  412MOL0     H55610  10.743  11.101   6.455  0.1902  1.4128 -0.5803
  412MOL0     H55611  10.791  11.233   6.574 -1.6510 -0.0765 -0.6476
  412MOL0     H55612  10.947  10.982   6.479  0.8443 -0.7002 -0.7531
  412MOL0     H55613  11.011  11.098   6.599  0.8796 -0.2225 -0.2906
  412MOL0     H55614  10.966  11.269   6.398 -0.1197 -0.2324 -0.4104
  412MOL0     H55615  10.960  11.134   6.298  3.2125 -0.5156 -1.4943
  412MOL0     H55616  11.188  11.169   6.284 -0.7573 -4.3730 -1.2159
  412MOL0     H55617  11.172  11.044   6.411 -2.1464 -1.1557  0.2750
  412MOL0     H55618  11.394  11.338   6.587 -1.9035  2.3892 -0.5665
  412MOL0     H55619  10.664  10.881   6.845 -2.4120 -1.4759  1.3127
  412MOL0     H55620  10.452  10.875   6.920 -0.4103 -1.0830 -0.4758
  413MOL0     O55621   9.993  10.027  11.174  0.3913  0.3803 -0.2692
  413MOL0     C55622  10.064   9.968  11.248  0.3742 -0.9943  0.1553
  413MOL0     O55623  10.033   9.939  11.378  0.0048  0.3360  0.3807
  413MOL0     C55624   9.925  10.004  11.444  0.3105  0.0156 -0.4509
  413MOL0     C55625   9.961  10.079  11.551 -0.3853 -0.0518  0.0708
  413MOL0     C55626   9.875  10.149  11.630 -0.4795  0.5859  0.1314
  413MOL0     C55627   9.737  10.134  11.615 -0.8159 -0.4990 -1.1700
  413MOL0     O55628   9.671  10.219  11.704 -0.3157  0.6250 -0.6064
  413MOL0     C55629   9.561  10.148  11.770 -0.5397 -0.0508 -0.2912
  413MOL0     C55630   9.516  10.245  11.891  0.0077  0.9152 -0.0683
  413MOL0     C55631   9.371  10.221  11.954 -0.4812  0.7173 -0.4534
  413MOL0     C55632   9.348  10.067  11.991 -0.3243  0.1273 -0.3204
  413MOL0     C55633   9.209  10.031  12.039 -0.0516 -0.2245  0.5736
  413MOL0     C55634   9.156  10.087  12.173 -0.4132  0.4386  0.2604
  413MOL0     C55635   9.011  10.051  12.195  1.1392 -0.2539 -0.3309
  413MOL0     C55636   8.986   9.908  12.224  0.3029  0.8215  0.2247
  413MOL0     N55637   8.854   9.882  12.272 -0.1331 -0.1905 -1.1258
  413MOL0     C55638   8.818   9.907  12.403  0.1473  0.7255 -0.4668
  413MOL0     C55639   8.686   9.896  12.406  0.2893  0.4153 -0.6152
  413MOL0     C55640   8.600   9.895  12.522 -0.3203  0.7935  0.0331
  413MOL0     C55641   8.452   9.923  12.486  0.0885 -0.6077 -0.3736
  413MOL0     C55642   8.352   9.960  12.596 -1.1670 -0.2063  0.2068
  413MOL0     C55643   8.225  10.015  12.536 -0.4468  0.5008 -0.5621
  413MOL0     O55644   8.153   9.899  12.481  0.3959 -0.1600  0.0470
  413MOL0     C55645   8.015   9.931  12.458 -0.6293 -0.5662 -0.7467
  413MOL0     C55646   7.937   9.969  12.567 -0.0760 -0.1261 -0.6632
  413MOL0     C55647   7.804   9.997  12.558  0.1853  0.3697 -0.2187
  413MOL0     C55648   7.735  10.027  12.692  0.4188 -0.1646 -0.4894
  413MOL0     C55649   7.743   9.963  12.427  0.3852 -0.4333 -0.6871
  413MOL0     C55650   7.597   9.961  12.402  0.6247 -0.1522  0.5601
  413MOL0     O55651   7.554   9.941  12.270 -0.1105 -1.1131  0.4964
  413MOL0     C55652   7.421   9.937  12.253 -0.7774 -0.2861  0.1120
  413MOL0     C55653   7.359   9.815  12.291 -0.1801  0.0586 -0.2525
  413MOL0     C55654   7.216   9.809  12.288 -1.0951 -0.2135  0.0129
  413MOL0     C55655   7.136   9.918  12.249 -0.2559 -0.3817  0.4271
  413MOL0     O55656   7.000   9.900  12.261  0.0884 -0.1759  0.3378
  413MOL0     C55657   6.908  10.011  12.257  0.0576  0.0707 -0.2654
  413MOL0     C55658   6.906  10.087  12.396  0.2935 -0.1196 -0.3019
  413MOL0     C55659   6.840  10.221  12.372  0.0232  0.5043 -0.1843
  413MOL0     C55660   6.687  10.206  12.357 -0.5370 -0.2160 -0.5664
  413MOL0     C55661   6.613  10.332  12.304  0.4227 -0.1090 -0.4106
  413MOL0     C55662   6.462  10.324  12.281 -0.5888 -0.2478 -0.1045
  413MOL0     C55663   6.404  10.464  12.241  0.2797 -0.3644  0.4149
  413MOL0     C55664   6.432  10.500  12.094 -0.4507 -0.4483 -0.0723
  413MOL0    Cl55665   6.353  10.662  12.061  0.0418  0.5905 -0.2583
  413MOL0     C55666   7.206  10.033  12.204  0.4792 -0.3343  0.0316
  413MOL0     C55667   7.345  10.051  12.204  0.3975  0.6144 -0.5734
  413MOL0     O55668   7.525   9.969  12.500 -0.8202  0.3619  0.7038
  413MOL0     C55669   7.829   9.923  12.309  0.0341 -0.1145 -0.3458
  413MOL0     C55670   7.964   9.910  12.330  0.3341 -0.1489 -0.5125
  413MOL0     N55671   8.649   9.851  12.279 -0.1767 -0.6695 -0.3542
  413MOL0     N55672   8.748   9.841  12.204  0.0565 -0.3775  0.0429
  413MOL0     C55673   9.690  10.059  11.508 -0.5732  0.1448  0.2790
  413MOL0     C55674   9.785   9.991  11.416 -0.3487 -0.5403  0.6553
  413MOL0     C55675  10.197   9.915  11.202 -0.2207  0.2614  0.6142
  413MOL0     C55676  10.253   9.949  11.080 -0.2346  0.4563  0.4998
  413MOL0     C55677  10.379   9.894  11.043 -0.1261  0.7637  0.5407
  413MOL0     C55678  10.438   9.796  11.124  0.7094 -0.5823  1.1830
  413MOL0     O55679  10.549   9.740  11.078  0.1563  0.3366 -0.0674
  413MOL0     C55680  10.678   9.787  11.132  0.2824  0.7765 -0.5573
  413MOL0     C55681  10.748   9.687  11.226 -1.0405 -0.2988 -0.5803
  413MOL0     C55682  10.759   9.548  11.162 -0.3023  1.1454  0.5054
  413MOL0     C55683  10.810   9.432  11.259 -0.1540 -0.8632 -0.3525
  413MOL0     C55684  10.702   9.373  11.341 -0.4897  0.3138 -0.3672
  413MOL0     C55685  10.598   9.330  11.381  0.4513 -0.5968 -0.5777
  413MOL0     C55686  10.380   9.761  11.243 -0.1102  0.3388  0.2053
  413MOL0     C55687  10.255   9.815  11.282  0.6965 -0.4488  0.3705
  413MOL0     H55688  10.069  10.073  11.561  0.0971 -0.4716 -3.7173
  413MOL0     H55689   9.923  10.208  11.707  2.1435  0.1240 -1.0140
  413MOL0     H55690   9.483  10.134  11.694  0.8575  0.1853 -1.8218
  413MOL0     H55691   9.589  10.049  11.806 -2.8327 -0.5181  0.3981
  413MOL0     H55692   9.591  10.237  11.970 -0.6375 -0.1953  0.4570
  413MOL0     H55693   9.520  10.346  11.850  0.2002  0.8502 -0.2107
  413MOL0     H55694   9.360  10.273  12.049 -2.3496 -0.8456  0.2483
  413MOL0     H55695   9.290  10.254  11.889  0.0878 -0.1761 -1.6542
  413MOL0     H55696   9.363  10.014  11.896  1.1995  2.2800 -1.3859
  413MOL0     H55697   9.425  10.034  12.061 -0.0375  1.7861  0.1928
  413MOL0     H55698   9.137  10.049  11.959  1.1952  1.0677 -0.3174
  413MOL0     H55699   9.209   9.922  12.053 -4.0066 -0.1669  2.3333
  413MOL0     H55700   9.222  10.057  12.255  0.2986 -1.3946 -0.9428
  413MOL0     H55701   9.170  10.194  12.153  1.1731 -0.0482 -1.4568
  413MOL0     H55702   8.977  10.105  12.284 -0.3849  0.5993 -1.3744
  413MOL0     H55703   8.963  10.096  12.108  1.1352  1.0690  0.3352
  413MOL0     H55704   9.065   9.888  12.297  0.1304 -1.2649 -0.0995
  413MOL0     H55705   8.999   9.856  12.128  0.6448 -0.8547  1.1401
  413MOL0     H55706   8.880   9.931  12.489  0.7947 -1.3319 -0.3049
  413MOL0     H55707   8.602   9.796  12.570  0.4965  0.4021 -0.7844
  413MOL0     H55708   8.636   9.969  12.594  0.9885 -0.8015  1.1139
  413MOL0     H55709   8.412   9.835  12.435 -0.3690 -1.1384  0.8647
  413MOL0     H55710   8.448  10.015  12.426 -0.5005 -0.4112 -0.0367
  413MOL0     H55711   8.399  10.042  12.651 -0.0162  0.3372 -1.4953
  413MOL0     H55712   8.335   9.879  12.667  1.6150  1.2523  2.7769
  413MOL0     H55713   8.254  10.093  12.464  2.0415 -0.0282 -0.2453
  413MOL0     H55714   8.171  10.062  12.618 -1.7769 -2.3115  0.3003
  413MOL0     H55715   7.993   9.963  12.660  0.2892 -1.8071 -0.9492
  413MOL0     H55716   7.639   9.976  12.705 -1.4268  2.6212 -2.1523
  413MOL0     H55717   7.801   9.992  12.772 -0.2058  0.2897  0.2405
  413MOL0     H55718   7.718  10.135  12.701  0.1457 -0.1818 -0.7860
  413MOL0     H55719   7.414   9.726  12.319  0.2727  0.1830 -0.7339
  413MOL0     H55720   7.181   9.717  12.333  3.2871 -1.5454  1.2237
  413MOL0     H55721   6.936  10.075  12.173 -0.8458 -0.8256 -1.2822
  413MOL0     H55722   6.807   9.972  12.245  0.8039 -2.0612 -0.0383
  413MOL0     H55723   6.852  10.021  12.465  1.2524 -0.4666  0.1337
  413MOL0     H55724   7.004  10.092  12.445 -0.1623 -1.5302  0.8530
  413MOL0     H55725   6.857  10.264  12.273 -0.0341  1.5727  0.2509
  413MOL0     H55726   6.863  10.298  12.447  1.4508 -0.1986  0.1202
  413MOL0     H55727   6.665  10.113  12.304  0.8893 -1.2786  0.5993
  413MOL0     H55728   6.646  10.188  12.456  1.5416 -2.2951 -0.0040
  413MOL0     H55729   6.645  10.353  12.201 -0.4311  1.2321 -0.4233
  413MOL0     H55730   6.646  10.414  12.369  2.3086 -1.6715  0.7002
  413MOL0     H55731   6.442  10.251  12.202  1.5390 -0.9751 -0.0312
  413MOL0     H55732   6.424  10.280  12.374  0.2552  0.6401  0.6827
  413MOL0     H55733   6.452  10.536  12.307  1.6584  0.5128 -1.4379
  413MOL0     H55734   6.295  10.463  12.241  0.1654 -2.8060 -2.1428
  413MOL0     H55735   6.397  10.434  12.015 -0.8384  1.5334 -1.6545
  413MOL0     H55736   6.538  10.515  12.073 -0.2340 -0.9393  0.6505
  413MOL0     H55737   7.144  10.116  12.172  0.6349  1.2446  3.4235
  413MOL0     H55738   7.403  10.135  12.167 -0.2397  0.2831 -2.4707
  413MOL0     H55739   7.794   9.905  12.208 -1.6976  1.3908 -0.0648
  413MOL0     H55740   8.036   9.884  12.253  0.4330 -0.8889 -0.1756
  413MOL0     H55741   9.585  10.057  11.484 -0.4411 -0.0376 -0.3024
  413MOL0     H55742   9.750   9.924  11.338  2.6674 -1.0625 -0.3507
  413MOL0     H55743  10.193  10.001  11.007  0.8450  0.4121 -0.4479
  413MOL0     H55744  10.429   9.900  10.947 -1.0168 -0.7010 -0.0431
  413MOL0     H55745  10.741   9.807  11.045  0.3048 -1.1013 -1.0105
  413MOL0     H55746  10.667   9.877  11.194  2.8126 -0.9387  2.6746
  413MOL0     H55747  10.703   9.672  11.325  3.6468 -0.6099  1.7541
  413MOL0     H55748  10.842   9.736  11.252 -0.2038 -0.5343 -2.8721
  413MOL0     H55749  10.841   9.556  11.090  0.6537  3.0791  1.7357
  413MOL0     H55750  10.668   9.508  11.117  0.6079  0.5832 -0.9071
  413MOL0     H55751  10.897   9.469  11.314 -0.0005  1.6350 -2.1152
  413MOL0     H55752  10.851   9.350  11.198  2.1869 -0.4196  0.4993
  413MOL0     H55753  10.497   9.297  11.393 -0.3918  1.4088 -1.7495
  413MOL0     H55754  10.418   9.691  11.317  0.8597  0.0152 -0.5621
  413MOL0     H55755  10.212   9.785  11.377 -1.8441 -0.0060 -0.5464
  414MOL0     O55756   4.451  10.845   4.991  0.4716 -0.4057 -0.2545
  414MOL0     C55757   4.526  10.925   5.045  0.0446  0.2053 -0.0989
  414MOL0     O55758   4.491  11.001   5.156  0.0206  0.1445  0.5441
  414MOL0     C55759   4.369  11.001   5.226  0.3445 -0.1363  0.5773
  414MOL0     C55760   4.247  10.933   5.194  0.0300  0.0071 -0.1460
  414MOL0     C55761   4.138  10.936   5.278 -0.6469 -0.4015 -0.7389
  414MOL0     C55762   4.139  11.017   5.393  0.2538  0.2516  0.6157
  414MOL0     O55763   4.030  11.020   5.476 -0.7187  0.3196  0.6944
  414MOL0     C55764   4.027  11.102   5.598 -0.5362 -0.6824 -0.2203
  414MOL0     C55765   3.894  11.062   5.644 -0.1184 -0.0255 -0.4058
  414MOL0     C55766   3.774  11.105   5.555  0.3391 -0.6992  0.1419
  414MOL0     C55767   3.717  11.239   5.597 -0.0218 -0.4702  0.2732
  414MOL0     C55768   3.620  11.297   5.491 -0.5127  0.2225 -0.3587
  414MOL0     C55769   3.506  11.200   5.466 -0.0484  0.3091 -0.0438
  414MOL0     C55770   3.404  11.262   5.376  0.6720 -0.1665  0.7298
  414MOL0     C55771   3.273  11.189   5.404  1.3285  0.9344  0.1502
  414MOL0     N55772   3.166  11.242   5.315  0.2395  0.3954 -0.2505
  414MOL0     C55773   3.146  11.197   5.182  0.6269 -0.1522 -0.0029
  414MOL0     C55774   3.044  11.284   5.147 -0.9582 -0.1716  0.0298
  414MOL0     C55775   2.997  11.294   5.006 -0.7057 -0.2021  1.1604
  414MOL0     C55776   2.949  11.159   4.959 -0.3319  0.0141 -0.7775
  414MOL0     C55777   2.862  11.152   4.839 -0.0629 -0.2318  0.3247
  414MOL0     C55778   2.726  11.210   4.873  0.0802 -0.0724 -0.4422
  414MOL0     O55779   2.629  11.188   4.775 -0.5672 -0.7124  0.0268
  414MOL0     C55780   2.498  11.219   4.793 -0.4744  0.7529  0.1606
  414MOL0     C55781   2.412  11.190   4.690  0.8562  0.2236 -0.2791
  414MOL0     C55782   2.277  11.216   4.697 -0.3650 -0.0595  0.9140
  414MOL0     C55783   2.201  11.206   4.563 -0.0221 -0.0048  0.2394
  414MOL0     C55784   2.228  11.270   4.818 -0.0024  0.2966 -1.5770
  414MOL0     C55785   2.085  11.298   4.847  1.2215  0.2675  0.4575
  414MOL0     O55786   2.053  11.370   4.961  1.0647  0.7039 -0.2910
  414MOL0     C55787   1.918  11.385   4.999 -0.2237  0.0525 -0.3233
  414MOL0     C55788   1.882  11.355   5.129  0.0601  0.7535 -0.3507
  414MOL0     C55789   1.747  11.364   5.175  0.8802 -0.5419 -0.3887
  414MOL0     C55790   1.661  11.429   5.090  0.0531  0.4254 -0.0085
  414MOL0     O55791   1.531  11.448   5.117 -0.3054 -1.1615 -0.3325
  414MOL0     C55792   1.488  11.453   5.250  0.2702  0.1677  0.5359
  414MOL0     C55793   1.431  11.592   5.264 -0.0145 -0.6995  0.4952
  414MOL0     C55794   1.312  11.622   5.176 -0.0858  0.5263 -0.2639
  414MOL0     C55795   1.218  11.727   5.232  0.6696  0.2859 -0.0612
  414MOL0     C55796   1.100  11.755   5.143  0.5251  0.3629 -0.1196
  414MOL0     C55797   0.996  11.834   5.223 -0.5285  0.4639  0.2752
  414MOL0     C55798   0.850  11.846   5.159  0.6374  0.3305  0.4090
  414MOL0     C55799   0.742  11.777   5.236  0.4760 -0.3553 -0.1786
  414MOL0    Cl55800   0.585  11.856   5.190  0.0206  0.0767 -0.2041
  414MOL0     C55801   1.701  11.465   4.962  0.1061 -0.6314 -0.0516
  414MOL0     C55802   1.827  11.445   4.914 -0.0905  0.3602  0.4879
  414MOL0     O55803   2.004  11.255   4.763  0.3782 -0.4548 -0.5860
  414MOL0     C55804   2.319  11.292   4.922  0.1716  0.0114  0.7191
  414MOL0     C55805   2.459  11.269   4.916  0.9300 -0.3024  0.0214
  414MOL0     N55806   3.017  11.379   5.248  0.1742  0.0128 -0.7689
  414MOL0     N55807   3.070  11.336   5.351 -0.3593 -0.4891  0.8585
  414MOL0     C55808   4.249  11.098   5.412 -0.7388 -0.3141  0.1106
  414MOL0     C55809   4.362  11.080   5.335  0.4187  0.1762  1.0595
  414MOL0     C55810   4.674  10.925   5.014 -0.5680  0.3990  0.4921
  414MOL0     C55811   4.725  10.840   4.909 -0.0585 -0.0418 -0.0850
  414MOL0     C55812   4.868  10.844   4.885 -0.5075 -0.3412  0.0233
  414MOL0     C55813   4.952  10.937   4.938 -1.0125 -0.8034 -0.5848
  414MOL0     O55814   5.083  10.956   4.898  0.1292  0.6174  0.5855
  414MOL0     C55815   5.159  10.844   4.838  1.2246  0.2736  0.6187
  414MOL0     C55816   5.294  10.895   4.850 -0.6145 -0.1026 -0.3947
  414MOL0     C55817   5.400  10.790   4.822  0.2916 -0.1162  0.1770
  414MOL0     C55818   5.407  10.752   4.673 -0.0778 -0.3255  0.0016
  414MOL0     C55819   5.503  10.645   4.657 -0.2756 -0.0139 -0.0743
  414MOL0     C55820   5.585  10.553   4.657  0.4535  0.1495 -0.2410
  414MOL0     C55821   4.902  11.020   5.042 -0.3296  0.5258 -0.0523
  414MOL0     C55822   4.768  11.011   5.084  1.1377  0.0591  0.6945
  414MOL0     H55823   4.240  10.871   5.105 -1.4823 -0.4560  0.2769
  414MOL0     H55824   4.042  10.890   5.258 -2.0543  1.0315  2.1179
  414MOL0     H55825   4.109  11.078   5.666 -0.1071  0.9198 -0.1333
  414MOL0     H55826   4.025  11.210   5.579 -0.8179  0.1398  3.7063
  414MOL0     H55827   3.879  10.954   5.648 -2.0879  0.2285  1.4850
  414MOL0     H55828   3.888  11.103   5.745 -0.0595  1.5345 -1.0086
  414MOL0     H55829   3.791  11.101   5.447 -2.4023  1.4120 -0.4824
  414MOL0     H55830   3.698  11.028   5.570  0.7987 -1.1597  0.1376
  414MOL0     H55831   3.667  11.235   5.694 -1.0483 -0.1652 -0.2315
  414MOL0     H55832   3.800  11.306   5.622  0.3383 -1.2008  1.0840
  414MOL0     H55833   3.564  11.382   5.531 -1.4548 -0.6531  0.2206
  414MOL0     H55834   3.663  11.319   5.393 -1.5582 -0.6861 -1.0452
  414MOL0     H55835   3.541  11.111   5.415 -1.9891 -1.0244  0.8112
  414MOL0     H55836   3.445  11.168   5.552  0.1080 -0.2826 -0.1528
  414MOL0     H55837   3.377  11.365   5.401 -1.5966  0.0306 -2.0359
  414MOL0     H55838   3.437  11.244   5.273 -2.7203 -1.5933 -0.2410
  414MOL0     H55839   3.238  11.212   5.505 -1.5605  3.6739 -1.2925
  414MOL0     H55840   3.286  11.082   5.385  1.3127  0.7567  1.0776
  414MOL0     H55841   3.180  11.110   5.128 -1.5743 -0.3963 -1.0849
  414MOL0     H55842   2.915  11.364   4.989 -1.6724 -2.0788 -3.5527
  414MOL0     H55843   3.081  11.325   4.944 -1.0374 -0.4177  0.5907
  414MOL0     H55844   2.899  11.108   5.042  0.7304 -0.8089 -0.6185
  414MOL0     H55845   3.039  11.099   4.941  0.6390  1.0467  0.4179
  414MOL0     H55846   2.836  11.050   4.809 -2.4144  0.0761  1.0986
  414MOL0     H55847   2.905  11.193   4.747  0.1818 -1.4109 -0.1058
  414MOL0     H55848   2.755  11.313   4.899 -1.0122 -0.0714  0.8992
  414MOL0     H55849   2.700  11.161   4.967  2.9422  0.6054  0.8133
  414MOL0     H55850   2.454  11.155   4.597  1.3154  0.2899 -0.1009
  414MOL0     H55851   2.273  11.187   4.483 -0.0625 -3.3899  0.8282
  414MOL0     H55852   2.130  11.123   4.571  1.0592 -0.9770  0.0326
  414MOL0     H55853   2.151  11.300   4.538  0.3486  0.0195 -0.4393
  414MOL0     H55854   1.954  11.328   5.206 -0.1374  2.8808  0.6420
  414MOL0     H55855   1.724  11.321   5.272  2.7070  0.4725  0.5399
  414MOL0     H55856   1.401  11.388   5.266 -1.3148  1.4227 -2.2722
  414MOL0     H55857   1.569  11.438   5.322  0.3974 -0.7267  0.2161
  414MOL0     H55858   1.383  11.598   5.362 -1.6094  1.5013 -0.3494
  414MOL0     H55859   1.513  11.665   5.257  0.1638 -0.9675 -0.3854
  414MOL0     H55860   1.259  11.527   5.169  0.8915  0.0203 -1.1544
  414MOL0     H55861   1.348  11.647   5.076 -0.2573 -2.4024 -1.1640
  414MOL0     H55862   1.170  11.685   5.320  4.0056 -1.0866  1.2679
  414MOL0     H55863   1.270  11.820   5.254 -1.7881  1.4259  1.4243
  414MOL0     H55864   1.067  11.653   5.122  0.5949 -0.1211  1.9083
  414MOL0     H55865   1.132  11.811   5.055 -0.8994 -1.1882 -1.6965
  414MOL0     H55866   0.999  11.793   5.325  1.5150  2.7416  1.2144
  414MOL0     H55867   1.031  11.937   5.229  0.4464  0.0681  2.9362
  414MOL0     H55868   0.845  11.810   5.056 -0.0016  0.3643  0.4258
  414MOL0     H55869   0.816  11.950   5.149  1.6064  0.5768 -0.4344
  414MOL0     H55870   0.768  11.785   5.342  0.7600 -0.0090 -0.2711
  414MOL0     H55871   0.751  11.671   5.208  1.3399  0.1765 -2.1007
  414MOL0     H55872   1.620  11.515   4.912  1.0509  2.0584  0.9460
  414MOL0     H55873   1.860  11.470   4.814 -1.7818  0.5165 -0.0549
  414MOL0     H55874   2.283  11.311   5.022 -1.7386 -1.1436  0.3016
  414MOL0     H55875   2.524  11.285   5.001  0.5351  1.7553 -0.0127
  414MOL0     H55876   4.255  11.173   5.490  1.7591  0.6754 -0.8982
  414MOL0     H55877   4.456  11.128   5.362  0.0663  0.5390  1.6540
  414MOL0     H55878   4.658  10.771   4.857  0.5013 -0.5879 -0.0851
  414MOL0     H55879   4.910  10.776   4.812  2.8260 -0.1704  1.6104
  414MOL0     H55880   5.138  10.748   4.886  0.2420 -0.7270 -1.6397
  414MOL0     H55881   5.131  10.831   4.733  0.0164 -0.3986  0.9972
  414MOL0     H55882   5.306  10.922   4.955 -1.6708  1.8517 -0.7299
  414MOL0     H55883   5.311  10.988   4.795  0.1323  1.8779  2.9133
  414MOL0     H55884   5.392  10.700   4.882  1.2820 -0.2365  0.1434
  414MOL0     H55885   5.493  10.839   4.852  0.4582 -0.9942  1.1414
  414MOL0     H55886   5.428  10.834   4.604 -1.7170 -0.5651 -0.8230
  414MOL0     H55887   5.307  10.721   4.640 -0.3791 -0.9638  1.4198
  414MOL0     H55888   5.640  10.461   4.665 -0.5154 -0.5704 -1.4522
  414MOL0     H55889   4.963  11.098   5.087 -3.3152  2.5998  0.6447
  414MOL0     H55890   4.728  11.090   5.146 -0.0287  0.7728 -0.8996
  415MOL0     O55891   5.893   8.542   8.465  0.2503  0.5560 -0.2388
  415MOL0     C55892   5.919   8.508   8.352 -0.9600 -0.7606  0.6392
  415MOL0     O55893   5.834   8.494   8.250 -0.4596 -0.2757  1.1757
  415MOL0     C55894   5.715   8.562   8.259 -0.6108  0.2812  0.0505
  415MOL0     C55895   5.597   8.487   8.260  0.0603  0.0180 -0.9924
  415MOL0     C55896   5.468   8.544   8.245 -0.9653  1.0751 -0.1495
  415MOL0     C55897   5.458   8.684   8.248 -0.5664 -0.6823  0.1195
  415MOL0     O55898   5.341   8.753   8.221 -0.6295  0.0671  0.1552
  415MOL0     C55899   5.236   8.690   8.149 -0.0439  0.7068  0.0628
  415MOL0     C55900   5.118   8.789   8.117 -0.6538 -0.4844  0.1312
  415MOL0     C55901   4.991   8.724   8.048 -0.1692  0.3785 -0.8540
  415MOL0     C55902   4.861   8.783   8.101  0.4460  0.0182 -0.3853
  415MOL0     C55903   4.734   8.774   8.014  0.4942 -0.6548  0.2064
  415MOL0     C55904   4.609   8.803   8.101  0.4885 -0.8572  0.4016
  415MOL0     C55905   4.476   8.760   8.034 -1.3817  0.3969  0.0180
  415MOL0     C55906   4.351   8.780   8.112  0.2205  0.2683  0.1727
  415MOL0     N55907   4.232   8.753   8.031  0.5370  0.2266 -1.7690
  415MOL0     C55908   4.203   8.643   7.948  0.1929 -0.1068 -0.2753
  415MOL0     C55909   4.090   8.684   7.881 -0.5066  0.1098 -0.8362
  415MOL0     C55910   4.015   8.619   7.776 -0.2425  0.8356 -0.2485
  415MOL0     C55911   4.082   8.609   7.640  0.2765 -1.1447 -0.0332
  415MOL0     C55912   3.996   8.535   7.538 -0.1127 -0.1146  0.0182
  415MOL0     C55913   4.007   8.387   7.564  0.1769  0.5133  0.7696
  415MOL0     O55914   3.908   8.321   7.487 -0.2416 -0.0599  0.0424
  415MOL0     C55915   3.786   8.291   7.548  0.4322 -0.1198 -0.1201
  415MOL0     C55916   3.687   8.257   7.457  0.2225 -0.2533  0.2375
  415MOL0     C55917   3.555   8.230   7.499 -0.5064 -0.3541 -0.8245
  415MOL0     C55918   3.447   8.222   7.386 -0.0066  0.7105 -0.2252
  415MOL0     C55919   3.522   8.217   7.635  0.1931  0.0548  0.2145
  415MOL0     C55920   3.391   8.161   7.685  0.2996  0.5881  1.0620
  415MOL0     O55921   3.404   8.090   7.806  0.4564 -0.8720  0.6414
  415MOL0     C55922   3.274   8.058   7.856 -0.3934 -0.2193  0.0255
  415MOL0     C55923   3.222   8.125   7.959 -0.2460 -0.0662 -0.3338
  415MOL0     C55924   3.098   8.117   8.002 -0.0928  0.3724  0.6751
  415MOL0     C55925   3.000   8.026   7.946  0.9767  0.2509 -1.1226
  415MOL0     O55926   2.873   8.035   7.988  0.1819  0.3622 -0.0672
  415MOL0     C55927   2.788   7.938   7.929  0.1792  0.2927 -0.3881
  415MOL0     C55928   2.663   7.927   8.015  0.3519  0.8686  0.0788
  415MOL0     C55929   2.543   7.864   7.949 -0.0170 -0.1053 -0.4394
  415MOL0     C55930   2.428   7.853   8.051  0.1305 -0.5837  0.5514
  415MOL0     C55931   2.292   7.849   7.964 -0.2499 -0.7055 -0.0944
  415MOL0     C55932   2.163   7.838   8.060 -0.5059  0.1063  0.6293
  415MOL0     C55933   2.030   7.808   7.991 -0.8480 -0.0955  0.5106
  415MOL0     C55934   1.936   7.723   8.084 -0.4815 -0.5084  0.3381
  415MOL0    Cl55935   1.781   7.677   8.008  0.6315 -0.2349  0.2519
  415MOL0     C55936   3.052   7.941   7.844  0.8463  0.0903 -0.8627
  415MOL0     C55937   3.190   7.956   7.799 -0.4936 -0.1608  0.3901
  415MOL0     O55938   3.285   8.191   7.622 -0.6930  0.0627 -0.8754
  415MOL0     C55939   3.627   8.249   7.725  0.3304 -0.1227 -0.5073
  415MOL0     C55940   3.753   8.291   7.686  0.0296  0.9476  0.0723
  415MOL0     N55941   4.062   8.818   7.914 -0.6056  0.1387  0.0119
  415MOL0     N55942   4.139   8.852   8.003  0.0590  0.2824  0.2657
  415MOL0     C55943   5.576   8.764   8.260 -0.4024  0.0027 -0.8559
  415MOL0     C55944   5.706   8.705   8.267  0.8575  0.3336  1.4256
  415MOL0     C55945   6.048   8.443   8.335  0.1289 -0.4005 -0.5844
  415MOL0     C55946   6.051   8.330   8.251 -0.8230 -1.1302  0.0221
  415MOL0     C55947   6.178   8.267   8.225 -0.4378 -0.1938 -0.8108
  415MOL0     C55948   6.296   8.314   8.278 -0.5051 -0.0757 -0.9154
  415MOL0     O55949   6.407   8.242   8.254  0.7117  0.4999 -0.4893
  415MOL0     C55950   6.548   8.295   8.243  0.6054 -0.1563 -0.5694
  415MOL0     C55951   6.654   8.206   8.313  1.0005 -0.3496  0.5250
  415MOL0     C55952   6.793   8.273   8.320 -0.3790 -0.0735  0.5043
  415MOL0     C55953   6.888   8.224   8.204  0.3653  0.5991 -0.5700
  415MOL0     C55954   7.010   8.299   8.201  0.3729  0.0956 -0.0617
  415MOL0     C55955   7.106   8.374   8.193 -0.4330 -0.0237 -0.3048
  415MOL0     C55956   6.293   8.421   8.373  1.1522  0.5449 -0.0757
  415MOL0     C55957   6.169   8.477   8.412 -0.0170  1.1103  0.3695
  415MOL0     H55958   5.610   8.380   8.258 -1.4523 -0.2368  0.4076
  415MOL0     H55959   5.383   8.483   8.217 -0.3004 -0.2298  0.5725
  415MOL0     H55960   5.271   8.633   8.063  1.2617  1.3825  0.1197
  415MOL0     H55961   5.187   8.621   8.219 -3.2471  1.0605 -1.6355
  415MOL0     H55962   5.084   8.832   8.212 -4.1408  1.4716 -1.8049
  415MOL0     H55963   5.156   8.862   8.045  0.2039  0.6529  1.6560
  415MOL0     H55964   5.007   8.735   7.940  1.1285 -2.6954 -1.0976
  415MOL0     H55965   4.992   8.615   8.059 -1.6865  0.2742 -1.5581
  415MOL0     H55966   4.838   8.727   8.193 -2.3121 -0.3066 -1.1730
  415MOL0     H55967   4.885   8.888   8.121  0.8319  0.0970 -1.2401
  415MOL0     H55968   4.738   8.854   7.939 -0.6625 -1.6921 -1.0109
  415MOL0     H55969   4.724   8.677   7.965  1.5297 -0.9422  0.5456
  415MOL0     H55970   4.613   8.763   8.203 -3.4369  2.2841  2.0632
  415MOL0     H55971   4.608   8.911   8.120 -0.6347 -0.8913  0.5862
  415MOL0     H55972   4.462   8.835   7.956 -2.0314  0.7854  0.5006
  415MOL0     H55973   4.490   8.665   7.981  1.2587  1.2580 -1.0237
  415MOL0     H55974   4.355   8.885   8.145 -0.3721 -0.2799  2.0978
  415MOL0     H55975   4.351   8.713   8.199 -1.3026  0.0082  0.0009
  415MOL0     H55976   4.257   8.549   7.936 -1.0896 -0.7578 -1.0712
  415MOL0     H55977   4.018   8.516   7.811  1.7612  1.1567  0.6108
  415MOL0     H55978   3.920   8.672   7.760  1.1574  3.5795 -0.1772
  415MOL0     H55979   4.182   8.567   7.653  0.8037  0.7699  3.5854
  415MOL0     H55980   4.101   8.708   7.598 -1.1421 -0.8743 -0.0907
  415MOL0     H55981   4.030   8.559   7.437 -1.8360 -1.5056 -0.9493
  415MOL0     H55982   3.897   8.580   7.543  0.9742  2.6460 -1.1534
  415MOL0     H55983   4.000   8.358   7.669  1.8433  0.6437  0.9529
  415MOL0     H55984   4.104   8.348   7.532 -0.8156 -1.8265  0.4193
  415MOL0     H55985   3.717   8.262   7.353  1.6762  1.3171  0.6931
  415MOL0     H55986   3.496   8.226   7.288  2.0303  1.0351  0.7499
  415MOL0     H55987   3.383   8.133   7.395 -1.5016  1.5297 -2.0214
  415MOL0     H55988   3.380   8.307   7.398  0.4076  0.8013  1.8140
  415MOL0     H55989   3.287   8.189   8.018 -2.4398 -0.0086  2.2464
  415MOL0     H55990   3.061   8.180   8.082 -1.8891 -0.1521  0.3162
  415MOL0     H55991   2.761   7.957   7.824  0.7538  2.3672 -0.2080
  415MOL0     H55992   2.831   7.838   7.936 -0.1514  0.2596  1.7743
  415MOL0     H55993   2.687   7.854   8.093 -2.2247 -1.2723 -0.9449
  415MOL0     H55994   2.631   8.024   8.054  1.4621  2.3585 -2.4264
  415MOL0     H55995   2.565   7.764   7.908 -2.2167 -1.4966  1.5574
  415MOL0     H55996   2.506   7.931   7.871  0.0734 -0.8416 -1.1331
  415MOL0     H55997   2.435   7.760   8.108 -3.3992 -0.9481  0.6295
  415MOL0     H55998   2.424   7.937   8.120  1.6639  0.0534 -0.0956
  415MOL0     H55999   2.297   7.763   7.896 -0.0229 -0.0282 -0.9519
  415MOL0     H56000   2.291   7.945   7.911  3.0765 -1.0991 -1.1377
  415MOL0     H56001   2.191   7.758   8.130 -0.1392 -1.4502 -1.2056
  415MOL0     H56002   2.141   7.932   8.110 -0.6430 -0.5620  1.8533
  415MOL0     H56003   2.045   7.752   7.898  0.4209 -0.0497  0.6744
  415MOL0     H56004   1.994   7.908   7.965  1.1301  1.4167  3.1325
  415MOL0     H56005   1.921   7.787   8.172  0.4265  0.4498 -0.1821
  415MOL0     H56006   1.981   7.628   8.114  1.6072  0.6034  0.9100
  415MOL0     H56007   2.983   7.874   7.795 -0.4094  0.4228  0.3955
  415MOL0     H56008   3.215   7.902   7.709 -1.0801  1.1108 -0.5657
  415MOL0     H56009   3.606   8.262   7.830 -0.9576 -1.2208 -0.6069
  415MOL0     H56010   3.829   8.312   7.760  0.2517 -0.3837  0.2481
  415MOL0     H56011   5.576   8.873   8.261 -0.4233  0.0107  0.5854
  415MOL0     H56012   5.800   8.759   8.258 -0.6782  2.9260 -0.4703
  415MOL0     H56013   5.968   8.296   8.190  0.3443  0.5602 -2.7267
  415MOL0     H56014   6.180   8.188   8.150 -1.4029  0.4053 -1.4883
  415MOL0     H56015   6.580   8.325   8.143  1.2234  1.9032  0.1832
  415MOL0     H56016   6.558   8.388   8.300  0.7116  2.0632 -3.9043
  415MOL0     H56017   6.664   8.113   8.256 -0.1825 -0.1991  0.0220
  415MOL0     H56018   6.625   8.183   8.416  3.4102 -1.2131  1.0658
  415MOL0     H56019   6.831   8.244   8.418  0.1885 -1.5231 -0.1156
  415MOL0     H56020   6.783   8.381   8.303  0.8470  0.0514  0.4777
  415MOL0     H56021   6.839   8.248   8.110  0.9585  2.2403 -0.4815
  415MOL0     H56022   6.912   8.117   8.208  4.2678  1.3473 -0.9385
  415MOL0     H56023   7.183   8.448   8.189 -0.5820  0.3773  2.3291
  415MOL0     H56024   6.389   8.452   8.413  0.6195  0.9508  0.9425
  415MOL0     H56025   6.164   8.555   8.487 -1.0725  0.8867  0.5462
  416MOL0     O56026   8.850  10.766   6.173 -0.8773  0.1880 -0.0564
  416MOL0     C56027   8.845  10.890   6.188  0.6693  0.1541  0.8321
  416MOL0     O56028   8.745  10.965   6.234  0.1144 -0.8450  0.5786
  416MOL0     C56029   8.647  10.901   6.311 -0.1615 -0.6389 -0.2190
  416MOL0     C56030   8.516  10.893   6.260  0.7556  0.9427 -0.7141
  416MOL0     C56031   8.420  10.809   6.321 -0.2617 -1.0530  0.4031
  416MOL0     C56032   8.464  10.732   6.424 -0.1905  0.4175  0.1163
  416MOL0     O56033   8.386  10.647   6.492 -0.3314 -0.6350 -0.2425
  416MOL0     C56034   8.254  10.630   6.441 -0.2777  0.1978 -0.2745
  416MOL0     C56035   8.181  10.530   6.546  0.6329 -0.4083  0.4148
  416MOL0     C56036   8.032  10.559   6.544  0.1912 -0.7742 -0.1220
  416MOL0     C56037   7.957  10.483   6.653 -0.6615 -0.1334 -0.2761
  416MOL0     C56038   7.807  10.509   6.665 -0.1576 -0.4120  0.6879
  416MOL0     C56039   7.748  10.392   6.741 -0.3070 -0.1499 -0.1761
  416MOL0     C56040   7.596  10.393   6.751 -0.8485  0.3783  0.6084
  416MOL0     C56041   7.542  10.291   6.848 -0.5411  0.1490  0.7056
  416MOL0     N56042   7.396  10.283   6.853 -0.1046 -0.6026  0.4624
  416MOL0     C56043   7.304  10.329   6.947 -0.6985 -0.2042  0.1110
  416MOL0     C56044   7.179  10.313   6.889 -0.9353 -0.2200  0.3744
  416MOL0     C56045   7.047  10.315   6.965  0.0158 -0.7565 -0.3035
  416MOL0     C56046   6.983  10.454   6.983 -0.1094 -0.8041 -0.2753
  416MOL0     C56047   6.910  10.511   6.870  1.5848  0.4185 -0.0384
  416MOL0     C56048   6.844  10.646   6.869 -0.5004 -0.1290  0.3570
  416MOL0     O56049   6.770  10.662   6.747  0.8338  1.5687 -0.0555
  416MOL0     C56050   6.631  10.686   6.758 -0.5292 -1.0315  0.6905
  416MOL0     C56051   6.577  10.804   6.721  0.2175 -0.1461  0.1653
  416MOL0     C56052   6.434  10.829   6.727 -0.2880  0.2479  0.8059
  416MOL0     C56053   6.388  10.961   6.669 -0.8103 -0.7167  0.0774
  416MOL0     C56054   6.347  10.736   6.777 -0.3437  0.0957 -0.0629
  416MOL0     C56055   6.195  10.755   6.771  0.0069 -0.0157 -0.1595
  416MOL0     O56056   6.120  10.634   6.742  0.3644 -0.9062 -0.0658
  416MOL0     C56057   5.978  10.638   6.731  0.4138  0.2348 -0.3543
  416MOL0     C56058   5.906  10.566   6.823 -0.0312 -0.2455 -0.9998
  416MOL0     C56059   5.769  10.544   6.812 -0.1039 -0.9911 -0.6822
  416MOL0     C56060   5.698  10.618   6.707 -0.6293 -0.8796  0.4015
  416MOL0     O56061   5.567  10.610   6.667  0.2166 -0.3954 -0.3040
  416MOL0     C56062   5.484  10.550   6.767  0.5255  1.0624  0.4362
  416MOL0     C56063   5.337  10.595   6.730  0.8806 -0.6308  0.0454
  416MOL0     C56064   5.242  10.545   6.841  0.2198  0.4582 -0.5244
  416MOL0     C56065   5.101  10.590   6.804 -1.5826 -0.0467  0.1390
  416MOL0     C56066   4.987  10.531   6.885 -0.3341  0.0895 -0.1274
  416MOL0     C56067   4.861  10.544   6.804  0.0734  0.1139  0.6735
  416MOL0     C56068   4.735  10.494   6.872 -0.2413 -0.0652 -0.5658
  416MOL0     C56069   4.704  10.580   7.000  1.7020 -0.4051 -0.0036
  416MOL0    Cl56070   4.525  10.579   7.042  0.2490  0.0355 -0.1593
  416MOL0     C56071   5.771  10.707   6.626 -0.1835 -0.4264 -0.4008
  416MOL0     C56072   5.910  10.709   6.625  0.1900  0.0712 -0.2391
  416MOL0     O56073   6.148  10.866   6.802  0.4392 -0.1792  0.1086
  416MOL0     C56074   6.400  10.605   6.801 -0.1851 -0.0739 -0.4169
  416MOL0     C56075   6.543  10.582   6.800  0.3121  0.1116 -0.3597
  416MOL0     N56076   7.192  10.254   6.766 -0.4186  0.2861 -0.2019
  416MOL0     N56077   7.316  10.228   6.758  0.7896 -0.8058  0.2698
  416MOL0     C56078   8.597  10.739   6.474 -0.3033  0.2726 -0.1489
  416MOL0     C56079   8.691  10.818   6.416  0.3664  0.4375  0.0875
  416MOL0     C56080   8.948  10.968   6.133  0.7400 -0.7254  0.6975
  416MOL0     C56081   9.066  10.912   6.093  0.3888 -0.1977  1.1775
  416MOL0     C56082   9.171  10.985   6.044 -0.2718  0.5934 -0.6510
  416MOL0     C56083   9.155  11.119   6.023  0.2344 -0.4801  0.4708
  416MOL0     O56084   9.254  11.187   5.963 -0.0929  0.2045 -0.2400
  416MOL0     C56085   9.338  11.128   5.868 -0.8731 -0.3282  0.8153
  416MOL0     C56086   9.401  11.240   5.785 -0.9475  0.1111 -0.8530
  416MOL0     C56087   9.473  11.352   5.867  0.0334  0.6269 -0.5751
  416MOL0     C56088   9.610  11.294   5.914  0.8940  0.6402 -0.3011
  416MOL0     C56089   9.686  11.374   6.010  0.2919  0.4834  0.4118
  416MOL0     C56090   9.748  11.434   6.099 -0.4614 -0.3107  0.4637
  416MOL0     C56091   9.042  11.188   6.070  0.5184  0.4760 -0.6523
  416MOL0     C56092   8.936  11.111   6.120  0.8936  0.5171 -0.0152
  416MOL0     H56093   8.483  10.954   6.176  2.5707  3.1724  0.1106
  416MOL0     H56094   8.316  10.814   6.291 -0.8438  1.5252  2.4835
  416MOL0     H56095   8.203  10.726   6.450 -0.7171 -0.1987  2.5211
  416MOL0     H56096   8.244  10.577   6.346  0.2882  1.4458 -1.0648
  416MOL0     H56097   8.209  10.431   6.509  3.6509 -0.0955  1.5802
  416MOL0     H56098   8.226  10.544   6.645  1.9982 -1.5422 -0.0184
  416MOL0     H56099   8.025  10.665   6.568 -0.5242 -0.6034 -1.0381
  416MOL0     H56100   7.995  10.553   6.441  4.4007  0.6598 -1.9421
  416MOL0     H56101   7.978  10.376   6.637  0.4712  0.3876 -2.8243
  416MOL0     H56102   8.007  10.509   6.747  1.3841 -0.2103 -1.2773
  416MOL0     H56103   7.780  10.599   6.721  0.5058  0.1960  0.0524
  416MOL0     H56104   7.755  10.519   6.569 -0.4957 -0.6992  0.8369
  416MOL0     H56105   7.777  10.295   6.701  0.1307 -0.1190  0.0606
  416MOL0     H56106   7.791  10.399   6.842 -0.2183  0.1316 -0.2309
  416MOL0     H56107   7.563  10.491   6.784 -2.9783 -0.3153  0.7086
  416MOL0     H56108   7.548  10.371   6.655 -2.1079 -0.3863  1.3823
  416MOL0     H56109   7.590  10.297   6.946 -0.6433  0.1923  0.7539
  416MOL0     H56110   7.570  10.195   6.805  2.6958  1.1342  0.3803
  416MOL0     H56111   7.324  10.363   7.048  2.6530 -0.9614 -0.1858
  416MOL0     H56112   6.983  10.249   6.905  0.5140 -0.0711 -1.6203
  416MOL0     H56113   7.070  10.284   7.068 -0.3085 -1.5481 -0.4627
  416MOL0     H56114   7.057  10.532   6.999 -0.1090 -1.1022  1.3984
  416MOL0     H56115   6.919  10.447   7.072  0.2636 -3.8743 -0.1450
  416MOL0     H56116   6.831  10.445   6.834 -0.6667  2.1204  1.4987
  416MOL0     H56117   6.978  10.518   6.784 -0.6138  0.6617 -1.8493
  416MOL0     H56118   6.923  10.723   6.869  0.2934 -0.7563 -3.0327
  416MOL0     H56119   6.781  10.653   6.958 -0.6380 -1.1275  0.3399
  416MOL0     H56120   6.640  10.880   6.676 -0.1680 -0.7354 -1.4568
  416MOL0     H56121   6.354  11.021   6.754  0.6922 -0.5948  0.6181
  416MOL0     H56122   6.473  11.011   6.622  1.5481 -2.6644  1.9969
  416MOL0     H56123   6.305  10.955   6.598 -1.4772  2.1637  0.4868
  416MOL0     H56124   5.967  10.516   6.897  1.6123  2.6073 -0.2499
  416MOL0     H56125   5.714  10.479   6.880 -0.8873 -0.8554 -1.1670
  416MOL0     H56126   5.494  10.441   6.755 -2.3659  0.6678  1.0595
  416MOL0     H56127   5.501  10.574   6.872  0.4877  0.7489  0.5143
  416MOL0     H56128   5.328  10.703   6.719  0.8448 -0.3863  2.0654
  416MOL0     H56129   5.314  10.543   6.636  2.3752 -2.4968  0.6326
  416MOL0     H56130   5.259  10.594   6.936  1.3827  1.2054 -1.0999
  416MOL0     H56131   5.255  10.439   6.866  2.6504  0.7283 -0.4859
  416MOL0     H56132   5.091  10.699   6.807 -0.8772  0.0092  2.1077
  416MOL0     H56133   5.090  10.560   6.700  0.6135 -1.1244  0.1618
  416MOL0     H56134   4.977  10.578   6.983  0.4510  1.0915 -0.5195
  416MOL0     H56135   5.014  10.426   6.903 -0.4846 -0.2089 -1.5568
  416MOL0     H56136   4.846  10.650   6.785 -0.3182  0.1275  1.0400
  416MOL0     H56137   4.875  10.488   6.711 -2.1600 -0.8313  0.8392
  416MOL0     H56138   4.735  10.389   6.901 -1.3170  0.5264  1.7921
  416MOL0     H56139   4.654  10.513   6.801 -1.4161 -0.3181  0.6631
  416MOL0     H56140   4.738  10.683   6.987  0.0762  0.1655  0.0033
  416MOL0     H56141   4.768  10.540   7.079  0.4876  0.1479  1.3086
  416MOL0     H56142   5.721  10.757   6.545 -1.1193 -0.6240  0.0491
  416MOL0     H56143   5.968  10.777   6.564  0.5505  0.5800  0.6450
  416MOL0     H56144   6.341  10.517   6.823  1.4528 -1.2980 -0.7402
  416MOL0     H56145   6.572  10.480   6.821 -0.3047 -0.1336 -0.6489
  416MOL0     H56146   8.624  10.679   6.560 -0.5160  2.7224  1.7535
  416MOL0     H56147   8.797  10.827   6.438 -0.4166  0.9270  4.5426
  416MOL0     H56148   9.076  10.804   6.088 -1.6932 -0.4953  2.3475
  416MOL0     H56149   9.264  10.938   6.014  1.1066  2.3377  0.6093
  416MOL0     H56150   9.423  11.076   5.913  1.1988  0.9912 -1.3392
  416MOL0     H56151   9.284  11.063   5.799 -1.6278 -0.8875  1.8909
  416MOL0     H56152   9.325  11.288   5.722 -1.9111  0.4248  0.5055
  416MOL0     H56153   9.472  11.190   5.719  0.8474 -1.3821  2.0131
  416MOL0     H56154   9.407  11.373   5.952 -0.3199  0.6617 -0.8532
  416MOL0     H56155   9.474  11.446   5.810 -0.8689  3.2108  3.2937
  416MOL0     H56156   9.675  11.266   5.830  1.3303 -1.2535  0.6340
  416MOL0     H56157   9.591  11.210   5.981  2.4134  1.5394  1.3489
  416MOL0     H56158   9.791  11.502   6.171  1.0269  0.9381 -1.5126
  416MOL0     H56159   9.030  11.293   6.049  1.7627  1.1811  1.8079
  416MOL0     H56160   8.842  11.162   6.144  1.3067  1.7308 -0.8617
  417MOL0     O56161   1.816  10.061   5.836  0.0003  0.2367 -0.1303
  417MOL0     C56162   1.838  10.077   5.715  0.1337 -0.4438 -0.2742
  417MOL0     O56163   1.744  10.099   5.612 -0.3264 -0.2427  0.6847
  417MOL0     C56164   1.606  10.108   5.645 -0.1522  0.5517  0.1271
  417MOL0     C56165   1.524  10.194   5.573  0.3688 -0.6806 -0.0344
  417MOL0     C56166   1.382  10.202   5.601 -0.0919  0.6478 -0.2124
  417MOL0     C56167   1.326  10.119   5.696 -0.0980  0.1366 -0.4512
  417MOL0     O56168   1.195  10.134   5.735 -0.0615  0.6106  0.5042
  417MOL0     C56169   1.120  10.011   5.742 -0.1063 -0.3449  0.8677
  417MOL0     C56170   0.970  10.038   5.762 -0.5306  0.1771 -0.8342
  417MOL0     C56171   0.918  10.134   5.653  0.1277 -0.1811 -0.3520
  417MOL0     C56172   0.775  10.178   5.663  0.0924 -0.3257  0.2639
  417MOL0     C56173   0.717  10.271   5.554  0.6373  0.8958 -0.2403
  417MOL0     C56174   0.787  10.410   5.567 -0.1115 -0.3737 -0.2262
  417MOL0     C56175   0.750  10.501   5.448  0.6921 -0.7027 -0.1933
  417MOL0     C56176   0.854  10.610   5.414  1.0647  0.2148 -0.4338
  417MOL0     N56177   0.805  10.743   5.375  0.3029 -0.7023  0.4079
  417MOL0     C56178   0.827  10.788   5.250 -0.6695 -0.0758  0.2289
  417MOL0     C56179   0.764  10.906   5.242 -0.5706  1.2659 -0.9254
  417MOL0     C56180   0.741  10.993   5.124  0.5300  0.1428  0.4739
  417MOL0     C56181   0.595  10.957   5.078 -1.1509  0.9515 -0.0374
  417MOL0     C56182   0.511  11.080   5.036 -0.2842  0.2429  0.1204
  417MOL0     C56183   0.368  11.041   5.012  0.3847  0.2830 -0.5893
  417MOL0     O56184   0.348  10.940   4.906 -0.1442  0.3258  0.4767
  417MOL0     C56185   0.285  10.999   4.800 -0.1013  0.2917 -0.1121
  417MOL0     C56186   0.359  11.043   4.687 -0.2895  0.3559 -1.1301
  417MOL0     C56187   0.300  11.091   4.564 -0.6775  0.1431 -0.7533
  417MOL0     C56188   0.392  11.148   4.463 -0.2374  0.5045 -0.5361
  417MOL0     C56189   0.165  11.101   4.560  1.0191  0.6668  0.1642
  417MOL0     C56190   0.088  11.129   4.434 -0.8827 -0.3146 -0.1554
  417MOL0     O56191  -0.014  11.215   4.452  0.6809 -0.7046 -0.5804
  417MOL0     C56192  -0.095  11.238   4.343 -0.2080  0.3694 -0.2050
  417MOL0     C56193  -0.194  11.153   4.297 -1.1908  0.5741  0.2790
  417MOL0     C56194  -0.264  11.163   4.176 -0.4986 -0.0046  0.0535
  417MOL0     C56195  -0.232  11.272   4.095 -0.2827 -0.4668 -0.2401
  417MOL0     O56196  -0.308  11.293   3.983  0.4771  0.1355  0.4616
  417MOL0     C56197  -0.376  11.178   3.920 -0.4973 -0.5551 -0.9627
  417MOL0     C56198  -0.531  11.180   3.962  0.4884 -0.4383 -0.5178
  417MOL0     C56199  -0.590  11.314   3.971 -0.3527 -0.4148 -0.8468
  417MOL0     C56200  -0.607  11.367   3.829 -0.2750 -0.0775  0.1973
  417MOL0     C56201  -0.634  11.518   3.815  0.3690  0.3082 -0.1657
  417MOL0     C56202  -0.510  11.601   3.842 -0.4784  1.1320  0.0443
  417MOL0     C56203  -0.541  11.754   3.852 -0.8002  0.1638 -0.0753
  417MOL0     C56204  -0.617  11.796   3.979  0.0363  1.0302 -0.4128
  417MOL0    Cl56205  -0.513  11.754   4.126 -0.0650  0.2691 -0.3787
  417MOL0     C56206  -0.131  11.366   4.139  0.5985 -0.1001  1.3169
  417MOL0     C56207  -0.063  11.344   4.261 -0.4814  0.1051  0.3999
  417MOL0     O56208   0.117  11.066   4.332 -0.4627  0.3107  0.4192
  417MOL0     C56209   0.091  11.057   4.677 -0.4553 -0.6567  0.2492
  417MOL0     C56210   0.146  11.015   4.795 -0.8129  0.4234 -0.6761
  417MOL0     N56211   0.719  10.937   5.370  0.0701 -0.1007  1.2140
  417MOL0     N56212   0.752  10.846   5.452  0.3137  0.0481  0.1604
  417MOL0     C56213   1.410  10.033   5.770 -0.1048  0.2464  1.0246
  417MOL0     C56214   1.547  10.026   5.740  0.3219 -0.4825 -0.7959
  417MOL0     C56215   1.981  10.058   5.686  0.2113  0.1389  0.9080
  417MOL0     C56216   2.070   9.988   5.766  0.3305  0.7791 -0.0792
  417MOL0     C56217   2.206   9.982   5.732  1.2031  0.2443 -0.7658
  417MOL0     C56218   2.252  10.030   5.610  0.3282  0.5807 -0.2154
  417MOL0     O56219   2.385  10.023   5.575  0.9458 -0.5473 -0.2047
  417MOL0     C56220   2.480  10.012   5.679 -0.5968  0.1896 -0.0746
  417MOL0     C56221   2.497  10.138   5.763  0.3230  0.2853 -0.9692
  417MOL0     C56222   2.636  10.160   5.820  0.0513 -0.9096 -0.2402
  417MOL0     C56223   2.642  10.274   5.922 -0.0715 -0.3564  0.6176
  417MOL0     C56224   2.780  10.277   5.974  0.2844  0.1916  0.4482
  417MOL0     C56225   2.897  10.285   6.022  0.1576  0.4469  0.9327
  417MOL0     C56226   2.164  10.102   5.529  0.2413  0.3529  0.1035
  417MOL0     C56227   2.031  10.112   5.567  1.2919  1.0776  0.9627
  417MOL0     H56228   1.559  10.252   5.488  2.6808  0.0463  1.3377
  417MOL0     H56229   1.330  10.274   5.538 -0.4867  0.7212  0.2017
  417MOL0     H56230   1.124   9.961   5.645 -1.4111 -0.4075  0.8267
  417MOL0     H56231   1.157   9.949   5.825 -1.6742 -1.5250  0.7302
  417MOL0     H56232   0.907   9.949   5.770 -0.7729  0.4251  0.1995
  417MOL0     H56233   0.954  10.093   5.856 -0.4724 -1.5903  0.2437
  417MOL0     H56234   0.983  10.221   5.638  0.0878 -0.4426 -2.2478
  417MOL0     H56235   0.925  10.066   5.567  0.7135  0.3069 -0.6948
  417MOL0     H56236   0.707  10.092   5.654 -0.6693  0.3040 -0.0703
  417MOL0     H56237   0.763  10.210   5.767  0.7602  1.9384 -0.3140
  417MOL0     H56238   0.730  10.232   5.453 -0.5257 -1.2594  0.3773
  417MOL0     H56239   0.611  10.281   5.577  0.6324  1.1044 -0.3454
  417MOL0     H56240   0.759  10.465   5.658  3.7114  1.8021 -0.1765
  417MOL0     H56241   0.896  10.404   5.573 -0.0426  0.8168  0.0331
  417MOL0     H56242   0.731  10.448   5.354 -0.7053 -1.1282  0.3013
  417MOL0     H56243   0.658  10.553   5.477  1.7584  0.6947  0.8390
  417MOL0     H56244   0.927  10.574   5.341 -0.1245 -0.2941 -1.4197
  417MOL0     H56245   0.907  10.630   5.507 -1.3702  5.2056  0.1786
  417MOL0     H56246   0.879  10.737   5.169 -1.5244  1.6748 -1.4797
  417MOL0     H56247   0.738  11.099   5.149  0.3546  1.0297 -2.9065
  417MOL0     H56248   0.814  10.965   5.048  0.1709  0.7356 -0.1056
  417MOL0     H56249   0.541  10.900   5.154 -1.8745 -2.2912 -2.7580
  417MOL0     H56250   0.614  10.904   4.984  0.4861  3.2426 -1.1000
  417MOL0     H56251   0.538  11.125   4.940  0.6773 -0.6232 -0.0222
  417MOL0     H56252   0.515  11.157   5.114  1.3717  2.7375 -2.2189
  417MOL0     H56253   0.298  11.124   5.000 -0.9166 -0.5273  1.1084
  417MOL0     H56254   0.325  11.000   5.104 -2.0089 -0.6014 -2.0231
  417MOL0     H56255   0.461  11.007   4.685  0.0517  1.3051 -1.2753
  417MOL0     H56256   0.381  11.106   4.362  0.2445 -0.3609 -0.2460
  417MOL0     H56257   0.376  11.256   4.463 -4.1638  0.1263  2.0924
  417MOL0     H56258   0.496  11.125   4.487  0.4213  2.4467 -1.3469
  417MOL0     H56259  -0.223  11.068   4.358 -2.7138  1.2160  0.4715
  417MOL0     H56260  -0.342  11.092   4.150 -1.2277  0.8251 -0.0945
  417MOL0     H56261  -0.365  11.177   3.811  0.5744 -0.0846 -0.8712
  417MOL0     H56262  -0.344  11.074   3.931  0.0647 -0.2267  0.7963
  417MOL0     H56263  -0.574  11.138   3.870 -0.2335 -1.1903  0.1537
  417MOL0     H56264  -0.564  11.123   4.049 -0.7521 -0.1481 -0.7688
  417MOL0     H56265  -0.534  11.382   4.036 -2.2815  0.4287  0.0023
  417MOL0     H56266  -0.690  11.301   4.015  0.4462  0.6247  1.4202
  417MOL0     H56267  -0.512  11.345   3.780  0.9690 -0.3473  2.6074
  417MOL0     H56268  -0.690  11.323   3.773 -1.1241  1.6897 -0.0071
  417MOL0     H56269  -0.713  11.553   3.882 -0.1780  0.4769 -0.8799
  417MOL0     H56270  -0.671  11.553   3.718  3.0236  1.2473 -0.9244
  417MOL0     H56271  -0.460  11.564   3.931 -1.6662 -2.0856 -0.5044
  417MOL0     H56272  -0.439  11.578   3.762  0.3437 -1.1183  1.3435
  417MOL0     H56273  -0.602  11.790   3.769  1.6979 -1.2872 -2.7204
  417MOL0     H56274  -0.448  11.811   3.850 -1.0718  0.6197  0.1178
  417MOL0     H56275  -0.710  11.739   3.984  0.2508  0.5131 -1.8437
  417MOL0     H56276  -0.635  11.904   3.975  1.2159  1.3546  1.4463
  417MOL0     H56277  -0.104  11.444   4.068 -3.0363 -2.6196 -3.4601
  417MOL0     H56278   0.015  11.419   4.274 -2.9702  3.8197 -3.4237
  417MOL0     H56279  -0.017  11.069   4.676 -0.2916  1.5846 -2.2267
  417MOL0     H56280   0.079  10.986   4.875 -2.1761 -1.7728 -2.5059
  417MOL0     H56281   1.368   9.983   5.857  2.1237 -1.7942  1.0298
  417MOL0     H56282   1.605   9.971   5.814  0.4793  1.1760  0.3566
  417MOL0     H56283   2.042   9.950   5.864 -0.6223  0.2563 -0.5313
  417MOL0     H56284   2.258   9.923   5.806 -0.8475 -0.6862  0.0201
  417MOL0     H56285   2.477   9.918   5.735  0.8910  0.2833  0.2021
  417MOL0     H56286   2.573  10.009   5.623 -2.0248  0.5999 -2.5910
  417MOL0     H56287   2.431  10.142   5.850  2.2873  0.4768  0.5766
  417MOL0     H56288   2.486  10.221   5.694 -3.1992 -0.5624 -1.6136
  417MOL0     H56289   2.705  10.189   5.741 -2.1665  2.8588 -1.0567
  417MOL0     H56290   2.667  10.062   5.859  3.2541 -0.4424 -1.4033
  417MOL0     H56291   2.574  10.265   6.008 -1.9299  2.8870 -0.3585
  417MOL0     H56292   2.621  10.373   5.881 -0.5608 -0.7176 -0.0148
  417MOL0     H56293   2.993  10.268   6.068 -0.1654  1.2621  1.9467
  417MOL0     H56294   2.200  10.157   5.443  2.2272 -0.3265  0.4423
  417MOL0     H56295   1.970  10.165   5.494  0.6443 -2.0056 -0.9168
  418MOL0     O56296   1.577   1.677  10.302 -0.4561 -0.0412  1.0207
  418MOL0     C56297   1.485   1.753  10.324 -0.0948  0.0318 -0.1994
  418MOL0     O56298   1.354   1.732  10.318 -0.1719 -0.8250  0.1665
  418MOL0     C56299   1.308   1.608  10.290  0.1399  0.2324 -0.0065
  418MOL0     C56300   1.192   1.604  10.221  0.1859  0.2059 -0.2144
  418MOL0     C56301   1.134   1.477  10.204 -0.2208 -0.7819 -0.2699
  418MOL0     C56302   1.194   1.362  10.261  0.1709 -0.3913 -0.7645
  418MOL0     O56303   1.146   1.230  10.256  0.2471 -0.3584 -0.5274
  418MOL0     C56304   1.010   1.208  10.221  0.4633  0.2046  0.7347
  418MOL0     C56305   0.920   1.220  10.341  0.1691 -0.0642  0.1703
  418MOL0     C56306   0.959   1.115  10.455  0.4568  0.2360  0.2926
  418MOL0     C56307   0.888   1.149  10.592 -0.1523 -0.3634  0.7331
  418MOL0     C56308   0.867   1.045  10.701  0.0083 -0.1443  0.5017
  418MOL0     C56309   0.786   0.919  10.657 -0.0404 -0.9879 -0.7933
  418MOL0     C56310   0.754   0.845  10.781  0.6821 -0.0542 -0.6815
  418MOL0     C56311   0.874   0.792  10.856 -0.1346 -0.1754 -0.3480
  418MOL0     N56312   0.832   0.679  10.933  0.4618 -0.7190 -1.0539
  418MOL0     C56313   0.734   0.676  11.030 -0.3118  0.2630  0.3126
  418MOL0     C56314   0.685   0.552  11.040 -0.4330  0.0958  0.8348
  418MOL0     C56315   0.593   0.505  11.147  0.9707  0.1518 -0.9918
  418MOL0     C56316   0.531   0.363  11.103 -0.3181 -0.0425 -0.5672
  418MOL0     C56317   0.441   0.302  11.208 -0.2330 -1.3272 -0.5282
  418MOL0     C56318   0.352   0.402  11.276  0.3833 -0.4895 -0.0775
  418MOL0     O56319   0.256   0.450  11.179 -0.1930  0.0845  0.3935
  418MOL0     C56320   0.137   0.495  11.225 -0.6786  0.3698  0.4157
  418MOL0     C56321   0.113   0.577  11.340  0.4549  0.0450 -0.3117
  418MOL0     C56322  -0.014   0.624  11.362 -0.4055  0.7421 -0.0601
  418MOL0     C56323  -0.023   0.716  11.479  0.3651 -0.1620  0.2167
  418MOL0     C56324  -0.133   0.577  11.293 -0.2127 -0.7008  0.1088
  418MOL0     C56325  -0.277   0.598  11.326  0.0567 -0.2165 -1.3185
  418MOL0     O56326  -0.370   0.523  11.249  0.7514 -0.2484 -0.3726
  418MOL0     C56327  -0.500   0.538  11.274  0.4015  0.3260 -0.0984
  418MOL0     C56328  -0.577   0.626  11.198 -0.1879  0.5408 -0.4667
  418MOL0     C56329  -0.712   0.613  11.206  0.2684 -0.3165  0.2526
  418MOL0     C56330  -0.778   0.532  11.298  0.6111 -0.3466 -1.2503
  418MOL0     O56331  -0.914   0.539  11.288 -0.3289 -0.6170  0.3596
  418MOL0     C56332  -0.986   0.463  11.394 -0.0483  0.2222 -0.1848
  418MOL0     C56333  -1.137   0.504  11.379  0.6095 -0.7283  0.4678
  418MOL0     C56334  -1.218   0.480  11.508 -0.2646  0.7232 -0.3738
  418MOL0     C56335  -1.346   0.564  11.512  0.1816  0.1674 -0.3248
  418MOL0     C56336  -1.442   0.518  11.626  0.0515 -0.9866 -0.7802
  418MOL0     C56337  -1.555   0.632  11.644  0.0653 -0.3907  0.5107
  418MOL0     C56338  -1.655   0.591  11.750 -0.0589  0.1679  0.9186
  418MOL0     C56339  -1.747   0.697  11.795 -0.4401  0.3584 -0.7321
  418MOL0    Cl56340  -1.864   0.630  11.899  0.1512 -0.0796  0.0100
  418MOL0     C56341  -0.702   0.447  11.385  0.4164 -0.0848 -0.2384
  418MOL0     C56342  -0.560   0.449  11.367  0.8018 -0.6490  0.3243
  418MOL0     O56343  -0.308   0.661  11.425 -0.3482  0.4139 -0.1465
  418MOL0     C56344  -0.104   0.497  11.184 -0.7118 -0.1675  0.4199
  418MOL0     C56345   0.032   0.476  11.135  0.7151 -1.1318 -0.3288
  418MOL0     N56346   0.756   0.478  10.948  0.2629  0.2355  0.5554
  418MOL0     N56347   0.848   0.548  10.892  0.1093 -0.3841 -0.1471
  418MOL0     C56348   1.309   1.376  10.340  0.7222 -0.4149 -0.8054
  418MOL0     C56349   1.368   1.503  10.357  0.0551  0.4772  1.0802
  418MOL0     C56350   1.523   1.896  10.357 -0.2817 -0.2222 -0.4624
  418MOL0     C56351   1.427   1.994  10.394  0.4596 -0.3720  0.2347
  418MOL0     C56352   1.464   2.127  10.413 -0.3463  0.4992  0.5886
  418MOL0     C56353   1.598   2.157  10.423 -0.5914  0.3803  0.2660
  418MOL0     O56354   1.640   2.289  10.456 -0.0083  0.6095 -0.1058
  418MOL0     C56355   1.784   2.322  10.447 -0.6661  0.0993 -0.0794
  418MOL0     C56356   1.881   2.270  10.563  0.1043 -0.4130  0.2680
  418MOL0     C56357   2.026   2.325  10.541 -0.8114 -0.0712 -0.4896
  418MOL0     C56358   2.111   2.266  10.653 -0.2188  0.2631 -0.0704
  418MOL0     C56359   2.219   2.355  10.692  0.1378 -0.4947 -0.9133
  418MOL0     C56360   2.299   2.442  10.722  0.5012 -0.2114  0.6877
  418MOL0     C56361   1.691   2.063  10.394 -0.3957  0.4299 -0.5485
  418MOL0     C56362   1.657   1.932  10.370 -0.2065 -0.0537  0.6070
  418MOL0     H56363   1.145   1.686  10.167  0.7801 -0.1858 -1.3564
  418MOL0     H56364   1.038   1.470  10.153 -1.0972  1.4919  0.9562
  418MOL0     H56365   0.972   1.269  10.140 -1.5755 -1.7081  0.1642
  418MOL0     H56366   1.002   1.101  10.198  0.4316 -0.1029  2.0714
  418MOL0     H56367   0.917   1.323  10.377  0.1952 -0.1289  0.3610
  418MOL0     H56368   0.818   1.208  10.304 -0.6501  3.0779  1.1281
  418MOL0     H56369   0.921   1.018  10.422 -2.4669  1.4517 -0.1786
  418MOL0     H56370   1.068   1.105  10.465  0.3187 -1.4191  0.3430
  418MOL0     H56371   0.949   1.232  10.629  1.5867 -0.8569 -0.8751
  418MOL0     H56372   0.793   1.196  10.566  0.5010  0.8926  0.4968
  418MOL0     H56373   0.959   1.010  10.749  1.2331  0.4789 -1.3112
  418MOL0     H56374   0.815   1.092  10.785 -0.7315 -0.5506  0.2827
  418MOL0     H56375   0.695   0.952  10.607  1.2144  1.0597 -1.8955
  418MOL0     H56376   0.846   0.856  10.591 -1.1227 -1.7611 -1.0717
  418MOL0     H56377   0.689   0.910  10.840  0.6080  0.2295 -1.0739
  418MOL0     H56378   0.688   0.766  10.742  0.5230 -0.1458 -0.2415
  418MOL0     H56379   0.917   0.862  10.928 -0.5086 -1.9058  1.6556
  418MOL0     H56380   0.942   0.758  10.778 -0.8073  0.5643 -1.2940
  418MOL0     H56381   0.703   0.748  11.105  0.3332 -0.8617  1.7159
  418MOL0     H56382   0.646   0.489  11.241  0.6359  0.4443 -0.7527
  418MOL0     H56383   0.514   0.581  11.157 -1.2775 -2.1708  0.0316
  418MOL0     H56384   0.617   0.301  11.081  0.1856  0.8429 -1.1518
  418MOL0     H56385   0.476   0.374  11.009  0.8124 -4.7823 -2.0589
  418MOL0     H56386   0.504   0.255  11.284 -1.0413 -1.4785  0.0571
  418MOL0     H56387   0.384   0.218  11.168 -3.8958 -0.8080  2.9867
  418MOL0     H56388   0.406   0.481  11.329 -2.0922  1.2988 -0.0615
  418MOL0     H56389   0.300   0.347  11.355  1.3913  0.6606  1.4366
  418MOL0     H56390   0.198   0.597  11.406  0.9574 -1.4418 -0.4714
  418MOL0     H56391  -0.025   0.818  11.439  2.3458 -1.1433 -2.7788
  418MOL0     H56392  -0.100   0.692  11.553  1.6753 -4.2078  0.5486
  418MOL0     H56393   0.054   0.701  11.556 -1.4966  1.0258  2.4444
  418MOL0     H56394  -0.518   0.694  11.137  2.6360 -2.4596 -1.3166
  418MOL0     H56395  -0.774   0.681  11.149 -1.8970 -2.1622  0.2263
  418MOL0     H56396  -0.976   0.354  11.393 -2.9260 -0.1422 -1.8452
  418MOL0     H56397  -0.949   0.498  11.491 -0.3238 -0.6849  0.2630
  418MOL0     H56398  -1.139   0.611  11.356 -0.1904 -0.6067  1.0596
  418MOL0     H56399  -1.176   0.437  11.301  1.8726  0.7724 -1.5588
  418MOL0     H56400  -1.145   0.516  11.580 -0.6990 -2.0556  1.6188
  418MOL0     H56401  -1.231   0.371  11.514  3.8227  0.1466  1.7619
  418MOL0     H56402  -1.325   0.672  11.517  0.2793  0.2208 -1.5249
  418MOL0     H56403  -1.401   0.551  11.419 -0.1532 -1.1558  0.0393
  418MOL0     H56404  -1.395   0.510  11.725  0.6304  0.6423 -0.8983
  418MOL0     H56405  -1.482   0.422  11.591 -0.2928 -0.7240 -1.0988
  418MOL0     H56406  -1.513   0.731  11.661  1.4466 -0.7485 -0.7083
  418MOL0     H56407  -1.608   0.637  11.549 -0.5182  1.0982  0.8857
  418MOL0     H56408  -1.608   0.546  11.838  0.9458 -2.1507 -0.7085
  418MOL0     H56409  -1.712   0.511  11.701 -1.7203  2.6212 -1.5038
  418MOL0     H56410  -1.789   0.746  11.707 -1.7319  0.6186  0.0032
  418MOL0     H56411  -1.699   0.779  11.850  0.0147  1.7462 -3.0537
  418MOL0     H56412  -0.748   0.381  11.457  2.3499  0.9907  2.1448
  418MOL0     H56413  -0.487   0.388  11.419  2.2680  0.5849 -0.2165
  418MOL0     H56414  -0.177   0.449  11.118 -2.4297  2.1804  0.4833
  418MOL0     H56415   0.051   0.412  11.049 -0.3456 -0.3940 -1.1440
  418MOL0     H56416   1.358   1.287  10.379  0.9423  1.3810  3.7156
  418MOL0     H56417   1.455   1.516  10.421  0.3451  1.1069  0.5681
  418MOL0     H56418   1.324   1.960  10.403  0.1490  0.5501  0.2599
  418MOL0     H56419   1.391   2.200  10.447  1.1903  1.5964  1.6305
  418MOL0     H56420   1.816   2.305  10.344 -1.8433 -1.7419 -0.1974
  418MOL0     H56421   1.788   2.429  10.468  1.6557 -0.1196  0.8884
  418MOL0     H56422   1.878   2.161  10.567 -0.8223 -0.3698  1.1317
  418MOL0     H56423   1.843   2.314  10.656  0.0436  1.5077 -0.6161
  418MOL0     H56424   2.034   2.433  10.532  0.9770 -0.2256 -1.1034
  418MOL0     H56425   2.072   2.284  10.450  1.9998  2.2886 -0.2893
  418MOL0     H56426   2.149   2.170  10.615  0.6377  0.0745  1.1959
  418MOL0     H56427   2.064   2.251  10.750  0.1311  2.5260  0.5138
  418MOL0     H56428   2.372   2.517  10.743 -0.1125 -0.2298  3.1807
  418MOL0     H56429   1.798   2.079  10.381 -0.0347 -1.7696 -0.7601
  418MOL0     H56430   1.738   1.859  10.367 -3.2984 -3.7922  0.7239
  419MOL0     O56431   9.144   5.267   3.409  0.3646 -0.0297 -0.0889
  419MOL0     C56432   9.116   5.322   3.519  0.4306  0.8607 -0.1482
  419MOL0     O56433   9.199   5.362   3.611 -0.0188 -0.0912  0.2040
  419MOL0     C56434   9.332   5.335   3.601  0.6130 -0.5704  0.3953
  419MOL0     C56435   9.419   5.424   3.664  0.2359 -0.1194  0.2559
  419MOL0     C56436   9.557   5.407   3.653  0.1722  0.0381 -0.2254
  419MOL0     C56437   9.605   5.305   3.571  0.4836  0.3447  0.4459
  419MOL0     O56438   9.737   5.296   3.564  0.1889 -0.2965  0.1203
  419MOL0     C56439   9.788   5.264   3.434 -0.3499 -0.2986  0.1517
  419MOL0     C56440   9.928   5.325   3.412  0.1170 -0.4503 -0.3322
  419MOL0     C56441  10.032   5.267   3.508  0.0716 -0.4104 -0.2518
  419MOL0     C56442  10.176   5.314   3.474  0.3328  0.5147 -0.5943
  419MOL0     C56443  10.274   5.270   3.590  0.0883 -0.5235 -0.2960
  419MOL0     C56444  10.425   5.298   3.546 -0.0700  0.5185  0.1472
  419MOL0     C56445  10.537   5.264   3.649 -0.4384  0.0970 -0.9554
  419MOL0     C56446  10.528   5.333   3.791 -0.3532  1.0211  0.3770
  419MOL0     N56447  10.637   5.272   3.867 -0.0306 -0.0542  0.0071
  419MOL0     C56448  10.630   5.154   3.939  0.1111 -0.3963 -0.2286
  419MOL0     C56449  10.759   5.115   3.960 -0.2603 -1.1074 -0.1602
  419MOL0     C56450  10.807   4.989   4.029 -0.6889 -1.1544  0.4848
  419MOL0     C56451  10.701   4.877   4.023  0.1193  0.4349 -0.0216
  419MOL0     C56452  10.716   4.794   4.153 -0.0360  0.3879 -0.1302
  419MOL0     C56453  10.640   4.850   4.272  0.3069 -0.3367  0.0652
  419MOL0     O56454  10.503   4.864   4.244  0.5169 -0.3122 -0.4202
  419MOL0     C56455  10.425   4.929   4.339 -0.2590  0.3393 -0.2638
  419MOL0     C56456  10.472   5.015   4.432  0.0729 -0.1417  0.2142
  419MOL0     C56457  10.388   5.081   4.523 -0.2719 -0.2758 -0.4555
  419MOL0     C56458  10.442   5.184   4.616 -0.4816 -0.0590 -0.6201
  419MOL0     C56459  10.245   5.058   4.508 -0.4286  0.4047  0.0968
  419MOL0     C56460  10.145   5.132   4.594 -0.7839  0.4337  0.3636
  419MOL0     O56461  10.029   5.172   4.529  0.0805  0.3583 -0.4286
  419MOL0     C56462   9.926   5.241   4.596  0.4144 -0.1464 -0.3711
  419MOL0     C56463   9.824   5.175   4.655  0.4781  0.2375 -0.9888
  419MOL0     C56464   9.742   5.240   4.750 -0.4599 -0.3030  0.4099
  419MOL0     C56465   9.759   5.377   4.771 -0.5717 -0.6862 -0.5728
  419MOL0     O56466   9.662   5.436   4.848  0.2001 -0.1688 -0.1116
  419MOL0     C56467   9.698   5.534   4.935 -0.2755  0.9943 -0.4518
  419MOL0     C56468   9.587   5.566   5.029  0.6140  0.0026 -0.2270
  419MOL0     C56469   9.561   5.451   5.133 -0.8350 -0.3998  0.8724
  419MOL0     C56470   9.481   5.333   5.075 -0.2579 -0.0045  0.1884
  419MOL0     C56471   9.341   5.369   5.011  0.0340  0.1513 -0.0388
  419MOL0     C56472   9.221   5.413   5.104  0.3710  0.5068  0.5612
  419MOL0     C56473   9.098   5.444   5.013 -0.4372  0.2708  0.2589
  419MOL0     C56474   8.978   5.487   5.101 -0.1044  0.4216  0.0653
  419MOL0    Cl56475   8.839   5.500   4.987  0.0855  0.1871  0.4398
  419MOL0     C56476   9.861   5.449   4.708 -0.7701  0.8068 -0.0277
  419MOL0     C56477   9.947   5.376   4.619 -0.3119 -0.4536 -0.1870
  419MOL0     O56478  10.173   5.152   4.707  0.2971 -0.4308 -0.3973
  419MOL0     C56479  10.200   4.960   4.412 -0.3656  0.5683 -0.3836
  419MOL0     C56480  10.291   4.897   4.331 -0.3726 -0.6637 -0.0695
  419MOL0     N56481  10.842   5.201   3.892  0.2878  0.2249  0.0331
  419MOL0     N56482  10.769   5.296   3.841 -0.3854 -0.5068  0.2650
  419MOL0     C56483   9.516   5.220   3.505  0.0360  0.3705 -0.0700
  419MOL0     C56484   9.380   5.225   3.526 -0.3604  0.7919  0.4436
  419MOL0     C56485   8.992   5.386   3.536  0.9675  0.1325  0.0318
  419MOL0     C56486   8.909   5.425   3.425 -0.2934 -0.3922 -0.4395
  419MOL0     C56487   8.794   5.504   3.445 -0.3773  0.3039 -0.2791
  419MOL0     C56488   8.748   5.533   3.573 -0.8472 -0.4461  0.2125
  419MOL0     O56489   8.629   5.600   3.597 -0.1546 -0.3127 -0.1192
  419MOL0     C56490   8.544   5.534   3.694  0.4932 -0.0014  0.1799
  419MOL0     C56491   8.395   5.581   3.663  0.2568 -0.5276  0.3554
  419MOL0     C56492   8.345   5.539   3.522  0.6835 -0.8232  0.5311
  419MOL0     C56493   8.209   5.599   3.470 -0.8991 -0.1297  0.3372
  419MOL0     C56494   8.101   5.566   3.564 -0.1469  0.3149 -0.4638
  419MOL0     C56495   8.003   5.535   3.634 -0.6183 -0.4454  0.3616
  419MOL0     C56496   8.831   5.487   3.681  0.3221 -0.8753  0.5533
  419MOL0     C56497   8.952   5.426   3.663 -0.0131  0.2104  0.6582
  419MOL0     H56498   9.381   5.510   3.718  1.3999 -0.4448  1.6762
  419MOL0     H56499   9.616   5.474   3.714 -1.3375 -0.2767  1.6665
  419MOL0     H56500   9.790   5.155   3.427  1.6401 -0.1828 -1.9237
  419MOL0     H56501   9.718   5.298   3.357  0.9228 -1.3268 -1.4970
  419MOL0     H56502   9.960   5.324   3.307 -0.1477 -0.5863 -0.4118
  419MOL0     H56503   9.924   5.433   3.430 -2.4634 -0.5580  0.1606
  419MOL0     H56504  10.013   5.299   3.611 -2.4515  1.1277 -1.1033
  419MOL0     H56505  10.022   5.158   3.513 -2.4950 -0.2785 -0.9672
  419MOL0     H56506  10.203   5.263   3.381  0.8459 -1.2251  0.4671
  419MOL0     H56507  10.183   5.418   3.439 -2.1581  0.4668 -1.4802
  419MOL0     H56508  10.245   5.333   3.675  1.9406  0.4922 -0.3664
  419MOL0     H56509  10.269   5.163   3.610  0.4838 -0.1319  2.2208
  419MOL0     H56510  10.443   5.231   3.462  1.8091  2.1636 -0.8597
  419MOL0     H56511  10.446   5.399   3.508 -0.9544  0.1459 -1.3874
  419MOL0     H56512  10.529   5.159   3.678 -3.9064  1.0580  2.5038
  419MOL0     H56513  10.632   5.288   3.601 -0.1108 -0.6810 -0.7156
  419MOL0     H56514  10.438   5.325   3.852 -1.2793  1.4813 -0.9011
  419MOL0     H56515  10.543   5.441   3.775  1.0253  0.3622 -3.9294
  419MOL0     H56516  10.538   5.105   3.968 -0.1895  0.8349  0.9971
  419MOL0     H56517  10.900   4.951   3.985 -0.8770 -2.3921  1.1085
  419MOL0     H56518  10.826   5.015   4.134 -0.0432 -3.0621  0.8844
  419MOL0     H56519  10.716   4.818   3.932  1.3797 -0.6449  0.8413
  419MOL0     H56520  10.603   4.924   4.018  1.2919  3.1584  0.5556
  419MOL0     H56521  10.822   4.777   4.176  0.4316  2.2917 -0.7571
  419MOL0     H56522  10.670   4.695   4.144  1.7945 -0.3353 -2.5745
  419MOL0     H56523  10.683   4.949   4.290 -0.6547  0.2816 -0.9304
  419MOL0     H56524  10.653   4.785   4.360  0.6666 -2.3087 -1.3776
  419MOL0     H56525  10.578   5.038   4.442  0.2263 -0.9522  0.5653
  419MOL0     H56526  10.375   5.271   4.618  1.4416  1.4976  1.2962
  419MOL0     H56527  10.431   5.142   4.717 -1.5206  0.2817 -0.5696
  419MOL0     H56528  10.546   5.205   4.593 -0.3814  0.2613  0.0817
  419MOL0     H56529   9.819   5.071   4.624  1.7721 -0.3852  0.7301
  419MOL0     H56530   9.651   5.190   4.783 -1.9414  0.3279 -2.3510
  419MOL0     H56531   9.786   5.503   4.992  0.8935  1.5849 -1.8546
  419MOL0     H56532   9.722   5.627   4.881 -3.1188  1.6175 -0.7983
  419MOL0     H56533   9.615   5.653   5.089  0.3101  1.2254 -1.7908
  419MOL0     H56534   9.503   5.605   4.970  1.0648  3.2017  1.0009
  419MOL0     H56535   9.503   5.499   5.212 -3.2899 -1.9608  0.1012
  419MOL0     H56536   9.658   5.420   5.174 -0.0335 -0.1680 -0.7857
  419MOL0     H56537   9.548   5.280   5.008  0.2005 -0.8973  1.3304
  419MOL0     H56538   9.457   5.266   5.158 -2.4775 -1.0206 -1.1892
  419MOL0     H56539   9.305   5.274   4.969  2.4910 -1.0367  0.3817
  419MOL0     H56540   9.350   5.435   4.924 -0.2260 -0.4417 -0.5221
  419MOL0     H56541   9.202   5.335   5.178  0.6156  0.3015  0.4090
  419MOL0     H56542   9.258   5.503   5.154 -0.9213  0.2557  2.0601
  419MOL0     H56543   9.058   5.351   4.973 -1.6809  2.3765 -3.9890
  419MOL0     H56544   9.121   5.516   4.934 -0.5927  0.1604  0.1158
  419MOL0     H56545   9.004   5.577   5.157 -0.5137  0.2362  0.5677
  419MOL0     H56546   8.949   5.406   5.169  0.3520 -1.5812 -1.9793
  419MOL0     H56547   9.862   5.557   4.716 -1.3699  1.1749 -3.4259
  419MOL0     H56548  10.021   5.430   4.561  0.7119 -1.4177  0.1890
  419MOL0     H56549  10.095   4.935   4.413 -0.7454  2.0960  0.8250
  419MOL0     H56550  10.249   4.822   4.266 -2.2584  1.0557 -0.9197
  419MOL0     H56551   9.555   5.150   3.432 -0.4406  0.0225  0.0035
  419MOL0     H56552   9.316   5.144   3.493 -1.3786  0.9149  2.0052
  419MOL0     H56553   8.933   5.414   3.320 -1.1276  0.9188 -0.8006
  419MOL0     H56554   8.738   5.549   3.363 -0.7126 -0.9285 -0.7399
  419MOL0     H56555   8.559   5.426   3.702  0.7304  0.1440  2.1142
  419MOL0     H56556   8.566   5.571   3.795  0.1141 -0.1796  0.3321
  419MOL0     H56557   8.392   5.689   3.674 -4.1773 -0.1733 -1.8476
  419MOL0     H56558   8.326   5.540   3.738 -0.8629 -2.5090 -1.6252
  419MOL0     H56559   8.324   5.431   3.528 -0.4337 -0.5997  0.8562
  419MOL0     H56560   8.420   5.580   3.454  1.3324 -0.6954  1.3049
  419MOL0     H56561   8.180   5.557   3.374 -0.9364  0.6930 -0.0210
  419MOL0     H56562   8.222   5.706   3.453  0.5466 -0.6163 -2.0853
  419MOL0     H56563   7.911   5.502   3.677  0.8932 -2.2723  2.4579
  419MOL0     H56564   8.795   5.502   3.783  0.3965  0.8434  0.3544
  419MOL0     H56565   9.014   5.408   3.750 -0.0035 -2.1764  0.2281
  420MOL0     O56566   2.745   9.728   6.313 -0.1001  0.2553 -0.1826
  420MOL0     C56567   2.796   9.617   6.327  0.1797 -1.1980 -0.0019
  420MOL0     O56568   2.729   9.503   6.342 -0.5669  0.0432 -0.5791
  420MOL0     C56569   2.591   9.482   6.337  0.5353  0.3417  0.5343
  420MOL0     C56570   2.539   9.340   6.341 -0.0299  0.1291  0.4743
  420MOL0     C56571   2.401   9.301   6.321 -0.2947  0.2543 -0.6465
  420MOL0     C56572   2.306   9.405   6.303 -0.2552 -0.1880 -0.2219
  420MOL0     O56573   2.171   9.388   6.294  0.0773  0.0960 -0.6036
  420MOL0     C56574   2.120   9.261   6.241 -0.2721 -0.2892 -0.3630
  420MOL0     C56575   1.972   9.245   6.266 -0.2595  0.1720  1.1406
  420MOL0     C56576   1.875   9.335   6.180 -1.0481  0.6107 -0.2392
  420MOL0     C56577   1.731   9.315   6.240  0.7782 -0.0875 -0.5863
  420MOL0     C56578   1.649   9.428   6.179 -0.0780 -0.7430 -0.0437
  420MOL0     C56579   1.500   9.405   6.189  0.1593  0.4078 -0.8429
  420MOL0     C56580   1.412   9.517   6.136 -0.3765 -1.1311  1.2504
  420MOL0     C56581   1.268   9.484   6.142 -0.0928 -0.5272 -0.1027
  420MOL0     N56582   1.173   9.602   6.116  0.2979  0.3608 -0.1317
  420MOL0     C56583   1.082   9.601   6.012  1.5149  0.0148  0.6797
  420MOL0     C56584   1.005   9.709   6.047  0.2141  0.3714 -0.6499
  420MOL0     C56585   0.891   9.744   5.961 -0.1360 -0.8727 -0.1441
  420MOL0     C56586   0.754   9.674   5.976 -0.1917  0.4020 -0.5581
  420MOL0     C56587   0.647   9.715   5.884  0.2933 -0.4662  0.1662
  420MOL0     C56588   0.512   9.643   5.932 -1.4116 -0.2032  1.0372
  420MOL0     O56589   0.456   9.724   6.029 -0.4219 -0.6690 -0.1732
  420MOL0     C56590   0.324   9.707   6.038  0.6264 -0.8037  0.6263
  420MOL0     C56591   0.248   9.814   6.094  0.3405  0.4395  0.1510
  420MOL0     C56592   0.113   9.810   6.103 -0.5775 -0.2840  0.4687
  420MOL0     C56593   0.050   9.934   6.147 -0.0171  1.4889 -1.3108
  420MOL0     C56594   0.040   9.689   6.073 -0.5202  0.4241 -0.2468
  420MOL0     C56595  -0.100   9.662   6.099 -0.1864 -0.0135 -0.0864
  420MOL0     O56596  -0.167   9.563   6.032 -0.2924 -0.2062  0.3799
  420MOL0     C56597  -0.233   9.463   6.100  0.1750 -1.0859 -0.3226
  420MOL0     C56598  -0.186   9.403   6.218  0.0769 -0.0183 -0.2203
  420MOL0     C56599  -0.263   9.301   6.282 -0.4507  0.3321 -0.4954
  420MOL0     C56600  -0.377   9.250   6.219 -0.0183  0.2442 -0.6188
  420MOL0     O56601  -0.428   9.134   6.275 -0.1986 -0.6158  0.0059
  420MOL0     C56602  -0.544   9.142   6.367 -0.0048  0.0906 -0.0788
  420MOL0     C56603  -0.586   9.002   6.425 -0.0219  0.6923  0.6737
  420MOL0     C56604  -0.618   8.894   6.317  0.6670 -0.2287  0.4207
  420MOL0     C56605  -0.495   8.815   6.269 -0.0997  0.6396 -0.3827
  420MOL0     C56606  -0.528   8.678   6.207  0.6857 -0.9333 -0.1002
  420MOL0     C56607  -0.404   8.603   6.159 -0.1974  0.4692 -0.2530
  420MOL0     C56608  -0.437   8.466   6.084  0.1974 -0.7462 -0.0371
  420MOL0     C56609  -0.312   8.424   6.002  0.2255 -0.2350  0.2664
  420MOL0    Cl56610  -0.149   8.454   6.087 -0.0399 -0.0036  0.0499
  420MOL0     C56611  -0.427   9.311   6.109  0.0118  0.7433 -0.6329
  420MOL0     C56612  -0.354   9.412   6.042 -0.5572  1.0921 -0.3490
  420MOL0     O56613  -0.149   9.716   6.199  0.0000 -0.4069  0.4493
  420MOL0     C56614   0.113   9.585   6.015 -0.6299  0.2770  0.4092
  420MOL0     C56615   0.254   9.588   6.007  0.1849 -0.5070 -0.0897
  420MOL0     N56616   1.033   9.757   6.174 -0.2292  0.5679  0.3671
  420MOL0     N56617   1.137   9.699   6.210 -0.5995  0.5179  0.2341
  420MOL0     C56618   2.354   9.537   6.316 -0.4039  0.2813 -0.2305
  420MOL0     C56619   2.490   9.570   6.339  0.0008  0.1417 -0.5772
  420MOL0     C56620   2.943   9.619   6.317 -0.8178 -0.0998  0.8346
  420MOL0     C56621   3.022   9.504   6.350  0.7584 -0.6408  0.4466
  420MOL0     C56622   3.156   9.516   6.385 -0.5196  0.5161  0.3966
  420MOL0     C56623   3.229   9.640   6.360 -0.1091  0.9278 -0.5846
  420MOL0     O56624   3.359   9.658   6.381 -0.1080  0.5164  0.1044
  420MOL0     C56625   3.434   9.547   6.431  0.7555 -0.4028  0.2433
  420MOL0     C56626   3.562   9.595   6.493 -0.4473 -0.2341 -0.8018
  420MOL0     C56627   3.643   9.683   6.396 -0.4637 -0.1282 -0.1113
  420MOL0     C56628   3.788   9.703   6.456 -0.2536 -0.6268 -0.1611
  420MOL0     C56629   3.780   9.788   6.577  1.3924  0.7160  0.4635
  420MOL0     C56630   3.772   9.852   6.681 -0.2976  0.2493  0.0805
  420MOL0     C56631   3.155   9.741   6.309  0.1445 -0.3551  0.7558
  420MOL0     C56632   3.014   9.736   6.290  0.0909 -0.5345 -0.8054
  420MOL0     H56633   2.617   9.264   6.339  1.9172  2.0627 -0.7147
  420MOL0     H56634   2.384   9.194   6.308 -0.9423  0.5222 -2.2573
  420MOL0     H56635   2.133   9.253   6.132 -1.8639 -1.4101 -0.5083
  420MOL0     H56636   2.168   9.174   6.286 -1.0345 -0.3861  0.2840
  420MOL0     H56637   1.932   9.146   6.243  1.3710 -0.2161 -0.1708
  420MOL0     H56638   1.954   9.260   6.373  0.3038 -1.8863  1.5596
  420MOL0     H56639   1.888   9.444   6.186 -2.1135  0.6916  0.9702
  420MOL0     H56640   1.884   9.306   6.075 -2.6229 -1.1696  0.0651
  420MOL0     H56641   1.691   9.219   6.205  0.4951 -0.6366  1.1631
  420MOL0     H56642   1.728   9.333   6.348  0.1233 -0.0277 -0.6084
  420MOL0     H56643   1.687   9.515   6.233  0.9099 -2.8675  2.9397
  420MOL0     H56644   1.668   9.441   6.072  1.5810  0.3050  0.3407
  420MOL0     H56645   1.471   9.312   6.139  1.3413  0.5851 -1.8821
  420MOL0     H56646   1.469   9.403   6.294 -0.8672 -0.5313 -1.1408
  420MOL0     H56647   1.440   9.608   6.191 -1.0052 -1.0251  1.4122
  420MOL0     H56648   1.438   9.551   6.036 -1.0506 -0.1789  1.3789
  420MOL0     H56649   1.256   9.446   6.244 -2.1280 -0.4855 -0.2891
  420MOL0     H56650   1.257   9.404   6.069  2.5855  0.6318 -1.9390
  420MOL0     H56651   1.079   9.532   5.928  3.1141  1.3538 -0.5557
  420MOL0     H56652   0.878   9.852   5.976  0.8749 -0.4463 -2.0035
  420MOL0     H56653   0.932   9.728   5.861  1.6337 -1.2568  0.6023
  420MOL0     H56654   0.715   9.687   6.077 -0.6657 -3.2499 -0.1093
  420MOL0     H56655   0.765   9.565   5.977  1.6589  0.5509 -0.3052
  420MOL0     H56656   0.675   9.674   5.787 -1.3833 -1.8546  0.2249
  420MOL0     H56657   0.638   9.824   5.887  1.8076 -0.1553 -3.0613
  420MOL0     H56658   0.534   9.542   5.969 -0.6582 -0.6409 -0.5201
  420MOL0     H56659   0.444   9.634   5.847 -0.2423  0.9412 -0.0491
  420MOL0     H56660   0.312   9.896   6.124  2.3763 -1.2412  0.7175
  420MOL0     H56661   0.032   9.920   6.254 -1.3669 -1.2126 -1.7934
  420MOL0     H56662   0.114  10.022   6.149  1.4463  0.4712 -1.5993
  420MOL0     H56663  -0.044   9.954   6.093 -2.0596 -1.8472  0.6763
  420MOL0     H56664  -0.093   9.451   6.249  0.0036  0.6681 -1.0304
  420MOL0     H56665  -0.229   9.257   6.376 -1.0379 -2.7906 -1.6157
  420MOL0     H56666  -0.516   9.205   6.452  4.2521 -1.1998 -0.2926
  420MOL0     H56667  -0.628   9.187   6.313 -1.9734  0.7148  3.2109
  420MOL0     H56668  -0.510   8.965   6.495 -1.2200 -0.7668  1.2494
  420MOL0     H56669  -0.680   9.014   6.479 -1.4223 -3.7633 -0.3756
  420MOL0     H56670  -0.662   8.938   6.227  3.1887  0.6768 -0.4845
  420MOL0     H56671  -0.688   8.820   6.356 -0.5041  0.4016 -0.4081
  420MOL0     H56672  -0.425   8.880   6.215  1.2472 -0.5673 -0.1579
  420MOL0     H56673  -0.441   8.789   6.360  0.6301  1.9175 -0.4274
  420MOL0     H56674  -0.589   8.697   6.118  1.1522  2.0872  0.1467
  420MOL0     H56675  -0.571   8.601   6.273  0.2057  0.4833  1.2885
  420MOL0     H56676  -0.352   8.668   6.088  0.7974 -1.4734 -1.3904
  420MOL0     H56677  -0.343   8.582   6.247 -0.1176 -1.7001 -0.7678
  420MOL0     H56678  -0.523   8.466   6.017 -1.3526 -1.3551  1.8452
  420MOL0     H56679  -0.462   8.388   6.157 -0.4065 -0.5144  0.0105
  420MOL0     H56680  -0.325   8.480   5.910 -0.7466 -0.8336  0.0284
  420MOL0     H56681  -0.326   8.316   5.992 -2.8558 -0.3096  3.3599
  420MOL0     H56682  -0.525   9.276   6.078  0.8294 -2.1974 -0.1972
  420MOL0     H56683  -0.385   9.469   5.956  3.0308  3.0936 -0.5224
  420MOL0     H56684   0.063   9.489   5.997 -2.0237  1.5873 -4.1032
  420MOL0     H56685   0.302   9.496   5.973 -2.5839 -1.3860 -1.9915
  420MOL0     H56686   2.291   9.623   6.298  3.0322  2.5407 -2.5978
  420MOL0     H56687   2.518   9.673   6.358  2.0191 -0.6233  0.9994
  420MOL0     H56688   2.971   9.409   6.356  1.3267 -0.9104  1.0638
  420MOL0     H56689   3.206   9.427   6.421  3.2470  1.9395 -0.8062
  420MOL0     H56690   3.387   9.484   6.507  4.7727  0.9051  4.3056
  420MOL0     H56691   3.445   9.485   6.342 -3.1671 -0.4592 -0.3748
  420MOL0     H56692   3.630   9.513   6.516 -0.9006  0.0039  1.6019
  420MOL0     H56693   3.531   9.646   6.585  1.3479 -1.4127  0.5148
  420MOL0     H56694   3.591   9.778   6.375 -2.0474 -1.7581 -4.9654
  420MOL0     H56695   3.650   9.651   6.292 -0.4736  0.7937 -0.4047
  420MOL0     H56696   3.855   9.752   6.385  0.1639  0.7847  1.1602
  420MOL0     H56697   3.822   9.602   6.478 -0.5291 -0.4726  1.0959
  420MOL0     H56698   3.770   9.905   6.775  2.0612  1.7796 -0.6447
  420MOL0     H56699   3.206   9.837   6.304 -1.1248  0.4883  2.7178
  420MOL0     H56700   2.963   9.826   6.259  0.4375 -0.1770 -0.3457
  421MOL0     O56701   4.103   7.554   7.308  0.1554 -0.2835  0.1256
  421MOL0     C56702   4.027   7.646   7.334 -0.4934  0.2219  0.5339
  421MOL0     O56703   3.910   7.627   7.394  0.3810 -0.3740 -0.5404
  421MOL0     C56704   3.884   7.534   7.492 -0.3254 -0.4882  0.3771
  421MOL0     C56705   3.747   7.483   7.510  0.7080 -0.6508 -0.8583
  421MOL0     C56706   3.719   7.392   7.603 -0.0543  0.3633  0.4793
  421MOL0     C56707   3.814   7.345   7.696 -0.1379  0.2662  0.1132
  421MOL0     O56708   3.770   7.251   7.785 -0.7190  0.1674 -0.5331
  421MOL0     C56709   3.836   7.250   7.919 -0.0352  0.2562  1.0615
  421MOL0     C56710   3.820   7.113   7.988  1.2125 -0.8987  0.5169
  421MOL0     C56711   3.900   7.104   8.118  0.1993 -0.5782 -0.6162
  421MOL0     C56712   3.890   6.956   8.164  0.0397 -0.3871 -0.5988
  421MOL0     C56713   3.954   6.931   8.310 -0.5112  0.7338  0.9545
  421MOL0     C56714   3.861   6.994   8.420  0.0828 -0.0709  0.3836
  421MOL0     C56715   3.713   6.963   8.404 -0.4851  0.8347 -0.0737
  421MOL0     C56716   3.625   7.009   8.521 -1.0733 -0.4023 -0.5572
  421MOL0     N56717   3.480   6.984   8.502 -0.5382  0.2162 -0.1142
  421MOL0     C56718   3.431   6.863   8.469  0.9647 -0.2163  0.2837
  421MOL0     C56719   3.294   6.884   8.467  0.3610  0.2773 -0.2737
  421MOL0     C56720   3.201   6.774   8.429  0.0117 -0.4241  0.3081
  421MOL0     C56721   3.170   6.682   8.542  0.6160 -0.2345  0.2996
  421MOL0     C56722   3.124   6.763   8.670 -0.0620  0.4185 -0.2132
  421MOL0     C56723   3.009   6.862   8.659  0.5573  0.0174  0.4459
  421MOL0     O56724   2.916   6.802   8.579 -0.3670 -0.0860  0.2592
  421MOL0     C56725   2.790   6.850   8.583 -0.1502 -0.8444  0.9384
  421MOL0     C56726   2.743   6.957   8.656  0.9629  0.6594 -0.1074
  421MOL0     C56727   2.608   6.995   8.645  0.3711  0.2556 -0.0198
  421MOL0     C56728   2.574   7.129   8.715  0.2563  0.5694 -0.1134
  421MOL0     C56729   2.524   6.916   8.563 -0.1975 -0.3716 -0.1130
  421MOL0     C56730   2.378   6.953   8.543 -0.7485  0.0155  0.3366
  421MOL0     O56731   2.326   7.049   8.618  0.3788  0.1896 -0.0030
  421MOL0     C56732   2.194   7.081   8.600  0.0666 -0.1528  0.4945
  421MOL0     C56733   2.094   7.011   8.664  0.3959 -0.5271  0.0896
  421MOL0     C56734   1.962   7.052   8.659  0.3544 -1.2226  0.0008
  421MOL0     C56735   1.932   7.170   8.593 -1.2624 -0.4463  0.3786
  421MOL0     O56736   1.810   7.230   8.602 -0.0016  0.7772  0.6119
  421MOL0     C56737   1.718   7.216   8.716 -0.3095  0.2568  0.3568
  421MOL0     C56738   1.632   7.345   8.715 -0.4003  0.2505  0.2748
  421MOL0     C56739   1.513   7.326   8.807  0.0797  0.1400  0.2307
  421MOL0     C56740   1.417   7.442   8.810 -0.3041 -0.3429  0.1856
  421MOL0     C56741   1.286   7.419   8.877  0.8345 -0.1616  0.1956
  421MOL0     C56742   1.222   7.563   8.884  0.1119  0.1694 -0.3038
  421MOL0     C56743   1.082   7.570   8.956 -0.2980 -0.1220  1.2535
  421MOL0     C56744   1.006   7.709   8.917  0.3988 -0.0536 -0.8149
  421MOL0    Cl56745   0.944   7.706   8.756 -0.6860 -0.5849 -0.3431
  421MOL0     C56746   2.031   7.244   8.514  0.1105 -0.4971  0.1684
  421MOL0     C56747   2.161   7.194   8.525  0.0093 -0.1740 -0.3568
  421MOL0     O56748   2.310   6.883   8.468 -0.1626  0.5645 -0.0263
  421MOL0     C56749   2.580   6.811   8.488 -0.0757 -0.0686  0.0956
  421MOL0     C56750   2.711   6.785   8.496 -0.4143  0.3127  0.0887
  421MOL0     N56751   3.262   7.017   8.497 -0.2710  0.5675  0.0919
  421MOL0     N56752   3.377   7.073   8.512 -0.0905 -0.2715 -0.5210
  421MOL0     C56753   3.946   7.399   7.687  0.4208  0.3699  1.0859
  421MOL0     C56754   3.978   7.493   7.587  0.1771 -0.0591  0.2142
  421MOL0     C56755   4.059   7.783   7.290  0.2992  0.7988  0.8240
  421MOL0     C56756   4.147   7.807   7.191 -0.4018  0.2358 -0.0648
  421MOL0     C56757   4.178   7.938   7.145 -0.2900  0.7907  0.0372
  421MOL0     C56758   4.103   8.045   7.188 -0.0730 -0.7872  0.3745
  421MOL0     O56759   4.118   8.169   7.122  0.5459  0.0579  0.4006
  421MOL0     C56760   4.021   8.274   7.133 -0.9170 -0.1348 -0.2076
  421MOL0     C56761   3.885   8.233   7.071 -0.3048  0.6803 -0.6557
  421MOL0     C56762   3.811   8.362   7.028  0.0410  0.4245 -0.1172
  421MOL0     C56763   3.687   8.339   6.934 -0.7684 -0.5398 -0.5254
  421MOL0     C56764   3.633   8.459   6.878  0.0503 -0.6150  0.0981
  421MOL0     C56765   3.592   8.570   6.839  0.9763  0.0783  0.3550
  421MOL0     C56766   4.008   8.019   7.299  0.1974 -0.0702  0.0497
  421MOL0     C56767   3.988   7.890   7.342 -0.4820 -0.0592 -0.3615
  421MOL0     H56768   3.663   7.529   7.458 -0.0906  2.5023  2.7563
  421MOL0     H56769   3.616   7.361   7.611  0.0283 -0.1178 -0.2181
  421MOL0     H56770   3.945   7.256   7.909  0.6692  0.1966  6.0700
  421MOL0     H56771   3.799   7.331   7.983 -3.1169 -0.0378 -0.1833
  421MOL0     H56772   3.716   7.098   8.019  0.4461  1.1563 -0.8309
  421MOL0     H56773   3.844   7.029   7.922  0.1884 -1.8368  1.2930
  421MOL0     H56774   4.005   7.125   8.101  0.3868 -0.5220  0.5178
  421MOL0     H56775   3.863   7.166   8.200 -0.2041 -0.6918 -0.7081
  421MOL0     H56776   3.785   6.927   8.167 -0.1765  0.3931 -0.5275
  421MOL0     H56777   3.944   6.890   8.094 -1.1895 -2.6655  0.4795
  421MOL0     H56778   3.966   6.823   8.325  1.4491  0.9899  1.5274
  421MOL0     H56779   4.053   6.977   8.315  0.6268 -1.5932  1.6806
  421MOL0     H56780   3.885   6.958   8.520  0.9473  1.1891  0.6463
  421MOL0     H56781   3.869   7.103   8.426 -2.6830  0.1431  2.2893
  421MOL0     H56782   3.675   7.013   8.315  1.6191 -1.6901 -2.5832
  421MOL0     H56783   3.710   6.853   8.399  5.0363  0.4212 -0.0239
  421MOL0     H56784   3.624   7.118   8.518  1.3513 -0.2522  1.1064
  421MOL0     H56785   3.657   6.974   8.620 -3.4167  1.3157  0.9135
  421MOL0     H56786   3.502   6.782   8.454  2.8987  1.0139  2.1044
  421MOL0     H56787   3.103   6.813   8.400  0.6044  1.4260  0.6921
  421MOL0     H56788   3.230   6.714   8.342 -2.8641 -0.7728 -0.5274
  421MOL0     H56789   3.265   6.642   8.579  2.4964  2.0590 -1.7184
  421MOL0     H56790   3.101   6.604   8.508 -0.3440 -0.2956  2.2012
  421MOL0     H56791   3.209   6.805   8.724  0.4306 -1.2607  0.3851
  421MOL0     H56792   3.084   6.699   8.748 -1.8004  1.6779 -0.0103
  421MOL0     H56793   3.051   6.950   8.609  1.2334 -1.7547 -2.3146
  421MOL0     H56794   2.967   6.887   8.757  0.5116  2.0191 -0.0522
  421MOL0     H56795   2.807   7.010   8.727  0.8004 -1.3730  1.6372
  421MOL0     H56796   2.494   7.098   8.784  0.6291  2.0657  1.0446
  421MOL0     H56797   2.648   7.162   8.788 -0.9210 -1.1998  2.0077
  421MOL0     H56798   2.542   7.215   8.656  0.8003  0.9287  0.1085
  421MOL0     H56799   2.115   6.936   8.740  1.5003 -0.8905 -0.5528
  421MOL0     H56800   1.879   6.999   8.705  0.5614 -0.0479  1.8423
  421MOL0     H56801   1.659   7.124   8.711 -0.2553  0.2816 -1.0226
  421MOL0     H56802   1.783   7.202   8.803 -1.6814  0.6559  1.4807
  421MOL0     H56803   1.692   7.430   8.748  1.9369 -2.1105  2.6502
  421MOL0     H56804   1.611   7.358   8.609  0.3307 -0.7504 -0.0152
  421MOL0     H56805   1.554   7.300   8.905 -0.6200 -1.2710  0.1777
  421MOL0     H56806   1.456   7.235   8.787 -0.9644  1.2533 -2.2403
  421MOL0     H56807   1.471   7.526   8.854 -1.7124  1.9407 -2.1725
  421MOL0     H56808   1.394   7.469   8.707 -0.0709 -2.6475 -0.5439
  421MOL0     H56809   1.306   7.374   8.975  0.5897 -3.7306 -1.2501
  421MOL0     H56810   1.216   7.355   8.822 -0.7245  3.8324 -2.9277
  421MOL0     H56811   1.290   7.628   8.941  1.5435 -1.9240  0.4875
  421MOL0     H56812   1.219   7.615   8.788  1.2663  0.8633  0.0162
  421MOL0     H56813   1.089   7.574   9.065 -1.7216  0.6526  1.3482
  421MOL0     H56814   1.027   7.482   8.920  0.2682  1.2135 -3.5752
  421MOL0     H56815   1.080   7.789   8.920  0.3344  0.1635 -3.0302
  421MOL0     H56816   0.923   7.724   8.986  1.9766  0.6924  1.0086
  421MOL0     H56817   2.002   7.323   8.446  0.2763 -1.1575 -0.6883
  421MOL0     H56818   2.245   7.245   8.480 -0.6245  0.7568 -0.5205
  421MOL0     H56819   2.515   6.764   8.415  2.1565 -1.0368 -1.3540
  421MOL0     H56820   2.756   6.715   8.427 -0.2079 -0.5171  1.0356
  421MOL0     H56821   4.022   7.374   7.761 -1.6498 -2.2242  2.5069
  421MOL0     H56822   4.077   7.539   7.581 -0.3964  1.1919 -0.0088
  421MOL0     H56823   4.199   7.724   7.145 -0.4706  0.2278 -0.1291
  421MOL0     H56824   4.243   7.941   7.058  0.2647 -1.4071  0.3045
  421MOL0     H56825   4.013   8.295   7.240 -0.0449 -1.6182  0.1827
  421MOL0     H56826   4.060   8.366   7.088 -4.7868  0.4740 -2.7739
  421MOL0     H56827   3.826   8.177   7.144  0.0888 -0.8458 -1.4771
  421MOL0     H56828   3.915   8.170   6.987 -0.2627  1.4519 -1.2308
  421MOL0     H56829   3.888   8.416   6.973  1.1859 -2.9011 -2.0936
  421MOL0     H56830   3.776   8.418   7.115  0.2098  1.0773 -0.4647
  421MOL0     H56831   3.614   8.272   6.980  0.3902 -1.4480  0.0455
  421MOL0     H56832   3.720   8.284   6.844 -0.4270 -1.6480  0.2537
  421MOL0     H56833   3.553   8.659   6.794 -2.5358 -2.3919 -2.0409
  421MOL0     H56834   3.943   8.094   7.344 -2.2693 -1.3755 -1.1562
  421MOL0     H56835   3.920   7.891   7.427  0.4772  1.2864  0.4390
  422MOL0     O56836   6.145  10.105   9.928 -0.3016 -0.3064 -0.3867
  422MOL0     C56837   6.229  10.131   9.835  0.7531 -0.7914 -0.0529
  422MOL0     O56838   6.199  10.210   9.722  0.3543  0.4246 -0.2993
  422MOL0     C56839   6.076  10.267   9.725 -0.6363 -0.4465 -0.1830
  422MOL0     C56840   5.962  10.191   9.710  0.7405 -0.2060 -0.9441
  422MOL0     C56841   5.831  10.241   9.698 -0.2881 -0.5656  0.4896
  422MOL0     C56842   5.815  10.384   9.717 -0.0220 -0.0243  1.1987
  422MOL0     O56843   5.700  10.449   9.703  0.7161  0.4915 -0.0660
  422MOL0     C56844   5.592  10.395   9.784  0.3907 -0.2000  0.1466
  422MOL0     C56845   5.461  10.409   9.709  0.3606  0.2095 -0.5349
  422MOL0     C56846   5.343  10.363   9.803 -0.4542 -0.3083  1.0883
  422MOL0     C56847   5.226  10.322   9.723 -0.6175 -0.4095  0.6589
  422MOL0     C56848   5.110  10.284   9.809 -0.8120  0.3254 -0.1248
  422MOL0     C56849   4.982  10.288   9.729  0.0896  0.5200  0.6452
  422MOL0     C56850   4.857  10.259   9.815 -0.2747 -0.9339 -0.4080
  422MOL0     C56851   4.829  10.108   9.844  0.9012  0.2156  1.1526
  422MOL0     N56852   4.691  10.084   9.887 -0.0934  0.7690  0.4248
  422MOL0     C56853   4.583  10.099   9.805 -0.5165  0.2640 -0.0970
  422MOL0     C56854   4.477  10.077   9.884 -1.2417 -0.5195  0.0476
  422MOL0     C56855   4.335  10.115   9.862 -0.2004 -0.2128 -0.4863
  422MOL0     C56856   4.227  10.010   9.864 -0.0051  0.0227  0.4298
  422MOL0     C56857   4.250   9.899   9.758  0.8933  0.3006 -0.2114
  422MOL0     C56858   4.145   9.793   9.771 -0.2776 -0.0795  0.1306
  422MOL0     O56859   4.017   9.836   9.715 -0.2133 -0.1181  0.0428
  422MOL0     C56860   3.924   9.740   9.699 -0.2730  0.7712 -0.4713
  422MOL0     C56861   3.803   9.784   9.647  0.2319 -0.2026  0.0270
  422MOL0     C56862   3.694   9.698   9.650 -0.5745  0.1197 -0.2187
  422MOL0     C56863   3.565   9.760   9.609 -0.0946  0.1463 -0.3405
  422MOL0     C56864   3.705   9.571   9.695  0.3438  0.3395 -0.7494
  422MOL0     C56865   3.592   9.465   9.692  0.6687  0.3340 -0.1049
  422MOL0     O56866   3.475   9.495   9.753  0.1377 -0.0451 -0.1012
  422MOL0     C56867   3.372   9.407   9.747  0.2510 -0.0558 -1.0223
  422MOL0     C56868   3.336   9.349   9.627  0.1098 -0.0100 -0.3391
  422MOL0     C56869   3.232   9.256   9.621  0.0203 -0.3135 -0.3035
  422MOL0     C56870   3.142   9.247   9.731  0.0076  0.0185 -0.3430
  422MOL0     O56871   3.030   9.173   9.717 -0.8254 -0.7026 -0.3981
  422MOL0     C56872   3.039   9.045   9.775 -0.0949 -0.4727  0.0471
  422MOL0     C56873   2.911   8.961   9.761 -0.7404 -0.0043 -0.8773
  422MOL0     C56874   2.812   8.962   9.877 -0.5732  0.4808  1.0882
  422MOL0     C56875   2.735   9.088   9.893  0.8059 -1.0686 -0.4514
  422MOL0     C56876   2.661   9.102  10.021  0.0814 -0.6450  0.0504
  422MOL0     C56877   2.536   9.193  10.012  1.8856  0.9144  0.4383
  422MOL0     C56878   2.443   9.197  10.141  0.5643  0.2258 -0.1447
  422MOL0     C56879   2.389   9.060  10.169  0.1660 -0.0596 -0.2598
  422MOL0    Cl56880   2.310   9.081  10.326  0.2861  0.5604 -0.1851
  422MOL0     C56881   3.175   9.311   9.848 -0.4437 -0.1509  0.0788
  422MOL0     C56882   3.287   9.390   9.859 -0.0729  0.5920 -0.6837
  422MOL0     O56883   3.620   9.347   9.655 -0.3156  0.0928 -0.2325
  422MOL0     C56884   3.826   9.529   9.750 -0.2093  0.6085  1.2918
  422MOL0     C56885   3.935   9.605   9.742  0.3474 -0.1802 -0.4819
  422MOL0     N56886   4.524  10.031  10.008 -0.0176 -0.9175 -0.2131
  422MOL0     N56887   4.650  10.036  10.005 -0.7054  0.2670 -0.7275
  422MOL0     C56888   5.938  10.454   9.734  0.9224  0.6830  0.1517
  422MOL0     C56889   6.064  10.398   9.738  0.0755 -0.4169 -0.5818
  422MOL0     C56890   6.368  10.077   9.843  0.2030 -0.0105 -0.7278
  422MOL0     C56891   6.457  10.113   9.741  0.1016  0.2128  0.3792
  422MOL0     C56892   6.587  10.066   9.741  0.2921  0.6695  0.2083
  422MOL0     C56893   6.631   9.980   9.840 -0.4556 -0.1787 -0.4808
  422MOL0     O56894   6.753   9.917   9.850  0.1215 -1.0078 -0.2178
  422MOL0     C56895   6.859   9.959   9.774 -0.3518  0.3855  0.4474
  422MOL0     C56896   6.909  10.107   9.781  0.3557  0.7385  0.2167
  422MOL0     C56897   6.948  10.158   9.928  0.5062  0.1525  0.3477
  422MOL0     C56898   6.833  10.212  10.019 -0.2195 -0.0824 -0.1568
  422MOL0     C56899   6.830  10.356  10.027  0.0711  0.1212  0.2575
  422MOL0     C56900   6.825  10.476  10.020  0.7413  0.4784 -0.5698
  422MOL0     C56901   6.550   9.955   9.950  0.2151 -0.6350 -0.9773
  422MOL0     C56902   6.417  10.002   9.950  0.8282 -1.2639 -0.5455
  422MOL0     H56903   5.968  10.083   9.700  1.5728 -0.1503 -1.1435
  422MOL0     H56904   5.746  10.175   9.686 -1.8827  1.3361  0.6665
  422MOL0     H56905   5.612  10.288   9.789  0.6789 -0.2587 -1.6282
  422MOL0     H56906   5.580  10.450   9.878  2.6512 -0.7302  0.8064
  422MOL0     H56907   5.441  10.510   9.674 -2.3779  0.2760  1.0068
  422MOL0     H56908   5.483  10.346   9.622 -2.3794 -0.7984 -0.5798
  422MOL0     H56909   5.359  10.285   9.877 -0.2454  0.5275  1.9321
  422MOL0     H56910   5.308  10.452   9.855 -1.6314 -0.4295  0.5381
  422MOL0     H56911   5.196  10.395   9.648  0.2227 -0.0837  0.6285
  422MOL0     H56912   5.264  10.238   9.664  0.7557  1.8799 -1.9581
  422MOL0     H56913   5.110  10.190   9.864 -2.6296  0.1078 -0.4332
  422MOL0     H56914   5.101  10.368   9.878 -0.4727  0.1563  0.1312
  422MOL0     H56915   4.970  10.389   9.690  0.1598  0.3217  0.1083
  422MOL0     H56916   4.987  10.210   9.653 -0.1639  1.0435  0.0831
  422MOL0     H56917   4.869  10.304   9.914 -0.3496 -1.1787 -0.2844
  422MOL0     H56918   4.770  10.301   9.764 -0.5470  0.7360  1.3130
  422MOL0     H56919   4.899  10.055   9.909  0.2401 -1.8387  0.2834
  422MOL0     H56920   4.848  10.054   9.751  1.0032  3.7889 -1.0766
  422MOL0     H56921   4.579  10.138   9.704  0.8194 -2.1082 -1.1294
  422MOL0     H56922   4.312  10.199   9.928  0.0783  2.7806 -3.9084
  422MOL0     H56923   4.320  10.164   9.765  2.0055  0.9736 -0.2941
  422MOL0     H56924   4.129  10.050   9.838 -0.3163 -1.2788 -0.4890
  422MOL0     H56925   4.207   9.971   9.964 -1.0198 -0.7909 -0.0723
  422MOL0     H56926   4.344   9.847   9.777  0.5562 -0.1794  0.1494
  422MOL0     H56927   4.244   9.948   9.661  1.5272  0.7983 -0.0087
  422MOL0     H56928   4.132   9.767   9.877 -2.3845 -0.6258 -0.2131
  422MOL0     H56929   4.182   9.707   9.715 -0.0747  1.4689 -2.2223
  422MOL0     H56930   3.802   9.886   9.609 -1.5736 -0.5269 -0.8662
  422MOL0     H56931   3.525   9.825   9.688 -0.1599 -0.1731 -0.1103
  422MOL0     H56932   3.569   9.811   9.512 -2.0352 -4.9871 -3.5411
  422MOL0     H56933   3.490   9.684   9.585  0.6876  0.2898 -3.8352
  422MOL0     H56934   3.392   9.363   9.535  2.0933  0.9110  0.9334
  422MOL0     H56935   3.215   9.195   9.533 -0.4948 -0.2839 -0.2264
  422MOL0     H56936   3.120   8.996   9.720 -0.8942  0.6331 -2.2141
  422MOL0     H56937   3.066   9.057   9.881  0.6670 -0.1846 -0.1727
  422MOL0     H56938   2.858   8.988   9.670 -0.3112  0.5267 -0.9684
  422MOL0     H56939   2.941   8.855   9.758 -2.0506 -0.4468  0.2058
  422MOL0     H56940   2.856   8.930   9.972 -1.3963  0.7090  1.5566
  422MOL0     H56941   2.741   8.881   9.860 -0.9410  0.8886  0.6999
  422MOL0     H56942   2.788   9.181   9.868  2.1710 -1.5717  0.4453
  422MOL0     H56943   2.655   9.086   9.819 -0.6409  1.1335  0.9321
  422MOL0     H56944   2.735   9.130  10.097  0.3801 -1.9033  0.2510
  422MOL0     H56945   2.629   9.001  10.049 -1.6438 -0.1496 -0.0088
  422MOL0     H56946   2.560   9.298   9.995  2.8119  0.1790 -4.1369
  422MOL0     H56947   2.482   9.151   9.927  1.6321 -4.7554  2.9427
  422MOL0     H56948   2.373   9.281  10.138 -0.4268 -0.5511  0.3675
  422MOL0     H56949   2.494   9.226  10.233 -1.6069  1.2718  0.8223
  422MOL0     H56950   2.458   8.976  10.185 -1.2239 -1.1820  0.0914
  422MOL0     H56951   2.317   9.032  10.092  1.8037  1.3450 -2.4374
  422MOL0     H56952   3.103   9.322   9.929 -2.7202 -1.0410 -1.6884
  422MOL0     H56953   3.316   9.443   9.949  2.2957  0.9117 -1.5608
  422MOL0     H56954   3.832   9.428   9.790  0.0433  0.5572  1.1243
  422MOL0     H56955   4.030   9.559   9.766  0.7583  0.2864 -1.1909
  422MOL0     H56956   5.927  10.561   9.748  0.0094  0.6964 -0.5681
  422MOL0     H56957   6.160  10.450   9.733 -0.2929  0.3379 -0.0334
  422MOL0     H56958   6.429  10.188   9.667 -1.6716 -1.2070 -0.4522
  422MOL0     H56959   6.641  10.092   9.650 -2.6154 -1.6769 -2.4303
  422MOL0     H56960   6.952   9.903   9.788 -0.5717  0.1258  0.8945
  422MOL0     H56961   6.840   9.946   9.667 -0.3792  3.6736 -0.0429
  422MOL0     H56962   6.836  10.177   9.740 -1.0874  0.0972  1.6074
  422MOL0     H56963   7.002  10.111   9.724  0.5080  0.3298  0.4342
  422MOL0     H56964   7.031  10.229   9.932  0.3243  0.3172  2.1472
  422MOL0     H56965   6.980  10.068   9.981  0.4937  1.0476  1.9280
  422MOL0     H56966   6.869  10.175  10.116  2.0830 -1.0561 -1.2980
  422MOL0     H56967   6.738  10.165   9.993  0.1667 -1.5303  0.9286
  422MOL0     H56968   6.827  10.583  10.018  0.4354  0.5214  0.6097
  422MOL0     H56969   6.592   9.910  10.039  3.1695  3.1606 -0.2011
  422MOL0     H56970   6.334   9.990  10.019 -0.4170  0.5559 -1.6402
  423MOL0     O56971   1.247   9.957   4.611 -0.5980 -0.8728 -0.3588
  423MOL0     C56972   1.300  10.029   4.701 -0.2447  1.2133  0.7003
  423MOL0     O56973   1.254  10.149   4.744  0.4899 -0.4999 -0.4146
  423MOL0     C56974   1.128  10.190   4.714 -0.0034 -0.3420 -0.6634
  423MOL0     C56975   1.115  10.329   4.711  0.5968 -0.7715 -1.0232
  423MOL0     C56976   0.993  10.391   4.681  0.8922 -0.1745 -0.0199
  423MOL0     C56977   0.875  10.313   4.656 -0.0635  0.5067 -0.2948
  423MOL0     O56978   0.751  10.359   4.639  0.1721 -0.1028  0.2751
  423MOL0     C56979   0.742  10.485   4.581 -0.1696 -0.3199  0.7128
  423MOL0     C56980   0.595  10.509   4.547 -0.8362 -0.3094 -0.4067
  423MOL0     C56981   0.537  10.408   4.449  0.2183  0.6013 -0.2155
  423MOL0     C56982   0.421  10.461   4.374  0.2628 -0.2440 -0.6248
  423MOL0     C56983   0.376  10.359   4.258  0.0830 -0.0292  0.0772
  423MOL0     C56984   0.253  10.406   4.188  0.6320 -0.4917  0.4634
  423MOL0     C56985   0.192  10.303   4.094 -0.1469 -0.2612  0.7502
  423MOL0     C56986   0.055  10.364   4.051  0.0345  0.2799 -0.2042
  423MOL0     N56987  -0.035  10.257   3.990  0.0454 -0.0046 -0.3592
  423MOL0     C56988  -0.119  10.171   4.068 -0.4416 -0.1770  0.6340
  423MOL0     C56989  -0.205  10.126   3.982 -0.1771 -0.7812  0.1458
  423MOL0     C56990  -0.305  10.026   4.020 -0.1287 -0.0493  0.0001
  423MOL0     C56991  -0.424  10.081   4.106  0.2030  0.3177  0.0149
  423MOL0     C56992  -0.501  10.198   4.045 -0.3873 -0.1727 -0.1430
  423MOL0     C56993  -0.608  10.257   4.142 -0.1648 -0.3520  0.2648
  423MOL0     O56994  -0.718  10.166   4.177  0.5982  0.2630  0.1676
  423MOL0     C56995  -0.822  10.216   4.262  0.2796 -0.0464  0.2646
  423MOL0     C56996  -0.836  10.347   4.299  0.1233 -0.4930 -0.9056
  423MOL0     C56997  -0.953  10.384   4.367  0.9588  0.4654  0.2562
  423MOL0     C56998  -0.992  10.528   4.369 -0.1475  0.4041  0.6540
  423MOL0     C56999  -1.034  10.283   4.420  0.1055 -0.3059  0.4283
  423MOL0     C57000  -1.141  10.311   4.514  1.0200  0.0019 -0.4660
  423MOL0     O57001  -1.259  10.252   4.481  0.2705 -0.1576 -0.2089
  423MOL0     C57002  -1.360  10.275   4.561  0.7048 -0.1341  0.2385
  423MOL0     C57003  -1.467  10.360   4.522  0.3643 -0.0787 -0.0778
  423MOL0     C57004  -1.577  10.378   4.606 -0.1852 -0.0199  0.8417
  423MOL0     C57005  -1.582  10.329   4.735  0.1415 -0.8843 -0.4069
  423MOL0     O57006  -1.696  10.362   4.805 -0.6644 -0.2832  0.1966
  423MOL0     C57007  -1.723  10.289   4.933  0.4493  0.5088  0.9482
  423MOL0     C57008  -1.861  10.333   4.995  0.1889  0.2761 -0.9459
  423MOL0     C57009  -1.965  10.316   4.886 -0.2021 -0.2920  0.1101
  423MOL0     C57010  -2.107  10.327   4.944  0.9400 -0.2028  0.3097
  423MOL0     C57011  -2.206  10.339   4.829  0.9715 -0.0263 -0.0962
  423MOL0     C57012  -2.350  10.372   4.882  0.1150 -0.4471  0.2604
  423MOL0     C57013  -2.458  10.356   4.783 -0.0279  0.0199 -0.0194
  423MOL0     C57014  -2.596  10.373   4.858 -0.2986  0.2246  0.8253
  423MOL0    Cl57015  -2.615  10.526   4.951  0.1152 -0.2190 -0.1327
  423MOL0     C57016  -1.475  10.248   4.784 -0.1890 -0.1792  0.4034
  423MOL0     C57017  -1.367  10.218   4.699  0.4200  0.4827  0.1929
  423MOL0     O57018  -1.130  10.391   4.611  0.3098 -0.1381 -0.8155
  423MOL0     C57019  -1.015  10.150   4.399  0.2820  0.5823 -0.2344
  423MOL0     C57020  -0.915  10.121   4.308 -0.2552  0.1734 -0.2211
  423MOL0     N57021  -0.178  10.186   3.861 -0.0457  0.0423 -0.1129
  423MOL0     N57022  -0.073  10.261   3.861 -0.3599 -0.3189 -0.1415
  423MOL0     C57023   0.885  10.169   4.665 -0.4217 -0.8841  0.6448
  423MOL0     C57024   1.018  10.108   4.688  0.3827 -0.4824 -0.4830
  423MOL0     C57025   1.419   9.982   4.770  0.3032 -0.1136 -0.8979
  423MOL0     C57026   1.459   9.849   4.760 -0.6578  0.6139  0.5201
  423MOL0     C57027   1.585   9.805   4.813 -0.3269 -0.1377  0.6887
  423MOL0     C57028   1.668   9.890   4.878 -0.2325  0.3007  0.2055
  423MOL0     O57029   1.793   9.853   4.919  0.4821  0.3158 -0.2353
  423MOL0     C57030   1.868   9.950   5.004  0.0874  0.1787 -0.5749
  423MOL0     C57031   1.992   9.874   5.041 -0.7806 -0.6328  0.1668
  423MOL0     C57032   2.097   9.892   4.928  0.3355 -0.1027 -0.2974
  423MOL0     C57033   2.219   9.813   4.959  0.6346  0.4761  0.0496
  423MOL0     C57034   2.298   9.874   5.061 -0.4492  0.0657 -0.1684
  423MOL0     C57035   2.373   9.913   5.148 -0.7053 -0.1256  0.3973
  423MOL0     C57036   1.624  10.022   4.899  0.5287  0.1445  0.5304
  423MOL0     C57037   1.503  10.072   4.848  0.2320 -0.5375  0.8565
  423MOL0     H57038   1.206  10.388   4.709  0.4820 -0.4438  1.0123
  423MOL0     H57039   0.980  10.498   4.693 -2.9486 -0.7449  2.9661
  423MOL0     H57040   0.769  10.560   4.656  0.1078 -1.9805  2.3405
  423MOL0     H57041   0.809  10.500   4.496  1.3164 -0.3384  1.8536
  423MOL0     H57042   0.533  10.497   4.637 -5.1474  0.4740 -2.9972
  423MOL0     H57043   0.573  10.610   4.513 -1.5934  0.6070  2.5095
  423MOL0     H57044   0.616  10.384   4.378 -0.3749  0.2091 -0.7584
  423MOL0     H57045   0.507  10.308   4.482 -0.1683  1.1801  1.2788
  423MOL0     H57046   0.335  10.475   4.440  0.5208  0.0655 -0.3553
  423MOL0     H57047   0.435  10.559   4.327 -3.0196  2.6654  3.6956
  423MOL0     H57048   0.456  10.331   4.190  0.4891  0.6815  0.2526
  423MOL0     H57049   0.347  10.266   4.307 -2.5660 -0.4168 -1.9592
  423MOL0     H57050   0.188  10.443   4.268  1.5826  3.2143 -0.2972
  423MOL0     H57051   0.276  10.498   4.133  0.0389 -0.8137 -0.3374
  423MOL0     H57052   0.252  10.276   4.007  0.1381  5.2082 -1.0659
  423MOL0     H57053   0.175  10.217   4.160  0.5474 -2.0032 -1.2458
  423MOL0     H57054   0.074  10.448   3.984  1.3140  0.7917  0.7562
  423MOL0     H57055   0.013  10.395   4.147 -2.3359 -1.3212 -0.6433
  423MOL0     H57056  -0.102  10.154   4.173 -0.0122  2.0246  0.9711
  423MOL0     H57057  -0.346   9.993   3.924  0.2506  0.8138 -0.4709
  423MOL0     H57058  -0.249   9.950   4.074  2.2544  1.0397 -0.8151
  423MOL0     H57059  -0.378  10.102   4.203 -0.4205 -0.6391  0.5305
  423MOL0     H57060  -0.503  10.006   4.107  0.1726  0.3088 -1.0706
  423MOL0     H57061  -0.551  10.181   3.949 -1.6753 -0.3861  0.5408
  423MOL0     H57062  -0.430  10.277   4.019  0.4932 -1.2586 -1.1403
  423MOL0     H57063  -0.651  10.346   4.094 -0.1273 -0.1267  0.6549
  423MOL0     H57064  -0.554  10.290   4.230 -1.8753 -1.5157  1.8265
  423MOL0     H57065  -0.768  10.424   4.264  0.7524 -1.5433 -2.0521
  423MOL0     H57066  -1.092  10.534   4.324  0.3455  0.2263 -0.5149
  423MOL0     H57067  -0.994  10.569   4.470 -2.3943  2.0883  0.0287
  423MOL0     H57068  -0.916  10.581   4.311 -0.5189  0.0208 -0.1978
  423MOL0     H57069  -1.458  10.417   4.430 -0.2107 -0.3844 -0.3313
  423MOL0     H57070  -1.661  10.436   4.571 -1.1925 -0.4988  2.3638
  423MOL0     H57071  -1.733  10.183   4.910  1.1847  0.9598 -1.9419
  423MOL0     H57072  -1.657  10.306   5.018 -1.4750  0.7117  2.4556
  423MOL0     H57073  -1.890  10.263   5.074  0.2716  0.5103 -0.7074
  423MOL0     H57074  -1.850  10.426   5.051 -0.2957  1.8239 -3.2918
  423MOL0     H57075  -1.958  10.218   4.838 -1.2137 -0.9241  1.2093
  423MOL0     H57076  -1.933  10.384   4.806  3.2468 -1.9111 -0.0681
  423MOL0     H57077  -2.128  10.240   5.007 -1.9506 -0.6424 -1.0568
  423MOL0     H57078  -2.119  10.419   5.001  1.2104  0.7260 -1.0857
  423MOL0     H57079  -2.213  10.238   4.787  0.6821 -0.0990  0.1222
  423MOL0     H57080  -2.175  10.404   4.747  0.3380 -2.5846 -2.5238
  423MOL0     H57081  -2.367  10.318   4.975 -0.6394 -0.4427  0.1386
  423MOL0     H57082  -2.341  10.478   4.909 -2.1019 -0.0422 -0.2979
  423MOL0     H57083  -2.464  10.254   4.742 -3.0361  0.6224 -1.3519
  423MOL0     H57084  -2.436  10.432   4.708  0.2185  1.2789  1.2855
  423MOL0     H57085  -2.598  10.287   4.926 -0.3293 -2.9503 -2.8309
  423MOL0     H57086  -2.673  10.370   4.780 -1.4614 -0.6136  1.9571
  423MOL0     H57087  -1.459  10.212   4.885 -0.1485  0.8025  0.7554
  423MOL0     H57088  -1.278  10.166   4.733 -0.8662 -2.4853 -0.6531
  423MOL0     H57089  -1.083  10.078   4.443 -0.9792  2.4573  1.0206
  423MOL0     H57090  -0.908  10.019   4.271 -0.2266  0.5357 -1.2431
  423MOL0     H57091   0.793  10.114   4.649  0.4303 -1.7608 -1.6600
  423MOL0     H57092   1.020  10.001   4.705 -3.2501 -0.4826  0.8941
  423MOL0     H57093   1.406   9.784   4.691  0.9092  1.2292 -1.3567
  423MOL0     H57094   1.615   9.704   4.787 -2.0414  0.0351 -2.5009
  423MOL0     H57095   1.891  10.044   4.952  0.3264 -0.8690 -2.4783
  423MOL0     H57096   1.804   9.966   5.091 -1.1481  0.2779 -1.4792
  423MOL0     H57097   1.972   9.768   5.057  1.0851 -1.1485 -0.6128
  423MOL0     H57098   2.028   9.908   5.138 -1.4759  0.3225  0.1066
  423MOL0     H57099   2.121   9.996   4.908 -0.6337  0.1031 -0.4404
  423MOL0     H57100   2.045   9.851   4.841 -0.4213 -0.2880  0.2294
  423MOL0     H57101   2.279   9.798   4.868 -3.6867  0.3542 -3.0645
  423MOL0     H57102   2.191   9.716   5.001 -1.4043  1.3990  0.9412
  423MOL0     H57103   2.433   9.954   5.226 -2.1860  1.0339  0.9894
  423MOL0     H57104   1.697  10.089   4.945  1.2317 -0.5013  0.3774
  423MOL0     H57105   1.481  10.178   4.860 -0.7747 -0.6288 -0.0565
  424MOL0     O57106   3.267  11.173   6.760  0.2138  0.4139 -0.4774
  424MOL0     C57107   3.316  11.060   6.756 -0.4530 -0.0143 -0.6815
  424MOL0     O57108   3.254  10.945   6.744 -0.1686 -0.2163  0.0081
  424MOL0     C57109   3.124  10.943   6.702  0.4948 -0.6651 -0.2185
  424MOL0     C57110   3.018  10.960   6.791  0.9404 -0.2956  0.1994
  424MOL0     C57111   2.885  10.951   6.755  0.0501  0.0527 -0.0235
  424MOL0     C57112   2.855  10.914   6.625  0.2824 -0.1427 -0.1865
  424MOL0     O57113   2.733  10.875   6.589  0.6760 -0.5622  0.4277
  424MOL0     C57114   2.616  10.926   6.664 -0.2589  0.5870 -0.4013
  424MOL0     C57115   2.488  10.898   6.589  0.2319 -0.7465  0.2455
  424MOL0     C57116   2.379  10.982   6.649 -0.1414  0.1116 -0.1913
  424MOL0     C57117   2.254  10.945   6.573 -1.1235 -0.2146 -0.8518
  424MOL0     C57118   2.131  11.011   6.630  0.0700 -0.3890  0.3109
  424MOL0     C57119   2.024  10.972   6.533 -0.2534  0.4321  0.0628
  424MOL0     C57120   1.890  11.008   6.605 -0.0288  0.0277  0.3383
  424MOL0     C57121   1.776  10.989   6.515  0.0861  0.3575  0.4659
  424MOL0     N57122   1.684  10.882   6.569  0.4437  0.0657 -0.4370
  424MOL0     C57123   1.600  10.903   6.677 -0.9796  0.4413  0.8618
  424MOL0     C57124   1.546  10.777   6.688 -0.0179 -0.0349 -0.1625
  424MOL0     C57125   1.450  10.743   6.794  0.2585 -0.1534  0.4069
  424MOL0     C57126   1.303  10.775   6.747 -0.8464  0.4222  0.0555
  424MOL0     C57127   1.200  10.757   6.855  0.3505  1.3173  0.4625
  424MOL0     C57128   1.056  10.780   6.816  1.1736 -0.2808  0.5876
  424MOL0     O57129   1.000  10.677   6.733 -0.7121  0.7868  0.2096
  424MOL0     C57130   0.860  10.682   6.716  0.7960 -0.4135 -0.0884
  424MOL0     C57131   0.798  10.574   6.653 -0.4570 -0.0684 -0.1476
  424MOL0     C57132   0.658  10.569   6.624  0.1049 -0.6686  1.3805
  424MOL0     C57133   0.618  10.471   6.515  0.3435  0.5976 -0.5602
  424MOL0     C57134   0.577  10.672   6.668 -0.2241 -0.0698 -0.3111
  424MOL0     C57135   0.432  10.675   6.644  0.8272  0.0038  0.1176
  424MOL0     O57136   0.380  10.803   6.654  0.3178 -0.1260  0.3640
  424MOL0     C57137   0.249  10.835   6.674  0.2790 -0.2920  0.0362
  424MOL0     C57138   0.143  10.742   6.678  0.1522 -0.2967  1.1012
  424MOL0     C57139   0.020  10.777   6.715 -0.2152 -0.0357  0.0512
  424MOL0     C57140  -0.011  10.907   6.743 -0.8251  0.6785  0.1025
  424MOL0     O57141  -0.126  10.940   6.800  0.2441 -0.2095  0.1127
  424MOL0     C57142  -0.243  10.856   6.833 -0.0069  0.2490 -0.2898
  424MOL0     C57143  -0.264  10.841   6.981 -0.1795  0.1030  0.2089
  424MOL0     C57144  -0.312  10.963   7.058  0.5691 -0.1664  0.0130
  424MOL0     C57145  -0.458  10.987   7.022  0.2639 -0.0906 -0.1576
  424MOL0     C57146  -0.518  11.114   7.097  0.7894  0.5677 -0.4648
  424MOL0     C57147  -0.674  11.132   7.064  0.0024 -0.0915  0.2483
  424MOL0     C57148  -0.718  11.253   7.146 -0.0372 -0.1938  0.2809
  424MOL0     C57149  -0.853  11.306   7.102 -0.3799 -0.0595  0.1822
  424MOL0    Cl57150  -0.979  11.181   7.100  0.0025  0.3080 -0.1475
  424MOL0     C57151   0.083  11.007   6.722 -0.1567 -0.3762 -0.5018
  424MOL0     C57152   0.216  10.972   6.698 -0.9503  0.7389  0.2074
  424MOL0     O57153   0.371  10.569   6.647 -0.3731  0.2333  0.5420
  424MOL0     C57154   0.644  10.784   6.724  0.3508 -0.2227 -0.0056
  424MOL0     C57155   0.777  10.783   6.763  0.4909 -0.2840 -0.7121
  424MOL0     N57156   1.588  10.693   6.586  0.3405  1.1647  0.6699
  424MOL0     N57157   1.679  10.757   6.519  0.4202  0.4006 -0.2115
  424MOL0     C57158   2.956  10.905   6.527  0.5986  0.4747 -0.6187
  424MOL0     C57159   3.086  10.923   6.568 -0.2699  0.5109 -0.7816
  424MOL0     C57160   3.459  11.061   6.772 -0.5185  0.1934  0.4698
  424MOL0     C57161   3.528  11.157   6.842  0.1235  0.2911  0.6912
  424MOL0     C57162   3.671  11.144   6.868 -1.1562 -0.2192 -0.3251
  424MOL0     C57163   3.740  11.037   6.811  0.0883 -0.2109  0.3843
  424MOL0     O57164   3.876  11.030   6.799  0.5885  0.3918  0.6236
  424MOL0     C57165   3.959  11.141   6.838 -0.5625  0.2194 -0.1080
  424MOL0     C57166   4.100  11.092   6.872  1.0698 -0.0966  0.1300
  424MOL0     C57167   4.132  11.076   7.029  0.0821 -0.2836 -0.3049
  424MOL0     C57168   4.265  11.002   7.059  0.9046  0.5438 -0.8913
  424MOL0     C57169   4.384  11.089   7.049 -0.5227 -0.7686 -0.6808
  424MOL0     C57170   4.487  11.150   7.063  0.2773 -0.0856  0.3411
  424MOL0     C57171   3.667  10.946   6.736 -0.1718  0.1665 -0.6004
  424MOL0     C57172   3.529  10.952   6.723  0.2639  0.0195 -0.4576
  424MOL0     H57173   3.026  10.974   6.898  1.4034  3.7565 -0.2019
  424MOL0     H57174   2.805  10.955   6.828 -0.0698 -1.6649 -0.0146
  424MOL0     H57175   2.615  10.881   6.764 -0.4880  0.7326 -0.3379
  424MOL0     H57176   2.633  11.033   6.678  1.6180  0.1351  1.3875
  424MOL0     H57177   2.504  10.918   6.483  2.4169  0.3725  0.7127
  424MOL0     H57178   2.469  10.790   6.598  2.2227 -1.5784 -3.6536
  424MOL0     H57179   2.361  10.963   6.755 -1.8324 -0.6372 -0.5798
  424MOL0     H57180   2.415  11.083   6.628  2.5725 -0.9650 -1.1119
  424MOL0     H57181   2.282  10.971   6.471 -0.7053  0.0121 -0.6819
  424MOL0     H57182   2.241  10.837   6.584  1.5977 -0.7081 -1.6467
  424MOL0     H57183   2.108  10.978   6.732  1.4164  0.9125  1.0840
  424MOL0     H57184   2.136  11.120   6.623 -0.6874 -0.2754  1.2435
  424MOL0     H57185   2.024  11.039   6.447 -2.1853  0.2610 -0.1265
  424MOL0     H57186   2.032  10.872   6.489 -0.8750  0.8016 -0.9144
  424MOL0     H57187   1.892  10.925   6.676  2.1819 -1.4402 -1.2762
  424MOL0     H57188   1.876  11.103   6.657  3.3513  0.4506  0.7180
  424MOL0     H57189   1.803  10.948   6.417 -3.7073 -1.8695  0.1917
  424MOL0     H57190   1.723  11.085   6.510 -0.1618  0.1683 -0.8942
  424MOL0     H57191   1.578  10.995   6.730 -0.4114  0.6030  0.8277
  424MOL0     H57192   1.458  10.637   6.820 -0.8249 -1.0182 -2.4410
  424MOL0     H57193   1.468  10.803   6.884 -2.8289 -1.3945  2.0123
  424MOL0     H57194   1.281  10.717   6.657  1.9866 -0.3356 -0.2656
  424MOL0     H57195   1.294  10.879   6.715  0.5260  0.2660 -0.9517
  424MOL0     H57196   1.223  10.828   6.935  2.2046 -1.7277  2.8273
  424MOL0     H57197   1.198  10.657   6.899 -0.3685  2.1356  2.3934
  424MOL0     H57198   1.051  10.875   6.762 -0.2796 -1.6672 -1.8871
  424MOL0     H57199   0.990  10.776   6.903  0.9339 -0.7497  0.3877
  424MOL0     H57200   0.871  10.498   6.626 -0.3171 -0.3551  0.9965
  424MOL0     H57201   0.596  10.375   6.564  1.4113  1.1811  1.1665
  424MOL0     H57202   0.539  10.510   6.450 -0.2875 -0.2924 -0.3485
  424MOL0     H57203   0.701  10.456   6.445  0.2947 -0.2162 -0.4578
  424MOL0     H57204   0.149  10.637   6.651  1.9096 -0.0938  0.5662
  424MOL0     H57205  -0.065  10.710   6.720 -1.4643  1.4204 -0.9461
  424MOL0     H57206  -0.329  10.912   6.795 -0.1065  0.5327  0.3457
  424MOL0     H57207  -0.245  10.754   6.793  2.3703 -1.4442  3.4022
  424MOL0     H57208  -0.333  10.758   6.999 -1.7076  1.4872  0.8780
  424MOL0     H57209  -0.171  10.803   7.025  0.1764 -0.5270 -1.0443
  424MOL0     H57210  -0.250  11.045   7.021  0.4907  0.3858  1.0636
  424MOL0     H57211  -0.302  10.957   7.167 -0.1656  0.0891  0.0967
  424MOL0     H57212  -0.469  11.007   6.915  1.7022 -1.9611 -0.7050
  424MOL0     H57213  -0.513  10.896   7.047 -1.8636  0.8805 -1.0908
  424MOL0     H57214  -0.469  11.205   7.062  2.3773 -0.0729 -0.0328
  424MOL0     H57215  -0.500  11.102   7.204  0.1232 -0.4552 -0.4540
  424MOL0     H57216  -0.672  11.150   6.956 -1.4630  0.8364  0.3430
  424MOL0     H57217  -0.730  11.044   7.098 -1.0568  1.3977  2.6610
  424MOL0     H57218  -0.647  11.336   7.134 -1.4584  1.0622  0.2423
  424MOL0     H57219  -0.723  11.227   7.252 -1.4532  0.5240  0.4166
  424MOL0     H57220  -0.855  11.341   6.999 -1.1830 -4.1849 -1.3950
  424MOL0     H57221  -0.887  11.389   7.165 -1.7026 -0.7233  0.3748
  424MOL0     H57222   0.056  11.110   6.742  2.9556  0.1761  1.6261
  424MOL0     H57223   0.286  11.055   6.690 -3.2552  2.7468 -0.1441
  424MOL0     H57224   0.579  10.866   6.752 -0.9443 -1.2654  0.1418
  424MOL0     H57225   0.813  10.861   6.829 -1.1778 -0.7170  0.7845
  424MOL0     H57226   2.925  10.866   6.431 -1.4439  1.6749 -0.5160
  424MOL0     H57227   3.157  10.891   6.493 -0.1718  0.8912 -0.8524
  424MOL0     H57228   3.478  11.245   6.882 -1.2061 -1.8519  4.3122
  424MOL0     H57229   3.719  11.228   6.916  1.8007 -0.7689 -2.0768
  424MOL0     H57230   3.980  11.212   6.758  2.0802  0.4945  0.7300
  424MOL0     H57231   3.929  11.202   6.924 -0.2729  2.2044 -1.3576
  424MOL0     H57232   4.178  11.154   6.828  3.2067 -2.6270  0.0897
  424MOL0     H57233   4.126  10.997   6.825 -0.0039 -0.7916  0.8899
  424MOL0     H57234   4.046  11.023   7.070 -0.6367  1.0432 -0.0080
  424MOL0     H57235   4.132  11.175   7.076  0.1653  0.2173 -1.3325
  424MOL0     H57236   4.264  10.914   6.994  0.3711  1.3678 -2.0259
  424MOL0     H57237   4.255  10.987   7.167 -3.0739  4.3792 -0.4580
  424MOL0     H57238   4.567  11.221   7.062  1.1785 -1.0143  1.7476
  424MOL0     H57239   3.722  10.863   6.692 -1.5547  0.8352 -3.8206
  424MOL0     H57240   3.481  10.865   6.678  2.8668 -0.2912 -2.8945
  425MOL0     O57241  10.632   9.969   6.738 -0.1401 -0.0607  0.4867
  425MOL0     C57242  10.723   9.972   6.826  0.2133  0.3675 -0.5642
  425MOL0     O57243  10.697   9.989   6.956 -0.0856  0.5100 -0.4878
  425MOL0     C57244  10.565  10.033   6.979 -0.3701 -0.3372 -0.3792
  425MOL0     C57245  10.455   9.946   7.002  0.4584  0.0812  0.1825
  425MOL0     C57246  10.326  10.007   7.026  0.3034 -0.6865 -0.2401
  425MOL0     C57247  10.309  10.151   7.026 -0.7468  0.1410  0.2540
  425MOL0     O57248  10.193  10.221   7.061  0.8241  0.9287 -0.5751
  425MOL0     C57249  10.070  10.148   7.060  0.3537  1.0785  0.8127
  425MOL0     C57250   9.978  10.223   7.154 -0.8578 -0.6715 -0.0574
  425MOL0     C57251   9.827  10.206   7.110  0.2904  0.7222  0.3459
  425MOL0     C57252   9.749  10.228   7.246  0.3679  0.0183 -0.1004
  425MOL0     C57253   9.596  10.201   7.228  0.3595 -0.2897  0.8050
  425MOL0     C57254   9.507  10.235   7.351  0.2606 -0.3206  0.4882
  425MOL0     C57255   9.367  10.171   7.348 -0.4608 -0.1578 -0.3523
  425MOL0     C57256   9.252  10.267   7.332  0.0745 -0.3935  0.4371
  425MOL0     N57257   9.122  10.210   7.378 -0.1295  1.1726 -0.5466
  425MOL0     C57258   9.092  10.171   7.509 -0.8855  0.2781  0.9045
  425MOL0     C57259   8.973  10.124   7.509  0.3504 -0.6209 -0.6602
  425MOL0     C57260   8.895  10.071   7.633  0.5302 -0.4997  0.9984
  425MOL0     C57261   8.800  10.180   7.697 -0.5874  0.3620  0.6162
  425MOL0     C57262   8.663  10.199   7.624  0.9668 -0.8478  0.5510
  425MOL0     C57263   8.572  10.073   7.617 -0.0112 -0.0294  0.1219
  425MOL0     O57264   8.493  10.074   7.734 -0.5340 -0.5947  0.0085
  425MOL0     C57265   8.399   9.979   7.749 -0.5095  1.2063 -0.8501
  425MOL0     C57266   8.370   9.881   7.652  0.3113  0.1853  0.0114
  425MOL0     C57267   8.278   9.776   7.676  0.3633 -0.8638 -1.1610
  425MOL0     C57268   8.274   9.676   7.568 -0.2467  0.6410  0.3206
  425MOL0     C57269   8.212   9.774   7.806 -0.4242  1.3340  0.5149
  425MOL0     C57270   8.111   9.670   7.847 -0.8053 -0.5843  0.4094
  425MOL0     O57271   8.080   9.564   7.772  0.5931  0.1216  0.3318
  425MOL0     C57272   7.968   9.489   7.802  0.2448 -0.3112  0.0583
  425MOL0     C57273   7.835   9.536   7.798  0.9412 -0.5051 -0.0729
  425MOL0     C57274   7.728   9.458   7.850  0.1039  0.5668  0.5741
  425MOL0     C57275   7.749   9.332   7.906  0.4090 -0.4948 -0.4720
  425MOL0     O57276   7.649   9.251   7.958  0.7062 -0.0936 -0.7381
  425MOL0     C57277   7.519   9.303   7.973  0.1455 -0.2220 -0.0534
  425MOL0     C57278   7.443   9.287   7.849 -0.0341  0.2114  0.0518
  425MOL0     C57279   7.295   9.299   7.878 -0.3971  0.5001  0.7209
  425MOL0     C57280   7.211   9.317   7.752  0.5264 -0.2714  0.1477
  425MOL0     C57281   7.063   9.324   7.784 -0.4521  0.5631 -0.1739
  425MOL0     C57282   6.976   9.374   7.670 -0.2649  0.7903 -0.6843
  425MOL0     C57283   6.987   9.287   7.544  0.2917 -0.2482 -0.5671
  425MOL0     C57284   6.897   9.331   7.430 -0.6440  0.1126  0.0853
  425MOL0    Cl57285   6.941   9.504   7.395 -0.0451  0.1962 -0.2727
  425MOL0     C57286   7.879   9.286   7.897 -0.8063  0.3070 -0.2038
  425MOL0     C57287   7.987   9.360   7.848 -0.5805  0.2456  0.0926
  425MOL0     O57288   8.052   9.700   7.951 -0.2295  0.2751 -0.0435
  425MOL0     C57289   8.247   9.872   7.900 -0.6475 -0.3594  0.3821
  425MOL0     C57290   8.335   9.981   7.869 -0.5408  0.5138 -0.6084
  425MOL0     N57291   8.920  10.140   7.387  0.5291  0.1063  0.3431
  425MOL0     N57292   9.013  10.181   7.306 -0.4673  0.2289 -0.6980
  425MOL0     C57293  10.414  10.229   6.981 -0.2534 -0.2919 -0.2275
  425MOL0     C57294  10.541  10.173   6.969  0.1957 -0.1483 -0.5336
  425MOL0     C57295  10.862   9.951   6.779  0.5944  0.0987  0.3910
  425MOL0     C57296  10.964   9.920   6.865 -0.7238 -0.0523 -1.1448
  425MOL0     C57297  11.095   9.896   6.819 -0.6902 -0.8209 -0.1018
  425MOL0     C57298  11.122   9.914   6.683  0.9066 -0.4485  0.6421
  425MOL0     O57299  11.250   9.888   6.655  0.1609  0.4554  0.3554
  425MOL0     C57300  11.303   9.906   6.518 -0.0968 -0.6801 -0.1795
  425MOL0     C57301  11.439   9.842   6.520 -0.1817  0.0602 -0.6357
  425MOL0     C57302  11.442   9.703   6.587  1.4614 -0.2781  0.2418
  425MOL0     C57303  11.364   9.597   6.514  0.3223 -0.2840 -0.1245
  425MOL0     C57304  11.373   9.462   6.578 -0.4717  0.2189 -0.4090
  425MOL0     C57305  11.378   9.357   6.634 -0.4026  0.4589  0.2031
  425MOL0     C57306  11.022   9.959   6.591 -0.2200 -0.3232 -0.5081
  425MOL0     C57307  10.889   9.963   6.639 -0.4369 -0.5772  0.0648
  425MOL0     H57308  10.469   9.839   7.002 -0.1198 -0.0052  1.1226
  425MOL0     H57309  10.239   9.943   7.028 -2.0843  2.2806 -1.1342
  425MOL0     H57310  10.025  10.154   6.960 -0.7550  0.2040  1.2417
  425MOL0     H57311  10.072  10.045   7.097 -0.3735  0.7731  0.0409
  425MOL0     H57312   9.995  10.191   7.257 -2.1661  0.0955  0.4080
  425MOL0     H57313   9.991  10.330   7.137 -4.9062  0.4843  2.7414
  425MOL0     H57314   9.805  10.280   7.032 -1.7715  0.4630  0.6324
  425MOL0     H57315   9.807  10.106   7.070  1.6398  0.0906  1.2071
  425MOL0     H57316   9.781  10.159   7.324 -0.2977 -0.5168 -0.2892
  425MOL0     H57317   9.772  10.329   7.279  0.8168 -0.3010  0.5683
  425MOL0     H57318   9.560  10.260   7.143  0.5108  1.4188  1.8769
  425MOL0     H57319   9.583  10.098   7.194 -0.7803 -0.2000  0.9283
  425MOL0     H57320   9.551  10.204   7.446  0.2848 -0.7517  0.3394
  425MOL0     H57321   9.502  10.344   7.359 -1.8982 -0.3042 -0.3411
  425MOL0     H57322   9.354  10.097   7.269 -1.5288  0.2997 -0.6215
  425MOL0     H57323   9.370  10.112   7.440  4.0959  1.6848  0.9660
  425MOL0     H57324   9.245  10.308   7.231 -3.9085 -1.9948 -0.1116
  425MOL0     H57325   9.279  10.355   7.392 -0.4852  0.9188 -1.1808
  425MOL0     H57326   9.156  10.186   7.596 -0.4524  3.1876  0.1943
  425MOL0     H57327   8.842   9.979   7.607 -0.4052  0.3247 -0.1032
  425MOL0     H57328   8.975  10.050   7.705 -0.0047 -2.0896  1.1659
  425MOL0     H57329   8.845  10.280   7.691  1.9894 -0.8249 -1.9282
  425MOL0     H57330   8.780  10.149   7.800 -0.2769  1.4221  1.0151
  425MOL0     H57331   8.676  10.238   7.522 -3.1828 -0.6786 -0.0825
  425MOL0     H57332   8.605  10.280   7.668  0.0724 -0.4895 -1.2067
  425MOL0     H57333   8.635   9.984   7.607 -0.8258 -0.7496  1.2614
  425MOL0     H57334   8.504  10.086   7.532  0.9713  0.1634 -0.6614
  425MOL0     H57335   8.416   9.874   7.554  0.6119 -2.3043  0.2544
  425MOL0     H57336   8.259   9.722   7.470 -2.5904 -2.8919 -1.2181
  425MOL0     H57337   8.360   9.609   7.573 -1.5853 -1.9377 -4.6835
  425MOL0     H57338   8.179   9.621   7.577 -0.1825  0.4698 -0.0512
  425MOL0     H57339   7.810   9.631   7.752  0.5912  0.6039  2.2752
  425MOL0     H57340   7.628   9.497   7.839  0.3460  1.3930  1.1712
  425MOL0     H57341   7.471   9.240   8.048  1.0989 -1.0790 -0.1482
  425MOL0     H57342   7.508   9.403   8.015 -0.9898 -0.4471  0.2225
  425MOL0     H57343   7.474   9.369   7.784  0.1343  2.8641  3.1882
  425MOL0     H57344   7.457   9.186   7.810  1.4438 -0.1538  1.4238
  425MOL0     H57345   7.280   9.389   7.939  2.6250  0.4902  1.6687
  425MOL0     H57346   7.266   9.209   7.931  1.1349 -0.7278 -0.4139
  425MOL0     H57347   7.231   9.416   7.709 -1.2130  0.1122  0.1685
  425MOL0     H57348   7.242   9.243   7.678 -2.4680 -2.8167  1.2151
  425MOL0     H57349   7.051   9.383   7.876 -0.9199 -0.2448  0.2960
  425MOL0     H57350   7.024   9.223   7.799  0.8543 -0.1406 -1.3468
  425MOL0     H57351   6.873   9.363   7.704 -0.2434 -0.2152 -0.9181
  425MOL0     H57352   6.995   9.480   7.648 -0.6944  1.4718  1.8815
  425MOL0     H57353   6.968   9.183   7.572  2.0144 -0.7715 -1.2010
  425MOL0     H57354   7.092   9.295   7.515  0.1392  2.1760 -0.6101
  425MOL0     H57355   6.791   9.307   7.443 -1.1819  2.0526 -0.3086
  425MOL0     H57356   6.934   9.258   7.357  0.6761 -0.0841  0.9259
  425MOL0     H57357   7.893   9.185   7.933 -0.3698  0.5657  0.3698
  425MOL0     H57358   8.094   9.341   7.851 -0.5081  0.5777 -0.2130
  425MOL0     H57359   8.216   9.865   8.004  0.1717  1.0978  0.7591
  425MOL0     H57360   8.364  10.056   7.941  1.3038  1.5181 -2.3021
  425MOL0     H57361  10.396  10.335   6.967 -0.2360 -0.2076  0.3338
  425MOL0     H57362  10.619  10.238   6.930  0.8649 -0.0159  0.9663
  425MOL0     H57363  10.943   9.898   6.969  2.9162 -0.9817 -0.4632
  425MOL0     H57364  11.169   9.880   6.896 -0.5347  1.6458  0.3499
  425MOL0     H57365  11.243   9.852   6.444  0.8274 -2.1466  0.1053
  425MOL0     H57366  11.311  10.012   6.490  1.3052 -0.5369  0.6578
  425MOL0     H57367  11.498   9.912   6.580  0.6594  0.0416 -1.4271
  425MOL0     H57368  11.488   9.834   6.423 -0.8466  0.2288 -0.9920
  425MOL0     H57369  11.401   9.711   6.689  0.1671 -0.0608 -0.2747
  425MOL0     H57370  11.543   9.670   6.613  0.4242 -2.4829  1.8778
  425MOL0     H57371  11.400   9.603   6.411 -2.2847  1.0397 -1.0395
  425MOL0     H57372  11.259   9.626   6.512 -0.3787 -2.6820 -1.9748
  425MOL0     H57373  11.375   9.253   6.657  0.7513 -0.0725 -1.8275
  425MOL0     H57374  11.036   9.978   6.486 -0.2287 -3.8024 -1.2723
  425MOL0     H57375  10.807   9.992   6.573 -1.1278  0.7908  1.4746
  426MOL0     O57376   6.227   3.799  10.501  0.0199 -0.2523 -0.0053
  426MOL0     C57377   6.237   3.759  10.618  0.9126 -0.5645  0.2545
  426MOL0     O57378   6.140   3.708  10.694  0.6360 -0.1373 -0.2136
  426MOL0     C57379   6.008   3.701  10.659 -0.1081 -0.6740 -0.4749
  426MOL0     C57380   5.926   3.663  10.768 -0.2324  0.3450 -0.0202
  426MOL0     C57381   5.784   3.656  10.752  0.1725 -0.0267 -0.4885
  426MOL0     C57382   5.734   3.677  10.621  0.9790  0.3948  0.5513
  426MOL0     O57383   5.598   3.642  10.602 -0.1854 -0.6460  0.4899
  426MOL0     C57384   5.558   3.650  10.464  0.2452 -0.0124 -0.1116
  426MOL0     C57385   5.426   3.576  10.454  0.5461 -0.2878  0.6890
  426MOL0     C57386   5.303   3.638  10.532  0.2664  0.8198  0.3473
  426MOL0     C57387   5.319   3.627  10.685  0.7801  0.7172 -0.2868
  426MOL0     C57388   5.210   3.657  10.780  0.6896  0.7141 -0.3265
  426MOL0     C57389   5.252   3.696  10.927  0.2700  0.8211 -0.0984
  426MOL0     C57390   5.140   3.713  11.019  0.0767 -1.3324  0.7730
  426MOL0     C57391   5.043   3.830  10.973  0.8337  1.0320 -0.1223
  426MOL0     N57392   4.926   3.829  11.064 -0.9729  0.0856 -0.7605
  426MOL0     C57393   4.818   3.753  11.046  0.1425 -0.5719  0.4373
  426MOL0     C57394   4.721   3.802  11.120  0.8842 -0.3171  0.4025
  426MOL0     C57395   4.580   3.737  11.127  0.1192 -0.7915  0.4210
  426MOL0     C57396   4.467   3.809  11.045 -0.2918  0.1840  0.5093
  426MOL0     C57397   4.315   3.775  11.078 -1.5248 -0.4261  0.2796
  426MOL0     C57398   4.298   3.634  11.016 -1.0474 -0.6778 -0.6095
  426MOL0     O57399   4.171   3.593  11.060  0.4699 -0.4232  0.6524
  426MOL0     C57400   4.050   3.630  11.003 -0.2131  0.2977  0.4206
  426MOL0     C57401   4.031   3.727  10.912  0.4547 -0.0240  0.5772
  426MOL0     C57402   3.905   3.754  10.853  0.1279 -0.0250  0.4268
  426MOL0     C57403   3.915   3.849  10.737 -0.4951 -0.1003 -0.4319
  426MOL0     C57404   3.793   3.677  10.888  0.0035  0.3806  0.3441
  426MOL0     C57405   3.662   3.688  10.810 -1.1619 -0.0648  0.0346
  426MOL0     O57406   3.634   3.810  10.758 -0.3581 -0.1328 -0.0349
  426MOL0     C57407   3.512   3.834  10.702  0.3485  0.2305  0.0009
  426MOL0     C57408   3.394   3.817  10.773 -0.3665 -1.0676 -0.6292
  426MOL0     C57409   3.265   3.842  10.707 -1.1058  0.1803  0.0164
  426MOL0     C57410   3.266   3.875  10.574  0.2736  0.9446 -0.4204
  426MOL0     O57411   3.149   3.917  10.528 -0.4093 -0.1881  0.1015
  426MOL0     C57412   3.149   3.975  10.397  0.3913 -0.3172 -0.1800
  426MOL0     C57413   3.014   4.040  10.401  0.4565 -0.0144 -0.1079
  426MOL0     C57414   2.887   3.954  10.389 -0.1668 -0.0390 -0.5489
  426MOL0     C57415   2.771   4.053  10.432 -0.5127 -0.2656  0.3590
  426MOL0     C57416   2.631   4.003  10.391  0.3917  0.2331  0.0407
  426MOL0     C57417   2.518   4.109  10.438  0.2680 -0.1663 -0.3885
  426MOL0     C57418   2.370   4.058  10.448  0.1419 -0.1498 -0.5897
  426MOL0     C57419   2.345   3.960  10.558  0.2874 -1.2641 -0.0199
  426MOL0    Cl57420   2.171   3.950  10.587  0.2627  0.0881  0.2396
  426MOL0     C57421   3.385   3.870  10.502  0.0107  0.2728 -0.4933
  426MOL0     C57422   3.509   3.854  10.568 -0.4474  0.1675  0.2865
  426MOL0     O57423   3.597   3.584  10.806  0.4465 -0.0877  0.6841
  426MOL0     C57424   3.811   3.590  10.998  0.2166 -0.5090  0.2663
  426MOL0     C57425   3.934   3.567  11.052  0.1032  0.0779  0.2585
  426MOL0     N57426   4.773   3.909  11.185 -0.1531 -0.5122 -0.9519
  426MOL0     N57427   4.894   3.940  11.148  0.0466  0.5415  1.3189
  426MOL0     C57428   5.820   3.718  10.519 -0.0560 -0.7753  0.6129
  426MOL0     C57429   5.955   3.734  10.534 -0.5329 -0.1030 -0.7312
  426MOL0     C57430   6.375   3.779  10.669  0.5011  0.2970 -0.6452
  426MOL0     C57431   6.403   3.769  10.802 -0.7143  0.4213 -0.4928
  426MOL0     C57432   6.527   3.806  10.853 -0.1250 -0.2597 -0.1371
  426MOL0     C57433   6.633   3.857  10.773 -0.0978 -0.9945 -0.4996
  426MOL0     O57434   6.745   3.904  10.838  0.4068 -1.2903 -0.3210
  426MOL0     C57435   6.822   4.017  10.778 -0.1280  1.0397  0.8862
  426MOL0     C57436   6.910   4.086  10.882 -0.3063 -0.3362 -0.1549
  426MOL0     C57437   7.016   4.002  10.953  0.4702  0.3287  0.0132
  426MOL0     C57438   7.133   4.079  11.011 -0.2747  0.0874  0.4162
  426MOL0     C57439   7.081   4.185  11.100 -0.8844  0.1372  0.3826
  426MOL0     C57440   7.044   4.270  11.185 -0.7838 -0.7363  0.3846
  426MOL0     C57441   6.611   3.845  10.635  0.5628 -0.7253 -0.5985
  426MOL0     C57442   6.484   3.812  10.584 -0.2199 -0.4114  0.3893
  426MOL0     H57443   5.974   3.651  10.865 -0.3147 -0.9905 -0.1199
  426MOL0     H57444   5.720   3.620  10.833 -1.9116  0.0794 -2.0062
  426MOL0     H57445   5.550   3.752  10.424 -2.1689  0.1753  0.7146
  426MOL0     H57446   5.628   3.591  10.404  1.5461  0.9892  0.3547
  426MOL0     H57447   5.406   3.566  10.347  3.4743 -1.1379  0.1153
  426MOL0     H57448   5.451   3.472  10.475  0.5414 -0.8870 -1.9485
  426MOL0     H57449   5.289   3.743  10.504 -2.5372  0.5975  0.5536
  426MOL0     H57450   5.217   3.586  10.489 -0.3652  3.0811 -1.3638
  426MOL0     H57451   5.351   3.523  10.700  0.2760  0.5982 -0.0109
  426MOL0     H57452   5.396   3.700  10.711  0.2332  0.3298  2.8461
  426MOL0     H57453   5.163   3.747  10.739 -1.6222  0.7305  2.1001
  426MOL0     H57454   5.135   3.577  10.779 -0.7384  1.9446  1.4664
  426MOL0     H57455   5.308   3.606  10.958  0.1405  0.7042 -0.2077
  426MOL0     H57456   5.305   3.792  10.924 -1.3050  1.6935 -1.4874
  426MOL0     H57457   5.093   3.616  11.038 -0.7844 -0.9474  0.6579
  426MOL0     H57458   5.189   3.736  11.114  0.6501 -2.8330  0.8680
  426MOL0     H57459   4.997   3.806  10.877 -1.5669  0.1597  1.1725
  426MOL0     H57460   5.091   3.928  10.967 -0.9795  1.9163 -0.6104
  426MOL0     H57461   4.798   3.677  10.971  0.8960  0.6840 -1.0962
  426MOL0     H57462   4.592   3.635  11.089 -3.8800 -1.1990 -0.2060
  426MOL0     H57463   4.536   3.719  11.226 -4.5712 -1.6629 -1.5323
  426MOL0     H57464   4.486   3.799  10.938  1.5373  2.0134  0.6028
  426MOL0     H57465   4.477   3.917  11.063 -1.4431  0.6071 -1.1535
  426MOL0     H57466   4.257   3.853  11.028  2.7518  0.9891 -3.1349
  426MOL0     H57467   4.312   3.780  11.187 -2.3111  0.7425  0.2138
  426MOL0     H57468   4.371   3.570  11.066 -1.9312 -0.0040  1.7220
  426MOL0     H57469   4.310   3.638  10.908 -0.2236  4.2222 -0.5873
  426MOL0     H57470   4.124   3.774  10.882  0.4195 -1.8278 -2.9361
  426MOL0     H57471   3.841   3.926  10.757  1.4407  1.5710  0.7184
  426MOL0     H57472   4.015   3.895  10.732  0.1799 -1.2879  1.2132
  426MOL0     H57473   3.901   3.799  10.640  2.8862  1.3175 -1.8343
  426MOL0     H57474   3.387   3.797  10.879 -3.9402  2.2178 -0.0187
  426MOL0     H57475   3.173   3.847  10.764 -2.4796 -0.7104 -2.0056
  426MOL0     H57476   3.228   4.048  10.379 -0.3383  0.6788  0.5322
  426MOL0     H57477   3.144   3.905  10.313 -0.8745 -0.8827  0.3494
  426MOL0     H57478   3.007   4.098  10.494 -0.1832  1.6078 -1.1194
  426MOL0     H57479   3.010   4.112  10.319 -0.3403  0.6653  0.5130
  426MOL0     H57480   2.893   3.883  10.473  3.0222  0.9696  0.2019
  426MOL0     H57481   2.884   3.906  10.291 -0.9617 -1.8997  0.3345
  426MOL0     H57482   2.777   4.064  10.541  1.3767  2.5411  0.0779
  426MOL0     H57483   2.788   4.156  10.400  1.9828 -0.7788 -0.1571
  426MOL0     H57484   2.622   3.897  10.417 -0.0415  0.2706  0.0577
  426MOL0     H57485   2.632   4.014  10.282  1.8158  1.5867  0.1652
  426MOL0     H57486   2.545   4.148  10.537 -0.2969 -2.0437  0.5566
  426MOL0     H57487   2.521   4.190  10.364  2.0131 -0.0926 -0.2865
  426MOL0     H57488   2.347   4.011  10.351 -0.0293  0.2674 -0.7507
  426MOL0     H57489   2.299   4.139  10.466 -0.1358 -0.5269  0.0377
  426MOL0     H57490   2.383   3.995  10.654 -1.5158  2.1809 -0.4121
  426MOL0     H57491   2.396   3.867  10.531  2.4408  0.1845 -1.2081
  426MOL0     H57492   3.383   3.892  10.396  1.5192 -0.0285 -0.6153
  426MOL0     H57493   3.598   3.864  10.506 -0.8861  1.8806 -0.1144
  426MOL0     H57494   3.720   3.544  11.034 -1.3970  1.2268 -1.3821
  426MOL0     H57495   3.936   3.476  11.112 -1.4706  0.1719  0.4843
  426MOL0     H57496   5.791   3.745  10.418  1.1621  1.1330  0.7205
  426MOL0     H57497   6.015   3.784  10.459  1.7362  0.5759  1.4103
  426MOL0     H57498   6.319   3.739  10.864 -0.0072 -0.8617 -0.1269
  426MOL0     H57499   6.554   3.816  10.958  1.2200 -0.6128 -0.4244
  426MOL0     H57500   6.880   3.974  10.696 -2.0945 -0.2902  0.1273
  426MOL0     H57501   6.746   4.081  10.732  2.3128  1.3788 -3.0954
  426MOL0     H57502   6.847   4.126  10.961  0.5022  1.4247 -0.3318
  426MOL0     H57503   6.962   4.166  10.827  1.6395 -1.4093  0.0257
  426MOL0     H57504   7.052   3.927  10.881 -1.0538 -0.0449 -0.3774
  426MOL0     H57505   6.958   3.965  11.038  0.3670  2.6950  1.0318
  426MOL0     H57506   7.176   4.123  10.921 -2.0320 -0.8529 -0.9256
  426MOL0     H57507   7.205   4.016  11.064  2.4768  0.6711 -2.3217
  426MOL0     H57508   6.998   4.334  11.258 -3.9326 -1.6194 -0.6494
  426MOL0     H57509   6.696   3.868  10.572  0.7292 -0.5319 -0.3085
  426MOL0     H57510   6.472   3.812  10.476  1.9373  1.3653  0.0938
  427MOL0     O57511   4.844  10.679   8.138 -0.0648  0.1855 -0.1442
  427MOL0     C57512   4.932  10.595   8.160 -1.2518 -0.3737 -0.2835
  427MOL0     O57513   4.907  10.466   8.199 -1.0372 -0.2181 -0.2720
  427MOL0     C57514   4.777  10.416   8.211  0.0277  0.2011  0.3602
  427MOL0     C57515   4.780  10.287   8.262  0.1472  0.4035 -0.5241
  427MOL0     C57516   4.665  10.209   8.279 -0.5779  0.0293  0.2166
  427MOL0     C57517   4.547  10.245   8.216 -0.3669  0.4850 -0.3816
  427MOL0     O57518   4.434  10.168   8.229 -0.2095  0.1859 -0.1998
  427MOL0     C57519   4.455  10.038   8.179 -0.2372  0.1697  1.4475
  427MOL0     C57520   4.346  10.003   8.070  0.5676 -0.3607 -0.8044
  427MOL0     C57521   4.204   9.997   8.125 -0.9859 -0.0254  0.4316
  427MOL0     C57522   4.096   9.984   8.018 -0.3890  0.6433  0.0577
  427MOL0     C57523   3.951   9.989   8.069  0.6389 -0.4853  0.8332
  427MOL0     C57524   3.858   9.979   7.940 -0.7581 -0.1867 -0.8727
  427MOL0     C57525   3.817  10.109   7.877  0.0978  0.2960 -0.4518
  427MOL0     C57526   3.743  10.120   7.745  0.4234  0.5496 -0.5630
  427MOL0     N57527   3.608  10.065   7.763 -0.2019  0.1894 -0.2355
  427MOL0     C57528   3.498  10.133   7.786  1.0481  0.1120  1.1050
  427MOL0     C57529   3.400  10.050   7.790 -0.6221  0.6146 -0.2451
  427MOL0     C57530   3.258  10.086   7.830 -0.9887 -0.6536 -0.4154
  427MOL0     C57531   3.166   9.983   7.796  0.0581 -0.0788  0.3098
  427MOL0     C57532   3.025  10.020   7.830 -0.4185  0.9187  0.3965
  427MOL0     C57533   2.928   9.927   7.763 -0.3941 -0.8101 -0.5402
  427MOL0     O57534   2.796   9.961   7.809  0.2657 -0.5265  0.3421
  427MOL0     C57535   2.694   9.897   7.757 -0.5742  0.3633  0.8605
  427MOL0     C57536   2.695   9.793   7.661  0.2214  0.7367  0.3785
  427MOL0     C57537   2.585   9.730   7.604  0.3698  0.1398 -0.7000
  427MOL0     C57538   2.600   9.629   7.495 -0.2178  0.0886  0.6933
  427MOL0     C57539   2.459   9.772   7.646  0.3259  0.0354 -0.8625
  427MOL0     C57540   2.326   9.737   7.578  0.3232 -0.0361 -1.5650
  427MOL0     O57541   2.219   9.815   7.609 -0.6745  0.3542  0.0816
  427MOL0     C57542   2.103   9.794   7.538 -0.2158  0.0943  0.4732
  427MOL0     C57543   2.068   9.887   7.439  0.3426 -0.2522  0.2924
  427MOL0     C57544   1.943   9.880   7.373  0.3130  0.4286  0.2125
  427MOL0     C57545   1.860   9.771   7.392 -0.0511 -1.2195  0.4162
  427MOL0     O57546   1.737   9.767   7.321 -0.9189  0.0679  0.0739
  427MOL0     C57547   1.641   9.672   7.363  0.2752  0.7655  0.1114
  427MOL0     C57548   1.505   9.694   7.297  0.0184  0.4153 -0.3365
  427MOL0     C57549   1.419   9.579   7.358 -0.1584 -0.0564  0.0513
  427MOL0     C57550   1.275   9.639   7.364  0.6415 -1.1115  0.3407
  427MOL0     C57551   1.178   9.526   7.419  0.1703 -0.2290  0.3981
  427MOL0     C57552   1.029   9.546   7.412 -0.3700 -0.3716  0.0741
  427MOL0     C57553   0.975   9.423   7.480 -0.7246 -0.2251 -0.0245
  427MOL0     C57554   0.824   9.438   7.498 -0.1166 -0.7376 -0.6428
  427MOL0    Cl57555   0.746   9.303   7.582 -0.5199 -0.2576  0.1395
  427MOL0     C57556   1.898   9.680   7.491 -0.2099  1.0760 -0.4273
  427MOL0     C57557   2.017   9.693   7.566 -0.6111 -0.0142 -0.1455
  427MOL0     O57558   2.320   9.650   7.493  0.6442  0.0600 -0.2738
  427MOL0     C57559   2.453   9.882   7.735 -0.1008  0.1389 -0.4567
  427MOL0     C57560   2.566   9.936   7.790  0.2155 -0.6730  0.1351
  427MOL0     N57561   3.450   9.926   7.754  0.7018  0.7518  0.7459
  427MOL0     N57562   3.574   9.937   7.739  0.5792  0.2042 -0.6678
  427MOL0     C57563   4.546  10.368   8.150  0.5739  0.3035 -0.6705
  427MOL0     C57564   4.655  10.456   8.148 -0.9949  0.1336 -0.6685
  427MOL0     C57565   5.077  10.629   8.131 -0.2001 -0.3584 -0.1641
  427MOL0     C57566   5.104  10.719   8.024 -0.2816 -0.2151  0.2768
  427MOL0     C57567   5.230  10.722   7.969 -1.0881 -0.2417  0.0630
  427MOL0     C57568   5.345  10.671   8.043 -0.2802 -0.3383 -0.3316
  427MOL0     O57569   5.476  10.657   7.998 -0.7095 -0.2599  0.5466
  427MOL0     C57570   5.495  10.707   7.861 -0.8115  0.0414  0.1628
  427MOL0     C57571   5.636  10.674   7.806  0.4106  0.3627 -0.5534
  427MOL0     C57572   5.640  10.527   7.790  0.3180  0.5377 -0.3227
  427MOL0     C57573   5.775  10.474   7.733 -0.0218 -0.0176 -1.0013
  427MOL0     C57574   5.804  10.530   7.593  0.1460 -0.4208 -1.1081
  427MOL0     C57575   5.857  10.549   7.483  0.6707  1.0042  0.2722
  427MOL0     C57576   5.316  10.599   8.160 -0.1374  0.0132  0.2073
  427MOL0     C57577   5.182  10.574   8.202 -0.4142 -0.2930 -0.1881
  427MOL0     H57578   4.873  10.249   8.302 -2.1153 -1.3519  3.7164
  427MOL0     H57579   4.686  10.116   8.331 -2.5269 -1.0696 -0.8218
  427MOL0     H57580   4.551  10.015   8.133 -1.7394 -4.1517 -0.0381
  427MOL0     H57581   4.445   9.966   8.261  0.7449 -2.1949 -0.3937
  427MOL0     H57582   4.343  10.089   8.004 -0.5813 -0.4316 -0.8784
  427MOL0     H57583   4.367   9.908   8.020 -1.8944 -1.4529  0.0806
  427MOL0     H57584   4.204   9.921   8.203  0.2831 -1.4811 -0.9185
  427MOL0     H57585   4.183  10.091   8.177  1.1428 -0.8006  2.9178
  427MOL0     H57586   4.104  10.064   7.943 -1.7389  1.9231  1.2306
  427MOL0     H57587   4.116   9.893   7.960  1.5643  3.1074 -3.5762
  427MOL0     H57588   3.930   9.904   8.134 -0.7618  0.0417  1.1033
  427MOL0     H57589   3.931  10.078   8.130  0.3877 -0.7134  1.0836
  427MOL0     H57590   3.907   9.925   7.858  1.6009 -1.5269  1.3049
  427MOL0     H57591   3.766   9.928   7.971 -1.5092  2.3127  1.3838
  427MOL0     H57592   3.772  10.179   7.949  1.7955  0.4381  0.5188
  427MOL0     H57593   3.909  10.164   7.857 -1.2418  2.7929 -0.2407
  427MOL0     H57594   3.792  10.070   7.661 -1.2800 -1.7282 -0.3151
  427MOL0     H57595   3.743  10.227   7.727  0.9516  1.1100  2.3291
  427MOL0     H57596   3.501  10.240   7.807  0.7943  0.1345  1.0364
  427MOL0     H57597   3.246  10.134   7.928  0.7338 -1.5768  0.2925
  427MOL0     H57598   3.243  10.171   7.763  1.0667 -0.4789 -0.7261
  427MOL0     H57599   3.195   9.889   7.844 -0.0584  0.1608  0.8533
  427MOL0     H57600   3.178   9.963   7.689  2.0802  1.0064  0.2880
  427MOL0     H57601   2.995  10.119   7.794 -2.1188  0.9859  1.8465
  427MOL0     H57602   3.021  10.028   7.939  3.5106 -0.7323  0.8237
  427MOL0     H57603   2.946   9.819   7.768 -1.7321 -1.1411 -1.9518
  427MOL0     H57604   2.944   9.938   7.655 -2.1771 -1.1166 -0.8653
  427MOL0     H57605   2.786   9.747   7.624  0.0805  1.5213 -1.0262
  427MOL0     H57606   2.545   9.651   7.403  0.9184 -0.7438 -0.2190
  427MOL0     H57607   2.704   9.619   7.464  0.0888  1.1056  1.3465
  427MOL0     H57608   2.565   9.528   7.522  0.9846 -1.0100 -1.5529
  427MOL0     H57609   2.141   9.964   7.416 -0.2605  0.2061 -0.0924
  427MOL0     H57610   1.925   9.946   7.289  1.0080 -1.6267 -1.6430
  427MOL0     H57611   1.685   9.579   7.327 -1.1974  0.3696 -0.7379
  427MOL0     H57612   1.626   9.675   7.471 -1.4749 -3.9833  0.2430
  427MOL0     H57613   1.469   9.789   7.337  2.5730 -0.7047  5.6132
  427MOL0     H57614   1.501   9.681   7.188 -1.8076 -3.1119  0.0419
  427MOL0     H57615   1.455   9.551   7.458  0.8835 -1.6555 -0.7208
  427MOL0     H57616   1.425   9.495   7.289 -0.5326  1.4333 -1.8818
  427MOL0     H57617   1.265   9.714   7.443 -3.5261 -0.8461 -0.2291
  427MOL0     H57618   1.238   9.675   7.267  0.1156  1.1164  1.3027
  427MOL0     H57619   1.208   9.502   7.522  1.4540 -0.2429  0.0286
  427MOL0     H57620   1.210   9.441   7.358  1.8727  1.0158 -0.5223
  427MOL0     H57621   1.000   9.637   7.466  1.3816  2.2739 -3.0812
  427MOL0     H57622   0.991   9.565   7.312 -0.6077  2.3828  0.6021
  427MOL0     H57623   1.026   9.397   7.573  1.8647  1.0744 -0.9966
  427MOL0     H57624   0.995   9.343   7.408  3.9245  1.4118 -0.8525
  427MOL0     H57625   0.777   9.454   7.400  1.3958 -0.6578 -1.3891
  427MOL0     H57626   0.806   9.526   7.561  0.0223 -1.5832  0.5964
  427MOL0     H57627   1.843   9.587   7.503  1.0409  0.5526  2.0776
  427MOL0     H57628   2.035   9.622   7.646 -0.0025  1.8658  1.4614
  427MOL0     H57629   2.359   9.931   7.759  1.0045  1.8858  0.5245
  427MOL0     H57630   2.541  10.020   7.854  1.3659 -1.5934  1.8649
  427MOL0     H57631   4.452  10.384   8.098  0.3317 -2.7142 -1.3524
  427MOL0     H57632   4.656  10.550   8.093 -0.8349  1.2297  1.1396
  427MOL0     H57633   5.032  10.766   7.959 -0.5528 -0.1440  0.6294
  427MOL0     H57634   5.245  10.775   7.875 -0.1776  0.2841  0.4979
  427MOL0     H57635   5.419  10.678   7.788 -1.3127  1.7833 -0.0586
  427MOL0     H57636   5.484  10.816   7.852  2.4048  0.7966  3.1379
  427MOL0     H57637   5.705  10.709   7.883 -0.7736  1.1067  0.1968
  427MOL0     H57638   5.658  10.716   7.707  0.2691 -3.1145 -2.2036
  427MOL0     H57639   5.562  10.493   7.721 -0.0177  2.1254 -0.7676
  427MOL0     H57640   5.629  10.472   7.883  0.0101 -1.8651 -1.6873
  427MOL0     H57641   5.760  10.367   7.718  3.5669 -0.5538 -1.6225
  427MOL0     H57642   5.857  10.482   7.804 -0.5178  1.7176 -0.5676
  427MOL0     H57643   5.895  10.574   7.386 -0.0491  2.0430  0.2453
  427MOL0     H57644   5.389  10.555   8.226 -1.0047  0.0018  1.1853
  427MOL0     H57645   5.162  10.511   8.288 -0.3606  0.6107  0.5071
  428MOL0     O57646   5.287   8.975   4.920 -0.2044 -0.0918  0.4383
  428MOL0     C57647   5.317   8.998   4.803  0.6127 -0.4845  1.0038
  428MOL0     O57648   5.423   8.951   4.731  0.8935 -0.2830  0.1578
  428MOL0     C57649   5.528   8.877   4.792  0.4036 -0.3724 -0.3752
  428MOL0     C57650   5.606   8.921   4.899  0.7695  0.5431  0.3544
  428MOL0     C57651   5.720   8.856   4.936  0.2359  0.4352 -0.2783
  428MOL0     C57652   5.762   8.729   4.883  0.2672 -0.1108  0.6023
  428MOL0     O57653   5.878   8.668   4.926 -0.4262  0.5507 -0.2528
  428MOL0     C57654   6.002   8.747   4.927  0.5106 -0.2172 -0.0182
  428MOL0     C57655   6.125   8.664   4.902  0.3619  0.7545 -0.5222
  428MOL0     C57656   6.169   8.563   5.006 -1.2206  0.2408 -0.3470
  428MOL0     C57657   6.287   8.487   4.941  0.0499 -0.2413  0.5291
  428MOL0     C57658   6.354   8.401   5.065 -0.6310 -0.2551  0.4957
  428MOL0     C57659   6.409   8.266   5.014  0.3553 -0.3811  0.0703
  428MOL0     C57660   6.483   8.199   5.132  0.3423 -0.5482 -0.4364
  428MOL0     C57661   6.526   8.062   5.085 -0.6986 -0.6344  0.0827
  428MOL0     N57662   6.415   7.976   5.050 -0.7555  0.1086 -0.5093
  428MOL0     C57663   6.313   7.941   5.144 -1.0135 -0.0388  0.4673
  428MOL0     C57664   6.237   7.854   5.071 -0.4201  0.3727  0.1672
  428MOL0     C57665   6.128   7.778   5.122 -0.8310 -0.4216  0.3407
  428MOL0     C57666   6.022   7.864   5.187  0.0459  0.2154 -0.7050
  428MOL0     C57667   5.901   7.798   5.253  0.3809 -0.0099  1.0295
  428MOL0     C57668   5.804   7.732   5.151  0.7632  1.1311  0.0377
  428MOL0     O57669   5.760   7.823   5.053 -1.0995 -0.5763  0.3888
  428MOL0     C57670   5.668   7.785   4.959  0.1923  1.7395 -0.2548
  428MOL0     C57671   5.625   7.868   4.847 -0.4246  0.6954 -1.5868
  428MOL0     C57672   5.531   7.832   4.752  0.0193 -0.8746 -0.2781
  428MOL0     C57673   5.503   7.938   4.649  0.0099  0.0215  0.9673
  428MOL0     C57674   5.468   7.700   4.761  0.0456  0.3634 -0.3917
  428MOL0     C57675   5.399   7.636   4.646  0.7259  0.7409 -0.7090
  428MOL0     O57676   5.324   7.529   4.673 -0.4245  0.6070  0.8515
  428MOL0     C57677   5.237   7.510   4.570  0.0752 -0.7142  0.5160
  428MOL0     C57678   5.257   7.402   4.480  0.4069  0.3888 -1.1129
  428MOL0     C57679   5.156   7.379   4.386  0.6667  0.3543 -0.6671
  428MOL0     C57680   5.039   7.451   4.384 -0.1447 -0.9815 -0.6306
  428MOL0     O57681   4.947   7.396   4.294 -0.5378 -0.4582  0.0165
  428MOL0     C57682   4.812   7.447   4.280  0.2862 -0.5097  0.7422
  428MOL0     C57683   4.720   7.390   4.388  0.3650 -0.4047 -0.2419
  428MOL0     C57684   4.578   7.441   4.366 -0.0423  1.1730  0.0524
  428MOL0     C57685   4.485   7.350   4.440  0.5502 -0.2133  0.1829
  428MOL0     C57686   4.338   7.389   4.423 -0.2257 -0.5407 -0.3919
  428MOL0     C57687   4.311   7.540   4.444 -0.0317  0.2016  0.5533
  428MOL0     C57688   4.292   7.584   4.593  0.4661 -0.4336  0.0656
  428MOL0     C57689   4.388   7.535   4.706  0.3300  0.0443 -0.4358
  428MOL0    Cl57690   4.548   7.618   4.683  0.0187 -0.0242  0.4067
  428MOL0     C57691   5.013   7.552   4.479  0.1883 -0.1504  0.7018
  428MOL0     C57692   5.115   7.588   4.570 -0.7513  0.4475 -0.6785
  428MOL0     O57693   5.407   7.688   4.539  0.4513 -0.0635 -0.0865
  428MOL0     C57694   5.505   7.618   4.868  0.1470 -0.3813 -0.1444
  428MOL0     C57695   5.603   7.656   4.965 -0.3514 -0.2443 -0.3192
  428MOL0     N57696   6.290   7.843   4.945  0.0347 -0.0431  0.0585
  428MOL0     N57697   6.394   7.916   4.930 -0.6430 -0.2468  0.5982
  428MOL0     C57698   5.674   8.684   4.778  0.5394 -0.1494  0.1143
  428MOL0     C57699   5.560   8.752   4.735 -0.0297 -0.5986  0.6907
  428MOL0     C57700   5.221   9.087   4.723 -0.5798  0.5187  0.2157
  428MOL0     C57701   5.242   9.107   4.584  0.5234 -0.8860  0.2579
  428MOL0     C57702   5.151   9.186   4.515 -0.0099  0.2380 -0.5430
  428MOL0     C57703   5.046   9.255   4.583 -0.3001  0.0480  0.1903
  428MOL0     O57704   4.962   9.365   4.544 -0.3071  0.0710  0.4106
  428MOL0     C57705   5.015   9.440   4.434 -0.0499  0.1751 -0.6158
  428MOL0     C57706   4.936   9.569   4.445 -0.0735 -0.1640 -0.8842
  428MOL0     C57707   4.976   9.676   4.339 -0.4247  0.7785  0.6915
  428MOL0     C57708   5.123   9.727   4.347  0.0154 -0.1455 -0.1155
  428MOL0     C57709   5.148   9.816   4.234  0.1368  0.4179 -0.1629
  428MOL0     C57710   5.157   9.885   4.139  0.4584  0.0687  0.0772
  428MOL0     C57711   5.017   9.219   4.716 -0.6096 -0.5950 -0.2100
  428MOL0     C57712   5.107   9.133   4.786  0.3918 -0.9174 -0.4467
  428MOL0     H57713   5.587   9.019   4.943  0.5491  0.8505 -0.4096
  428MOL0     H57714   5.790   8.901   5.006  1.6075  0.9041 -1.9105
  428MOL0     H57715   5.992   8.827   4.853 -0.7480  1.5972  1.9866
  428MOL0     H57716   6.019   8.807   5.017  2.3743  2.1969 -1.8465
  428MOL0     H57717   6.098   8.613   4.809  0.5133  0.6043 -0.4847
  428MOL0     H57718   6.211   8.729   4.882  0.8392 -0.1749 -1.5874
  428MOL0     H57719   6.193   8.617   5.099 -0.7509  0.8688 -0.8257
  428MOL0     H57720   6.091   8.488   5.021  0.1990 -0.9692  1.5642
  428MOL0     H57721   6.259   8.418   4.860 -1.6008 -0.5898  1.3516
  428MOL0     H57722   6.357   8.559   4.898 -0.0525  0.4401  1.4686
  428MOL0     H57723   6.433   8.463   5.108  0.6459  0.3053 -2.3711
  428MOL0     H57724   6.283   8.390   5.147 -1.6307  1.5838 -0.0684
  428MOL0     H57725   6.326   8.201   4.984  0.2548  0.0546 -0.6047
  428MOL0     H57726   6.475   8.282   4.929 -2.0961 -0.9861 -2.0807
  428MOL0     H57727   6.567   8.260   5.167  0.8079  0.2061 -2.6915
  428MOL0     H57728   6.425   8.199   5.225 -0.3001  1.8108 -0.7793
  428MOL0     H57729   6.576   8.011   5.169  1.4414 -0.2299 -0.8789
  428MOL0     H57730   6.604   8.065   5.009  2.0896  0.9187  2.8021
  428MOL0     H57731   6.313   7.959   5.251  4.3237  0.2551  0.6791
  428MOL0     H57732   6.089   7.723   5.036  2.0572 -3.8889  1.0191
  428MOL0     H57733   6.160   7.709   5.201  0.2068  0.9200  1.1252
  428MOL0     H57734   5.984   7.927   5.107 -1.2918  0.8003  0.3645
  428MOL0     H57735   6.070   7.925   5.263 -0.8641 -0.4254  0.4054
  428MOL0     H57736   5.857   7.877   5.315  1.2540 -0.1805  1.8900
  428MOL0     H57737   5.931   7.714   5.316 -0.5675 -1.3466 -0.2405
  428MOL0     H57738   5.715   7.696   5.203 -0.6383  4.7032  0.3962
  428MOL0     H57739   5.854   7.644   5.111 -0.6631 -0.1178  0.9265
  428MOL0     H57740   5.671   7.966   4.841  1.2513  0.0356 -0.2924
  428MOL0     H57741   5.542   8.037   4.673 -0.4082  0.1254  1.2364
  428MOL0     H57742   5.549   7.901   4.557 -0.0320  1.6647  0.2577
  428MOL0     H57743   5.394   7.946   4.639  0.0917  2.0154  1.3694
  428MOL0     H57744   5.342   7.336   4.477 -1.8556 -2.7500 -0.9141
  428MOL0     H57745   5.173   7.295   4.319 -3.4965  0.5086 -2.1812
  428MOL0     H57746   4.802   7.556   4.282 -1.3751 -0.6363  1.5158
  428MOL0     H57747   4.782   7.414   4.181  2.6137  2.0311 -0.9405
  428MOL0     H57748   4.734   7.282   4.393  2.5960 -0.0899  3.0974
  428MOL0     H57749   4.744   7.428   4.487 -4.0060 -0.4273  1.0578
  428MOL0     H57750   4.555   7.440   4.259  0.0929 -2.7106 -0.1103
  428MOL0     H57751   4.579   7.543   4.405 -1.7205  0.7567  1.3188
  428MOL0     H57752   4.502   7.249   4.402  0.2404 -0.0979 -0.2756
  428MOL0     H57753   4.513   7.351   4.546  0.6141 -1.1522  0.1842
  428MOL0     H57754   4.272   7.327   4.484  1.2210 -1.2488  0.5248
  428MOL0     H57755   4.312   7.368   4.319  1.0322 -1.8837 -0.4796
  428MOL0     H57756   4.379   7.611   4.397 -0.9383 -0.2189 -1.5545
  428MOL0     H57757   4.211   7.549   4.399 -1.6745  0.0755  3.8865
  428MOL0     H57758   4.195   7.535   4.604  0.2326  0.3238  1.6209
  428MOL0     H57759   4.267   7.691   4.588 -2.6570 -1.1210 -2.2391
  428MOL0     H57760   4.414   7.429   4.700  0.9400 -0.0225  2.1445
  428MOL0     H57761   4.348   7.544   4.808  1.1763 -0.1228 -0.0824
  428MOL0     H57762   4.919   7.603   4.457  0.1946 -1.0617 -1.7234
  428MOL0     H57763   5.105   7.671   4.639  1.7278  1.7710 -1.7896
  428MOL0     H57764   5.455   7.523   4.884  0.3829 -0.4500  0.1852
  428MOL0     H57765   5.646   7.579   5.029  0.9156  0.2287 -0.5830
  428MOL0     H57766   5.708   8.600   4.718 -3.3989  0.2512 -3.0493
  428MOL0     H57767   5.521   8.718   4.640  2.4950 -2.3358  0.1724
  428MOL0     H57768   5.327   9.061   4.535 -0.3648 -2.0003 -0.2654
  428MOL0     H57769   5.166   9.207   4.410  1.3296  2.8734  0.0699
  428MOL0     H57770   5.123   9.455   4.447 -0.2095 -0.5913  2.0340
  428MOL0     H57771   5.009   9.389   4.338 -1.7536  0.3241 -0.6049
  428MOL0     H57772   4.972   9.610   4.539 -1.4130  0.8515 -0.7952
  428MOL0     H57773   4.829   9.548   4.451  0.6267 -4.3971  1.3607
  428MOL0     H57774   4.905   9.759   4.342 -0.9600  0.5727 -2.7624
  428MOL0     H57775   4.963   9.637   4.238  1.3197  1.3044  0.2289
  428MOL0     H57776   5.196   9.646   4.336  3.5110  2.6334  0.8001
  428MOL0     H57777   5.140   9.765   4.448  0.5904 -1.2288  0.2150
  428MOL0     H57778   5.162   9.950   4.054 -0.8911 -0.6468 -0.5792
  428MOL0     H57779   4.946   9.280   4.770 -0.2196 -0.5448  0.2619
  428MOL0     H57780   5.084   9.101   4.887  0.9518 -0.9571 -0.3299
  429MOL0     O57781   2.126   6.702   6.133 -0.0386 -0.1888  0.3459
  429MOL0     C57782   2.192   6.614   6.086 -0.4944  0.1930  0.3784
  429MOL0     O57783   2.153   6.492   6.030 -0.0786 -0.1230 -0.1555
  429MOL0     C57784   2.029   6.445   6.062 -0.0182 -0.5800  0.0737
  429MOL0     C57785   2.002   6.369   6.167 -0.0195  0.3716 -0.1442
  429MOL0     C57786   1.874   6.305   6.179 -0.1694 -0.9059 -0.2905
  429MOL0     C57787   1.772   6.325   6.088 -0.1371 -0.9712  0.1767
  429MOL0     O57788   1.654   6.267   6.110 -1.0031  0.4581  0.8920
  429MOL0     C57789   1.540   6.342   6.108 -0.1010 -0.0758 -0.7159
  429MOL0     C57790   1.431   6.245   6.069 -0.2719  0.6770 -0.4975
  429MOL0     C57791   1.370   6.187   6.194  0.1734  1.1450  0.0635
  429MOL0     C57792   1.265   6.089   6.155 -0.4409  0.4610  0.5433
  429MOL0     C57793   1.184   6.038   6.269  0.4768 -0.7036  0.1999
  429MOL0     C57794   1.075   5.945   6.213 -0.2466  0.3038 -0.2458
  429MOL0     C57795   0.998   5.865   6.324 -0.5570 -0.6586  0.0270
  429MOL0     C57796   0.880   5.793   6.260 -0.2966 -0.2211  0.1437
  429MOL0     N57797   0.783   5.758   6.364  0.0634 -0.3729  0.1954
  429MOL0     C57798   0.682   5.842   6.405  0.4283 -0.4073  0.1826
  429MOL0     C57799   0.583   5.766   6.461 -0.5228  0.0081  0.3054
  429MOL0     C57800   0.475   5.819   6.546 -1.1380  0.1485  0.2147
  429MOL0     C57801   0.346   5.783   6.477  0.0616  0.2631  0.0848
  429MOL0     C57802   0.232   5.857   6.550  0.7656 -0.0295 -0.4408
  429MOL0     C57803   0.095   5.811   6.501  0.5298 -0.6794  0.0308
  429MOL0     O57804   0.081   5.669   6.527 -0.1622 -0.4288  0.5898
  429MOL0     C57805  -0.041   5.604   6.527 -0.2942  0.0870 -0.8810
  429MOL0     C57806  -0.031   5.475   6.571  0.2986  0.4922 -0.8932
  429MOL0     C57807  -0.157   5.402   6.577 -0.0588 -1.2702 -0.3049
  429MOL0     C57808  -0.146   5.269   6.642  0.2918 -0.3064 -0.3607
  429MOL0     C57809  -0.275   5.459   6.518 -0.2164 -0.3884  0.0768
  429MOL0     C57810  -0.394   5.379   6.482 -0.2266 -0.4970  0.5396
  429MOL0     O57811  -0.498   5.447   6.431 -0.0137 -0.0431  0.4954
  429MOL0     C57812  -0.617   5.372   6.426 -0.5409  0.1782  1.2004
  429MOL0     C57813  -0.710   5.386   6.526 -0.2074 -0.0732  0.3362
  429MOL0     C57814  -0.826   5.310   6.525 -0.4987  0.7498 -1.0169
  429MOL0     C57815  -0.857   5.228   6.420  0.3033  0.3419  0.5755
  429MOL0     O57816  -0.986   5.169   6.415  0.0539  0.4713  0.7322
  429MOL0     C57817  -1.082   5.211   6.511  0.0892 -0.1760  0.5848
  429MOL0     C57818  -1.225   5.177   6.466 -1.3087  0.5161  0.7491
  429MOL0     C57819  -1.314   5.224   6.579  0.2706  0.0754 -0.6136
  429MOL0     C57820  -1.449   5.167   6.554 -0.1088 -0.7136 -0.1014
  429MOL0     C57821  -1.538   5.251   6.457 -0.2362 -0.2034  0.3878
  429MOL0     C57822  -1.672   5.178   6.423 -0.9203 -0.0155  0.1252
  429MOL0     C57823  -1.773   5.267   6.339 -0.1942  0.9393  0.6748
  429MOL0     C57824  -1.890   5.175   6.309 -0.0942 -0.3581 -0.7668
  429MOL0    Cl57825  -1.857   5.023   6.219 -0.1408  0.2372  0.1003
  429MOL0     C57826  -0.760   5.211   6.312 -0.0761 -0.1813 -0.4058
  429MOL0     C57827  -0.638   5.281   6.320  0.3289  0.1598  0.3745
  429MOL0     O57828  -0.392   5.253   6.484 -0.8598 -0.1742 -0.0654
  429MOL0     C57829  -0.280   5.598   6.485  0.4319  0.0206 -0.3032
  429MOL0     C57830  -0.161   5.664   6.490 -0.0465 -0.0502  0.2493
  429MOL0     N57831   0.627   5.642   6.463  0.1776  0.6578 -0.7332
  429MOL0     N57832   0.744   5.636   6.404 -0.0333 -0.9794  0.6941
  429MOL0     C57833   1.796   6.413   5.981 -0.6907  0.2791 -0.0246
  429MOL0     C57834   1.922   6.479   5.973  0.3513 -0.5266 -0.2154
  429MOL0     C57835   2.336   6.644   6.078  0.3335 -0.2055  0.0541
  429MOL0     C57836   2.427   6.561   6.018  0.2776  0.2376  0.4936
  429MOL0     C57837   2.568   6.579   6.037 -0.2630 -0.2277  0.6122
  429MOL0     C57838   2.614   6.686   6.109 -0.1568 -0.3751  0.2749
  429MOL0     O57839   2.744   6.719   6.135  0.2214 -0.3520 -0.3752
  429MOL0     C57840   2.821   6.745   6.025 -0.4806  0.0023  0.5567
  429MOL0     C57841   2.938   6.840   6.041  0.1473  0.7267 -0.3121
  429MOL0     C57842   3.011   6.798   6.172  0.0911 -0.1543 -0.4139
  429MOL0     C57843   3.136   6.885   6.207  0.4730 -0.4092 -0.1008
  429MOL0     C57844   3.216   6.909   6.094 -1.1688  0.2253 -0.3413
  429MOL0     C57845   3.290   6.936   5.997  0.1716  0.7899  0.6840
  429MOL0     C57846   2.516   6.772   6.171 -0.1321 -0.2447  0.7346
  429MOL0     C57847   2.383   6.759   6.147 -0.4443  0.0955 -0.5708
  429MOL0     H57848   2.082   6.340   6.234 -1.1757  0.7781  1.4836
  429MOL0     H57849   1.863   6.249   6.271  1.2520  1.6235  1.5430
  429MOL0     H57850   1.514   6.378   6.208  0.4959 -1.7781  0.0931
  429MOL0     H57851   1.538   6.429   6.042 -2.4282 -1.1286 -2.1718
  429MOL0     H57852   1.354   6.304   6.019  0.4824  1.3858 -0.8389
  429MOL0     H57853   1.459   6.161   6.005 -2.2064  0.0239 -0.5246
  429MOL0     H57854   1.447   6.129   6.246 -0.5553  0.0211 -0.1048
  429MOL0     H57855   1.325   6.265   6.258 -1.2848 -0.5603  1.2089
  429MOL0     H57856   1.195   6.139   6.088 -1.8805 -2.0201  0.0872
  429MOL0     H57857   1.315   6.010   6.098 -0.8220  0.5900  0.0312
  429MOL0     H57858   1.263   5.982   6.320  2.0661  0.9124 -0.3869
  429MOL0     H57859   1.150   6.125   6.326  0.3098  0.8815 -2.1690
  429MOL0     H57860   1.012   6.000   6.143 -1.2756  1.2901  1.4018
  429MOL0     H57861   1.122   5.867   6.152 -1.9397 -0.0852 -1.1017
  429MOL0     H57862   1.071   5.800   6.373 -0.5828 -1.0878 -0.4988
  429MOL0     H57863   0.960   5.943   6.390  2.5758  2.2266 -1.3055
  429MOL0     H57864   0.921   5.696   6.228 -0.2554 -0.4423  0.8360
  429MOL0     H57865   0.840   5.855   6.180 -2.0541 -1.0733  0.3172
  429MOL0     H57866   0.686   5.950   6.402  0.8179 -0.2000  3.9264
  429MOL0     H57867   0.484   5.762   6.639  0.2693  0.9585  0.5951
  429MOL0     H57868   0.487   5.925   6.569 -0.0713 -0.2560  1.6152
  429MOL0     H57869   0.334   5.676   6.462  1.0820  0.4006 -2.0259
  429MOL0     H57870   0.342   5.810   6.371  0.2677  2.1382  0.5236
  429MOL0     H57871   0.239   5.966   6.540 -1.2723  0.3074  1.2179
  429MOL0     H57872   0.245   5.843   6.658  0.9332  2.0656 -0.1342
  429MOL0     H57873   0.078   5.822   6.394 -1.4754 -2.5541  0.0951
  429MOL0     H57874   0.015   5.865   6.552 -0.5672 -0.4622 -1.8389
  429MOL0     H57875   0.055   5.427   6.615 -0.4657  0.3359  0.4769
  429MOL0     H57876  -0.173   5.190   6.572  3.9022 -0.9332 -1.2488
  429MOL0     H57877  -0.049   5.264   6.692  0.0398  0.6336  0.2550
  429MOL0     H57878  -0.214   5.260   6.727  2.4234 -2.0056  1.2862
  429MOL0     H57879  -0.691   5.450   6.612  0.4540 -0.1939  0.2828
  429MOL0     H57880  -0.880   5.309   6.619  1.2905  0.1995  0.0466
  429MOL0     H57881  -1.062   5.151   6.600  0.3780 -0.8985  0.0439
  429MOL0     H57882  -1.073   5.318   6.530  0.6687  0.3520 -2.1251
  429MOL0     H57883  -1.256   5.228   6.375  1.8240 -2.2612 -2.1664
  429MOL0     H57884  -1.236   5.072   6.439 -0.4227  0.9436 -1.4807
  429MOL0     H57885  -1.325   5.333   6.582  0.6695  0.1113 -0.4413
  429MOL0     H57886  -1.282   5.187   6.677  1.7589  0.8143 -0.7894
  429MOL0     H57887  -1.445   5.061   6.528 -0.0740 -1.0885  1.3302
  429MOL0     H57888  -1.500   5.163   6.651 -1.3997  0.6101 -0.6930
  429MOL0     H57889  -1.479   5.254   6.365  1.5184 -3.3065  1.2585
  429MOL0     H57890  -1.563   5.352   6.490 -0.5825 -0.6702  1.5926
  429MOL0     H57891  -1.646   5.088   6.369  0.9526  1.5980 -1.7991
  429MOL0     H57892  -1.726   5.150   6.515 -3.4233  0.3054 -1.1453
  429MOL0     H57893  -1.732   5.286   6.240 -1.1339  0.0035  0.0838
  429MOL0     H57894  -1.799   5.357   6.395  0.1373  1.0156  0.7119
  429MOL0     H57895  -1.961   5.241   6.257 -3.1684 -0.1632  3.1913
  429MOL0     H57896  -1.921   5.146   6.410  0.6305 -0.3460 -0.5359
  429MOL0     H57897  -0.791   5.151   6.227 -3.6107  0.0938  0.5158
  429MOL0     H57898  -0.565   5.258   6.244 -0.7791 -2.8062  0.0754
  429MOL0     H57899  -0.360   5.650   6.434  0.1441 -0.0095  0.1108
  429MOL0     H57900  -0.164   5.766   6.455 -1.4158 -0.0417  0.3298
  429MOL0     H57901   1.725   6.430   5.901 -0.8114  1.3372  0.2828
  429MOL0     H57902   1.943   6.534   5.882 -0.4641 -0.4793 -0.3844
  429MOL0     H57903   2.402   6.474   5.958  6.4145 -0.5696 -1.6542
  429MOL0     H57904   2.641   6.512   5.992 -1.2693 -1.7299  1.1501
  429MOL0     H57905   2.853   6.655   5.971  2.5734  2.4598 -2.0887
  429MOL0     H57906   2.757   6.798   5.955  2.2347  1.3733 -1.0397
  429MOL0     H57907   2.910   6.943   6.063  3.3449  2.0703 -1.8871
  429MOL0     H57908   3.005   6.832   5.955  0.5227  1.7769 -0.1291
  429MOL0     H57909   3.033   6.691   6.169 -1.2007 -0.4604  0.3197
  429MOL0     H57910   2.948   6.814   6.260  0.0756  1.7503 -0.7186
  429MOL0     H57911   3.201   6.852   6.289  1.9631  0.5845 -0.8315
  429MOL0     H57912   3.100   6.985   6.231  2.1017  0.6902 -1.9682
  429MOL0     H57913   3.354   6.924   5.912  0.0046  0.9813  0.5286
  429MOL0     H57914   2.550   6.850   6.238  1.5831  0.4728 -0.8463
  429MOL0     H57915   2.327   6.840   6.193  0.4525  1.0321 -1.0981
  430MOL0     O57916   4.056  11.073   0.867 -0.1463 -0.8480  0.0978
  430MOL0     C57917   4.012  11.029   0.762  0.1280 -0.6833 -0.0382
  430MOL0     O57918   4.078  10.999   0.644 -0.6585  0.0715  0.6041
  430MOL0     C57919   4.214  11.014   0.637  0.1870 -0.1723  0.3514
  430MOL0     C57920   4.315  10.985   0.735 -0.0391  0.2252 -0.3045
  430MOL0     C57921   4.454  11.003   0.718 -0.3022 -0.5316 -0.5707
  430MOL0     C57922   4.496  11.047   0.597 -0.4332  0.4664  1.2136
  430MOL0     O57923   4.636  11.059   0.566 -0.6906  0.2955  0.1244
  430MOL0     C57924   4.698  10.940   0.521  0.2305 -0.0217  0.3840
  430MOL0     C57925   4.847  10.952   0.531  0.1607  0.5358 -0.4589
  430MOL0     C57926   4.917  11.071   0.457 -0.1472  0.2774  0.0470
  430MOL0     C57927   5.064  11.036   0.404  0.1711 -0.3457  0.7232
  430MOL0     C57928   5.137  11.151   0.325  0.0271  0.2242 -0.2370
  430MOL0     C57929   5.158  11.276   0.407 -0.5130 -0.2923  0.1496
  430MOL0     C57930   5.245  11.377   0.349 -0.0327  0.8563 -0.1020
  430MOL0     C57931   5.242  11.508   0.421 -0.0363 -0.2232 -0.5567
  430MOL0     N57932   5.209  11.510   0.567 -0.6049  0.2840 -0.0943
  430MOL0     C57933   5.298  11.453   0.664 -0.3969  0.2648 -0.2208
  430MOL0     C57934   5.244  11.491   0.777  0.4245  0.5216  0.9410
  430MOL0     C57935   5.305  11.465   0.914 -0.5459 -0.5682  0.4581
  430MOL0     C57936   5.355  11.320   0.940 -0.0281  0.0642 -0.1245
  430MOL0     C57937   5.341  11.272   1.081 -0.4813 -0.9942 -0.8805
  430MOL0     C57938   5.217  11.295   1.164  1.0768  0.1464  0.6966
  430MOL0     O57939   5.234  11.232   1.290 -0.1860 -0.4054  0.3224
  430MOL0     C57940   5.127  11.223   1.368  0.2206 -0.1949  0.1238
  430MOL0     C57941   5.133  11.114   1.464  0.5802  0.6525  0.4912
  430MOL0     C57942   5.025  11.088   1.544  0.4747  0.4201 -0.2307
  430MOL0     C57943   5.052  10.987   1.658  0.2601  0.0827 -0.3481
  430MOL0     C57944   4.908  11.159   1.538  0.8722 -0.2549  0.6398
  430MOL0     C57945   4.788  11.136   1.620 -0.2719 -0.0174  0.2408
  430MOL0     O57946   4.699  11.240   1.624 -0.1919  0.6330 -0.8344
  430MOL0     C57947   4.574  11.208   1.678 -0.5823 -0.9886  0.0072
  430MOL0     C57948   4.532  11.247   1.805 -0.3458 -0.6388  0.2143
  430MOL0     C57949   4.403  11.217   1.857  0.3286 -0.2542  0.4105
  430MOL0     C57950   4.301  11.161   1.765 -0.2146 -0.2778 -0.3424
  430MOL0     O57951   4.171  11.138   1.804  0.1687  0.0514  0.4941
  430MOL0     C57952   4.124  11.236   1.895  0.3664  0.0810  0.4837
  430MOL0     C57953   3.972  11.249   1.919 -0.0921 -0.5016 -0.1983
  430MOL0     C57954   3.878  11.260   1.802 -0.3890  0.3617 -0.6921
  430MOL0     C57955   3.742  11.318   1.856  0.0636  0.1429  0.7477
  430MOL0     C57956   3.637  11.203   1.881 -0.0430  0.2449 -0.2561
  430MOL0     C57957   3.686  11.070   1.949  0.0343  0.2836 -0.4661
  430MOL0     C57958   3.579  10.973   1.981 -0.1486  0.3523  0.2914
  430MOL0     C57959   3.638  10.827   2.003 -0.4320 -0.3707  0.0588
  430MOL0    Cl57960   3.483  10.735   2.018 -0.0393  0.4844 -0.5705
  430MOL0     C57961   4.348  11.125   1.637 -0.4531 -0.4434 -0.7626
  430MOL0     C57962   4.482  11.134   1.595  1.2885  0.0392 -0.4339
  430MOL0     O57963   4.775  11.030   1.677 -0.3340 -0.1005  0.2274
  430MOL0     C57964   4.905  11.275   1.452 -1.0278 -0.0636 -0.1206
  430MOL0     C57965   5.010  11.301   1.361  0.9486 -0.5346 -0.8268
  430MOL0     N57966   5.124  11.560   0.756 -0.7220  0.5428 -0.8150
  430MOL0     N57967   5.104  11.571   0.629 -0.0127  0.7163 -0.7526
  430MOL0     C57968   4.401  11.070   0.494  0.1875 -0.2071  0.2768
  430MOL0     C57969   4.261  11.056   0.509 -0.1876 -0.2560  0.2290
  430MOL0     C57970   3.866  10.989   0.768  0.1092 -0.3074  0.5321
  430MOL0     C57971   3.775  11.052   0.854  0.4882  1.1080 -0.5938
  430MOL0     C57972   3.643  11.003   0.863 -0.0236 -0.8919 -0.3290
  430MOL0     C57973   3.598  10.897   0.778 -0.4751  0.7270  0.1937
  430MOL0     O57974   3.466  10.877   0.790 -0.1329  0.4414 -0.3508
  430MOL0     C57975   3.407  10.785   0.696  0.0352 -0.0494 -0.2698
  430MOL0     C57976   3.264  10.754   0.717  0.3637 -0.6672  0.7660
  430MOL0     C57977   3.186  10.851   0.638  0.9502 -0.4824 -0.2130
  430MOL0     C57978   3.040  10.802   0.634  0.1483 -0.2726  0.0554
  430MOL0     C57979   2.957  10.905   0.570 -0.1929  1.1701 -0.4685
  430MOL0     C57980   2.867  10.982   0.532 -0.4419  0.3363  0.1279
  430MOL0     C57981   3.692  10.830   0.691  0.8792 -0.5624 -0.6423
  430MOL0     C57982   3.827  10.874   0.688 -0.3830 -0.3936  0.5754
  430MOL0     H57983   4.292  10.941   0.831  1.6775  0.2199  0.1499
  430MOL0     H57984   4.519  10.966   0.796 -1.2217 -1.8845 -0.4186
  430MOL0     H57985   4.673  10.853   0.582  1.0293 -1.2056 -0.8928
  430MOL0     H57986   4.659  10.924   0.420  1.3858 -0.0376 -0.0745
  430MOL0     H57987   4.868  10.953   0.639  1.5457 -0.9097 -0.6697
  430MOL0     H57988   4.893  10.869   0.477 -0.8336 -0.7285  0.5718
  430MOL0     H57989   4.856  11.093   0.368 -1.0265 -1.2012  0.2456
  430MOL0     H57990   4.924  11.158   0.522  1.6663 -0.7829  1.3610
  430MOL0     H57991   5.131  11.018   0.488  0.9852  0.4067  0.2431
  430MOL0     H57992   5.050  10.944   0.345 -1.6442 -1.5127  2.7918
  430MOL0     H57993   5.230  11.123   0.273  0.6214  3.9800 -1.5698
  430MOL0     H57994   5.071  11.181   0.243 -0.0666  3.3202  0.8453
  430MOL0     H57995   5.061  11.318   0.436 -1.0998 -0.1553 -1.8216
  430MOL0     H57996   5.207  11.245   0.499 -0.4450  2.7439  1.2331
  430MOL0     H57997   5.347  11.339   0.337 -0.7567 -0.5505 -2.5980
  430MOL0     H57998   5.202  11.397   0.250  2.7548  0.4165 -1.4937
  430MOL0     H57999   5.180  11.581   0.368  1.1703 -0.4107 -2.3296
  430MOL0     H58000   5.345  11.546   0.416  0.0065 -0.3286 -0.4862
  430MOL0     H58001   5.397  11.411   0.653 -0.5319 -0.1257  0.0320
  430MOL0     H58002   5.385  11.539   0.920 -0.2762 -0.9789  2.5990
  430MOL0     H58003   5.232  11.495   0.989  0.8304  2.6755  0.6670
  430MOL0     H58004   5.462  11.319   0.915 -0.3622 -2.3724 -1.7628
  430MOL0     H58005   5.301  11.249   0.877 -1.1110 -0.1892  1.0556
  430MOL0     H58006   5.416  11.326   1.140 -1.3284  2.6239 -2.7729
  430MOL0     H58007   5.355  11.164   1.087  1.2863 -0.8500 -1.8166
  430MOL0     H58008   5.132  11.253   1.110 -0.2701  2.0668  1.2131
  430MOL0     H58009   5.181  11.398   1.169 -2.5282 -0.6028 -3.4534
  430MOL0     H58010   5.225  11.057   1.480  0.8836  0.2367 -2.3193
  430MOL0     H58011   5.157  10.988   1.689  1.3708  0.9710 -3.6599
  430MOL0     H58012   4.988  11.008   1.744  0.7183  2.1778 -0.4663
  430MOL0     H58013   5.041  10.886   1.619 -2.8308  1.5747 -3.9756
  430MOL0     H58014   4.605  11.302   1.863  1.3315 -2.4136 -0.1176
  430MOL0     H58015   4.386  11.247   1.960  0.3406  0.1877  0.2854
  430MOL0     H58016   4.166  11.221   1.995  2.0737  1.7405  0.0910
  430MOL0     H58017   4.150  11.330   1.846  2.6310  0.8860  2.9785
  430MOL0     H58018   3.921  11.180   1.987 -1.4805 -1.0104 -1.6970
  430MOL0     H58019   3.966  11.341   1.978  1.7798  0.2678 -1.1084
  430MOL0     H58020   3.875  11.162   1.754 -1.7027 -0.6740  1.3901
  430MOL0     H58021   3.910  11.335   1.729  1.4663 -0.9215 -1.2613
  430MOL0     H58022   3.757  11.376   1.948 -0.4712  1.6897 -0.1198
  430MOL0     H58023   3.707  11.382   1.776 -1.2995  0.1420  1.3224
  430MOL0     H58024   3.598  11.174   1.784  3.2756 -3.4497 -0.7353
  430MOL0     H58025   3.557  11.238   1.947  0.7250 -1.6137  1.8119
  430MOL0     H58026   3.758  11.020   1.884  0.8877 -0.4457  0.9834
  430MOL0     H58027   3.735  11.090   2.044 -0.6205  0.3075 -0.1257
  430MOL0     H58028   3.497  10.970   1.908  0.0172 -0.5660  0.1288
  430MOL0     H58029   3.535  11.001   2.077  0.6324 -1.9553  1.3971
  430MOL0     H58030   3.695  10.835   2.096  0.9103  1.8552 -0.8689
  430MOL0     H58031   3.696  10.795   1.917  0.4577  0.2685  0.4043
  430MOL0     H58032   4.254  11.095   1.591 -1.4294  0.4287  0.5881
  430MOL0     H58033   4.508  11.100   1.495 -1.0789 -1.3005 -0.6783
  430MOL0     H58034   4.818  11.338   1.432 -1.4803 -1.3296 -2.5226
  430MOL0     H58035   4.994  11.383   1.291 -0.8939 -0.5894 -0.5306
  430MOL0     H58036   4.443  11.121   0.408  1.3348  0.3095  1.1243
  430MOL0     H58037   4.194  11.087   0.430 -0.2065  0.9426  0.6965
  430MOL0     H58038   3.796  11.141   0.912  0.7283 -1.3237  3.4272
  430MOL0     H58039   3.572  11.059   0.923 -0.1919 -0.1870 -1.1522
  430MOL0     H58040   3.424  10.807   0.590  2.5041 -1.0594 -0.1495
  430MOL0     H58041   3.458  10.690   0.714 -0.0229  0.0578  0.4701
  430MOL0     H58042   3.227  10.761   0.820  0.8414 -0.4957  0.9264
  430MOL0     H58043   3.233  10.656   0.680 -1.0544 -0.3209  0.9633
  430MOL0     H58044   3.225  10.856   0.536  1.0378 -1.5541 -0.2423
  430MOL0     H58045   3.197  10.950   0.685 -1.7633 -1.3097  2.5131
  430MOL0     H58046   2.994  10.785   0.732 -3.4248  0.1255 -1.4054
  430MOL0     H58047   3.033  10.716   0.566 -0.6248 -2.8328  3.1349
  430MOL0     H58048   2.798  11.059   0.501  0.3379  1.2729  0.6747
  430MOL0     H58049   3.667  10.739   0.637 -0.1428  0.2522 -1.5886
  430MOL0     H58050   3.900  10.818   0.630 -1.7791  2.2514 -4.2977
  431MOL0     O58051   4.122   1.678  10.984 -0.4774  0.2120 -0.1131
  431MOL0     C58052   4.203   1.712  10.899 -0.2371 -0.7695 -0.1417
  431MOL0     O58053   4.171   1.772  10.784  0.3966 -0.2285  0.2998
  431MOL0     C58054   4.051   1.840  10.774 -0.5426 -0.4410  0.3950
  431MOL0     C58055   3.957   1.790  10.683 -0.1635 -0.2720 -0.0987
  431MOL0     C58056   3.840   1.861  10.657  0.3660 -1.3280  0.0386
  431MOL0     C58057   3.815   1.992  10.722  0.5000 -0.1082  0.1190
  431MOL0     O58058   3.698   2.060  10.689  0.1504  0.2878 -0.0884
  431MOL0     C58059   3.579   1.979  10.665  0.7272 -0.2740  0.3511
  431MOL0     C58060   3.450   2.055  10.634 -0.8525  0.1613 -0.2578
  431MOL0     C58061   3.333   1.960  10.602 -0.1585  0.3019  0.2500
  431MOL0     C58062   3.211   2.040  10.557  0.7060  0.4849  0.6242
  431MOL0     C58063   3.091   1.938  10.527 -0.7781 -0.1038 -0.8536
  431MOL0     C58064   3.002   2.012  10.435  0.7543 -0.4082  0.0526
  431MOL0     C58065   2.852   1.955  10.428  0.7024 -0.4975 -0.4236
  431MOL0     C58066   2.841   1.807  10.370 -0.8149 -0.4229 -0.9234
  431MOL0     N58067   2.709   1.750  10.403 -0.0657  0.1046  0.3454
  431MOL0     C58068   2.655   1.643  10.338 -0.3175  0.2795  0.1969
  431MOL0     C58069   2.557   1.595  10.409  0.9606 -0.5834 -0.7990
  431MOL0     C58070   2.465   1.476  10.381 -0.4995  0.4869 -0.2292
  431MOL0     C58071   2.509   1.357  10.469 -0.1240 -0.4481 -0.1186
  431MOL0     C58072   2.400   1.252  10.473  0.7988 -0.1145  0.0574
  431MOL0     C58073   2.451   1.135  10.548  0.2204  0.6213 -0.9422
  431MOL0     O58074   2.373   1.015  10.523 -0.7181 -0.3045 -0.3682
  431MOL0     C58075   2.259   1.006  10.600 -0.5275  0.4102 -0.2539
  431MOL0     C58076   2.154   0.936  10.535  0.0869 -0.2066 -0.4831
  431MOL0     C58077   2.030   0.907  10.594 -0.1084  0.1074 -0.9806
  431MOL0     C58078   1.916   0.846  10.521  1.2681  0.1296  0.9067
  431MOL0     C58079   2.021   0.944  10.733 -0.0007 -0.8884  0.0491
  431MOL0     C58080   1.909   0.899  10.834 -0.0520 -0.2122  0.2036
  431MOL0     O58081   1.948   0.862  10.955  0.7353  0.2502 -0.1495
  431MOL0     C58082   1.857   0.831  11.054  0.1959  0.2821  0.9137
  431MOL0     C58083   1.898   0.732  11.145 -0.0056  0.0608  0.1216
  431MOL0     C58084   1.823   0.701  11.258 -0.3256 -0.4378 -0.2200
  431MOL0     C58085   1.711   0.777  11.289  0.1347  0.0419 -0.4500
  431MOL0     O58086   1.654   0.739  11.401  0.7059 -0.2477 -0.0860
  431MOL0     C58087   1.509   0.739  11.398  0.0180  0.2369 -0.2170
  431MOL0     C58088   1.473   0.651  11.519  0.3542 -0.4119 -0.1248
  431MOL0     C58089   1.484   0.726  11.651 -0.4549  0.5393 -0.3531
  431MOL0     C58090   1.399   0.659  11.761  0.7318  0.2941 -0.2245
  431MOL0     C58091   1.238   0.681  11.759  0.0400  0.0046  0.7676
  431MOL0     C58092   1.175   0.657  11.895 -0.0289  0.6219  0.1292
  431MOL0     C58093   1.030   0.656  11.914 -0.2019  0.1936  0.2370
  431MOL0     C58094   0.969   0.798  11.935  0.5195 -0.1888 -1.1031
  431MOL0    Cl58095   0.793   0.790  11.948  0.6632  0.1862  0.2599
  431MOL0     C58096   1.684   0.886  11.211 -0.7496  0.2706 -0.2166
  431MOL0     C58097   1.753   0.917  11.092  0.4887 -0.4978 -0.2782
  431MOL0     O58098   1.793   0.883  10.793  0.4911 -0.4892  0.0321
  431MOL0     C58099   2.130   1.002  10.800  0.3005  0.8547  0.0279
  431MOL0     C58100   2.245   1.045  10.736  0.5617  0.0803 -0.3345
  431MOL0     N58101   2.556   1.672  10.522  0.0524 -0.6009  0.2112
  431MOL0     N58102   2.644   1.770  10.518 -0.0781  0.5825  0.2695
  431MOL0     C58103   3.911   2.044  10.809 -0.1562 -0.2303  0.3260
  431MOL0     C58104   4.034   1.967  10.829 -0.7460  0.1795 -0.5943
  431MOL0     C58105   4.342   1.690  10.940  0.2177 -0.1920  0.7682
  431MOL0     C58106   4.436   1.722  10.843  0.7462  0.1838 -0.7138
  431MOL0     C58107   4.573   1.711  10.880  0.1391 -0.1818  0.2363
  431MOL0     C58108   4.624   1.674  11.002  0.6863  0.5010 -0.5163
  431MOL0     O58109   4.762   1.644  11.004  0.7653 -0.6430  0.0523
  431MOL0     C58110   4.810   1.621  11.136 -0.2861  0.2514 -0.4831
  431MOL0     C58111   4.962   1.583  11.130 -0.3984 -0.1326 -0.8566
  431MOL0     C58112   5.054   1.704  11.101  1.3313 -0.5283 -0.1444
  431MOL0     C58113   5.190   1.666  11.103 -0.3144 -0.2113 -0.0180
  431MOL0     C58114   5.279   1.779  11.097  0.2489  0.5045 -0.6735
  431MOL0     C58115   5.372   1.855  11.072 -1.0624 -0.5604 -0.0041
  431MOL0     C58116   4.528   1.636  11.094 -1.1014  0.9684  0.6253
  431MOL0     C58117   4.393   1.652  11.067  0.5698 -0.0284 -0.4493
  431MOL0     H58118   3.964   1.691  10.640  1.3882  1.2119 -3.7009
  431MOL0     H58119   3.766   1.809  10.597  1.1248  1.2197 -3.4532
  431MOL0     H58120   3.590   1.929  10.568 -0.4459 -0.1956  0.1707
  431MOL0     H58121   3.558   1.910  10.747  0.0038  0.0424  0.4359
  431MOL0     H58122   3.425   2.120  10.718 -0.2261  1.2203 -0.8775
  431MOL0     H58123   3.452   2.115  10.543 -2.8187 -0.7528 -0.9714
  431MOL0     H58124   3.358   1.895  10.518 -0.4233  1.3293 -0.6287
  431MOL0     H58125   3.300   1.901  10.689 -2.7192 -0.2498 -0.9917
  431MOL0     H58126   3.174   2.111  10.632  1.8233  2.1154 -0.3083
  431MOL0     H58127   3.227   2.098  10.466  0.8496  0.7492  0.8149
  431MOL0     H58128   3.122   1.841  10.489  0.7018 -0.3390  0.8016
  431MOL0     H58129   3.045   1.907  10.621 -2.7075  1.5313 -1.1703
  431MOL0     H58130   2.997   2.118  10.462  0.1961 -0.7864  1.5724
  431MOL0     H58131   3.041   2.011  10.333 -1.4865  6.5306 -1.4119
  431MOL0     H58132   2.806   1.953  10.527  2.3773 -2.5082  0.3891
  431MOL0     H58133   2.798   2.019  10.357 -0.2513  1.9410  2.2973
  431MOL0     H58134   2.921   1.747  10.415 -1.0244  0.2516  0.4006
  431MOL0     H58135   2.856   1.800  10.262 -0.1972 -1.1764 -0.7964
  431MOL0     H58136   2.674   1.619  10.234 -0.3509 -1.3361  0.5433
  431MOL0     H58137   2.371   1.508  10.427  0.7131  3.5399  0.3889
  431MOL0     H58138   2.451   1.453  10.275 -1.0412 -1.7524  0.2738
  431MOL0     H58139   2.525   1.394  10.571 -0.7999 -1.6650  0.4567
  431MOL0     H58140   2.603   1.314  10.433 -0.4063  0.8736 -2.5772
  431MOL0     H58141   2.374   1.223  10.370 -3.0664 -2.0175  1.3922
  431MOL0     H58142   2.311   1.291  10.523 -0.0761 -1.9996  0.0661
  431MOL0     H58143   2.472   1.166  10.651 -0.8235 -0.1883 -0.4689
  431MOL0     H58144   2.546   1.109  10.501  0.8012 -2.2102  1.4691
  431MOL0     H58145   2.162   0.905  10.431  0.1578  0.6533 -0.7401
  431MOL0     H58146   1.859   0.773  10.579  0.4741 -0.1178 -0.1557
  431MOL0     H58147   1.847   0.927  10.496  1.7519  0.6419  1.1935
  431MOL0     H58148   1.942   0.802  10.424  0.4262  1.8838 -0.1581
  431MOL0     H58149   1.988   0.676  11.122  0.9446 -0.3448  4.0020
  431MOL0     H58150   1.842   0.621  11.328  0.2098 -0.1651 -0.0424
  431MOL0     H58151   1.470   0.840  11.418 -2.7070 -0.8510  0.3228
  431MOL0     H58152   1.471   0.703  11.302 -0.4925 -2.2236  0.8494
  431MOL0     H58153   1.367   0.624  11.520 -1.0079  4.1436  1.2046
  431MOL0     H58154   1.550   0.574  11.522 -0.8641 -1.6570 -0.0139
  431MOL0     H58155   1.455   0.831  11.642  0.2239  0.7096 -0.5929
  431MOL0     H58156   1.589   0.718  11.681 -0.6373  0.3805  0.2597
  431MOL0     H58157   1.424   0.552  11.766 -0.4703  0.0430  0.7021
  431MOL0     H58158   1.438   0.687  11.859  2.9950 -2.1478 -0.3110
  431MOL0     H58159   1.193   0.615  11.685 -0.6911  1.5300 -0.1872
  431MOL0     H58160   1.208   0.779  11.723  0.3083  0.4118  1.6292
  431MOL0     H58161   1.198   0.554  11.924 -0.7488  1.0865  2.6605
  431MOL0     H58162   1.224   0.723  11.967  2.6107 -0.6669 -0.3763
  431MOL0     H58163   1.002   0.589  11.995 -1.0362  0.0064 -0.2006
  431MOL0     H58164   0.989   0.608  11.825  1.3759 -3.4452  1.2664
  431MOL0     H58165   1.005   0.865  11.857  0.1816 -0.5677 -1.5955
  431MOL0     H58166   1.014   0.826  12.031  0.1730 -3.0636  0.0009
  431MOL0     H58167   1.604   0.953  11.239  0.6251  1.3280  1.3327
  431MOL0     H58168   1.745   1.011  11.038 -2.2856 -0.0414  0.7591
  431MOL0     H58169   2.124   1.017  10.907  2.7443 -0.3719  0.4011
  431MOL0     H58170   2.326   1.103  10.781  0.0441  0.3689  0.2475
  431MOL0     H58171   3.884   2.142  10.844 -2.1334 -0.0676 -1.4330
  431MOL0     H58172   4.109   1.998  10.901 -0.5512 -2.0783  0.2435
  431MOL0     H58173   4.412   1.763  10.745  1.4178  0.5662 -0.7189
  431MOL0     H58174   4.645   1.742  10.805 -1.0073  0.9055 -0.4621
  431MOL0     H58175   4.811   1.712  11.198 -1.9351 -0.1888  0.2358
  431MOL0     H58176   4.761   1.538  11.187  1.4311  0.0011  0.8642
  431MOL0     H58177   4.967   1.506  11.052  2.8153 -0.6631 -0.2943
  431MOL0     H58178   4.990   1.529  11.221 -0.7242 -0.6851 -1.0760
  431MOL0     H58179   5.028   1.781  11.175  0.5993 -0.8866 -0.0226
  431MOL0     H58180   5.026   1.746  11.004  2.4280 -0.6318 -0.5202
  431MOL0     H58181   5.204   1.596  11.021 -1.4130 -1.1144  0.5348
  431MOL0     H58182   5.196   1.622  11.203 -6.2287 -0.8381  0.4527
  431MOL0     H58183   5.441   1.935  11.056 -0.7142 -1.0654 -1.1088
  431MOL0     H58184   4.564   1.595  11.188 -0.8270 -2.7447 -0.9041
  431MOL0     H58185   4.315   1.632  11.140 -0.0091 -0.9217 -1.2946
  432MOL0     O58186   3.176   9.752   2.091  0.7916 -0.2634 -0.0589
  432MOL0     C58187   3.063   9.716   2.054 -0.2312 -0.3930 -0.2380
  432MOL0     O58188   3.034   9.669   1.930 -0.1799  0.7093 -0.0530
  432MOL0     C58189   3.118   9.687   1.824  0.1704  0.2684  0.0380
  432MOL0     C58190   3.127   9.579   1.741 -1.0658  0.9461 -0.2389
  432MOL0     C58191   3.177   9.587   1.613 -0.3410 -0.1914  0.0491
  432MOL0     C58192   3.231   9.705   1.566  0.7673 -0.1897 -0.0766
  432MOL0     O58193   3.290   9.723   1.444 -0.3690 -0.1165 -0.4109
  432MOL0     C58194   3.266   9.625   1.342 -0.2432  0.1518  0.3156
  432MOL0     C58195   3.321   9.700   1.223 -0.0528  0.0895  0.4021
  432MOL0     C58196   3.315   9.609   1.094  0.1686  0.0213  0.1406
  432MOL0     C58197   3.414   9.670   0.988 -0.3390  1.7080 -0.2344
  432MOL0     C58198   3.457   9.590   0.868  0.8372 -0.2312 -0.1918
  432MOL0     C58199   3.331   9.555   0.782  0.4595 -0.1527 -0.2822
  432MOL0     C58200   3.363   9.502   0.647 -0.1538  0.7409 -0.4390
  432MOL0     C58201   3.242   9.425   0.586 -0.0424  0.1084  0.1919
  432MOL0     N58202   3.260   9.397   0.439 -0.2198 -0.0413 -0.2615
  432MOL0     C58203   3.250   9.486   0.336  0.3330 -0.1966 -0.5990
  432MOL0     C58204   3.254   9.401   0.233  0.2100 -0.2435 -0.2318
  432MOL0     C58205   3.245   9.436   0.093 -0.4306  0.4007  0.1304
  432MOL0     C58206   3.125   9.366   0.019 -0.2018 -0.7260 -0.7155
  432MOL0     C58207   3.085   9.417  -0.121  0.1088  0.1993 -0.4319
  432MOL0     C58208   3.220   9.431  -0.197 -0.2195  0.2100 -0.3303
  432MOL0     O58209   3.206   9.424  -0.344 -0.2704  0.3138 -0.3284
  432MOL0     C58210   3.316   9.444  -0.421  0.2125 -0.8120 -0.0027
  432MOL0     C58211   3.291   9.457  -0.554  0.1046 -0.2565  0.6521
  432MOL0     C58212   3.384   9.500  -0.650  0.0342  0.1051 -0.0959
  432MOL0     C58213   3.321   9.505  -0.791 -0.4914  0.7155  0.2143
  432MOL0     C58214   3.521   9.505  -0.602 -0.7949  0.3448  0.8511
  432MOL0     C58215   3.637   9.534  -0.700 -0.7295  0.2572 -0.3555
  432MOL0     O58216   3.762   9.537  -0.636 -0.1026  0.1158  0.3463
  432MOL0     C58217   3.879   9.519  -0.706 -0.6104  0.1621 -0.9232
  432MOL0     C58218   4.000   9.565  -0.656 -0.0416  0.4616  0.0281
  432MOL0     C58219   4.120   9.543  -0.720 -0.8644 -0.1335 -0.4487
  432MOL0     C58220   4.129   9.457  -0.836  0.0419  0.1436  0.0278
  432MOL0     O58221   4.237   9.436  -0.910  0.4580 -0.3157  0.7667
  432MOL0     C58222   4.358   9.510  -0.884 -0.4146  0.4237 -0.2422
  432MOL0     C58223   4.454   9.461  -0.988 -0.1220 -1.0984 -0.2079
  432MOL0     C58224   4.587   9.522  -0.963 -0.1006 -1.2209 -0.3261
  432MOL0     C58225   4.695   9.446  -1.027  0.0918 -0.1458  0.3163
  432MOL0     C58226   4.825   9.528  -1.025 -0.1980  0.0080  0.8213
  432MOL0     C58227   4.829   9.625  -1.141 -1.0953 -0.3801  0.4078
  432MOL0     C58228   4.954   9.709  -1.143  0.4096  1.1657 -0.2776
  432MOL0     C58229   4.945   9.820  -1.038  0.1646 -0.2060 -0.4261
  432MOL0    Cl58230   5.079   9.931  -1.081 -0.4050 -0.7476 -0.4607
  432MOL0     C58231   4.007   9.401  -0.881 -0.7124  0.2011 -1.2153
  432MOL0     C58232   3.889   9.439  -0.815 -0.3097  0.2769  1.2559
  432MOL0     O58233   3.615   9.547  -0.823 -0.4837 -0.1395  0.5906
  432MOL0     C58234   3.550   9.492  -0.465 -0.7820 -0.2454 -0.0310
  432MOL0     C58235   3.444   9.467  -0.376 -0.9791 -1.0958 -0.2452
  432MOL0     N58236   3.283   9.269   0.267  0.5542 -1.3527 -0.4485
  432MOL0     N58237   3.280   9.263   0.395 -0.1702 -0.1941 -0.1103
  432MOL0     C58238   3.231   9.812   1.657  0.4943  0.4262 -0.2292
  432MOL0     C58239   3.170   9.808   1.782  1.2706  0.3039  0.0819
  432MOL0     C58240   2.952   9.702   2.153  0.3465  0.0108  1.2901
  432MOL0     C58241   2.977   9.708   2.289 -0.4513 -0.3905 -0.8101
  432MOL0     C58242   2.865   9.711   2.374  0.5023  1.0921  0.8991
  432MOL0     C58243   2.732   9.689   2.332  0.1756 -0.3908 -0.5454
  432MOL0     O58244   2.643   9.679   2.430  0.7149 -0.6245  0.8040
  432MOL0     C58245   2.505   9.654   2.389 -0.2337 -0.2274  0.6710
  432MOL0     C58246   2.424   9.608   2.507  0.2063 -0.3475 -0.1047
  432MOL0     C58247   2.281   9.544   2.474  0.9586 -0.1626  0.8427
  432MOL0     C58248   2.279   9.443   2.356  0.6293  0.4444 -0.3056
  432MOL0     C58249   2.251   9.505   2.225 -0.2656 -0.2864 -0.2162
  432MOL0     C58250   2.223   9.541   2.112  0.9271 -1.1165 -0.1716
  432MOL0     C58251   2.712   9.664   2.192  0.4005  0.0397  0.0674
  432MOL0     C58252   2.819   9.671   2.100 -0.3848  0.6299  0.2722
  432MOL0     H58253   3.093   9.485   1.783  2.2811 -0.9239 -1.2673
  432MOL0     H58254   3.168   9.504   1.545  2.8182  1.2116 -2.3160
  432MOL0     H58255   3.325   9.533   1.343 -1.4058 -0.6234  0.6138
  432MOL0     H58256   3.161   9.599   1.325  0.0024 -1.4957  1.1181
  432MOL0     H58257   3.254   9.785   1.208 -1.5330 -1.2679 -1.0081
  432MOL0     H58258   3.420   9.741   1.244  0.9207 -1.0638 -1.6012
  432MOL0     H58259   3.345   9.505   1.112 -2.2757 -0.6422  0.7169
  432MOL0     H58260   3.217   9.616   1.046  0.9766 -1.5576 -1.8892
  432MOL0     H58261   3.361   9.758   0.950 -3.2311  0.6660  1.0165
  432MOL0     H58262   3.510   9.696   1.032 -0.4804 -1.3285  2.2197
  432MOL0     H58263   3.524   9.652   0.808  0.6786  0.5316  0.3934
  432MOL0     H58264   3.504   9.495   0.892 -2.3817 -1.7686  0.5561
  432MOL0     H58265   3.274   9.479   0.837 -1.7902  0.9595 -0.9334
  432MOL0     H58266   3.266   9.641   0.762  1.9409  1.2608  0.6485
  432MOL0     H58267   3.413   9.586   0.597 -0.8144  1.1165 -0.4746
  432MOL0     H58268   3.430   9.422   0.679  0.7682  1.4607 -0.5261
  432MOL0     H58269   3.152   9.487   0.594  0.3633  0.9740 -1.3929
  432MOL0     H58270   3.228   9.329   0.635 -0.1795  0.5234  0.9888
  432MOL0     H58271   3.248   9.593   0.349  0.0763 -0.2957  0.2478
  432MOL0     H58272   3.244   9.543   0.071  1.7649  0.2710 -0.8588
  432MOL0     H58273   3.333   9.392   0.045 -0.6211 -0.8829  0.9044
  432MOL0     H58274   3.042   9.375   0.090 -1.1814 -0.6381 -1.8378
  432MOL0     H58275   3.141   9.258   0.009  1.4247 -0.4599 -1.1574
  432MOL0     H58276   3.028   9.509  -0.128 -0.0699 -0.0327 -2.7222
  432MOL0     H58277   3.033   9.330  -0.162  0.3351  0.0101 -0.3283
  432MOL0     H58278   3.292   9.354  -0.168 -1.5082 -0.7958  0.3385
  432MOL0     H58279   3.270   9.526  -0.175 -0.1311  0.0443  0.2124
  432MOL0     H58280   3.191   9.433  -0.590  0.2569 -0.9514  0.6778
  432MOL0     H58281   3.369   9.430  -0.856 -0.3943  0.2605  0.7993
  432MOL0     H58282   3.215   9.478  -0.790 -0.7027  0.3284 -5.2943
  432MOL0     H58283   3.336   9.606  -0.829 -0.7709 -0.2642 -2.8124
  432MOL0     H58284   3.992   9.609  -0.557  0.3731  0.0438  0.2506
  432MOL0     H58285   4.214   9.576  -0.678 -0.7220  0.0540 -0.9093
  432MOL0     H58286   4.340   9.618  -0.880 -1.1084  0.3761 -1.4234
  432MOL0     H58287   4.400   9.482  -0.787 -0.2929 -0.8024 -0.6312
  432MOL0     H58288   4.454   9.352  -0.975 -0.3953 -1.0010  0.6215
  432MOL0     H58289   4.421   9.474  -1.092  0.0563 -0.5670 -0.1995
  432MOL0     H58290   4.600   9.525  -0.854 -3.1140 -1.6708  0.1347
  432MOL0     H58291   4.578   9.625  -0.997 -2.2278 -1.1111  0.4387
  432MOL0     H58292   4.705   9.348  -0.981  0.7863  1.1020  3.0290
  432MOL0     H58293   4.666   9.434  -1.132  1.8479  1.8774 -0.4785
  432MOL0     H58294   4.909   9.459  -1.034  0.1800  0.4900  0.5713
  432MOL0     H58295   4.836   9.578  -0.928 -0.7067 -1.8909  1.9066
  432MOL0     H58296   4.828   9.567  -1.234 -1.1730 -2.1285  1.4394
  432MOL0     H58297   4.748   9.697  -1.126 -0.0733  0.7609  0.5356
  432MOL0     H58298   4.964   9.759  -1.240  0.0053 -0.6623 -1.3135
  432MOL0     H58299   5.039   9.645  -1.117 -0.3263  0.0026 -0.6606
  432MOL0     H58300   4.947   9.775  -0.938  1.8776 -0.5595 -0.5879
  432MOL0     H58301   4.850   9.872  -1.052 -0.3929 -0.4351  2.0428
  432MOL0     H58302   4.004   9.329  -0.963  0.4234 -3.1247  1.4048
  432MOL0     H58303   3.799   9.389  -0.850  1.2220  0.1975 -3.3092
  432MOL0     H58304   3.649   9.512  -0.427 -1.1232  0.4159  0.5395
  432MOL0     H58305   3.458   9.485  -0.270  1.6569  0.9427 -0.8233
  432MOL0     H58306   3.273   9.908   1.630  0.0089 -0.0806 -3.0585
  432MOL0     H58307   3.163   9.899   1.842 -1.4666 -0.2882  0.7620
  432MOL0     H58308   3.071   9.725   2.341 -1.8475 -3.6320  3.3418
  432MOL0     H58309   2.876   9.713   2.482 -1.9014 -2.3551  1.3666
  432MOL0     H58310   2.468   9.747   2.345 -0.7770 -1.6762 -2.1304
  432MOL0     H58311   2.493   9.582   2.307  2.7313  0.6653 -0.6675
  432MOL0     H58312   2.404   9.698   2.566  2.0369 -0.6340  1.0256
  432MOL0     H58313   2.478   9.546   2.579  1.1058 -1.0195 -1.3302
  432MOL0     H58314   2.224   9.631   2.440 -0.0542  0.1013  3.0511
  432MOL0     H58315   2.235   9.493   2.559 -2.6987  1.0782 -0.1863
  432MOL0     H58316   2.200   9.368   2.363  0.9905 -0.0423 -1.2573
  432MOL0     H58317   2.378   9.398   2.361  2.5285  4.2731  0.0400
  432MOL0     H58318   2.197   9.591   2.021 -0.4913 -0.0223  0.7749
  432MOL0     H58319   2.616   9.637   2.148  1.0284  3.2965 -3.9469
  432MOL0     H58320   2.798   9.668   1.994  0.1912 -2.3398  0.1601
  433MOL0     O58321   9.145   9.265   1.787  0.0743 -0.4625 -0.4331
  433MOL0     C58322   9.156   9.383   1.736  0.4724  0.1842  0.5657
  433MOL0     O58323   9.071   9.485   1.755 -0.1138  0.3997  0.0320
  433MOL0     C58324   8.966   9.473   1.844  1.6181 -0.5394  0.1688
  433MOL0     C58325   8.832   9.432   1.807 -0.1683 -0.3296 -0.1812
  433MOL0     C58326   8.725   9.454   1.900 -0.5111 -0.7044 -0.2702
  433MOL0     C58327   8.750   9.518   2.022  0.4552  0.1732 -0.1772
  433MOL0     O58328   8.634   9.544   2.094 -0.2194  0.0954 -0.0359
  433MOL0     C58329   8.640   9.494   2.224 -0.5704 -0.2173  0.2232
  433MOL0     C58330   8.527   9.547   2.312  0.8612 -0.2771  0.4504
  433MOL0     C58331   8.487   9.460   2.432  0.1140  0.1607 -0.2694
  433MOL0     C58332   8.547   9.506   2.565  0.2828  0.8151  0.8853
  433MOL0     C58333   8.476   9.634   2.618  0.3653 -0.1226 -0.0776
  433MOL0     C58334   8.367   9.591   2.720 -0.3329 -0.0831  0.3019
  433MOL0     C58335   8.313   9.712   2.799  0.4587  0.7163  0.4713
  433MOL0     C58336   8.413   9.768   2.897 -0.4740 -0.5560  0.2360
  433MOL0     N58337   8.350   9.847   3.003  0.0178 -0.7003  0.3963
  433MOL0     C58338   8.326   9.981   2.987  0.2470 -0.7715 -0.9649
  433MOL0     C58339   8.245  10.014   3.088 -0.2122 -0.1285  0.0817
  433MOL0     C58340   8.191  10.160   3.105  0.4484 -0.4610  0.4180
  433MOL0     C58341   8.170  10.196   3.252  0.1324  0.0957  0.0387
  433MOL0     C58342   8.146  10.344   3.283 -0.3130 -0.8048  0.0158
  433MOL0     C58343   8.012  10.395   3.226  0.1053  0.2431 -0.3887
  433MOL0     O58344   7.910  10.321   3.292  0.8236 -0.9580 -0.1785
  433MOL0     C58345   7.773  10.345   3.256 -0.6668 -0.2401 -0.1437
  433MOL0     C58346   7.679  10.247   3.279 -0.4698  0.1480  0.3543
  433MOL0     C58347   7.548  10.269   3.259  0.3459 -0.6509  0.0262
  433MOL0     C58348   7.451  10.165   3.305 -0.4472  0.2043 -0.4138
  433MOL0     C58349   7.497  10.395   3.204 -0.9093  0.8222  0.3677
  433MOL0     C58350   7.351  10.434   3.177 -0.1423  0.1376  0.9523
  433MOL0     O58351   7.331  10.555   3.109  0.8083  0.3870  0.3979
  433MOL0     C58352   7.199  10.594   3.107 -0.2089 -0.2941  0.4437
  433MOL0     C58353   7.148  10.700   3.178 -0.6820  0.4145  0.1989
  433MOL0     C58354   7.022  10.749   3.187  1.4133  0.2376  0.3414
  433MOL0     C58355   6.925  10.674   3.120 -0.5573  0.2119  0.7619
  433MOL0     O58356   6.794  10.693   3.117 -0.5127  0.6887  0.2419
  433MOL0     C58357   6.745  10.788   3.208  0.0427  1.2223  0.9358
  433MOL0     C58358   6.585  10.788   3.201 -0.7597 -0.6946  0.5345
  433MOL0     C58359   6.553  10.872   3.078  0.6491  0.0123 -0.5266
  433MOL0     C58360   6.395  10.883   3.085 -0.0856 -0.2673 -0.1428
  433MOL0     C58361   6.353  10.999   3.171 -1.2661 -0.2774  0.5929
  433MOL0     C58362   6.206  11.032   3.131  0.2969 -0.3494 -0.1781
  433MOL0     C58363   6.135  11.147   3.212  0.3338  0.1365 -0.1740
  433MOL0     C58364   6.127  11.114   3.354 -0.0149 -0.8045  0.4713
  433MOL0    Cl58365   6.032  11.235   3.437  0.1330 -0.0309 -0.0257
  433MOL0     C58366   6.969  10.569   3.042  0.9843  0.1938 -0.0072
  433MOL0     C58367   7.103  10.532   3.031  0.7717  0.6172 -0.6569
  433MOL0     O58368   7.263  10.366   3.231 -0.6289  0.0155  0.1449
  433MOL0     C58369   7.596  10.487   3.175  0.0837 -0.2526  0.7455
  433MOL0     C58370   7.733  10.468   3.199  0.0158 -0.0437  0.6140
  433MOL0     N58371   8.221   9.896   3.161 -0.4608  0.1876  0.1190
  433MOL0     N58372   8.283   9.796   3.103  0.0810  0.2751 -0.3416
  433MOL0     C58373   8.879   9.567   2.056  0.4075 -0.8611  0.7600
  433MOL0     C58374   8.988   9.542   1.969 -0.1227 -0.5840 -1.0717
  433MOL0     C58375   9.278   9.423   1.654  0.1744  0.1329 -0.3582
  433MOL0     C58376   9.397   9.352   1.670 -0.5048 -0.1018  0.6851
  433MOL0     C58377   9.517   9.399   1.621 -0.3654  0.0387  0.0670
  433MOL0     C58378   9.523   9.508   1.534 -0.0721  0.2930 -0.3776
  433MOL0     O58379   9.645   9.532   1.475  0.1485  0.4273  0.0502
  433MOL0     C58380   9.663   9.643   1.389  0.0341  0.0422 -0.4763
  433MOL0     C58381   9.790   9.646   1.297 -0.0790  0.3097 -0.3643
  433MOL0     C58382   9.908   9.662   1.390  0.2919  0.2924 -0.2564
  433MOL0     C58383  10.045   9.658   1.316  0.3254 -0.5893  0.0802
  433MOL0     C58384  10.043   9.762   1.212  0.4935 -0.7112  0.1615
  433MOL0     C58385  10.037   9.845   1.120 -0.0181  0.7196  1.0703
  433MOL0     C58386   9.400   9.576   1.509 -1.0196 -0.1909 -0.0298
  433MOL0     C58387   9.278   9.532   1.563 -0.2260 -0.1152 -0.3004
  433MOL0     H58388   8.797   9.404   1.708 -1.4393 -0.4117  0.2641
  433MOL0     H58389   8.625   9.425   1.870 -0.7655  0.5859 -0.7368
  433MOL0     H58390   8.636   9.385   2.224  1.1162 -0.3409  2.0598
  433MOL0     H58391   8.737   9.523   2.266 -0.9687  2.0315 -0.2807
  433MOL0     H58392   8.558   9.649   2.338 -0.2952  0.8576 -2.2477
  433MOL0     H58393   8.440   9.551   2.245  0.2185 -1.9427  1.1237
  433MOL0     H58394   8.379   9.445   2.444  0.2805  0.2658  1.7932
  433MOL0     H58395   8.530   9.364   2.404  3.1035  0.9709  1.1343
  433MOL0     H58396   8.558   9.423   2.635 -0.0651 -0.4025 -0.4594
  433MOL0     H58397   8.651   9.525   2.537 -0.1494  0.9568 -0.7316
  433MOL0     H58398   8.545   9.703   2.667 -1.0292  0.2436  1.4671
  433MOL0     H58399   8.426   9.686   2.536 -1.0760 -2.2616 -0.6635
  433MOL0     H58400   8.285   9.544   2.667 -0.5926  0.6482  0.0367
  433MOL0     H58401   8.407   9.518   2.791  1.2726 -1.2042 -1.6396
  433MOL0     H58402   8.283   9.797   2.737  3.1148  1.8347  0.5977
  433MOL0     H58403   8.223   9.676   2.850  1.2138  1.2849  2.2983
  433MOL0     H58404   8.487   9.827   2.841 -0.1887 -2.9357 -2.1114
  433MOL0     H58405   8.475   9.693   2.946 -0.5870  0.1619  1.5092
  433MOL0     H58406   8.364  10.045   2.908  0.7558 -0.6697 -0.6397
  433MOL0     H58407   8.263  10.232   3.063  4.6923 -5.4142 -1.8710
  433MOL0     H58408   8.093  10.165   3.057  0.9877  0.3875 -0.6775
  433MOL0     H58409   8.260  10.164   3.306 -0.7060 -0.5635  1.0768
  433MOL0     H58410   8.090  10.134   3.292  0.0613  2.2547  3.5751
  433MOL0     H58411   8.219  10.408   3.233 -1.8377  0.6609 -0.4079
  433MOL0     H58412   8.169  10.364   3.388 -1.7072 -0.3940  0.2522
  433MOL0     H58413   7.997  10.393   3.117 -2.3413  0.1511 -0.0979
  433MOL0     H58414   8.019  10.499   3.259 -0.9872 -0.8554  3.8625
  433MOL0     H58415   7.709  10.157   3.331  1.8518 -1.7712 -3.8129
  433MOL0     H58416   7.496  10.079   3.356 -1.6583  1.0561  2.2068
  433MOL0     H58417   7.396  10.205   3.390  2.1811 -1.0413  2.0327
  433MOL0     H58418   7.380  10.125   3.231 -2.0690  2.4770 -0.1829
  433MOL0     H58419   7.231  10.757   3.220  0.7656  0.1759 -2.1436
  433MOL0     H58420   7.007  10.844   3.237  2.5775 -0.4633  2.1275
  433MOL0     H58421   6.763  10.761   3.312  2.3628  3.8374  1.3181
  433MOL0     H58422   6.786  10.888   3.189  0.9167  0.7824  0.4387
  433MOL0     H58423   6.552  10.684   3.192 -1.5613 -0.3659 -0.6290
  433MOL0     H58424   6.529  10.819   3.290 -3.8233  0.6370 -1.6584
  433MOL0     H58425   6.576  10.832   2.979  0.5616  2.2254 -1.4927
  433MOL0     H58426   6.604  10.968   3.076  1.8665 -0.4719  2.1707
  433MOL0     H58427   6.360  10.898   2.982  1.0380  1.8905 -0.2759
  433MOL0     H58428   6.356  10.789   3.126 -0.5482 -1.3731 -2.8910
  433MOL0     H58429   6.425  11.078   3.147 -1.0828  0.0378  2.0551
  433MOL0     H58430   6.369  10.979   3.277 -0.3268  0.5355  0.6187
  433MOL0     H58431   6.207  11.052   3.024  0.6813  3.0943  0.3596
  433MOL0     H58432   6.139  10.945   3.140 -0.2736  0.1474  0.5384
  433MOL0     H58433   6.029  11.156   3.185  0.3974  0.1370 -0.4258
  433MOL0     H58434   6.179  11.247   3.202 -0.4291  0.5907  0.8326
  433MOL0     H58435   6.226  11.115   3.401  0.4036  0.6481 -0.3757
  433MOL0     H58436   6.094  11.012   3.376  1.4748 -1.0793  1.6876
  433MOL0     H58437   6.894  10.523   2.979  1.1164 -0.7158  0.4810
  433MOL0     H58438   7.128  10.456   2.958 -2.0612  0.0019 -1.0671
  433MOL0     H58439   7.573  10.580   3.125 -0.4783 -1.2354 -0.8831
  433MOL0     H58440   7.803  10.547   3.175  0.2975  0.0888  1.8263
  433MOL0     H58441   8.897   9.628   2.144  0.2710 -1.3970  1.1613
  433MOL0     H58442   9.085   9.581   2.000 -0.8154 -1.2907  2.3595
  433MOL0     H58443   9.402   9.272   1.743  1.9166 -0.0797  0.6415
  433MOL0     H58444   9.613   9.351   1.635 -0.7406 -0.9108 -0.5258
  433MOL0     H58445   9.580   9.656   1.319 -1.1887 -0.7447  0.7886
  433MOL0     H58446   9.663   9.732   1.453  0.1161 -0.2893 -0.0111
  433MOL0     H58447   9.786   9.732   1.229 -0.1256  2.2899  1.9976
  433MOL0     H58448   9.808   9.562   1.230  0.2371  0.9661 -1.1294
  433MOL0     H58449   9.899   9.592   1.474 -0.2162  1.9310  1.0970
  433MOL0     H58450   9.904   9.758   1.442 -1.7880 -0.0278  0.2496
  433MOL0     H58451  10.044   9.570   1.250 -0.4999  0.4892 -1.4097
  433MOL0     H58452  10.130   9.664   1.384 -0.3704  2.3872  0.8417
  433MOL0     H58453  10.014   9.915   1.043 -3.6298 -2.1003 -0.7305
  433MOL0     H58454   9.400   9.663   1.445  1.3586 -0.7959 -0.9572
  433MOL0     H58455   9.191   9.596   1.548 -0.7995 -0.7406  0.2290
  434MOL0     O58456   4.630   8.120   4.670  0.7716 -1.0130  0.0451
  434MOL0     C58457   4.708   8.055   4.603  0.3407 -0.3265 -0.6496
  434MOL0     O58458   4.685   7.988   4.487 -0.8083 -0.1955  0.2803
  434MOL0     C58459   4.576   8.025   4.416 -0.1887 -0.1763 -0.0707
  434MOL0     C58460   4.504   7.923   4.354 -0.1472  0.5743  0.1419
  434MOL0     C58461   4.397   7.951   4.272 -0.6038 -0.6011  0.3994
  434MOL0     C58462   4.366   8.078   4.245  0.2200 -0.3955  0.1444
  434MOL0     O58463   4.250   8.108   4.189 -0.0629  0.2289  0.7600
  434MOL0     C58464   4.250   8.201   4.075 -0.6260  0.2096 -0.2088
  434MOL0     C58465   4.184   8.138   3.955 -0.0906  0.7976 -0.1426
  434MOL0     C58466   4.226   7.997   3.925 -0.9277  0.5970  0.7707
  434MOL0     C58467   4.128   7.886   3.981  0.0821  0.3721  0.1246
  434MOL0     C58468   4.194   7.744   3.979  0.0371  1.5300  0.3599
  434MOL0     C58469   4.107   7.626   4.048  0.0972  0.0201  0.1316
  434MOL0     C58470   4.181   7.495   4.025  0.7899 -0.3776  0.3807
  434MOL0     C58471   4.076   7.372   4.021  0.1317  0.2662  0.1999
  434MOL0     N58472   4.009   7.339   4.149  0.0516 -0.4212  0.0781
  434MOL0     C58473   3.914   7.416   4.205 -0.8614 -0.2229 -0.0561
  434MOL0     C58474   3.894   7.367   4.328 -0.2820  0.1663  0.3385
  434MOL0     C58475   3.802   7.399   4.436  0.3534  0.0965 -0.5637
  434MOL0     C58476   3.826   7.332   4.572  0.5643  0.4755 -0.4567
  434MOL0     C58477   3.950   7.391   4.639  0.1201 -0.1986  0.6178
  434MOL0     C58478   3.949   7.381   4.794 -0.0552  0.9159 -0.4752
  434MOL0     O58479   4.041   7.466   4.852 -0.2593  0.1139  0.1264
  434MOL0     C58480   4.059   7.434   4.987 -0.1153 -1.0542 -0.0093
  434MOL0     C58481   3.953   7.426   5.087 -0.4822  0.1357  0.3467
  434MOL0     C58482   3.974   7.391   5.220  0.7496  0.1685  1.0648
  434MOL0     C58483   3.868   7.392   5.326 -0.3227 -0.7349  0.2492
  434MOL0     C58484   4.107   7.349   5.251 -0.7895 -0.9210  0.1043
  434MOL0     C58485   4.149   7.336   5.387  0.2621 -0.3686  0.3177
  434MOL0     O58486   4.067   7.265   5.463  0.4881  0.4614 -0.0880
  434MOL0     C58487   4.118   7.184   5.563 -1.1958 -0.3929  0.2687
  434MOL0     C58488   4.101   7.227   5.693 -0.5034 -0.4588  0.7017
  434MOL0     C58489   4.145   7.148   5.795 -0.0973  1.5586  0.5980
  434MOL0     C58490   4.198   7.024   5.773  0.2374  0.2568  0.0219
  434MOL0     O58491   4.234   6.946   5.873 -0.2576 -0.3320 -0.7746
  434MOL0     C58492   4.133   6.851   5.906  0.3479 -0.1181 -0.4970
  434MOL0     C58493   4.062   6.884   6.032  0.0324  0.0702 -0.6745
  434MOL0     C58494   4.165   6.897   6.154 -0.6197 -0.5734  0.1060
  434MOL0     C58495   4.134   7.008   6.256 -0.5767  0.1017 -0.6046
  434MOL0     C58496   4.213   6.971   6.387 -1.0771 -0.2395  1.4003
  434MOL0     C58497   4.367   6.953   6.371  0.5339 -0.6922  0.3203
  434MOL0     C58498   4.428   7.076   6.308  0.7156  0.6817  0.4941
  434MOL0     C58499   4.560   7.104   6.373 -0.1937  0.5903 -0.2859
  434MOL0    Cl58500   4.675   6.972   6.352  0.0073  0.4023 -0.5771
  434MOL0     C58501   4.217   6.974   5.638 -0.5698  0.1941  0.0433
  434MOL0     C58502   4.175   7.058   5.535 -0.5213 -0.2476 -0.0296
  434MOL0     O58503   4.263   7.368   5.423 -0.2956  0.1920  0.5227
  434MOL0     C58504   4.207   7.347   5.151  0.4263  0.4946 -0.6611
  434MOL0     C58505   4.183   7.390   5.021 -0.2267  0.4219  0.1252
  434MOL0     N58506   3.979   7.260   4.346  0.1766  0.6791 -0.3265
  434MOL0     N58507   4.042   7.244   4.239  0.1702  0.8361 -0.1486
  434MOL0     C58508   4.438   8.181   4.295  0.1103 -0.4169 -0.1572
  434MOL0     C58509   4.540   8.155   4.386  0.1663 -0.6904  0.5621
  434MOL0     C58510   4.832   8.043   4.681 -0.2301 -0.4297  0.3602
  434MOL0     C58511   4.858   8.089   4.809  0.3204 -0.3341 -0.4893
  434MOL0     C58512   4.982   8.083   4.872  0.8240  0.0910 -0.7822
  434MOL0     C58513   5.093   8.014   4.807 -0.3575  0.1626 -0.0414
  434MOL0     O58514   5.219   7.987   4.856 -0.4228 -0.3301  0.0626
  434MOL0     C58515   5.262   8.045   4.984 -0.1532  0.3200  0.2022
  434MOL0     C58516   5.368   8.148   4.971  0.2066 -0.8598 -0.2764
  434MOL0     C58517   5.360   8.228   4.843  0.1723  0.3925  0.0618
  434MOL0     C58518   5.473   8.334   4.825  0.2621  0.4362  0.0545
  434MOL0     C58519   5.502   8.423   4.943 -0.3848 -0.8586  0.2962
  434MOL0     C58520   5.519   8.488   5.047  0.1729  1.5472  0.1763
  434MOL0     C58521   5.066   7.968   4.684  0.6299 -0.4750 -0.1587
  434MOL0     C58522   4.940   7.980   4.622 -0.8242 -0.0697  0.3802
  434MOL0     H58523   4.536   7.820   4.362  1.5295  0.8731 -1.8178
  434MOL0     H58524   4.341   7.877   4.215  0.7443 -1.8917  0.6907
  434MOL0     H58525   4.204   8.299   4.092 -1.3727  0.0788 -1.3827
  434MOL0     H58526   4.356   8.225   4.056 -0.3682 -1.7548 -1.5011
  434MOL0     H58527   4.077   8.148   3.972 -0.5570 -2.2306 -0.7343
  434MOL0     H58528   4.196   8.207   3.871  2.0629 -0.2685 -0.7917
  434MOL0     H58529   4.226   7.979   3.817  0.9603 -3.0928  1.1971
  434MOL0     H58530   4.328   7.985   3.963 -1.3527  3.4385  3.1219
  434MOL0     H58531   4.093   7.922   4.079 -1.5229 -1.8808  0.4534
  434MOL0     H58532   4.036   7.897   3.923  0.4731 -0.3824 -0.6488
  434MOL0     H58533   4.211   7.704   3.879 -2.2541 -3.1321  1.5245
  434MOL0     H58534   4.288   7.753   4.034 -1.3056 -0.0993  3.1071
  434MOL0     H58535   4.102   7.642   4.156  1.7480 -0.6910  0.3369
  434MOL0     H58536   4.013   7.631   3.992  0.1882  0.2336 -0.0031
  434MOL0     H58537   4.237   7.499   3.932  0.1265  0.0792 -0.0081
  434MOL0     H58538   4.253   7.481   4.106  0.2650  1.2819  1.1871
  434MOL0     H58539   4.131   7.285   3.984  2.1616  0.4023  2.5803
  434MOL0     H58540   4.001   7.382   3.942 -0.0067 -2.7913 -0.1450
  434MOL0     H58541   3.864   7.499   4.156 -0.3664  0.4563  0.5635
  434MOL0     H58542   3.812   7.507   4.453  0.4062  0.3503 -2.0860
  434MOL0     H58543   3.703   7.369   4.401 -0.3549  1.6467 -0.0088
  434MOL0     H58544   3.840   7.224   4.564  0.3696  0.2160  2.0558
  434MOL0     H58545   3.737   7.340   4.634  0.4476 -1.0409 -0.3996
  434MOL0     H58546   3.960   7.495   4.607  1.9750 -1.5834 -4.0903
  434MOL0     H58547   4.026   7.323   4.600 -1.1954 -2.0302  1.1405
  434MOL0     H58548   3.958   7.276   4.822 -3.1171  0.5777 -0.3921
  434MOL0     H58549   3.846   7.409   4.817 -2.1656 -3.4138 -3.3664
  434MOL0     H58550   3.857   7.460   5.050  0.4825  1.1720 -1.3271
  434MOL0     H58551   3.767   7.413   5.290  0.8996  0.7525 -2.6296
  434MOL0     H58552   3.865   7.295   5.376 -0.6144 -0.4861  0.7223
  434MOL0     H58553   3.891   7.467   5.403  1.1225 -1.5670  0.6797
  434MOL0     H58554   4.052   7.322   5.714 -0.4800 -0.1322 -0.6029
  434MOL0     H58555   4.125   7.173   5.899 -1.0894 -2.0034  1.4050
  434MOL0     H58556   4.051   6.840   5.834 -0.5988  0.9796  0.3808
  434MOL0     H58557   4.180   6.752   5.914  2.0372  0.5114 -1.9042
  434MOL0     H58558   4.000   6.971   6.011 -0.7842  0.5110  2.9288
  434MOL0     H58559   3.989   6.805   6.054  0.9291 -0.3180  1.1390
  434MOL0     H58560   4.264   6.905   6.109 -0.7113  1.2138  0.1723
  434MOL0     H58561   4.161   6.797   6.199  2.1958 -0.8168 -0.0281
  434MOL0     H58562   4.165   7.108   6.222 -0.9251 -0.0340 -1.3455
  434MOL0     H58563   4.027   7.004   6.275 -0.6032 -1.3051 -0.9626
  434MOL0     H58564   4.165   6.878   6.419 -1.7886 -0.0101  1.0281
  434MOL0     H58565   4.197   7.045   6.466 -2.3827  3.8150 -2.2762
  434MOL0     H58566   4.398   6.960   6.475 -1.4825 -0.2810  0.9448
  434MOL0     H58567   4.392   6.862   6.314  0.7058  0.2154 -1.1067
  434MOL0     H58568   4.364   7.163   6.326 -0.7108 -0.7025  2.5301
  434MOL0     H58569   4.436   7.067   6.199 -3.2529  2.2837 -0.0922
  434MOL0     H58570   4.542   7.118   6.480 -0.8556 -2.9597  0.2059
  434MOL0     H58571   4.608   7.191   6.327  1.5774  0.0858  0.5149
  434MOL0     H58572   4.250   6.873   5.617 -0.2647  0.4367 -0.6754
  434MOL0     H58573   4.194   7.031   5.432  1.0710  0.4649  0.0571
  434MOL0     H58574   4.308   7.323   5.181  0.5907  1.4520 -0.4122
  434MOL0     H58575   4.255   7.378   4.941 -0.8236  0.3331 -0.4055
  434MOL0     H58576   4.409   8.285   4.287  0.6167  0.0940  3.2975
  434MOL0     H58577   4.598   8.234   4.434  2.2603 -0.2989 -2.3746
  434MOL0     H58578   4.776   8.134   4.864  0.3992 -1.8023  0.8673
  434MOL0     H58579   4.995   8.130   4.969  5.2818  0.2098 -1.2114
  434MOL0     H58580   5.178   8.083   5.042 -0.3057  0.0246  0.1755
  434MOL0     H58581   5.309   7.974   5.052  2.5899  2.1202  0.3639
  434MOL0     H58582   5.468   8.106   4.980  0.3918 -0.0492  2.1182
  434MOL0     H58583   5.362   8.206   5.063  3.0587 -1.9324  0.6774
  434MOL0     H58584   5.269   8.289   4.840  0.0601  0.2308 -2.5232
  434MOL0     H58585   5.346   8.159   4.759 -0.0690 -1.5966  1.6595
  434MOL0     H58586   5.442   8.401   4.745 -1.6042 -1.5992 -1.0188
  434MOL0     H58587   5.561   8.280   4.788  0.2230  0.4153 -0.0084
  434MOL0     H58588   5.525   8.543   5.139 -0.1475 -0.7388  1.6392
  434MOL0     H58589   5.160   7.930   4.645  1.2074  0.8451 -0.1093
  434MOL0     H58590   4.942   7.958   4.515 -0.3211 -1.7436  0.7007
  435MOL0     O58591   2.357   7.376   5.476  0.2358 -0.2481  0.6418
  435MOL0     C58592   2.333   7.393   5.358 -0.4346  0.1668 -0.6220
  435MOL0     O58593   2.221   7.457   5.310 -0.3931 -0.1277 -0.0798
  435MOL0     C58594   2.111   7.486   5.390  0.7632 -1.0251 -0.6621
  435MOL0     C58595   1.986   7.470   5.333  1.1371  0.1709 -0.0695
  435MOL0     C58596   1.870   7.506   5.401 -0.0280  0.0228 -0.5129
  435MOL0     C58597   1.882   7.576   5.515  0.2820 -0.3875 -1.1263
  435MOL0     O58598   1.759   7.625   5.568 -0.5584 -0.0167 -0.3901
  435MOL0     C58599   1.706   7.532   5.660  0.0714 -0.2971  0.5623
  435MOL0     C58600   1.553   7.547   5.660 -0.5197 -0.2027 -0.3553
  435MOL0     C58601   1.497   7.461   5.545  0.6508 -0.3390 -0.2359
  435MOL0     C58602   1.350   7.490   5.533 -0.3293 -0.3225  0.1157
  435MOL0     C58603   1.287   7.413   5.419 -0.3400 -0.5416 -0.7495
  435MOL0     C58604   1.153   7.454   5.399 -0.2639  0.5619 -0.1413
  435MOL0     C58605   1.088   7.371   5.294  1.3048  0.6049 -0.3972
  435MOL0     C58606   0.944   7.390   5.264 -0.3632  0.0938 -0.0744
  435MOL0     N58607   0.842   7.330   5.355 -0.4237 -0.0597 -0.2152
  435MOL0     C58608   0.745   7.239   5.317 -0.7358 -0.0102  0.0030
  435MOL0     C58609   0.692   7.193   5.435  0.2958  0.4612  0.0589
  435MOL0     C58610   0.589   7.084   5.439 -0.1015  0.6188  0.4327
  435MOL0     C58611   0.444   7.140   5.436 -0.4403  0.0596 -0.4759
  435MOL0     C58612   0.351   7.031   5.405 -0.9111  0.5216 -0.2434
  435MOL0     C58613   0.203   7.082   5.416  0.7731  0.1836 -0.1520
  435MOL0     O58614   0.101   6.982   5.395  0.2776  0.1486  0.2780
  435MOL0     C58615  -0.033   7.027   5.370 -0.7649 -0.0183  0.2799
  435MOL0     C58616  -0.066   7.164   5.360  0.5484 -0.5524 -0.1166
  435MOL0     C58617  -0.192   7.207   5.337 -0.0561  0.0129  0.3198
  435MOL0     C58618  -0.221   7.352   5.339  0.2223 -0.3695  0.1255
  435MOL0     C58619  -0.290   7.114   5.296  0.8887  0.7248 -0.3275
  435MOL0     C58620  -0.431   7.146   5.256 -0.5965  0.3056 -0.0200
  435MOL0     O58621  -0.532   7.061   5.294  0.6177  0.0713 -0.4317
  435MOL0     C58622  -0.656   7.059   5.231  0.4606 -0.2228 -0.2735
  435MOL0     C58623  -0.706   7.127   5.112  0.5357  0.8523  0.2764
  435MOL0     C58624  -0.834   7.101   5.060 -0.7864 -0.1787 -0.1946
  435MOL0     C58625  -0.913   7.002   5.109 -0.8026  0.9756 -0.5164
  435MOL0     O58626  -1.031   6.977   5.037  0.2305  0.1683 -0.0789
  435MOL0     C58627  -1.153   6.965   5.118  0.1215  0.3770  0.0755
  435MOL0     C58628  -1.205   7.101   5.166 -0.6771 -0.2702 -0.4128
  435MOL0     C58629  -1.353   7.094   5.219 -0.3607  0.1499  0.5957
  435MOL0     C58630  -1.454   7.037   5.121 -0.6927 -0.5961  0.1943
  435MOL0     C58631  -1.598   7.064   5.156  0.1450  0.1272  1.0765
  435MOL0     C58632  -1.644   6.997   5.289 -0.1984  0.2737  1.2671
  435MOL0     C58633  -1.616   6.845   5.312 -0.0227 -0.4852 -0.6339
  435MOL0     C58634  -1.699   6.792   5.425  0.0095 -0.3878 -0.3719
  435MOL0    Cl58635  -1.869   6.793   5.385  0.2773 -0.4121 -0.5034
  435MOL0     C58636  -0.866   6.932   5.226 -0.0671  0.2001 -0.1883
  435MOL0     C58637  -0.743   6.961   5.279 -0.5610  0.3762 -0.2114
  435MOL0     O58638  -0.447   7.254   5.196 -0.6523  0.3148 -0.1062
  435MOL0     C58639  -0.254   6.980   5.293  0.1341 -0.0272 -0.7112
  435MOL0     C58640  -0.129   6.943   5.327  0.2381 -0.0842 -0.1186
  435MOL0     N58641   0.755   7.252   5.542  1.0509 -0.0363  0.5458
  435MOL0     N58642   0.834   7.352   5.489  0.4807 -0.0378  0.4562
  435MOL0     C58643   2.003   7.584   5.584 -0.9988 -0.1337 -0.8620
  435MOL0     C58644   2.122   7.543   5.517  0.6630 -0.7822 -0.4542
  435MOL0     C58645   2.445   7.367   5.259  0.2290  0.9448  0.1713
  435MOL0     C58646   2.431   7.400   5.120  0.5519 -0.5783 -0.7407
  435MOL0     C58647   2.521   7.355   5.026  0.0782 -0.1950  0.3020
  435MOL0     C58648   2.645   7.300   5.067 -0.5382 -0.1070 -0.3583
  435MOL0     O58649   2.750   7.257   4.987 -0.1535 -0.0112 -0.5964
  435MOL0     C58650   2.724   7.257   4.849  0.2793  0.1951  0.6667
  435MOL0     C58651   2.838   7.176   4.790 -0.5874 -0.0293 -0.6477
  435MOL0     C58652   2.872   7.193   4.643  0.2747 -0.6241 -0.5122
  435MOL0     C58653   3.015   7.172   4.593  0.0753 -0.1304 -0.3640
  435MOL0     C58654   3.038   7.236   4.463  0.6224 -0.0079 -0.3096
  435MOL0     C58655   3.045   7.268   4.347 -1.0744 -0.2385 -0.1851
  435MOL0     C58656   2.656   7.269   5.204 -0.4531 -0.7083 -0.6803
  435MOL0     C58657   2.559   7.295   5.298  0.2156 -1.2491 -0.3700
  435MOL0     H58658   1.979   7.410   5.243  2.4094 -0.9359  0.5352
  435MOL0     H58659   1.771   7.489   5.361 -0.3385  0.4458  0.0651
  435MOL0     H58660   1.736   7.430   5.632 -0.1471  0.7501 -4.4285
  435MOL0     H58661   1.748   7.570   5.753  1.1928  1.9587 -0.7687
  435MOL0     H58662   1.521   7.523   5.762 -2.5877  0.1839 -0.8696
  435MOL0     H58663   1.523   7.651   5.645  1.5256  0.1728 -2.2419
  435MOL0     H58664   1.550   7.480   5.451 -1.9502  2.6405 -1.2736
  435MOL0     H58665   1.497   7.365   5.598 -1.3912  0.3620  1.1470
  435MOL0     H58666   1.293   7.474   5.625 -1.1130  0.1172 -0.2765
  435MOL0     H58667   1.339   7.595   5.503 -1.6069 -0.9629 -1.8613
  435MOL0     H58668   1.345   7.442   5.331 -2.5191 -0.0646 -2.1048
  435MOL0     H58669   1.291   7.309   5.453  2.3719 -0.2696 -0.0325
  435MOL0     H58670   1.102   7.432   5.493 -1.9542  1.3928 -0.8243
  435MOL0     H58671   1.142   7.560   5.377 -1.9065 -0.0657 -2.8447
  435MOL0     H58672   1.141   7.383   5.199 -0.6775 -1.9451 -1.9523
  435MOL0     H58673   1.109   7.266   5.319  0.8966  0.9125  1.3047
  435MOL0     H58674   0.925   7.358   5.161 -0.5154  1.1911 -0.4023
  435MOL0     H58675   0.926   7.498   5.272 -0.7252 -0.0670  1.6413
  435MOL0     H58676   0.732   7.193   5.219 -0.5607  2.1331 -1.0977
  435MOL0     H58677   0.599   7.018   5.353 -1.4968  2.0255 -0.8698
  435MOL0     H58678   0.617   7.020   5.524  0.0319 -2.3003 -1.6550
  435MOL0     H58679   0.429   7.224   5.367 -0.0894  1.3896  1.0235
  435MOL0     H58680   0.425   7.187   5.533 -2.0832 -0.0644 -0.7207
  435MOL0     H58681   0.367   6.963   5.490 -1.9420  0.9309  0.3059
  435MOL0     H58682   0.359   6.978   5.309  2.3604  2.6666 -1.2977
  435MOL0     H58683   0.191   7.158   5.339 -0.4762  1.0927  0.9042
  435MOL0     H58684   0.187   7.130   5.513 -1.7814  0.1542 -0.4881
  435MOL0     H58685   0.001   7.250   5.356 -1.1030  0.7781 -0.2111
  435MOL0     H58686  -0.235   7.386   5.236  1.7718 -0.1818 -0.0520
  435MOL0     H58687  -0.314   7.369   5.394  0.6496  1.4808  0.3270
  435MOL0     H58688  -0.138   7.403   5.388  2.9455 -1.4822 -2.9634
  435MOL0     H58689  -0.636   7.190   5.059  2.8275 -0.0097  2.1128
  435MOL0     H58690  -0.864   7.166   4.978 -0.7426 -1.8046 -1.5547
  435MOL0     H58691  -1.232   6.919   5.058  0.0437 -2.1925  1.9612
  435MOL0     H58692  -1.142   6.894   5.201 -1.3473 -0.5193 -0.4583
  435MOL0     H58693  -1.146   7.141   5.249 -2.0100 -1.7891  1.3597
  435MOL0     H58694  -1.193   7.177   5.088  2.0273 -1.2694 -1.0626
  435MOL0     H58695  -1.380   7.194   5.254  0.6717  0.2135  1.2537
  435MOL0     H58696  -1.343   7.024   5.302 -0.7651  0.7771  1.1877
  435MOL0     H58697  -1.439   7.084   5.024 -0.2076 -1.6434 -0.2565
  435MOL0     H58698  -1.435   6.929   5.119 -1.6011 -0.7552 -0.0705
  435MOL0     H58699  -1.653   7.012   5.078 -0.8498 -0.1589  1.9441
  435MOL0     H58700  -1.632   7.168   5.156 -0.3105 -0.0059 -0.2734
  435MOL0     H58701  -1.594   7.052   5.370  1.3467  0.0417  0.5058
  435MOL0     H58702  -1.752   7.011   5.299 -0.4337  0.1433 -0.6594
  435MOL0     H58703  -1.511   6.827   5.334 -0.2989 -0.4111  0.8775
  435MOL0     H58704  -1.626   6.790   5.218  1.8062 -1.8280 -0.1020
  435MOL0     H58705  -1.680   6.841   5.521 -0.7755 -0.1184 -0.3481
  435MOL0     H58706  -1.688   6.683   5.433  1.2449 -0.1633  1.8660
  435MOL0     H58707  -0.933   6.856   5.263 -0.2257 -2.4248 -5.0376
  435MOL0     H58708  -0.710   6.905   5.366 -1.0743 -0.3894 -0.5000
  435MOL0     H58709  -0.333   6.911   5.265  2.8688 -3.4994 -0.4056
  435MOL0     H58710  -0.105   6.838   5.342 -0.7105 -0.1033  1.4887
  435MOL0     H58711   2.017   7.637   5.678  0.5692 -2.1943  0.1362
  435MOL0     H58712   2.217   7.555   5.567  0.5677 -2.1988  0.0973
  435MOL0     H58713   2.338   7.450   5.096 -0.0011 -1.1345  0.1873
  435MOL0     H58714   2.507   7.387   4.923 -2.1113 -2.0130 -0.0226
  435MOL0     H58715   2.629   7.206   4.836 -0.8854  1.3893  3.6196
  435MOL0     H58716   2.716   7.360   4.814  2.3487  1.2740  3.0659
  435MOL0     H58717   2.824   7.068   4.806  1.8005 -0.7159 -2.4660
  435MOL0     H58718   2.927   7.201   4.849 -1.0382  0.2273 -0.0752
  435MOL0     H58719   2.840   7.295   4.619  2.3939  1.2802  3.7460
  435MOL0     H58720   2.803   7.126   4.590  1.1745 -2.8579  0.9908
  435MOL0     H58721   3.043   7.066   4.589 -0.0153 -0.1783  0.2209
  435MOL0     H58722   3.084   7.228   4.657 -1.0199  0.8934 -0.0399
  435MOL0     H58723   3.061   7.274   4.242 -1.3620 -3.1700 -0.4682
  435MOL0     H58724   2.749   7.221   5.232  0.4562 -0.1985 -2.6265
  435MOL0     H58725   2.565   7.255   5.399 -0.7460 -1.1564 -0.2665
  436MOL0     O58726   9.615   8.367   4.315  0.5916  0.4657 -0.0829
  436MOL0     C58727   9.647   8.254   4.275  0.1331 -0.5832 -0.3144
  436MOL0     O58728   9.557   8.157   4.236  0.1002  0.2113  0.0809
  436MOL0     C58729   9.422   8.170   4.234 -0.1752  0.2123  0.0571
  436MOL0     C58730   9.355   8.295   4.221 -0.0123  0.0936  0.1259
  436MOL0     C58731   9.214   8.295   4.221  0.2001 -0.2889 -0.6264
  436MOL0     C58732   9.135   8.178   4.206  0.2779 -0.0651 -0.1442
  436MOL0     O58733   9.003   8.194   4.178  0.2330 -0.2811 -0.1293
  436MOL0     C58734   8.918   8.095   4.230  0.1181 -0.6678  0.2615
  436MOL0     C58735   8.767   8.142   4.232 -0.0718  0.3339  0.4296
  436MOL0     C58736   8.732   8.205   4.094 -0.8127 -0.0446  0.1876
  436MOL0     C58737   8.605   8.143   4.038  0.1616  0.1130 -0.1419
  436MOL0     C58738   8.560   8.219   3.912 -0.1316 -0.0474 -0.1119
  436MOL0     C58739   8.444   8.152   3.842  0.2703  0.1395 -0.2108
  436MOL0     C58740   8.436   8.209   3.706  0.2465  0.0511 -0.0870
  436MOL0     C58741   8.302   8.167   3.637 -0.4300  0.3937 -0.7560
  436MOL0     N58742   8.173   8.204   3.704 -0.0043  0.0519  0.3143
  436MOL0     C58743   8.103   8.326   3.714 -0.6225 -0.2005 -0.6908
  436MOL0     C58744   7.984   8.306   3.778 -0.4008 -0.1580 -0.7476
  436MOL0     C58745   7.886   8.402   3.817 -0.7600  0.2923 -0.0418
  436MOL0     C58746   7.785   8.433   3.702 -0.3244 -0.3049  0.1544
  436MOL0     C58747   7.704   8.312   3.652 -0.0315 -0.2667  0.4568
  436MOL0     C58748   7.568   8.356   3.613  0.2509 -0.6163  0.2157
  436MOL0     O58749   7.493   8.235   3.599  0.1673  0.2519 -0.9381
  436MOL0     C58750   7.375   8.246   3.539  1.0105  0.3197  1.1346
  436MOL0     C58751   7.306   8.128   3.511  0.4741  0.3239 -0.7714
  436MOL0     C58752   7.178   8.130   3.453  0.0875  0.8970 -0.2070
  436MOL0     C58753   7.101   7.998   3.440 -0.2150 -0.3632 -0.0884
  436MOL0     C58754   7.124   8.259   3.411 -0.6418 -0.1605  0.3629
  436MOL0     C58755   6.994   8.286   3.331 -0.1101 -0.3151 -0.7244
  436MOL0     O58756   6.969   8.416   3.301 -0.3238 -0.6239 -0.3765
  436MOL0     C58757   6.882   8.449   3.197 -0.0386  0.7105  0.6647
  436MOL0     C58758   6.746   8.448   3.219  0.4735  0.7157  0.6588
  436MOL0     C58759   6.658   8.495   3.117 -0.2234  0.2563  0.1307
  436MOL0     C58760   6.706   8.554   3.002 -0.1999  0.1810  0.5370
  436MOL0     O58761   6.622   8.603   2.908 -0.1917 -0.5588 -0.5002
  436MOL0     C58762   6.627   8.544   2.778  0.0169 -0.2082  0.2176
  436MOL0     C58763   6.511   8.593   2.679 -0.1292  0.5083  0.1062
  436MOL0     C58764   6.377   8.585   2.743  0.5332  0.0675 -0.0902
  436MOL0     C58765   6.319   8.442   2.747 -0.8285 -0.6207  0.4996
  436MOL0     C58766   6.199   8.422   2.835 -0.2764  0.5451  0.6634
  436MOL0     C58767   6.231   8.389   2.982  0.2745  0.1826  0.1689
  436MOL0     C58768   6.111   8.416   3.073  0.2474 -0.1625  0.1712
  436MOL0     C58769   5.992   8.331   3.045  1.1687  0.5074 -0.2956
  436MOL0    Cl58770   5.871   8.336   3.175 -0.4262  0.3853  0.8319
  436MOL0     C58771   6.841   8.546   2.974  0.2397  0.6585  0.5353
  436MOL0     C58772   6.930   8.495   3.070 -1.2978  0.0479 -0.5696
  436MOL0     O58773   6.916   8.194   3.307 -0.6341  0.1217 -0.2085
  436MOL0     C58774   7.199   8.374   3.432 -0.8923  0.4960 -0.6931
  436MOL0     C58775   7.319   8.364   3.489 -0.1166  0.4312 -0.0039
  436MOL0     N58776   7.975   8.174   3.805 -0.8448  0.2561  0.5549
  436MOL0     N58777   8.088   8.117   3.768  0.5329 -0.1927 -0.4344
  436MOL0     C58778   9.204   8.058   4.229  0.5271 -0.2154 -0.3674
  436MOL0     C58779   9.343   8.051   4.251 -0.2321 -0.6459  0.0137
  436MOL0     C58780   9.789   8.230   4.265 -0.9477  0.6115 -0.7676
  436MOL0     C58781   9.831   8.118   4.190 -0.6003 -0.7548  1.0799
  436MOL0     C58782   9.970   8.093   4.177 -0.2861 -0.7197 -0.3958
  436MOL0     C58783  10.063   8.167   4.251  0.3091  0.6539  0.0592
  436MOL0     O58784  10.194   8.144   4.254 -0.3656 -0.4025 -0.4999
  436MOL0     C58785  10.245   8.011   4.226 -0.7441  0.1471  0.0389
  436MOL0     C58786  10.399   8.013   4.244 -0.2350  0.2783  0.0556
  436MOL0     C58787  10.468   8.090   4.129 -1.1892 -0.3769 -1.2344
  436MOL0     C58788  10.613   8.091   4.168 -0.1242  0.2381  0.5722
  436MOL0     C58789  10.667   8.218   4.137  0.3372  0.7728  0.2136
  436MOL0     C58790  10.721   8.317   4.094  0.8206  0.0362  0.1887
  436MOL0     C58791  10.017   8.262   4.341 -0.0738 -0.1437 -0.3591
  436MOL0     C58792   9.882   8.294   4.352  0.7451  0.9126  0.1183
  436MOL0     H58793   9.418   8.382   4.200  2.8372 -1.9613 -0.5274
  436MOL0     H58794   9.165   8.389   4.201 -2.7344 -1.5667  0.0558
  436MOL0     H58795   8.920   8.004   4.170  0.4468  0.7663 -2.0368
  436MOL0     H58796   8.947   8.080   4.335 -0.2872 -0.3131  0.4254
  436MOL0     H58797   8.704   8.053   4.245  0.6430 -0.5680 -1.7187
  436MOL0     H58798   8.751   8.213   4.314  1.8488 -1.1281  2.1636
  436MOL0     H58799   8.718   8.313   4.093 -2.8626 -0.2180 -2.7187
  436MOL0     H58800   8.814   8.180   4.025 -1.4052  0.0826 -0.5806
  436MOL0     H58801   8.623   8.037   4.016 -1.6393  0.2410 -2.6123
  436MOL0     H58802   8.523   8.154   4.110  0.3952  1.8521 -0.1017
  436MOL0     H58803   8.535   8.324   3.929  2.3222  0.7892 -1.1529
  436MOL0     H58804   8.646   8.216   3.844 -1.5192 -1.5387 -1.8969
  436MOL0     H58805   8.466   8.045   3.844  2.0807  0.4793  1.8015
  436MOL0     H58806   8.353   8.174   3.899 -1.4407 -1.1731 -2.2861
  436MOL0     H58807   8.447   8.318   3.706 -1.1852  0.2067  0.1151
  436MOL0     H58808   8.529   8.180   3.655 -0.1554 -0.1322 -0.7254
  436MOL0     H58809   8.298   8.058   3.640 -0.1550  0.3639 -1.3293
  436MOL0     H58810   8.298   8.202   3.533  0.8606  3.1692  0.0515
  436MOL0     H58811   8.144   8.424   3.689  1.6363 -1.0690 -0.6104
  436MOL0     H58812   7.833   8.371   3.908  4.5320 -1.9354  2.7310
  436MOL0     H58813   7.939   8.492   3.847  0.0738 -0.0994 -0.3292
  436MOL0     H58814   7.841   8.475   3.618 -0.2238 -0.5010  0.1220
  436MOL0     H58815   7.722   8.519   3.723 -1.5334 -1.0843 -0.1667
  436MOL0     H58816   7.707   8.247   3.740 -0.4634  0.7180  1.2183
  436MOL0     H58817   7.759   8.271   3.568  1.8760  3.2200 -0.2014
  436MOL0     H58818   7.580   8.402   3.515 -2.7566 -0.7139 -0.2985
  436MOL0     H58819   7.524   8.417   3.693  1.3934  1.9150 -1.0031
  436MOL0     H58820   7.347   8.031   3.538 -0.8642 -0.2522 -0.6985
  436MOL0     H58821   7.107   7.943   3.535 -1.1751  0.4406  0.4508
  436MOL0     H58822   6.993   8.002   3.425 -0.2647  0.5063  0.4644
  436MOL0     H58823   7.143   7.931   3.364  0.0297  2.0277 -2.1949
  436MOL0     H58824   6.724   8.406   3.317 -0.4211  1.2405  0.6860
  436MOL0     H58825   6.550   8.495   3.123 -0.3185  0.8494 -1.2220
  436MOL0     H58826   6.718   8.583   2.731  0.1234  0.3949  0.8971
  436MOL0     H58827   6.630   8.435   2.773  0.7346 -0.1563 -1.2457
  436MOL0     H58828   6.527   8.695   2.644 -2.1182  0.5702 -0.8121
  436MOL0     H58829   6.506   8.529   2.590  0.1944 -2.1703  1.9089
  436MOL0     H58830   6.304   8.634   2.677  0.4752 -3.5215 -3.0276
  436MOL0     H58831   6.387   8.618   2.847 -1.3068 -1.0233  0.4922
  436MOL0     H58832   6.289   8.422   2.643  1.6553  1.0664 -0.6523
  436MOL0     H58833   6.390   8.365   2.781  0.5377  0.0508 -0.6785
  436MOL0     H58834   6.143   8.342   2.786  3.9142 -1.1519 -1.8797
  436MOL0     H58835   6.146   8.518   2.834  0.6231  1.0732  1.2715
  436MOL0     H58836   6.279   8.291   2.987 -1.2436 -0.5657  0.5766
  436MOL0     H58837   6.306   8.467   2.997  2.6871 -1.5464 -1.9399
  436MOL0     H58838   6.073   8.517   3.053  0.6822  0.0731  0.5155
  436MOL0     H58839   6.140   8.404   3.177  0.5603  1.5094  0.3124
  436MOL0     H58840   6.020   8.225   3.051 -0.2003  0.0830 -1.0819
  436MOL0     H58841   5.947   8.348   2.947 -2.7751  0.1541  1.2814
  436MOL0     H58842   6.889   8.580   2.882 -1.4361  0.9515 -0.2634
  436MOL0     H58843   7.034   8.487   3.040 -1.3846  2.1762 -1.6954
  436MOL0     H58844   7.164   8.475   3.414 -3.5110  0.6587  3.7720
  436MOL0     H58845   7.371   8.459   3.497  0.5447  0.0017  0.8807
  436MOL0     H58846   9.153   7.963   4.247  0.5284 -0.7322 -2.7403
  436MOL0     H58847   9.404   7.966   4.281  1.0739  0.3970  0.3885
  436MOL0     H58848   9.754   8.058   4.143 -0.4467 -0.0868 -0.0644
  436MOL0     H58849   9.996   8.008   4.114 -0.6425 -0.4186 -0.9649
  436MOL0     H58850  10.197   7.944   4.298  1.2012 -0.9478  0.3822
  436MOL0     H58851  10.217   7.983   4.125 -0.2710  1.9349 -0.6225
  436MOL0     H58852  10.450   7.916   4.250 -0.5450  0.0940 -0.2426
  436MOL0     H58853  10.421   8.068   4.336  0.0594 -0.1362  0.2350
  436MOL0     H58854  10.426   8.191   4.139  0.7318  0.2872  1.1115
  436MOL0     H58855  10.458   8.041   4.032  1.4516 -3.7344 -0.0421
  436MOL0     H58856  10.669   8.017   4.112 -2.0374 -3.4140  3.0300
  436MOL0     H58857  10.637   8.061   4.271  3.1157 -1.3986 -0.5307
  436MOL0     H58858  10.765   8.392   4.032  0.1587 -0.1750 -0.5499
  436MOL0     H58859  10.098   8.304   4.400 -1.2040  1.6959 -0.0350
  436MOL0     H58860   9.855   8.359   4.434  2.9362  0.8124  1.0013
  437MOL0     O58861   5.657   2.556   8.014  0.2060  0.4333 -0.3415
  437MOL0     C58862   5.717   2.592   7.920 -0.4441 -0.3081  0.5088
  437MOL0     O58863   5.671   2.681   7.828 -0.3976 -0.3040  0.6114
  437MOL0     C58864   5.546   2.731   7.817 -0.6435  0.1825  0.2482
  437MOL0     C58865   5.536   2.811   7.702 -0.5925  0.1877 -0.0048
  437MOL0     C58866   5.419   2.891   7.677 -0.3343  0.7013 -0.2199
  437MOL0     C58867   5.307   2.885   7.764 -0.5498  0.1161  0.3284
  437MOL0     O58868   5.209   2.981   7.736 -0.7832 -0.0891  0.4798
  437MOL0     C58869   5.072   2.977   7.788 -0.5478 -0.2231  0.3496
  437MOL0     C58870   5.011   3.115   7.760 -1.0474 -0.0629  0.0501
  437MOL0     C58871   4.870   3.137   7.811 -0.7859 -0.0831  0.6615
  437MOL0     C58872   4.802   3.266   7.761 -0.0289  0.3498 -0.7197
  437MOL0     C58873   4.663   3.299   7.813  0.0397 -0.1669  0.5053
  437MOL0     C58874   4.587   3.386   7.707  0.2842  0.0598  0.2036
  437MOL0     C58875   4.437   3.410   7.722  0.1902  0.2207 -0.2023
  437MOL0     C58876   4.387   3.518   7.618 -0.9499  0.4136 -1.0108
  437MOL0     N58877   4.248   3.502   7.577  0.0516 -0.2320 -0.4879
  437MOL0     C58878   4.149   3.561   7.644 -0.0474 -0.2900 -0.5793
  437MOL0     C58879   4.028   3.509   7.596  0.4851  0.2698 -0.0486
  437MOL0     C58880   3.898   3.548   7.656  0.2855 -0.3344  0.8135
  437MOL0     C58881   3.771   3.500   7.587 -1.0015 -0.9237  0.2800
  437MOL0     C58882   3.649   3.527   7.675 -0.0696  0.7889 -0.2678
  437MOL0     C58883   3.507   3.483   7.621 -0.1284  0.5815  0.7983
  437MOL0     O58884   3.399   3.576   7.661  0.9511 -0.2869  0.0159
  437MOL0     C58885   3.270   3.528   7.655  0.0206 -0.5017 -0.1184
  437MOL0     C58886   3.217   3.406   7.602  0.6098 -0.3213  0.0489
  437MOL0     C58887   3.079   3.377   7.598  0.1341 -0.5666  0.2355
  437MOL0     C58888   3.047   3.247   7.533 -1.6902  0.8194  0.9763
  437MOL0     C58889   2.984   3.473   7.656 -0.1044  0.2251  0.5545
  437MOL0     C58890   2.835   3.442   7.658  0.0392  0.6312  0.5680
  437MOL0     O58891   2.738   3.532   7.645  0.1975  0.0849 -0.5291
  437MOL0     C58892   2.608   3.485   7.623 -0.2164 -0.8806 -0.5750
  437MOL0     C58893   2.524   3.454   7.739  0.0236  0.3013  0.4301
  437MOL0     C58894   2.391   3.427   7.721  0.6780 -0.2699 -0.0873
  437MOL0     C58895   2.328   3.437   7.592  0.5322  0.0749  0.1600
  437MOL0     O58896   2.184   3.412   7.581 -0.0935 -1.2372 -0.6834
  437MOL0     C58897   2.137   3.356   7.465  0.1340 -0.7329  0.0164
  437MOL0     C58898   2.200   3.222   7.447 -0.2681  0.4308 -0.1682
  437MOL0     C58899   2.102   3.151   7.355  0.1032  0.5202 -0.2875
  437MOL0     C58900   2.125   3.003   7.310  0.2432 -0.0455  0.0273
  437MOL0     C58901   2.139   2.903   7.429 -0.2880 -0.4106  0.6627
  437MOL0     C58902   2.101   2.761   7.379 -0.3215  0.8659  0.0429
  437MOL0     C58903   2.200   2.689   7.279 -0.3810  0.4072  0.0526
  437MOL0     C58904   2.139   2.553   7.239  0.5641 -0.1277 -0.2384
  437MOL0    Cl58905   1.989   2.567   7.141 -0.3092  0.0538 -0.1508
  437MOL0     C58906   2.410   3.482   7.485 -0.0926  0.2093  0.6563
  437MOL0     C58907   2.543   3.512   7.501  0.2693  0.1706 -0.0143
  437MOL0     O58908   2.813   3.325   7.670  0.3763 -0.0694 -0.4089
  437MOL0     C58909   3.039   3.593   7.714 -0.4857 -0.2268 -0.2918
  437MOL0     C58910   3.181   3.618   7.707 -0.2573  0.1345  0.3918
  437MOL0     N58911   4.068   3.425   7.491 -0.1164 -0.2628 -0.0798
  437MOL0     N58912   4.199   3.422   7.482  0.0677  0.3466  0.2345
  437MOL0     C58913   5.314   2.791   7.872 -0.3531  0.3686 -0.2322
  437MOL0     C58914   5.432   2.727   7.905  0.5156 -0.0974 -0.5045
  437MOL0     C58915   5.860   2.559   7.905  0.0242  0.2028  0.0933
  437MOL0     C58916   5.927   2.474   8.001 -0.4904 -0.1476  0.3583
  437MOL0     C58917   6.073   2.438   7.971  0.3192 -0.4292  0.3363
  437MOL0     C58918   6.137   2.487   7.865  0.4701  0.4110  0.4284
  437MOL0     O58919   6.275   2.448   7.865  0.2722 -0.0389  0.2050
  437MOL0     C58920   6.363   2.494   7.768 -1.1258  0.3643  0.1259
  437MOL0     C58921   6.478   2.403   7.733 -0.1497  0.3435 -0.4734
  437MOL0     C58922   6.550   2.337   7.858 -0.1962  0.4001 -0.8505
  437MOL0     C58923   6.693   2.299   7.823  0.4405  0.3212 -0.0506
  437MOL0     C58924   6.695   2.168   7.756 -0.2930  0.2333 -0.6592
  437MOL0     C58925   6.693   2.052   7.714  0.4769 -0.0348 -0.3080
  437MOL0     C58926   6.073   2.576   7.777 -0.1994 -0.2529 -1.2636
  437MOL0     C58927   5.938   2.618   7.801  0.8465 -0.1035 -0.0424
  437MOL0     H58928   5.617   2.807   7.630 -2.4198 -1.1477 -2.1458
  437MOL0     H58929   5.420   2.951   7.587 -5.2119 -2.8027 -3.0962
  437MOL0     H58930   5.016   2.893   7.748  1.3023 -0.8924 -0.9536
  437MOL0     H58931   5.087   2.960   7.895  1.9269 -1.8855 -0.1761
  437MOL0     H58932   5.081   3.193   7.792 -1.2893 -0.5469  1.8972
  437MOL0     H58933   5.009   3.131   7.652  2.4740 -0.1719 -0.1545
  437MOL0     H58934   4.806   3.054   7.782  0.2802 -0.9157  0.6426
  437MOL0     H58935   4.880   3.137   7.920  0.0719  0.4595  0.5989
  437MOL0     H58936   4.858   3.349   7.807  1.0342 -0.6409 -0.1905
  437MOL0     H58937   4.811   3.279   7.653  1.7575 -1.0453 -0.7694
  437MOL0     H58938   4.604   3.210   7.836  0.1490  0.2024  2.3329
  437MOL0     H58939   4.663   3.364   7.900 -3.0240  2.6809 -1.3994
  437MOL0     H58940   4.638   3.482   7.717  2.0138 -0.6362 -1.2746
  437MOL0     H58941   4.604   3.349   7.605  0.3735 -0.8386  0.5341
  437MOL0     H58942   4.381   3.316   7.724  2.4437 -1.3753 -3.2784
  437MOL0     H58943   4.418   3.460   7.817  1.3512  2.4350 -1.0602
  437MOL0     H58944   4.460   3.511   7.537  0.5325 -0.8840  0.3591
  437MOL0     H58945   4.400   3.614   7.670 -2.5117  1.1383 -1.8904
  437MOL0     H58946   4.143   3.622   7.734 -1.4544  0.7821 -1.3563
  437MOL0     H58947   3.887   3.529   7.763  0.4690  2.7334  1.4511
  437MOL0     H58948   3.906   3.656   7.648  1.7020 -0.4142  0.9096
  437MOL0     H58949   3.778   3.393   7.566 -0.5903 -0.6917 -0.7902
  437MOL0     H58950   3.745   3.551   7.494  0.2608 -1.9270 -0.6596
  437MOL0     H58951   3.655   3.630   7.711 -2.4432  1.3564 -1.3202
  437MOL0     H58952   3.659   3.469   7.768 -1.8306 -1.7026 -1.5193
  437MOL0     H58953   3.489   3.380   7.652 -0.2800  0.3298 -0.0930
  437MOL0     H58954   3.514   3.478   7.512  1.3508 -1.3441  0.9209
  437MOL0     H58955   3.282   3.327   7.564  1.3808 -0.3901  1.4450
  437MOL0     H58956   3.016   3.179   7.613 -1.2921  0.0796  0.5128
  437MOL0     H58957   2.970   3.266   7.459  1.0012  2.2126 -1.6948
  437MOL0     H58958   3.132   3.209   7.475  0.5212  0.7888  3.9811
  437MOL0     H58959   2.569   3.435   7.836 -1.5653 -0.8165  0.9973
  437MOL0     H58960   2.321   3.391   7.795 -1.8793 -0.3683 -2.3736
  437MOL0     H58961   2.028   3.352   7.477 -0.0770  0.8408 -1.1200
  437MOL0     H58962   2.152   3.416   7.375  3.3732 -0.4865  0.6023
  437MOL0     H58963   2.300   3.219   7.402  1.5484 -1.7671  3.5410
  437MOL0     H58964   2.198   3.164   7.540 -3.5936 -2.6343 -1.8980
  437MOL0     H58965   2.113   3.198   7.257  1.2392 -2.8201 -1.9351
  437MOL0     H58966   2.000   3.161   7.393  1.1618  0.3796  2.8973
  437MOL0     H58967   2.040   2.973   7.249  0.2849 -0.5085  0.1965
  437MOL0     H58968   2.220   2.997   7.256  1.0190 -0.8415  1.4053
  437MOL0     H58969   2.067   2.937   7.504 -4.0845 -1.0304 -2.4266
  437MOL0     H58970   2.243   2.902   7.464  0.1254  0.8363 -0.4591
  437MOL0     H58971   2.080   2.694   7.463 -3.1634 -0.0442 -1.2669
  437MOL0     H58972   2.003   2.773   7.331  0.1626 -1.8764 -1.8403
  437MOL0     H58973   2.300   2.693   7.323 -1.3733  1.1130  2.3756
  437MOL0     H58974   2.206   2.758   7.194 -0.0513  0.4593  0.1131
  437MOL0     H58975   2.113   2.498   7.330  0.1361  0.0686 -0.2376
  437MOL0     H58976   2.220   2.492   7.199  1.8567  0.3930  1.4745
  437MOL0     H58977   2.358   3.498   7.391 -1.8443  0.0682  1.5621
  437MOL0     H58978   2.581   3.549   7.406 -1.9099 -0.7787 -1.3465
  437MOL0     H58979   2.979   3.672   7.758  0.8669  0.2015  0.8644
  437MOL0     H58980   3.222   3.709   7.749 -1.8236  0.9288  0.2943
  437MOL0     H58981   5.238   2.802   7.949 -2.5581  2.1842 -2.5095
  437MOL0     H58982   5.441   2.665   7.994 -1.7706  1.5222  0.9455
  437MOL0     H58983   5.867   2.452   8.088 -1.3500  0.8686  0.0479
  437MOL0     H58984   6.138   2.380   8.036  1.3011 -0.1302 -0.3697
  437MOL0     H58985   6.318   2.528   7.674 -1.4420  0.2186  0.2247
  437MOL0     H58986   6.416   2.576   7.818  0.4980 -0.3331 -0.4206
  437MOL0     H58987   6.549   2.452   7.665  1.3831  2.5823  2.4800
  437MOL0     H58988   6.438   2.321   7.674  2.3318 -0.5398 -1.0740
  437MOL0     H58989   6.482   2.257   7.888 -0.0512  0.3447 -0.6628
  437MOL0     H58990   6.549   2.407   7.943 -0.9341 -0.7363  0.1125
  437MOL0     H58991   6.744   2.292   7.919  0.0594 -0.2929  0.1101
  437MOL0     H58992   6.748   2.374   7.765  0.1218 -0.3394 -1.2475
  437MOL0     H58993   6.704   1.952   7.678 -1.2813 -0.5118  0.3790
  437MOL0     H58994   6.132   2.607   7.692  3.2375 -1.0686  0.6558
  437MOL0     H58995   5.882   2.681   7.732  2.6612 -0.3332 -1.8002
  438MOL0     O58996   3.654   0.459   7.900  0.4228  0.5827  0.3403
  438MOL0     C58997   3.694   0.571   7.862  0.2697 -0.0903  0.1753
  438MOL0     O58998   3.613   0.678   7.823  0.1721 -0.3619 -0.3078
  438MOL0     C58999   3.484   0.677   7.772  0.0279 -0.4262  0.0561
  438MOL0     C59000   3.438   0.799   7.703  0.0354  0.6095 -0.0346
  438MOL0     C59001   3.314   0.799   7.642  0.5011 -0.1945  0.5218
  438MOL0     C59002   3.243   0.676   7.625 -0.1201  0.0779  0.7240
  438MOL0     O59003   3.129   0.649   7.552  0.0902  0.0614 -0.7433
  438MOL0     C59004   3.094   0.725   7.435  0.4387 -0.2637  0.5536
  438MOL0     C59005   3.197   0.724   7.314 -0.0296  0.7047 -0.5460
  438MOL0     C59006   3.115   0.770   7.190 -0.1245  0.3029 -0.6268
  438MOL0     C59007   3.221   0.744   7.073 -0.4148 -1.3680 -0.0706
  438MOL0     C59008   3.161   0.780   6.931 -0.5788 -0.7175  0.0690
  438MOL0     C59009   3.063   0.670   6.892 -0.3997  1.1015  0.2850
  438MOL0     C59010   3.024   0.688   6.742  0.2534  0.1731  0.4844
  438MOL0     C59011   2.943   0.564   6.690 -0.0381  0.0684  0.7235
  438MOL0     N59012   2.809   0.563   6.739 -0.2138 -0.4006  0.0083
  438MOL0     C59013   2.761   0.443   6.790  0.5359  0.4382  0.9113
  438MOL0     C59014   2.633   0.474   6.808 -0.0713  0.1312  0.0983
  438MOL0     C59015   2.529   0.377   6.874  0.8393 -0.8432 -0.0545
  438MOL0     C59016   2.568   0.356   7.023 -0.8205  0.6258  0.1507
  438MOL0     C59017   2.471   0.260   7.093 -0.1765  1.1989  1.2027
  438MOL0     C59018   2.340   0.318   7.133  0.4130 -0.2443 -0.6940
  438MOL0     O59019   2.249   0.314   7.026 -0.0237  0.0384 -0.3066
  438MOL0     C59020   2.116   0.351   7.050  0.0456  0.5486  0.3628
  438MOL0     C59021   2.020   0.312   6.955 -0.1134 -0.2294  1.2462
  438MOL0     C59022   1.883   0.350   6.968  0.7348 -0.1683 -0.2341
  438MOL0     C59023   1.788   0.299   6.857 -0.2102 -0.0045 -0.3250
  438MOL0     C59024   1.846   0.430   7.077  0.3180  0.2752 -0.3557
  438MOL0     C59025   1.704   0.476   7.099  0.4816 -0.3684  0.8143
  438MOL0     O59026   1.679   0.545   7.220 -0.1066 -0.3247  0.6635
  438MOL0     C59027   1.546   0.571   7.262 -0.5360 -0.0331 -0.3409
  438MOL0     C59028   1.446   0.477   7.246 -0.8748  0.3085  0.5919
  438MOL0     C59029   1.323   0.511   7.287 -0.3540  0.3334 -0.4278
  438MOL0     C59030   1.296   0.617   7.369 -0.1271 -0.0731  0.3897
  438MOL0     O59031   1.171   0.630   7.429 -0.0240 -0.3197  0.4692
  438MOL0     C59032   1.142   0.749   7.504 -0.1012  0.3999  1.0335
  438MOL0     C59033   0.991   0.743   7.537 -0.8380 -0.0738  0.1645
  438MOL0     C59034   0.969   0.646   7.658 -0.0888  0.2694 -0.5286
  438MOL0     C59035   0.848   0.671   7.743  0.0205  0.6493  0.4567
  438MOL0     C59036   0.720   0.633   7.671 -0.0228  0.1601  0.8085
  438MOL0     C59037   0.585   0.651   7.754  0.4583 -0.3733  0.7431
  438MOL0     C59038   0.465   0.597   7.670 -0.4848  0.1887  0.2567
  438MOL0     C59039   0.329   0.671   7.687 -0.4336  0.4344  0.5533
  438MOL0    Cl59040   0.332   0.830   7.615 -0.0538 -0.3615 -0.2478
  438MOL0     C59041   1.399   0.719   7.385  0.5562  0.3559  0.1108
  438MOL0     C59042   1.523   0.697   7.326  0.0959  0.0844 -0.8000
  438MOL0     O59043   1.617   0.454   7.017 -0.1737  0.4744  0.5334
  438MOL0     C59044   1.944   0.477   7.161  0.8541  0.0049  0.3601
  438MOL0     C59045   2.075   0.443   7.151 -0.2173 -0.7714  0.4613
  438MOL0     N59046   2.594   0.596   6.764 -0.1426 -0.3567 -0.1452
  438MOL0     N59047   2.713   0.657   6.732 -0.2529  0.3118 -0.3006
  438MOL0     C59048   3.293   0.564   7.683  0.1336  0.3226 -0.5867
  438MOL0     C59049   3.408   0.560   7.759 -0.1469 -0.5833 -0.0845
  438MOL0     C59050   3.838   0.593   7.874  0.7174  0.4055  0.0658
  438MOL0     C59051   3.913   0.520   7.967 -0.3333  0.2916  0.7173
  438MOL0     C59052   4.045   0.563   7.985 -0.1215 -0.2681 -0.9543
  438MOL0     C59053   4.107   0.658   7.918  1.1354 -0.9826  0.5597
  438MOL0     O59054   4.233   0.700   7.956  0.1265 -0.1942  0.5184
  438MOL0     C59055   4.312   0.652   8.070  0.9034 -0.0339  0.9012
  438MOL0     C59056   4.458   0.704   8.066  0.4997 -0.2373  0.2992
  438MOL0     C59057   4.567   0.611   8.010 -0.1636  0.0951 -0.1608
  438MOL0     C59058   4.696   0.675   8.029  0.3278  0.5090 -0.6037
  438MOL0     C59059   4.810   0.576   8.003  0.0823 -0.0615 -0.1118
  438MOL0     C59060   4.916   0.514   7.995 -0.5436  0.1223  0.0060
  438MOL0     C59061   4.033   0.718   7.815  0.8938  0.2476  0.1124
  438MOL0     C59062   3.898   0.691   7.797  0.6084 -0.5053 -0.6080
  438MOL0     H59063   3.498   0.889   7.709  0.0105  0.7684 -1.7271
  438MOL0     H59064   3.276   0.888   7.592  2.7788 -0.5241 -2.0200
  438MOL0     H59065   2.996   0.690   7.403 -1.0663  3.0173  1.1975
  438MOL0     H59066   3.073   0.831   7.452  1.3492  1.1825 -5.1125
  438MOL0     H59067   3.282   0.790   7.328  0.4239 -0.1608  1.0643
  438MOL0     H59068   3.248   0.629   7.297 -0.5175  0.6300 -1.6787
  438MOL0     H59069   3.042   0.689   7.182 -0.4439  0.2701  1.9681
  438MOL0     H59070   3.080   0.874   7.188 -0.9127  0.0702  0.3672
  438MOL0     H59071   3.299   0.820   7.084 -2.4694  0.8646 -0.0559
  438MOL0     H59072   3.268   0.645   7.076 -0.8289 -1.5769  3.1507
  438MOL0     H59073   3.121   0.881   6.934  2.2283  0.5152 -0.4278
  438MOL0     H59074   3.241   0.785   6.857 -1.7406 -1.7912 -1.3108
  438MOL0     H59075   3.116   0.574   6.899 -0.6816  0.9911  1.0072
  438MOL0     H59076   2.985   0.666   6.969 -0.3027 -1.1010  0.3506
  438MOL0     H59077   2.961   0.778   6.744 -1.3737 -0.9006  2.9181
  438MOL0     H59078   3.110   0.705   6.676  0.1455 -1.3629 -0.0974
  438MOL0     H59079   2.994   0.472   6.718 -1.6205 -0.9932  0.1965
  438MOL0     H59080   2.950   0.563   6.581 -0.2564 -3.1082  0.6482
  438MOL0     H59081   2.808   0.349   6.818  0.5299  0.3167  0.5159
  438MOL0     H59082   2.426   0.414   6.870  1.5751  1.3118 -0.5995
  438MOL0     H59083   2.541   0.288   6.813 -0.6797 -0.2836 -1.2316
  438MOL0     H59084   2.570   0.451   7.077  0.4698 -0.7965  2.8089
  438MOL0     H59085   2.668   0.316   7.039 -1.3088 -1.1904 -1.0164
  438MOL0     H59086   2.509   0.215   7.186  0.7057  0.3625  0.4581
  438MOL0     H59087   2.458   0.177   7.023 -1.1781  2.0403  0.3571
  438MOL0     H59088   2.367   0.417   7.170  0.7297  0.0142 -1.5791
  438MOL0     H59089   2.299   0.258   7.215 -0.2089 -1.3787 -1.7893
  438MOL0     H59090   2.042   0.252   6.868 -1.3024 -2.3416  2.3015
  438MOL0     H59091   1.747   0.382   6.799  2.1635  1.1429 -0.4483
  438MOL0     H59092   1.845   0.228   6.797  3.8722  0.4995  2.5422
  438MOL0     H59093   1.707   0.233   6.889  0.2617 -1.1227 -1.3831
  438MOL0     H59094   1.461   0.388   7.186 -1.4891 -0.1996  1.1694
  438MOL0     H59095   1.236   0.448   7.273  1.0870 -1.4027 -2.1355
  438MOL0     H59096   1.204   0.755   7.593 -0.0875  1.0661  0.9887
  438MOL0     H59097   1.146   0.842   7.445  1.6273  2.1147  3.6368
  438MOL0     H59098   0.969   0.846   7.566  1.9225  0.6491 -0.0351
  438MOL0     H59099   0.932   0.699   7.456  0.2393 -0.6903 -0.3039
  438MOL0     H59100   1.057   0.653   7.722  0.1051  2.8477 -0.9808
  438MOL0     H59101   0.968   0.546   7.613 -1.2667 -0.5469  1.2384
  438MOL0     H59102   0.845   0.612   7.836 -0.7882  1.2376  0.8194
  438MOL0     H59103   0.838   0.777   7.765 -1.1388  0.4999  0.7304
  438MOL0     H59104   0.712   0.525   7.653 -0.0862  0.4106 -0.8206
  438MOL0     H59105   0.711   0.686   7.575 -3.6315 -0.1504  0.8169
  438MOL0     H59106   0.589   0.607   7.854 -1.0664 -0.0439  0.9619
  438MOL0     H59107   0.579   0.757   7.782 -1.1189 -0.4079  0.5894
  438MOL0     H59108   0.450   0.495   7.707 -0.6407  1.1546  3.0960
  438MOL0     H59109   0.495   0.599   7.564  2.3665  0.2426  0.9695
  438MOL0     H59110   0.291   0.673   7.790 -2.4381 -0.6110 -0.1154
  438MOL0     H59111   0.255   0.620   7.625  2.0377 -1.0701 -1.3393
  438MOL0     H59112   1.392   0.809   7.447 -0.2711  0.7366 -0.5113
  438MOL0     H59113   1.597   0.776   7.325  1.4115 -1.1168 -1.7503
  438MOL0     H59114   1.911   0.547   7.236 -2.1940 -0.8151 -0.0602
  438MOL0     H59115   2.147   0.486   7.220  2.0852  0.1692 -2.3210
  438MOL0     H59116   3.241   0.474   7.655  1.0872 -0.7960  1.0414
  438MOL0     H59117   3.432   0.463   7.800 -0.5429 -1.3182 -1.5425
  438MOL0     H59118   3.878   0.437   8.027 -0.2628  0.8657  1.5706
  438MOL0     H59119   4.108   0.512   8.057  0.5377  0.1337 -1.2368
  438MOL0     H59120   4.261   0.676   8.164  1.0658  2.5437  0.3814
  438MOL0     H59121   4.326   0.543   8.063 -2.5457 -0.5060 -3.8188
  438MOL0     H59122   4.493   0.713   8.169  1.0092 -1.4653  0.2429
  438MOL0     H59123   4.470   0.806   8.026 -1.7832 -0.5456 -1.3929
  438MOL0     H59124   4.548   0.590   7.904  0.5512 -0.4632 -0.1835
  438MOL0     H59125   4.546   0.516   8.060 -0.5749  0.6060  0.6593
  438MOL0     H59126   4.710   0.711   8.131 -1.1667  1.1528 -0.6097
  438MOL0     H59127   4.697   0.759   7.958 -1.4192  0.4989 -0.6607
  438MOL0     H59128   5.010   0.463   7.987 -1.2989 -1.0947 -1.8751
  438MOL0     H59129   4.075   0.791   7.747  0.8032 -0.2468 -0.4834
  438MOL0     H59130   3.838   0.756   7.734 -0.3198  0.8174  1.5482
  439MOL0     O59131   5.080   4.210   5.098  0.2971  0.5933  0.3237
  439MOL0     C59132   5.103   4.191   4.978 -0.6255 -0.2738  0.3364
  439MOL0     O59133   5.013   4.186   4.883 -0.3340  0.0839  0.3861
  439MOL0     C59134   4.894   4.247   4.910 -0.2006  0.5370 -0.4124
  439MOL0     C59135   4.877   4.381   4.874 -0.0537  0.7234  0.0510
  439MOL0     C59136   4.752   4.444   4.906  0.4163 -0.0699  0.7043
  439MOL0     C59137   4.657   4.375   4.983  0.1497 -0.3338 -0.1092
  439MOL0     O59138   4.553   4.450   5.023 -0.1407 -0.2843  0.3765
  439MOL0     C59139   4.458   4.395   5.110  0.3454 -0.5260 -0.0600
  439MOL0     C59140   4.344   4.500   5.140 -0.8243 -0.7968  0.0186
  439MOL0     C59141   4.244   4.521   5.021 -0.0490 -0.5287 -0.4347
  439MOL0     C59142   4.132   4.613   5.065  0.6704  0.2597 -0.0908
  439MOL0     C59143   4.027   4.614   4.948  0.1538 -1.5035 -0.6558
  439MOL0     C59144   3.922   4.722   4.986 -0.0472 -0.2447 -0.0869
  439MOL0     C59145   3.795   4.686   4.923  1.4573 -0.0266 -0.5206
  439MOL0     C59146   3.690   4.800   4.937  0.2826 -0.0222 -0.8697
  439MOL0     N59147   3.557   4.747   4.893 -0.5023  0.6046  0.3974
  439MOL0     C59148   3.495   4.767   4.778  0.6981  0.2692  0.2087
  439MOL0     C59149   3.377   4.714   4.803  0.4222  0.7084  1.0291
  439MOL0     C59150   3.256   4.707   4.710  0.0162  0.4327 -1.0132
  439MOL0     C59151   3.199   4.570   4.680  0.2880  0.4456 -0.3114
  439MOL0     C59152   3.115   4.505   4.788  0.1565  0.0478 -0.6731
  439MOL0     C59153   3.097   4.358   4.768  0.3390 -0.5349 -0.1533
  439MOL0     O59154   3.023   4.350   4.642 -0.0221  0.7178 -0.3716
  439MOL0     C59155   2.886   4.323   4.648 -0.4527  0.2019 -0.2842
  439MOL0     C59156   2.813   4.302   4.766 -0.0356 -0.8004  0.1645
  439MOL0     C59157   2.683   4.254   4.767 -0.2242 -0.4724 -0.2717
  439MOL0     C59158   2.627   4.214   4.904  0.4109 -0.0972  0.1716
  439MOL0     C59159   2.621   4.236   4.639  0.7596  0.0961 -0.2461
  439MOL0     C59160   2.489   4.168   4.617  0.0726  0.6539 -0.4026
  439MOL0     O59161   2.443   4.150   4.486 -0.3740  0.0281  0.3374
  439MOL0     C59162   2.343   4.067   4.443 -0.2935 -0.4965 -0.2256
  439MOL0     C59163   2.304   3.948   4.508  0.0052  0.3460  0.3502
  439MOL0     C59164   2.208   3.871   4.447 -0.4432 -0.4003  0.3517
  439MOL0     C59165   2.145   3.904   4.330 -0.8477  0.1483  0.0511
  439MOL0     O59166   2.074   3.806   4.276  0.8137  0.0562 -0.2471
  439MOL0     C59167   1.985   3.830   4.166 -0.2124 -0.0658 -0.0583
  439MOL0     C59168   1.916   3.701   4.119  0.3901  0.3207  0.3630
  439MOL0     C59169   2.016   3.583   4.074  0.0423  0.2405  0.1673
  439MOL0     C59170   1.938   3.465   4.014  0.5799 -0.4211  0.5376
  439MOL0     C59171   2.026   3.369   3.929 -0.2809 -0.7126 -0.5855
  439MOL0     C59172   2.143   3.312   4.013  1.0989 -0.4765 -0.1130
  439MOL0     C59173   2.101   3.207   4.120 -0.1482 -0.0631 -0.6678
  439MOL0     C59174   2.204   3.100   4.154 -0.0427 -0.0766 -0.0573
  439MOL0    Cl59175   2.344   3.164   4.235 -0.1238  0.1888 -0.0975
  439MOL0     C59176   2.193   4.017   4.263 -0.1016 -0.3560 -0.3805
  439MOL0     C59177   2.296   4.095   4.315 -0.3106 -0.4174 -0.4575
  439MOL0     O59178   2.428   4.136   4.721 -0.1025 -0.5860 -0.2772
  439MOL0     C59179   2.691   4.271   4.520 -1.1543 -0.1633 -0.2179
  439MOL0     C59180   2.822   4.314   4.526 -0.2076 -0.4606  0.0181
  439MOL0     N59181   3.372   4.671   4.938 -0.6010  0.5436  0.3679
  439MOL0     N59182   3.484   4.684   4.989 -0.4595 -0.0445  0.2724
  439MOL0     C59183   4.677   4.241   5.018 -0.6010 -0.9482  0.8840
  439MOL0     C59184   4.797   4.177   4.985  0.9470 -0.3103 -0.5172
  439MOL0     C59185   5.241   4.168   4.926  1.1769  0.7363 -0.2263
  439MOL0     C59186   5.269   4.158   4.785  0.5979 -0.6583 -0.2211
  439MOL0     C59187   5.402   4.135   4.738  0.6611 -0.1895 -0.0633
  439MOL0     C59188   5.503   4.116   4.829  0.6170 -0.1066 -0.0562
  439MOL0     O59189   5.627   4.092   4.773  0.4567 -0.2431 -0.2721
  439MOL0     C59190   5.735   4.173   4.827  0.3608 -0.2306 -0.0895
  439MOL0     C59191   5.871   4.147   4.761  0.0492 -0.2639 -0.6386
  439MOL0     C59192   5.919   4.006   4.784 -0.3804 -0.0781  0.5567
  439MOL0     C59193   6.067   3.989   4.752 -0.8988 -0.1871 -0.1491
  439MOL0     C59194   6.134   3.914   4.860 -0.1563 -0.3588  0.1533
  439MOL0     C59195   6.191   3.854   4.951 -0.1421 -1.1569 -0.4232
  439MOL0     C59196   5.468   4.109   4.966 -0.7738 -0.3208  0.0314
  439MOL0     C59197   5.341   4.133   5.017  0.4844  0.8700 -0.8185
  439MOL0     H59198   4.956   4.440   4.829  2.4229 -0.7230  2.2321
  439MOL0     H59199   4.729   4.543   4.869 -3.3526 -1.0934 -0.1900
  439MOL0     H59200   4.415   4.306   5.063 -0.2726  0.1279 -0.7660
  439MOL0     H59201   4.510   4.368   5.202 -2.5577 -1.6383  1.3771
  439MOL0     H59202   4.281   4.454   5.218 -0.7048 -1.3818 -0.2225
  439MOL0     H59203   4.383   4.598   5.167 -2.1816  0.3469 -1.9448
  439MOL0     H59204   4.293   4.571   4.937  1.6349 -0.5861  0.4946
  439MOL0     H59205   4.193   4.426   5.001 -2.5997 -0.3159  3.8326
  439MOL0     H59206   4.091   4.574   5.158  2.4244 -1.2744  0.0883
  439MOL0     H59207   4.171   4.712   5.090  2.0747 -0.2722 -0.1085
  439MOL0     H59208   4.084   4.646   4.860  2.4525 -1.2857  0.8193
  439MOL0     H59209   3.981   4.515   4.933 -1.2980 -0.9431 -0.0613
  439MOL0     H59210   3.919   4.719   5.095 -0.8278 -3.6655 -0.0924
  439MOL0     H59211   3.964   4.815   4.949  0.3937 -0.2763  0.3210
  439MOL0     H59212   3.809   4.672   4.816 -0.5603 -1.4431 -0.6352
  439MOL0     H59213   3.753   4.596   4.968  0.3002  0.0084 -1.4917
  439MOL0     H59214   3.718   4.886   4.875 -2.3656 -1.4460 -4.3562
  439MOL0     H59215   3.670   4.836   5.038 -1.6927  0.7289 -1.4833
  439MOL0     H59216   3.533   4.811   4.687  1.1947 -2.1461 -0.8272
  439MOL0     H59217   3.173   4.767   4.750  0.4759 -1.2699  3.0082
  439MOL0     H59218   3.293   4.758   4.620 -0.3725  4.2869  0.7806
  439MOL0     H59219   3.278   4.498   4.655 -1.6936 -2.0930  0.4092
  439MOL0     H59220   3.152   4.564   4.582  1.6520 -0.9312 -0.9260
  439MOL0     H59221   3.022   4.553   4.819 -0.4109 -1.0188 -0.6675
  439MOL0     H59222   3.159   4.522   4.886 -1.7451  2.1724 -0.1042
  439MOL0     H59223   3.049   4.312   4.855  1.9114  1.5736  1.9467
  439MOL0     H59224   3.191   4.302   4.767  0.6743  0.0111  0.1094
  439MOL0     H59225   2.864   4.346   4.851  2.7475  1.0438 -2.2246
  439MOL0     H59226   2.605   4.107   4.911 -1.5423  0.1529 -1.3481
  439MOL0     H59227   2.694   4.246   4.984 -0.8006 -2.1692  2.1409
  439MOL0     H59228   2.542   4.278   4.930 -0.7210 -2.0823  1.6711
  439MOL0     H59229   2.342   3.915   4.604 -1.1035 -1.5394  0.1851
  439MOL0     H59230   2.178   3.782   4.500  1.1150 -0.7663  0.6650
  439MOL0     H59231   1.910   3.907   4.185 -0.7947 -1.0135  1.7329
  439MOL0     H59232   2.057   3.859   4.090 -0.0987  0.7388  0.3459
  439MOL0     H59233   1.837   3.671   4.189 -1.6254  1.3485 -1.3683
  439MOL0     H59234   1.855   3.733   4.034 -0.1199 -2.2879 -0.3401
  439MOL0     H59235   2.067   3.550   4.165  2.0869 -0.7319 -1.2396
  439MOL0     H59236   2.079   3.632   3.999 -3.0089  0.2497 -2.6445
  439MOL0     H59237   1.885   3.412   4.095 -0.5740 -1.3028 -0.7414
  439MOL0     H59238   1.858   3.500   3.948  0.6724 -0.3188  0.4802
  439MOL0     H59239   2.052   3.429   3.841 -3.7769  0.6111 -0.8524
  439MOL0     H59240   1.964   3.285   3.898 -1.0575 -1.0816  1.7675
  439MOL0     H59241   2.212   3.262   3.944  1.7572  1.0054 -0.5710
  439MOL0     H59242   2.206   3.391   4.054 -1.6134  0.9724  1.5907
  439MOL0     H59243   2.012   3.154   4.085  0.6320 -0.6930 -1.7562
  439MOL0     H59244   2.077   3.243   4.220  1.3315 -1.2710  0.1616
  439MOL0     H59245   2.239   3.044   4.067 -0.0445  0.6768 -0.5514
  439MOL0     H59246   2.160   3.029   4.225  1.1909  0.8659  1.7256
  439MOL0     H59247   2.155   4.042   4.165 -1.0691  1.4123  0.3937
  439MOL0     H59248   2.332   4.180   4.258  1.4657 -2.4418 -2.5943
  439MOL0     H59249   2.635   4.268   4.427 -4.0082  1.5161  1.3144
  439MOL0     H59250   2.875   4.337   4.435  0.3147 -2.5888 -0.2739
  439MOL0     H59251   4.601   4.183   5.069 -0.5036 -1.0181  0.9525
  439MOL0     H59252   4.821   4.078   5.022 -0.7406 -1.3091 -1.9366
  439MOL0     H59253   5.186   4.173   4.716 -0.8191 -1.5215  1.2360
  439MOL0     H59254   5.421   4.116   4.633  2.9933  1.3570  0.0037
  439MOL0     H59255   5.714   4.281   4.824  0.2944 -0.2509 -2.7944
  439MOL0     H59256   5.748   4.146   4.933  0.2392 -0.0614 -0.0301
  439MOL0     H59257   5.945   4.220   4.793  2.2864 -1.7485 -2.1648
  439MOL0     H59258   5.852   4.153   4.653  0.8553 -3.6335 -1.0808
  439MOL0     H59259   5.865   3.937   4.718 -1.8973  1.0122  0.6205
  439MOL0     H59260   5.893   3.998   4.890 -0.8275  1.8816  0.6239
  439MOL0     H59261   6.107   4.090   4.752 -3.3810  0.8647  0.5030
  439MOL0     H59262   6.076   3.946   4.651 -1.7583  1.4213 -0.9513
  439MOL0     H59263   6.247   3.792   5.019 -0.7265 -3.6689 -2.1066
  439MOL0     H59264   5.551   4.099   5.036 -0.0070  2.5509 -0.3354
  439MOL0     H59265   5.333   4.142   5.125  0.7007  0.0009 -0.7222
  440MOL0     O59266   8.190   7.721   7.772 -0.0058 -0.3919 -0.7923
  440MOL0     C59267   8.268   7.686   7.693  0.2823  0.5964 -0.0272
  440MOL0     O59268   8.246   7.600   7.596  0.3293  0.6637 -0.1439
  440MOL0     C59269   8.128   7.528   7.601  0.3292  0.8380  0.1697
  440MOL0     C59270   8.039   7.533   7.496  0.6085  0.7172  0.2807
  440MOL0     C59271   7.915   7.462   7.504  0.1163  0.1321 -0.9982
  440MOL0     C59272   7.878   7.380   7.610 -0.4449 -0.2423  0.6914
  440MOL0     O59273   7.759   7.321   7.629 -0.0055  0.0314 -0.1404
  440MOL0     C59274   7.647   7.336   7.538  0.1911 -0.2377 -0.3176
  440MOL0     C59275   7.520   7.277   7.607  0.1208 -0.2194  0.2055
  440MOL0     C59276   7.405   7.256   7.503  1.0536  0.1964 -1.2376
  440MOL0     C59277   7.292   7.177   7.566  0.7648 -0.1575 -0.6389
  440MOL0     C59278   7.153   7.235   7.538  0.0032 -0.3934 -0.5285
  440MOL0     C59279   7.105   7.208   7.388 -0.1141 -0.5413  0.2025
  440MOL0     C59280   6.963   7.266   7.368  0.0245  0.4511  0.5640
  440MOL0     C59281   6.970   7.418   7.363  0.0274 -0.1008  0.0170
  440MOL0     N59282   6.838   7.474   7.320 -0.0898  0.2225 -0.6031
  440MOL0     C59283   6.721   7.468   7.392 -1.0029 -0.6449  0.4486
  440MOL0     C59284   6.627   7.497   7.300 -0.1278  0.6318 -0.2476
  440MOL0     C59285   6.485   7.517   7.321 -0.6592  0.2732 -0.0354
  440MOL0     C59286   6.408   7.390   7.356  0.0466  0.1747  0.2149
  440MOL0     C59287   6.264   7.422   7.400 -0.6103 -0.4864 -0.2237
  440MOL0     C59288   6.153   7.406   7.298 -0.3954  0.2992 -0.4378
  440MOL0     O59289   6.038   7.481   7.344  0.0361 -0.2863 -0.9808
  440MOL0     C59290   5.920   7.449   7.285 -0.2745  0.0025 -0.5292
  440MOL0     C59291   5.897   7.366   7.171  0.0886  0.4520  0.3361
  440MOL0     C59292   5.767   7.326   7.142  0.1378 -0.0380  0.0833
  440MOL0     C59293   5.763   7.230   7.024 -0.2734  0.4870  0.4783
  440MOL0     C59294   5.651   7.386   7.203 -0.7445  0.3120  0.7917
  440MOL0     C59295   5.514   7.361   7.158  0.7704 -0.0254 -0.5862
  440MOL0     O59296   5.497   7.247   7.085  0.0041  0.0980  0.1545
  440MOL0     C59297   5.372   7.220   7.039 -0.3549 -0.0412  0.1345
  440MOL0     C59298   5.254   7.227   7.119  0.7591  0.6950 -0.4282
  440MOL0     C59299   5.135   7.182   7.065 -0.1388  0.5722 -0.3797
  440MOL0     C59300   5.123   7.137   6.930  0.1036 -0.3126  0.3840
  440MOL0     O59301   5.002   7.102   6.873  0.0652 -0.8863  0.0039
  440MOL0     C59302   4.881   7.132   6.934 -0.1852 -0.8066  0.0827
  440MOL0     C59303   4.768   7.124   6.834 -0.2470 -0.1442  0.0954
  440MOL0     C59304   4.661   7.210   6.883  0.1891 -0.8292  0.2396
  440MOL0     C59305   4.561   7.215   6.775  0.1749 -0.5625  0.3250
  440MOL0     C59306   4.462   7.324   6.794 -0.2335 -1.4245  0.1762
  440MOL0     C59307   4.344   7.320   6.691 -0.0383  0.1346 -0.4747
  440MOL0     C59308   4.232   7.383   6.774  0.7292 -0.7080  0.2591
  440MOL0     C59309   4.107   7.405   6.679  0.4664 -0.1544 -0.0663
  440MOL0    Cl59310   4.040   7.248   6.617 -0.1301  0.1872  0.0008
  440MOL0     C59311   5.244   7.118   6.865  0.3221 -0.2141  0.1334
  440MOL0     C59312   5.368   7.155   6.915 -0.0510 -0.5147  0.5350
  440MOL0     O59313   5.427   7.441   7.187 -0.4505  0.4820  0.0373
  440MOL0     C59314   5.684   7.473   7.304  0.8856 -0.8685 -0.3375
  440MOL0     C59315   5.811   7.499   7.348  0.0012  1.4896  0.4697
  440MOL0     N59316   6.691   7.546   7.193 -0.3667  0.3365 -0.4507
  440MOL0     N59317   6.820   7.532   7.202  0.2094 -0.4476  0.3695
  440MOL0     C59318   7.973   7.374   7.716 -0.3933  0.3805  0.1961
  440MOL0     C59319   8.099   7.438   7.705  0.3101  0.0526  0.2469
  440MOL0     C59320   8.395   7.749   7.692  0.6572 -0.0358 -0.1362
  440MOL0     C59321   8.510   7.684   7.649 -0.2333  0.1715 -0.8407
  440MOL0     C59322   8.639   7.735   7.663  0.0839  0.0700  0.3354
  440MOL0     C59323   8.650   7.872   7.718  0.5197  0.2587  0.0996
  440MOL0     O59324   8.767   7.938   7.741 -0.0333 -0.9189 -0.5835
  440MOL0     C59325   8.888   7.892   7.676  0.2655  0.6856  0.0955
  440MOL0     C59326   8.972   8.011   7.646 -0.1259  0.0671  1.2232
  440MOL0     C59327   9.017   8.092   7.769 -0.1526 -0.2208 -0.2523
  440MOL0     C59328   9.082   8.219   7.725  0.2057  0.0414  0.1697
  440MOL0     C59329   9.204   8.249   7.803  0.0093 -0.1795  0.2893
  440MOL0     C59330   9.300   8.273   7.869 -0.1600  0.4337  0.5928
  440MOL0     C59331   8.532   7.941   7.752  0.4671 -0.2514  0.1268
  440MOL0     C59332   8.405   7.880   7.740 -0.6501  1.0121 -0.0341
  440MOL0     H59333   8.045   7.607   7.416  1.5887  0.3192 -0.0230
  440MOL0     H59334   7.847   7.476   7.421 -0.0299 -2.3218 -1.3560
  440MOL0     H59335   7.633   7.441   7.513 -2.2072  0.3250  2.7535
  440MOL0     H59336   7.666   7.277   7.447 -3.0819 -0.8293 -0.7506
  440MOL0     H59337   7.545   7.181   7.654 -0.2610  0.4656  1.9104
  440MOL0     H59338   7.471   7.342   7.681 -0.0786 -1.3483  1.0986
  440MOL0     H59339   7.370   7.357   7.476 -0.1110 -0.0823 -0.8379
  440MOL0     H59340   7.430   7.204   7.410  0.9327  1.6064 -2.0930
  440MOL0     H59341   7.303   7.071   7.545  1.2279 -0.2432 -0.0045
  440MOL0     H59342   7.307   7.192   7.673  1.7499  0.4070 -0.8419
  440MOL0     H59343   7.076   7.195   7.605  0.1967 -1.2077 -0.7752
  440MOL0     H59344   7.160   7.343   7.551 -1.4908 -0.3851  0.4741
  440MOL0     H59345   7.175   7.245   7.313  0.4603 -0.2416  0.8825
  440MOL0     H59346   7.111   7.099   7.393  1.5582 -0.4933 -0.2650
  440MOL0     H59347   6.925   7.227   7.272 -2.1988 -0.3959  1.7037
  440MOL0     H59348   6.902   7.225   7.449  0.6312  0.3655  0.9841
  440MOL0     H59349   7.050   7.445   7.294 -0.6300  0.7158 -0.4403
  440MOL0     H59350   6.992   7.460   7.462 -0.3074  0.9746 -0.3508
  440MOL0     H59351   6.708   7.441   7.496 -1.3385  1.8713  1.1224
  440MOL0     H59352   6.468   7.589   7.402  0.0331  2.8359 -2.0281
  440MOL0     H59353   6.447   7.569   7.233  1.0670 -1.3304 -1.8332
  440MOL0     H59354   6.456   7.337   7.439 -1.1403 -2.2990 -0.5892
  440MOL0     H59355   6.411   7.315   7.276  1.5463  0.4459 -0.0302
  440MOL0     H59356   6.253   7.522   7.443 -1.1049 -0.1542 -1.1077
  440MOL0     H59357   6.244   7.339   7.468  0.6109  0.0065  0.7753
  440MOL0     H59358   6.135   7.298   7.302  0.1089  0.0344 -3.2843
  440MOL0     H59359   6.173   7.434   7.194 -0.8035 -2.8047 -1.4483
  440MOL0     H59360   5.980   7.327   7.114 -1.7144 -2.9707 -0.1681
  440MOL0     H59361   5.865   7.228   6.985 -0.2520  3.8148  0.0100
  440MOL0     H59362   5.717   7.138   7.059  0.2312 -0.9679 -2.3452
  440MOL0     H59363   5.708   7.264   6.935  0.4398 -1.2224 -0.6631
  440MOL0     H59364   5.256   7.244   7.226  0.1674 -1.4557 -0.0444
  440MOL0     H59365   5.049   7.165   7.128  0.7516 -1.0372  0.4594
  440MOL0     H59366   4.872   7.059   7.015 -2.8567 -3.3066 -2.2002
  440MOL0     H59367   4.879   7.232   6.976  2.0501 -1.0048  0.7802
  440MOL0     H59368   4.804   7.171   6.742 -1.1653  2.0982  0.8174
  440MOL0     H59369   4.733   7.022   6.815 -0.2672  0.1113 -1.3150
  440MOL0     H59370   4.704   7.310   6.886  2.3793 -1.7278  0.6458
  440MOL0     H59371   4.626   7.171   6.979 -1.0182  1.0272  0.5945
  440MOL0     H59372   4.605   7.243   6.679  1.9918  0.8112  1.4974
  440MOL0     H59373   4.500   7.124   6.765 -0.1110 -0.4049  0.5828
  440MOL0     H59374   4.510   7.422   6.800 -0.0334 -1.6062  2.0287
  440MOL0     H59375   4.418   7.308   6.893 -0.6323 -1.4456  0.0002
  440MOL0     H59376   4.359   7.368   6.594 -0.7412 -0.6419 -0.9786
  440MOL0     H59377   4.313   7.217   6.675  0.3527  0.1491 -1.3623
  440MOL0     H59378   4.278   7.475   6.810  2.8685 -2.3935  2.1255
  440MOL0     H59379   4.185   7.323   6.853 -1.7140  0.1748 -0.4278
  440MOL0     H59380   4.130   7.468   6.593 -3.1991  1.0313 -0.3401
  440MOL0     H59381   4.027   7.444   6.743 -0.4140 -2.4812  0.3262
  440MOL0     H59382   5.229   7.097   6.759 -1.6790  1.3589  0.0308
  440MOL0     H59383   5.464   7.132   6.870 -0.8523 -1.2051 -0.8721
  440MOL0     H59384   5.607   7.533   7.350 -1.1179 -1.8332 -2.2749
  440MOL0     H59385   5.831   7.564   7.433  1.4118 -1.9432  3.0421
  440MOL0     H59386   7.959   7.336   7.816  1.8648 -1.0901  0.0211
  440MOL0     H59387   8.159   7.451   7.795  1.0137 -0.1287 -0.1870
  440MOL0     H59388   8.512   7.584   7.607  1.8541 -0.1481 -0.1062
  440MOL0     H59389   8.726   7.682   7.627  1.9958  3.0284  0.2527
  440MOL0     H59390   8.942   7.841   7.756 -0.1998  0.2756  0.1565
  440MOL0     H59391   8.875   7.829   7.587 -1.6173  1.5438 -0.2859
  440MOL0     H59392   8.912   8.070   7.577 -0.4343 -0.5329  0.9666
  440MOL0     H59393   9.057   7.958   7.602  0.9227  1.7125  1.1875
  440MOL0     H59394   9.089   8.040   7.833  3.0600  2.6758 -1.1873
  440MOL0     H59395   8.927   8.108   7.831 -0.2919 -0.5946 -0.3550
  440MOL0     H59396   9.003   8.293   7.739  0.2489  0.6771 -2.3282
  440MOL0     H59397   9.106   8.230   7.618  0.0510 -2.0104 -0.1190
  440MOL0     H59398   9.390   8.273   7.927 -0.6529 -0.0799  1.3741
  440MOL0     H59399   8.544   8.044   7.783  1.8007  0.0001 -1.1016
  440MOL0     H59400   8.311   7.935   7.750 -0.9736  0.8301 -1.8073
  441MOL0     O59401   5.900   5.414  10.371  0.4848  0.4848 -0.3515
  441MOL0     C59402   6.018   5.416  10.334 -0.4210 -0.8287  0.5445
  441MOL0     O59403   6.071   5.481  10.225 -0.0035 -0.0434 -0.1787
  441MOL0     C59404   5.990   5.547  10.142 -0.2572 -0.2920  0.1169
  441MOL0     C59405   5.893   5.639  10.185 -0.2195 -0.0738 -0.2045
  441MOL0     C59406   5.808   5.692  10.088  0.2212  0.6784 -0.3857
  441MOL0     C59407   5.828   5.669   9.953 -0.4560  0.2507  0.4922
  441MOL0     O59408   5.767   5.747   9.849 -0.3282 -0.3213 -0.3308
  441MOL0     C59409   5.810   5.882   9.860  0.0055  0.6445  0.1083
  441MOL0     C59410   5.696   5.968   9.814  0.1658 -0.6153  0.1544
  441MOL0     C59411   5.568   5.936   9.897 -0.7862  0.2696  0.1034
  441MOL0     C59412   5.453   6.026   9.860 -0.5234  0.0787 -0.0940
  441MOL0     C59413   5.333   5.995   9.935 -0.6692  0.0105  0.1288
  441MOL0     C59414   5.208   6.060   9.879 -0.1493 -0.1192 -0.1376
  441MOL0     C59415   5.088   6.039   9.974  0.4780  0.6301  0.5478
  441MOL0     C59416   4.954   6.066   9.903 -0.5318  1.2734  0.8471
  441MOL0     N59417   4.845   6.096   9.981 -0.0174 -0.0296 -0.6349
  441MOL0     C59418   4.775   6.014  10.067 -0.2779 -0.1324 -0.1223
  441MOL0     C59419   4.702   6.099  10.152  0.1237  0.7548 -0.1058
  441MOL0     C59420   4.626   6.066  10.279 -0.0773 -0.1009  0.0508
  441MOL0     C59421   4.714   6.104  10.401  0.4941 -0.3719  0.4869
  441MOL0     C59422   4.758   6.243  10.420 -0.5717  0.5088  0.0322
  441MOL0     C59423   4.645   6.345  10.453  0.0859 -0.1964  1.0300
  441MOL0     O59424   4.596   6.334  10.588  0.4716  1.0445  0.5866
  441MOL0     C59425   4.475   6.386  10.622 -0.1587  0.1989 -0.5596
  441MOL0     C59426   4.412   6.328  10.735  0.7991 -0.0492  0.1394
  441MOL0     C59427   4.297   6.385  10.792  1.0343 -0.2893 -0.4192
  441MOL0     C59428   4.247   6.305  10.914  1.2001  0.4094 -0.0583
  441MOL0     C59429   4.242   6.507  10.745 -0.2132  0.7262 -0.1845
  441MOL0     C59430   4.126   6.578  10.808  0.2408  0.2993  0.1709
  441MOL0     O59431   4.097   6.702  10.754  0.8671  0.0897 -0.0716
  441MOL0     C59432   4.012   6.794  10.822  0.3126  0.7260  0.2142
  441MOL0     C59433   4.005   6.805  10.965  0.3107  0.5460 -0.3591
  441MOL0     C59434   3.908   6.890  11.019 -0.5433  0.5045 -0.3503
  441MOL0     C59435   3.823   6.961  10.936  0.0212  0.1171  0.7034
  441MOL0     O59436   3.719   7.030  10.998 -0.9541  0.1653  0.4589
  441MOL0     C59437   3.588   7.024  10.940 -0.1580 -0.2129 -0.2524
  441MOL0     C59438   3.503   7.110  11.031 -0.2908  0.1669 -0.2652
  441MOL0     C59439   3.476   7.023  11.154  0.4353  0.5995 -1.4686
  441MOL0     C59440   3.382   7.084  11.262 -0.3403  0.1296 -0.3547
  441MOL0     C59441   3.373   7.006  11.390 -0.1340 -0.1582 -0.9317
  441MOL0     C59442   3.292   7.090  11.495 -0.2068  1.0077 -0.3708
  441MOL0     C59443   3.146   7.118  11.446 -0.1958  0.1588  1.2575
  441MOL0     C59444   3.044   7.100  11.555 -0.1991 -0.9612 -0.1276
  441MOL0    Cl59445   2.888   7.135  11.463  0.1310 -0.0505 -0.1405
  441MOL0     C59446   3.834   6.948  10.795 -0.3368  0.0458  0.0563
  441MOL0     C59447   3.936   6.875  10.737  0.2266  0.3013 -0.4530
  441MOL0     O59448   4.060   6.525  10.898 -0.6888 -0.6426  0.0400
  441MOL0     C59449   4.292   6.553  10.625 -0.5950 -0.1252 -0.2542
  441MOL0     C59450   4.412   6.502  10.574  0.3809 -0.4095 -0.0022
  441MOL0     N59451   4.727   6.224  10.105  0.4284 -0.1633  0.4812
  441MOL0     N59452   4.803   6.222  10.004 -0.1808  0.1757  0.2979
  441MOL0     C59453   5.914   5.574   9.912 -0.4585 -0.1163  0.7593
  441MOL0     C59454   5.999   5.515  10.004 -0.3940 -0.0050  0.1786
  441MOL0     C59455   6.117   5.335  10.406 -0.1488 -0.3818 -0.5931
  441MOL0     C59456   6.250   5.316  10.363 -0.5505  0.8669  0.3002
  441MOL0     C59457   6.328   5.225  10.431 -0.1179  0.5933  0.0375
  441MOL0     C59458   6.286   5.152  10.538  0.6517 -0.3766 -0.5033
  441MOL0     O59459   6.361   5.067  10.612 -0.3601 -0.5098  0.1343
  441MOL0     C59460   6.508   5.077  10.610  0.0592  0.2508  0.2383
  441MOL0     C59461   6.569   4.994  10.497  0.5494 -1.0000  0.3524
  441MOL0     C59462   6.728   5.000  10.510 -0.8035  0.1933  0.6381
  441MOL0     C59463   6.803   4.913  10.409 -0.2931  0.1142 -0.4107
  441MOL0     C59464   6.926   4.858  10.474  0.2583  0.4396  0.3039
  441MOL0     C59465   7.031   4.804  10.502  0.6139  0.4993 -0.2396
  441MOL0     C59466   6.159   5.173  10.591  0.5630 -0.1681  0.3213
  441MOL0     C59467   6.083   5.266  10.526  0.8881 -0.7622 -0.2985
  441MOL0     H59468   5.886   5.660  10.291  0.2179  3.6250 -0.8041
  441MOL0     H59469   5.733   5.762  10.122 -3.8023 -3.5282  0.3374
  441MOL0     H59470   5.841   5.920   9.957  0.0104  0.3970  0.2055
  441MOL0     H59471   5.891   5.901   9.789 -0.3999 -1.2551 -0.9372
  441MOL0     H59472   5.720   6.073   9.827 -1.7991  0.0690 -1.2181
  441MOL0     H59473   5.680   5.949   9.707 -1.1028  1.2416 -0.0346
  441MOL0     H59474   5.540   5.830   9.899  0.1771 -0.0303 -1.1686
  441MOL0     H59475   5.589   5.947  10.004 -1.2913 -4.0598  0.8530
  441MOL0     H59476   5.480   6.130   9.883 -1.7359  0.1199  1.3161
  441MOL0     H59477   5.445   6.006   9.753 -0.8242  0.2522 -0.1050
  441MOL0     H59478   5.310   5.888   9.936  3.5388 -1.0467  0.5791
  441MOL0     H59479   5.344   6.024  10.040 -1.2708  0.1859  0.1485
  441MOL0     H59480   5.221   6.168   9.868  1.1959 -0.4204 -1.7962
  441MOL0     H59481   5.193   6.020   9.779  0.9646  0.2006 -0.4498
  441MOL0     H59482   5.095   5.945  10.029  1.4028  1.0858  1.2224
  441MOL0     H59483   5.090   6.114  10.053 -3.5656  0.9650  0.5396
  441MOL0     H59484   4.930   5.974   9.848  1.8711  2.2717 -2.1758
  441MOL0     H59485   4.978   6.143   9.829  1.4245 -0.4861 -0.4864
  441MOL0     H59486   4.783   5.906  10.075 -0.5661 -0.0133  2.5672
  441MOL0     H59487   4.523   6.103  10.283  0.3514  1.5497 -2.0911
  441MOL0     H59488   4.609   5.959  10.289 -1.0384 -0.3251 -3.0714
  441MOL0     H59489   4.807   6.046  10.407  2.3693  2.2659 -1.0030
  441MOL0     H59490   4.655   6.076  10.488  1.3674  3.5017  2.5679
  441MOL0     H59491   4.817   6.278  10.335 -2.2147  0.4207 -1.2052
  441MOL0     H59492   4.820   6.224  10.508 -0.3040  0.2727 -0.2035
  441MOL0     H59493   4.569   6.322  10.378 -1.2737  0.8925  2.0310
  441MOL0     H59494   4.669   6.451  10.449  0.3820 -0.2596  1.0880
  441MOL0     H59495   4.464   6.241  10.773 -0.3764 -0.1639  1.5852
  441MOL0     H59496   4.259   6.371  11.000 -1.2154  1.4265 -0.4109
  441MOL0     H59497   4.139   6.286  10.910  1.4080 -0.9325  0.1355
  441MOL0     H59498   4.301   6.211  10.933  0.9903  0.3019  0.0154
  441MOL0     H59499   4.068   6.760  11.040  0.6585  0.6181 -0.6060
  441MOL0     H59500   3.898   6.886  11.127  1.4069  0.7354 -0.1263
  441MOL0     H59501   3.590   7.064  10.838 -1.5117  0.5427 -0.0128
  441MOL0     H59502   3.536   6.929  10.925  0.4150 -0.8477  1.5702
  441MOL0     H59503   3.550   7.204  11.061 -2.4846  1.2731 -0.1281
  441MOL0     H59504   3.408   7.133  10.982 -0.7378 -2.0174 -0.5362
  441MOL0     H59505   3.571   6.995  11.200  0.3949 -0.0575 -1.7799
  441MOL0     H59506   3.427   6.928  11.131  0.3918 -0.0777  1.0839
  441MOL0     H59507   3.427   7.177  11.296  1.1425 -0.5529 -0.3575
  441MOL0     H59508   3.283   7.110  11.225  0.8603  1.6277 -2.7665
  441MOL0     H59509   3.472   6.983  11.433  1.2590  2.4052 -2.5063
  441MOL0     H59510   3.313   6.915  11.384  0.9448 -1.0670  1.0776
  441MOL0     H59511   3.281   7.028  11.585 -2.3317 -1.0430 -1.9049
  441MOL0     H59512   3.351   7.178  11.521  0.5929  0.4286 -0.1720
  441MOL0     H59513   3.113   7.048  11.369  0.1681  1.1435  0.1685
  441MOL0     H59514   3.148   7.222  11.410 -2.4009  1.5424  4.5835
  441MOL0     H59515   3.059   7.162  11.644  0.9163 -0.0492 -0.9159
  441MOL0     H59516   3.045   7.001  11.601  0.6347  0.9955  4.6829
  441MOL0     H59517   3.769   6.998  10.724 -1.5689 -2.0049 -0.3465
  441MOL0     H59518   3.951   6.855  10.631 -1.2869  0.1253 -0.6572
  441MOL0     H59519   4.244   6.633  10.570 -0.2469  0.2136 -0.0692
  441MOL0     H59520   4.439   6.542  10.478 -1.9261 -1.0843 -0.9976
  441MOL0     H59521   5.924   5.539   9.809  0.8089  0.2208  0.7488
  441MOL0     H59522   6.058   5.433   9.964 -1.5747  0.3810 -2.5352
  441MOL0     H59523   6.290   5.374  10.280 -2.0575 -0.4393 -1.4383
  441MOL0     H59524   6.429   5.218  10.392  0.5797  3.6152  1.0068
  441MOL0     H59525   6.535   5.180  10.587  2.7457 -0.4502 -0.0353
  441MOL0     H59526   6.547   5.050  10.709  0.3414  0.6868  0.2463
  441MOL0     H59527   6.534   5.034  10.401 -0.1703 -0.1978  0.9355
  441MOL0     H59528   6.538   4.890  10.514 -1.0295 -0.3731  1.4491
  441MOL0     H59529   6.756   4.970  10.611 -0.3197 -1.4823  0.0450
  441MOL0     H59530   6.750   5.107  10.506 -1.7450  0.4792  2.1586
  441MOL0     H59531   6.819   4.980  10.323 -2.2733  1.4681  0.2019
  441MOL0     H59532   6.750   4.825  10.373  0.2709  0.7355 -3.0246
  441MOL0     H59533   7.117   4.755  10.541  0.1999 -1.4700 -1.6320
  441MOL0     H59534   6.141   5.119  10.683  1.5667  0.6954  1.0374
  441MOL0     H59535   5.987   5.285  10.575  1.3630 -0.0524  0.3842
  442MOL0     O59536   2.355   5.820   6.633  0.2028  0.7405 -0.4474
  442MOL0     C59537   2.443   5.843   6.550  0.2226 -0.5951  0.2868
  442MOL0     O59538   2.430   5.866   6.407 -0.5120 -0.4532  0.2989
  442MOL0     C59539   2.291   5.873   6.373 -0.7792 -0.7376  0.5249
  442MOL0     C59540   2.234   5.998   6.351  0.4444 -0.7673  0.6229
  442MOL0     C59541   2.105   6.010   6.301 -0.3448 -1.1158  0.0805
  442MOL0     C59542   2.032   5.898   6.271 -0.4171  0.9273 -0.1980
  442MOL0     O59543   1.908   5.918   6.210  0.0132 -0.2939  0.5084
  442MOL0     C59544   1.792   5.833   6.231 -0.1817  0.1639 -0.8511
  442MOL0     C59545   1.660   5.910   6.260  0.5810  0.4616  0.3070
  442MOL0     C59546   1.541   5.811   6.258 -0.0068 -0.6139  0.1744
  442MOL0     C59547   1.553   5.688   6.357  1.3939  0.6570 -0.2574
  442MOL0     C59548   1.442   5.585   6.334  0.3783  0.5661  0.3039
  442MOL0     C59549   1.466   5.456   6.422  0.2464 -0.1045  1.0266
  442MOL0     C59550   1.348   5.353   6.398 -0.4424 -0.1023  0.5910
  442MOL0     C59551   1.352   5.230   6.493  0.2741  0.2628 -0.3575
  442MOL0     N59552   1.328   5.257   6.640  0.7810 -0.4516 -0.2743
  442MOL0     C59553   1.221   5.218   6.714  0.4492  0.8033 -0.5074
  442MOL0     C59554   1.261   5.249   6.842 -0.0136  0.9652  0.4612
  442MOL0     C59555   1.180   5.220   6.958 -0.1185 -0.0423  0.4529
  442MOL0     C59556   1.179   5.068   6.982  0.0628 -0.3608  0.0816
  442MOL0     C59557   1.088   5.021   7.100  0.2320  0.3201 -0.0246
  442MOL0     C59558   1.138   5.057   7.239  0.0155  0.9956 -0.1910
  442MOL0     O59559   1.052   4.999   7.348 -0.2554  0.3352 -0.0843
  442MOL0     C59560   0.937   5.066   7.387 -0.9971 -0.8197 -0.2342
  442MOL0     C59561   0.866   5.020   7.491  0.3442 -0.2179 -1.1610
  442MOL0     C59562   0.737   5.079   7.526  0.0005 -0.0333  1.0544
  442MOL0     C59563   0.656   5.012   7.634 -0.5869  0.5205  0.2544
  442MOL0     C59564   0.682   5.191   7.448 -0.9008  0.4157 -0.8108
  442MOL0     C59565   0.547   5.254   7.461  0.5940  0.0063 -0.7928
  442MOL0     O59566   0.452   5.189   7.540  0.6066 -0.6495  0.1624
  442MOL0     C59567   0.321   5.240   7.543  0.3676  0.3756  0.1224
  442MOL0     C59568   0.211   5.156   7.506  0.2963 -0.7618 -0.6434
  442MOL0     C59569   0.087   5.196   7.547  0.3179 -0.6171 -0.0649
  442MOL0     C59570   0.061   5.323   7.604 -0.0153  0.4776 -0.6071
  442MOL0     O59571  -0.073   5.358   7.608  0.2005  0.2434 -0.6045
  442MOL0     C59572  -0.110   5.485   7.671 -0.3899 -0.9835 -0.4408
  442MOL0     C59573  -0.262   5.523   7.648  0.3131  0.5576  0.3749
  442MOL0     C59574  -0.352   5.411   7.710 -0.9586  0.4535 -0.7370
  442MOL0     C59575  -0.497   5.436   7.675 -0.5483 -0.0070 -0.4896
  442MOL0     C59576  -0.602   5.328   7.723  0.2529  0.0486  0.0430
  442MOL0     C59577  -0.718   5.414   7.770 -0.4619  0.2422 -0.2328
  442MOL0     C59578  -0.831   5.328   7.830  0.4861  0.0450  0.5937
  442MOL0     C59579  -0.872   5.200   7.742 -0.9780  0.1370 -0.0536
  442MOL0    Cl59580  -0.925   5.255   7.572 -0.4163 -0.0922 -0.2205
  442MOL0     C59581   0.169   5.407   7.633 -0.1543  0.3745 -1.0497
  442MOL0     C59582   0.301   5.364   7.609  0.1416  0.1553 -0.3931
  442MOL0     O59583   0.526   5.351   7.383  0.5527  0.2426 -0.2719
  442MOL0     C59584   0.766   5.237   7.353  0.7683  0.0312  0.7996
  442MOL0     C59585   0.879   5.171   7.316  0.1957  0.7884  0.6478
  442MOL0     N59586   1.388   5.302   6.838  1.3790  0.4301 -0.7017
  442MOL0     N59587   1.426   5.303   6.719 -0.7673 -0.2899 -0.7588
  442MOL0     C59588   2.087   5.771   6.298  1.3160 -0.5121 -0.6368
  442MOL0     C59589   2.213   5.757   6.353 -0.4342  0.1389  0.2959
  442MOL0     C59590   2.581   5.857   6.605  0.8679 -0.0872 -0.0301
  442MOL0     C59591   2.668   5.943   6.547 -0.5563 -0.5379 -0.2979
  442MOL0     C59592   2.798   5.953   6.599  0.2323 -0.2355  1.3923
  442MOL0     C59593   2.839   5.871   6.709  0.4388  0.5614 -0.3173
  442MOL0     O59594   2.968   5.887   6.755  0.4248  0.5596 -0.4831
  442MOL0     C59595   3.075   5.921   6.670  0.0652  0.5184  0.5845
  442MOL0     C59596   3.204   5.875   6.731  0.1732  0.8458 -0.2435
  442MOL0     C59597   3.249   5.964   6.848  0.7853 -0.3597  0.0351
  442MOL0     C59598   3.380   5.927   6.913 -0.1087  0.3546  0.5399
  442MOL0     C59599   3.502   5.969   6.845  0.4435 -0.2168  0.4244
  442MOL0     C59600   3.606   5.998   6.793  0.2614 -0.2602  0.8568
  442MOL0     C59601   2.745   5.783   6.772  0.6126  0.4028  0.1865
  442MOL0     C59602   2.615   5.779   6.714  0.2430  0.0501  0.5754
  442MOL0     H59603   2.288   6.092   6.358 -0.9227  0.6477 -4.1173
  442MOL0     H59604   2.064   6.109   6.286  0.2822 -0.7333  0.8081
  442MOL0     H59605   1.780   5.779   6.137  0.2824  0.7296 -1.2393
  442MOL0     H59606   1.814   5.760   6.310 -1.1145  0.4913 -0.2734
  442MOL0     H59607   1.670   5.947   6.363  3.8167 -0.6756  0.5269
  442MOL0     H59608   1.641   5.994   6.193  2.3931 -0.5814 -1.6397
  442MOL0     H59609   1.448   5.868   6.267 -0.4923 -1.5427  1.4007
  442MOL0     H59610   1.537   5.772   6.156 -0.0694  1.2517 -0.5812
  442MOL0     H59611   1.653   5.643   6.358  1.1029 -0.0298  1.1698
  442MOL0     H59612   1.543   5.725   6.459  0.9854  0.3443 -0.1816
  442MOL0     H59613   1.344   5.625   6.364  0.4289 -1.0241  2.8695
  442MOL0     H59614   1.431   5.565   6.227 -0.1487 -1.0214  0.6288
  442MOL0     H59615   1.561   5.409   6.394 -0.2024 -2.8646  3.5824
  442MOL0     H59616   1.462   5.487   6.527 -3.1851  0.7187  0.7503
  442MOL0     H59617   1.254   5.406   6.421 -1.2476 -0.0101 -2.5167
  442MOL0     H59618   1.346   5.322   6.293 -1.5846 -0.8198  0.8017
  442MOL0     H59619   1.444   5.174   6.475  0.1386 -0.6165  1.4901
  442MOL0     H59620   1.270   5.163   6.465  0.1495 -0.0506  0.7070
  442MOL0     H59621   1.131   5.164   6.685  1.4184 -1.4518  0.4511
  442MOL0     H59622   1.219   5.280   7.041 -2.0840  3.9163 -1.2384
  442MOL0     H59623   1.080   5.258   6.937  0.1756 -0.5804 -2.3202
  442MOL0     H59624   1.282   5.030   6.978  0.0669 -0.5504  1.4491
  442MOL0     H59625   1.138   5.025   6.890  1.1119  0.2167 -0.6808
  442MOL0     H59626   1.091   4.912   7.085  1.0817  0.6212 -2.4969
  442MOL0     H59627   0.983   5.046   7.085 -0.2977 -0.8578  1.4129
  442MOL0     H59628   1.139   5.165   7.252 -3.6515  1.1329  0.2333
  442MOL0     H59629   1.244   5.032   7.244 -0.3879 -1.2099 -1.2062
  442MOL0     H59630   0.894   4.933   7.548 -1.0765  0.2191  0.2952
  442MOL0     H59631   0.592   4.930   7.602  2.0976 -1.1937 -1.0997
  442MOL0     H59632   0.733   4.966   7.697 -2.6548 -2.2924  0.9168
  442MOL0     H59633   0.607   5.079   7.706 -0.7856  0.0488  0.5623
  442MOL0     H59634   0.223   5.056   7.465  1.6140 -1.1483  0.6313
  442MOL0     H59635   0.007   5.127   7.519  0.3039 -0.8739  0.5947
  442MOL0     H59636  -0.098   5.483   7.780  0.2294  1.1474 -0.4256
  442MOL0     H59637  -0.064   5.570   7.620 -1.2695  0.6591  1.3687
  442MOL0     H59638  -0.281   5.620   7.694 -1.4270 -0.4651  1.9534
  442MOL0     H59639  -0.292   5.528   7.544 -2.1706  0.1700  1.0158
  442MOL0     H59640  -0.340   5.411   7.819 -0.4349  0.2971 -0.7893
  442MOL0     H59641  -0.324   5.310   7.680 -0.1526 -0.5058  2.7573
  442MOL0     H59642  -0.512   5.530   7.729  0.1686 -0.4972  0.6230
  442MOL0     H59643  -0.506   5.440   7.566 -0.5410 -1.6474 -0.5816
  442MOL0     H59644  -0.551   5.267   7.798  0.6259 -3.6379 -2.8756
  442MOL0     H59645  -0.625   5.267   7.635  1.0844 -0.6809  0.3160
  442MOL0     H59646  -0.682   5.480   7.850  1.4950  0.4786 -1.2509
  442MOL0     H59647  -0.753   5.486   7.696  1.2480  1.6130  0.2288
  442MOL0     H59648  -0.924   5.385   7.845 -1.9055 -3.2286 -0.5507
  442MOL0     H59649  -0.816   5.296   7.934 -1.0999  3.2405  1.9514
  442MOL0     H59650  -0.942   5.135   7.795 -2.1238 -0.9585 -2.7319
  442MOL0     H59651  -0.790   5.129   7.733 -0.5827  0.6307 -0.3997
  442MOL0     H59652   0.152   5.502   7.684  1.6731  0.1061  0.1714
  442MOL0     H59653   0.383   5.430   7.634  0.2729  0.0374 -0.5093
  442MOL0     H59654   0.745   5.316   7.281  1.2328  1.0465  1.7567
  442MOL0     H59655   0.931   5.207   7.227  0.6976  1.2410  1.1189
  442MOL0     H59656   2.040   5.675   6.280  3.2986 -1.4957 -0.8959
  442MOL0     H59657   2.267   5.664   6.370 -0.5855 -0.2125 -1.0312
  442MOL0     H59658   2.641   5.997   6.457  1.1570 -0.1185 -0.5992
  442MOL0     H59659   2.874   6.017   6.555 -0.3444  0.2114  1.0329
  442MOL0     H59660   3.074   5.880   6.569 -1.0199 -1.4250  1.3219
  442MOL0     H59661   3.077   6.029   6.655  0.1217  0.3108 -1.0615
  442MOL0     H59662   3.278   5.864   6.652 -0.2195 -0.8093 -0.4147
  442MOL0     H59663   3.194   5.778   6.781 -1.2132  1.4391  0.7289
  442MOL0     H59664   3.171   5.956   6.925  2.7436  0.9236  2.3229
  442MOL0     H59665   3.245   6.069   6.817  0.3465 -0.0114  1.1799
  442MOL0     H59666   3.392   5.819   6.924  0.5813  0.5486  1.9934
  442MOL0     H59667   3.371   5.972   7.012 -0.9500  1.6026 -0.0751
  442MOL0     H59668   3.701   6.041   6.770  1.8347 -1.2216  4.7339
  442MOL0     H59669   2.773   5.739   6.866  0.6288  1.5537  0.7422
  442MOL0     H59670   2.537   5.729   6.771 -2.5853  0.0070 -2.9535
  443MOL0     O59671   5.472   0.481   0.240  0.1006 -0.0393  0.3462
  443MOL0     C59672   5.491   0.527   0.126  0.5706  1.0185 -0.1476
  443MOL0     O59673   5.395   0.507   0.025  0.1937 -0.1965  0.8319
  443MOL0     C59674   5.286   0.434   0.057 -1.3945 -0.3050 -1.0503
  443MOL0     C59675   5.270   0.325  -0.028 -0.0360 -0.4904  0.6209
  443MOL0     C59676   5.166   0.237  -0.003  1.0633 -0.0303 -0.3291
  443MOL0     C59677   5.073   0.261   0.097 -0.0678  1.0088 -0.3345
  443MOL0     O59678   4.965   0.171   0.101  0.0590 -0.2208 -0.3216
  443MOL0     C59679   4.835   0.230   0.097 -0.2639  0.5690 -0.1128
  443MOL0     C59680   4.741   0.107   0.120  0.0012 -0.3044  0.5422
  443MOL0     C59681   4.741   0.060   0.264  0.2014 -0.2373 -0.2857
  443MOL0     C59682   4.661   0.155   0.342  1.0417 -0.9336  0.4378
  443MOL0     C59683   4.636   0.109   0.488  0.0829 -0.4907  0.5090
  443MOL0     C59684   4.760   0.122   0.591  0.8200 -0.9771  0.9830
  443MOL0     C59685   4.716   0.080   0.730 -0.1354  0.3302  0.5305
  443MOL0     C59686   4.830   0.071   0.838  0.8788  0.4410  0.4282
  443MOL0     N59687   4.778   0.038   0.965  0.0021 -0.1891 -0.1383
  443MOL0     C59688   4.686  -0.057   1.006 -0.0159 -0.9155  0.0181
  443MOL0     C59689   4.659  -0.029   1.139  0.2379 -0.0332  0.0228
  443MOL0     C59690   4.556  -0.102   1.229  0.2727 -0.2820  0.3370
  443MOL0     C59691   4.410  -0.077   1.181  0.2311 -0.4150  0.3844
  443MOL0     C59692   4.308  -0.137   1.280 -0.4312 -0.9795  0.3640
  443MOL0     C59693   4.165  -0.169   1.228  0.3006  0.0141  0.3824
  443MOL0     O59694   4.064  -0.134   1.316  0.2822  0.1764  0.6258
  443MOL0     C59695   3.937  -0.179   1.300 -0.0754  0.5579  0.3293
  443MOL0     C59696   3.846  -0.144   1.401 -0.6418  0.0434  0.2042
  443MOL0     C59697   3.720  -0.195   1.406 -0.2606 -0.5692  0.0063
  443MOL0     C59698   3.635  -0.131   1.505  0.7202 -0.2075 -0.5883
  443MOL0     C59699   3.668  -0.281   1.302  0.5027 -0.9537  0.1871
  443MOL0     C59700   3.530  -0.319   1.286 -1.1062  1.6001  0.2180
  443MOL0     O59701   3.482  -0.328   1.163  0.2946 -0.3573  0.0388
  443MOL0     C59702   3.357  -0.371   1.122 -0.3740 -0.6071  0.5220
  443MOL0     C59703   3.289  -0.307   1.020  0.2792 -0.2499  0.0733
  443MOL0     C59704   3.155  -0.333   0.979  0.2519 -0.6790  0.1112
  443MOL0     C59705   3.095  -0.443   1.025  0.4061 -0.1497  0.1302
  443MOL0     O59706   2.967  -0.483   0.991 -0.2713 -0.4541 -0.1120
  443MOL0     C59707   2.864  -0.404   1.058 -1.3201  0.3023 -0.0054
  443MOL0     C59708   2.731  -0.439   0.998 -0.4915 -0.2007  0.3543
  443MOL0     C59709   2.700  -0.357   0.874  0.1729  0.2197 -0.9413
  443MOL0     C59710   2.580  -0.409   0.789 -0.3086  0.5598  0.3038
  443MOL0     C59711   2.452  -0.378   0.865  0.3567 -0.3554  0.5565
  443MOL0     C59712   2.338  -0.367   0.762  0.6052 -0.2952 -0.5480
  443MOL0     C59713   2.309  -0.511   0.697 -0.0321 -0.7259 -0.0770
  443MOL0     C59714   2.167  -0.527   0.651 -0.7258 -0.1187 -0.4652
  443MOL0    Cl59715   2.133  -0.412   0.523 -0.0732 -0.0669  0.4421
  443MOL0     C59716   3.170  -0.524   1.115 -0.3871 -0.2962 -0.6545
  443MOL0     C59717   3.296  -0.487   1.168 -0.2449  0.4308  0.3711
  443MOL0     O59718   3.475  -0.349   1.393 -0.8902  0.9708 -0.2807
  443MOL0     C59719   3.768  -0.316   1.207  0.3367  0.6465 -0.3590
  443MOL0     C59720   3.891  -0.261   1.202  0.7062 -0.8657  0.0790
  443MOL0     N59721   4.734   0.081   1.164  0.0928 -0.4532  0.4638
  443MOL0     N59722   4.802   0.124   1.059  0.1606  0.1007  0.5050
  443MOL0     C59723   5.092   0.370   0.178 -0.2856 -0.2880  0.0959
  443MOL0     C59724   5.189   0.461   0.150 -1.1168 -0.1438 -0.8518
  443MOL0     C59725   5.616   0.589   0.092 -0.3682 -0.1881  0.2633
  443MOL0     C59726   5.630   0.651  -0.036 -0.6416  0.7291 -0.9296
  443MOL0     C59727   5.758   0.690  -0.078  0.1233 -0.5149 -0.4707
  443MOL0     C59728   5.869   0.677   0.007  0.3746 -0.1673 -0.4686
  443MOL0     O59729   5.995   0.714  -0.043  0.2441  0.5512  0.4501
  443MOL0     C59730   6.117   0.687   0.038  0.0952  0.3971 -0.1373
  443MOL0     C59731   6.240   0.709  -0.042  0.1200  0.6606 -0.2226
  443MOL0     C59732   6.370   0.694   0.019 -0.0022  0.0402 -0.6256
  443MOL0     C59733   6.478   0.705  -0.085 -0.5451 -0.4990  0.5719
  443MOL0     C59734   6.620   0.677  -0.031  0.5360 -0.1656  0.2601
  443MOL0     C59735   6.741   0.662  -0.004 -0.0363  0.6221  0.1705
  443MOL0     C59736   5.853   0.634   0.136  0.0480 -0.2234 -0.0332
  443MOL0     C59737   5.727   0.590   0.180 -1.0484  0.0879 -0.2836
  443MOL0     H59738   5.343   0.310  -0.107 -1.0615 -0.1712 -0.4115
  443MOL0     H59739   5.153   0.153  -0.070  3.4224  1.4130 -2.8297
  443MOL0     H59740   4.815   0.312   0.167  0.7277 -0.7683  1.8094
  443MOL0     H59741   4.814   0.280   0.002 -0.6846  4.4199  1.8207
  443MOL0     H59742   4.642   0.145   0.091  1.2515  1.4686 -1.7577
  443MOL0     H59743   4.760   0.026   0.049 -1.5626 -2.2697  2.2495
  443MOL0     H59744   4.690  -0.036   0.267  0.1074 -0.2266 -1.1611
  443MOL0     H59745   4.837   0.047   0.314 -0.6865 -2.9763  0.9008
  443MOL0     H59746   4.715   0.248   0.361 -2.3086  0.8002  2.2787
  443MOL0     H59747   4.568   0.176   0.288  0.7996  0.4533  1.3591
  443MOL0     H59748   4.552   0.162   0.533  1.0257 -0.5962  2.5016
  443MOL0     H59749   4.608   0.003   0.483  2.1253 -1.1288  1.5592
  443MOL0     H59750   4.855   0.072   0.568  2.2752  1.8141  0.6056
  443MOL0     H59751   4.778   0.228   0.606 -1.8345 -0.2053 -0.7092
  443MOL0     H59752   4.644   0.156   0.763  0.2243  0.9014  0.0213
  443MOL0     H59753   4.651  -0.008   0.724 -0.9590  0.9277  0.5059
  443MOL0     H59754   4.904   0.151   0.835  1.8834 -0.4804 -1.3317
  443MOL0     H59755   4.902  -0.007   0.812  2.9105  2.3331  0.1568
  443MOL0     H59756   4.648  -0.137   0.943  0.1645 -0.2878 -0.8982
  443MOL0     H59757   4.567  -0.211   1.235  2.1726 -0.3284 -2.3364
  443MOL0     H59758   4.568  -0.067   1.332  2.9056 -1.0126  0.3498
  443MOL0     H59759   4.389  -0.116   1.081 -0.8679 -0.5151  0.6382
  443MOL0     H59760   4.400   0.031   1.176 -1.1920 -0.5595 -0.6153
  443MOL0     H59761   4.290  -0.064   1.359 -2.4072 -1.6663  0.5958
  443MOL0     H59762   4.352  -0.227   1.324  0.1650 -1.2705 -0.8004
  443MOL0     H59763   4.143  -0.275   1.211  1.1507 -0.4800  2.1412
  443MOL0     H59764   4.151  -0.113   1.135  2.9827  0.1700  0.0076
  443MOL0     H59765   3.874  -0.073   1.477 -2.0956 -0.2924  1.1100
  443MOL0     H59766   3.603  -0.202   1.582  0.0635  1.7940  1.0924
  443MOL0     H59767   3.690  -0.050   1.555  2.8228 -1.8521 -0.0845
  443MOL0     H59768   3.548  -0.093   1.451  0.0397  0.2508  0.7704
  443MOL0     H59769   3.324  -0.213   0.980 -2.2894  0.1085 -1.5896
  443MOL0     H59770   3.114  -0.281   0.893  1.9028 -1.1207 -0.9845
  443MOL0     H59771   2.873  -0.445   1.159 -2.3496  3.0746  1.3146
  443MOL0     H59772   2.895  -0.299   1.058 -2.3324  0.6147  0.1109
  443MOL0     H59773   2.734  -0.546   0.976  0.1037 -0.1378  0.0967
  443MOL0     H59774   2.654  -0.420   1.073 -1.5057  0.1261 -0.7404
  443MOL0     H59775   2.786  -0.379   0.810 -0.4784 -0.6378 -1.5431
  443MOL0     H59776   2.689  -0.248   0.884  1.4767  0.2833  0.0733
  443MOL0     H59777   2.585  -0.350   0.697 -1.7805  2.2484  1.2600
  443MOL0     H59778   2.593  -0.517   0.775  0.0301 -0.2143  4.8937
  443MOL0     H59779   2.473  -0.282   0.913 -0.9953 -0.7696  2.0676
  443MOL0     H59780   2.432  -0.449   0.946  2.4069  2.3519  3.6833
  443MOL0     H59781   2.251  -0.336   0.821 -0.4461 -1.4624 -1.4396
  443MOL0     H59782   2.356  -0.294   0.683  0.9681  2.6038  2.0184
  443MOL0     H59783   2.336  -0.595   0.761 -0.5435  1.6392  3.5021
  443MOL0     H59784   2.381  -0.512   0.614  2.0549  2.1710  1.5252
  443MOL0     H59785   2.108  -0.503   0.740  1.5666  0.0993  1.0874
  443MOL0     H59786   2.159  -0.632   0.620  0.9938  0.0156 -1.5220
  443MOL0     H59787   3.126  -0.617   1.148 -2.8221  0.8250 -0.4849
  443MOL0     H59788   3.362  -0.546   1.231  1.8381  1.6343 -0.5852
  443MOL0     H59789   3.741  -0.376   1.120 -0.9291 -2.2085  1.8472
  443MOL0     H59790   3.960  -0.285   1.122  3.7731 -2.9995  3.1005
  443MOL0     H59791   5.020   0.389   0.257 -0.5976 -2.2876  0.3460
  443MOL0     H59792   5.211   0.549   0.211  3.1774 -0.8499 -1.0541
  443MOL0     H59793   5.543   0.663  -0.100 -0.2602 -1.4360 -1.9513
  443MOL0     H59794   5.780   0.723  -0.179  1.8795  1.6039  0.5346
  443MOL0     H59795   6.111   0.764   0.115  1.4096  0.0102  0.3818
  443MOL0     H59796   6.107   0.585   0.077  1.0897  0.4989  0.4116
  443MOL0     H59797   6.244   0.804  -0.095 -0.7031  1.3122  0.8412
  443MOL0     H59798   6.245   0.627  -0.114  1.8529  0.6049 -0.0829
  443MOL0     H59799   6.378   0.601   0.075  1.6595  0.8886  0.6394
  443MOL0     H59800   6.376   0.779   0.087 -0.1534 -0.4402 -0.0105
  443MOL0     H59801   6.479   0.806  -0.126 -0.8877 -1.2754 -1.4582
  443MOL0     H59802   6.462   0.639  -0.171  0.4774  0.4105 -0.3489
  443MOL0     H59803   6.845   0.652   0.020  0.0962  0.3885 -0.4754
  443MOL0     H59804   5.929   0.619   0.212 -0.0523 -2.6351 -0.3275
  443MOL0     H59805   5.724   0.552   0.282 -0.6074  2.7087  0.7933
  444MOL0     O59806  11.009   4.868   0.435  0.1621 -0.7633 -0.0534
  444MOL0     C59807  11.126   4.867   0.470 -0.6751 -0.4546  0.5130
  444MOL0     O59808  11.184   4.959   0.557  0.8784  1.0987  0.0133
  444MOL0     C59809  11.106   5.026   0.650 -0.1118 -0.2808  0.0212
  444MOL0     C59810  11.142   5.158   0.689 -0.7710  0.5451 -0.7153
  444MOL0     C59811  11.064   5.234   0.780 -1.0095  0.0030  0.0217
  444MOL0     C59812  10.935   5.179   0.815 -0.4208  0.0784  0.0092
  444MOL0     O59813  10.844   5.248   0.891  0.2741 -0.0377  0.0867
  444MOL0     C59814  10.787   5.355   0.810 -0.4348 -0.7111 -0.1133
  444MOL0     C59815  10.654   5.407   0.881  0.5554  0.0171  0.2633
  444MOL0     C59816  10.561   5.282   0.908  0.4435  0.2677  0.4093
  444MOL0     C59817  10.419   5.332   0.945 -0.3737 -0.2224  0.3797
  444MOL0     C59818  10.326   5.218   1.002 -1.0520  0.6404 -0.4593
  444MOL0     C59819  10.209   5.267   1.086  0.2106 -0.3068  0.1596
  444MOL0     C59820  10.142   5.155   1.163 -0.7330  0.0522  0.4409
  444MOL0     C59821  10.031   5.199   1.271 -0.2821  0.6300 -0.0496
  444MOL0     N59822   9.892   5.223   1.214 -0.5616  0.4322  0.4216
  444MOL0     C59823   9.859   5.330   1.130  0.1933  0.6394 -0.1506
  444MOL0     C59824   9.728   5.312   1.097  1.1585  0.9562  0.1248
  444MOL0     C59825   9.649   5.383   0.991  0.0317 -0.1268  0.3182
  444MOL0     C59826   9.712   5.356   0.850 -0.0272 -0.1839  0.4477
  444MOL0     C59827   9.655   5.467   0.761  0.0850 -0.6236 -0.1060
  444MOL0     C59828   9.715   5.451   0.624 -0.2696  0.2172  0.2191
  444MOL0     O59829   9.670   5.547   0.530  0.2759 -0.5558  0.0406
  444MOL0     C59830   9.739   5.547   0.407 -0.0114 -0.4476 -0.6195
  444MOL0     C59831   9.669   5.608   0.299 -0.6129 -0.1294  0.4362
  444MOL0     C59832   9.723   5.609   0.166  0.0733 -0.1132 -1.2742
  444MOL0     C59833   9.635   5.667   0.064 -0.2773  0.1789 -0.7765
  444MOL0     C59834   9.849   5.546   0.143  0.1651 -0.1676 -0.1964
  444MOL0     C59835   9.911   5.529   0.011  1.3632 -0.3277  0.7747
  444MOL0     O59836   9.987   5.418  -0.019  0.3563 -0.6770 -0.1194
  444MOL0     C59837  10.064   5.425  -0.129 -0.1494 -1.7818  0.3478
  444MOL0     C59838  10.046   5.350  -0.249  0.3117  0.4518 -1.1571
  444MOL0     C59839  10.137   5.357  -0.355  0.6513 -0.1507  0.3614
  444MOL0     C59840  10.247   5.439  -0.357 -0.0289 -0.2819 -0.8440
  444MOL0     O59841  10.334   5.430  -0.462  1.3176  0.3673  0.1173
  444MOL0     C59842  10.444   5.525  -0.478 -0.1621 -0.0136 -0.1722
  444MOL0     C59843  10.544   5.491  -0.585 -0.2676  0.0009 -0.2053
  444MOL0     C59844  10.665   5.593  -0.597  0.3386 -0.8717  0.5587
  444MOL0     C59845  10.760   5.549  -0.708  0.0462  0.9684  0.2516
  444MOL0     C59846  10.891   5.627  -0.717 -0.2906 -0.9245  0.1428
  444MOL0     C59847  11.006   5.563  -0.795  0.6552 -0.1321 -0.1799
  444MOL0     C59848  11.129   5.647  -0.757 -0.1282 -0.4475  0.0219
  444MOL0     C59849  11.262   5.594  -0.809  0.2465 -1.0212  0.4405
  444MOL0    Cl59850  11.294   5.677  -0.962  0.1608  0.2645 -0.1421
  444MOL0     C59851  10.269   5.521  -0.237  0.0855  0.4396 -0.5010
  444MOL0     C59852  10.175   5.512  -0.127  0.5934  0.5491  0.1023
  444MOL0     O59853   9.902   5.633  -0.054  0.0132  0.6496 -0.2441
  444MOL0     C59854   9.924   5.499   0.249  0.7073  0.0447 -0.4358
  444MOL0     C59855   9.867   5.499   0.379  0.2133  0.2785  0.2792
  444MOL0     N59856   9.681   5.193   1.159 -0.3993  0.7296  0.1390
  444MOL0     N59857   9.776   5.140   1.231 -0.2964 -0.5086  0.2450
  444MOL0     C59858  10.901   5.050   0.789  0.0793  0.5336 -0.6485
  444MOL0     C59859  10.993   4.971   0.711 -0.3517  0.2758 -0.1617
  444MOL0     C59860  11.213   4.777   0.394 -0.1274 -0.1361  0.0001
  444MOL0     C59861  11.350   4.779   0.420 -0.3507  0.2470  1.6761
  444MOL0     C59862  11.430   4.705   0.339  0.9558 -1.0704  0.1813
  444MOL0     C59863  11.381   4.625   0.232 -0.1176 -0.2417  0.3205
  444MOL0     O59864  11.452   4.543   0.148 -0.2341  0.0661  1.2630
  444MOL0     C59865  11.590   4.550   0.142  0.1867  0.5139 -0.0807
  444MOL0     C59866  11.635   4.660   0.038  0.6134  0.1798  0.4233
  444MOL0     C59867  11.786   4.664   0.009 -0.1870  0.7151 -0.8475
  444MOL0     C59868  11.820   4.561  -0.102  0.0728  0.1794 -0.6447
  444MOL0     C59869  11.968   4.547  -0.116  0.3862  0.6787 -0.2211
  444MOL0     C59870  12.089   4.536  -0.114  0.7984  1.2138 -0.0842
  444MOL0     C59871  11.244   4.617   0.214 -0.1753 -0.7045 -0.2319
  444MOL0     C59872  11.159   4.690   0.293  0.6152 -0.6662  0.1998
  444MOL0     H59873  11.239   5.191   0.651 -0.4505  0.5721  0.1100
  444MOL0     H59874  11.088   5.334   0.813 -1.4103 -0.5224  2.0098
  444MOL0     H59875  10.849   5.445   0.807 -1.0726 -0.2877 -1.1089
  444MOL0     H59876  10.764   5.323   0.708  2.8633  0.3635 -1.3379
  444MOL0     H59877  10.684   5.457   0.974  1.3031  2.0898 -1.0152
  444MOL0     H59878  10.604   5.479   0.815  3.0613 -0.4692 -2.3882
  444MOL0     H59879  10.547   5.220   0.819 -1.0771 -0.7642  1.3153
  444MOL0     H59880  10.595   5.226   0.996 -0.5430  0.5745  0.9994
  444MOL0     H59881  10.427   5.405   1.025 -0.0979 -1.8775  1.9429
  444MOL0     H59882  10.372   5.376   0.857 -0.1791 -1.1694 -0.2250
  444MOL0     H59883  10.288   5.155   0.920  0.3750 -0.4635 -0.3068
  444MOL0     H59884  10.394   5.171   1.074 -0.5160 -3.5837 -3.3111
  444MOL0     H59885  10.251   5.350   1.144  1.2686 -1.4070  1.0125
  444MOL0     H59886  10.128   5.305   1.023 -1.3992 -0.0195  2.3115
  444MOL0     H59887  10.095   5.083   1.095  0.9312 -0.1347 -0.5692
  444MOL0     H59888  10.217   5.102   1.222 -1.7506  0.4033  2.1368
  444MOL0     H59889  10.065   5.289   1.324  1.7058 -1.7138  3.0036
  444MOL0     H59890  10.018   5.125   1.350 -0.2127  1.6378  0.9338
  444MOL0     H59891   9.926   5.407   1.093  0.8822  1.2498  2.1901
  444MOL0     H59892   9.543   5.359   0.994 -0.7581  2.8904 -0.1920
  444MOL0     H59893   9.655   5.488   1.021  0.1949 -0.4701  1.5474
  444MOL0     H59894   9.678   5.259   0.811 -0.9342  0.4958 -0.5018
  444MOL0     H59895   9.821   5.362   0.858  0.1317 -3.0563  1.6732
  444MOL0     H59896   9.688   5.563   0.802  2.8054 -0.1531 -2.9408
  444MOL0     H59897   9.547   5.478   0.752  0.1339  0.8324  0.8894
  444MOL0     H59898   9.688   5.352   0.585  0.7616 -0.2649  0.6699
  444MOL0     H59899   9.823   5.466   0.626 -0.2802  0.6530 -1.3074
  444MOL0     H59900   9.575   5.661   0.313 -0.5861  0.8724 -2.3863
  444MOL0     H59901   9.636   5.607  -0.028 -1.0684 -0.9962 -0.0435
  444MOL0     H59902   9.533   5.658   0.101 -0.1891 -0.2577 -0.6215
  444MOL0     H59903   9.668   5.766   0.032  0.5870 -0.3878 -1.7245
  444MOL0     H59904   9.955   5.296  -0.272  0.9992 -1.1104 -0.4044
  444MOL0     H59905  10.117   5.302  -0.447 -0.1814  0.4618  0.1639
  444MOL0     H59906  10.407   5.626  -0.499 -0.1591 -0.1376 -0.8001
  444MOL0     H59907  10.491   5.518  -0.379 -3.5193 -0.2803  1.5473
  444MOL0     H59908  10.580   5.388  -0.574 -1.5961 -0.4271  0.2739
  444MOL0     H59909  10.491   5.494  -0.681  0.9223 -1.0874 -0.9458
  444MOL0     H59910  10.719   5.587  -0.502 -1.4725  0.0279  1.6846
  444MOL0     H59911  10.631   5.696  -0.613  0.3937 -0.8941  0.3016
  444MOL0     H59912  10.778   5.447  -0.673 -4.0935  1.2135  3.9211
  444MOL0     H59913  10.711   5.537  -0.805 -1.3063 -0.2593  1.0446
  444MOL0     H59914  10.927   5.627  -0.613 -2.3708  1.4676  0.9872
  444MOL0     H59915  10.880   5.728  -0.759 -0.2524 -1.9317 -2.4603
  444MOL0     H59916  11.022   5.460  -0.760  2.5144 -0.0358 -0.6318
  444MOL0     H59917  10.990   5.573  -0.903 -3.1721 -1.9036  0.0683
  444MOL0     H59918  11.136   5.671  -0.650  0.4174 -0.2238 -0.0618
  444MOL0     H59919  11.112   5.745  -0.801 -0.4955  0.4287  1.9837
  444MOL0     H59920  11.262   5.486  -0.828 -1.3933 -0.9458 -0.1441
  444MOL0     H59921  11.346   5.624  -0.745 -0.3246 -0.8626  1.1199
  444MOL0     H59922  10.350   5.593  -0.228 -0.8988  1.4478  0.5516
  444MOL0     H59923  10.195   5.575  -0.041  0.4352  1.3088 -0.4029
  444MOL0     H59924  10.021   5.453   0.240  2.3696  2.3443  3.1549
  444MOL0     H59925   9.920   5.444   0.456  0.3599  1.8466  1.3402
  444MOL0     H59926  10.803   5.015   0.818  0.1116 -0.0281 -1.2056
  444MOL0     H59927  10.963   4.869   0.685  0.4424  0.2577 -1.0736
  444MOL0     H59928  11.397   4.838   0.498  1.0657  0.3969  0.7621
  444MOL0     H59929  11.534   4.726   0.364  0.3996  1.3586  0.7144
  444MOL0     H59930  11.632   4.572   0.241  0.5167  1.6348 -0.4617
  444MOL0     H59931  11.623   4.455   0.098  0.4129  0.8117 -0.5638
  444MOL0     H59932  11.608   4.761   0.073  3.0681  0.5549  1.4772
  444MOL0     H59933  11.587   4.634  -0.056  0.3524 -1.7029  1.0304
  444MOL0     H59934  11.843   4.625   0.094 -0.6761  1.0843 -0.3487
  444MOL0     H59935  11.826   4.764  -0.006  0.1009  0.4963 -1.6291
  444MOL0     H59936  11.762   4.579  -0.194  1.2764  0.0505 -1.4531
  444MOL0     H59937  11.793   4.462  -0.066  0.4532  0.6503  1.0162
  444MOL0     H59938  12.192   4.506  -0.125  0.3816  0.3382 -2.0203
  444MOL0     H59939  11.204   4.559   0.131 -2.2496  0.6304 -0.2432
  444MOL0     H59940  11.052   4.681   0.276  0.6515  1.5595 -1.7771
  445MOL0     O59941   6.135   3.019   9.011 -0.8773 -0.0905 -0.6913
  445MOL0     C59942   6.176   2.999   9.127 -0.3396 -0.2144 -0.0140
  445MOL0     O59943   6.147   3.068   9.240 -0.0559 -0.2782 -0.0190
  445MOL0     C59944   6.032   3.146   9.252 -0.6749 -0.2680  0.8192
  445MOL0     C59945   5.996   3.241   9.154  0.2598  0.0524  0.1235
  445MOL0     C59946   5.880   3.316   9.165  0.1325 -0.8605 -0.1236
  445MOL0     C59947   5.792   3.297   9.269  0.1985 -0.3549  0.2780
  445MOL0     O59948   5.672   3.370   9.260  0.0626 -0.0653 -0.1456
  445MOL0     C59949   5.573   3.335   9.356 -0.4998  0.1602 -0.5351
  445MOL0     C59950   5.450   3.419   9.334 -1.0708  0.3842 -0.3745
  445MOL0     C59951   5.333   3.356   9.395  0.4802  0.5882  0.4986
  445MOL0     C59952   5.220   3.453   9.400 -0.5015  0.1805 -1.0450
  445MOL0     C59953   5.092   3.392   9.455  0.4822  0.0650  0.6779
  445MOL0     C59954   4.977   3.498   9.456 -0.0172  0.1132  0.5307
  445MOL0     C59955   4.837   3.440   9.492  0.2607 -0.0330  0.5154
  445MOL0     C59956   4.741   3.547   9.554 -0.0761  0.3998 -0.5300
  445MOL0     N59957   4.600   3.501   9.586  0.1993 -0.1960 -0.1751
  445MOL0     C59958   4.517   3.420   9.506 -0.5802  0.2448 -0.3251
  445MOL0     C59959   4.409   3.397   9.588  0.5688  0.1657  0.5263
  445MOL0     C59960   4.281   3.323   9.544 -0.3154  0.0334 -0.4641
  445MOL0     C59961   4.153   3.376   9.622 -0.6342 -0.0976  0.4655
  445MOL0     C59962   4.024   3.317   9.567  0.3135 -0.1960 -0.0342
  445MOL0     C59963   3.909   3.368   9.639 -0.0740 -0.3522 -0.5517
  445MOL0     O59964   3.799   3.302   9.600 -0.2024  0.3118  0.4308
  445MOL0     C59965   3.711   3.351   9.506 -0.2158 -0.2192  0.0816
  445MOL0     C59966   3.594   3.283   9.473  0.2583  0.3184 -0.5361
  445MOL0     C59967   3.485   3.319   9.394 -0.6982  0.1451 -0.9863
  445MOL0     C59968   3.373   3.215   9.382 -0.5361  0.3873  0.1970
  445MOL0     C59969   3.498   3.442   9.328 -0.0218  0.2252  0.1629
  445MOL0     C59970   3.385   3.500   9.253 -0.2944  0.7799 -0.0223
  445MOL0     O59971   3.427   3.594   9.159 -0.2592  0.0086  0.1662
  445MOL0     C59972   3.333   3.664   9.090 -0.5040  0.1703  0.1287
  445MOL0     C59973   3.271   3.608   8.983 -0.1025  0.5335  0.7206
  445MOL0     C59974   3.174   3.680   8.915 -0.1778  0.1346 -0.2931
  445MOL0     C59975   3.139   3.808   8.951  0.1300  0.5254 -0.1233
  445MOL0     O59976   3.037   3.866   8.885  0.8175  0.1224  0.3816
  445MOL0     C59977   2.993   4.006   8.896 -0.8616 -0.2962 -0.2919
  445MOL0     C59978   2.872   4.036   8.812 -0.2315  0.7485 -0.3231
  445MOL0     C59979   2.733   4.007   8.869  0.1827 -0.6838 -0.5175
  445MOL0     C59980   2.614   4.068   8.784 -0.3493  0.5177 -0.4383
  445MOL0     C59981   2.486   4.025   8.851  0.0580  0.2748  0.9551
  445MOL0     C59982   2.375   4.062   8.752 -0.8032  0.4520  0.1514
  445MOL0     C59983   2.373   4.012   8.608 -0.1072 -0.0382 -0.6985
  445MOL0     C59984   2.241   4.033   8.533 -0.6968  0.3705 -0.7959
  445MOL0    Cl59985   2.204   4.210   8.549 -0.0482  0.1256 -0.3474
  445MOL0     C59986   3.195   3.863   9.069 -0.3033  0.0179  0.5669
  445MOL0     C59987   3.302   3.791   9.140 -0.1597  0.4688  0.7063
  445MOL0     O59988   3.264   3.475   9.268 -0.1230 -0.7205 -0.0944
  445MOL0     C59989   3.612   3.519   9.358 -0.1328  0.4521  0.0783
  445MOL0     C59990   3.721   3.465   9.429  0.1581  0.1776 -0.7117
  445MOL0     N59991   4.429   3.459   9.712 -0.1213  0.0915 -0.3160
  445MOL0     N59992   4.544   3.519   9.708  0.4052 -0.7516  0.7429
  445MOL0     C59993   5.821   3.190   9.363  0.4030 -0.2460  0.5409
  445MOL0     C59994   5.950   3.117   9.359  0.0671 -0.5709  0.3539
  445MOL0     C59995   6.269   2.886   9.142  0.2338  0.5527 -0.6714
  445MOL0     C59996   6.273   2.788   9.049 -0.4739 -0.0108  0.4571
  445MOL0     C59997   6.372   2.694   9.045 -0.8967  0.3719 -0.0086
  445MOL0     C59998   6.454   2.673   9.154  0.1292 -0.7387 -0.1125
  445MOL0     O59999   6.540   2.569   9.137  0.0694  0.8366 -0.0897
  445MOL0     C60000   6.634   2.540   9.245 -0.2014 -0.1451  0.6302
  445MOL0     C60001   6.738   2.443   9.179 -0.0802  0.0403  1.0281
  445MOL0     C60002   6.830   2.359   9.276  0.0058  0.4770  0.1335
  445MOL0     C60003   6.759   2.245   9.356  0.5406  0.4287 -0.8062
  445MOL0     C60004   6.858   2.166   9.428 -0.2920 -0.1899 -0.1243
  445MOL0     C60005   6.956   2.108   9.475 -0.0467 -0.8815  0.7301
  445MOL0     C60006   6.439   2.768   9.260  0.3272  0.2243  0.2135
  445MOL0     C60007   6.356   2.883   9.246  0.1262  0.4783 -0.0874
  445MOL0     H60008   6.064   3.256   9.072 -0.2892 -0.3636 -0.4198
  445MOL0     H60009   5.854   3.384   9.086  1.0055 -0.6868 -0.2703
  445MOL0     H60010   5.553   3.228   9.348 -0.9327  0.2979 -1.4734
  445MOL0     H60011   5.612   3.360   9.455  0.3335 -0.9388 -0.5676
  445MOL0     H60012   5.484   3.514   9.376  0.1259 -0.2225  0.0727
  445MOL0     H60013   5.443   3.428   9.225  0.2599  0.4982 -0.4639
  445MOL0     H60014   5.313   3.273   9.327  0.7148  1.6418 -0.8917
  445MOL0     H60015   5.337   3.315   9.497 -0.8221 -1.2878 -0.1600
  445MOL0     H60016   5.253   3.542   9.455 -3.4381  0.4880  0.4547
  445MOL0     H60017   5.196   3.482   9.297 -0.4743 -1.4332 -1.5330
  445MOL0     H60018   5.059   3.310   9.390  1.6468  2.7441 -3.7633
  445MOL0     H60019   5.114   3.358   9.556 -0.0582 -0.2717  0.6892
  445MOL0     H60020   4.996   3.577   9.529 -2.2539  0.2732  1.0253
  445MOL0     H60021   4.971   3.543   9.357 -0.8848 -0.2088  0.4225
  445MOL0     H60022   4.789   3.402   9.401  0.1558  0.7618  0.2303
  445MOL0     H60023   4.842   3.363   9.570  1.7633 -0.3390  0.1325
  445MOL0     H60024   4.736   3.636   9.491  1.7937  1.6567  0.9591
  445MOL0     H60025   4.788   3.581   9.647  1.5551  0.0139 -1.1916
  445MOL0     H60026   4.534   3.362   9.416  1.6264 -0.1271  0.2588
  445MOL0     H60027   4.272   3.338   9.436  2.7902  0.4732 -0.7405
  445MOL0     H60028   4.295   3.216   9.560  1.8080  0.4942  1.2477
  445MOL0     H60029   4.152   3.486   9.620  1.3860  0.0214  2.2794
  445MOL0     H60030   4.169   3.345   9.726  0.3232 -2.3474 -0.3108
  445MOL0     H60031   4.032   3.208   9.569 -0.8451 -0.2900 -0.2755
  445MOL0     H60032   4.004   3.359   9.468  2.0587 -0.3577 -0.4887
  445MOL0     H60033   3.901   3.477   9.629  1.0041 -0.3115 -1.2435
  445MOL0     H60034   3.913   3.336   9.743 -1.6837 -2.0341 -0.9566
  445MOL0     H60035   3.586   3.192   9.532 -0.6114  1.1486  0.6766
  445MOL0     H60036   3.295   3.246   9.312  0.5395  0.0209 -1.1949
  445MOL0     H60037   3.418   3.129   9.333  1.6517  2.8559 -2.5156
  445MOL0     H60038   3.336   3.181   9.479 -1.9876 -2.0523 -1.1181
  445MOL0     H60039   3.284   3.507   8.946  1.0638  0.3658  1.5003
  445MOL0     H60040   3.125   3.635   8.830 -0.5801 -3.3792  1.5941
  445MOL0     H60041   2.958   4.031   8.997  1.8471  1.8503  0.2357
  445MOL0     H60042   3.078   4.066   8.862  0.5354 -2.0612 -0.0693
  445MOL0     H60043   2.879   4.139   8.776  1.8190  1.4125  1.6694
  445MOL0     H60044   2.885   3.961   8.733 -0.2177  0.0496  0.3340
  445MOL0     H60045   2.736   4.058   8.965  0.3647 -3.4941  1.0912
  445MOL0     H60046   2.716   3.899   8.879 -3.0383 -0.3105 -0.9478
  445MOL0     H60047   2.613   4.177   8.775  4.1975  0.6903 -0.6796
  445MOL0     H60048   2.621   4.017   8.688 -1.4109 -0.3950 -0.0631
  445MOL0     H60049   2.469   4.069   8.950  0.0240  1.7184  0.3270
  445MOL0     H60050   2.484   3.918   8.872 -1.5955  0.3092  1.1056
  445MOL0     H60051   2.278   4.046   8.798 -2.0099 -2.0390 -2.8637
  445MOL0     H60052   2.385   4.171   8.744 -0.1465  0.3022 -1.6780
  445MOL0     H60053   2.396   3.906   8.594 -2.9563 -1.1625  1.9850
  445MOL0     H60054   2.455   4.058   8.553  0.1974  0.7864  0.4124
  445MOL0     H60055   2.156   3.977   8.574 -0.0300 -0.2100 -0.1871
  445MOL0     H60056   2.237   4.012   8.426 -0.5227 -0.0671 -0.7162
  445MOL0     H60057   3.172   3.967   9.092  2.3469  1.0396 -1.0431
  445MOL0     H60058   3.352   3.827   9.229  0.6428  0.8831  0.1071
  445MOL0     H60059   3.614   3.611   9.301 -2.9141  0.4270 -0.1789
  445MOL0     H60060   3.820   3.510   9.436  3.1592 -5.6984  2.3175
  445MOL0     H60061   5.752   3.157   9.440 -0.1664 -2.8756 -0.9597
  445MOL0     H60062   5.970   3.034   9.426  1.4485  1.8599  3.2367
  445MOL0     H60063   6.204   2.800   8.966 -0.0465  0.1983  0.1288
  445MOL0     H60064   6.372   2.616   8.969 -4.7012 -0.1956  0.3530
  445MOL0     H60065   6.684   2.627   9.288 -0.2383  0.2704 -0.1434
  445MOL0     H60066   6.581   2.485   9.323 -4.0214  0.3031 -1.3906
  445MOL0     H60067   6.801   2.498   9.109 -1.8465  0.0092 -0.6611
  445MOL0     H60068   6.680   2.372   9.120 -0.8049  2.1848 -0.9576
  445MOL0     H60069   6.877   2.430   9.346  0.9612 -0.7389  0.7697
  445MOL0     H60070   6.914   2.320   9.217 -1.0311  0.5848 -1.4621
  445MOL0     H60071   6.694   2.192   9.286  0.2910  1.2182 -1.1753
  445MOL0     H60072   6.692   2.280   9.435  2.4917  0.3448  0.9838
  445MOL0     H60073   7.043   2.064   9.520 -0.8798 -1.4956  1.7828
  445MOL0     H60074   6.506   2.751   9.344  1.4594 -2.3422 -1.1188
  445MOL0     H60075   6.358   2.960   9.323  1.4621  1.3795 -0.9808
  446MOL0     O60076   9.608   2.603   1.016 -0.1765 -0.0949 -0.2896
  446MOL0     C60077   9.616   2.550   1.128  0.4232 -0.1204  0.3093
  446MOL0     O60078   9.512   2.490   1.194 -0.2238  0.6802 -0.2418
  446MOL0     C60079   9.384   2.486   1.141  0.1984 -1.0437  0.2545
  446MOL0     C60080   9.291   2.466   1.245  0.9758 -0.2238  0.7252
  446MOL0     C60081   9.154   2.451   1.217  0.1461 -0.7411  0.6164
  446MOL0     C60082   9.113   2.456   1.089  0.3899 -0.3275  1.1025
  446MOL0     O60083   8.978   2.448   1.048  0.1046  0.4758  0.2995
  446MOL0     C60084   8.900   2.345   1.109  0.4534 -0.5327 -0.9614
  446MOL0     C60085   8.818   2.400   1.222 -0.7881 -0.0786 -0.6800
  446MOL0     C60086   8.701   2.304   1.247 -0.5668 -0.5377  0.3280
  446MOL0     C60087   8.598   2.364   1.337  0.3328  0.4357  0.0189
  446MOL0     C60088   8.481   2.269   1.368  0.0176 -0.2907 -0.7951
  446MOL0     C60089   8.408   2.322   1.491  0.1250 -0.5527 -0.1402
  446MOL0     C60090   8.268   2.259   1.498  0.7430 -0.1847 -1.3186
  446MOL0     C60091   8.179   2.310   1.615 -0.9357 -0.2765  0.8033
  446MOL0     N60092   8.044   2.294   1.576 -0.2546  0.2213  0.5268
  446MOL0     C60093   8.001   2.174   1.523  1.1894  0.2114  0.1276
  446MOL0     C60094   7.868   2.184   1.506  0.1891 -0.3280  0.2297
  446MOL0     C60095   7.777   2.081   1.439 -0.1236 -0.1310 -0.3608
  446MOL0     C60096   7.637   2.089   1.485  0.3531  0.4341 -0.3584
  446MOL0     C60097   7.557   1.956   1.459 -0.2744 -0.4218  0.4696
  446MOL0     C60098   7.406   1.970   1.468 -0.5988  0.7789 -0.7780
  446MOL0     O60099   7.356   1.835   1.439  0.1388 -0.2296 -0.8861
  446MOL0     C60100   7.225   1.821   1.454 -0.1545 -0.0435 -0.1806
  446MOL0     C60101   7.178   1.699   1.393  0.5336 -0.8778  0.6770
  446MOL0     C60102   7.042   1.656   1.407  0.1568 -0.3831  0.1127
  446MOL0     C60103   7.020   1.525   1.342 -0.1065  0.4430  0.1563
  446MOL0     C60104   6.945   1.736   1.475 -0.1430  1.2058  0.6335
  446MOL0     C60105   6.798   1.696   1.501 -0.4978 -0.6130 -1.1074
  446MOL0     O60106   6.745   1.580   1.450 -0.6976  1.0978 -0.2068
  446MOL0     C60107   6.616   1.540   1.490 -0.0168 -0.3233  0.1483
  446MOL0     C60108   6.596   1.411   1.531  0.0799  1.4384  0.1288
  446MOL0     C60109   6.465   1.370   1.576 -0.3856 -0.5732  1.2420
  446MOL0     C60110   6.354   1.450   1.570  0.1277  0.6251 -0.1697
  446MOL0     O60111   6.241   1.416   1.638 -0.9502 -0.3492 -0.5418
  446MOL0     C60112   6.124   1.479   1.600  1.1668  0.9723  0.4757
  446MOL0     C60113   5.993   1.420   1.653  0.4492 -0.3104  0.1136
  446MOL0     C60114   5.879   1.501   1.605 -0.3731 -0.0657 -0.1959
  446MOL0     C60115   5.743   1.461   1.649 -0.2651 -0.1030 -0.0772
  446MOL0     C60116   5.645   1.564   1.611 -0.4025  0.6722 -1.0710
  446MOL0     C60117   5.501   1.515   1.611  0.1208  0.5480  0.5668
  446MOL0     C60118   5.453   1.478   1.752 -0.0927  0.2017 -0.2297
  446MOL0     C60119   5.305   1.477   1.751  0.8991 -0.2039 -0.5734
  446MOL0    Cl60120   5.241   1.348   1.646  0.3693  0.1519 -0.0818
  446MOL0     C60121   6.375   1.571   1.520 -0.5029  0.5608  0.6683
  446MOL0     C60122   6.505   1.621   1.486  0.1273  0.1633 -0.9278
  446MOL0     O60123   6.747   1.779   1.575 -0.8645 -0.0574  0.8065
  446MOL0     C60124   6.996   1.861   1.524  0.3762 -0.2312  0.3911
  446MOL0     C60125   7.128   1.909   1.506 -0.5366  0.2171 -0.3912
  446MOL0     N60126   7.821   2.307   1.559  0.3453  0.1588  0.3114
  446MOL0     N60127   7.932   2.369   1.600  0.4212 -0.2744  0.4678
  446MOL0     C60128   9.202   2.474   0.981  0.2727 -0.0749  0.4497
  446MOL0     C60129   9.336   2.487   1.004  0.8487  0.1666 -0.2527
  446MOL0     C60130   9.755   2.535   1.184 -0.3377  0.6445 -0.0203
  446MOL0     C60131   9.792   2.426   1.273  0.1369  0.4021 -0.0007
  446MOL0     C60132   9.926   2.419   1.316  0.3000 -0.2590  0.4365
  446MOL0     C60133  10.021   2.509   1.276  0.7859  0.1161 -0.3559
  446MOL0     O60134  10.139   2.504   1.348 -0.5748 -0.4781 -1.2522
  446MOL0     C60135  10.190   2.636   1.391  0.6184  0.0057 -0.2455
  446MOL0     C60136  10.124   2.688   1.525 -0.1043  0.2089 -0.6337
  446MOL0     C60137  10.171   2.831   1.552  0.3567  0.2298 -1.0446
  446MOL0     C60138  10.154   2.856   1.702 -0.8960 -0.4973 -0.9247
  446MOL0     C60139  10.014   2.854   1.752 -0.7990 -0.8358 -0.0614
  446MOL0     C60140   9.899   2.882   1.796  0.6078  0.5462  0.2039
  446MOL0     C60141   9.990   2.603   1.183  0.7515  0.3326 -0.4294
  446MOL0     C60142   9.858   2.607   1.129 -0.0261 -0.4858  0.9821
  446MOL0     H60143   9.335   2.460   1.345  3.4333 -0.1959 -0.2837
  446MOL0     H60144   9.086   2.437   1.301  1.9392 -0.8846  2.1043
  446MOL0     H60145   8.831   2.307   1.032 -0.8175  0.5541 -0.4031
  446MOL0     H60146   8.956   2.257   1.142 -0.8213 -1.3420 -0.8897
  446MOL0     H60147   8.882   2.411   1.310 -0.8425  1.2755 -0.7944
  446MOL0     H60148   8.778   2.496   1.188  1.4157  0.9574 -0.5175
  446MOL0     H60149   8.652   2.285   1.151  0.9198 -0.7652 -0.4106
  446MOL0     H60150   8.744   2.212   1.287  0.1245 -1.9945 -3.4088
  446MOL0     H60151   8.646   2.399   1.429 -1.6728  0.4928  1.0973
  446MOL0     H60152   8.558   2.455   1.292  1.8201 -0.1717 -2.8282
  446MOL0     H60153   8.420   2.265   1.278 -0.2074 -2.9947 -0.5894
  446MOL0     H60154   8.520   2.167   1.369  1.2491  0.1478 -1.4652
  446MOL0     H60155   8.461   2.305   1.585 -1.2405 -0.0842  0.7281
  446MOL0     H60156   8.401   2.430   1.482 -0.5442 -0.5695  0.1327
  446MOL0     H60157   8.219   2.275   1.401  1.0578  1.4175 -1.2394
  446MOL0     H60158   8.290   2.153   1.516  0.4441  0.2865  2.6486
  446MOL0     H60159   8.195   2.417   1.632  1.9788  0.3595 -4.0988
  446MOL0     H60160   8.197   2.256   1.709  1.3412 -0.6949  0.1966
  446MOL0     H60161   8.061   2.086   1.500 -2.0813 -1.7261 -1.7050
  446MOL0     H60162   7.786   2.100   1.332  0.4121 -1.5458 -0.5895
  446MOL0     H60163   7.812   1.981   1.465  1.8043  1.0580  2.0217
  446MOL0     H60164   7.589   2.171   1.432  2.0281  0.8483 -1.2933
  446MOL0     H60165   7.629   2.119   1.590  0.4989 -1.2736  0.1721
  446MOL0     H60166   7.597   1.882   1.528  0.3010  0.8754  1.5811
  446MOL0     H60167   7.573   1.924   1.355 -2.6324  0.1732 -0.1290
  446MOL0     H60168   7.375   2.043   1.393  0.7272 -0.2027 -2.3460
  446MOL0     H60169   7.377   2.010   1.566 -1.2813 -0.6940 -0.3530
  446MOL0     H60170   7.252   1.652   1.330 -1.6338  0.5286 -3.2464
  446MOL0     H60171   6.986   1.547   1.240 -1.8267 -4.6327 -0.6238
  446MOL0     H60172   7.111   1.467   1.324  0.9698  1.8906  0.6994
  446MOL0     H60173   6.949   1.466   1.399  0.6295  0.9874  1.7005
  446MOL0     H60174   6.674   1.337   1.541 -0.0462  1.5308  2.0989
  446MOL0     H60175   6.464   1.270   1.617 -0.3629 -1.1493 -0.0996
  446MOL0     H60176   6.125   1.579   1.643  0.0974 -0.1437  3.3852
  446MOL0     H60177   6.123   1.468   1.491  0.5128 -1.9389  0.6865
  446MOL0     H60178   5.986   1.312   1.637  0.7276 -0.3168  0.0345
  446MOL0     H60179   5.987   1.418   1.763  1.1549 -3.4776  0.1839
  446MOL0     H60180   5.870   1.492   1.496 -1.4790 -0.5261 -0.0726
  446MOL0     H60181   5.897   1.606   1.630 -1.1331  0.2501 -0.9181
  446MOL0     H60182   5.725   1.372   1.588  0.9688 -1.6215  1.6533
  446MOL0     H60183   5.738   1.426   1.752  1.6540 -0.9387 -0.2184
  446MOL0     H60184   5.673   1.615   1.518  2.2405  2.2333  0.4711
  446MOL0     H60185   5.655   1.647   1.682 -4.0160  1.4393 -1.2190
  446MOL0     H60186   5.446   1.601   1.573  1.8447  1.2885 -0.3699
  446MOL0     H60187   5.491   1.437   1.536 -0.8584  1.0872  0.1207
  446MOL0     H60188   5.491   1.554   1.822 -2.5911  0.0760  1.3724
  446MOL0     H60189   5.478   1.377   1.784 -0.7381  0.1543  0.1435
  446MOL0     H60190   5.272   1.575   1.713 -0.5189 -0.2511  0.4546
  446MOL0     H60191   5.259   1.471   1.850  2.7926 -3.3177  0.2377
  446MOL0     H60192   6.295   1.644   1.514  0.9958  2.3318  1.3537
  446MOL0     H60193   6.517   1.725   1.457  2.6261  0.9260  2.2582
  446MOL0     H60194   6.936   1.925   1.586 -2.0466 -2.6758  0.7489
  446MOL0     H60195   7.148   2.010   1.542 -0.6440  0.5282 -1.1866
  446MOL0     H60196   9.161   2.475   0.880  0.6251 -1.1601  0.2816
  446MOL0     H60197   9.395   2.495   0.913  2.0565 -0.3037  0.4700
  446MOL0     H60198   9.719   2.352   1.304  1.8330 -0.7572  1.4073
  446MOL0     H60199   9.971   2.357   1.393  1.0996 -0.6889 -0.3608
  446MOL0     H60200  10.296   2.621   1.411  0.2705 -3.2866 -0.4377
  446MOL0     H60201  10.185   2.718   1.318  0.5953  0.7682  0.5872
  446MOL0     H60202  10.154   2.628   1.611 -1.8883  3.2574  2.3357
  446MOL0     H60203  10.016   2.681   1.516 -0.4411  0.9566  1.9743
  446MOL0     H60204  10.116   2.909   1.497 -1.5072 -1.8916 -2.3693
  446MOL0     H60205  10.279   2.836   1.542  0.6643  0.3024  1.5991
  446MOL0     H60206  10.198   2.955   1.716 -1.1731 -0.5487  0.4988
  446MOL0     H60207  10.207   2.785   1.766  0.2346  0.3146 -0.9356
  446MOL0     H60208   9.800   2.897   1.834  1.0908  1.1284  1.2691
  446MOL0     H60209  10.054   2.672   1.129  1.0159 -0.7178 -1.4883
  446MOL0     H60210   9.844   2.676   1.047  2.4192 -0.9083  0.1416
  447MOL0     O60211   5.362   9.155   9.076  0.5505  1.0516 -0.6183
  447MOL0     C60212   5.435   9.096   8.989  0.1439 -0.1891 -0.2435
  447MOL0     O60213   5.382   9.061   8.870  0.1250 -0.2535  0.1418
  447MOL0     C60214   5.250   9.041   8.846  0.0868  0.0643  1.1382
  447MOL0     C60215   5.213   9.037   8.711  0.0058 -0.0078 -0.7834
  447MOL0     C60216   5.090   9.017   8.671  0.9690  0.3168 -0.7306
  447MOL0     C60217   4.986   9.001   8.759  0.6617  0.3148 -0.2719
  447MOL0     O60218   4.863   8.975   8.709  0.4006  0.4479 -0.7927
  447MOL0     C60219   4.754   8.945   8.797  0.2256 -0.0192  0.2481
  447MOL0     C60220   4.696   9.067   8.862 -0.3259  0.9586 -0.7899
  447MOL0     C60221   4.569   9.035   8.941 -0.3983  0.5449 -0.7777
  447MOL0     C60222   4.454   9.011   8.840 -0.3136 -0.1493 -0.5727
  447MOL0     C60223   4.313   9.031   8.894  0.2686 -0.2177 -0.6198
  447MOL0     C60224   4.274   8.951   9.022  0.9089  0.8658 -0.3497
  447MOL0     C60225   4.119   8.974   9.049  0.2291  0.1753  0.1469
  447MOL0     C60226   4.018   8.937   8.936  0.8302 -0.2894 -0.2645
  447MOL0     N60227   3.873   8.939   8.974 -0.5840  0.8240 -0.3896
  447MOL0     C60228   3.799   8.833   9.016  0.7940 -0.0192  0.2644
  447MOL0     C60229   3.682   8.883   9.074 -0.4257  1.2067 -0.0626
  447MOL0     C60230   3.558   8.820   9.131 -0.1894 -0.0233 -0.7745
  447MOL0     C60231   3.428   8.878   9.078 -0.5401 -0.4975 -0.7725
  447MOL0     C60232   3.391   8.854   8.924 -0.3601  0.1429 -0.4957
  447MOL0     C60233   3.353   8.704   8.906  0.2723  0.3539 -0.3522
  447MOL0     O60234   3.327   8.674   8.768 -0.8401  0.5262 -0.3699
  447MOL0     C60235   3.212   8.724   8.707  0.2484 -0.7409 -0.5021
  447MOL0     C60236   3.192   8.704   8.564  0.5477  0.1597  0.4101
  447MOL0     C60237   3.069   8.728   8.508 -0.1296  0.6743 -0.4121
  447MOL0     C60238   3.055   8.698   8.361  0.6320 -0.1940  0.1128
  447MOL0     C60239   2.962   8.780   8.580  0.6656  0.3259  1.0663
  447MOL0     C60240   2.829   8.816   8.518  0.3093  0.0770  0.3278
  447MOL0     O60241   2.780   8.722   8.431 -0.0240 -0.0445 -0.2399
  447MOL0     C60242   2.664   8.736   8.359  0.1175  0.7726  0.2891
  447MOL0     C60243   2.599   8.853   8.319 -0.0073 -0.5629  0.3648
  447MOL0     C60244   2.473   8.847   8.257 -0.1581 -0.4202  0.4691
  447MOL0     C60245   2.402   8.738   8.223 -0.0205 -0.5916 -0.0378
  447MOL0     O60246   2.291   8.758   8.148 -0.2842  0.0478 -0.7441
  447MOL0     C60247   2.175   8.674   8.164  0.4867  1.1554  0.5469
  447MOL0     C60248   2.053   8.771   8.145  0.6276  0.3295 -0.2645
  447MOL0     C60249   1.930   8.717   8.228 -0.8665  0.1305 -0.5411
  447MOL0     C60250   1.952   8.727   8.380  1.3395 -0.3331 -0.7746
  447MOL0     C60251   1.817   8.752   8.455 -0.1252 -0.2722 -0.4472
  447MOL0     C60252   1.728   8.635   8.429  0.2895  0.5697  0.2618
  447MOL0     C60253   1.611   8.653   8.531  0.3975  0.0652  0.3662
  447MOL0     C60254   1.517   8.528   8.529 -0.1930  0.0271 -0.2626
  447MOL0    Cl60255   1.366   8.574   8.602  0.2505  0.3981  0.0319
  447MOL0     C60256   2.459   8.619   8.275  0.5627  0.1570  0.1284
  447MOL0     C60257   2.591   8.619   8.331  0.7602  0.4494  0.0940
  447MOL0     O60258   2.787   8.928   8.543 -0.1256  0.1992  0.8502
  447MOL0     C60259   2.983   8.808   8.714 -0.2495  0.1159 -0.6306
  447MOL0     C60260   3.102   8.775   8.777  0.2988  0.5882 -1.2113
  447MOL0     N60261   3.695   9.017   9.053 -0.0174 -0.5435 -0.3984
  447MOL0     N60262   3.800   9.052   8.994  0.2245 -0.0897  0.0532
  447MOL0     C60263   5.018   8.992   8.897 -0.2536 -0.0694  0.5937
  447MOL0     C60264   5.158   9.012   8.937  0.8763  0.2549  0.3666
  447MOL0     C60265   5.577   9.068   9.013 -0.9762  0.7843  0.4887
  447MOL0     C60266   5.635   9.106   9.136  0.3588  0.0709  0.2577
  447MOL0     C60267   5.771   9.074   9.162  1.3177 -0.2211  0.9009
  447MOL0     C60268   5.849   9.015   9.061  0.4730  0.5474  0.3330
  447MOL0     O60269   5.981   8.992   9.101 -0.1039 -0.0406 -0.0512
  447MOL0     C60270   6.075   8.900   9.045 -1.0324  0.0210  0.4463
  447MOL0     C60271   6.201   8.907   9.123 -0.2619 -0.1970  0.1539
  447MOL0     C60272   6.313   8.800   9.092 -0.2222  0.3544  0.3436
  447MOL0     C60273   6.451   8.854   9.150 -0.3424  0.5546  0.4717
  447MOL0     C60274   6.549   8.754   9.198  0.1019 -0.1394 -0.5308
  447MOL0     C60275   6.634   8.677   9.240  0.0086 -0.8373 -1.4806
  447MOL0     C60276   5.802   8.984   8.932 -0.3064  0.0950 -0.3752
  447MOL0     C60277   5.662   9.007   8.913 -0.1355  0.1198  0.2301
  447MOL0     H60278   5.295   9.048   8.641  1.4146 -2.1107  0.4244
  447MOL0     H60279   5.072   9.000   8.565 -0.5008  1.1429 -0.6392
  447MOL0     H60280   4.677   8.899   8.734  0.5149 -0.5864  0.3010
  447MOL0     H60281   4.786   8.875   8.875  4.0346 -1.3590 -2.2338
  447MOL0     H60282   4.769   9.096   8.939  0.2520  0.0801 -0.9882
  447MOL0     H60283   4.663   9.148   8.797 -1.7339 -0.2708 -1.6472
  447MOL0     H60284   4.582   8.944   9.000 -4.3782  1.2735  1.6452
  447MOL0     H60285   4.547   9.119   9.008  1.5934  1.7542 -1.5747
  447MOL0     H60286   4.466   9.068   8.747 -1.6912 -4.4376 -3.7068
  447MOL0     H60287   4.462   8.903   8.821 -1.9611 -0.6858  1.4423
  447MOL0     H60288   4.298   9.136   8.923  3.0121  0.0606  0.1054
  447MOL0     H60289   4.242   9.007   8.814 -0.2365  0.9351 -0.5412
  447MOL0     H60290   4.284   8.844   9.002  2.1081  0.4130  2.2332
  447MOL0     H60291   4.339   8.974   9.108  0.4313 -0.3309  0.3500
  447MOL0     H60292   4.099   8.916   9.140  0.7419 -0.7821 -0.3309
  447MOL0     H60293   4.113   9.080   9.074  2.2416  0.2180  0.6275
  447MOL0     H60294   4.042   8.840   8.891 -0.0524 -1.0123  0.7829
  447MOL0     H60295   4.025   9.015   8.859  3.1740  0.4799  0.6404
  447MOL0     H60296   3.837   8.731   9.020 -0.8393 -0.6333  1.4068
  447MOL0     H60297   3.567   8.715   9.102 -0.4829  0.4211 -2.5528
  447MOL0     H60298   3.562   8.828   9.240  0.5673  0.7070 -0.8475
  447MOL0     H60299   3.420   8.985   9.102 -0.1262 -0.8170  0.8830
  447MOL0     H60300   3.352   8.825   9.137 -0.9984 -1.7633 -2.4325
  447MOL0     H60301   3.483   8.870   8.867 -1.1578  0.3003 -1.7539
  447MOL0     H60302   3.318   8.922   8.881 -0.5141 -1.8399 -3.6578
  447MOL0     H60303   3.273   8.678   8.976  0.2915  0.0470 -0.4436
  447MOL0     H60304   3.433   8.637   8.939 -0.6819 -0.6757 -0.0638
  447MOL0     H60305   3.275   8.658   8.510 -0.5050 -3.3206  1.4975
  447MOL0     H60306   3.016   8.787   8.312 -2.6084 -2.0366 -0.9546
  447MOL0     H60307   3.152   8.671   8.317  2.4600  3.2126  1.6872
  447MOL0     H60308   2.987   8.615   8.341 -1.2279  0.7619  2.1398
  447MOL0     H60309   2.634   8.949   8.356 -1.2597  0.4182 -0.8717
  447MOL0     H60310   2.450   8.952   8.242  3.7633  0.9098  2.4139
  447MOL0     H60311   2.172   8.598   8.084  0.9711 -2.0622  3.3553
  447MOL0     H60312   2.172   8.624   8.261  3.5960  0.4577  0.3882
  447MOL0     H60313   2.086   8.872   8.171 -0.3533  0.0094  2.5782
  447MOL0     H60314   2.026   8.768   8.039 -0.0899 -0.1327 -0.0828
  447MOL0     H60315   1.907   8.612   8.212  0.1856  0.1149 -2.1475
  447MOL0     H60316   1.845   8.777   8.194 -1.5139 -0.5513 -0.1469
  447MOL0     H60317   1.987   8.630   8.417 -3.0987 -1.8643 -0.0423
  447MOL0     H60318   2.027   8.803   8.404  0.7264  0.3594 -1.0014
  447MOL0     H60319   1.776   8.848   8.421  2.4390  1.0809  0.0769
  447MOL0     H60320   1.850   8.769   8.558 -1.8371  1.2999 -0.1045
  447MOL0     H60321   1.670   8.652   8.338  1.6723  3.5373 -0.1986
  447MOL0     H60322   1.768   8.534   8.416 -2.5763 -0.7266  0.7081
  447MOL0     H60323   1.555   8.745   8.515  0.2670 -0.1698 -0.5610
  447MOL0     H60324   1.650   8.655   8.634 -1.1619  0.0117  0.9786
  447MOL0     H60325   1.561   8.443   8.582 -4.9860 -2.0535  0.8680
  447MOL0     H60326   1.499   8.501   8.425  0.7859 -0.0972 -0.4093
  447MOL0     H60327   2.400   8.528   8.263 -1.5729  1.3576  0.9634
  447MOL0     H60328   2.644   8.526   8.347 -1.8109 -0.9418  1.1066
  447MOL0     H60329   2.901   8.849   8.772 -0.4325 -1.2587  0.1232
  447MOL0     H60330   3.111   8.785   8.885 -1.6004  0.7089 -1.0288
  447MOL0     H60331   4.944   8.982   8.975 -0.8259  0.7089  0.1629
  447MOL0     H60332   5.179   8.998   9.042 -1.0940  0.0101  0.7568
  447MOL0     H60333   5.573   9.161   9.205 -0.1484  1.9068 -1.5749
  447MOL0     H60334   5.799   9.091   9.266 -2.6926  2.9199  1.7410
  447MOL0     H60335   6.044   8.795   9.043  2.8661 -1.4049  2.9354
  447MOL0     H60336   6.098   8.931   8.943  0.6905 -1.8035  0.2189
  447MOL0     H60337   6.171   8.903   9.228  0.6751  0.6054  0.4722
  447MOL0     H60338   6.235   9.009   9.104 -1.9992  0.2585 -0.6764
  447MOL0     H60339   6.314   8.781   8.984  0.1336  0.5705  0.3084
  447MOL0     H60340   6.294   8.711   9.153  2.2275 -2.8094 -3.0448
  447MOL0     H60341   6.428   8.925   9.230  0.1847 -0.8788  1.9666
  447MOL0     H60342   6.508   8.901   9.069  0.1668  0.2068  0.6206
  447MOL0     H60343   6.711   8.617   9.284  0.7572 -0.6926 -2.5511
  447MOL0     H60344   5.853   8.937   8.848 -2.1993 -3.0668  0.1064
  447MOL0     H60345   5.616   8.993   8.816 -1.8395  0.7241  0.9094
  448MOL0     O60346   8.530   2.428   0.311 -0.7799 -0.8187 -0.2334
  448MOL0     C60347   8.569   2.307   0.315 -0.0622 -0.2878  0.6313
  448MOL0     O60348   8.486   2.200   0.324  0.4727  0.1930  0.4808
  448MOL0     C60349   8.349   2.233   0.321  0.1959 -0.6941 -0.0903
  448MOL0     C60350   8.265   2.195   0.219 -0.4391 -0.4326  0.2940
  448MOL0     C60351   8.139   2.242   0.212  0.2081 -0.2218 -0.5728
  448MOL0     C60352   8.080   2.313   0.312  0.1717  0.1658 -0.1881
  448MOL0     O60353   7.948   2.347   0.281 -0.4514  0.0428  0.8510
  448MOL0     C60354   7.912   2.477   0.325 -0.2241 -0.2735 -0.5233
  448MOL0     C60355   7.760   2.497   0.318 -0.8235 -0.4801  0.3814
  448MOL0     C60356   7.724   2.637   0.374 -0.5640  0.3401  0.6565
  448MOL0     C60357   7.599   2.632   0.466 -0.5230  0.3417  0.2445
  448MOL0     C60358   7.566   2.768   0.526 -0.0868 -0.1708 -0.1808
  448MOL0     C60359   7.456   2.772   0.626  0.2858  1.1440  1.2322
  448MOL0     C60360   7.430   2.909   0.695 -0.7030 -0.7100 -0.1434
  448MOL0     C60361   7.274   2.927   0.715  0.4916  0.4185  0.3423
  448MOL0     N60362   7.192   2.829   0.793 -0.2893 -0.1978  0.1381
  448MOL0     C60363   7.202   2.769   0.914 -0.2861  0.2321 -0.2641
  448MOL0     C60364   7.093   2.690   0.925 -0.2101 -0.4941  0.9426
  448MOL0     C60365   7.063   2.599   1.042 -0.4107 -0.6045  0.5167
  448MOL0     C60366   6.981   2.662   1.150 -0.7610 -0.6452  0.2692
  448MOL0     C60367   7.065   2.766   1.225 -0.9607  0.1434  0.1954
  448MOL0     C60368   6.988   2.817   1.348  0.8171 -0.8609 -0.6296
  448MOL0     O60369   6.879   2.906   1.304 -0.4641 -0.2591 -0.4582
  448MOL0     C60370   6.760   2.915   1.368 -0.6276 -0.8079 -0.8451
  448MOL0     C60371   6.733   2.886   1.501 -0.6332 -0.6713 -0.6132
  448MOL0     C60372   6.601   2.907   1.554  0.6939 -0.4891 -0.0053
  448MOL0     C60373   6.585   2.872   1.696  0.2696 -0.8582  0.1897
  448MOL0     C60374   6.500   2.968   1.473  0.8907 -0.0634  0.2258
  448MOL0     C60375   6.371   3.013   1.528  1.5291 -1.4160  0.0334
  448MOL0     O60376   6.264   2.992   1.439 -0.2790  0.1495 -0.8497
  448MOL0     C60377   6.129   3.008   1.479 -0.8866  0.5380  0.0441
  448MOL0     C60378   6.077   3.082   1.589 -0.0270  0.1574  0.0862
  448MOL0     C60379   5.936   3.075   1.608 -0.1153 -0.1811  0.0030
  448MOL0     C60380   5.848   3.010   1.524  0.4040  0.1881  0.1125
  448MOL0     O60381   5.710   3.021   1.561  0.4393  0.2453  0.2132
  448MOL0     C60382   5.638   2.903   1.520 -0.1872  0.2137  0.5345
  448MOL0     C60383   5.546   2.938   1.407 -0.2435  0.9775 -0.1403
  448MOL0     C60384   5.421   2.837   1.396 -0.2302  0.1083  0.0888
  448MOL0     C60385   5.334   2.887   1.283 -0.0038  0.4396 -0.2379
  448MOL0     C60386   5.215   2.784   1.259 -0.4974 -0.3361 -0.2440
  448MOL0     C60387   5.093   2.808   1.351 -0.4701 -0.7296 -0.0669
  448MOL0     C60388   4.989   2.709   1.298 -0.3451  0.2000  0.4087
  448MOL0     C60389   4.893   2.679   1.412  0.2252  0.0990  0.5724
  448MOL0    Cl60390   4.750   2.589   1.356  0.0131 -0.1666  0.3698
  448MOL0     C60391   5.910   2.956   1.402  0.2986 -0.3294 -1.1122
  448MOL0     C60392   6.047   2.950   1.386 -1.1342 -0.0569 -0.3906
  448MOL0     O60393   6.364   3.052   1.645 -0.1498  0.3476 -1.3821
  448MOL0     C60394   6.541   3.002   1.343 -0.1992 -0.1833 -0.0840
  448MOL0     C60395   6.663   2.970   1.290 -0.4401 -0.3363 -0.1637
  448MOL0     N60396   7.031   2.699   0.803 -0.3373  0.2965 -0.5242
  448MOL0     N60397   7.089   2.785   0.727  0.4084  0.0449 -0.0768
  448MOL0     C60398   8.153   2.342   0.425 -0.0967 -0.3715 -0.1173
  448MOL0     C60399   8.288   2.301   0.430  0.9434  0.2887 -0.0783
  448MOL0     C60400   8.705   2.285   0.290 -0.4538  0.6785 -0.3185
  448MOL0     C60401   8.775   2.362   0.198  0.2188 -0.0330  0.5870
  448MOL0     C60402   8.901   2.322   0.165  0.2848 -0.2587 -0.0301
  448MOL0     C60403   8.959   2.202   0.204 -0.6797 -0.4117  0.5668
  448MOL0     O60404   9.088   2.156   0.179 -0.4855 -0.1446 -0.3312
  448MOL0     C60405   9.194   2.248   0.152  0.5036  0.2321  0.0596
  448MOL0     C60406   9.331   2.178   0.125 -0.3222  0.0657  0.4015
  448MOL0     C60407   9.356   2.058   0.212 -0.2617  0.2217  0.8354
  448MOL0     C60408   9.501   2.016   0.200  0.8235 -0.1549 -0.4646
  448MOL0     C60409   9.577   2.062   0.322  0.4636  0.0472 -0.1130
  448MOL0     C60410   9.627   2.096   0.430  0.4297  0.6974  1.3801
  448MOL0     C60411   8.886   2.130   0.300 -0.7492  0.3392  0.5659
  448MOL0     C60412   8.761   2.169   0.348 -0.5566  0.0971 -0.2541
  448MOL0     H60413   8.308   2.124   0.150  2.4871  1.1477  0.3252
  448MOL0     H60414   8.076   2.208   0.130  0.1860  1.0962 -1.1354
  448MOL0     H60415   7.936   2.484   0.431 -2.5117  0.7847 -0.0154
  448MOL0     H60416   7.972   2.551   0.270  3.6340 -2.3802  0.5253
  448MOL0     H60417   7.731   2.489   0.213 -0.4410  1.3468  0.0895
  448MOL0     H60418   7.712   2.419   0.377 -0.4734 -0.6882  0.3910
  448MOL0     H60419   7.813   2.671   0.428  0.0160 -1.2928  0.7984
  448MOL0     H60420   7.704   2.704   0.290 -0.5806 -0.8893 -0.3413
  448MOL0     H60421   7.509   2.597   0.414  0.6084  1.1008 -2.3839
  448MOL0     H60422   7.628   2.569   0.550  0.4667  0.1584 -0.2161
  448MOL0     H60423   7.658   2.812   0.565 -1.7756  1.3094  2.3270
  448MOL0     H60424   7.531   2.840   0.451  0.3032  1.3479  1.0602
  448MOL0     H60425   7.366   2.729   0.581 -0.9076  1.4597  3.1768
  448MOL0     H60426   7.494   2.707   0.706  1.9516 -0.3838 -0.6997
  448MOL0     H60427   7.476   2.929   0.792  0.7714  0.4385 -1.0595
  448MOL0     H60428   7.473   2.987   0.633  3.6890 -2.1971  0.6864
  448MOL0     H60429   7.239   2.933   0.611  1.1041 -1.2544  0.0155
  448MOL0     H60430   7.254   3.025   0.760  1.7006  0.6694  0.3540
  448MOL0     H60431   7.289   2.768   0.980  1.2521  2.1110 -2.1350
  448MOL0     H60432   7.015   2.511   0.999 -1.0350  0.3986 -0.9542
  448MOL0     H60433   7.161   2.571   1.083  0.6840 -0.2272 -1.6573
  448MOL0     H60434   6.941   2.591   1.222 -4.4998  1.5107  0.5616
  448MOL0     H60435   6.887   2.704   1.115 -1.8531 -0.7986  2.8303
  448MOL0     H60436   7.094   2.856   1.170  1.3484 -0.1003  0.8963
  448MOL0     H60437   7.163   2.731   1.259 -0.4625  1.6638  0.4364
  448MOL0     H60438   7.059   2.874   1.408 -1.4966  0.7154  0.7883
  448MOL0     H60439   6.959   2.730   1.407  2.9484  1.0385  3.6088
  448MOL0     H60440   6.803   2.839   1.570 -0.3192  1.2861  0.4679
  448MOL0     H60441   6.660   2.798   1.724  0.1316 -1.6918 -1.4826
  448MOL0     H60442   6.595   2.958   1.763  0.3224 -1.7961  1.4225
  448MOL0     H60443   6.484   2.831   1.704  0.2935 -0.8282  0.6344
  448MOL0     H60444   6.138   3.146   1.653 -0.5620 -1.8998  2.8202
  448MOL0     H60445   5.887   3.140   1.679 -3.5531  0.3573 -2.6075
  448MOL0     H60446   5.706   2.825   1.485  0.8186 -0.8415  4.3763
  448MOL0     H60447   5.579   2.862   1.602 -1.6682 -1.2201 -1.1384
  448MOL0     H60448   5.504   3.038   1.413  2.2438  2.0332  0.8274
  448MOL0     H60449   5.604   2.929   1.315 -1.8627  1.2817 -1.2302
  448MOL0     H60450   5.356   2.825   1.483 -1.5518  0.3967 -0.8316
  448MOL0     H60451   5.449   2.739   1.357 -3.4712 -0.3487 -1.4308
  448MOL0     H60452   5.298   2.988   1.304  2.5604  1.6167 -1.1489
  448MOL0     H60453   5.394   2.895   1.192 -0.4422 -1.5676 -0.7464
  448MOL0     H60454   5.261   2.686   1.277  1.1311  0.9054  3.4355
  448MOL0     H60455   5.191   2.805   1.155 -0.2058  0.7460 -0.1000
  448MOL0     H60456   5.125   2.795   1.455  0.3063 -1.0955 -0.3440
  448MOL0     H60457   5.071   2.911   1.324 -0.5699 -0.6478  0.3165
  448MOL0     H60458   5.030   2.612   1.268 -0.2397  0.2065  0.5293
  448MOL0     H60459   4.935   2.760   1.218 -1.0821 -2.2283 -0.7027
  448MOL0     H60460   4.856   2.773   1.453 -1.9169 -0.3970 -0.1228
  448MOL0     H60461   4.949   2.617   1.484  1.3951 -2.4512 -2.2997
  448MOL0     H60462   5.844   2.923   1.322 -1.6587 -0.2782  0.3874
  448MOL0     H60463   6.081   2.922   1.287  0.4393  1.8422 -0.4313
  448MOL0     H60464   6.476   3.062   1.281 -1.5361 -3.5698 -2.2673
  448MOL0     H60465   6.687   2.997   1.187 -1.5953 -1.0228 -0.6293
  448MOL0     H60466   8.105   2.395   0.507  1.2098 -0.2980  0.6400
  448MOL0     H60467   8.356   2.327   0.510 -1.3145  0.1844  1.9917
  448MOL0     H60468   8.739   2.447   0.140 -2.5195 -0.6950  1.1552
  448MOL0     H60469   8.965   2.387   0.105  0.1381  2.0009  2.1050
  448MOL0     H60470   9.170   2.308   0.064 -0.0606 -0.1426 -0.0474
  448MOL0     H60471   9.210   2.305   0.244 -2.0992  0.6522  0.3229
  448MOL0     H60472   9.411   2.253   0.129 -0.8345  0.8564 -2.1761
  448MOL0     H60473   9.335   2.145   0.021 -1.2516  2.2657 -0.4012
  448MOL0     H60474   9.283   1.978   0.198 -0.0814  0.2346 -0.2809
  448MOL0     H60475   9.333   2.085   0.316  1.3282  2.2776  0.7310
  448MOL0     H60476   9.538   2.057   0.106  0.7287  0.9520 -0.0348
  448MOL0     H60477   9.509   1.909   0.179  1.2539  0.5348 -4.5132
  448MOL0     H60478   9.666   2.132   0.523  3.1182  0.0944  0.5892
  448MOL0     H60479   8.932   2.034   0.321 -2.6976 -0.6670  0.4298
  448MOL0     H60480   8.704   2.117   0.424  0.0624 -0.2187  0.0004
  449MOL0     O60481   1.937   9.925   0.241 -0.5126  0.1971 -0.1659
  449MOL0     C60482   1.995  10.017   0.191  0.2311  0.5714  0.1053
  449MOL0     O60483   1.951  10.095   0.087 -0.6388 -0.1656  0.6312
  449MOL0     C60484   1.829  10.076   0.027 -0.7867 -0.3918 -0.2684
  449MOL0     C60485   1.716  10.040   0.097  0.7252  0.5197 -0.0693
  449MOL0     C60486   1.602  10.027   0.019 -0.7517  1.5332  0.1973
  449MOL0     C60487   1.592  10.026  -0.123 -0.3378  0.1699  0.2012
  449MOL0     O60488   1.472   9.998  -0.187 -0.3801 -0.5795 -0.0491
  449MOL0     C60489   1.479   9.995  -0.329 -0.4282 -0.2581  0.5436
  449MOL0     C60490   1.339   9.989  -0.383 -0.4571 -0.3499 -0.8836
  449MOL0     C60491   1.332  10.024  -0.528  0.1796  0.3611  0.4102
  449MOL0     C60492   1.203   9.982  -0.599 -0.0807  0.6472 -0.9364
  449MOL0     C60493   1.075  10.044  -0.542  0.2523 -0.2770  0.0356
  449MOL0     C60494   0.955   9.993  -0.627 -0.1479  0.2350 -0.4141
  449MOL0     C60495   0.833  10.073  -0.608  0.1804 -0.2186  0.4578
  449MOL0     C60496   0.736  10.009  -0.504  0.0277  0.2959 -0.0219
  449MOL0     N60497   0.663  10.120  -0.435 -0.7165  0.2122  0.3825
  449MOL0     C60498   0.554  10.183  -0.493 -1.2610  0.5388  1.1315
  449MOL0     C60499   0.497  10.256  -0.391  0.0126 -0.0829 -0.4427
  449MOL0     C60500   0.387  10.357  -0.418 -0.1701  0.6135 -0.0439
  449MOL0     C60501   0.273  10.308  -0.507 -0.3628 -0.1590 -0.5945
  449MOL0     C60502   0.175  10.415  -0.513 -0.0828  0.1251 -0.6619
  449MOL0     C60503   0.049  10.350  -0.573 -0.0305 -0.6019  0.4814
  449MOL0     O60504  -0.066  10.434  -0.553  0.5287 -0.3050  0.4532
  449MOL0     C60505  -0.183  10.384  -0.601 -0.5240 -0.2012 -0.1344
  449MOL0     C60506  -0.299  10.456  -0.588  0.1338 -0.3923 -0.9085
  449MOL0     C60507  -0.427  10.424  -0.642 -0.8211  0.3600  0.2201
  449MOL0     C60508  -0.541  10.521  -0.634 -0.5056  0.2541 -0.4127
  449MOL0     C60509  -0.438  10.292  -0.696  0.0670  0.1861 -0.3991
  449MOL0     C60510  -0.572  10.232  -0.736 -0.9885  0.7457 -0.7535
  449MOL0     O60511  -0.578  10.091  -0.729 -0.1434  0.1564 -0.7754
  449MOL0     C60512  -0.683  10.032  -0.790 -0.2577  0.2428 -0.4248
  449MOL0     C60513  -0.689  10.003  -0.927  0.4681 -0.0715 -0.0146
  449MOL0     C60514  -0.810   9.941  -0.979 -0.2686 -1.0822 -0.2818
  449MOL0     C60515  -0.910   9.898  -0.894 -0.5003 -0.9064  0.1311
  449MOL0     O60516  -1.022   9.823  -0.933 -0.1986  0.6000  0.2101
  449MOL0     C60517  -1.071   9.826  -1.073  0.0175  0.1462 -1.0098
  449MOL0     C60518  -1.210   9.777  -1.082 -0.1014  0.5336 -0.2784
  449MOL0     C60519  -1.258   9.760  -1.228 -1.1526 -0.5974 -0.4376
  449MOL0     C60520  -1.406   9.757  -1.234 -0.3323 -1.2139  0.1997
  449MOL0     C60521  -1.459   9.615  -1.216 -0.4527  0.1849  0.7913
  449MOL0     C60522  -1.615   9.605  -1.237  0.2167 -0.1018  0.4496
  449MOL0     C60523  -1.674   9.503  -1.143 -0.4165  0.2969  0.3548
  449MOL0     C60524  -1.817   9.479  -1.161 -0.1758  0.7732 -0.4813
  449MOL0    Cl60525  -1.877   9.401  -1.014  0.4435 -0.3245  0.4061
  449MOL0     C60526  -0.892   9.927  -0.754  0.3477  0.9594  0.5406
  449MOL0     C60527  -0.789   9.997  -0.704 -0.8690 -0.2341 -0.5792
  449MOL0     O60528  -0.656  10.304  -0.788 -0.0849 -0.3966 -0.3731
  449MOL0     C60529  -0.318  10.215  -0.702  0.8102  0.1785  0.0041
  449MOL0     C60530  -0.197  10.260  -0.660  0.3469  0.6008  0.7952
  449MOL0     N60531   0.576  10.250  -0.282  0.0504  0.1490 -0.1352
  449MOL0     N60532   0.674  10.163  -0.307 -0.4046 -0.4348 -0.4327
  449MOL0     C60533   1.720  10.048  -0.188 -0.4322 -0.3680  0.3147
  449MOL0     C60534   1.837  10.078  -0.109 -0.1308  0.2183  0.0610
  449MOL0     C60535   2.124  10.051   0.240 -1.0540  0.7556 -0.0091
  449MOL0     C60536   2.189   9.966   0.335 -0.1500  0.2527  0.2038
  449MOL0     C60537   2.314  10.001   0.397  0.2684 -0.2586 -0.6998
  449MOL0     C60538   2.376  10.124   0.365 -0.5450  0.4502  0.0341
  449MOL0     O60539   2.477  10.178   0.444 -0.2539 -0.2356  0.4249
  449MOL0     C60540   2.617  10.160   0.414  0.1628 -0.7697 -0.1780
  449MOL0     C60541   2.693  10.061   0.510  0.9303 -0.2654  0.1216
  449MOL0     C60542   2.836  10.029   0.455  0.4821 -0.0580 -0.8054
  449MOL0     C60543   2.886   9.893   0.506  0.6052 -0.3296  0.5946
  449MOL0     C60544   3.033   9.876   0.505 -0.6475  0.5167  0.3838
  449MOL0     C60545   3.153   9.864   0.489 -0.2121 -0.2830 -0.5756
  449MOL0     C60546   2.326  10.192   0.254 -0.3648  0.3111  0.3398
  449MOL0     C60547   2.202  10.158   0.197 -0.2780  0.3489 -0.2763
  449MOL0     H60548   1.710  10.027   0.205  1.7472 -2.1080 -0.2427
  449MOL0     H60549   1.515  10.009   0.081 -1.4881  1.7255 -0.7730
  449MOL0     H60550   1.542  10.075  -0.369  3.6959 -3.8436 -0.8537
  449MOL0     H60551   1.535   9.909  -0.365 -2.3142 -0.2985 -2.6815
  449MOL0     H60552   1.291   9.892  -0.369  1.8105 -1.5674 -1.0357
  449MOL0     H60553   1.283  10.065  -0.327 -0.3433 -0.4137 -0.6838
  449MOL0     H60554   1.334  10.133  -0.530 -1.8360  0.4882  1.8254
  449MOL0     H60555   1.420   9.997  -0.587 -0.4262 -1.9487  0.4545
  449MOL0     H60556   1.223  10.001  -0.705  0.3154 -1.4765 -1.2982
  449MOL0     H60557   1.193   9.875  -0.578  0.0451  1.1546  2.0763
  449MOL0     H60558   1.050   9.998  -0.445 -0.8138  0.6225  0.2156
  449MOL0     H60559   1.065  10.153  -0.541 -0.2300 -0.3020 -1.0829
  449MOL0     H60560   0.993   9.985  -0.729  2.4573 -0.1294  0.4964
  449MOL0     H60561   0.929   9.889  -0.605 -2.2491  0.6447 -0.7007
  449MOL0     H60562   0.849  10.177  -0.580 -1.3163  0.0176  0.4830
  449MOL0     H60563   0.780  10.068  -0.704  0.7223  1.2825  0.0440
  449MOL0     H60564   0.795   9.957  -0.427  1.8689  1.6305 -0.4623
  449MOL0     H60565   0.660   9.941  -0.544  0.1709  1.6360 -2.7299
  449MOL0     H60566   0.530  10.188  -0.599 -0.8726  3.7206  1.0880
  449MOL0     H60567   0.348  10.366  -0.316  0.5985 -1.4279  0.4838
  449MOL0     H60568   0.438  10.447  -0.453  4.1903 -1.4010  0.4295
  449MOL0     H60569   0.241  10.213  -0.464  0.7257 -0.7985 -1.1729
  449MOL0     H60570   0.317  10.282  -0.603 -1.8174  0.6533 -1.5259
  449MOL0     H60571   0.202  10.516  -0.546  0.1536  1.6982  3.6102
  449MOL0     H60572   0.150  10.434  -0.408  0.1754  2.0229 -0.8979
  449MOL0     H60573   0.029  10.261  -0.513 -0.4228 -0.0188  1.2473
  449MOL0     H60574   0.056  10.327  -0.679  0.5846  0.4695  0.2731
  449MOL0     H60575  -0.295  10.553  -0.539 -1.4185 -0.5587 -0.4163
  449MOL0     H60576  -0.509  10.612  -0.582 -1.5992  1.2826 -1.4878
  449MOL0     H60577  -0.571  10.535  -0.738  1.2831  0.1482 -0.9791
  449MOL0     H60578  -0.617  10.477  -0.569  1.6853  1.4038  3.2585
  449MOL0     H60579  -0.608  10.027  -0.995 -0.4308  1.5024 -0.5892
  449MOL0     H60580  -0.801   9.922  -1.085  3.0509 -0.3045 -0.2309
  449MOL0     H60581  -1.080   9.929  -1.109 -1.7386  0.0278 -0.9785
  449MOL0     H60582  -1.004   9.771  -1.139  0.9464 -0.2883  0.2502
  449MOL0     H60583  -1.223   9.683  -1.028  1.1171 -1.3333 -2.9858
  449MOL0     H60584  -1.276   9.853  -1.040  0.8995  3.4890 -3.5505
  449MOL0     H60585  -1.203   9.673  -1.265  1.9726  0.1165  2.1741
  449MOL0     H60586  -1.227   9.843  -1.292  0.6195  0.8213  2.0840
  449MOL0     H60587  -1.456   9.814  -1.156  1.3404  0.4489  0.1047
  449MOL0     H60588  -1.443   9.798  -1.329  2.2868  2.9581  0.7515
  449MOL0     H60589  -1.435   9.565  -1.121  1.3918 -1.5639 -0.5052
  449MOL0     H60590  -1.421   9.559  -1.302 -0.2953  1.0993  0.2511
  449MOL0     H60591  -1.665   9.699  -1.213  0.2782 -0.3566  1.6498
  449MOL0     H60592  -1.647   9.579  -1.339  0.5379  0.0115  0.3209
  449MOL0     H60593  -1.661   9.544  -1.043 -3.7624  1.6915  0.3370
  449MOL0     H60594  -1.621   9.407  -1.145 -2.2945 -0.7814 -0.6601
  449MOL0     H60595  -1.840   9.435  -1.258  0.4938  1.0332 -0.7614
  449MOL0     H60596  -1.866   9.576  -1.168  1.3355  1.5927  0.0326
  449MOL0     H60597  -0.970   9.891  -0.687 -1.9235  0.3635 -2.2460
  449MOL0     H60598  -0.785  10.027  -0.600 -2.7842  1.5750 -0.9439
  449MOL0     H60599  -0.325  10.110  -0.729  2.2900  0.2054 -0.6023
  449MOL0     H60600  -0.113  10.192  -0.676 -1.8066 -2.3304  1.1599
  449MOL0     H60601   1.742  10.048  -0.294  0.0710  2.5797  0.3127
  449MOL0     H60602   1.932  10.093  -0.161 -0.7586 -0.6570 -1.4063
  449MOL0     H60603   2.132   9.876   0.357 -0.2732  0.1587 -0.4851
  449MOL0     H60604   2.354   9.941   0.477 -1.4410 -1.8658 -0.9854
  449MOL0     H60605   2.638  10.126   0.312  1.5311 -0.3762 -0.0437
  449MOL0     H60606   2.664  10.259   0.421 -0.2509 -0.6632  1.3230
  449MOL0     H60607   2.630   9.972   0.506  0.6537 -0.1359  1.3378
  449MOL0     H60608   2.693  10.103   0.611 -1.5724  0.1142  0.0126
  449MOL0     H60609   2.901  10.115   0.473  0.7924 -0.6602  1.1465
  449MOL0     H60610   2.826  10.025   0.346  0.5222  0.2390 -0.8226
  449MOL0     H60611   2.827   9.821   0.448 -1.9389  1.6588  0.5198
  449MOL0     H60612   2.853   9.878   0.609 -3.3623  0.6907 -0.3499
  449MOL0     H60613   3.258   9.856   0.473  0.0498  2.7211 -1.0196
  449MOL0     H60614   2.386  10.273   0.215  1.1807 -2.1984 -3.0655
  449MOL0     H60615   2.170  10.208   0.106  3.7104  1.3128 -1.3662
  450MOL0     O60616   5.237   7.838   2.188  0.0437 -0.5773 -0.6667
  450MOL0     C60617   5.265   7.820   2.070  0.1775 -0.3013  0.3650
  450MOL0     O60618   5.174   7.784   1.964 -0.4594 -0.0626  1.0444
  450MOL0     C60619   5.049   7.741   1.982  1.0761  0.6190 -0.0208
  450MOL0     C60620   4.956   7.826   2.050 -0.5157  0.0851  0.4144
  450MOL0     C60621   4.823   7.788   2.062 -0.1073 -0.0826 -0.4889
  450MOL0     C60622   4.775   7.666   2.008  0.3548  0.1182 -1.1607
  450MOL0     O60623   4.648   7.622   2.010  0.6836  0.2256 -0.0912
  450MOL0     C60624   4.551   7.696   2.095 -0.3823 -0.1109  0.5952
  450MOL0     C60625   4.419   7.627   2.080  0.1850 -0.3000  0.0887
  450MOL0     C60626   4.323   7.667   2.194 -1.2258  0.2195 -0.0424
  450MOL0     C60627   4.194   7.595   2.158  0.0372  0.5208 -0.5646
  450MOL0     C60628   4.091   7.606   2.272 -0.4040 -0.0794 -0.2882
  450MOL0     C60629   3.974   7.514   2.246  0.1532  0.5499 -0.6676
  450MOL0     C60630   3.889   7.514   2.381 -0.6181  0.4943  0.4545
  450MOL0     C60631   3.739   7.485   2.345 -0.2279 -0.3444  1.2795
  450MOL0     N60632   3.656   7.500   2.468 -0.1780  0.1698  0.3928
  450MOL0     C60633   3.642   7.604   2.557  0.5105 -0.3118  0.5965
  450MOL0     C60634   3.530   7.581   2.634 -0.3654  0.6588  0.4175
  450MOL0     C60635   3.467   7.670   2.735  0.3057  0.0090 -0.5622
  450MOL0     C60636   3.336   7.706   2.685  0.6276  0.1521  1.0762
  450MOL0     C60637   3.221   7.608   2.706 -0.0869  0.0505 -0.0936
  450MOL0     C60638   3.089   7.666   2.649  0.3881  0.0446  0.0332
  450MOL0     O60639   2.991   7.559   2.651  0.6021 -0.6028 -0.0619
  450MOL0     C60640   2.856   7.598   2.661 -0.5230 -0.8036 -0.0241
  450MOL0     C60641   2.784   7.530   2.758  0.0728 -0.1214  0.9483
  450MOL0     C60642   2.648   7.557   2.781  0.4461 -0.0030 -0.1715
  450MOL0     C60643   2.592   7.486   2.908  0.5987 -0.3754  0.1555
  450MOL0     C60644   2.577   7.646   2.699  0.3621  0.0502  0.5072
  450MOL0     C60645   2.438   7.690   2.728 -0.2971 -0.3906 -0.2641
  450MOL0     O60646   2.390   7.801   2.669 -0.7104 -0.4129 -0.4653
  450MOL0     C60647   2.268   7.842   2.697  0.6190  0.3146 -0.9439
  450MOL0     C60648   2.224   7.881   2.829 -0.4618  0.9628  0.1242
  450MOL0     C60649   2.086   7.903   2.848 -0.2715  0.7631  0.2587
  450MOL0     C60650   1.998   7.908   2.743 -0.3625 -0.0141  0.8515
  450MOL0     O60651   1.864   7.931   2.781  0.3866  0.0897 -0.7825
  450MOL0     C60652   1.757   7.880   2.695 -0.0668 -0.1392 -0.1853
  450MOL0     C60653   1.619   7.861   2.768  0.2847  0.1018 -0.6344
  450MOL0     C60654   1.510   7.824   2.676 -0.2238  0.2032  0.4663
  450MOL0     C60655   1.363   7.870   2.732  0.2489 -0.2284  0.1347
  450MOL0     C60656   1.336   8.024   2.700  0.2220  0.5144  0.9678
  450MOL0     C60657   1.203   8.091   2.744 -0.0191 -0.1734  0.3366
  450MOL0     C60658   1.087   7.997   2.760  0.7064 -0.4382 -0.0799
  450MOL0     C60659   0.983   8.060   2.845  0.8346 -0.5785  0.3644
  450MOL0    Cl60660   0.915   8.237   2.794  0.0990  0.0565 -0.3347
  450MOL0     C60661   2.054   7.897   2.612 -0.4233  0.2912 -0.0514
  450MOL0     C60662   2.185   7.871   2.590  0.0182 -0.8719  0.0782
  450MOL0     O60663   2.374   7.616   2.796 -0.5069 -1.3520  0.0769
  450MOL0     C60664   2.652   7.720   2.609 -0.3929 -0.2172 -1.1284
  450MOL0     C60665   2.791   7.700   2.588 -0.1923  0.2856  0.3650
  450MOL0     N60666   3.490   7.448   2.597  0.3000 -0.2721 -0.0721
  450MOL0     N60667   3.566   7.400   2.504 -0.1081  1.0508  0.5855
  450MOL0     C60668   4.874   7.581   1.955  0.7346  0.8554  0.4328
  450MOL0     C60669   5.007   7.617   1.939 -0.4129 -1.1661  0.0848
  450MOL0     C60670   5.399   7.858   2.026 -0.1601 -0.0775 -0.3152
  450MOL0     C60671   5.491   7.886   2.128  0.1536 -0.9010  0.0828
  450MOL0     C60672   5.621   7.934   2.106 -0.2800 -0.2047 -0.5058
  450MOL0     C60673   5.659   7.951   1.972 -0.3886 -0.1291  0.1050
  450MOL0     O60674   5.786   8.007   1.951  0.3130  0.5864  0.4341
  450MOL0     C60675   5.826   8.061   1.828 -0.3320  0.1808  0.0055
  450MOL0     C60676   5.908   8.188   1.832 -0.5690  0.2139  0.6047
  450MOL0     C60677   6.014   8.195   1.939  0.3127  0.3834  0.4132
  450MOL0     C60678   6.135   8.282   1.896 -0.6893 -0.1534  0.5576
  450MOL0     C60679   6.218   8.205   1.800  0.1544  0.0294 -0.5184
  450MOL0     C60680   6.268   8.136   1.723 -0.1503  0.1229  0.5844
  450MOL0     C60681   5.569   7.926   1.868  0.5296 -0.2583 -0.4968
  450MOL0     C60682   5.436   7.882   1.891 -0.2126  0.2263  0.0261
  450MOL0     H60683   4.995   7.924   2.075  0.7316 -0.7542  1.9906
  450MOL0     H60684   4.755   7.861   2.104 -2.5849 -2.6245  0.2236
  450MOL0     H60685   4.579   7.707   2.200 -0.6659 -1.1177  0.7778
  450MOL0     H60686   4.544   7.793   2.044 -0.9564 -1.3138 -1.7511
  450MOL0     H60687   4.378   7.645   1.980 -0.4300 -0.9543  0.2196
  450MOL0     H60688   4.442   7.521   2.081 -1.6563 -0.7381 -0.1646
  450MOL0     H60689   4.359   7.645   2.294 -0.7969 -0.9458 -0.4368
  450MOL0     H60690   4.310   7.775   2.188 -2.1934  0.0472 -1.9721
  450MOL0     H60691   4.168   7.641   2.063 -0.0591 -0.3845 -0.9844
  450MOL0     H60692   4.195   7.488   2.136 -1.7717  0.5034 -0.7113
  450MOL0     H60693   4.140   7.581   2.367  0.0157  2.5329  0.2547
  450MOL0     H60694   4.065   7.711   2.283  2.6017  0.6340  0.9724
  450MOL0     H60695   3.913   7.562   2.169 -1.4871  0.1725  0.3337
  450MOL0     H60696   4.007   7.417   2.207 -1.8376 -0.6793  0.4888
  450MOL0     H60697   3.939   7.431   2.431  1.1757 -0.8834 -3.2312
  450MOL0     H60698   3.895   7.613   2.428  0.8678  0.6389  0.0145
  450MOL0     H60699   3.727   7.381   2.312 -3.2818 -0.2400  1.7425
  450MOL0     H60700   3.706   7.554   2.267  2.3116 -0.9807 -0.5102
  450MOL0     H60701   3.703   7.694   2.562  2.1875 -1.2959 -1.1034
  450MOL0     H60702   3.468   7.630   2.837 -0.6193  3.1520  0.8028
  450MOL0     H60703   3.523   7.762   2.753 -3.0274  1.6090  3.1833
  450MOL0     H60704   3.345   7.733   2.579  2.2891  2.6804  1.7687
  450MOL0     H60705   3.307   7.797   2.739  0.5856 -0.7670  2.6457
  450MOL0     H60706   3.206   7.611   2.815 -0.5088  0.9315 -0.1740
  450MOL0     H60707   3.242   7.508   2.665 -2.0056 -1.2258  1.7904
  450MOL0     H60708   3.105   7.691   2.543  5.3370  0.8534  0.7309
  450MOL0     H60709   3.068   7.759   2.701  1.9462  0.7637 -0.5362
  450MOL0     H60710   2.840   7.459   2.818  0.0827 -0.5717  0.4132
  450MOL0     H60711   2.521   7.547   2.966 -1.3554 -0.0539 -2.3929
  450MOL0     H60712   2.526   7.405   2.877  1.0182 -1.4686  1.9495
  450MOL0     H60713   2.671   7.443   2.970  1.0738 -1.4493 -1.1439
  450MOL0     H60714   2.289   7.887   2.915 -1.3852 -1.0938  1.0249
  450MOL0     H60715   2.055   7.916   2.952 -2.3068  1.4668 -0.3979
  450MOL0     H60716   1.737   7.952   2.615  0.2717 -0.2908 -0.4054
  450MOL0     H60717   1.791   7.779   2.669 -0.7645 -0.6049  0.6399
  450MOL0     H60718   1.616   7.776   2.837 -0.3513 -1.1121 -2.1028
  450MOL0     H60719   1.593   7.949   2.828  0.3611  0.5985 -1.3188
  450MOL0     H60720   1.510   7.716   2.664 -0.8738  0.0618  1.5852
  450MOL0     H60721   1.539   7.871   2.581  2.0837  0.2167  1.1289
  450MOL0     H60722   1.288   7.807   2.684 -2.3648  3.3805 -0.8880
  450MOL0     H60723   1.356   7.844   2.838 -0.3554  1.7863  0.6261
  450MOL0     H60724   1.324   8.027   2.591 -2.0186  1.5182  1.1995
  450MOL0     H60725   1.420   8.084   2.736  0.5432  0.5652  0.1544
  450MOL0     H60726   1.217   8.155   2.832  0.5568  0.7966 -0.4388
  450MOL0     H60727   1.163   8.162   2.671 -0.3573 -0.5094  0.1875
  450MOL0     H60728   1.120   7.904   2.807 -0.0868 -1.1534 -0.8848
  450MOL0     H60729   1.035   7.968   2.668 -0.9486 -1.4739  1.1110
  450MOL0     H60730   1.023   8.066   2.947  1.3146 -0.4224  0.1686
  450MOL0     H60731   0.895   7.994   2.849  0.0074  0.4085 -0.6888
  450MOL0     H60732   1.997   7.913   2.521  1.7658 -1.7177 -1.9107
  450MOL0     H60733   2.227   7.852   2.492  2.7301  0.7541  0.8072
  450MOL0     H60734   2.602   7.795   2.549 -2.0505 -0.7515 -0.4753
  450MOL0     H60735   2.832   7.762   2.509 -0.0431 -0.6907 -0.3424
  450MOL0     H60736   4.845   7.480   1.929 -1.5698  1.6758 -0.3977
  450MOL0     H60737   5.067   7.539   1.891 -1.7221 -0.9493 -2.0227
  450MOL0     H60738   5.457   7.872   2.230  3.1025  2.6722  1.8209
  450MOL0     H60739   5.680   7.943   2.196 -1.0507 -0.3888  0.0267
  450MOL0     H60740   5.898   7.994   1.781  3.6804  0.5676  4.7533
  450MOL0     H60741   5.748   8.091   1.757 -0.2060  1.2652  0.3020
  450MOL0     H60742   5.844   8.274   1.850  1.9232  2.1338  0.7976
  450MOL0     H60743   5.947   8.214   1.733 -0.6870 -0.6135  0.3285
  450MOL0     H60744   6.049   8.099   1.978 -2.1430 -1.1080 -0.8243
  450MOL0     H60745   5.969   8.247   2.024  0.2485 -1.5954  1.6288
  450MOL0     H60746   6.205   8.302   1.978  0.5567  0.9556 -0.7310
  450MOL0     H60747   6.109   8.377   1.849  1.9151  1.7510  2.6639
  450MOL0     H60748   6.308   8.064   1.654 -1.4110 -2.0691  2.0376
  450MOL0     H60749   5.589   7.955   1.765  0.0872 -1.9325 -1.0941
  450MOL0     H60750   5.357   7.867   1.818  0.8019 -0.6278 -0.9319
  451MOL0     O60751   5.750  11.141   6.951 -0.1514 -0.7916 -0.7012
  451MOL0     C60752   5.743  11.078   6.848  0.0606 -0.1374  0.4361
  451MOL0     O60753   5.635  10.997   6.808  0.4435  0.2013 -0.1530
  451MOL0     C60754   5.532  10.966   6.893 -0.4974 -0.2894  0.0754
  451MOL0     C60755   5.404  10.984   6.851 -0.2212  0.3530  0.2931
  451MOL0     C60756   5.296  10.958   6.938  0.3920 -0.5967  0.0646
  451MOL0     C60757   5.319  10.904   7.062  0.5548  0.7224  0.4473
  451MOL0     O60758   5.216  10.857   7.149  0.4658  0.2865 -0.2307
  451MOL0     C60759   5.080  10.900   7.124  0.1238  0.5194  0.3174
  451MOL0     C60760   4.984  10.878   7.247 -0.4760  0.1048  0.3478
  451MOL0     C60761   4.830  10.891   7.237 -0.2512 -0.4862  0.4528
  451MOL0     C60762   4.759  10.854   7.366 -0.2392 -0.0745 -0.7712
  451MOL0     C60763   4.604  10.837   7.354 -0.1709  0.0091  0.5165
  451MOL0     C60764   4.519  10.807   7.475 -0.7213 -0.0078  0.0663
  451MOL0     C60765   4.379  10.762   7.447 -0.2626 -0.5538  0.1395
  451MOL0     C60766   4.352  10.670   7.328 -0.1440  0.4613  0.3236
  451MOL0     N60767   4.210  10.637   7.314 -0.5106 -0.4968  0.0278
  451MOL0     C60768   4.152  10.521   7.285  0.5438  0.8286  0.3936
  451MOL0     C60769   4.019  10.523   7.278  0.4490 -0.2191  0.9258
  451MOL0     C60770   3.912  10.429   7.239  0.8512 -0.2162  0.3956
  451MOL0     C60771   3.920  10.296   7.324  0.6485 -0.7694 -0.2538
  451MOL0     C60772   3.817  10.194   7.280 -0.2573  0.8529  0.0312
  451MOL0     C60773   3.686  10.241   7.336  0.0959 -0.2520  0.7849
  451MOL0     O60774   3.593  10.132   7.319  0.5600  0.6199  0.5795
  451MOL0     C60775   3.455  10.157   7.349 -0.1654  0.5598  0.3620
  451MOL0     C60776   3.416  10.270   7.421  0.1284  0.2660 -0.1681
  451MOL0     C60777   3.284  10.279   7.459  0.3010  0.0468  0.7289
  451MOL0     C60778   3.248  10.410   7.523  0.3226  0.0917 -0.0786
  451MOL0     C60779   3.186  10.183   7.417  0.2429 -0.3383 -0.4989
  451MOL0     C60780   3.036  10.193   7.451 -0.1688 -0.2674 -0.2766
  451MOL0     O60781   2.991  10.302   7.514  0.6717 -1.0240  0.1091
  451MOL0     C60782   2.859  10.323   7.510  0.3897 -0.8051 -0.2450
  451MOL0     C60783   2.795  10.382   7.403 -0.3919 -0.2458  0.8464
  451MOL0     C60784   2.659  10.393   7.401 -0.8925  0.6579  0.3007
  451MOL0     C60785   2.577  10.355   7.507  0.0873 -0.6197  0.8660
  451MOL0     O60786   2.440  10.381   7.510  0.0069 -0.6705  0.3628
  451MOL0     C60787   2.359  10.391   7.393 -0.4540  0.0373  0.3854
  451MOL0     C60788   2.231  10.313   7.420  0.4146  1.1565  0.4697
  451MOL0     C60789   2.128  10.350   7.312  0.2058  0.7273 -0.1055
  451MOL0     C60790   1.988  10.292   7.352 -0.3773  0.2542  0.3130
  451MOL0     C60791   1.890  10.286   7.236 -0.6895 -0.6158  0.2825
  451MOL0     C60792   1.850  10.427   7.184  1.0591 -0.0572 -0.6379
  451MOL0     C60793   1.745  10.411   7.069  0.2744 -0.2039 -0.6000
  451MOL0     C60794   1.717  10.544   6.993  0.7092 -0.2541 -0.4906
  451MOL0    Cl60795   1.621  10.644   7.105  0.1190 -0.2612 -0.2003
  451MOL0     C60796   2.643  10.302   7.622  0.8598 -0.6729  0.0994
  451MOL0     C60797   2.783  10.285   7.619  0.1750  0.5728 -0.4433
  451MOL0     O60798   2.968  10.098   7.419  0.3231 -0.1079 -0.4252
  451MOL0     C60799   3.233  10.081   7.333 -0.6914  0.3038  1.2646
  451MOL0     C60800   3.363  10.062   7.306  0.1432  0.0557 -0.4186
  451MOL0     N60801   3.992  10.654   7.299  0.2731  0.0565  0.1464
  451MOL0     N60802   4.099  10.725   7.325  0.2714 -0.5579  0.2192
  451MOL0     C60803   5.451  10.880   7.102  0.1534  0.8338 -0.1887
  451MOL0     C60804   5.557  10.911   7.021 -0.2679  0.1688  0.7614
  451MOL0     C60805   5.854  11.094   6.740 -0.4166 -0.1486 -0.6526
  451MOL0     C60806   5.820  11.075   6.610  0.3085 -0.4831 -0.5128
  451MOL0     C60807   5.915  11.103   6.518 -0.6313  0.1625 -0.5013
  451MOL0     C60808   6.042  11.164   6.548 -0.2571 -0.5653  0.4076
  451MOL0     O60809   6.133  11.210   6.457 -0.4410  0.1160  0.2366
  451MOL0     C60810   6.091  11.316   6.369  0.0580  0.8649 -0.1387
  451MOL0     C60811   6.182  11.435   6.356 -0.3004 -0.4591 -1.0290
  451MOL0     C60812   6.328  11.405   6.306  0.6341 -0.1292 -0.3829
  451MOL0     C60813   6.318  11.320   6.181 -0.4967  0.7374  0.7137
  451MOL0     C60814   6.430  11.357   6.096  0.4823  0.6849 -0.3563
  451MOL0     C60815   6.530  11.392   6.038 -0.6020 -0.6540  0.5387
  451MOL0     C60816   6.076  11.176   6.677  0.2582 -0.0873  0.2993
  451MOL0     C60817   5.983  11.129   6.774 -0.1697 -1.0146 -0.5407
  451MOL0     H60818   5.380  11.027   6.754  0.9252  3.1977  1.1502
  451MOL0     H60819   5.195  10.976   6.902  0.6676 -1.2545 -1.0642
  451MOL0     H60820   5.084  11.007   7.101 -2.1676  0.1477 -2.3386
  451MOL0     H60821   5.034  10.850   7.039 -1.5286 -3.2105  3.0897
  451MOL0     H60822   5.025  10.788   7.293  2.0270  1.7601  1.5257
  451MOL0     H60823   5.014  10.948   7.325 -0.1754  0.4856 -0.1016
  451MOL0     H60824   4.803  10.995   7.216  0.1456 -0.3920  0.3956
  451MOL0     H60825   4.783  10.817   7.171 -0.3591  0.8659 -1.0370
  451MOL0     H60826   4.794  10.766   7.421 -1.8459 -0.3989 -0.1956
  451MOL0     H60827   4.773  10.934   7.439 -1.9709 -0.5830  0.1898
  451MOL0     H60828   4.564  10.925   7.302 -0.3799 -0.3630  0.0452
  451MOL0     H60829   4.592  10.752   7.286 -2.8951  0.4956  0.2967
  451MOL0     H60830   4.565  10.727   7.534  0.6516  1.0171  0.4541
  451MOL0     H60831   4.514  10.888   7.549 -0.9358 -0.1250  0.1805
  451MOL0     H60832   4.348  10.714   7.541  0.6113 -0.2543  0.5948
  451MOL0     H60833   4.322  10.854   7.429 -1.6399 -1.5110 -0.5822
  451MOL0     H60834   4.417  10.582   7.341  0.5970  0.5038 -2.5090
  451MOL0     H60835   4.370  10.715   7.230  0.1057  3.5578  1.6755
  451MOL0     H60836   4.204  10.429   7.259  1.8106  2.0473 -1.6268
  451MOL0     H60837   3.812  10.461   7.271 -0.4213 -2.3319 -1.1953
  451MOL0     H60838   3.918  10.426   7.130  0.3687 -0.1701  0.3679
  451MOL0     H60839   3.905  10.318   7.430 -2.0935 -2.8114 -0.1024
  451MOL0     H60840   4.024  10.264   7.314  0.6939 -0.2367 -1.7134
  451MOL0     H60841   3.828  10.095   7.327 -4.4150  0.7156  1.1276
  451MOL0     H60842   3.819  10.171   7.173 -2.8031 -3.3728  0.6357
  451MOL0     H60843   3.658  10.327   7.274 -2.6029 -0.4921  1.5681
  451MOL0     H60844   3.695  10.276   7.439 -1.0548 -1.6274  1.3746
  451MOL0     H60845   3.487  10.342   7.459  1.7174 -1.8719  1.1574
  451MOL0     H60846   3.205  10.389   7.622 -1.2547  2.8338 -0.0625
  451MOL0     H60847   3.327  10.484   7.536 -1.2414  1.8395  0.0570
  451MOL0     H60848   3.166  10.450   7.462 -1.0180 -2.0666  0.1870
  451MOL0     H60849   2.847  10.407   7.311 -0.6468 -0.1785  0.7190
  451MOL0     H60850   2.615  10.435   7.312 -0.3375  1.3110  0.3338
  451MOL0     H60851   2.343  10.494   7.362 -2.4851 -0.4563 -0.3747
  451MOL0     H60852   2.409  10.343   7.308 -1.0136  1.9938 -1.1147
  451MOL0     H60853   2.253  10.207   7.429 -0.6716  0.5621 -2.5584
  451MOL0     H60854   2.196  10.343   7.519 -0.5508 -1.0911  0.8503
  451MOL0     H60855   2.175  10.307   7.223  0.2251 -0.0004  0.2473
  451MOL0     H60856   2.124  10.459   7.315 -0.4323  0.7070  0.0509
  451MOL0     H60857   2.008  10.189   7.384 -0.0792  0.4352  0.7046
  451MOL0     H60858   1.929  10.343   7.429  0.9311 -1.1152  2.3218
  451MOL0     H60859   1.803  10.233   7.273 -0.8999  2.2075  4.4856
  451MOL0     H60860   1.933  10.230   7.152 -0.8811 -0.3862  0.0288
  451MOL0     H60861   1.818  10.495   7.264 -0.2965 -0.5652 -0.7165
  451MOL0     H60862   1.934  10.480   7.137  0.9586  1.4731  0.8002
  451MOL0     H60863   1.648  10.378   7.107  0.0846  0.9685  0.0048
  451MOL0     H60864   1.791  10.343   6.998  4.0077  1.0060  0.4465
  451MOL0     H60865   1.659  10.525   6.902 -0.4799  1.2992 -0.1166
  451MOL0     H60866   1.803  10.599   6.956 -0.5235  2.2823  0.1624
  451MOL0     H60867   2.596  10.263   7.711  1.3059 -0.7137  0.3208
  451MOL0     H60868   2.833  10.243   7.706 -2.1976 -2.5529 -0.4041
  451MOL0     H60869   3.174   9.998   7.295 -0.8500  0.7507  0.5211
  451MOL0     H60870   3.389   9.977   7.244 -0.5097 -0.7132  0.3260
  451MOL0     H60871   5.479  10.835   7.197 -2.3584 -0.0054  0.2294
  451MOL0     H60872   5.658  10.901   7.060  0.4937 -1.7797 -1.4410
  451MOL0     H60873   5.720  11.036   6.594 -1.0235  1.8743  1.3101
  451MOL0     H60874   5.884  11.081   6.416 -4.7315  2.1357  0.1208
  451MOL0     H60875   6.078  11.277   6.268 -3.4031  2.2013 -0.3448
  451MOL0     H60876   5.994  11.354   6.402  0.1524 -1.2059  2.9194
  451MOL0     H60877   6.188  11.491   6.449  1.8239  0.1630 -1.4781
  451MOL0     H60878   6.135  11.508   6.288  0.3557 -0.7516 -1.8169
  451MOL0     H60879   6.383  11.354   6.386 -0.8152 -1.2973 -0.0824
  451MOL0     H60880   6.370  11.504   6.284  0.8300 -0.4078 -1.2746
  451MOL0     H60881   6.231  11.335   6.117  0.3926 -1.2058 -1.1130
  451MOL0     H60882   6.327  11.213   6.202 -4.1215  0.7157  2.9336
  451MOL0     H60883   6.618  11.422   5.985 -3.1845 -0.0963 -3.9515
  451MOL0     H60884   6.179  11.200   6.701 -0.1107  1.0995  0.7607
  451MOL0     H60885   6.015  11.122   6.877  0.0028 -1.2307 -0.6090
  452MOL0     O60886   7.084   4.938   4.663 -0.0052 -0.1793  0.2237
  452MOL0     C60887   7.018   4.911   4.558  0.2975  0.2504 -0.4421
  452MOL0     O60888   7.055   4.831   4.459 -0.4458 -0.0489  0.6991
  452MOL0     C60889   7.188   4.788   4.444 -0.0800  0.1276  0.4961
  452MOL0     C60890   7.301   4.860   4.488 -0.0436  1.1946 -1.1121
  452MOL0     C60891   7.426   4.793   4.484 -0.2191  0.3619 -0.0581
  452MOL0     C60892   7.445   4.669   4.414  0.3257 -0.2153 -0.4291
  452MOL0     O60893   7.574   4.620   4.404  0.1151 -0.8251  0.6367
  452MOL0     C60894   7.591   4.485   4.425 -0.2282 -0.1309  0.8709
  452MOL0     C60895   7.742   4.458   4.434  0.2573 -0.2229 -0.4896
  452MOL0     C60896   7.812   4.539   4.542 -0.7519 -0.2733  0.0771
  452MOL0     C60897   7.964   4.488   4.534  0.2733  0.1304  0.0321
  452MOL0     C60898   8.036   4.561   4.642 -0.3757  0.0244  0.5170
  452MOL0     C60899   8.083   4.700   4.594  0.0357  0.1689  0.2918
  452MOL0     C60900   8.145   4.771   4.715  0.4033 -0.0353  0.0128
  452MOL0     C60901   8.193   4.915   4.689 -0.1674 -0.6890  0.0834
  452MOL0     N60902   8.083   5.002   4.672 -0.3086  0.3675  0.1471
  452MOL0     C60903   7.978   5.027   4.757 -0.3497  0.1199  0.3073
  452MOL0     C60904   7.933   5.141   4.720 -0.0452 -0.1855  0.6546
  452MOL0     C60905   7.817   5.204   4.784  0.2407  0.0427  0.4128
  452MOL0     C60906   7.687   5.160   4.723  0.0162 -0.5564  0.5875
  452MOL0     C60907   7.677   5.202   4.577  0.5914 -0.1133  0.3340
  452MOL0     C60908   7.537   5.158   4.517  0.0825 -0.2427 -0.2694
  452MOL0     O60909   7.439   5.253   4.565 -0.3495  0.6249 -0.1956
  452MOL0     C60910   7.337   5.281   4.480  0.6146  0.4673  0.2272
  452MOL0     C60911   7.257   5.384   4.528  0.3864  0.1919  0.1410
  452MOL0     C60912   7.133   5.405   4.469 -1.0775 -0.8757 -0.4440
  452MOL0     C60913   7.048   5.503   4.541  0.9458 -0.1948 -0.0367
  452MOL0     C60914   7.089   5.340   4.356  0.2555 -0.0407 -0.1055
  452MOL0     C60915   6.946   5.350   4.300  0.9041 -0.3722  0.9063
  452MOL0     O60916   6.850   5.405   4.375  0.2715  0.0920 -0.1558
  452MOL0     C60917   6.718   5.372   4.341  0.4885  0.8794 -0.0860
  452MOL0     C60918   6.653   5.259   4.405  0.1100 -0.8653 -0.2733
  452MOL0     C60919   6.516   5.239   4.379  0.6961 -1.1623  0.7449
  452MOL0     C60920   6.451   5.322   4.299  0.7159 -1.0407 -0.9946
  452MOL0     O60921   6.312   5.319   4.284 -0.1976 -0.3154 -0.2918
  452MOL0     C60922   6.236   5.398   4.378  0.0419 -0.6063 -0.1664
  452MOL0     C60923   6.093   5.359   4.359 -0.1604  0.0929 -0.2797
  452MOL0     C60924   5.999   5.452   4.448 -0.0808  0.0831  0.3019
  452MOL0     C60925   5.850   5.411   4.454  0.3837 -0.7627 -0.8829
  452MOL0     C60926   5.781   5.471   4.578  0.9037  0.0037  0.5554
  452MOL0     C60927   5.629   5.500   4.545  0.1424 -0.2740 -0.0447
  452MOL0     C60928   5.554   5.552   4.663 -0.5209 -1.3283 -0.9710
  452MOL0     C60929   5.401   5.565   4.644 -0.1487 -0.3816  1.0791
  452MOL0    Cl60930   5.359   5.703   4.527  0.1547  0.4242 -0.2242
  452MOL0     C60931   6.511   5.428   4.235  0.0414  0.2874  0.4894
  452MOL0     C60932   6.648   5.452   4.261  0.4896 -0.3360 -0.6248
  452MOL0     O60933   6.922   5.309   4.184  0.8791 -0.3485 -0.1218
  452MOL0     C60934   7.176   5.246   4.299  0.0729  0.3180 -0.1014
  452MOL0     C60935   7.295   5.213   4.360 -0.3878 -0.1559 -0.2317
  452MOL0     N60936   7.983   5.183   4.597  0.0755 -0.9620  0.7609
  452MOL0     N60937   8.070   5.092   4.568 -0.5040 -0.2606 -0.2626
  452MOL0     C60938   7.331   4.612   4.349  1.2929  0.1226  1.1221
  452MOL0     C60939   7.205   4.670   4.365 -0.2258 -0.1744  0.5372
  452MOL0     C60940   6.870   4.933   4.578  0.5957  0.2069  0.6261
  452MOL0     C60941   6.781   4.877   4.479  0.4483 -0.8347  0.6355
  452MOL0     C60942   6.641   4.886   4.490 -0.2030  0.5668  0.6202
  452MOL0     C60943   6.582   4.956   4.593  0.3050 -0.2479 -0.6058
  452MOL0     O60944   6.442   4.957   4.596  0.1352  0.2359 -0.4281
  452MOL0     C60945   6.377   5.016   4.711  0.4375 -0.4658  0.2526
  452MOL0     C60946   6.227   5.027   4.674  0.4360 -0.4880 -0.5439
  452MOL0     C60947   6.129   5.098   4.772 -0.6815 -0.1055  0.0307
  452MOL0     C60948   5.991   5.105   4.706 -0.4303  0.5708 -0.0882
  452MOL0     C60949   5.892   5.173   4.788  0.0275 -0.3220  0.3126
  452MOL0     C60950   5.809   5.203   4.865  0.0361 -0.4651  0.2532
  452MOL0     C60951   6.672   5.020   4.688  0.1983  0.2563  0.2265
  452MOL0     C60952   6.813   5.009   4.688 -0.1833  0.4732  1.0470
  452MOL0     H60953   7.292   4.963   4.522 -3.0514  0.9973 -1.0627
  452MOL0     H60954   7.514   4.839   4.527  0.2440 -1.1541  0.7086
  452MOL0     H60955   7.552   4.442   4.518 -1.4135 -0.4239  0.2513
  452MOL0     H60956   7.548   4.435   4.338 -2.1741  0.3102  1.5213
  452MOL0     H60957   7.751   4.349   4.439 -4.0626 -0.7078  1.0155
  452MOL0     H60958   7.781   4.487   4.336  1.7327  0.7776  0.3640
  452MOL0     H60959   7.808   4.648   4.537  1.8976 -0.1484 -1.2395
  452MOL0     H60960   7.778   4.502   4.639 -1.5861 -0.0574 -0.1299
  452MOL0     H60961   7.960   4.382   4.558 -0.8739  0.4951  1.6338
  452MOL0     H60962   8.010   4.505   4.436  2.0635 -1.1463  0.5943
  452MOL0     H60963   7.983   4.568   4.738  0.8658  0.8463  1.1801
  452MOL0     H60964   8.129   4.505   4.658 -0.5225 -0.6987 -1.0658
  452MOL0     H60965   8.160   4.704   4.516  1.3451 -1.1538  1.4563
  452MOL0     H60966   7.998   4.760   4.563 -0.0459 -0.3872 -0.5805
  452MOL0     H60967   8.077   4.765   4.801  0.2158  0.0615 -0.1288
  452MOL0     H60968   8.238   4.720   4.742  0.5641  1.7806  3.5065
  452MOL0     H60969   8.256   4.912   4.600  2.6644 -0.9747  1.9617
  452MOL0     H60970   8.259   4.941   4.773 -0.1145 -1.4142  0.2703
  452MOL0     H60971   7.953   4.965   4.843  0.4801  0.7877  1.0387
  452MOL0     H60972   7.811   5.186   4.892 -1.7302  0.1689  0.3719
  452MOL0     H60973   7.835   5.311   4.775 -0.0089 -0.0345 -1.3217
  452MOL0     H60974   7.602   5.200   4.778  0.3446  0.0668  0.6561
  452MOL0     H60975   7.682   5.051   4.715 -3.0834 -0.4854  0.6886
  452MOL0     H60976   7.753   5.151   4.517 -1.6482 -1.0836 -1.8645
  452MOL0     H60977   7.689   5.310   4.566 -1.5411  0.1544  0.1736
  452MOL0     H60978   7.501   5.062   4.553  1.5816  0.1809  2.6636
  452MOL0     H60979   7.540   5.154   4.407 -1.9808  0.3427 -0.3852
  452MOL0     H60980   7.279   5.430   4.624 -2.0284  0.4834  0.6083
  452MOL0     H60981   7.098   5.545   4.629 -0.9223  1.7646  0.2041
  452MOL0     H60982   7.017   5.590   4.482  0.0394  0.9449  1.9998
  452MOL0     H60983   6.970   5.446   4.592  3.1965 -2.2324  1.2919
  452MOL0     H60984   6.715   5.193   4.466  0.6243 -0.8167 -0.7333
  452MOL0     H60985   6.459   5.162   4.430 -1.9647  0.6566  0.7170
  452MOL0     H60986   6.258   5.371   4.482 -1.9552 -1.6827  0.0184
  452MOL0     H60987   6.240   5.503   4.348 -2.5060  0.2514  2.1024
  452MOL0     H60988   6.066   5.364   4.253  2.6910 -0.5292 -1.1268
  452MOL0     H60989   6.083   5.254   4.388 -3.6351  0.3748 -0.0040
  452MOL0     H60990   6.002   5.557   4.415  0.6828 -1.0789 -4.0103
  452MOL0     H60991   6.040   5.457   4.549 -0.1118  3.2008  0.2696
  452MOL0     H60992   5.798   5.428   4.359 -0.2445 -2.4060 -0.8613
  452MOL0     H60993   5.842   5.304   4.473  1.1299 -0.8227 -0.8589
  452MOL0     H60994   5.821   5.563   4.622 -0.6524 -0.0137  2.1068
  452MOL0     H60995   5.792   5.406   4.665 -1.0015 -0.4039  0.5490
  452MOL0     H60996   5.614   5.582   4.475 -2.0300  1.4304  2.2543
  452MOL0     H60997   5.583   5.411   4.500 -0.8630  0.6278 -0.8436
  452MOL0     H60998   5.591   5.652   4.688 -0.9146 -1.6174  0.9844
  452MOL0     H60999   5.577   5.485   4.747  0.9969 -2.5890 -2.3376
  452MOL0     H61000   5.336   5.598   4.726 -1.5089  1.7002 -0.7000
  452MOL0     H61001   5.355   5.472   4.610 -1.5820  0.9403 -0.8243
  452MOL0     H61002   6.457   5.498   4.173  2.8216  1.3403 -0.9285
  452MOL0     H61003   6.700   5.538   4.221 -0.0006  1.2681  1.9425
  452MOL0     H61004   7.150   5.179   4.218  1.5240  0.0859 -0.4056
  452MOL0     H61005   7.355   5.137   4.311  0.6157  0.7678 -0.4839
  452MOL0     H61006   7.340   4.528   4.281 -1.1945 -1.1452  2.2112
  452MOL0     H61007   7.113   4.620   4.336  0.4101 -0.7298 -0.6262
  452MOL0     H61008   6.822   4.831   4.389 -0.2048 -0.5847  0.2045
  452MOL0     H61009   6.591   4.827   4.414  0.7072 -0.4256  0.7734
  452MOL0     H61010   6.401   4.954   4.798  1.7037  0.6577  0.7320
  452MOL0     H61011   6.414   5.115   4.738  0.5269 -0.6825  0.9243
  452MOL0     H61012   6.195   4.923   4.668  0.7512 -0.6823  0.8232
  452MOL0     H61013   6.211   5.056   4.569 -1.1465 -1.2661 -0.5557
  452MOL0     H61014   6.152   5.199   4.804 -2.4138 -0.3616  2.3430
  452MOL0     H61015   6.135   5.044   4.866 -1.3082 -0.4190 -0.0995
  452MOL0     H61016   5.970   4.999   4.686 -0.5347  0.6701 -0.5000
  452MOL0     H61017   6.003   5.150   4.608  0.3701  0.4233 -0.0659
  452MOL0     H61018   5.734   5.244   4.929  1.1183  5.3242 -1.5405
  452MOL0     H61019   6.626   5.077   4.768 -0.9523 -1.3980  0.8109
  452MOL0     H61020   6.866   5.049   4.774  1.4762 -0.7450  0.6358
  453MOL0     O61021   7.640   5.667   2.500  0.3671 -0.0609 -0.3449
  453MOL0     C61022   7.703   5.759   2.445  0.0353  1.0636  0.3971
  453MOL0     O61023   7.649   5.855   2.360  0.2546 -0.0974  0.6421
  453MOL0     C61024   7.510   5.854   2.336  0.1704 -0.4661  0.0806
  453MOL0     C61025   7.407   5.839   2.434 -0.6796  0.4760  0.7044
  453MOL0     C61026   7.276   5.839   2.395  0.3770  0.6341  0.6498
  453MOL0     C61027   7.235   5.847   2.264 -0.2036 -1.3331  0.2708
  453MOL0     O61028   7.100   5.824   2.240 -0.4314 -0.8948 -0.6965
  453MOL0     C61029   7.054   5.806   2.110  0.1073 -0.2363 -0.3666
  453MOL0     C61030   7.023   5.932   2.036  0.7273 -0.4364 -0.8029
  453MOL0     C61031   6.901   6.007   2.100 -0.1963 -0.1142  0.5968
  453MOL0     C61032   6.860   6.115   1.998  0.0260  0.3630 -0.4295
  453MOL0     C61033   6.737   6.202   2.038 -0.2918  0.3742 -1.0697
  453MOL0     C61034   6.676   6.276   1.922  0.0669  0.2576 -0.1400
  453MOL0     C61035   6.566   6.377   1.959 -0.1195  0.0505 -0.4977
  453MOL0     C61036   6.432   6.332   2.019  0.5430 -0.5044  0.5724
  453MOL0     N61037   6.331   6.441   2.030 -0.2093 -0.4738 -0.0753
  453MOL0     C61038   6.300   6.505   2.140  0.4953 -0.4298 -0.9459
  453MOL0     C61039   6.210   6.597   2.101 -0.2101 -0.4675 -0.1410
  453MOL0     C61040   6.143   6.696   2.191  0.6637 -0.4965 -0.2837
  453MOL0     C61041   5.992   6.685   2.189  0.6676 -0.2627 -0.5444
  453MOL0     C61042   5.927   6.557   2.244 -0.5718  0.8097  0.2456
  453MOL0     C61043   5.781   6.560   2.212  0.2079 -0.4966  0.3506
  453MOL0     O61044   5.735   6.437   2.262 -0.0686 -0.2039 -0.2337
  453MOL0     C61045   5.597   6.427   2.263 -0.6156 -0.2619 -0.1451
  453MOL0     C61046   5.541   6.331   2.349 -1.0649 -0.6788 -1.0631
  453MOL0     C61047   5.403   6.299   2.340 -0.4383 -0.1315  0.3489
  453MOL0     C61048   5.356   6.193   2.441 -0.6245  0.8868  0.1828
  453MOL0     C61049   5.316   6.364   2.244  0.0838 -0.1650  0.4406
  453MOL0     C61050   5.170   6.335   2.234  0.0701  0.3373  0.0066
  453MOL0     O61051   5.119   6.238   2.321 -0.4994  0.4769  0.5877
  453MOL0     C61052   4.983   6.223   2.348 -0.0475  0.3185  0.1725
  453MOL0     C61053   4.889   6.328   2.349  0.1318 -0.1110 -0.0466
  453MOL0     C61054   4.754   6.306   2.356  0.4865  0.3091  0.0028
  453MOL0     C61055   4.704   6.181   2.377 -0.0858 -0.2541 -0.6305
  453MOL0     O61056   4.571   6.160   2.393  0.8167 -0.3767 -0.7940
  453MOL0     C61057   4.516   6.064   2.311 -0.2848 -0.8798 -0.0342
  453MOL0     C61058   4.364   6.080   2.325 -0.3896 -0.1100 -0.2998
  453MOL0     C61059   4.322   6.036   2.468 -0.1030  0.0013 -0.1151
  453MOL0     C61060   4.174   6.048   2.469 -0.3592  0.8371 -0.4946
  453MOL0     C61061   4.127   5.996   2.613  0.1725  0.1241 -0.2766
  453MOL0     C61062   3.978   6.007   2.631  0.1662  0.0033 -0.5083
  453MOL0     C61063   3.914   6.139   2.615  0.0899  0.4136 -0.9329
  453MOL0     C61064   3.767   6.130   2.654 -0.3807 -0.4129  0.7776
  453MOL0    Cl61065   3.672   6.022   2.548 -0.2836 -0.5210 -0.0482
  453MOL0     C61066   4.793   6.073   2.379 -0.2013 -0.1035 -0.6965
  453MOL0     C61067   4.926   6.094   2.357 -0.7697 -2.1163 -0.1932
  453MOL0     O61068   5.104   6.405   2.156  0.4451  0.8702 -0.6331
  453MOL0     C61069   5.383   6.452   2.157  0.1555 -0.4789 -0.8849
  453MOL0     C61070   5.516   6.479   2.163 -0.1029  0.9547 -0.3618
  453MOL0     N61071   6.188   6.590   1.967  0.4741 -0.1629 -0.1050
  453MOL0     N61072   6.261   6.493   1.924 -0.3651 -0.9145 -0.4735
  453MOL0     C61073   7.327   5.886   2.166 -0.6357  0.6032  0.0735
  453MOL0     C61074   7.465   5.890   2.205 -0.5108  0.3108  0.0275
  453MOL0     C61075   7.842   5.767   2.494 -0.9163  0.1542 -0.0520
  453MOL0     C61076   7.910   5.661   2.548  0.5008 -0.0396 -1.1176
  453MOL0     C61077   8.042   5.665   2.588  0.6415 -0.5201  1.7196
  453MOL0     C61078   8.107   5.786   2.588  0.8547  0.7736  1.2779
  453MOL0     O61079   8.225   5.778   2.648 -0.1608 -0.3605 -0.6630
  453MOL0     C61080   8.277   5.906   2.686 -0.0698 -0.3845 -0.9852
  453MOL0     C61081   8.399   5.884   2.776  0.0424  1.0983 -0.2879
  453MOL0     C61082   8.470   6.005   2.828 -0.4255 -0.6045 -1.0559
  453MOL0     C61083   8.597   5.961   2.907  0.1183 -0.3837 -0.2297
  453MOL0     C61084   8.636   6.076   2.990  0.4704 -0.7386  0.4651
  453MOL0     C61085   8.662   6.177   3.054  0.9268  0.8546 -0.5691
  453MOL0     C61086   8.045   5.902   2.529  0.6580 -0.3775 -0.4826
  453MOL0     C61087   7.914   5.887   2.481 -0.0970  0.0510  0.6004
  453MOL0     H61088   7.434   5.828   2.538  1.1361  1.3416  0.3554
  453MOL0     H61089   7.186   5.827   2.455 -0.5053 -0.5637 -0.8181
  453MOL0     H61090   7.120   5.743   2.051  2.3727  0.9302  0.7935
  453MOL0     H61091   6.962   5.748   2.121 -1.0777  0.8991 -3.3841
  453MOL0     H61092   7.111   5.997   2.036  0.3320  0.1044 -0.7930
  453MOL0     H61093   6.993   5.903   1.935 -1.0947 -0.7047 -0.2307
  453MOL0     H61094   6.818   5.937   2.118  0.9038 -1.0834  2.2504
  453MOL0     H61095   6.940   6.048   2.194 -0.1394 -0.8756  0.9143
  453MOL0     H61096   6.938   6.187   1.974  0.2237  0.1638 -0.3874
  453MOL0     H61097   6.843   6.073   1.898 -0.4926  1.7660 -0.9573
  453MOL0     H61098   6.656   6.136   2.071 -0.6420  0.5209 -1.6174
  453MOL0     H61099   6.769   6.272   2.116  0.5381 -0.5360 -0.5868
  453MOL0     H61100   6.758   6.321   1.864  1.7950 -1.5863  0.7454
  453MOL0     H61101   6.641   6.206   1.845  1.8977  0.0720 -0.8612
  453MOL0     H61102   6.610   6.449   2.029 -0.1605 -0.3473 -0.0557
  453MOL0     H61103   6.528   6.423   1.867 -1.1185 -0.8235 -0.5356
  453MOL0     H61104   6.442   6.280   2.115 -2.1873 -0.6552  0.8703
  453MOL0     H61105   6.393   6.252   1.956 -0.3914 -0.1566  0.6820
  453MOL0     H61106   6.342   6.479   2.237  2.1254 -1.2072 -1.8088
  453MOL0     H61107   6.164   6.686   2.298  1.0104 -0.2858 -0.3308
  453MOL0     H61108   6.175   6.791   2.148 -0.3807 -0.8767 -1.9818
  453MOL0     H61109   5.958   6.706   2.087  0.5736  0.7234 -0.3177
  453MOL0     H61110   5.945   6.759   2.255 -0.0546 -1.8669  0.8227
  453MOL0     H61111   5.935   6.553   2.353 -1.8921 -1.2692  0.3302
  453MOL0     H61112   5.974   6.466   2.204  2.6055  2.3662  0.1695
  453MOL0     H61113   5.772   6.570   2.103  3.1117  1.9361  0.1917
  453MOL0     H61114   5.751   6.655   2.256  1.5550  0.9546 -1.6784
  453MOL0     H61115   5.607   6.279   2.418  0.5293 -0.1508 -2.1628
  453MOL0     H61116   5.263   6.223   2.490 -1.9519 -1.7539 -0.5972
  453MOL0     H61117   5.336   6.099   2.389  1.3191 -0.5011  1.7977
  453MOL0     H61118   5.431   6.176   2.519 -0.8245  3.2600  0.9978
  453MOL0     H61119   4.920   6.431   2.336  0.3183 -0.0042  1.1224
  453MOL0     H61120   4.694   6.396   2.351 -1.5954 -0.7509  2.8399
  453MOL0     H61121   4.535   6.075   2.204 -1.0722  0.4031 -0.0600
  453MOL0     H61122   4.538   5.959   2.335  1.1760 -0.7767 -0.8428
  453MOL0     H61123   4.326   6.181   2.305  1.4693  0.2974 -2.1224
  453MOL0     H61124   4.317   6.014   2.251 -0.0947 -0.3838 -0.2446
  453MOL0     H61125   4.356   6.108   2.543 -1.5832  0.6928 -0.0753
  453MOL0     H61126   4.346   5.931   2.487 -1.8547 -0.0024  2.6723
  453MOL0     H61127   4.142   6.152   2.458 -3.4384  0.2071  1.2505
  453MOL0     H61128   4.139   5.978   2.393  1.4525 -2.3510  1.3670
  453MOL0     H61129   4.175   6.050   2.696 -1.8118 -1.0857  1.7730
  453MOL0     H61130   4.146   5.889   2.625 -0.6713  0.1893  2.3837
  453MOL0     H61131   3.926   5.946   2.557 -0.3904 -1.7836  1.2673
  453MOL0     H61132   3.964   5.974   2.734 -0.1478 -1.7839 -1.0955
  453MOL0     H61133   3.920   6.179   2.513 -0.5393 -0.0378 -1.1502
  453MOL0     H61134   3.970   6.216   2.669  1.1698 -0.8886 -0.1522
  453MOL0     H61135   3.717   6.225   2.633  2.6592  0.9127 -1.2083
  453MOL0     H61136   3.760   6.115   2.762 -1.7917  1.6926  1.0286
  453MOL0     H61137   4.748   5.974   2.382 -0.2512 -0.1551 -2.3711
  453MOL0     H61138   4.993   6.008   2.364  0.6258 -0.9606  1.4459
  453MOL0     H61139   5.334   6.499   2.072 -1.7221 -0.1990  0.3033
  453MOL0     H61140   5.556   6.535   2.079  1.8548  0.6976  0.3470
  453MOL0     H61141   7.303   5.892   2.060 -2.0275 -2.6909  0.0844
  453MOL0     H61142   7.545   5.916   2.136  0.5372 -1.2744  0.5857
  453MOL0     H61143   7.857   5.566   2.555  1.4936 -0.4675  2.8357
  453MOL0     H61144   8.078   5.570   2.627  1.2460  0.4277  3.5815
  453MOL0     H61145   8.315   5.963   2.601 -0.2303  0.8720 -0.2382
  453MOL0     H61146   8.201   5.968   2.734 -0.5934 -1.0161 -0.9767
  453MOL0     H61147   8.470   5.817   2.727 -2.0012 -0.4834 -1.2430
  453MOL0     H61148   8.362   5.840   2.869 -0.7595  3.2057  0.4454
  453MOL0     H61149   8.401   6.051   2.900 -0.1205 -0.3467 -0.9270
  453MOL0     H61150   8.498   6.057   2.736  0.7619 -1.6267 -1.2959
  453MOL0     H61151   8.679   5.936   2.838 -1.3215 -3.0821 -1.1085
  453MOL0     H61152   8.572   5.871   2.964  0.0438 -1.5579 -2.0138
  453MOL0     H61153   8.669   6.262   3.118  0.1723  2.3497 -2.3727
  453MOL0     H61154   8.092   5.999   2.518  0.6636 -0.5644 -2.4452
  453MOL0     H61155   7.869   5.967   2.424  0.4791 -0.6306 -0.8566
  454MOL0     O61156   9.967   6.601   1.895 -0.5651  0.5931  0.1596
  454MOL0     C61157   9.893   6.693   1.927 -0.0665  0.4700 -0.2489
  454MOL0     O61158   9.937   6.827   1.955 -0.1644  0.6337 -0.6142
  454MOL0     C61159  10.073   6.840   1.951 -0.2133 -0.1525 -1.0916
  454MOL0     C61160  10.154   6.847   2.064 -0.0627  0.5124  0.7721
  454MOL0     C61161  10.287   6.867   2.047 -0.4636  0.0808 -0.0415
  454MOL0     C61162  10.334   6.865   1.913 -0.2264  0.2044  0.2716
  454MOL0     O61163  10.471   6.882   1.905  0.4448 -0.7012  0.0780
  454MOL0     C61164  10.520   6.968   1.800  0.4730 -0.0705 -0.3474
  454MOL0     C61165  10.652   7.041   1.840 -0.5823  0.3195  0.1643
  454MOL0     C61166  10.649   7.101   1.981  0.4087  0.0507  0.0200
  454MOL0     C61167  10.777   7.159   2.026 -0.0322 -0.0489 -0.4422
  454MOL0     C61168  10.787   7.160   2.179  0.2050  0.1069 -0.4266
  454MOL0     C61169  10.689   7.253   2.261  0.6731 -0.3612 -0.5637
  454MOL0     C61170  10.706   7.227   2.411 -0.4732  0.3074 -0.2784
  454MOL0     C61171  10.586   7.278   2.496 -0.1665  0.7499 -0.6737
  454MOL0     N61172  10.460   7.213   2.460 -0.6499  0.0787  0.1520
  454MOL0     C61173  10.424   7.080   2.477  0.2391  0.6231 -0.3217
  454MOL0     C61174  10.298   7.077   2.419 -0.3404  0.2427  0.9893
  454MOL0     C61175  10.205   6.960   2.429  0.0790  1.1318 -0.0096
  454MOL0     C61176  10.050   6.985   2.459 -0.8961 -0.5803  1.0313
  454MOL0     C61177  10.040   7.068   2.593 -0.8584  1.0779  0.9442
  454MOL0     C61178   9.898   7.106   2.626  0.1012 -0.8081 -1.3010
  454MOL0     O61179   9.813   6.993   2.632  0.2686  0.6559 -0.7642
  454MOL0     C61180   9.686   7.015   2.666  0.3626 -0.2654 -0.7655
  454MOL0     C61181   9.622   7.139   2.691 -0.6813  0.0312 -0.1839
  454MOL0     C61182   9.488   7.148   2.729  0.4607 -0.2290  0.0543
  454MOL0     C61183   9.434   7.282   2.760 -0.9969  0.7376  0.6570
  454MOL0     C61184   9.412   7.033   2.739 -0.6276  0.2298  0.8580
  454MOL0     C61185   9.268   7.024   2.772 -0.5542 -0.5623  0.5988
  454MOL0     O61186   9.198   7.147   2.767  0.1871 -0.2457  0.0715
  454MOL0     C61187   9.070   7.138   2.801  0.0700  0.3440  0.7631
  454MOL0     C61188   9.039   7.146   2.929 -0.1184 -0.4022 -0.7852
  454MOL0     C61189   8.909   7.118   2.968  0.0766 -0.9736  0.3219
  454MOL0     C61190   8.811   7.098   2.871  0.3123 -0.5046 -0.7473
  454MOL0     O61191   8.680   7.097   2.905  0.5516 -0.0172  0.8097
  454MOL0     C61192   8.595   7.011   2.823  1.4065  0.1192 -0.4670
  454MOL0     C61193   8.455   7.015   2.877 -0.0378 -0.2976 -0.0719
  454MOL0     C61194   8.347   6.948   2.794  0.0800 -0.8897 -0.5419
  454MOL0     C61195   8.308   7.042   2.679 -0.0526  0.3996 -0.3175
  454MOL0     C61196   8.214   6.954   2.592 -0.7168  0.3390 -0.3731
  454MOL0     C61197   8.180   7.036   2.462 -0.1820 -0.3255 -1.3012
  454MOL0     C61198   8.109   6.944   2.361 -0.5815  0.3861 -0.8323
  454MOL0     C61199   8.161   6.937   2.217 -1.1180 -0.2473  0.1839
  454MOL0    Cl61200   8.188   7.108   2.151  0.4795 -0.1910 -0.1149
  454MOL0     C61201   8.854   7.080   2.735  0.4333 -0.3790 -0.4014
  454MOL0     C61202   8.979   7.106   2.702 -0.6620  0.4514  0.1723
  454MOL0     O61203   9.220   6.909   2.793 -0.2754  0.0696 -0.4218
  454MOL0     C61204   9.477   6.907   2.719  0.1191  0.1147  0.3456
  454MOL0     C61205   9.607   6.904   2.680 -0.7512  0.6300  0.0989
  454MOL0     N61206  10.260   7.198   2.378  0.2810 -0.2101  0.2805
  454MOL0     N61207  10.357   7.283   2.406 -0.3607  0.2218  0.1664
  454MOL0     C61208  10.255   6.851   1.797 -0.1091  0.4993  0.2743
  454MOL0     C61209  10.126   6.839   1.819  0.9046 -0.0023 -0.5751
  454MOL0     C61210   9.751   6.659   1.954 -0.4508  0.4818  0.5595
  454MOL0     C61211   9.650   6.753   1.979 -0.5171 -0.2220  0.1258
  454MOL0     C61212   9.518   6.725   1.994 -0.0897  0.7152 -0.4508
  454MOL0     C61213   9.475   6.593   1.984 -1.0891  0.0991 -0.2047
  454MOL0     O61214   9.345   6.549   1.987  0.3611 -0.1183  0.0628
  454MOL0     C61215   9.247   6.633   2.037  0.2655 -0.1110  0.3015
  454MOL0     C61216   9.112   6.556   2.040 -0.0205  0.1461 -0.2105
  454MOL0     C61217   8.989   6.646   2.039  0.7294  0.3106  0.4107
  454MOL0     C61218   8.858   6.572   2.013 -0.2085  0.2007  0.0863
  454MOL0     C61219   8.845   6.481   2.129 -0.2247  0.3630  0.1159
  454MOL0     C61220   8.836   6.410   2.222 -0.3348 -0.1121 -0.5165
  454MOL0     C61221   9.574   6.494   1.960 -0.1252  0.4049 -0.1347
  454MOL0     C61222   9.711   6.525   1.943  0.1342 -0.1868  0.5876
  454MOL0     H61223  10.104   6.842   2.161 -2.9833 -1.6258 -0.6759
  454MOL0     H61224  10.345   6.896   2.135 -3.4502  1.1487  1.7021
  454MOL0     H61225  10.552   6.906   1.715 -0.2351  1.1956 -1.5762
  454MOL0     H61226  10.451   7.039   1.753  1.3053  0.5380 -0.6881
  454MOL0     H61227  10.732   6.966   1.841  0.2157  1.1531 -0.2414
  454MOL0     H61228  10.670   7.123   1.770 -1.5149  1.9323  1.7484
  454MOL0     H61229  10.568   7.175   1.989 -0.8403 -1.3010  0.1653
  454MOL0     H61230  10.626   7.022   2.053 -0.8271  0.8043  0.4886
  454MOL0     H61231  10.864   7.108   1.986 -0.9060 -0.7436 -1.4964
  454MOL0     H61232  10.772   7.260   1.982 -0.7125 -0.7159 -1.9649
  454MOL0     H61233  10.773   7.056   2.209 -0.8689  0.2554 -0.3527
  454MOL0     H61234  10.890   7.189   2.198 -0.1372  0.0110  1.8513
  454MOL0     H61235  10.692   7.359   2.237  0.2240 -0.1653  0.2092
  454MOL0     H61236  10.589   7.215   2.236 -0.1132 -0.2979  2.1840
  454MOL0     H61237  10.718   7.120   2.430  1.4584 -0.1522 -3.3657
  454MOL0     H61238  10.795   7.283   2.437 -1.2437  2.3878 -1.8368
  454MOL0     H61239  10.568   7.385   2.482  0.6080  0.6284 -2.9487
  454MOL0     H61240  10.610   7.256   2.600  0.8712  4.9330  0.1704
  454MOL0     H61241  10.473   7.005   2.538  5.0805  0.6819 -3.6409
  454MOL0     H61242  10.213   6.917   2.328 -0.3888 -0.3656  0.5700
  454MOL0     H61243  10.235   6.892   2.508 -2.3787 -1.2903 -0.9828
  454MOL0     H61244  10.003   6.886   2.466 -2.0929  0.0962  3.4915
  454MOL0     H61245  10.003   7.043   2.379 -0.6877  1.2809  2.1939
  454MOL0     H61246  10.097   7.159   2.573 -0.9364  0.4334 -2.8818
  454MOL0     H61247  10.086   7.000   2.666 -0.1086  0.8885  0.3142
  454MOL0     H61248   9.861   7.175   2.550 -0.3882  0.6563  0.2103
  454MOL0     H61249   9.903   7.167   2.716  1.4119  1.5758 -2.8732
  454MOL0     H61250   9.674   7.233   2.681  0.9476 -0.7715  0.3581
  454MOL0     H61251   9.386   7.277   2.859 -2.1186  0.4172  0.1147
  454MOL0     H61252   9.513   7.357   2.769 -1.8013  1.6121  0.6713
  454MOL0     H61253   9.370   7.329   2.685 -1.0652  1.5979  1.2441
  454MOL0     H61254   9.114   7.158   3.006  2.9000 -2.5404 -3.1407
  454MOL0     H61255   8.889   7.125   3.075 -0.5731 -0.0510  0.1552
  454MOL0     H61256   8.589   7.042   2.718 -0.2047 -0.3506 -0.5294
  454MOL0     H61257   8.633   6.910   2.836 -0.5859 -0.7187 -0.8430
  454MOL0     H61258   8.454   6.968   2.976  0.7802 -2.0583 -0.8560
  454MOL0     H61259   8.433   7.120   2.900  2.0848 -0.0360  1.0039
  454MOL0     H61260   8.263   6.938   2.862 -0.0742  1.0719 -0.3879
  454MOL0     H61261   8.373   6.848   2.757 -0.6762 -0.9933 -0.7948
  454MOL0     H61262   8.255   7.131   2.714 -1.1639  0.0105 -0.9927
  454MOL0     H61263   8.400   7.069   2.626 -0.1860  0.2485 -0.6308
  454MOL0     H61264   8.124   6.935   2.651 -0.3097  0.9191  0.4547
  454MOL0     H61265   8.257   6.855   2.576  0.0058  0.6503 -0.3775
  454MOL0     H61266   8.111   7.119   2.484  1.5069  0.7723  0.1664
  454MOL0     H61267   8.273   7.068   2.414 -0.3056 -2.4928 -3.1560
  454MOL0     H61268   8.003   6.966   2.349 -0.7462  0.0361 -0.0534
  454MOL0     H61269   8.116   6.843   2.403 -1.9797  0.3487 -0.6549
  454MOL0     H61270   8.093   6.881   2.151 -1.6727 -1.1212  1.4552
  454MOL0     H61271   8.256   6.884   2.226 -1.8738 -1.6745  0.2662
  454MOL0     H61272   8.775   7.067   2.662 -0.0466 -0.7938  0.1839
  454MOL0     H61273   9.001   7.082   2.599  1.0458 -1.6456  0.9633
  454MOL0     H61274   9.416   6.818   2.733 -0.2662  0.6415  2.3577
  454MOL0     H61275   9.649   6.805   2.664 -1.2206 -0.4387  4.2934
  454MOL0     H61276  10.305   6.837   1.701  0.0072  0.6337  0.3152
  454MOL0     H61277  10.047   6.838   1.745 -0.7151  1.0488  1.0510
  454MOL0     H61278   9.676   6.858   1.970 -0.1598 -0.2076  1.2558
  454MOL0     H61279   9.457   6.811   2.017  2.0424  2.1688  0.1115
  454MOL0     H61280   9.283   6.655   2.138  3.2385 -1.8257 -0.2717
  454MOL0     H61281   9.241   6.726   1.980 -2.5176 -1.3878 -1.6948
  454MOL0     H61282   9.118   6.482   2.120 -1.8845  0.5669  0.3644
  454MOL0     H61283   9.108   6.492   1.951  2.1261 -0.3073 -0.0373
  454MOL0     H61284   9.002   6.729   1.969 -0.0312 -1.8554 -2.5408
  454MOL0     H61285   8.987   6.686   2.140 -1.5753  0.1383  0.4723
  454MOL0     H61286   8.877   6.520   1.918 -2.2507  1.3552 -1.0087
  454MOL0     H61287   8.767   6.629   1.997 -0.4093  0.3156  1.5639
  454MOL0     H61288   8.829   6.353   2.312  3.5434  2.1937  1.5250
  454MOL0     H61289   9.555   6.387   1.958 -0.7462  0.5292 -1.4833
  454MOL0     H61290   9.789   6.450   1.932  1.4407  1.0998  0.7520
  455MOL0     O61291   4.588   3.896   3.235  0.4074 -0.3498  0.4597
  455MOL0     C61292   4.606   3.813   3.324 -0.9029  0.3312  0.1781
  455MOL0     O61293   4.509   3.758   3.396  0.1943 -0.5571  0.2829
  455MOL0     C61294   4.374   3.760   3.365 -0.3384  0.8029  0.0691
  455MOL0     C61295   4.323   3.744   3.236 -0.5737  0.1969  0.0927
  455MOL0     C61296   4.186   3.724   3.205  0.4702  0.8636  0.6937
  455MOL0     C61297   4.090   3.739   3.305 -0.4447  0.6707  0.0755
  455MOL0     O61298   3.955   3.743   3.281 -0.1347  0.1948 -0.6693
  455MOL0     C61299   3.923   3.835   3.175  0.3053  0.1410  0.9915
  455MOL0     C61300   3.856   3.765   3.060 -0.1998 -0.3558 -0.7957
  455MOL0     C61301   3.714   3.699   3.093  0.2268 -0.1876  0.1036
  455MOL0     C61302   3.650   3.630   2.973 -0.6050 -0.8134  0.3898
  455MOL0     C61303   3.523   3.563   3.011  0.1286  0.0406  0.0678
  455MOL0     C61304   3.431   3.523   2.898  0.0558  0.3174 -0.2276
  455MOL0     C61305   3.287   3.484   2.939 -1.3183 -0.1701  0.8706
  455MOL0     C61306   3.297   3.373   3.035 -0.1820  0.0801  0.0254
  455MOL0     N61307   3.167   3.310   3.061 -0.9772  0.2766 -0.2939
  455MOL0     C61308   3.082   3.240   2.981 -0.5038 -1.0025 -0.1411
  455MOL0     C61309   2.966   3.229   3.047  0.5334  0.4694  0.5788
  455MOL0     C61310   2.862   3.142   2.991 -0.0703  0.3300  0.3236
  455MOL0     C61311   2.789   3.194   2.860 -0.4474  0.0037  0.0217
  455MOL0     C61312   2.685   3.101   2.793 -0.6484  0.1472  0.3127
  455MOL0     C61313   2.610   3.015   2.895  0.3582 -0.9572  0.5025
  455MOL0     O61314   2.502   2.952   2.829  0.1461 -0.3549 -0.1950
  455MOL0     C61315   2.381   3.013   2.799  0.2535 -0.4526  0.0886
  455MOL0     C61316   2.367   3.152   2.812 -0.3474 -0.0568  0.6301
  455MOL0     C61317   2.240   3.206   2.781 -0.5636  0.6767 -1.0076
  455MOL0     C61318   2.224   3.359   2.807  0.5188  0.5806 -0.4795
  455MOL0     C61319   2.133   3.121   2.737 -0.3226 -0.0854 -0.8416
  455MOL0     C61320   2.004   3.183   2.698  0.2872 -0.0886  0.5115
  455MOL0     O61321   1.902   3.111   2.735 -0.3375  0.2473  0.7261
  455MOL0     C61322   1.782   3.166   2.717  0.7930  0.1627  0.1897
  455MOL0     C61323   1.739   3.269   2.798  0.5169 -0.4668  0.2260
  455MOL0     C61324   1.621   3.333   2.788 -0.0894 -0.0283  1.0074
  455MOL0     C61325   1.529   3.298   2.687 -0.5480  0.3848  0.0096
  455MOL0     O61326   1.418   3.378   2.670  0.4273 -0.0775 -0.4765
  455MOL0     C61327   1.379   3.407   2.533 -0.0177  0.2757 -0.7651
  455MOL0     C61328   1.247   3.489   2.527  0.4648  1.0725  0.1767
  455MOL0     C61329   1.222   3.547   2.386  0.3555  0.6414  0.2871
  455MOL0     C61330   1.089   3.621   2.378 -0.4438 -0.5075  0.0242
  455MOL0     C61331   1.092   3.723   2.264  0.0801 -0.3356  0.5743
  455MOL0     C61332   0.963   3.806   2.257 -0.6285  0.1370 -1.2434
  455MOL0     C61333   0.986   3.940   2.191  0.6139 -0.4345  0.8313
  455MOL0     C61334   0.859   4.024   2.214 -0.8702  0.1068 -0.2204
  455MOL0    Cl61335   0.709   3.959   2.126  0.0411 -0.1251  0.1865
  455MOL0     C61336   1.575   3.198   2.599  0.1007  0.6748  0.7797
  455MOL0     C61337   1.691   3.127   2.618  0.5119 -0.7428 -0.3749
  455MOL0     O61338   1.995   3.278   2.622 -0.1594  0.1763  0.0449
  455MOL0     C61339   2.159   2.985   2.719  0.1550  0.4531 -0.5560
  455MOL0     C61340   2.277   2.931   2.750  0.1688 -0.0132  0.1732
  455MOL0     N61341   2.977   3.291   3.169  0.3894  0.2464 -0.1160
  455MOL0     N61342   3.096   3.340   3.177 -1.2507  0.0399 -0.2682
  455MOL0     C61343   4.138   3.744   3.439 -0.2442 -0.1951 -0.1996
  455MOL0     C61344   4.275   3.749   3.470 -0.5122  0.4374 -0.4044
  455MOL0     C61345   4.748   3.782   3.373 -0.3538 -0.2665 -1.1185
  455MOL0     C61346   4.865   3.851   3.323  0.7186 -0.1461  0.3803
  455MOL0     C61347   4.988   3.824   3.360 -0.5759  0.0302 -0.3820
  455MOL0     C61348   5.018   3.721   3.453  0.0884 -0.5441  0.9707
  455MOL0     O61349   5.152   3.694   3.477 -0.4505  0.2655  0.5169
  455MOL0     C61350   5.198   3.580   3.548  1.1261 -0.0645 -0.5866
  455MOL0     C61351   5.190   3.619   3.700  0.4514  0.2283 -0.5484
  455MOL0     C61352   5.293   3.718   3.747  0.3524 -0.7389  1.6713
  455MOL0     C61353   5.425   3.646   3.782  0.8860  0.4884 -0.9249
  455MOL0     C61354   5.526   3.750   3.815 -0.2040  0.8271  0.4300
  455MOL0     C61355   5.612   3.841   3.821  0.0902  0.2249 -0.7977
  455MOL0     C61356   4.904   3.663   3.515  0.3283 -0.6137  0.2246
  455MOL0     C61357   4.771   3.694   3.480  0.2815 -0.0414  0.3203
  455MOL0     H61358   4.396   3.761   3.157  0.5602  0.8843  1.2436
  455MOL0     H61359   4.151   3.715   3.102  1.1016 -1.0013  0.6061
  455MOL0     H61360   3.848   3.906   3.213  1.0037  0.9677  0.8512
  455MOL0     H61361   4.009   3.888   3.134  0.6958 -0.8332  0.5192
  455MOL0     H61362   3.831   3.846   2.992  1.0082  0.6688 -0.0632
  455MOL0     H61363   3.930   3.695   3.021 -1.2499 -1.2540 -1.2246
  455MOL0     H61364   3.730   3.638   3.182 -2.9021 -0.9010  0.3076
  455MOL0     H61365   3.637   3.768   3.130 -0.9963 -1.8069  0.7146
  455MOL0     H61366   3.627   3.718   2.913  0.4079  0.3501  1.6595
  455MOL0     H61367   3.726   3.581   2.911  1.2505  0.0690  1.8637
  455MOL0     H61368   3.558   3.476   3.068  2.6203  0.1002 -1.2391
  455MOL0     H61369   3.472   3.615   3.093  1.3409 -1.8717  2.1729
  455MOL0     H61370   3.418   3.608   2.830  0.5073  0.6292  0.0672
  455MOL0     H61371   3.483   3.439   2.852 -2.2157 -0.3119 -1.8188
  455MOL0     H61372   3.239   3.578   2.968  1.1458  1.0004  1.4632
  455MOL0     H61373   3.236   3.457   2.846 -1.2628  1.4210  0.3454
  455MOL0     H61374   3.344   3.412   3.126  1.1356  0.7993 -0.9245
  455MOL0     H61375   3.371   3.301   2.999  3.0622  2.6259  1.0572
  455MOL0     H61376   3.116   3.210   2.882  0.4153  1.3923 -0.6361
  455MOL0     H61377   2.904   3.047   2.955  3.5317  1.7093  0.4632
  455MOL0     H61378   2.782   3.124   3.064 -3.9496  3.2824 -2.7487
  455MOL0     H61379   2.863   3.211   2.782 -1.5446 -0.7409 -1.2057
  455MOL0     H61380   2.749   3.289   2.895  2.7508  0.6355  2.5039
  455MOL0     H61381   2.744   3.032   2.732  1.7718  1.1380  1.3665
  455MOL0     H61382   2.623   3.147   2.716  0.0624  0.1616 -0.2655
  455MOL0     H61383   2.573   3.087   2.969 -0.6242 -0.4746 -0.4284
  455MOL0     H61384   2.684   2.945   2.933  2.8301 -0.6776 -3.2722
  455MOL0     H61385   2.445   3.215   2.853  0.6262 -2.1103  2.1709
  455MOL0     H61386   2.167   3.407   2.726 -0.1556  1.4792  0.5020
  455MOL0     H61387   2.163   3.379   2.896 -0.6732 -1.4623 -0.7678
  455MOL0     H61388   2.315   3.420   2.807  1.3405 -0.6159 -0.4189
  455MOL0     H61389   1.809   3.304   2.874  0.4610  0.1763 -0.0143
  455MOL0     H61390   1.593   3.402   2.867 -0.7989  0.3573  0.4329
  455MOL0     H61391   1.461   3.469   2.495  0.7458 -0.1016  0.2191
  455MOL0     H61392   1.354   3.313   2.482  2.5362 -0.4385 -0.8354
  455MOL0     H61393   1.169   3.420   2.559  2.4692 -0.3935  2.1601
  455MOL0     H61394   1.243   3.572   2.598 -0.9877  0.9663  0.2485
  455MOL0     H61395   1.229   3.480   2.300  0.4671  1.5948 -0.4606
  455MOL0     H61396   1.301   3.622   2.379  2.6847 -1.7186 -0.2964
  455MOL0     H61397   1.006   3.551   2.372 -0.0439 -0.9541 -0.3755
  455MOL0     H61398   1.082   3.677   2.472  2.9134 -2.7488  1.8168
  455MOL0     H61399   1.124   3.690   2.164  1.1019  3.4458 -0.5215
  455MOL0     H61400   1.167   3.794   2.298 -0.4637  0.1660  0.7314
  455MOL0     H61401   0.880   3.764   2.200 -0.2193 -0.0419 -1.7223
  455MOL0     H61402   0.930   3.825   2.359  0.5086  0.1539 -0.8683
  455MOL0     H61403   1.016   3.926   2.086  2.8433  0.9978  1.2136
  455MOL0     H61404   1.066   3.996   2.241 -0.0840 -0.2191  1.7264
  455MOL0     H61405   0.874   4.128   2.185 -2.4971  0.3452 -0.2803
  455MOL0     H61406   0.843   4.025   2.322 -1.3834  1.8260 -0.2974
  455MOL0     H61407   1.511   3.166   2.518 -1.4211  1.3375  1.6593
  455MOL0     H61408   1.717   3.045   2.552  1.9595 -1.9453  1.5669
  455MOL0     H61409   2.081   2.920   2.681 -0.1569  0.3334  0.2660
  455MOL0     H61410   2.296   2.825   2.760 -0.8239 -0.1313  0.9118
  455MOL0     H61411   4.056   3.722   3.506  0.8545  0.0959  1.2841
  455MOL0     H61412   4.299   3.746   3.576  0.4057 -2.4210 -0.6168
  455MOL0     H61413   4.847   3.923   3.244  0.9432 -0.0330  0.4312
  455MOL0     H61414   5.059   3.884   3.304 -0.5129 -2.3725 -3.0798
  455MOL0     H61415   5.139   3.489   3.531  1.5346  0.0594 -2.8882
  455MOL0     H61416   5.302   3.564   3.520  0.6681  0.8927 -3.0190
  455MOL0     H61417   5.202   3.527   3.758 -1.0498 -0.1707 -0.8433
  455MOL0     H61418   5.096   3.670   3.721  0.8494  0.0180  1.9807
  455MOL0     H61419   5.251   3.775   3.830 -2.8790 -0.0839 -0.2408
  455MOL0     H61420   5.303   3.790   3.666 -2.0477 -5.1960 -3.1891
  455MOL0     H61421   5.457   3.577   3.703  2.9896  0.7073 -0.3264
  455MOL0     H61422   5.411   3.580   3.869  0.9686  0.5950 -0.8305
  455MOL0     H61423   5.683   3.919   3.839 -0.7671  0.9114 -0.3190
  455MOL0     H61424   4.922   3.588   3.591  2.5393  1.5421  2.0027
  455MOL0     H61425   4.696   3.640   3.537  1.0464 -0.0319  1.3775
  456MOL0     O61426   1.863   3.023   5.562 -0.1588 -0.4842 -1.0926
  456MOL0     C61427   1.900   3.061   5.453 -0.0309 -0.0292  0.6195
  456MOL0     O61428   1.813   3.077   5.355 -0.9813  0.6170  0.0918
  456MOL0     C61429   1.684   3.112   5.391  0.1715  0.2341 -0.1731
  456MOL0     C61430   1.645   3.211   5.482 -1.3316 -0.2315  0.4264
  456MOL0     C61431   1.519   3.238   5.516 -0.2748  0.6462 -0.9950
  456MOL0     C61432   1.417   3.166   5.464  0.8046  0.3351  0.1034
  456MOL0     O61433   1.293   3.177   5.526  0.0302  0.3645  0.3808
  456MOL0     C61434   1.174   3.127   5.462 -0.7240 -0.0807  1.3006
  456MOL0     C61435   1.068   3.158   5.562  0.1790 -0.3337  0.8961
  456MOL0     C61436   0.922   3.112   5.537  0.0502  0.1994 -0.0069
  456MOL0     C61437   0.835   3.158   5.658  0.1226  0.3926  0.7182
  456MOL0     C61438   0.695   3.125   5.610 -0.4329  0.1786 -0.4126
  456MOL0     C61439   0.600   3.179   5.715  0.0633  0.0259 -0.3051
  456MOL0     C61440   0.456   3.172   5.679  1.0367  0.5569 -0.2579
  456MOL0     C61441   0.405   3.021   5.692  0.2112 -0.7762 -0.7991
  456MOL0     N61442   0.255   3.007   5.673 -0.2705  0.2793 -0.4249
  456MOL0     C61443   0.179   2.987   5.564 -0.7118  0.1781  0.8176
  456MOL0     C61444   0.053   2.971   5.605 -0.0113 -0.7249  0.0727
  456MOL0     C61445  -0.073   2.957   5.526 -0.0448 -0.2604 -0.2292
  456MOL0     C61446  -0.090   3.087   5.442  0.4537  0.0743  0.0282
  456MOL0     C61447  -0.159   3.063   5.303 -0.2464 -0.3388 -0.3638
  456MOL0     C61448  -0.296   3.024   5.320 -0.0393 -0.2510  0.0195
  456MOL0     O61449  -0.383   3.133   5.374  0.0152 -0.0579 -0.2935
  456MOL0     C61450  -0.518   3.122   5.358  0.3845 -0.5198  0.2473
  456MOL0     C61451  -0.591   3.100   5.472 -0.2586  0.3606 -1.1035
  456MOL0     C61452  -0.730   3.081   5.471 -0.3703  0.0999 -0.5025
  456MOL0     C61453  -0.780   3.052   5.612  0.5022 -0.3964  0.3087
  456MOL0     C61454  -0.801   3.090   5.355  0.0028 -0.1566  0.3400
  456MOL0     C61455  -0.950   3.081   5.347  0.0025 -1.0136 -0.0357
  456MOL0     O61456  -1.003   3.125   5.229 -0.3416  0.3898  0.0574
  456MOL0     C61457  -1.139   3.133   5.199  0.5739 -0.1714  0.4227
  456MOL0     C61458  -1.189   3.085   5.073  0.1798  0.5080 -0.2303
  456MOL0     C61459  -1.317   3.114   5.036 -0.2644  0.1095  0.1801
  456MOL0     C61460  -1.402   3.187   5.112 -0.5308 -0.1127 -0.0209
  456MOL0     O61461  -1.531   3.209   5.066  0.0974  0.4599  0.2467
  456MOL0     C61462  -1.584   3.334   5.073  0.6273  0.3363  0.0284
  456MOL0     C61463  -1.718   3.312   4.997  0.3715  0.9363 -0.3643
  456MOL0     C61464  -1.809   3.449   5.003 -0.4216 -0.4303 -0.0874
  456MOL0     C61465  -1.951   3.413   4.972  0.4712 -0.2534 -0.3228
  456MOL0     C61466  -2.037   3.535   4.985  0.2797 -0.0237  0.1510
  456MOL0     C61467  -2.180   3.496   4.947 -0.4628  0.3109 -0.0497
  456MOL0     C61468  -2.273   3.613   4.958  0.1167 -0.5180 -0.2019
  456MOL0     C61469  -2.414   3.565   4.947 -0.7005 -0.8939  0.3687
  456MOL0    Cl61470  -2.518   3.707   4.980 -0.0259  0.3477  0.3169
  456MOL0     C61471  -1.353   3.249   5.232  0.1639  0.5598  0.0793
  456MOL0     C61472  -1.220   3.214   5.277  0.1891 -0.0970 -0.0774
  456MOL0     O61473  -1.014   3.023   5.435  0.1397  0.0617  0.6955
  456MOL0     C61474  -0.730   3.105   5.239  0.1628 -0.4382 -0.3631
  456MOL0     C61475  -0.588   3.118   5.240  0.0438 -0.1478 -0.4610
  456MOL0     N61476   0.053   2.972   5.747  0.1733  0.2654  0.4503
  456MOL0     N61477   0.174   3.005   5.782  0.8843 -0.6044 -0.0973
  456MOL0     C61478   1.443   3.077   5.356  0.2926  0.8615  0.2108
  456MOL0     C61479   1.576   3.040   5.328 -0.2428 -0.0255  0.0808
  456MOL0     C61480   2.044   3.093   5.430 -0.1055 -0.4181  0.3123
  456MOL0     C61481   2.091   3.161   5.320 -0.5880 -0.3852 -0.0500
  456MOL0     C61482   2.230   3.187   5.295 -0.2082 -0.7458 -0.2920
  456MOL0     C61483   2.322   3.156   5.399 -0.5422 -0.1362 -0.7247
  456MOL0     O61484   2.456   3.182   5.402 -0.1357  0.3539 -0.4389
  456MOL0     C61485   2.505   3.241   5.284 -0.4455  0.1167  0.4939
  456MOL0     C61486   2.653   3.262   5.288  0.1302  0.2881 -0.0227
  456MOL0     C61487   2.704   3.352   5.404 -0.8508  0.2409  0.0254
  456MOL0     C61488   2.850   3.325   5.432  0.3761  0.9858  0.1170
  456MOL0     C61489   2.943   3.333   5.317  1.0622 -0.1470  0.5823
  456MOL0     C61490   3.005   3.350   5.213 -0.6052  0.4356 -0.0995
  456MOL0     C61491   2.273   3.098   5.518 -1.3634  0.0983 -0.0192
  456MOL0     C61492   2.140   3.059   5.532 -0.3311  0.2915 -0.5517
  456MOL0     H61493   1.724   3.273   5.521 -1.7060  2.7914 -3.1092
  456MOL0     H61494   1.502   3.297   5.606 -0.7946 -2.3482  1.0106
  456MOL0     H61495   1.141   3.168   5.366  2.8020 -2.5251 -1.2160
  456MOL0     H61496   1.185   3.018   5.451 -0.6300 -0.0426  1.0017
  456MOL0     H61497   1.102   3.129   5.662  0.0614  1.3139  1.4355
  456MOL0     H61498   1.062   3.267   5.567 -1.9284 -0.3203 -0.6583
  456MOL0     H61499   0.890   3.152   5.441 -1.0924  0.3964  0.4382
  456MOL0     H61500   0.930   3.003   5.539  0.7736  0.2508  0.4816
  456MOL0     H61501   0.871   3.116   5.752  4.2208  3.4200  0.7898
  456MOL0     H61502   0.852   3.266   5.662 -4.3035  1.3991 -1.1855
  456MOL0     H61503   0.676   3.178   5.517  0.6146 -0.2475 -0.8856
  456MOL0     H61504   0.687   3.016   5.603  0.4887 -0.1966  2.6381
  456MOL0     H61505   0.619   3.130   5.811 -1.9035  0.4604  0.3339
  456MOL0     H61506   0.629   3.284   5.716  0.7846 -0.1471  1.2774
  456MOL0     H61507   0.393   3.231   5.746  2.0293  1.7712 -0.3484
  456MOL0     H61508   0.436   3.221   5.583 -0.5772  1.4644  0.4914
  456MOL0     H61509   0.449   2.987   5.787 -0.5720  5.0114  2.0603
  456MOL0     H61510   0.449   2.962   5.611  1.3446  1.4889 -1.9062
  456MOL0     H61511   0.213   2.996   5.461  0.1696 -1.9891  0.8550
  456MOL0     H61512  -0.057   2.872   5.458 -0.2474 -0.0764 -0.5060
  456MOL0     H61513  -0.157   2.928   5.589 -1.1830 -1.1637 -2.0624
  456MOL0     H61514   0.009   3.131   5.430  0.3359  1.3586  2.8424
  456MOL0     H61515  -0.149   3.162   5.497 -0.0196  1.3307 -2.0826
  456MOL0     H61516  -0.105   2.982   5.253  3.0422  0.6904  1.2178
  456MOL0     H61517  -0.161   3.145   5.230  1.0962 -1.5983 -1.8806
  456MOL0     H61518  -0.300   2.935   5.384 -0.7674 -0.4411 -0.2851
  456MOL0     H61519  -0.333   3.015   5.218 -1.1229 -2.6007  0.5504
  456MOL0     H61520  -0.537   3.105   5.566 -0.5464  0.3257 -0.9370
  456MOL0     H61521  -0.826   3.144   5.649 -2.0106 -1.5027  0.1166
  456MOL0     H61522  -0.846   2.966   5.603  1.8461 -1.9268  3.3872
  456MOL0     H61523  -0.693   3.020   5.672  1.0772 -0.8387 -0.7388
  456MOL0     H61524  -1.123   3.028   5.008 -1.2179 -2.8565  1.0848
  456MOL0     H61525  -1.349   3.074   4.940 -0.2899 -0.0853  0.2704
  456MOL0     H61526  -1.602   3.363   5.177  2.9454 -1.4275  1.0019
  456MOL0     H61527  -1.511   3.402   5.029  1.7533 -1.6139 -1.2710
  456MOL0     H61528  -1.709   3.285   4.892  0.6691 -0.3861 -0.0096
  456MOL0     H61529  -1.778   3.227   5.029 -0.3387  1.4888 -0.2145
  456MOL0     H61530  -1.769   3.522   4.932 -0.7239  1.5060  1.6455
  456MOL0     H61531  -1.810   3.499   5.101 -1.7160  0.0752 -0.3380
  456MOL0     H61532  -1.971   3.377   4.871 -0.0471  2.5325 -1.2971
  456MOL0     H61533  -1.992   3.342   5.046 -0.0573 -0.5551 -0.8911
  456MOL0     H61534  -1.994   3.612   4.920  2.1086 -0.2594  1.0408
  456MOL0     H61535  -2.034   3.572   5.088  0.6379 -2.1304  0.9439
  456MOL0     H61536  -2.187   3.451   4.847 -2.4982  0.7712 -0.1729
  456MOL0     H61537  -2.218   3.428   5.024 -0.1607  0.8532  0.5857
  456MOL0     H61538  -2.254   3.676   4.871 -1.6059 -1.7572 -1.5534
  456MOL0     H61539  -2.267   3.661   5.056  0.9884 -2.9365  1.0079
  456MOL0     H61540  -2.441   3.491   5.023 -0.2431 -0.1843  1.2382
  456MOL0     H61541  -2.420   3.523   4.846  2.4199  4.8721 -2.7159
  456MOL0     H61542  -1.425   3.307   5.289  0.0774  0.5382 -0.0074
  456MOL0     H61543  -1.186   3.237   5.378  1.9913  0.3394 -0.7479
  456MOL0     H61544  -0.766   3.119   5.138  2.4958  0.0596 -1.1955
  456MOL0     H61545  -0.542   3.119   5.141  1.4522 -3.1032  0.0528
  456MOL0     H61546   1.363   3.026   5.304 -0.3804 -0.6184  2.5539
  456MOL0     H61547   1.600   2.962   5.257 -1.7887 -1.0632  0.6533
  456MOL0     H61548   2.016   3.194   5.249 -0.6028  0.5221  0.3765
  456MOL0     H61549   2.259   3.241   5.206 -3.5769 -0.5519 -1.4192
  456MOL0     H61550   2.484   3.184   5.193  2.2425 -0.7078  0.3016
  456MOL0     H61551   2.471   3.344   5.269  0.0853  0.5638  2.1318
  456MOL0     H61552   2.690   3.307   5.195  0.6475 -0.5216 -0.2206
  456MOL0     H61553   2.688   3.159   5.296 -1.5734 -0.2214  1.5197
  456MOL0     H61554   2.646   3.333   5.495 -1.8066  1.5065 -0.2816
  456MOL0     H61555   2.684   3.453   5.366  0.0461 -0.0793 -1.3439
  456MOL0     H61556   2.855   3.218   5.457  1.1719  1.5183  2.4272
  456MOL0     H61557   2.889   3.378   5.519 -0.6896  1.0505  0.5698
  456MOL0     H61558   3.062   3.353   5.123 -0.7040  1.6170 -0.1303
  456MOL0     H61559   2.336   3.087   5.606 -0.6422  0.3865 -0.4929
  456MOL0     H61560   2.119   3.009   5.626  1.0585 -0.0930 -0.4337
  457MOL0     O61561   7.909   2.966   1.648  0.6804 -0.9688  0.8231
  457MOL0     C61562   7.933   2.869   1.574  0.3482  0.0187 -0.6096
  457MOL0     O61563   7.836   2.784   1.530 -0.3073 -0.2683  0.1071
  457MOL0     C61564   7.697   2.807   1.545 -0.5553  0.5453  0.7045
  457MOL0     C61565   7.630   2.921   1.596  0.0814 -0.7562 -0.5279
  457MOL0     C61566   7.493   2.929   1.607  0.5404  0.2447  0.9898
  457MOL0     C61567   7.415   2.812   1.574  0.6446 -0.5723  0.0976
  457MOL0     O61568   7.276   2.803   1.601  0.7993 -0.0575 -0.1665
  457MOL0     C61569   7.245   2.688   1.682 -1.1533 -0.5166 -1.4830
  457MOL0     C61570   7.102   2.710   1.737 -0.0258 -0.1434  0.9289
  457MOL0     C61571   7.064   2.586   1.822  1.0275 -0.7263 -1.1234
  457MOL0     C61572   6.950   2.636   1.919 -0.1540 -0.1134  0.0327
  457MOL0     C61573   6.896   2.518   2.000  0.1416  0.2060 -0.0221
  457MOL0     C61574   6.774   2.564   2.078  0.0243  0.0315  0.1522
  457MOL0     C61575   6.708   2.433   2.127 -0.4878 -0.2813 -1.0688
  457MOL0     C61576   6.627   2.361   2.014 -0.4487 -0.6993 -0.9029
  457MOL0     N61577   6.511   2.434   1.947  0.3088  0.3122  0.5670
  457MOL0     C61578   6.419   2.532   1.997 -0.3679  0.1637 -1.4069
  457MOL0     C61579   6.374   2.589   1.882 -0.3535 -0.4944  0.3060
  457MOL0     C61580   6.276   2.702   1.860 -0.1215  0.5778  0.2999
  457MOL0     C61581   6.136   2.658   1.845  0.2169  0.2039  0.2328
  457MOL0     C61582   6.057   2.770   1.780  0.3406 -0.3941  0.1410
  457MOL0     C61583   5.904   2.747   1.804 -0.3305  0.0260  0.9992
  457MOL0     O61584   5.852   2.634   1.739  0.4255 -0.0368 -0.7145
  457MOL0     C61585   5.710   2.624   1.723 -0.7870 -0.1232  0.7281
  457MOL0     C61586   5.623   2.671   1.810  0.0939  0.6223 -0.1917
  457MOL0     C61587   5.482   2.669   1.796 -0.3367  1.1587 -0.7719
  457MOL0     C61588   5.409   2.729   1.911  0.1100 -0.3136 -0.7203
  457MOL0     C61589   5.430   2.603   1.680  0.3420  0.0163  0.8692
  457MOL0     C61590   5.284   2.580   1.646  0.1676 -0.2863 -0.5545
  457MOL0     O61591   5.201   2.633   1.730 -0.1910  0.2140  0.1534
  457MOL0     C61592   5.070   2.591   1.742 -0.2780  0.0749 -0.9266
  457MOL0     C61593   5.025   2.466   1.706 -0.0136 -0.0528 -0.6271
  457MOL0     C61594   4.888   2.427   1.727 -0.1253 -0.1859 -0.5685
  457MOL0     C61595   4.801   2.518   1.795  0.2440  0.2025 -1.2421
  457MOL0     O61596   4.671   2.480   1.810 -0.1147 -0.0425  0.2161
  457MOL0     C61597   4.611   2.503   1.940 -0.7415  1.6926 -0.3358
  457MOL0     C61598   4.461   2.529   1.910 -0.0734  0.3028 -0.0450
  457MOL0     C61599   4.391   2.533   2.048  0.7511  0.6308  0.4177
  457MOL0     C61600   4.239   2.551   2.037 -0.6341 -0.5343  0.3694
  457MOL0     C61601   4.196   2.692   1.967  0.9936  0.2619  0.2972
  457MOL0     C61602   4.052   2.725   1.959  0.9860 -1.1942 -0.5895
  457MOL0     C61603   3.995   2.686   1.828 -0.3012  0.4028 -1.1218
  457MOL0     C61604   3.848   2.684   1.817  0.6614 -0.5618 -0.0336
  457MOL0    Cl61605   3.798   2.863   1.826 -0.1794  0.1951 -0.4666
  457MOL0     C61606   4.848   2.647   1.825  0.3429 -0.6730  0.9759
  457MOL0     C61607   4.982   2.682   1.794  0.5932 -0.8667  0.2731
  457MOL0     O61608   5.251   2.524   1.545 -0.4105  0.3455 -0.1399
  457MOL0     C61609   5.520   2.555   1.578 -0.2421 -0.4248  0.1373
  457MOL0     C61610   5.657   2.558   1.614  0.2616 -0.0385  0.4709
  457MOL0     N61611   6.424   2.518   1.775  0.7300 -0.0857 -0.1795
  457MOL0     N61612   6.506   2.429   1.815 -0.5180  0.3440 -0.1847
  457MOL0     C61613   7.481   2.708   1.506  0.5813  0.6495  0.2327
  457MOL0     C61614   7.622   2.706   1.490  0.4945  0.1308  0.1436
  457MOL0     C61615   8.072   2.840   1.549 -0.2808  0.2193 -0.7533
  457MOL0     C61616   8.097   2.713   1.494  0.4921 -1.5387 -0.0432
  457MOL0     C61617   8.224   2.685   1.462 -0.3694 -0.1929  0.2840
  457MOL0     C61618   8.332   2.771   1.488 -0.8815  0.2018  1.3391
  457MOL0     O61619   8.457   2.710   1.462  0.1533 -0.0635  0.1338
  457MOL0     C61620   8.570   2.788   1.469 -0.2862  0.5177  0.1148
  457MOL0     C61621   8.692   2.698   1.453 -0.3221 -0.2023  0.8308
  457MOL0     C61622   8.833   2.764   1.490  0.9830  0.8051 -0.4367
  457MOL0     C61623   8.937   2.665   1.444  0.4084  0.0919  0.9048
  457MOL0     C61624   9.072   2.713   1.485 -0.3438 -0.5829  0.2492
  457MOL0     C61625   9.173   2.772   1.518  0.6121  0.0558 -0.3938
  457MOL0     C61626   8.316   2.899   1.544  0.3638 -0.4467 -0.1680
  457MOL0     C61627   8.182   2.931   1.578  1.5811  0.1158  0.2899
  457MOL0     H61628   7.688   3.009   1.620  0.2414 -0.4432 -2.0034
  457MOL0     H61629   7.430   3.001   1.660  1.3024  1.9541 -0.3531
  457MOL0     H61630   7.260   2.601   1.618  3.8182 -0.6802 -0.4531
  457MOL0     H61631   7.314   2.667   1.764 -2.1915  1.5415  0.0180
  457MOL0     H61632   7.104   2.809   1.785  2.6519  1.7773 -2.6945
  457MOL0     H61633   7.037   2.728   1.651 -1.1721  1.6321  2.0895
  457MOL0     H61634   7.031   2.500   1.763 -1.5095  0.6582 -1.8696
  457MOL0     H61635   7.145   2.563   1.893  0.8876 -0.3470 -0.8391
  457MOL0     H61636   6.983   2.715   1.987  3.1203 -2.0221  0.8424
  457MOL0     H61637   6.870   2.680   1.858  1.4905  2.6619 -0.2936
  457MOL0     H61638   6.862   2.441   1.930 -4.1170  1.9110 -0.1520
  457MOL0     H61639   6.980   2.478   2.058  0.3482 -1.0794 -1.1475
  457MOL0     H61640   6.814   2.624   2.161 -1.5672 -0.2360  1.1488
  457MOL0     H61641   6.719   2.629   2.010 -0.0075  0.0912  0.2348
  457MOL0     H61642   6.772   2.359   2.176 -2.9946 -0.4643  2.2686
  457MOL0     H61643   6.636   2.464   2.204  0.6973 -2.5035  1.0661
  457MOL0     H61644   6.576   2.286   2.075 -1.9137  1.1004  0.1906
  457MOL0     H61645   6.694   2.316   1.940  0.9876 -0.4486  0.2130
  457MOL0     H61646   6.384   2.566   2.093 -0.0932  0.0259 -1.2548
  457MOL0     H61647   6.296   2.779   1.935  0.5539  1.6267 -0.9177
  457MOL0     H61648   6.309   2.750   1.767  0.3228 -0.1212  0.0939
  457MOL0     H61649   6.092   2.638   1.943  1.1467 -1.0169  0.4232
  457MOL0     H61650   6.137   2.564   1.790  1.8600 -1.1271  2.3892
  457MOL0     H61651   6.072   2.773   1.672  1.8529  0.0939  0.3478
  457MOL0     H61652   6.078   2.864   1.830  0.7713 -2.0445  3.3012
  457MOL0     H61653   5.855   2.833   1.757  0.5027  0.3822  0.7527
  457MOL0     H61654   5.880   2.754   1.910  0.2187 -1.2671  1.2283
  457MOL0     H61655   5.673   2.727   1.889  1.9147  1.1844 -1.6688
  457MOL0     H61656   5.469   2.793   1.975  1.6059 -1.0113 -1.3892
  457MOL0     H61657   5.326   2.794   1.880  0.0597 -1.7098 -3.9742
  457MOL0     H61658   5.371   2.646   1.971  3.1961 -0.2335  1.5442
  457MOL0     H61659   5.091   2.394   1.659 -0.7666  0.5831 -2.8141
  457MOL0     H61660   4.852   2.330   1.693  0.4112 -1.0956  1.2965
  457MOL0     H61661   4.616   2.414   2.003  1.2118  1.3428 -0.8977
  457MOL0     H61662   4.654   2.593   1.985  2.7462 -0.2561  0.5787
  457MOL0     H61663   4.432   2.621   1.859 -0.2819 -1.5752 -3.6111
  457MOL0     H61664   4.413   2.451   1.851  2.6612  0.1123 -2.2336
  457MOL0     H61665   4.437   2.613   2.107 -1.0296  1.2006  1.1111
  457MOL0     H61666   4.397   2.439   2.103 -2.4850 -0.2600 -0.5294
  457MOL0     H61667   4.186   2.471   1.985  1.5537 -1.7735 -0.1006
  457MOL0     H61668   4.206   2.543   2.141  1.0771 -2.8898  0.8271
  457MOL0     H61669   4.228   2.710   1.864 -0.7673  0.3883 -0.2571
  457MOL0     H61670   4.240   2.773   2.025  0.4181  0.7759  0.0239
  457MOL0     H61671   3.997   2.676   2.040  3.3074 -0.9719  1.2078
  457MOL0     H61672   4.028   2.829   1.983 -0.1833 -1.4514 -0.5711
  457MOL0     H61673   4.039   2.588   1.811  2.1571  1.1433  0.5374
  457MOL0     H61674   4.035   2.751   1.750  1.6364 -2.1647 -2.4260
  457MOL0     H61675   3.792   2.632   1.895  1.2263  1.1985  1.6153
  457MOL0     H61676   3.817   2.651   1.718  0.5263  2.5634 -1.1447
  457MOL0     H61677   4.784   2.720   1.874 -0.3820  0.7726 -1.8674
  457MOL0     H61678   5.021   2.778   1.825 -0.8078 -0.5888  1.2702
  457MOL0     H61679   5.500   2.517   1.478  1.6766  0.0377 -0.4687
  457MOL0     H61680   5.733   2.534   1.540 -2.0925  1.7869 -2.8044
  457MOL0     H61681   7.419   2.627   1.468  0.4966  0.0081  1.6792
  457MOL0     H61682   7.678   2.626   1.442 -1.8126 -2.4157  1.4007
  457MOL0     H61683   8.011   2.649   1.474  0.1747 -1.2475  0.3655
  457MOL0     H61684   8.238   2.586   1.420 -0.9673 -0.9046  1.6921
  457MOL0     H61685   8.568   2.875   1.402 -0.7797  0.5831  0.2082
  457MOL0     H61686   8.564   2.819   1.574  1.1162  0.5233  0.2013
  457MOL0     H61687   8.675   2.674   1.347 -1.7209 -2.4787  1.4901
  457MOL0     H61688   8.671   2.606   1.509 -1.7867  1.5164  3.2858
  457MOL0     H61689   8.852   2.775   1.597 -2.0929  1.9537  0.1005
  457MOL0     H61690   8.844   2.862   1.442  0.9546 -0.0379 -2.2544
  457MOL0     H61691   8.942   2.646   1.336  0.4430 -0.9661  1.0781
  457MOL0     H61692   8.920   2.565   1.486 -4.5262 -0.2977 -1.3138
  457MOL0     H61693   9.256   2.832   1.546  0.6472 -0.2138  0.0919
  457MOL0     H61694   8.397   2.969   1.561 -0.1758  0.3473 -0.8210
  457MOL0     H61695   8.165   3.029   1.620 -0.2151 -1.2947  3.2122
  458MOL0     O61696   6.610   2.104   9.670  0.8115  0.1451 -0.0637
  458MOL0     C61697   6.701   2.143   9.744 -0.2118 -0.5566 -0.2653
  458MOL0     O61698   6.704   2.262   9.814  0.2354  0.5284 -0.9706
  458MOL0     C61699   6.612   2.365   9.795 -0.5502  0.5785  1.0948
  458MOL0     C61700   6.608   2.449   9.902 -0.3991  0.0931 -0.7705
  458MOL0     C61701   6.520   2.558   9.904  0.9623 -0.2696  1.0971
  458MOL0     C61702   6.433   2.574   9.795  0.5091 -0.8991  0.0694
  458MOL0     O61703   6.351   2.685   9.798  0.6316 -0.3603  0.7388
  458MOL0     C61704   6.301   2.728   9.664 -0.6782 -0.2228  0.0396
  458MOL0     C61705   6.231   2.862   9.672 -0.0096  0.0463 -1.2267
  458MOL0     C61706   6.108   2.845   9.770 -0.5971 -0.0992  0.4206
  458MOL0     C61707   5.989   2.927   9.719 -0.7142  1.3376 -0.6154
  458MOL0     C61708   5.874   2.902   9.813  0.0172  0.2665 -0.2007
  458MOL0     C61709   5.748   2.956   9.751  0.0911  0.5152  0.2980
  458MOL0     C61710   5.631   2.919   9.835  0.5055  0.0247  0.1744
  458MOL0     C61711   5.503   2.981   9.774 -0.2009 -1.0521  0.0779
  458MOL0     N61712   5.480   2.961   9.628  0.5620  0.8786  0.1506
  458MOL0     C61713   5.450   2.837   9.565 -0.3842 -0.2888  0.5586
  458MOL0     C61714   5.411   2.872   9.446  1.0217  0.7054 -0.3930
  458MOL0     C61715   5.354   2.786   9.343 -0.3698  0.3187  0.4272
  458MOL0     C61716   5.203   2.801   9.311 -0.6590  0.0004  0.3708
  458MOL0     C61717   5.170   2.930   9.227  0.0942  0.5065 -0.4658
  458MOL0     C61718   5.028   2.941   9.177  0.3201 -0.3993 -0.2990
  458MOL0     O61719   5.028   3.054   9.080 -0.1442 -0.3061 -0.1519
  458MOL0     C61720   4.896   3.075   9.035  1.1663 -0.1691 -0.3402
  458MOL0     C61721   4.827   3.182   9.090  0.0805  0.5186 -0.0613
  458MOL0     C61722   4.698   3.225   9.048 -0.0212 -0.6947  0.5005
  458MOL0     C61723   4.659   3.359   9.095  0.4467  0.5143  0.1108
  458MOL0     C61724   4.617   3.137   8.977 -0.1463  0.5582 -0.0773
  458MOL0     C61725   4.475   3.161   8.936  0.7751  0.3218 -0.7522
  458MOL0     O61726   4.409   3.053   8.866 -0.5458 -0.4484 -0.1775
  458MOL0     C61727   4.281   3.065   8.817  0.0199  0.9307 -0.5047
  458MOL0     C61728   4.247   3.174   8.737  0.1428  0.0248 -0.5176
  458MOL0     C61729   4.113   3.199   8.702 -0.5202  0.1792 -0.9326
  458MOL0     C61730   4.010   3.111   8.746  0.6470 -0.7984 -0.9158
  458MOL0     O61731   3.885   3.151   8.718 -0.0070 -0.0305  0.1236
  458MOL0     C61732   3.792   3.057   8.669  0.1497  0.3711 -0.4031
  458MOL0     C61733   3.662   3.122   8.627 -0.3758 -0.5111 -0.2603
  458MOL0     C61734   3.549   3.033   8.580  0.1493  0.9118  0.7105
  458MOL0     C61735   3.488   2.953   8.688  0.2451 -0.0736 -0.0200
  458MOL0     C61736   3.373   2.859   8.636 -1.1730  0.6850 -0.9444
  458MOL0     C61737   3.269   2.937   8.552  0.2723  0.1763 -0.2120
  458MOL0     C61738   3.146   2.840   8.526 -0.1280 -0.4135 -0.4597
  458MOL0     C61739   3.138   2.806   8.373 -0.2587  0.4909  0.3850
  458MOL0    Cl61740   3.267   2.682   8.345  0.0384  0.2607  0.2634
  458MOL0     C61741   4.042   2.998   8.823  0.4692  0.1114  0.7483
  458MOL0     C61742   4.174   2.974   8.857 -0.4415 -0.7303  2.1114
  458MOL0     O61743   4.423   3.272   8.952 -0.0983 -0.1809  0.1950
  458MOL0     C61744   4.687   3.018   8.931 -0.2294 -0.1455 -0.2141
  458MOL0     C61745   4.825   2.993   8.947 -0.7918  0.2726 -0.2416
  458MOL0     N61746   5.428   3.005   9.430  0.7491 -0.6785  0.1611
  458MOL0     N61747   5.466   3.058   9.540  0.4374  0.2393 -0.3745
  458MOL0     C61748   6.434   2.482   9.690 -0.3194  0.4470  0.5232
  458MOL0     C61749   6.525   2.379   9.684  0.3066  0.6282 -0.1307
  458MOL0     C61750   6.801   2.046   9.779  0.3628 -0.0781 -0.5699
  458MOL0     C61751   6.806   1.921   9.712 -1.1088 -0.4159 -0.8486
  458MOL0     C61752   6.894   1.820   9.767 -0.2429  0.5126 -0.2545
  458MOL0     C61753   6.987   1.852   9.867  0.5519  0.0399  0.3824
  458MOL0     O61754   7.074   1.758   9.907 -0.9680  0.7597  0.2580
  458MOL0     C61755   7.080   1.631   9.829  0.6326  0.5910  0.2005
  458MOL0     C61756   7.198   1.541   9.890  0.1804  0.7153 -0.1268
  458MOL0     C61757   7.329   1.622   9.898 -0.7878  0.2798  0.3451
  458MOL0     C61758   7.445   1.523   9.912  1.0808 -0.2234 -0.0087
  458MOL0     C61759   7.569   1.591   9.958  0.6941 -0.4637  0.4687
  458MOL0     C61760   7.681   1.634   9.969  0.7103  0.3154 -0.3550
  458MOL0     C61761   6.986   1.984   9.925 -0.4792 -0.1168  0.5036
  458MOL0     C61762   6.888   2.074   9.884 -0.4836  1.0412 -0.3732
  458MOL0     H61763   6.677   2.427   9.983 -1.8413  0.1061  0.5151
  458MOL0     H61764   6.524   2.630   9.984 -1.3294  2.6995 -1.2431
  458MOL0     H61765   6.390   2.737   9.601 -0.4191 -0.4882  0.3649
  458MOL0     H61766   6.230   2.657   9.619 -0.0541 -0.5750 -0.3971
  458MOL0     H61767   6.293   2.934   9.726  0.2192 -0.8657 -0.2441
  458MOL0     H61768   6.192   2.905   9.579 -1.9800  2.7281  0.6636
  458MOL0     H61769   6.082   2.739   9.768  1.5131 -0.6503 -1.5468
  458MOL0     H61770   6.127   2.863   9.877 -3.2091 -1.9448  1.3129
  458MOL0     H61771   6.015   3.032   9.706 -2.0396  1.5623 -1.6694
  458MOL0     H61772   5.964   2.897   9.616 -2.2953  3.2692 -0.8648
  458MOL0     H61773   5.857   2.795   9.825 -0.0573  0.0354 -2.0505
  458MOL0     H61774   5.890   2.958   9.906 -1.6434 -1.3852  1.1697
  458MOL0     H61775   5.741   3.065   9.748 -1.2262  0.4300 -0.7835
  458MOL0     H61776   5.734   2.921   9.648 -1.3766 -0.4949  0.8039
  458MOL0     H61777   5.628   2.811   9.848 -0.3030  0.0476  0.2317
  458MOL0     H61778   5.633   2.963   9.935 -0.9940 -1.2993  0.8181
  458MOL0     H61779   5.499   3.088   9.796 -0.3978 -0.8675 -0.7896
  458MOL0     H61780   5.414   2.945   9.826 -0.9591  1.0076  0.2849
  458MOL0     H61781   5.452   2.745   9.623 -0.9542  1.3649  3.4066
  458MOL0     H61782   5.409   2.801   9.250  2.6709 -0.6841  1.9373
  458MOL0     H61783   5.384   2.684   9.368  0.3023 -0.0631 -1.7959
  458MOL0     H61784   5.148   2.795   9.405  1.4219 -2.2358  1.5616
  458MOL0     H61785   5.184   2.707   9.258  0.4626  0.6429 -1.2789
  458MOL0     H61786   5.231   2.924   9.136 -1.7683  2.1456 -1.9119
  458MOL0     H61787   5.203   3.023   9.275  0.5121  0.0838  0.0767
  458MOL0     H61788   4.957   2.962   9.258  0.8808  2.1158 -0.3649
  458MOL0     H61789   4.998   2.846   9.133  1.0268 -0.3060 -1.0003
  458MOL0     H61790   4.892   3.242   9.153 -0.5173  1.7320 -0.5732
  458MOL0     H61791   4.648   3.418   9.003 -1.6023 -3.6655 -2.6487
  458MOL0     H61792   4.564   3.354   9.149 -0.7467  1.7549 -1.7255
  458MOL0     H61793   4.731   3.399   9.166 -0.6267  2.0386  0.3859
  458MOL0     H61794   4.326   3.245   8.714 -2.4996  3.3972  0.1335
  458MOL0     H61795   4.082   3.281   8.638  0.0290  1.4268  0.3449
  458MOL0     H61796   3.846   3.018   8.582  2.0835  2.2245 -0.1208
  458MOL0     H61797   3.774   2.970   8.732 -0.4830  1.0111  0.3247
  458MOL0     H61798   3.627   3.192   8.704  0.1674  0.9191 -1.2780
  458MOL0     H61799   3.675   3.198   8.550  0.6844  2.0412  2.2909
  458MOL0     H61800   3.575   2.965   8.498  2.0379  0.5101  1.5811
  458MOL0     H61801   3.471   3.098   8.539  0.4086  0.6535 -0.2103
  458MOL0     H61802   3.571   2.902   8.738  0.4463 -0.1549 -0.4306
  458MOL0     H61803   3.438   3.024   8.754 -1.1268  0.5475 -1.6459
  458MOL0     H61804   3.334   2.806   8.723  0.1395  0.9016 -0.1921
  458MOL0     H61805   3.418   2.774   8.583 -2.3572  0.7712 -2.1237
  458MOL0     H61806   3.243   3.030   8.604  0.7782 -0.5649  1.4256
  458MOL0     H61807   3.315   2.970   8.458  0.2833  3.3536  0.7959
  458MOL0     H61808   3.048   2.883   8.548 -0.6790 -1.0827 -1.5185
  458MOL0     H61809   3.160   2.748   8.584 -1.2963 -1.4690 -1.7956
  458MOL0     H61810   3.149   2.896   8.311  1.5811 -1.2193 -1.9675
  458MOL0     H61811   3.046   2.757   8.341 -0.9281  2.0336 -0.1416
  458MOL0     H61812   3.962   2.936   8.859  0.5995 -0.1306  0.6210
  458MOL0     H61813   4.206   2.888   8.915  2.9204  0.2845  1.9803
  458MOL0     H61814   4.627   2.948   8.874  0.0950  0.7581 -1.7214
  458MOL0     H61815   4.880   2.903   8.920 -1.7359 -0.4411  0.1779
  458MOL0     H61816   6.360   2.482   9.610  1.5337 -3.6663 -1.5086
  458MOL0     H61817   6.501   2.309   9.605 -1.6490  1.5629 -0.4251
  458MOL0     H61818   6.749   1.911   9.620  0.2277  2.1713 -2.0895
  458MOL0     H61819   6.887   1.729   9.708  0.6954  1.3572 -1.7398
  458MOL0     H61820   6.982   1.583   9.839 -0.2156  1.5337 -2.8125
  458MOL0     H61821   7.094   1.639   9.721  3.2727  0.1779  0.4434
  458MOL0     H61822   7.195   1.453   9.824 -0.1298  0.5831  0.0628
  458MOL0     H61823   7.177   1.503   9.990 -0.3805 -1.1838 -0.9232
  458MOL0     H61824   7.334   1.692   9.982 -1.6073  1.2775 -0.4083
  458MOL0     H61825   7.331   1.679   9.805  2.1804  1.4569  1.0142
  458MOL0     H61826   7.470   1.481   9.814 -0.4817 -0.5502 -0.2963
  458MOL0     H61827   7.424   1.440   9.979 -0.9232 -0.2770 -0.6472
  458MOL0     H61828   7.781   1.670   9.968  1.5692 -1.6602  2.3633
  458MOL0     H61829   7.064   2.010   9.995  0.3164  0.0830 -0.4281
  458MOL0     H61830   6.882   2.170   9.933 -0.3158  1.3408 -0.9230
  459MOL0     O61831   1.119   6.265   3.484 -0.0784  0.4780 -0.3164
  459MOL0     C61832   1.119   6.229   3.367  0.4732  0.6651  0.3595
  459MOL0     O61833   1.222   6.169   3.301 -1.0330 -0.0510 -0.6447
  459MOL0     C61834   1.342   6.151   3.361  0.6580 -0.8873 -0.5277
  459MOL0     C61835   1.442   6.109   3.270  0.2629 -0.1466 -0.3268
  459MOL0     C61836   1.572   6.070   3.305 -0.4944  0.0242 -0.0837
  459MOL0     C61837   1.607   6.059   3.444 -0.2284 -0.2097 -0.2890
  459MOL0     O61838   1.731   6.012   3.485  0.2368  0.1337 -0.2576
  459MOL0     C61839   1.844   6.007   3.397  0.5038 -0.1916 -0.0084
  459MOL0     C61840   1.948   5.940   3.482 -0.7721  0.4310  0.1278
  459MOL0     C61841   2.083   5.964   3.413  0.4106  0.5216  0.2644
  459MOL0     C61842   2.203   5.899   3.489 -0.4508  0.1082 -0.6424
  459MOL0     C61843   2.331   5.905   3.410 -0.0027 -0.1129  0.1012
  459MOL0     C61844   2.311   5.833   3.274  0.0200  0.8516 -0.3306
  459MOL0     C61845   2.452   5.777   3.225 -0.4455 -0.0472 -1.0442
  459MOL0     C61846   2.457   5.693   3.097  0.2979 -0.1903 -0.5985
  459MOL0     N61847   2.392   5.765   2.987  0.0680 -0.2518 -0.2104
  459MOL0     C61848   2.289   5.722   2.907  0.0152  0.5061 -0.1413
  459MOL0     C61849   2.257   5.832   2.826 -0.3903 -0.0714 -1.4069
  459MOL0     C61850   2.168   5.832   2.707 -0.0895 -0.5964  0.0524
  459MOL0     C61851   2.032   5.793   2.744  0.3638  0.4983 -0.2253
  459MOL0     C61852   1.977   5.891   2.855  0.6322 -0.0682  0.0500
  459MOL0     C61853   1.855   5.826   2.917 -0.4332 -0.0820 -0.1581
  459MOL0     O61854   1.779   5.930   2.973  0.3610 -0.0883  0.3744
  459MOL0     C61855   1.649   5.911   2.942  1.0188 -0.2259  0.3624
  459MOL0     C61856   1.569   6.020   2.908  0.7591 -0.2405  0.4517
  459MOL0     C61857   1.437   6.007   2.893  0.3570  0.6911 -0.5860
  459MOL0     C61858   1.365   6.126   2.842  0.3815 -0.0231  0.4215
  459MOL0     C61859   1.372   5.894   2.940 -0.0082  0.3575  0.1146
  459MOL0     C61860   1.225   5.877   2.938  0.1644 -0.1280 -0.0707
  459MOL0     O61861   1.185   5.749   2.942 -0.4561  0.2745  0.0826
  459MOL0     C61862   1.053   5.719   2.950  0.5162  0.3892 -0.6140
  459MOL0     C61863   0.957   5.763   2.867  0.4107  0.5092 -0.1042
  459MOL0     C61864   0.831   5.719   2.880  0.3950 -0.1738 -0.4692
  459MOL0     C61865   0.790   5.639   2.990 -0.5184  0.4519 -0.0487
  459MOL0     O61866   0.655   5.626   3.001  0.5018 -0.0708 -0.4272
  459MOL0     C61867   0.595   5.619   3.132 -0.5926  0.2543  0.2046
  459MOL0     C61868   0.445   5.636   3.126  0.1034 -0.9396  0.2287
  459MOL0     C61869   0.370   5.554   3.020 -0.5885 -0.1537  0.4082
  459MOL0     C61870   0.220   5.584   3.007  0.3713  0.3685  0.4411
  459MOL0     C61871   0.148   5.486   2.919 -0.5861  0.5025  1.5611
  459MOL0     C61872  -0.002   5.491   2.931  0.1992 -0.3847 -0.4906
  459MOL0     C61873  -0.073   5.629   2.928 -0.3221 -0.6689  0.0981
  459MOL0     C61874  -0.162   5.651   3.052  0.3680 -0.0858 -0.0352
  459MOL0    Cl61875  -0.281   5.510   3.070  0.0825  0.2458  0.0435
  459MOL0     C61876   0.888   5.576   3.063 -0.0804 -0.0274  0.7832
  459MOL0     C61877   1.019   5.624   3.042  0.3170 -0.1020  0.1938
  459MOL0     O61878   1.146   5.970   2.924 -0.0612 -0.1028 -0.3643
  459MOL0     C61879   1.450   5.784   2.979  0.9288 -0.1922 -0.1485
  459MOL0     C61880   1.586   5.791   2.986  0.8985  0.4326  0.2564
  459MOL0     N61881   2.343   5.935   2.861  0.4235 -0.7993  0.0169
  459MOL0     N61882   2.426   5.889   2.950 -0.7682  0.5740  0.4619
  459MOL0     C61883   1.506   6.092   3.531 -0.3031  0.5993  0.2835
  459MOL0     C61884   1.376   6.140   3.496 -0.0566  0.0205  0.4651
  459MOL0     C61885   0.986   6.246   3.289 -0.3215  0.2250 -0.9148
  459MOL0     C61886   0.904   6.358   3.311  0.7038  0.4306  0.1128
  459MOL0     C61887   0.785   6.378   3.238 -0.0945  0.4680  0.3596
  459MOL0     C61888   0.745   6.289   3.137 -0.0309  0.1795  0.1810
  459MOL0     O61889   0.633   6.307   3.061  0.6853  0.1354  0.0344
  459MOL0     C61890   0.524   6.404   3.088  0.7754 -0.4552  0.3994
  459MOL0     C61891   0.407   6.387   2.995  0.4094 -0.1435  0.5079
  459MOL0     C61892   0.438   6.381   2.847  0.3332 -0.2838  0.2559
  459MOL0     C61893   0.323   6.391   2.752 -0.4671 -0.5149 -0.0099
  459MOL0     C61894   0.365   6.347   2.618 -0.2113 -0.0029 -0.2396
  459MOL0     C61895   0.423   6.311   2.520 -0.6083  0.0700 -0.3177
  459MOL0     C61896   0.830   6.183   3.108  0.2255  0.4506  0.1600
  459MOL0     C61897   0.955   6.158   3.181  0.2662  0.3834  0.8220
  459MOL0     H61898   1.418   6.103   3.165 -2.0959 -0.2856  0.1784
  459MOL0     H61899   1.636   6.048   3.221 -3.2944 -2.1795 -1.8053
  459MOL0     H61900   1.816   5.938   3.318  2.4185  0.2239 -1.1053
  459MOL0     H61901   1.879   6.108   3.375  3.1334 -0.6017  1.7936
  459MOL0     H61902   1.959   5.987   3.580  0.1749  0.2644  0.1140
  459MOL0     H61903   1.920   5.834   3.484 -0.3009  0.1357 -3.2252
  459MOL0     H61904   2.073   5.936   3.308 -3.5929  2.7201 -0.1590
  459MOL0     H61905   2.093   6.073   3.413  0.1970  0.5498 -0.5248
  459MOL0     H61906   2.227   5.955   3.580 -1.7283  0.9296 -0.7835
  459MOL0     H61907   2.174   5.797   3.517  0.3354  0.1353  0.2938
  459MOL0     H61908   2.371   6.005   3.390  1.9783 -1.0537 -0.9217
  459MOL0     H61909   2.403   5.853   3.474 -0.7906 -2.1735 -0.5876
  459MOL0     H61910   2.238   5.752   3.281 -0.2604  1.1249 -0.0611
  459MOL0     H61911   2.272   5.900   3.197  0.0248  3.3904  1.7183
  459MOL0     H61912   2.522   5.860   3.213  1.4427 -1.2441  1.0396
  459MOL0     H61913   2.493   5.719   3.308 -2.2927  1.5393  1.1191
  459MOL0     H61914   2.397   5.603   3.112 -1.1366  0.7279 -0.6911
  459MOL0     H61915   2.557   5.654   3.074 -0.0887 -1.4229 -0.2631
  459MOL0     H61916   2.245   5.624   2.891 -0.8274  0.8292  0.1324
  459MOL0     H61917   2.175   5.934   2.669 -2.1142 -1.1197 -1.9395
  459MOL0     H61918   2.206   5.765   2.629 -1.8199 -1.5544 -0.0268
  459MOL0     H61919   2.031   5.687   2.771  0.6356  0.4622 -0.3550
  459MOL0     H61920   1.961   5.796   2.660 -0.9028  2.2611  0.8240
  459MOL0     H61921   1.950   5.984   2.806 -2.6561 -0.4773  0.8604
  459MOL0     H61922   2.038   5.911   2.944 -0.0494 -1.0654  0.7764
  459MOL0     H61923   1.882   5.762   3.002 -0.4542  0.9674  0.6675
  459MOL0     H61924   1.802   5.764   2.844 -1.3710 -1.7270  1.8078
  459MOL0     H61925   1.614   6.115   2.879  0.2431 -0.1427 -0.0595
  459MOL0     H61926   1.422   6.198   2.782 -0.9068  1.0103  0.4168
  459MOL0     H61927   1.291   6.099   2.766  3.7154 -1.2016 -2.7233
  459MOL0     H61928   1.335   6.192   2.924 -0.6757  2.0885 -1.5452
  459MOL0     H61929   0.983   5.824   2.781  0.1724  0.2210 -0.3766
  459MOL0     H61930   0.747   5.770   2.834  0.5354  1.3370  0.8534
  459MOL0     H61931   0.611   5.515   3.162 -1.7542  0.1682  0.5597
  459MOL0     H61932   0.639   5.689   3.203 -2.1628  0.6329  0.8427
  459MOL0     H61933   0.408   5.611   3.225  0.2040 -0.6214  0.3503
  459MOL0     H61934   0.433   5.745   3.115 -1.2220 -0.8670  1.9478
  459MOL0     H61935   0.393   5.449   3.044 -0.5257  0.1694  1.9001
  459MOL0     H61936   0.415   5.575   2.923  0.1725  2.3078  1.2291
  459MOL0     H61937   0.172   5.579   3.106  0.2771 -0.4096  0.3658
  459MOL0     H61938   0.208   5.687   2.975  3.3584  0.1282 -1.8737
  459MOL0     H61939   0.185   5.384   2.937 -0.6823 -0.1506 -1.3907
  459MOL0     H61940   0.188   5.516   2.822  3.3098 -0.1717  2.8101
  459MOL0     H61941  -0.043   5.440   2.843 -0.3894 -0.0813 -0.3947
  459MOL0     H61942  -0.038   5.436   3.018 -1.7289 -0.1642 -1.1068
  459MOL0     H61943  -0.142   5.629   2.844 -0.6636 -0.8675  0.3743
  459MOL0     H61944  -0.008   5.715   2.910 -0.9080 -0.3706 -0.6117
  459MOL0     H61945  -0.222   5.742   3.042  1.4122  0.3060 -3.9150
  459MOL0     H61946  -0.090   5.655   3.135  1.5164 -1.1859 -0.9391
  459MOL0     H61947   0.854   5.497   3.129 -1.3663 -1.1710 -1.1432
  459MOL0     H61948   1.096   5.574   3.100 -1.6701 -2.8355  0.6722
  459MOL0     H61949   1.414   5.685   3.003  0.9619 -0.0348  0.5913
  459MOL0     H61950   1.646   5.714   3.033  1.9750  0.7459 -0.5527
  459MOL0     H61951   1.528   6.093   3.637 -1.6804 -3.2180  0.7658
  459MOL0     H61952   1.306   6.135   3.579  0.5598 -0.1374  0.9854
  459MOL0     H61953   0.937   6.424   3.391 -1.9627  1.6493  0.2999
  459MOL0     H61954   0.722   6.462   3.265  1.3752  1.2243  1.6227
  459MOL0     H61955   0.494   6.386   3.192  2.0482 -0.2450  0.8215
  459MOL0     H61956   0.548   6.511   3.078 -0.6086 -0.2088 -0.4876
  459MOL0     H61957   0.338   6.471   3.001 -2.0183 -1.7514 -1.9994
  459MOL0     H61958   0.358   6.291   3.014  0.6231 -0.9564 -2.4299
  459MOL0     H61959   0.494   6.289   2.825  0.1388 -0.5543  0.8654
  459MOL0     H61960   0.507   6.462   2.823  1.4759 -1.8263 -2.0965
  459MOL0     H61961   0.290   6.495   2.749 -0.6716 -0.4162  2.6557
  459MOL0     H61962   0.238   6.338   2.796 -0.0105  1.2369  3.3645
  459MOL0     H61963   0.479   6.254   2.448 -1.4838 -0.1698 -0.8134
  459MOL0     H61964   0.799   6.109   3.035  2.4835 -1.2647  0.8074
  459MOL0     H61965   1.025   6.081   3.150 -0.7808 -0.1433 -0.3553
  460MOL0     O61966   9.787   8.043  10.523  0.7123  0.2628  0.3142
  460MOL0     C61967   9.773   7.927  10.556  0.6076 -0.2464 -1.4046
  460MOL0     O61968   9.667   7.863  10.612  0.0837  0.0289  0.5046
  460MOL0     C61969   9.538   7.919  10.613 -0.0760 -0.5010 -0.1348
  460MOL0     C61970   9.498   8.049  10.567  0.9690  0.5137  0.1382
  460MOL0     C61971   9.357   8.076  10.564  0.1612 -0.1130 -1.3402
  460MOL0     C61972   9.265   7.980  10.609  0.1623  0.0115  0.3999
  460MOL0     O61973   9.139   8.040  10.624 -0.5778 -0.2870 -0.1392
  460MOL0     C61974   9.036   7.950  10.642 -0.5764  0.4851 -0.5953
  460MOL0     C61975   8.895   8.025  10.627 -0.0393  0.1614 -0.0182
  460MOL0     C61976   8.793   7.912  10.593  0.3235  0.1305 -0.2409
  460MOL0     C61977   8.662   7.993  10.573 -0.2727  0.4043 -0.1276
  460MOL0     C61978   8.552   7.913  10.493  1.5293 -0.3026  0.4258
  460MOL0     C61979   8.495   7.790  10.565 -0.2642  0.5534 -0.3320
  460MOL0     C61980   8.442   7.822  10.709 -0.3454  0.0596  0.4492
  460MOL0     C61981   8.350   7.943  10.719 -0.3934  0.0181 -0.0004
  460MOL0     N61982   8.232   7.946  10.625  0.4648 -0.0209 -0.3854
  460MOL0     C61983   8.126   7.862  10.648  0.0660  0.2086 -0.3725
  460MOL0     C61984   8.068   7.862  10.528 -0.6714 -0.4516  0.1599
  460MOL0     C61985   7.963   7.771  10.477  0.4067  0.3579 -0.5199
  460MOL0     C61986   8.024   7.633  10.480  0.5786  0.3748  0.5692
  460MOL0     C61987   7.917   7.522  10.465  0.2399  0.7507  0.0698
  460MOL0     C61988   7.970   7.389  10.420  0.5964 -0.6217 -0.9004
  460MOL0     O61989   7.883   7.279  10.451 -0.7817  0.3000  0.0761
  460MOL0     C61990   7.771   7.254  10.376 -1.0239 -0.5522 -0.5289
  460MOL0     C61991   7.739   7.321  10.256  0.6813 -0.6099 -0.5427
  460MOL0     C61992   7.611   7.303  10.197 -0.0432 -0.4149  1.2320
  460MOL0     C61993   7.588   7.376  10.066 -0.4015 -0.1925  0.2763
  460MOL0     C61994   7.514   7.225  10.257  0.3947 -0.3698  0.1076
  460MOL0     C61995   7.373   7.201  10.203  0.5667 -0.1193 -0.6666
  460MOL0     O61996   7.297   7.118  10.273 -0.1289 -0.1266  0.7207
  460MOL0     C61997   7.170   7.086  10.236  0.1388  0.5330  0.4786
  460MOL0     C61998   7.142   6.950  10.216  0.1108 -0.4873  0.0352
  460MOL0     C61999   7.013   6.907  10.196  0.0122  0.5385 -0.2696
  460MOL0     C62000   6.902   6.991  10.203  1.0835  0.1427 -0.5862
  460MOL0     O62001   6.776   6.932  10.214 -0.5892  0.5097  0.0468
  460MOL0     C62002   6.666   7.006  10.264 -0.2265 -0.6654  0.7487
  460MOL0     C62003   6.611   7.093  10.146  0.0851 -0.7597 -0.8567
  460MOL0     C62004   6.464   7.138  10.167 -0.5859  1.0715 -0.2609
  460MOL0     C62005   6.434   7.267  10.246 -0.1847 -0.1925 -1.1096
  460MOL0     C62006   6.449   7.248  10.396 -0.4526 -0.8221  0.4366
  460MOL0     C62007   6.360   7.354  10.464  0.0096 -0.6430  0.3970
  460MOL0     C62008   6.372   7.355  10.617  0.0921 -0.0853  0.1446
  460MOL0     C62009   6.367   7.489  10.684 -0.3608 -0.5299  0.4541
  460MOL0    Cl62010   6.216   7.591  10.643  0.5295  0.4006  0.3937
  460MOL0     C62011   6.929   7.125  10.225  0.0793 -0.3339  0.3540
  460MOL0     C62012   7.056   7.175  10.241 -0.2611 -0.0665  0.0344
  460MOL0     O62013   7.345   7.248  10.096  0.3342 -0.4872  0.1251
  460MOL0     C62014   7.549   7.159  10.373  0.0580 -0.2224 -0.1437
  460MOL0     C62015   7.672   7.175  10.432  0.0228  0.2960 -0.1169
  460MOL0     N62016   8.133   7.948  10.445 -0.2202  0.1965 -0.6179
  460MOL0     N62017   8.221   8.014  10.515  0.7845  0.0118  0.0183
  460MOL0     C62018   9.308   7.851  10.638  0.6120 -0.7018 -0.4994
  460MOL0     C62019   9.435   7.821  10.636 -0.4573  0.3661  0.5500
  460MOL0     C62020   9.894   7.844  10.589 -0.7410  0.0307  0.8433
  460MOL0     C62021  10.018   7.885  10.544  0.4226  0.7240 -0.3846
  460MOL0     C62022  10.126   7.801  10.537 -0.8128 -0.3827 -0.4438
  460MOL0     C62023  10.128   7.683  10.615 -0.0737 -0.3809  0.6207
  460MOL0     O62024  10.244   7.618  10.616 -0.6343  0.0823 -0.5781
  460MOL0     C62025  10.248   7.511  10.713 -0.2091 -1.1229 -1.0736
  460MOL0     C62026  10.382   7.442  10.708 -0.7742  0.1658  0.0068
  460MOL0     C62027  10.405   7.341  10.824 -0.1391 -0.1421  0.5378
  460MOL0     C62028  10.516   7.240  10.796 -0.2418 -0.1436  0.4047
  460MOL0     C62029  10.642   7.308  10.756  0.2160 -1.2043  0.8617
  460MOL0     C62030  10.747   7.364  10.723 -0.5464 -0.4936 -0.2527
  460MOL0     C62031  10.006   7.642  10.674  0.1572 -0.6029  0.2805
  460MOL0     C62032   9.888   7.720  10.658  0.3346  1.1869 -0.9866
  460MOL0     H62033   9.560   8.128  10.525 -0.9402  0.3540 -3.4112
  460MOL0     H62034   9.328   8.177  10.535  0.2045 -0.0840 -1.2798
  460MOL0     H62035   9.042   7.877  10.561  2.0194  0.4999 -0.5087
  460MOL0     H62036   9.027   7.904  10.741  2.0306 -0.5227 -0.7425
  460MOL0     H62037   8.862   8.069  10.722  1.2387 -1.2504  1.1445
  460MOL0     H62038   8.884   8.102  10.550 -3.2727  1.5855  1.6933
  460MOL0     H62039   8.832   7.841  10.520  2.8637 -1.7418  2.7023
  460MOL0     H62040   8.779   7.849  10.681  4.2497 -1.8749 -0.8238
  460MOL0     H62041   8.626   8.028  10.670 -0.3489  0.6883 -0.2577
  460MOL0     H62042   8.684   8.079  10.509 -1.0624  0.6471 -0.0786
  460MOL0     H62043   8.479   7.991  10.472  2.6883  1.3193  2.1507
  460MOL0     H62044   8.584   7.877  10.395 -2.7624  0.7200 -1.5762
  460MOL0     H62045   8.399   7.750  10.529 -1.2940 -1.3834  3.8625
  460MOL0     H62046   8.561   7.704  10.555 -1.3751 -0.4853  0.7895
  460MOL0     H62047   8.388   7.737  10.752  0.7353 -0.6030  0.5366
  460MOL0     H62048   8.525   7.825  10.780  0.5605  1.1094 -0.6189
  460MOL0     H62049   8.412   8.030  10.696  1.2212 -1.4167 -1.3385
  460MOL0     H62050   8.321   7.954  10.823 -1.8290 -2.8529 -0.0012
  460MOL0     H62051   8.114   7.800  10.736  3.4599 -0.4385 -0.2363
  460MOL0     H62052   7.871   7.763  10.536  1.5974 -2.2005  1.1671
  460MOL0     H62053   7.939   7.811  10.378 -0.5404  1.5780  0.1732
  460MOL0     H62054   8.066   7.614  10.579 -0.7073 -1.2742  0.8356
  460MOL0     H62055   8.101   7.633  10.402  0.2268  0.7199  0.2105
  460MOL0     H62056   7.839   7.556  10.396  1.3281  0.8848 -1.1185
  460MOL0     H62057   7.871   7.500  10.562  2.8605 -1.1937  0.9653
  460MOL0     H62058   8.068   7.363  10.461  0.3780  0.3588  0.3190
  460MOL0     H62059   7.983   7.391  10.312  1.5434 -0.1901 -0.7845
  460MOL0     H62060   7.806   7.388  10.203  1.4709 -2.3574 -1.8881
  460MOL0     H62061   7.586   7.314   9.976  1.4631  0.0855 -0.0016
  460MOL0     H62062   7.495   7.432  10.079 -1.2395 -1.1175 -1.4382
  460MOL0     H62063   7.663   7.454  10.050  0.0535 -0.6339  0.2259
  460MOL0     H62064   7.222   6.878  10.205 -0.3642 -0.6381 -3.7925
  460MOL0     H62065   7.006   6.801  10.173  1.2683  0.3347  0.2264
  460MOL0     H62066   6.588   6.935  10.294 -1.9796  1.5644  1.7965
  460MOL0     H62067   6.681   7.070  10.352  2.8180  0.6210 -0.6005
  460MOL0     H62068   6.676   7.180  10.128  1.9402 -1.6034  1.3045
  460MOL0     H62069   6.616   7.037  10.052 -1.0843  1.3828 -2.2901
  460MOL0     H62070   6.417   7.046  10.204  0.1261  0.1227 -1.6566
  460MOL0     H62071   6.413   7.151  10.071  0.6647  0.1525 -1.0686
  460MOL0     H62072   6.504   7.344  10.211  0.1717 -0.4407 -0.9430
  460MOL0     H62073   6.328   7.287  10.229 -0.8778  1.5328  3.6508
  460MOL0     H62074   6.552   7.260  10.429 -0.7013  0.9083  0.6801
  460MOL0     H62075   6.417   7.146  10.422  0.1470 -0.5610  2.3512
  460MOL0     H62076   6.387   7.457  10.438 -3.2911  1.4298  4.0783
  460MOL0     H62077   6.258   7.339  10.427  2.0597 -3.6904 -5.1017
  460MOL0     H62078   6.474   7.324  10.644  0.4408  1.1874  0.3643
  460MOL0     H62079   6.294   7.288  10.654  0.2523  0.4176  1.4389
  460MOL0     H62080   6.451   7.548  10.647  0.1289 -2.1744 -1.1967
  460MOL0     H62081   6.375   7.481  10.793 -2.4671  1.4040  0.8290
  460MOL0     H62082   6.854   7.200  10.250 -0.9210 -1.4638  0.8652
  460MOL0     H62083   7.071   7.275  10.280  0.8739 -0.0805 -0.3446
  460MOL0     H62084   7.483   7.089  10.423  1.2715  0.5640  2.7746
  460MOL0     H62085   7.684   7.107  10.515  1.5842 -0.4424 -0.8990
  460MOL0     H62086   9.235   7.775  10.663  0.8731  0.3055  4.3457
  460MOL0     H62087   9.459   7.716  10.640 -0.0179  0.4553  0.3268
  460MOL0     H62088  10.034   7.989  10.519 -1.0365  1.9401  3.1716
  460MOL0     H62089  10.200   7.856  10.481 -2.3918  0.4292 -1.8287
  460MOL0     H62090  10.222   7.552  10.810 -2.6828  0.4462 -2.3110
  460MOL0     H62091  10.169   7.437  10.697 -1.1423  0.0011 -1.7699
  460MOL0     H62092  10.455   7.522  10.724  0.8315 -1.2454 -0.0279
  460MOL0     H62093  10.407   7.408  10.607  1.5226  1.9167 -0.0942
  460MOL0     H62094  10.317   7.277  10.841  0.2667 -1.5178 -2.0829
  460MOL0     H62095  10.416   7.390  10.921  0.2871  2.3713 -0.6858
  460MOL0     H62096  10.480   7.168  10.721 -0.7539  0.7497 -0.2325
  460MOL0     H62097  10.539   7.187  10.889 -0.3180 -1.2196 -0.1654
  460MOL0     H62098  10.837   7.405  10.681 -0.9087 -1.2534 -1.8253
  460MOL0     H62099   9.997   7.550  10.731 -1.2522 -0.6556  0.0201
  460MOL0     H62100   9.797   7.687  10.708  0.7551  1.2248 -0.1728
  461MOL0     O62101   5.527   9.028   4.359 -0.2190  0.6894 -0.1227
  461MOL0     C62102   5.636   9.013   4.304 -0.1738 -0.8660  0.1528
  461MOL0     O62103   5.658   9.030   4.167 -0.9235  0.5100  0.4757
  461MOL0     C62104   5.562   9.012   4.074 -0.4832  0.4130  0.0800
  461MOL0     C62105   5.566   9.097   3.963 -1.0030 -0.3646  0.0004
  461MOL0     C62106   5.487   9.071   3.850 -0.0132 -0.2621 -0.5760
  461MOL0     C62107   5.390   8.974   3.853 -0.5622  0.6572 -0.4691
  461MOL0     O62108   5.311   8.931   3.756  0.8684  0.2624 -0.4102
  461MOL0     C62109   5.357   8.947   3.620 -0.4565  0.8176  0.2180
  461MOL0     C62110   5.250   8.944   3.519  1.0557  0.0258 -0.6503
  461MOL0     C62111   5.144   9.055   3.549  0.0435 -0.4065 -0.2404
  461MOL0     C62112   5.055   9.079   3.427 -0.6263  0.4721 -1.0395
  461MOL0     C62113   4.980   9.207   3.426 -0.6545  0.1343  0.3031
  461MOL0     C62114   4.953   9.245   3.281  0.5100 -0.1932 -0.4002
  461MOL0     C62115   4.896   9.134   3.186  0.4436  0.8079  0.5144
  461MOL0     C62116   4.885   9.189   3.044 -0.6042  0.5792 -0.0712
  461MOL0     N62117   4.781   9.283   3.006  0.3700  0.0366 -0.4437
  461MOL0     C62118   4.687   9.266   2.906 -1.4556 -0.1697 -0.4264
  461MOL0     C62119   4.585   9.347   2.942  0.2142 -0.5799 -0.9837
  461MOL0     C62120   4.451   9.351   2.877 -0.5852 -0.0920 -0.1614
  461MOL0     C62121   4.374   9.223   2.903 -0.6576 -0.2370  0.4325
  461MOL0     C62122   4.225   9.245   2.867  0.1035  0.5010  0.1623
  461MOL0     C62123   4.136   9.141   2.914  0.3320 -0.2343  0.4702
  461MOL0     O62124   4.142   9.105   3.052  0.9243  1.1715  0.8807
  461MOL0     C62125   4.135   8.967   3.079  0.1115  0.3808  0.4222
  461MOL0     C62126   4.010   8.904   3.101 -0.4785 -0.3168 -0.1665
  461MOL0     C62127   4.006   8.763   3.131  0.6120  0.0855  0.3455
  461MOL0     C62128   3.869   8.703   3.152  0.0038 -0.1789 -0.1898
  461MOL0     C62129   4.128   8.683   3.135 -0.1910  0.4356 -0.2366
  461MOL0     C62130   4.131   8.535   3.170  0.0762 -0.7296  1.2542
  461MOL0     O62131   4.257   8.481   3.195 -0.4368 -0.7649  0.4554
  461MOL0     C62132   4.278   8.360   3.249 -0.4400 -0.7594 -0.2301
  461MOL0     C62133   4.376   8.290   3.184  0.1231 -0.1586  0.0113
  461MOL0     C62134   4.402   8.159   3.227 -0.3874  0.0948 -0.0691
  461MOL0     C62135   4.336   8.108   3.342  0.4901  0.1098 -0.2130
  461MOL0     O62136   4.357   7.987   3.401 -0.1433  0.1600  0.9034
  461MOL0     C62137   4.458   7.898   3.347  0.4785  0.0345  0.2770
  461MOL0     C62138   4.468   7.777   3.438  0.6243  0.2360 -0.3756
  461MOL0     C62139   4.525   7.813   3.575 -0.4262 -0.5886 -0.1285
  461MOL0     C62140   4.533   7.703   3.683  0.8161 -0.4223  0.3346
  461MOL0     C62141   4.529   7.751   3.826  0.3060  0.1436  0.8235
  461MOL0     C62142   4.649   7.827   3.868  0.6238  0.3867  0.0703
  461MOL0     C62143   4.644   7.889   4.001  0.8768 -0.3289  0.1094
  461MOL0     C62144   4.783   7.939   4.038 -0.0712  0.4731 -0.3668
  461MOL0    Cl62145   4.868   7.798   4.105  0.2047 -0.1588  0.0840
  461MOL0     C62146   4.235   8.186   3.397 -0.8428  1.5209 -0.2875
  461MOL0     C62147   4.210   8.312   3.356 -0.1882  0.1601  0.6448
  461MOL0     O62148   4.026   8.477   3.184  0.4544  1.0532  0.5132
  461MOL0     C62149   4.249   8.755   3.112 -0.4473 -0.3637  1.0313
  461MOL0     C62150   4.250   8.893   3.087  0.0954 -0.2078 -1.0866
  461MOL0     N62151   4.622   9.427   3.051  0.3615 -0.6989  0.3158
  461MOL0     N62152   4.735   9.385   3.091 -0.2644  0.0086 -0.5022
  461MOL0     C62153   5.373   8.899   3.968 -0.0776  0.3923 -0.3838
  461MOL0     C62154   5.466   8.911   4.076  0.7023  0.4360  0.4767
  461MOL0     C62155   5.752   8.961   4.377 -0.2789  0.5337 -1.0222
  461MOL0     C62156   5.883   8.921   4.320 -0.3064 -0.0308  0.8045
  461MOL0     C62157   5.998   8.887   4.392 -0.6231 -0.0220 -1.6370
  461MOL0     C62158   5.992   8.870   4.532  0.3576 -0.0950 -0.0435
  461MOL0     O62159   6.094   8.836   4.618 -0.1742 -0.1725 -0.2027
  461MOL0     C62160   6.224   8.793   4.571 -0.6085 -0.0402 -0.6834
  461MOL0     C62161   6.316   8.910   4.547 -0.6628 -0.3451 -0.0929
  461MOL0     C62162   6.458   8.876   4.494 -0.2776  0.6045  0.2479
  461MOL0     C62163   6.496   8.976   4.384  0.1975  0.3692 -0.0468
  461MOL0     C62164   6.624   8.935   4.330  0.6032  1.8016  0.7569
  461MOL0     C62165   6.725   8.900   4.271  0.9130 -0.3933  0.0340
  461MOL0     C62166   5.866   8.904   4.591  0.9730  0.5211  0.6928
  461MOL0     C62167   5.753   8.949   4.515 -0.1647 -0.1007 -0.2352
  461MOL0     H62168   5.641   9.175   3.952 -0.5049 -0.6864  0.9898
  461MOL0     H62169   5.495   9.130   3.759  0.0649  0.0987 -0.3380
  461MOL0     H62170   5.435   9.023   3.607  0.3408  0.0975  0.7196
  461MOL0     H62171   5.418   8.859   3.598 -0.6789  0.6367  0.3214
  461MOL0     H62172   5.301   8.942   3.422  1.1441 -4.6103 -0.7306
  461MOL0     H62173   5.191   8.854   3.541 -4.3337  3.3762  0.2350
  461MOL0     H62174   5.075   9.025   3.629  1.6309 -0.0356  1.3285
  461MOL0     H62175   5.194   9.151   3.570 -0.7659  0.5689 -2.4772
  461MOL0     H62176   5.127   9.084   3.345 -0.3110  0.4147 -0.7686
  461MOL0     H62177   4.990   8.993   3.411  1.3278 -1.7400  1.9391
  461MOL0     H62178   4.891   9.199   3.489 -0.1810 -2.6601  0.7313
  461MOL0     H62179   5.041   9.285   3.473  0.2708 -0.4038  0.0239
  461MOL0     H62180   4.887   9.331   3.287  0.0817 -0.2958 -2.5961
  461MOL0     H62181   5.051   9.277   3.244  1.0121  0.9592  1.7826
  461MOL0     H62182   4.959   9.046   3.174 -0.4583  0.4389 -2.1169
  461MOL0     H62183   4.799   9.091   3.214  0.7861  0.4898  1.2291
  461MOL0     H62184   4.886   9.104   2.975  1.7842 -0.1733  0.8015
  461MOL0     H62185   4.977   9.244   3.025  0.1142  0.4588  2.6146
  461MOL0     H62186   4.671   9.197   2.824 -2.5369  0.4179 -0.7214
  461MOL0     H62187   4.391   9.430   2.922  1.0033 -0.1834  2.3350
  461MOL0     H62188   4.460   9.367   2.769  3.4737 -1.2977 -0.1902
  461MOL0     H62189   4.381   9.207   3.011  1.0318  3.8647  1.1190
  461MOL0     H62190   4.418   9.147   2.838  3.1860  2.5150 -0.5245
  461MOL0     H62191   4.217   9.261   2.759 -0.2598 -0.0227  0.1021
  461MOL0     H62192   4.185   9.329   2.924 -0.7784 -0.9107  1.7469
  461MOL0     H62193   4.150   9.061   2.840  0.0459  0.1745 -0.0378
  461MOL0     H62194   4.034   9.171   2.888 -0.1099 -1.6845  0.4144
  461MOL0     H62195   3.925   8.971   3.095 -0.6045 -0.4892 -0.2866
  461MOL0     H62196   3.846   8.627   3.077 -1.6562 -0.8170  0.8979
  461MOL0     H62197   3.872   8.643   3.243 -2.6530  0.7925  0.6431
  461MOL0     H62198   3.785   8.773   3.161  0.5902  0.5861 -0.5042
  461MOL0     H62199   4.431   8.335   3.103  2.0396 -1.1000  0.7187
  461MOL0     H62200   4.493   8.116   3.186  0.0072  0.7433  0.1128
  461MOL0     H62201   4.426   7.870   3.247 -0.6524  2.7077 -0.1842
  461MOL0     H62202   4.552   7.955   3.339  0.0645  1.0049  1.8751
  461MOL0     H62203   4.371   7.729   3.449  1.0671 -1.4574 -2.9137
  461MOL0     H62204   4.531   7.705   3.385  0.2374 -2.7303  2.8620
  461MOL0     H62205   4.473   7.902   3.612  0.9834 -0.6122  2.0352
  461MOL0     H62206   4.620   7.858   3.546 -1.4307  0.7935 -1.4654
  461MOL0     H62207   4.435   7.655   3.675  0.3964  0.3746  0.5196
  461MOL0     H62208   4.620   7.639   3.667  0.7935 -0.7187  1.2954
  461MOL0     H62209   4.527   7.665   3.894  0.7402 -0.9124 -0.4538
  461MOL0     H62210   4.444   7.820   3.825  0.1466 -0.0548  0.2921
  461MOL0     H62211   4.728   7.752   3.879  2.0902  1.8354 -0.0107
  461MOL0     H62212   4.690   7.901   3.797  1.1972  0.5023  0.5185
  461MOL0     H62213   4.600   7.826   4.079  0.3925  0.7218  0.7192
  461MOL0     H62214   4.578   7.977   4.005  2.1424  0.6818 -0.4008
  461MOL0     H62215   4.763   8.006   4.122 -2.7659  0.3352 -0.8171
  461MOL0     H62216   4.845   7.985   3.960  1.2181 -0.6715 -0.0542
  461MOL0     H62217   4.192   8.141   3.486 -1.8054 -0.0393 -1.4872
  461MOL0     H62218   4.133   8.372   3.403 -0.8269  1.5797 -1.9983
  461MOL0     H62219   4.343   8.702   3.125 -0.2632  0.3873  3.0321
  461MOL0     H62220   4.348   8.934   3.063  2.1169 -2.5388  2.3197
  461MOL0     H62221   5.299   8.820   3.978  0.5297  0.0861  3.6707
  461MOL0     H62222   5.454   8.844   4.161  0.7686  1.8674  1.6438
  461MOL0     H62223   5.880   8.924   4.211 -2.4684 -0.5086  0.7953
  461MOL0     H62224   6.101   8.880   4.359 -0.0785 -0.3326  0.0239
  461MOL0     H62225   6.273   8.740   4.653 -0.9556  2.1019  1.0069
  461MOL0     H62226   6.208   8.726   4.486  0.2186 -0.8944 -0.1944
  461MOL0     H62227   6.321   8.972   4.637 -2.0208  0.2827 -0.4238
  461MOL0     H62228   6.277   8.981   4.473  1.7176  0.1646 -0.9723
  461MOL0     H62229   6.450   8.780   4.441 -0.1246  0.4069  0.5842
  461MOL0     H62230   6.534   8.874   4.572  1.3659  0.6366 -1.2870
  461MOL0     H62231   6.513   9.073   4.433 -1.3152  0.4796  0.3163
  461MOL0     H62232   6.428   8.974   4.299 -0.3516  0.2836  0.3891
  461MOL0     H62233   6.810   8.866   4.216  0.1423 -1.1720 -0.7152
  461MOL0     H62234   5.858   8.891   4.698 -0.3987  1.8273  0.7765
  461MOL0     H62235   5.674   8.987   4.579  0.9538  0.4899  0.8517
  462MOL0     O62236   9.251  10.990   8.939 -0.0872 -0.4117 -0.5082
  462MOL0     C62237   9.350  10.918   8.907  0.5242 -0.3666 -0.4857
  462MOL0     O62238   9.356  10.790   8.917 -0.1660  0.1330 -0.1726
  462MOL0     C62239   9.242  10.719   8.924  0.0501  0.2700 -0.0611
  462MOL0     C62240   9.244  10.596   9.009 -0.2894 -0.4094  0.2504
  462MOL0     C62241   9.125  10.521   9.020  0.2251  0.3892 -0.6754
  462MOL0     C62242   9.005  10.560   8.958 -0.5744 -0.0822  0.3119
  462MOL0     O62243   8.880  10.501   8.959  0.5940  0.0750  0.0023
  462MOL0     C62244   8.859  10.408   9.061  0.6066 -0.3263  0.3277
  462MOL0     C62245   8.727  10.336   9.055 -0.2222  1.3111 -0.2615
  462MOL0     C62246   8.738  10.206   9.144 -0.2544 -0.2602  0.4887
  462MOL0     C62247   8.603  10.133   9.138  0.1116 -0.4368 -0.1906
  462MOL0     C62248   8.602  10.004   9.224 -0.5092 -0.2329 -0.4786
  462MOL0     C62249   8.480   9.922   9.184  0.0523 -1.3993 -0.1010
  462MOL0     C62250   8.458   9.794   9.267 -0.4135 -0.1222 -0.6034
  462MOL0     C62251   8.421   9.810   9.421  0.0172 -0.9512  0.9868
  462MOL0     N62252   8.362   9.693   9.473 -0.1135  0.1943 -0.2312
  462MOL0     C62253   8.227   9.661   9.486  0.3160 -0.2443 -0.1071
  462MOL0     C62254   8.232   9.545   9.554  0.4142 -0.2199  0.0205
  462MOL0     C62255   8.118   9.462   9.605  0.6391  0.4459 -0.6723
  462MOL0     C62256   8.059   9.516   9.740  0.7809  0.0487  0.3557
  462MOL0     C62257   7.980   9.640   9.709 -0.2228  0.0840 -0.1834
  462MOL0     C62258   7.882   9.678   9.823 -0.5629 -0.5873  0.0919
  462MOL0     O62259   7.775   9.580   9.845  0.0549 -0.0315 -0.0762
  462MOL0     C62260   7.654   9.632   9.884 -0.5084 -0.3307 -0.2957
  462MOL0     C62261   7.591   9.736   9.817  0.4119  0.1195 -0.1480
  462MOL0     C62262   7.468   9.796   9.871 -1.1015 -0.1133  0.9613
  462MOL0     C62263   7.421   9.919   9.795  0.6881 -0.1045 -0.3864
  462MOL0     C62264   7.404   9.738   9.979  0.1987 -0.1096  0.2631
  462MOL0     C62265   7.282   9.795  10.051 -0.5149 -0.3183  0.9042
  462MOL0     O62266   7.205   9.701  10.120  0.2383  0.2272 -0.4280
  462MOL0     C62267   7.105   9.734  10.208  0.2053 -0.0278  0.2400
  462MOL0     C62268   7.135   9.786  10.339 -0.3993 -0.2623 -0.5340
  462MOL0     C62269   7.028   9.829  10.420 -0.0485  0.0827 -0.8772
  462MOL0     C62270   6.896   9.812  10.366  0.1403 -0.2959 -0.8638
  462MOL0     O62271   6.793   9.852  10.445 -0.5026  0.4224 -0.0785
  462MOL0     C62272   6.808   9.974  10.523  0.0467  0.2502 -0.0332
  462MOL0     C62273   6.790  10.089  10.442 -0.5172 -0.6360 -0.1416
  462MOL0     C62274   6.846  10.213  10.505 -0.1023  0.0821 -0.0327
  462MOL0     C62275   6.866  10.321  10.407  0.1082  0.3134  0.5829
  462MOL0     C62276   6.901  10.454  10.473  0.0460 -0.0672 -0.3720
  462MOL0     C62277   6.936  10.570  10.372 -0.3550 -0.1253  0.2537
  462MOL0     C62278   6.963  10.698  10.450 -0.3071 -0.7832  0.2551
  462MOL0     C62279   6.975  10.815  10.348 -0.5490  0.3829 -0.4156
  462MOL0    Cl62280   6.829  10.872  10.274 -0.1085 -0.0085  0.3943
  462MOL0     C62281   6.877   9.755  10.242  0.2550  0.0483 -0.4160
  462MOL0     C62282   6.979   9.725  10.159  0.6668 -1.0039  0.1977
  462MOL0     O62283   7.277   9.919  10.067 -0.3728 -0.2457 -0.5136
  462MOL0     C62284   7.464   9.615  10.023  0.0368 -0.4589  0.6247
  462MOL0     C62285   7.592   9.567   9.982  0.1614  0.7940  0.6265
  462MOL0     N62286   8.367   9.511   9.578  0.0611 -0.2760  0.2941
  462MOL0     N62287   8.439   9.594   9.522 -0.2029  0.5781  0.5725
  462MOL0     C62288   9.007  10.670   8.868 -0.2946  0.7620 -0.3327
  462MOL0     C62289   9.123  10.740   8.846 -0.7690 -0.3543  0.0170
  462MOL0     C62290   9.472  10.971   8.857 -0.6012 -0.5498  0.2417
  462MOL0     C62291   9.491  11.113   8.853  0.5562  0.6146 -0.1645
  462MOL0     C62292   9.616  11.173   8.818  0.3146 -0.2000 -0.0378
  462MOL0     C62293   9.714  11.094   8.760  0.0210  0.8135 -0.3364
  462MOL0     O62294   9.845  11.143   8.731  0.5099 -0.6377 -0.6167
  462MOL0     C62295   9.866  11.296   8.716 -0.2804  0.7341 -0.4078
  462MOL0     C62296  10.013  11.322   8.679  0.0899 -0.3080  0.0777
  462MOL0     C62297  10.055  11.473   8.683 -0.4339 -0.0429  0.0419
  462MOL0     C62298  10.025  11.540   8.547  0.3311  0.6033 -0.2425
  462MOL0     C62299   9.891  11.589   8.534  0.4169 -0.0609 -0.8309
  462MOL0     C62300   9.778  11.626   8.524  0.3677 -0.0560 -0.3990
  462MOL0     C62301   9.694  10.956   8.749  0.7490  0.5780  0.4003
  462MOL0     C62302   9.576  10.892   8.795 -0.4542  0.2441  0.1011
  462MOL0     H62303   9.331  10.574   9.070  0.9741  0.5653 -1.1209
  462MOL0     H62304   9.124  10.444   9.096 -0.0575  1.1288  0.0837
  462MOL0     H62305   8.935  10.329   9.059  0.6065 -0.4191  2.1873
  462MOL0     H62306   8.855  10.465   9.154 -1.1963  1.2586 -0.6666
  462MOL0     H62307   8.653  10.401   9.101 -0.5632  0.5832  0.2425
  462MOL0     H62308   8.702  10.307   8.952 -0.2805 -3.4771  0.8693
  462MOL0     H62309   8.823  10.148   9.106  0.6595  1.7932 -0.7677
  462MOL0     H62310   8.769  10.228   9.247  0.8777 -0.5959  0.2387
  462MOL0     H62311   8.526  10.204   9.169  1.3401  1.8104 -2.0299
  462MOL0     H62312   8.584  10.106   9.033  2.6368 -1.4423 -0.4536
  462MOL0     H62313   8.692   9.945   9.204  0.8619  1.3644  0.6849
  462MOL0     H62314   8.602  10.043   9.326  0.8958  1.8566 -1.2213
  462MOL0     H62315   8.396   9.992   9.188  1.4924  0.4635 -0.8851
  462MOL0     H62316   8.485   9.899   9.077  2.0374  0.2937 -0.4302
  462MOL0     H62317   8.368   9.743   9.230 -0.8708  0.5250 -0.4045
  462MOL0     H62318   8.549   9.734   9.254 -0.9901 -1.4469  1.0786
  462MOL0     H62319   8.352   9.891   9.444  0.6648  0.0212 -0.3573
  462MOL0     H62320   8.516   9.824   9.475  0.0955  0.5204  0.5148
  462MOL0     H62321   8.140   9.715   9.448 -0.0992  0.0103  1.1432
  462MOL0     H62322   8.046   9.450   9.524  3.4319 -1.3270 -3.1126
  462MOL0     H62323   8.160   9.366   9.636 -0.1027 -0.1915 -1.5804
  462MOL0     H62324   8.129   9.524   9.823  0.2290 -4.1551  1.4247
  462MOL0     H62325   7.989   9.436   9.764  1.5378 -0.8869 -0.4577
  462MOL0     H62326   7.924   9.626   9.616  0.2445  1.5139 -0.6994
  462MOL0     H62327   8.057   9.714   9.689 -0.8738  0.6390 -0.6721
  462MOL0     H62328   7.838   9.776   9.798 -0.8526 -0.6480  0.3491
  462MOL0     H62329   7.929   9.708   9.917  0.1951 -0.6801 -0.2573
  462MOL0     H62330   7.634   9.779   9.727 -0.1087  1.1728  0.0930
  462MOL0     H62331   7.490   9.942   9.714  0.8429  3.0538  0.5178
  462MOL0     H62332   7.318   9.901   9.761  1.0821 -0.9537 -1.1763
  462MOL0     H62333   7.416  10.007   9.860 -0.3187 -0.4701  0.0506
  462MOL0     H62334   7.235   9.812  10.374 -0.5015  1.4707 -1.4021
  462MOL0     H62335   7.052   9.863  10.520 -0.3523 -0.9297 -0.4401
  462MOL0     H62336   6.749   9.983  10.615  1.6884 -2.0523  1.3678
  462MOL0     H62337   6.902   9.973  10.579 -0.7736 -1.7283  1.4381
  462MOL0     H62338   6.847  10.077  10.349  1.4629 -5.2254  1.3993
  462MOL0     H62339   6.685  10.109  10.417 -0.2514  0.7249 -0.2485
  462MOL0     H62340   6.939  10.190  10.558  1.0911 -2.7629 -3.0629
  462MOL0     H62341   6.774  10.247  10.580  0.1254 -2.3138  1.3892
  462MOL0     H62342   6.953  10.278  10.357 -0.3470 -2.6986  2.1713
  462MOL0     H62343   6.786  10.333  10.334  2.6656 -1.5731 -2.8272
  462MOL0     H62344   6.978  10.445  10.550 -0.3865 -1.4307 -0.0615
  462MOL0     H62345   6.814  10.493  10.525  1.4754  1.9183  0.6532
  462MOL0     H62346   7.016  10.547  10.300  1.5911 -0.8003  2.5156
  462MOL0     H62347   6.848  10.584  10.308 -1.2220  0.2876  1.5162
  462MOL0     H62348   7.063  10.679  10.489  0.6352 -2.3306 -2.5773
  462MOL0     H62349   6.885  10.721  10.524 -1.7639  0.7072 -1.6357
  462MOL0     H62350   7.050  10.798  10.270 -0.8252 -0.0876 -0.5853
  462MOL0     H62351   7.023  10.893  10.407 -3.8635  2.3053 -0.0151
  462MOL0     H62352   6.776   9.740  10.206 -0.8144  3.8215  0.5070
  462MOL0     H62353   6.967   9.692  10.056 -2.6664 -1.8396  0.7310
  462MOL0     H62354   7.401   9.550  10.083  0.9390 -1.4716  0.5015
  462MOL0     H62355   7.634   9.475  10.022 -1.0012  0.4098  0.9979
  462MOL0     H62356   8.915  10.699   8.819 -0.9816 -1.5719 -0.5095
  462MOL0     H62357   9.123  10.811   8.764 -0.6182 -1.7359 -1.2100
  462MOL0     H62358   9.406  11.172   8.886 -0.9006  0.4077 -3.1892
  462MOL0     H62359   9.627  11.280   8.825 -1.8889  0.2654 -2.2271
  462MOL0     H62360   9.801  11.333   8.636 -0.7983  1.6139  0.3932
  462MOL0     H62361   9.844  11.358   8.803 -0.1260  1.9795 -1.2277
  462MOL0     H62362  10.041  11.277   8.583  1.9810 -1.8295  1.2591
  462MOL0     H62363  10.071  11.267   8.754  0.6401 -0.0765 -0.1748
  462MOL0     H62364  10.158  11.491   8.716 -0.9487  0.1071  1.6724
  462MOL0     H62365  10.005  11.530   8.762  0.3076  1.6205 -0.6413
  462MOL0     H62366  10.048  11.481   8.457 -1.6799 -1.6242  0.5878
  462MOL0     H62367  10.092  11.626   8.537  0.2666  0.5232 -1.5392
  462MOL0     H62368   9.673  11.649   8.514  0.1959 -0.7523 -0.2557
  462MOL0     H62369   9.767  10.892   8.700  0.4282  0.4296  0.1079
  462MOL0     H62370   9.563  10.784   8.783 -0.7064  0.1729  0.9469
  463MOL0     O62371   8.877   4.921   2.066 -0.2908 -0.2344 -0.1104
  463MOL0     C62372   8.923   5.026   2.029  0.2232 -0.0868 -0.3946
  463MOL0     O62373   8.847   5.146   2.018 -0.5079  0.0835 -0.4230
  463MOL0     C62374   8.738   5.162   2.099  0.3292  0.5296 -0.1143
  463MOL0     C62375   8.721   5.103   2.223  0.7391 -0.4331 -0.1202
  463MOL0     C62376   8.593   5.110   2.291 -0.2619 -0.1698  0.2641
  463MOL0     C62377   8.500   5.199   2.243  0.1999 -0.0427  0.5836
  463MOL0     O62378   8.385   5.231   2.308 -0.1158 -0.6374  0.5512
  463MOL0     C62379   8.367   5.213   2.445 -0.3810  0.2012 -0.2176
  463MOL0     C62380   8.234   5.281   2.497  0.2998 -0.2720 -0.4868
  463MOL0     C62381   8.102   5.210   2.462 -0.9895 -0.1596  0.3597
  463MOL0     C62382   7.974   5.294   2.500 -0.5411  0.4907  0.5430
  463MOL0     C62383   7.845   5.218   2.475 -0.3797 -0.5638 -0.1108
  463MOL0     C62384   7.717   5.302   2.498  0.1033  0.1715 -0.3881
  463MOL0     C62385   7.586   5.215   2.488  0.5114  0.3180  0.2369
  463MOL0     C62386   7.469   5.266   2.568  0.1444 -0.6457 -0.0693
  463MOL0     N62387   7.363   5.164   2.575 -1.2242  0.7138 -0.2381
  463MOL0     C62388   7.316   5.072   2.481  0.6292 -0.5687  0.2301
  463MOL0     C62389   7.204   5.014   2.543  0.2438 -0.4907  0.0321
  463MOL0     C62390   7.133   4.897   2.491  0.7380  1.3519 -0.0294
  463MOL0     C62391   7.012   4.925   2.401 -0.2209 -0.5766  0.3432
  463MOL0     C62392   6.950   4.787   2.364  0.4892  0.7996  0.4019
  463MOL0     C62393   6.825   4.811   2.280  0.2262  0.3070  0.7314
  463MOL0     O62394   6.718   4.865   2.356  0.0771 -0.3254  0.0740
  463MOL0     C62395   6.600   4.900   2.294 -0.1847 -0.5918 -0.0522
  463MOL0     C62396   6.580   4.903   2.153 -0.5930 -0.4500 -0.1244
  463MOL0     C62397   6.456   4.950   2.093  0.2300  0.0746  1.1185
  463MOL0     C62398   6.437   4.930   1.944 -0.8678 -0.0290 -0.2685
  463MOL0     C62399   6.360   5.010   2.177 -0.0770  0.2765 -0.2943
  463MOL0     C62400   6.227   5.075   2.133 -0.2458 -0.2343  0.6230
  463MOL0     O62401   6.123   5.096   2.218 -0.0371 -0.4083 -0.4487
  463MOL0     C62402   5.992   5.103   2.169 -1.4074  0.3068  0.0435
  463MOL0     C62403   5.952   5.055   2.047  0.0703  0.3141  0.9023
  463MOL0     C62404   5.813   5.060   2.012  0.5878  0.0031  0.0488
  463MOL0     C62405   5.719   5.115   2.102 -0.0311  0.0059  0.3987
  463MOL0     O62406   5.585   5.100   2.089  0.1630  0.1472  0.3144
  463MOL0     C62407   5.539   5.144   1.963  0.8604 -0.2220  0.6610
  463MOL0     C62408   5.387   5.158   1.972  1.1938  0.2828  0.2837
  463MOL0     C62409   5.335   5.291   2.042 -0.5426 -0.5437 -0.0863
  463MOL0     C62410   5.182   5.291   2.069  0.3799  0.1839  0.0186
  463MOL0     C62411   5.103   5.371   1.960 -0.1158  1.2101  0.3336
  463MOL0     C62412   4.954   5.378   1.996  1.0442  0.2027 -0.1600
  463MOL0     C62413   4.865   5.437   1.882 -0.9702 -0.3661 -0.0905
  463MOL0     C62414   4.756   5.529   1.934  0.1048 -0.2956  0.7004
  463MOL0    Cl62415   4.647   5.448   2.045 -0.0113  0.1106 -0.5321
  463MOL0     C62416   5.768   5.155   2.225  0.2642 -0.2233  0.6654
  463MOL0     C62417   5.902   5.151   2.264  0.1850 -0.1350  0.3097
  463MOL0     O62418   6.228   5.114   2.014 -0.2855 -0.2124 -0.1465
  463MOL0     C62419   6.383   4.997   2.316 -0.3845 -1.1563 -0.1410
  463MOL0     C62420   6.497   4.948   2.369  0.1617  0.0005 -0.2729
  463MOL0     N62421   7.189   5.068   2.667  0.5140  0.1640 -0.5974
  463MOL0     N62422   7.284   5.154   2.686  0.9831  0.1353 -0.3489
  463MOL0     C62423   8.522   5.271   2.131  0.9454  0.6715  0.3358
  463MOL0     C62424   8.636   5.251   2.052  0.5696 -0.2281  0.1685
  463MOL0     C62425   9.052   5.041   1.981  0.7252 -0.9065 -0.2015
  463MOL0     C62426   9.110   4.938   1.920  0.0369  0.4871  0.1727
  463MOL0     C62427   9.241   4.948   1.880  0.8279 -0.1530  0.2920
  463MOL0     C62428   9.320   5.059   1.904 -0.0438 -0.1148 -0.7564
  463MOL0     O62429   9.440   5.084   1.854  0.1573 -0.0355  0.5111
  463MOL0     C62430   9.504   4.989   1.774  0.0791  0.6336 -0.2802
  463MOL0     C62431   9.639   5.035   1.719  0.0203 -0.3886  0.3802
  463MOL0     C62432   9.627   5.156   1.628  0.1136 -0.6071 -0.0727
  463MOL0     C62433   9.759   5.193   1.562  0.3694  0.1745  0.2418
  463MOL0     C62434   9.864   5.206   1.661 -0.7564  0.0716 -0.2071
  463MOL0     C62435   9.957   5.210   1.738 -0.0470 -0.1383  1.0189
  463MOL0     C62436   9.264   5.168   1.968  0.2744 -0.4560 -0.4721
  463MOL0     C62437   9.123   5.159   2.003 -0.2681 -0.7256 -0.0412
  463MOL0     H62438   8.776   5.018   2.262 -1.8320 -2.1745  0.0362
  463MOL0     H62439   8.581   5.059   2.386  1.6471 -2.2826 -0.5549
  463MOL0     H62440   8.353   5.107   2.468 -0.8286 -0.0088 -1.3726
  463MOL0     H62441   8.451   5.258   2.499 -0.1482  1.4810 -1.5643
  463MOL0     H62442   8.231   5.295   2.605 -5.1954  3.8329 -0.7133
  463MOL0     H62443   8.235   5.375   2.441  2.3478 -0.1992 -0.3981
  463MOL0     H62444   8.101   5.195   2.353 -2.4475  0.4896  0.2655
  463MOL0     H62445   8.092   5.117   2.518  2.0861 -1.2377 -0.6597
  463MOL0     H62446   7.969   5.339   2.599 -3.8278  1.1803  0.1913
  463MOL0     H62447   7.969   5.381   2.434  2.1461  2.3562  2.6006
  463MOL0     H62448   7.848   5.173   2.375  0.5945 -1.0355  0.1164
  463MOL0     H62449   7.844   5.128   2.537 -0.6933  0.6261  1.6692
  463MOL0     H62450   7.725   5.333   2.603  2.1348  1.6530 -0.9167
  463MOL0     H62451   7.707   5.392   2.436 -0.7299 -0.8072 -1.7359
  463MOL0     H62452   7.552   5.216   2.384 -0.3770 -1.3424  0.4763
  463MOL0     H62453   7.601   5.111   2.517  0.3964 -0.2172 -1.5308
  463MOL0     H62454   7.434   5.367   2.544  0.5962 -0.1221  1.3775
  463MOL0     H62455   7.510   5.274   2.669  0.4751 -0.8486 -0.1843
  463MOL0     H62456   7.357   5.037   2.387  1.6906  1.9283 -0.3120
  463MOL0     H62457   7.198   4.824   2.441 -0.0815 -1.0307  2.1772
  463MOL0     H62458   7.092   4.841   2.576 -0.0860  1.9540 -0.0148
  463MOL0     H62459   7.043   4.980   2.311  1.8807 -1.0165  0.7269
  463MOL0     H62460   6.951   4.990   2.464 -0.3255  0.4225 -0.7546
  463MOL0     H62461   6.919   4.733   2.454 -3.7622 -0.1808 -1.4537
  463MOL0     H62462   7.024   4.728   2.309  0.8523  1.9241 -0.3515
  463MOL0     H62463   6.793   4.721   2.226 -0.5978  0.5909  0.7347
  463MOL0     H62464   6.853   4.879   2.198 -0.5244 -1.1405 -0.7960
  463MOL0     H62465   6.665   4.874   2.091  2.4945  6.0325  0.2696
  463MOL0     H62466   6.479   5.019   1.896  1.0375 -0.8481 -0.2160
  463MOL0     H62467   6.499   4.846   1.911  2.4211  0.5297  3.6465
  463MOL0     H62468   6.333   4.914   1.915 -1.2170  1.1049  0.2834
  463MOL0     H62469   6.019   5.004   1.979  1.2510  0.5642  1.8387
  463MOL0     H62470   5.786   5.019   1.915  1.5603  0.7977 -0.5841
  463MOL0     H62471   5.590   5.235   1.930  1.8957 -0.8831  0.4000
  463MOL0     H62472   5.570   5.072   1.887  3.8094  1.0965  0.4846
  463MOL0     H62473   5.325   5.164   1.882  1.6885  2.3091  0.0359
  463MOL0     H62474   5.350   5.066   2.019  0.3947  0.4110 -0.0791
  463MOL0     H62475   5.371   5.377   1.985 -1.2801  0.7845  1.3715
  463MOL0     H62476   5.383   5.279   2.140 -2.1422 -1.6097  0.6046
  463MOL0     H62477   5.154   5.185   2.072  1.2744 -0.2526 -3.2698
  463MOL0     H62478   5.169   5.339   2.167  1.3834  1.0723 -0.2656
  463MOL0     H62479   5.114   5.325   1.861 -1.0654  0.1812  0.6874
  463MOL0     H62480   5.142   5.473   1.955  1.2428  0.6604 -1.9069
  463MOL0     H62481   4.900   5.287   2.025  1.9866 -0.1603  0.5307
  463MOL0     H62482   4.949   5.433   2.090  2.5636 -2.6933  1.7905
  463MOL0     H62483   4.824   5.355   1.822 -1.4969 -0.1488 -0.0357
  463MOL0     H62484   4.914   5.505   1.812 -0.4617 -0.1982  0.4185
  463MOL0     H62485   4.692   5.566   1.853  1.5617  1.0477  0.1081
  463MOL0     H62486   4.804   5.609   1.991 -0.3325  1.1462 -0.8871
  463MOL0     H62487   5.693   5.191   2.295  1.3445  3.6488  0.0900
  463MOL0     H62488   5.926   5.189   2.363 -0.8771  0.0729  0.4925
  463MOL0     H62489   6.308   5.027   2.389  1.1897 -1.2574  1.6095
  463MOL0     H62490   6.504   4.942   2.478 -0.2584  1.2845 -0.1605
  463MOL0     H62491   8.458   5.354   2.103 -0.3736 -0.5693 -0.4231
  463MOL0     H62492   8.644   5.301   1.956  0.7982 -1.4293 -0.4560
  463MOL0     H62493   9.060   4.848   1.886 -0.3539  0.4316  0.8765
  463MOL0     H62494   9.289   4.859   1.839  1.2547 -0.5053  1.5238
  463MOL0     H62495   9.527   4.903   1.839  0.9018  0.2496 -1.0550
  463MOL0     H62496   9.434   4.973   1.692 -1.4185  1.7551  0.7440
  463MOL0     H62497   9.688   4.956   1.660  2.1592  2.2099 -1.5887
  463MOL0     H62498   9.704   5.056   1.805  0.8804 -0.4112 -0.2528
  463MOL0     H62499   9.583   5.235   1.691  2.2152  0.6137 -0.0614
  463MOL0     H62500   9.550   5.133   1.554  0.9385 -1.3771 -0.7201
  463MOL0     H62501   9.743   5.289   1.512  0.9145  1.0841  1.7592
  463MOL0     H62502   9.794   5.120   1.488  0.6182  0.0281  0.5023
  463MOL0     H62503  10.027   5.214   1.820  3.9904 -0.0995 -2.0895
  463MOL0     H62504   9.314   5.263   1.956 -1.9424  0.7321 -0.8082
  463MOL0     H62505   9.083   5.255   2.033  2.6052  0.9093 -1.0458
  464MOL0     O62506   1.276   4.851   3.170  0.2015 -0.2241 -0.4953
  464MOL0     C62507   1.338   4.893   3.071  0.5778 -0.1148 -1.2834
  464MOL0     O62508   1.278   4.948   2.959 -0.6653 -0.0962 -0.6050
  464MOL0     C62509   1.146   4.990   2.971 -0.3926  0.0001 -0.5629
  464MOL0     C62510   1.132   5.130   2.997  0.5510  0.2256  0.0412
  464MOL0     C62511   1.002   5.180   3.000  0.0697 -0.0911 -0.3532
  464MOL0     C62512   0.891   5.094   2.974  0.4782  0.3676 -0.5238
  464MOL0     O62513   0.760   5.133   2.957  0.0507  0.7082 -0.0989
  464MOL0     C62514   0.748   5.266   2.906 -0.2914 -0.3921 -0.2227
  464MOL0     C62515   0.604   5.292   2.870 -0.0918  0.0134  0.5346
  464MOL0     C62516   0.546   5.215   2.754 -0.0255 -0.0751 -1.1961
  464MOL0     C62517   0.391   5.234   2.727 -0.5568 -0.4670 -0.0811
  464MOL0     C62518   0.333   5.142   2.626 -0.4445  0.5423 -0.7703
  464MOL0     C62519   0.190   5.185   2.595  0.0382  0.7002 -0.0467
  464MOL0     C62520   0.098   5.079   2.520  0.3460  0.2010  0.7307
  464MOL0     C62521  -0.008   5.155   2.448  0.5946 -0.7819  0.2516
  464MOL0     N62522  -0.098   5.220   2.540  0.5370  0.1709 -0.5985
  464MOL0     C62523  -0.217   5.170   2.587  0.5727  0.3446 -0.6446
  464MOL0     C62524  -0.275   5.265   2.664  0.3010 -0.1691  0.8172
  464MOL0     C62525  -0.396   5.255   2.755  0.0692  0.1578 -0.1704
  464MOL0     C62526  -0.524   5.317   2.691 -1.1706 -0.4748  0.3742
  464MOL0     C62527  -0.654   5.284   2.764 -0.2484 -0.8704 -0.4631
  464MOL0     C62528  -0.779   5.349   2.699  0.7867  0.0483  0.4253
  464MOL0     O62529  -0.887   5.257   2.720  0.5574 -0.1742 -0.3417
  464MOL0     C62530  -1.016   5.306   2.699  0.1735 -0.2503  0.0720
  464MOL0     C62531  -1.119   5.255   2.781  0.0853 -0.1876  0.1317
  464MOL0     C62532  -1.256   5.285   2.771 -0.1138  0.9069  0.6844
  464MOL0     C62533  -1.359   5.199   2.837 -0.1620 -1.0025  0.4230
  464MOL0     C62534  -1.287   5.381   2.676  0.0138  0.0588  0.2986
  464MOL0     C62535  -1.424   5.435   2.652  0.2383  0.2529 -0.5377
  464MOL0     O62536  -1.530   5.412   2.735 -0.2503 -0.3750 -0.6015
  464MOL0     C62537  -1.653   5.462   2.710  0.1785 -0.4481  0.2695
  464MOL0     C62538  -1.682   5.590   2.659  0.1096 -0.0167 -0.6023
  464MOL0     C62539  -1.815   5.622   2.630 -0.9862 -0.2612  1.1778
  464MOL0     C62540  -1.914   5.527   2.651  0.5820 -0.5631  0.0776
  464MOL0     O62541  -2.043   5.560   2.665  0.6809 -0.1187 -0.2158
  464MOL0     C62542  -2.078   5.675   2.742  0.1260 -0.0846 -1.9273
  464MOL0     C62543  -2.160   5.622   2.866  0.0699  0.2197 -0.0378
  464MOL0     C62544  -2.309   5.609   2.839 -0.4658 -0.1493 -0.1487
  464MOL0     C62545  -2.383   5.605   2.973  0.3352  0.4031  0.2649
  464MOL0     C62546  -2.537   5.611   2.957 -0.7124 -0.0774 -0.5063
  464MOL0     C62547  -2.598   5.517   2.858 -0.0075  0.3135  0.1990
  464MOL0     C62548  -2.751   5.502   2.866  0.3164  1.0314 -0.8397
  464MOL0     C62549  -2.800   5.395   2.767  1.0331 -0.6303 -0.2874
  464MOL0    Cl62550  -2.737   5.244   2.844  0.1502  0.1092  0.4769
  464MOL0     C62551  -1.891   5.405   2.705 -0.3317  1.1761 -0.1905
  464MOL0     C62552  -1.759   5.374   2.735 -0.7693 -0.2847  1.3841
  464MOL0     O62553  -1.433   5.505   2.558  0.2251 -0.7695 -0.3483
  464MOL0     C62554  -1.192   5.431   2.590 -0.4124  0.0435 -1.4809
  464MOL0     C62555  -1.057   5.402   2.604 -0.3588  0.1606  0.0200
  464MOL0     N62556  -0.189   5.371   2.652  0.2117  0.5506  0.5966
  464MOL0     N62557  -0.073   5.346   2.588  0.1573 -0.2132 -0.1785
  464MOL0     C62558   0.910   4.959   2.957  0.0262 -0.5531  0.7693
  464MOL0     C62559   1.040   4.902   2.967  0.0029  0.7074 -1.7991
  464MOL0     C62560   1.480   4.869   3.086  0.1669  0.0488  0.1736
  464MOL0     C62561   1.569   4.892   2.981  0.2032 -0.5736  0.0882
  464MOL0     C62562   1.709   4.866   2.999  0.0143  0.3833 -0.1824
  464MOL0     C62563   1.761   4.819   3.126  1.3181 -0.8837  0.7843
  464MOL0     O62564   1.887   4.798   3.158 -0.4375 -1.1072 -0.5662
  464MOL0     C62565   1.971   4.751   3.044  0.4417 -0.2189  0.2659
  464MOL0     C62566   2.119   4.732   3.084  0.5317  0.5376 -0.4723
  464MOL0     C62567   2.218   4.678   2.975  0.0609 -0.0034 -0.5298
  464MOL0     C62568   2.192   4.533   2.917 -0.1512 -0.4994 -0.3374
  464MOL0     C62569   2.086   4.516   2.814 -0.2260  0.0611 -1.2190
  464MOL0     C62570   1.983   4.501   2.746  0.3634 -0.0682  0.2736
  464MOL0     C62571   1.667   4.802   3.228  0.3781  0.4029  0.2656
  464MOL0     C62572   1.537   4.827   3.207  0.1953  0.0711 -0.5331
  464MOL0     H62573   1.213   5.197   3.024  2.4393 -0.8445 -2.6309
  464MOL0     H62574   0.996   5.288   3.007  1.0662 -0.0323 -0.1927
  464MOL0     H62575   0.784   5.337   2.981  1.4206 -0.7570 -0.6555
  464MOL0     H62576   0.816   5.283   2.822  1.7984  0.5971  1.5374
  464MOL0     H62577   0.546   5.263   2.958  0.9558 -4.6213 -0.0319
  464MOL0     H62578   0.595   5.399   2.846  1.2177 -0.1637 -0.9173
  464MOL0     H62579   0.600   5.247   2.664 -1.8046  0.9083 -1.9435
  464MOL0     H62580   0.551   5.107   2.774 -1.9320  0.2391  1.4126
  464MOL0     H62581   0.337   5.229   2.822  0.0648  0.3191  0.3292
  464MOL0     H62582   0.370   5.335   2.690 -1.2136 -0.0191  1.4336
  464MOL0     H62583   0.399   5.149   2.540  0.6605 -2.3567 -0.2477
  464MOL0     H62584   0.342   5.039   2.660  1.3174  0.0296 -2.6548
  464MOL0     H62585   0.143   5.229   2.683  1.7208  1.1746  0.6637
  464MOL0     H62586   0.212   5.275   2.537  1.7888  1.9616  2.3992
  464MOL0     H62587   0.140   5.018   2.440 -2.8970 -2.5048  0.8834
  464MOL0     H62588   0.058   5.006   2.591  1.4254 -1.5434 -0.3882
  464MOL0     H62589  -0.060   5.091   2.377  3.4879 -1.6508 -1.2615
  464MOL0     H62590   0.051   5.227   2.390  2.8235  1.3922  4.7123
  464MOL0     H62591  -0.253   5.068   2.582  2.5834 -0.4830  0.5022
  464MOL0     H62592  -0.402   5.150   2.787 -0.8908  0.2825  0.1184
  464MOL0     H62593  -0.368   5.311   2.845  0.9483 -2.2719  1.1523
  464MOL0     H62594  -0.526   5.267   2.594  0.9775  2.2257 -1.2068
  464MOL0     H62595  -0.514   5.425   2.684 -4.2208 -0.0602  0.8713
  464MOL0     H62596  -0.649   5.315   2.869 -0.1706  2.7409 -1.3897
  464MOL0     H62597  -0.668   5.176   2.754 -1.3944 -0.9112  1.2755
  464MOL0     H62598  -0.766   5.373   2.593 -2.0667  3.0103  0.5828
  464MOL0     H62599  -0.789   5.444   2.751 -0.1681  0.5179 -0.5729
  464MOL0     H62600  -1.084   5.188   2.859 -1.2652  0.9812  1.8106
  464MOL0     H62601  -1.416   5.143   2.763 -0.1512  1.0256 -1.2329
  464MOL0     H62602  -1.315   5.119   2.897 -0.8260 -0.5931  1.4979
  464MOL0     H62603  -1.427   5.264   2.893 -0.7635  0.7937 -2.1956
  464MOL0     H62604  -1.607   5.666   2.640 -0.3340  0.5000 -0.3360
  464MOL0     H62605  -1.824   5.722   2.589  0.0020 -0.0586  1.4309
  464MOL0     H62606  -2.000   5.736   2.789  0.1849 -1.6889  0.2257
  464MOL0     H62607  -2.145   5.729   2.674 -2.3585 -0.6728 -0.0961
  464MOL0     H62608  -2.118   5.525   2.896  0.4789  0.7287  1.0995
  464MOL0     H62609  -2.150   5.706   2.935 -1.2943  1.0112 -0.7674
  464MOL0     H62610  -2.339   5.521   2.781 -2.0750 -0.0381  0.4599
  464MOL0     H62611  -2.334   5.708   2.799 -1.1899  0.0611  0.7968
  464MOL0     H62612  -2.351   5.515   3.027  3.3457 -0.0026 -1.8776
  464MOL0     H62613  -2.350   5.688   3.035 -0.4067  0.0475  1.1535
  464MOL0     H62614  -2.558   5.714   2.926  0.0476 -0.0190 -0.8572
  464MOL0     H62615  -2.577   5.600   3.058  0.5704  0.4794  0.0784
  464MOL0     H62616  -2.573   5.545   2.756 -1.2382  0.6661 -0.0228
  464MOL0     H62617  -2.552   5.420   2.878  5.1551  2.2391 -0.9282
  464MOL0     H62618  -2.801   5.599   2.859 -0.3223  0.8289  0.5712
  464MOL0     H62619  -2.776   5.484   2.971  1.1756 -0.3472 -0.8539
  464MOL0     H62620  -2.760   5.413   2.667  2.9224  0.1888  0.5669
  464MOL0     H62621  -2.909   5.387   2.767  0.6274  2.9608 -1.5507
  464MOL0     H62622  -1.975   5.344   2.738 -0.5103  0.7463 -1.3923
  464MOL0     H62623  -1.726   5.277   2.772 -0.1466 -0.5093  0.2689
  464MOL0     H62624  -1.215   5.486   2.499 -4.4725 -0.3537 -0.8842
  464MOL0     H62625  -0.990   5.445   2.530 -1.2562  0.6972 -0.5010
  464MOL0     H62626   0.825   4.898   2.929  0.9104 -1.2037 -0.6715
  464MOL0     H62627   1.068   4.800   2.943  0.3747  0.4396 -0.3223
  464MOL0     H62628   1.532   4.925   2.884 -1.0555 -1.8617  0.0918
  464MOL0     H62629   1.774   4.860   2.912  1.1668 -3.5781  0.7302
  464MOL0     H62630   1.949   4.647   3.020  3.6309 -1.2573  1.2896
  464MOL0     H62631   1.962   4.819   2.959 -1.0533  0.9383  1.3074
  464MOL0     H62632   2.122   4.658   3.165 -1.4575 -0.1368 -0.9581
  464MOL0     H62633   2.151   4.825   3.132  0.0978 -0.8043  2.6948
  464MOL0     H62634   2.322   4.680   3.010  0.2355 -1.0186 -0.9425
  464MOL0     H62635   2.219   4.751   2.894  0.8857  1.7477  0.9737
  464MOL0     H62636   2.159   4.473   3.002 -0.4166 -1.4350 -1.0763
  464MOL0     H62637   2.289   4.495   2.884  0.3674 -0.5289  1.1562
  464MOL0     H62638   1.908   4.479   2.674  1.9776 -1.4688 -1.0735
  464MOL0     H62639   1.697   4.774   3.328  0.3635  0.6867  0.3509
  464MOL0     H62640   1.469   4.811   3.290 -0.6170  0.6391 -1.0632
  465MOL0     O62641   2.637   0.310   5.112  0.2292 -0.1080 -0.7948
  465MOL0     C62642   2.732   0.274   5.177  0.5490  0.5585 -0.3614
  465MOL0     O62643   2.744   0.153   5.237 -0.0226 -0.2217 -0.3942
  465MOL0     C62644   2.644   0.062   5.263 -0.4571  0.0649  0.7803
  465MOL0     C62645   2.695  -0.069   5.271  0.8956 -0.7049  0.1438
  465MOL0     C62646   2.603  -0.178   5.266  0.2569 -0.6091  0.1050
  465MOL0     C62647   2.468  -0.160   5.275 -0.1731 -0.4123 -0.2999
  465MOL0     O62648   2.387  -0.278   5.272 -0.6293  0.9263 -0.2912
  465MOL0     C62649   2.248  -0.259   5.269 -0.8066  0.0686 -0.4658
  465MOL0     C62650   2.178  -0.394   5.267 -0.0034 -0.0934 -0.1403
  465MOL0     C62651   2.035  -0.370   5.298  0.6988  0.5478  0.5633
  465MOL0     C62652   1.946  -0.341   5.172 -0.3143 -0.2152 -0.5200
  465MOL0     C62653   1.802  -0.323   5.214  0.2532 -1.0414 -0.2016
  465MOL0     C62654   1.716  -0.448   5.197 -0.2675  0.2341 -0.0855
  465MOL0     C62655   1.576  -0.414   5.252  0.2440  0.1202  0.2816
  465MOL0     C62656   1.494  -0.316   5.172 -1.1185 -0.0263  0.6395
  465MOL0     N62657   1.517  -0.331   5.026 -0.6899  0.1724  0.0988
  465MOL0     C62658   1.536  -0.230   4.936 -0.3792 -0.4615  0.8574
  465MOL0     C62659   1.546  -0.282   4.815 -1.0404  0.1361 -0.2605
  465MOL0     C62660   1.582  -0.211   4.691 -0.1127  0.7955  0.6939
  465MOL0     C62661   1.479  -0.107   4.658  0.5501 -0.4661  0.1349
  465MOL0     C62662   1.451  -0.092   4.507  0.2840  0.3284  0.0630
  465MOL0     C62663   1.345   0.016   4.485 -0.5147 -0.0063  0.1261
  465MOL0     O62664   1.237  -0.052   4.422 -0.8086 -0.4526 -0.2682
  465MOL0     C62665   1.113   0.005   4.410  0.7134 -0.4896  0.0990
  465MOL0     C62666   1.014  -0.072   4.354 -0.2470 -0.1081 -0.4096
  465MOL0     C62667   0.880  -0.037   4.335  0.1881  0.0481  0.2043
  465MOL0     C62668   0.786  -0.137   4.265  0.6580  1.2150 -0.0550
  465MOL0     C62669   0.842   0.091   4.379  0.4797 -0.3951  0.7477
  465MOL0     C62670   0.698   0.136   4.384 -0.3628 -0.5886  0.8148
  465MOL0     O62671   0.677   0.260   4.336  0.3338  0.7106 -0.5864
  465MOL0     C62672   0.541   0.303   4.324 -1.0918  0.4361 -0.3654
  465MOL0     C62673   0.497   0.323   4.190 -0.3493 -0.6016 -1.1233
  465MOL0     C62674   0.373   0.383   4.168 -0.8513 -0.3241 -0.4341
  465MOL0     C62675   0.286   0.419   4.273 -0.6027  0.4463  0.4182
  465MOL0     O62676   0.163   0.470   4.238  0.5490 -0.3886  0.3091
  465MOL0     C62677   0.042   0.391   4.271  0.6921 -0.2101  0.0042
  465MOL0     C62678  -0.085   0.482   4.256 -0.7396  0.7904  0.6856
  465MOL0     C62679  -0.086   0.597   4.361  0.0384 -0.2726  0.9635
  465MOL0     C62680  -0.217   0.659   4.339  0.6957 -0.2189 -0.6755
  465MOL0     C62681  -0.236   0.794   4.414 -0.8018  0.2490  0.5483
  465MOL0     C62682  -0.374   0.839   4.380  0.2526  0.1037  0.7338
  465MOL0     C62683  -0.402   0.985   4.428 -0.2256  0.1768  0.8804
  465MOL0     C62684  -0.442   0.979   4.575  0.4726 -0.1069 -0.0542
  465MOL0    Cl62685  -0.517   1.127   4.630 -0.2003  0.0382  0.3078
  465MOL0     C62686   0.337   0.384   4.406  0.1456  0.0515  0.5873
  465MOL0     C62687   0.462   0.333   4.434 -0.8053 -0.3928  1.6034
  465MOL0     O62688   0.611   0.055   4.407 -0.3624  0.1619 -0.0630
  465MOL0     C62689   0.943   0.176   4.436 -0.8459  0.5229  1.2212
  465MOL0     C62690   1.079   0.135   4.446 -0.0490  0.1134 -1.1744
  465MOL0     N62691   1.523  -0.414   4.822  0.0156 -0.2185 -0.9153
  465MOL0     N62692   1.512  -0.445   4.951 -0.1311  0.2354  0.5044
  465MOL0     C62693   2.423  -0.022   5.263 -0.3039  0.4506 -0.2673
  465MOL0     C62694   2.512   0.087   5.263  0.2462  0.6435  0.5954
  465MOL0     C62695   2.836   0.371   5.207 -0.0989  0.0703 -0.0768
  465MOL0     C62696   2.841   0.501   5.138 -0.6049 -0.0372 -0.6341
  465MOL0     C62697   2.947   0.592   5.169 -0.6849  0.3685  0.0270
  465MOL0     C62698   3.053   0.565   5.259  0.8586 -0.4975 -0.1374
  465MOL0     O62699   3.169   0.642   5.270  0.3232  0.5621 -0.0346
  465MOL0     C62700   3.160   0.779   5.230  0.2140  0.1292 -0.2603
  465MOL0     C62701   3.296   0.834   5.269 -1.0600  0.0090  0.5167
  465MOL0     C62702   3.419   0.789   5.183  0.4697 -0.0217  0.3633
  465MOL0     C62703   3.544   0.877   5.208  0.5396  0.1350 -0.3118
  465MOL0     C62704   3.641   0.867   5.100  0.4616 -0.4131  0.5482
  465MOL0     C62705   3.731   0.856   5.015  0.3316 -0.0119  0.4161
  465MOL0     C62706   3.045   0.445   5.331 -0.3378  0.4374  0.7440
  465MOL0     C62707   2.942   0.355   5.305 -0.0487 -0.3915  0.0080
  465MOL0     H62708   2.801  -0.090   5.282  0.1658 -3.8098  2.6038
  465MOL0     H62709   2.642  -0.279   5.270 -0.4987 -0.9678 -1.0944
  465MOL0     H62710   2.218  -0.195   5.352  1.2391 -1.0479  1.2477
  465MOL0     H62711   2.224  -0.209   5.175  1.6649  2.9773  0.2939
  465MOL0     H62712   2.196  -0.437   5.168 -1.5962  1.6535 -1.2510
  465MOL0     H62713   2.217  -0.455   5.350 -1.2467 -0.0024  0.5482
  465MOL0     H62714   1.980  -0.455   5.340 -1.2996  0.6258 -1.7274
  465MOL0     H62715   2.029  -0.288   5.371  1.5839  0.2650  0.9680
  465MOL0     H62716   1.992  -0.253   5.126  2.2920 -1.1024  0.2137
  465MOL0     H62717   1.958  -0.417   5.094 -1.4306 -0.8590 -0.0948
  465MOL0     H62718   1.789  -0.286   5.316 -0.1367  2.8946 -1.5045
  465MOL0     H62719   1.748  -0.251   5.151 -0.3233 -0.1914  1.2152
  465MOL0     H62720   1.711  -0.478   5.092 -1.1705 -0.9817  0.2788
  465MOL0     H62721   1.760  -0.523   5.263 -2.4186 -0.5701  0.5132
  465MOL0     H62722   1.523  -0.509   5.245 -0.0821  0.4068 -1.5089
  465MOL0     H62723   1.577  -0.392   5.360 -0.8842 -0.1991  0.3624
  465MOL0     H62724   1.519  -0.215   5.207  0.9069  0.4461 -1.8893
  465MOL0     H62725   1.386  -0.330   5.187 -1.5181  3.2982  1.7536
  465MOL0     H62726   1.524  -0.125   4.961 -1.1422 -0.1410 -0.6756
  465MOL0     H62727   1.686  -0.175   4.693  0.5751 -0.9871  3.5327
  465MOL0     H62728   1.590  -0.293   4.619  2.8019  0.0066  1.7588
  465MOL0     H62729   1.513  -0.010   4.696 -1.7292 -0.0220  1.2358
  465MOL0     H62730   1.385  -0.118   4.713  0.2241 -0.1299 -0.3525
  465MOL0     H62731   1.423  -0.186   4.458  1.1102  0.1773 -0.1259
  465MOL0     H62732   1.546  -0.066   4.460  0.7948 -1.8029 -0.1858
  465MOL0     H62733   1.370   0.103   4.424 -1.5276 -1.5567 -2.7300
  465MOL0     H62734   1.313   0.050   4.584  1.6093 -1.4640  1.3962
  465MOL0     H62735   1.056  -0.165   4.318 -1.0027 -0.0491 -1.5130
  465MOL0     H62736   0.687  -0.095   4.244 -1.0713 -2.7292 -0.6095
  465MOL0     H62737   0.830  -0.174   4.172  2.1549 -1.1465  1.4743
  465MOL0     H62738   0.769  -0.218   4.336 -1.4819  2.6144  1.1426
  465MOL0     H62739   0.545   0.293   4.098  0.4526  2.0107 -1.6239
  465MOL0     H62740   0.320   0.394   4.073  3.2457 -1.5443 -3.1104
  465MOL0     H62741   0.042   0.313   4.193 -0.0475 -0.6337  0.4127
  465MOL0     H62742   0.038   0.342   4.369 -1.9204 -0.0164  0.0553
  465MOL0     H62743  -0.087   0.526   4.155 -3.7586 -2.0143 -0.6453
  465MOL0     H62744  -0.174   0.419   4.257 -1.2574  1.5084  0.4508
  465MOL0     H62745  -0.003   0.666   4.341 -0.2751 -0.4395 -1.0262
  465MOL0     H62746  -0.073   0.555   4.461  1.2023 -0.1560  0.8772
  465MOL0     H62747  -0.242   0.680   4.235 -1.4219  1.4935  0.0692
  465MOL0     H62748  -0.297   0.593   4.374 -0.2298  1.7754  1.2133
  465MOL0     H62749  -0.171   0.877   4.384 -1.2357  0.7552  0.9817
  465MOL0     H62750  -0.227   0.783   4.523 -0.2726  0.2066  0.5061
  465MOL0     H62751  -0.388   0.837   4.272 -1.4919  1.0312  0.9102
  465MOL0     H62752  -0.452   0.774   4.420 -0.6172  0.8865  0.3347
  465MOL0     H62753  -0.486   1.009   4.362 -0.7296 -0.2070  1.3706
  465MOL0     H62754  -0.316   1.049   4.405 -0.1879 -0.6113 -1.4912
  465MOL0     H62755  -0.364   0.954   4.648 -0.5096  0.9745  1.4067
  465MOL0     H62756  -0.525   0.909   4.587 -2.1971  2.7444 -0.5760
  465MOL0     H62757   0.271   0.386   4.492 -3.1539 -1.2674 -1.7190
  465MOL0     H62758   0.485   0.308   4.538  1.4350 -0.0185  1.2442
  465MOL0     H62759   0.903   0.275   4.458 -1.2585  0.7324 -0.3716
  465MOL0     H62760   1.141   0.207   4.500  1.8142 -3.5366  2.1128
  465MOL0     H62761   2.316  -0.005   5.255 -0.0935  1.4553 -1.1104
  465MOL0     H62762   2.468   0.186   5.260 -1.3129 -0.0504 -0.6269
  465MOL0     H62763   2.762   0.541   5.075 -1.0779 -2.4001 -1.6570
  465MOL0     H62764   2.935   0.683   5.111  1.4537  0.8594  0.2812
  465MOL0     H62765   3.157   0.781   5.120 -0.8164  2.7670 -0.2467
  465MOL0     H62766   3.079   0.839   5.273 -1.7977 -1.1666 -2.0542
  465MOL0     H62767   3.312   0.796   5.371 -3.7668  0.3697  1.1701
  465MOL0     H62768   3.289   0.943   5.262 -1.7320 -0.0293  0.4912
  465MOL0     H62769   3.383   0.796   5.080 -1.8417  1.3064  1.1644
  465MOL0     H62770   3.432   0.681   5.197 -0.4766 -0.8847 -3.9794
  465MOL0     H62771   3.570   0.861   5.313 -2.2286 -1.0165  0.3003
  465MOL0     H62772   3.514   0.982   5.201 -0.5937 -0.3025 -3.1129
  465MOL0     H62773   3.801   0.848   4.934 -1.8313  0.8303 -1.6454
  465MOL0     H62774   3.123   0.421   5.402 -0.9165 -2.4162  0.5731
  465MOL0     H62775   2.940   0.272   5.375 -2.7624  0.4625  1.0808
  466MOL0     O62776   5.846   3.232   7.312  0.6781  0.1393 -0.6059
  466MOL0     C62777   5.935   3.223   7.229  0.4078 -0.1117 -0.4624
  466MOL0     O62778   5.920   3.228   7.095 -0.3384  0.3987 -0.1970
  466MOL0     C62779   5.800   3.232   7.033  0.0866  0.1877  0.6664
  466MOL0     C62780   5.752   3.123   6.958 -0.3698  0.7570  0.3098
  466MOL0     C62781   5.632   3.132   6.888 -0.2771 -0.3990 -0.3655
  466MOL0     C62782   5.554   3.250   6.890 -0.6751 -0.0843  0.6290
  466MOL0     O62783   5.438   3.271   6.819  0.6056  0.4417  0.6716
  466MOL0     C62784   5.384   3.150   6.751 -0.3695 -0.4969  0.4218
  466MOL0     C62785   5.251   3.190   6.701  0.7525  0.1017  0.0154
  466MOL0     C62786   5.138   3.182   6.801 -0.0496  0.1184  0.0596
  466MOL0     C62787   5.009   3.213   6.725 -0.2208  0.8692 -0.2634
  466MOL0     C62788   4.886   3.207   6.805  0.6138 -0.0094 -0.5952
  466MOL0     C62789   4.850   3.073   6.868 -0.2143  0.0252 -0.1705
  466MOL0     C62790   4.706   3.057   6.901  0.3833 -0.1494  0.1044
  466MOL0     C62791   4.677   2.934   6.992 -0.0509  0.5299  0.4150
  466MOL0     N62792   4.672   2.808   6.923 -0.1281  0.0180  0.1960
  466MOL0     C62793   4.553   2.761   6.876  0.3077  0.2629 -0.0784
  466MOL0     C62794   4.567   2.629   6.883  0.5603 -0.7389  0.2928
  466MOL0     C62795   4.462   2.522   6.866 -0.2972  0.3393 -0.2277
  466MOL0     C62796   4.330   2.572   6.802 -0.1011  0.6541 -0.4585
  466MOL0     C62797   4.353   2.585   6.648  0.6056  0.3441 -0.0587
  466MOL0     C62798   4.222   2.637   6.584  0.0253 -0.2458  0.1211
  466MOL0     O62799   4.213   2.783   6.608 -0.2068 -0.3644 -0.2708
  466MOL0     C62800   4.090   2.847   6.618  0.8140 -0.3523 -0.6627
  466MOL0     C62801   3.964   2.786   6.596  0.4288  0.1213  0.1458
  466MOL0     C62802   3.837   2.837   6.614 -0.2975  0.7536 -0.5206
  466MOL0     C62803   3.728   2.737   6.593  0.8522 -0.6076 -0.0321
  466MOL0     C62804   3.839   2.974   6.650  0.3023  0.5434  1.3600
  466MOL0     C62805   3.704   3.050   6.666  0.4675  0.3949 -0.5289
  466MOL0     O62806   3.618   2.992   6.766 -0.1779 -0.5915  0.7380
  466MOL0     C62807   3.500   3.051   6.794 -0.2613 -0.6368 -0.6653
  466MOL0     C62808   3.396   3.027   6.703 -0.5222  0.5052  0.3008
  466MOL0     C62809   3.284   3.107   6.713  0.7131  0.0918 -0.5114
  466MOL0     C62810   3.254   3.185   6.817 -0.1568  0.4617 -0.6454
  466MOL0     O62811   3.134   3.244   6.813 -0.1193  0.2489  0.2458
  466MOL0     C62812   3.083   3.320   6.925 -0.3796  0.4322 -0.1082
  466MOL0     C62813   3.060   3.232   7.051  0.9359  0.7704 -0.2280
  466MOL0     C62814   2.951   3.279   7.147 -0.8971  0.7293  0.4725
  466MOL0     C62815   2.813   3.287   7.077  0.0818  0.1859  0.4309
  466MOL0     C62816   2.701   3.267   7.178 -0.1117 -0.7370  0.9423
  466MOL0     C62817   2.560   3.289   7.120  0.1262  0.3253 -0.0234
  466MOL0     C62818   2.550   3.191   7.007  0.6900 -0.8167  0.5555
  466MOL0     C62819   2.394   3.193   6.982 -0.1771 -0.0839  0.0417
  466MOL0    Cl62820   2.337   3.355   6.913  0.0415 -0.0713 -0.3794
  466MOL0     C62821   3.341   3.189   6.921  0.1510  0.0694  0.5762
  466MOL0     C62822   3.473   3.131   6.900 -1.0502  0.2159 -0.6700
  466MOL0     O62823   3.674   3.147   6.595  0.0496  0.7222  0.1411
  466MOL0     C62824   3.962   3.044   6.676  0.2041 -0.2238  0.7644
  466MOL0     C62825   4.085   2.974   6.661  0.8755 -0.5557 -0.2945
  466MOL0     N62826   4.694   2.593   6.930 -0.0935  0.0710  0.6835
  466MOL0     N62827   4.759   2.706   6.948  0.0364 -0.1821 -0.0870
  466MOL0     C62828   5.604   3.361   6.966 -0.0401  0.2032  0.5521
  466MOL0     C62829   5.728   3.351   7.030  0.2659 -0.2247 -0.5070
  466MOL0     C62830   6.067   3.176   7.275  1.0315  0.7329  1.3452
  466MOL0     C62831   6.078   3.082   7.379  0.1670 -0.6389  0.7446
  466MOL0     C62832   6.201   3.036   7.420 -0.3589 -0.1450 -0.1229
  466MOL0     C62833   6.325   3.091   7.365 -0.0136  0.4452 -0.4665
  466MOL0     O62834   6.446   3.062   7.419  0.0627 -0.1293  0.3530
  466MOL0     C62835   6.561   3.096   7.346  0.6422 -0.3394  0.1366
  466MOL0     C62836   6.680   3.017   7.410  0.7631 -0.2724  0.2073
  466MOL0     C62837   6.819   3.065   7.354 -0.5290  0.5475  0.9182
  466MOL0     C62838   6.927   2.991   7.424 -0.1039 -0.8448  0.9791
  466MOL0     C62839   7.057   3.028   7.377 -0.1893  0.1712  0.9338
  466MOL0     C62840   7.166   3.054   7.342 -0.4259 -0.3270 -0.3783
  466MOL0     C62841   6.313   3.175   7.254 -0.3835  0.7500  0.6890
  466MOL0     C62842   6.183   3.212   7.208  0.2633 -0.1711 -0.0267
  466MOL0     H62843   5.812   3.034   6.943 -2.7590 -0.6889 -1.2678
  466MOL0     H62844   5.590   3.044   6.839  0.3159  0.4627 -2.5395
  466MOL0     H62845   5.451   3.127   6.668  1.4736  2.8030  0.8149
  466MOL0     H62846   5.391   3.063   6.816 -1.7069 -0.4209  0.6987
  466MOL0     H62847   5.252   3.297   6.678 -3.0733 -0.2042 -2.4067
  466MOL0     H62848   5.242   3.130   6.610  3.0974 -1.0671  0.4756
  466MOL0     H62849   5.136   3.081   6.844 -0.2980 -0.1277 -0.5235
  466MOL0     H62850   5.155   3.257   6.879 -0.3750 -2.6709  3.0490
  466MOL0     H62851   5.010   3.307   6.669 -0.0548  0.2394 -1.3542
  466MOL0     H62852   4.986   3.140   6.647 -4.3123  1.1923  0.4059
  466MOL0     H62853   4.878   3.292   6.874 -1.9671 -0.3710 -0.3458
  466MOL0     H62854   4.801   3.227   6.740 -1.3869  2.5860  2.5207
  466MOL0     H62855   4.884   3.004   6.789  0.1365  0.3316 -0.2910
  466MOL0     H62856   4.917   3.065   6.954 -0.3958 -2.4411 -0.1786
  466MOL0     H62857   4.675   3.147   6.956 -1.0510  0.6228 -1.8478
  466MOL0     H62858   4.644   3.046   6.812  0.2837  1.2856 -0.0301
  466MOL0     H62859   4.579   2.951   7.039 -1.6613 -0.7815 -2.2294
  466MOL0     H62860   4.760   2.925   7.063  2.6181  0.1823 -2.5324
  466MOL0     H62861   4.464   2.818   6.851  0.9843  1.2143 -0.4053
  466MOL0     H62862   4.514   2.443   6.812  2.2055  3.7194 -3.2524
  466MOL0     H62863   4.434   2.481   6.964 -2.1701 -0.8538 -1.2249
  466MOL0     H62864   4.289   2.658   6.857 -2.6819 -2.1985  2.5824
  466MOL0     H62865   4.245   2.504   6.819 -1.3446  1.6360 -2.3924
  466MOL0     H62866   4.384   2.490   6.604  0.3030  0.9399 -1.6183
  466MOL0     H62867   4.434   2.655   6.625  1.0573 -0.2448 -0.2622
  466MOL0     H62868   4.136   2.596   6.638  0.7298 -1.4021  0.3780
  466MOL0     H62869   4.233   2.604   6.480  2.0103 -0.2811  0.3048
  466MOL0     H62870   3.963   2.682   6.565 -0.1161  0.6431 -1.7152
  466MOL0     H62871   3.752   2.639   6.634  2.0741  0.5733  2.2671
  466MOL0     H62872   3.636   2.765   6.645  0.7448  0.1851 -0.6111
  466MOL0     H62873   3.713   2.738   6.484  1.9460 -1.2959 -0.2012
  466MOL0     H62874   3.413   2.972   6.611 -0.3649  0.7515  0.1813
  466MOL0     H62875   3.213   3.083   6.635  1.5163  3.0926 -2.3524
  466MOL0     H62876   3.146   3.401   6.962 -0.6911  1.3319 -1.5133
  466MOL0     H62877   2.988   3.365   6.895  0.3874  2.5333  0.4333
  466MOL0     H62878   3.033   3.129   7.023 -1.2273  0.9973  0.8026
  466MOL0     H62879   3.151   3.216   7.109  0.9786 -2.5230 -1.0106
  466MOL0     H62880   2.972   3.379   7.187  0.7163  1.1647 -1.3329
  466MOL0     H62881   2.955   3.198   7.221  0.9655  1.2387  0.9936
  466MOL0     H62882   2.798   3.377   7.016  2.2718  1.9371  2.2797
  466MOL0     H62883   2.806   3.202   7.008 -0.9286  2.1871 -2.0940
  466MOL0     H62884   2.722   3.330   7.264  0.9565  0.1356  0.0635
  466MOL0     H62885   2.706   3.166   7.220 -2.4119 -1.0733  0.5651
  466MOL0     H62886   2.491   3.267   7.202  1.8356 -0.6322  1.2171
  466MOL0     H62887   2.552   3.394   7.092 -2.3622  0.0466 -0.5611
  466MOL0     H62888   2.579   3.090   7.037 -1.8596 -1.0201  2.7543
  466MOL0     H62889   2.593   3.220   6.911 -1.8925 -0.7523 -0.6864
  466MOL0     H62890   2.337   3.170   7.072 -2.8411  3.6486 -0.4432
  466MOL0     H62891   2.368   3.116   6.909 -1.3741  0.0985  0.2582
  466MOL0     H62892   3.316   3.250   7.008  1.1574  2.2657 -0.6086
  466MOL0     H62893   3.553   3.141   6.972 -2.7511 -1.2345  1.5456
  466MOL0     H62894   3.958   3.148   6.708 -0.5903 -0.0409  0.0992
  466MOL0     H62895   4.173   3.029   6.693 -1.3361  2.6644  0.8134
  466MOL0     H62896   5.565   3.462   6.954  1.5797  0.8755  0.6937
  466MOL0     H62897   5.770   3.441   7.076 -0.3117 -0.9327  1.5199
  466MOL0     H62898   5.993   3.041   7.434  0.0355  2.3552  3.0363
  466MOL0     H62899   6.215   2.961   7.497  2.0130  0.4669  0.1363
  466MOL0     H62900   6.549   3.059   7.244 -0.8734  1.1825 -0.2936
  466MOL0     H62901   6.583   3.203   7.350  2.9051 -0.7808  3.8668
  466MOL0     H62902   6.661   2.910   7.400 -0.9613  0.0051  0.2366
  466MOL0     H62903   6.689   3.034   7.518  0.3104  0.2976  0.1605
  466MOL0     H62904   6.823   3.174   7.351 -1.9060  0.6233  1.1359
  466MOL0     H62905   6.828   3.046   7.246 -0.3267  1.3783  0.7788
  466MOL0     H62906   6.923   2.881   7.422 -1.2562 -0.9266  3.7349
  466MOL0     H62907   6.923   3.010   7.532 -0.3205 -0.3132  0.8822
  466MOL0     H62908   7.262   3.072   7.296 -1.4725  1.1155 -2.1358
  466MOL0     H62909   6.401   3.208   7.199 -0.3804  0.5644  0.5813
  466MOL0     H62910   6.174   3.289   7.133  0.7589 -0.6866 -0.6228
  467MOL0     O62911   8.593   8.462   5.198  0.1324  0.6239  0.4997
  467MOL0     C62912   8.595   8.339   5.210  0.2435  0.5744  0.7689
  467MOL0     O62913   8.483   8.264   5.228  0.0417  0.6672 -0.1146
  467MOL0     C62914   8.360   8.322   5.228  1.0159  0.6005 -0.4962
  467MOL0     C62915   8.318   8.417   5.317 -1.1032  0.0733 -0.1443
  467MOL0     C62916   8.196   8.475   5.318 -0.1165 -0.1791  0.6267
  467MOL0     C62917   8.104   8.439   5.222 -0.1552  0.1176 -0.0793
  467MOL0     O62918   7.983   8.499   5.209 -0.2095  0.5206  0.3051
  467MOL0     C62919   7.947   8.617   5.285  0.5757 -0.2547  0.4568
  467MOL0     C62920   7.811   8.655   5.208  0.0741  0.5172 -0.3614
  467MOL0     C62921   7.697   8.569   5.272  0.8246 -0.3198  0.4411
  467MOL0     C62922   7.703   8.429   5.219  0.9611 -0.5630  0.2751
  467MOL0     C62923   7.574   8.339   5.246  0.5116  0.1449 -0.4731
  467MOL0     C62924   7.549   8.339   5.394 -0.4311 -0.0884  0.2857
  467MOL0     C62925   7.425   8.254   5.428  0.2315  0.0104 -0.4466
  467MOL0     C62926   7.450   8.100   5.425 -0.3708 -0.9968  0.0361
  467MOL0     N62927   7.333   8.017   5.384  0.5089  0.3850  0.0525
  467MOL0     C62928   7.244   7.939   5.465  0.0306 -0.1053  0.6069
  467MOL0     C62929   7.183   7.858   5.375 -0.3626  0.6246 -0.6395
  467MOL0     C62930   7.073   7.758   5.396  0.1072  0.7472  0.2457
  467MOL0     C62931   6.947   7.826   5.454  0.7984  0.7131 -0.1259
  467MOL0     C62932   6.894   7.943   5.367  0.6778 -0.3003 -0.5948
  467MOL0     C62933   6.751   7.985   5.396  0.6842  0.2579 -0.9265
  467MOL0     O62934   6.665   7.874   5.375  0.2478  0.3408  0.9204
  467MOL0     C62935   6.538   7.882   5.436  0.4723 -0.2222  0.0147
  467MOL0     C62936   6.449   7.783   5.434  0.1917  0.3584  0.5676
  467MOL0     C62937   6.327   7.796   5.510  0.2694 -0.5470 -0.1082
  467MOL0     C62938   6.232   7.687   5.504  0.3227  0.9615 -0.5872
  467MOL0     C62939   6.297   7.912   5.584 -0.8061  0.2904  0.3113
  467MOL0     C62940   6.176   7.934   5.668  0.4153 -0.0097 -0.1817
  467MOL0     O62941   6.064   7.878   5.610  0.1727  0.3395 -0.2553
  467MOL0     C62942   5.943   7.921   5.661 -0.1509 -0.5403 -0.2881
  467MOL0     C62943   5.896   7.868   5.783 -0.4378 -0.3296  0.5610
  467MOL0     C62944   5.769   7.901   5.832 -0.1006  0.3497 -0.1905
  467MOL0     C62945   5.692   7.998   5.763  1.1307  0.4942  0.7103
  467MOL0     O62946   5.570   8.022   5.828  0.2158 -0.4282 -0.6554
  467MOL0     C62947   5.489   8.132   5.786  0.2096 -0.3757 -0.7271
  467MOL0     C62948   5.342   8.093   5.802 -0.2162 -0.5749  0.3045
  467MOL0     C62949   5.260   8.178   5.709 -0.1242  0.0304 -0.3233
  467MOL0     C62950   5.122   8.185   5.769 -0.9775 -0.8184 -0.4561
  467MOL0     C62951   5.010   8.203   5.664 -0.0398 -0.1489  0.3235
  467MOL0     C62952   4.869   8.213   5.736  0.5173 -0.2274  0.1590
  467MOL0     C62953   4.804   8.076   5.760 -0.1836 -0.7577 -0.4939
  467MOL0     C62954   4.669   8.096   5.838 -0.4121 -0.9188  0.6173
  467MOL0    Cl62955   4.598   7.937   5.883  0.4769 -0.0781  0.2275
  467MOL0     C62956   5.735   8.042   5.637  0.6998  0.4287  0.3189
  467MOL0     C62957   5.865   8.014   5.596 -1.3149  0.1300  0.4163
  467MOL0     O62958   6.179   8.015   5.753 -0.0123 -0.5266  0.0204
  467MOL0     C62959   6.385   8.020   5.572  0.3079  1.0916 -0.0516
  467MOL0     C62960   6.497   8.006   5.501 -0.5508  0.8644 -0.7069
  467MOL0     N62961   7.237   7.886   5.252  0.5331 -0.1975 -0.2654
  467MOL0     N62962   7.300   7.995   5.247  0.5071  0.2761 -1.0233
  467MOL0     C62963   8.134   8.338   5.128 -0.4124 -0.3249 -0.3422
  467MOL0     C62964   8.257   8.269   5.140  0.5189  0.0261  0.3054
  467MOL0     C62965   8.731   8.275   5.221  0.5700  0.3648 -0.4460
  467MOL0     C62966   8.746   8.152   5.280  0.1551  1.0055 -0.4422
  467MOL0     C62967   8.867   8.084   5.285  0.4477 -0.4841 -0.8033
  467MOL0     C62968   8.981   8.145   5.234 -0.5598 -0.0448  0.7439
  467MOL0     O62969   9.096   8.067   5.243  0.2487  0.2536 -0.5952
  467MOL0     C62970   9.216   8.112   5.171 -0.2779  0.6112  0.5263
  467MOL0     C62971   9.285   8.232   5.242  0.5677  0.4657  0.3040
  467MOL0     C62972   9.392   8.283   5.160 -0.8274 -0.2125 -0.1616
  467MOL0     C62973   9.471   8.389   5.223 -0.8085  0.1519 -0.0666
  467MOL0     C62974   9.596   8.435   5.153 -0.4997 -0.1456 -0.3801
  467MOL0     C62975   9.675   8.496   5.088 -0.2386 -0.1007 -0.6805
  467MOL0     C62976   8.968   8.271   5.174  0.0776  0.4306  0.8342
  467MOL0     C62977   8.849   8.336   5.170 -0.2395  0.3624  0.0092
  467MOL0     H62978   8.384   8.456   5.394 -0.6788  0.2912 -0.6046
  467MOL0     H62979   8.180   8.550   5.395 -0.4815  0.0703  0.3125
  467MOL0     H62980   7.927   8.592   5.389 -1.3389 -2.3226 -0.3409
  467MOL0     H62981   8.021   8.694   5.262  0.9157 -0.1374  1.9012
  467MOL0     H62982   7.796   8.759   5.236  1.0869 -0.0677  2.7159
  467MOL0     H62983   7.817   8.644   5.099 -0.7775  0.4076 -0.4059
  467MOL0     H62984   7.702   8.574   5.381  1.0668  1.2912  0.3798
  467MOL0     H62985   7.597   8.607   5.248  1.8506  2.1143 -0.2302
  467MOL0     H62986   7.732   8.436   5.114  1.4019  0.0840  0.4270
  467MOL0     H62987   7.794   8.378   5.252  1.0926 -0.5076  0.0010
  467MOL0     H62988   7.489   8.371   5.184 -0.5896 -0.8239  0.4896
  467MOL0     H62989   7.595   8.240   5.205 -0.6085 -0.5343  0.5464
  467MOL0     H62990   7.636   8.324   5.458  0.1015  1.1957 -0.0992
  467MOL0     H62991   7.516   8.439   5.424 -2.6133 -0.7995  0.4670
  467MOL0     H62992   7.401   8.281   5.531  0.6564  4.0033 -1.2496
  467MOL0     H62993   7.343   8.285   5.363 -0.9766  1.7906  1.7652
  467MOL0     H62994   7.484   8.086   5.528 -1.0405  5.9637  1.6482
  467MOL0     H62995   7.537   8.076   5.362 -0.2704  2.5440 -1.4274
  467MOL0     H62996   7.226   7.942   5.572 -1.1297  0.0141  0.4271
  467MOL0     H62997   7.054   7.723   5.294  4.3956 -2.9567  0.3936
  467MOL0     H62998   7.108   7.674   5.456 -3.3139 -1.0112 -0.0170
  467MOL0     H62999   6.966   7.846   5.560 -0.2575 -2.7726  0.8381
  467MOL0     H63000   6.868   7.751   5.458 -0.0340  1.0528 -4.5458
  467MOL0     H63001   6.908   7.915   5.262 -1.3161 -1.7261 -0.5151
  467MOL0     H63002   6.950   8.036   5.387 -0.4280  0.5945 -1.5268
  467MOL0     H63003   6.725   8.080   5.348 -1.2793 -0.7260 -1.9061
  467MOL0     H63004   6.762   8.008   5.503  1.2802  1.2296 -1.1835
  467MOL0     H63005   6.468   7.692   5.377  0.8162  0.8475 -0.0091
  467MOL0     H63006   6.283   7.592   5.481  0.3690 -0.2725  3.6733
  467MOL0     H63007   6.182   7.673   5.600 -1.2523 -0.1192 -1.5298
  467MOL0     H63008   6.157   7.709   5.428  1.9580 -0.3518 -2.6983
  467MOL0     H63009   5.958   7.800   5.840  1.8151  0.8073 -0.4035
  467MOL0     H63010   5.740   7.878   5.934  1.6727  4.5491  1.5117
  467MOL0     H63011   5.501   8.212   5.860  1.2715 -1.6417  0.4937
  467MOL0     H63012   5.523   8.162   5.686  2.6075 -0.1295  0.1212
  467MOL0     H63013   5.334   7.986   5.778 -1.5039 -0.4153 -0.0607
  467MOL0     H63014   5.313   8.109   5.906  0.3937 -1.7633  0.6881
  467MOL0     H63015   5.240   8.130   5.613  0.5641 -1.1217  0.0883
  467MOL0     H63016   5.299   8.279   5.699 -1.1644  1.2199  4.7776
  467MOL0     H63017   5.094   8.090   5.815  0.8441 -0.8974  0.5825
  467MOL0     H63018   5.116   8.266   5.843 -1.2526 -1.2319 -0.0214
  467MOL0     H63019   5.005   8.117   5.596 -2.0580 -0.4277  0.7606
  467MOL0     H63020   5.041   8.290   5.606  2.1173 -0.6709  0.6307
  467MOL0     H63021   4.885   8.272   5.827 -1.2868  1.8634 -0.8056
  467MOL0     H63022   4.797   8.273   5.680 -0.0855  0.1891  1.3351
  467MOL0     H63023   4.869   8.016   5.823  0.2299  1.1081  0.9520
  467MOL0     H63024   4.792   8.026   5.664 -1.5605 -0.0401 -0.7353
  467MOL0     H63025   4.594   8.142   5.773  0.0798  1.7099  1.7513
  467MOL0     H63026   4.690   8.161   5.924  0.7313 -1.0924  0.4908
  467MOL0     H63027   5.673   8.110   5.580  0.8735  1.0781  0.8825
  467MOL0     H63028   5.895   8.058   5.501 -1.1648  3.0422  1.6806
  467MOL0     H63029   6.365   8.114   5.623 -1.2869  2.2229 -2.5376
  467MOL0     H63030   6.556   8.095   5.519  3.4826 -2.0790  3.0337
  467MOL0     H63031   8.059   8.297   5.061  0.4840  0.0245 -1.5832
  467MOL0     H63032   8.277   8.182   5.078  0.2772 -1.1519  1.8260
  467MOL0     H63033   8.665   8.105   5.334 -0.9291  1.4504 -1.6444
  467MOL0     H63034   8.874   7.977   5.307 -0.3804 -0.0083  2.1441
  467MOL0     H63035   9.286   8.029   5.186  0.0721  0.1261 -2.9388
  467MOL0     H63036   9.194   8.130   5.065  3.1467  0.3177 -0.3640
  467MOL0     H63037   9.331   8.201   5.336  0.8413  4.8291  1.8765
  467MOL0     H63038   9.214   8.314   5.260 -0.3153  0.1266 -1.4970
  467MOL0     H63039   9.350   8.329   5.071  0.9965  0.8193 -0.5479
  467MOL0     H63040   9.450   8.199   5.120 -0.0751 -1.4433  3.2006
  467MOL0     H63041   9.498   8.367   5.327  0.5593 -0.7032 -0.5856
  467MOL0     H63042   9.408   8.477   5.239  1.1850  1.9625 -1.5225
  467MOL0     H63043   9.746   8.562   5.043 -0.7794  0.7650 -0.3022
  467MOL0     H63044   9.050   8.312   5.117 -0.0169 -0.7053 -0.1534
  467MOL0     H63045   8.850   8.435   5.125  0.3729  0.4536  0.2123
  468MOL0     O63046  10.998   3.663   9.266 -0.1488  0.4664  0.0249
  468MOL0     C63047  10.940   3.575   9.327 -0.1946  0.6940  0.6865
  468MOL0     O63048  10.994   3.465   9.385  0.4610 -0.2757  0.2595
  468MOL0     C63049  11.126   3.435   9.365 -0.5039 -0.0652  0.7161
  468MOL0     C63050  11.173   3.380   9.243  1.0572 -0.3394 -0.2856
  468MOL0     C63051  11.308   3.375   9.213 -0.6593  1.5231 -0.3664
  468MOL0     C63052  11.405   3.387   9.317 -0.2360  0.2162 -0.3157
  468MOL0     O63053  11.543   3.370   9.309  0.2859  0.0101  0.8220
  468MOL0     C63054  11.598   3.272   9.219  1.0388 -0.8199  0.4370
  468MOL0     C63055  11.737   3.297   9.167 -0.0408  0.1356  0.4279
  468MOL0     C63056  11.834   3.311   9.275 -0.2324 -0.1648 -0.5488
  468MOL0     C63057  11.978   3.304   9.230 -0.7432 -0.3541  0.5142
  468MOL0     C63058  12.013   3.173   9.166  1.3056 -0.5907  0.3074
  468MOL0     C63059  12.161   3.168   9.152 -0.6774  1.1239  0.2288
  468MOL0     C63060  12.225   3.049   9.082  0.7291  0.2296 -0.4107
  468MOL0     C63061  12.167   2.912   9.119  0.3211  0.0627  0.4700
  468MOL0     N63062  12.031   2.891   9.057  0.2421 -0.2808  0.0400
  468MOL0     C63063  11.928   2.814   9.112 -0.1568 -0.7769 -0.3953
  468MOL0     C63064  11.837   2.800   9.012  0.2546 -0.3920  0.1955
  468MOL0     C63065  11.691   2.750   9.031 -0.4390 -0.3448 -0.3220
  468MOL0     C63066  11.644   2.670   8.912  0.0128  0.2329 -0.0110
  468MOL0     C63067  11.743   2.546   8.894  0.3753 -0.9411 -0.3631
  468MOL0     C63068  11.664   2.435   8.827 -0.0321  0.3327  0.1640
  468MOL0     O63069  11.568   2.384   8.916 -0.3001  0.0057 -0.7879
  468MOL0     C63070  11.471   2.292   8.877  0.2661 -0.7492  0.5592
  468MOL0     C63071  11.452   2.243   8.748 -0.1838 -0.7612 -0.6236
  468MOL0     C63072  11.370   2.140   8.719  0.4180  0.0771  0.5046
  468MOL0     C63073  11.347   2.111   8.571  0.3333 -0.1461  0.6875
  468MOL0     C63074  11.280   2.092   8.828  0.3456  0.2622 -0.6781
  468MOL0     C63075  11.181   1.976   8.809  0.1896 -0.4986  0.1388
  468MOL0     O63076  11.125   1.941   8.932 -0.5740  0.4501  0.1142
  468MOL0     C63077  11.025   1.849   8.925 -0.5045  0.1283  0.2871
  468MOL0     C63078  10.893   1.879   8.903 -0.0178 -0.5211  0.4886
  468MOL0     C63079  10.789   1.787   8.891 -0.4457  0.6437 -0.5866
  468MOL0     C63080  10.824   1.659   8.902 -0.4228  0.6352 -0.3763
  468MOL0     O63081  10.744   1.553   8.899 -0.0261  0.1202  0.0381
  468MOL0     C63082  10.601   1.575   8.917  0.0861 -0.7940 -0.4139
  468MOL0     C63083  10.563   1.598   9.063  0.1178 -0.6332 -0.2261
  468MOL0     C63084  10.591   1.478   9.156  0.4929  0.8949  0.3215
  468MOL0     C63085  10.475   1.471   9.271  0.4084  0.2757 -0.0440
  468MOL0     C63086  10.340   1.406   9.224 -0.0937 -0.2231 -0.3574
  468MOL0     C63087  10.230   1.414   9.335  0.1899 -0.0538 -0.1502
  468MOL0     C63088  10.123   1.311   9.292 -0.1285 -0.8903  0.4629
  468MOL0     C63089   9.997   1.325   9.378  1.3263  0.0418 -0.1622
  468MOL0    Cl63090   9.902   1.477   9.364 -0.2949 -0.4287 -0.1321
  468MOL0     C63091  10.960   1.622   8.926 -0.2024 -0.3393  0.1035
  468MOL0     C63092  11.066   1.717   8.936  1.0601 -0.5174 -0.4338
  468MOL0     O63093  11.150   1.928   8.698  0.8737 -0.0659 -0.8941
  468MOL0     C63094  11.301   2.138   8.957 -0.0216  0.9089 -0.3895
  468MOL0     C63095  11.390   2.242   8.972  0.6652 -0.8865 -0.0274
  468MOL0     N63096  11.892   2.857   8.898 -0.5061 -0.7381 -0.1345
  468MOL0     N63097  12.002   2.920   8.926 -0.8468  0.3082  0.3155
  468MOL0     C63098  11.363   3.436   9.440  0.6740 -0.0597  0.0088
  468MOL0     C63099  11.221   3.458   9.464 -0.0013 -0.3615 -0.4702
  468MOL0     C63100  10.790   3.583   9.349 -0.3880  0.1137  0.8994
  468MOL0     C63101  10.715   3.470   9.394  0.0843 -0.4556  0.9960
  468MOL0     C63102  10.575   3.480   9.397  0.5379  0.5610  0.7997
  468MOL0     C63103  10.511   3.605   9.369  0.1473 -0.4457  0.2250
  468MOL0     O63104  10.372   3.637   9.367  0.4230 -0.2778  0.5500
  468MOL0     C63105  10.292   3.527   9.408 -0.3147  0.2656 -0.6185
  468MOL0     C63106  10.256   3.424   9.301  0.4648 -0.3070 -0.1563
  468MOL0     C63107  10.154   3.319   9.357  0.4141  0.0682 -0.6401
  468MOL0     C63108  10.085   3.223   9.260  0.6642  0.4404 -0.1011
  468MOL0     C63109  10.000   3.127   9.321  0.0864  0.2035  0.7880
  468MOL0     C63110   9.919   3.047   9.368 -0.9728 -0.0965 -0.9764
  468MOL0     C63111  10.581   3.715   9.334 -0.1810  0.9483 -0.0808
  468MOL0     C63112  10.724   3.697   9.314 -0.1161 -0.9397  0.1064
  468MOL0     H63113  11.102   3.362   9.163  1.3903  0.0273 -0.6630
  468MOL0     H63114  11.338   3.338   9.115 -4.0733  0.2211 -1.1020
  468MOL0     H63115  11.594   3.173   9.265 -0.3593 -1.6450 -1.3480
  468MOL0     H63116  11.531   3.262   9.134 -0.5064 -0.0868  1.5116
  468MOL0     H63117  11.765   3.225   9.089  2.4008 -0.1734  1.4994
  468MOL0     H63118  11.740   3.391   9.111 -0.2754 -1.4432 -2.4004
  468MOL0     H63119  11.824   3.414   9.313 -1.4032 -0.1648 -0.8090
  468MOL0     H63120  11.808   3.244   9.358 -0.1660  1.9053  1.2667
  468MOL0     H63121  12.004   3.382   9.158  0.8705 -1.3023  0.0019
  468MOL0     H63122  12.031   3.332   9.322 -2.7585  1.5445  1.1864
  468MOL0     H63123  11.973   3.096   9.232 -0.4616 -0.5167 -0.6239
  468MOL0     H63124  11.956   3.169   9.073  0.3895 -1.0909  0.8689
  468MOL0     H63125  12.192   3.260   9.102 -1.6581  2.1455  1.4342
  468MOL0     H63126  12.205   3.167   9.253 -1.2728  1.4546  0.4970
  468MOL0     H63127  12.223   3.072   8.975 -0.2973 -2.1323 -0.9775
  468MOL0     H63128  12.332   3.040   9.099  0.3139 -1.7142  1.7378
  468MOL0     H63129  12.148   2.907   9.227 -2.0659  4.4977  0.4888
  468MOL0     H63130  12.233   2.830   9.091  0.7585  0.7078 -0.4398
  468MOL0     H63131  11.910   2.775   9.212 -1.5136  1.2631  0.2067
  468MOL0     H63132  11.712   2.674   9.107 -1.2373 -1.4196 -1.1477
  468MOL0     H63133  11.613   2.824   9.056 -0.1272 -0.7147  1.9715
  468MOL0     H63134  11.640   2.736   8.825  2.2541  0.7999  0.2486
  468MOL0     H63135  11.541   2.646   8.940  0.5694 -0.7630  1.2786
  468MOL0     H63136  11.774   2.504   8.990  0.5242 -1.3436 -0.5849
  468MOL0     H63137  11.839   2.560   8.843  0.8349 -0.2539  0.6592
  468MOL0     H63138  11.731   2.351   8.805 -0.4661  0.6241 -2.5928
  468MOL0     H63139  11.620   2.469   8.733 -3.5367  0.8848  1.8606
  468MOL0     H63140  11.512   2.278   8.665  1.7845  0.4992  1.2383
  468MOL0     H63141  11.347   2.005   8.547 -0.0333  0.4149 -2.1971
  468MOL0     H63142  11.246   2.141   8.542  0.9502  3.9740  2.1063
  468MOL0     H63143  11.414   2.174   8.512  1.6936  1.0774  3.3298
  468MOL0     H63144  10.863   1.983   8.897 -1.0968 -0.8928 -1.3975
  468MOL0     H63145  10.685   1.818   8.888  0.0746  3.0785  1.9475
  468MOL0     H63146  10.569   1.659   8.855  2.0931 -1.1389 -2.0182
  468MOL0     H63147  10.557   1.484   8.877  2.1223 -1.8272 -0.4194
  468MOL0     H63148  10.620   1.681   9.106 -1.0543 -1.1128  2.4803
  468MOL0     H63149  10.458   1.628   9.058  0.6115  1.4506  0.7087
  468MOL0     H63150  10.689   1.476   9.203 -0.0514 -0.6423  1.4685
  468MOL0     H63151  10.582   1.392   9.088 -1.5993  0.0250  1.5829
  468MOL0     H63152  10.517   1.423   9.360  3.6371  1.1473 -0.9594
  468MOL0     H63153  10.448   1.575   9.295 -2.3279 -0.3433 -0.2193
  468MOL0     H63154  10.362   1.300   9.207 -1.1694 -1.3604  4.0342
  468MOL0     H63155  10.300   1.462   9.138 -0.3679 -1.1200 -0.8260
  468MOL0     H63156  10.267   1.391   9.435  0.6292  1.7734  0.1513
  468MOL0     H63157  10.184   1.514   9.335 -1.1137 -0.6318 -0.4977
  468MOL0     H63158  10.166   1.211   9.302  1.8186 -0.3150 -1.3626
  468MOL0     H63159  10.083   1.322   9.190 -3.6155  3.3451  2.0010
  468MOL0     H63160  10.024   1.315   9.483 -0.5563 -1.8130  0.1958
  468MOL0     H63161   9.929   1.245   9.349  1.3746  0.7045 -2.2877
  468MOL0     H63162  10.973   1.516   8.945 -2.6669 -0.2235  3.0747
  468MOL0     H63163  11.170   1.685   8.935  0.8061 -1.3699 -0.8753
  468MOL0     H63164  11.250   2.099   9.044 -0.0596 -0.4781 -1.0014
  468MOL0     H63165  11.403   2.295   9.066 -0.2396  0.0041 -0.3834
  468MOL0     H63166  11.435   3.478   9.510 -2.0871  3.0506  1.2797
  468MOL0     H63167  11.181   3.505   9.553  1.8069  2.0161 -0.7916
  468MOL0     H63168  10.771   3.379   9.412  1.2463 -0.7602 -3.0125
  468MOL0     H63169  10.520   3.387   9.395  0.4755  0.5564  1.9901
  468MOL0     H63170  10.331   3.488   9.503 -0.7536  3.3678  0.9704
  468MOL0     H63171  10.201   3.579   9.438 -0.0235 -1.3540  3.9114
  468MOL0     H63172  10.339   3.362   9.265 -0.6909 -2.9387  1.3883
  468MOL0     H63173  10.212   3.476   9.215  0.7950  0.2585  0.0152
  468MOL0     H63174  10.082   3.366   9.425 -0.7010 -0.5373 -1.3610
  468MOL0     H63175  10.220   3.257   9.418  1.1243  0.8169 -0.6323
  468MOL0     H63176  10.165   3.163   9.216  1.7170  2.0707 -0.5018
  468MOL0     H63177  10.037   3.276   9.177  0.3341  0.1815 -0.0758
  468MOL0     H63178   9.854   2.969   9.403 -0.4056 -1.1898 -2.2865
  468MOL0     H63179  10.518   3.802   9.321 -1.4322  0.0390 -0.3459
  468MOL0     H63180  10.777   3.775   9.261 -0.7725  0.2670  1.1645
  469MOL0     O63181   9.104   1.489   5.444  0.1002  0.3271  0.1972
  469MOL0     C63182   9.204   1.501   5.518 -0.4522  0.2723 -0.1938
  469MOL0     O63183   9.217   1.590   5.617  0.4084 -0.4990 -0.1167
  469MOL0     C63184   9.110   1.674   5.643  0.1007  0.4200 -0.7871
  469MOL0     C63185   9.022   1.647   5.750 -0.9359 -1.2465 -0.1389
  469MOL0     C63186   8.923   1.735   5.786  0.3341 -0.6072  0.2925
  469MOL0     C63187   8.902   1.853   5.704  0.4906  0.2900 -0.2382
  469MOL0     O63188   8.809   1.951   5.731 -0.0244 -0.6402 -0.0217
  469MOL0     C63189   8.690   1.906   5.797 -1.2575  0.0808 -0.8629
  469MOL0     C63190   8.579   1.997   5.755  1.0037  0.2803 -0.0670
  469MOL0     C63191   8.441   1.951   5.787  0.5349  1.5684  0.3230
  469MOL0     C63192   8.394   1.837   5.693  0.1040  1.1251 -0.5320
  469MOL0     C63193   8.264   1.773   5.728 -0.3551  0.0509 -0.7305
  469MOL0     C63194   8.280   1.671   5.838 -0.3345 -0.6026 -0.3013
  469MOL0     C63195   8.143   1.621   5.888 -0.1318  0.2394 -0.8205
  469MOL0     C63196   8.161   1.491   5.968 -0.1854  0.1821  0.4380
  469MOL0     N63197   8.186   1.381   5.875 -0.1306  0.0998 -0.1412
  469MOL0     C63198   8.097   1.287   5.819 -0.7955 -0.7361  0.7384
  469MOL0     C63199   8.176   1.193   5.753  0.1755  0.5386  0.2632
  469MOL0     C63200   8.130   1.066   5.686  0.6334 -0.1524  0.0402
  469MOL0     C63201   8.165   0.930   5.753 -0.0097 -0.8404  0.2651
  469MOL0     C63202   8.215   0.929   5.896 -0.3847 -0.4477  0.2216
  469MOL0     C63203   8.127   0.997   6.006 -0.6688 -0.0405 -0.0884
  469MOL0     O63204   8.007   0.919   6.027 -0.6344 -0.4828 -0.6462
  469MOL0     C63205   7.921   0.966   6.123  0.2366  0.5671  0.2771
  469MOL0     C63206   7.817   0.884   6.168 -0.5661 -0.6088 -0.0373
  469MOL0     C63207   7.717   0.913   6.264 -0.4006  0.4018  0.7217
  469MOL0     C63208   7.605   0.808   6.289 -0.9821  0.2199  0.0604
  469MOL0     C63209   7.733   1.034   6.329 -0.5014  0.1253  0.3776
  469MOL0     C63210   7.635   1.088   6.437  0.2689 -0.3264 -0.8462
  469MOL0     O63211   7.513   1.036   6.430  0.7263  0.7143 -0.7030
  469MOL0     C63212   7.416   1.093   6.506 -0.1992  0.0485  0.5086
  469MOL0     C63213   7.305   1.152   6.445  0.3161  0.4493  0.0750
  469MOL0     C63214   7.220   1.235   6.525 -0.0237 -0.5312 -0.2951
  469MOL0     C63215   7.241   1.254   6.662  1.3460  0.8514 -0.6456
  469MOL0     O63216   7.156   1.330   6.738 -0.4824 -0.5138  0.1911
  469MOL0     C63217   7.017   1.301   6.735  0.8044  0.7518  0.1272
  469MOL0     C63218   6.940   1.425   6.777  0.2287 -0.4292  0.2622
  469MOL0     C63219   6.788   1.378   6.783  0.7119  0.4371  0.0006
  469MOL0     C63220   6.693   1.499   6.830  0.6643 -0.4339 -0.0943
  469MOL0     C63221   6.542   1.458   6.856 -0.3577  0.3255  0.1971
  469MOL0     C63222   6.453   1.569   6.910  0.3612  0.4499  0.9949
  469MOL0     C63223   6.309   1.514   6.900 -0.4375  0.4989 -0.4921
  469MOL0     C63224   6.214   1.627   6.934  0.5217 -0.9952  1.1136
  469MOL0    Cl63225   6.242   1.766   6.818  0.5520  0.4059 -0.1769
  469MOL0     C63226   7.353   1.195   6.718  1.1944 -0.6151  0.5218
  469MOL0     C63227   7.438   1.121   6.640  1.1915  0.1563 -0.2468
  469MOL0     O63228   7.660   1.193   6.503 -0.2043 -0.4346  0.0212
  469MOL0     C63229   7.830   1.124   6.281  0.1952  0.0429 -0.2927
  469MOL0     C63230   7.930   1.091   6.187  0.2176 -0.4224  0.3650
  469MOL0     N63231   8.306   1.234   5.773  0.4222  0.1151  0.0072
  469MOL0     N63232   8.313   1.341   5.843  0.3102  0.0215  0.9133
  469MOL0     C63233   8.986   1.880   5.598 -0.2803 -0.4569  0.6459
  469MOL0     C63234   9.087   1.796   5.568 -0.3463  0.3756 -0.6585
  469MOL0     C63235   9.330   1.413   5.491 -0.4779 -0.3073 -0.1430
  469MOL0     C63236   9.341   1.327   5.384  0.5420 -0.2440  0.1896
  469MOL0     C63237   9.464   1.268   5.345 -0.8784 -1.0085 -0.1545
  469MOL0     C63238   9.574   1.290   5.431  0.6432  0.6711 -0.0934
  469MOL0     O63239   9.704   1.255   5.404 -0.0747 -1.1957  0.8064
  469MOL0     C63240   9.746   1.241   5.267 -0.2031  0.4031  0.7555
  469MOL0     C63241   9.895   1.258   5.260 -0.1617  0.3377  0.1632
  469MOL0     C63242   9.949   1.388   5.310 -0.1693 -0.1207 -0.5690
  469MOL0     C63243  10.077   1.446   5.242 -0.5832 -0.0028 -0.4171
  469MOL0     C63244  10.196   1.366   5.276 -0.1864  0.3800 -0.3010
  469MOL0     C63245  10.296   1.301   5.290  0.2406  0.3104  0.1855
  469MOL0     C63246   9.568   1.358   5.553 -1.1674  0.0089  0.1017
  469MOL0     C63247   9.449   1.427   5.572 -0.1337  0.7889 -0.1968
  469MOL0     H63248   9.029   1.550   5.797 -0.6339 -0.2167  2.0479
  469MOL0     H63249   8.862   1.706   5.872  0.6938 -1.7869  0.1732
  469MOL0     H63250   8.676   1.804   5.760  0.6468 -0.7649  0.6198
  469MOL0     H63251   8.697   1.905   5.906 -0.5891 -1.9639 -0.8951
  469MOL0     H63252   8.606   2.095   5.795  1.3165  0.0508  0.2846
  469MOL0     H63253   8.595   1.988   5.647 -0.5030 -0.6335 -0.2474
  469MOL0     H63254   8.450   1.918   5.890 -3.0709 -1.0743 -0.0164
  469MOL0     H63255   8.361   2.026   5.788 -0.6031  0.4170 -0.4817
  469MOL0     H63256   8.386   1.888   5.596  0.9088  1.7689 -0.2808
  469MOL0     H63257   8.475   1.763   5.688  0.2910  1.3930 -2.3665
  469MOL0     H63258   8.197   1.853   5.762  2.7858  1.4180  3.0477
  469MOL0     H63259   8.220   1.722   5.641 -0.4770 -1.6364  0.2823
  469MOL0     H63260   8.334   1.588   5.792 -1.7359 -0.8708 -1.5470
  469MOL0     H63261   8.333   1.707   5.927  1.0245 -3.2154  0.0340
  469MOL0     H63262   8.094   1.704   5.939 -0.4593 -1.1490  1.2380
  469MOL0     H63263   8.088   1.602   5.796  0.4591  0.9837 -1.3392
  469MOL0     H63264   8.071   1.468   6.026  0.4186 -3.0550  0.2733
  469MOL0     H63265   8.240   1.493   6.043 -1.7947 -1.0347  2.2646
  469MOL0     H63266   7.989   1.291   5.821 -0.8354 -0.9174  3.7994
  469MOL0     H63267   8.023   1.071   5.668  0.4700  0.0498  1.0277
  469MOL0     H63268   8.187   1.071   5.593  1.5589  0.9985  0.6395
  469MOL0     H63269   8.251   0.893   5.696  1.7025  3.7943 -0.6325
  469MOL0     H63270   8.074   0.870   5.746 -1.2392  1.0058 -0.4220
  469MOL0     H63271   8.317   0.968   5.896 -0.7840  0.7750 -2.2599
  469MOL0     H63272   8.213   0.823   5.924  3.0598 -0.9768 -1.0731
  469MOL0     H63273   8.100   1.099   5.977 -0.4397  0.8255  2.4867
  469MOL0     H63274   8.183   1.001   6.100 -0.4811  1.5852 -0.2376
  469MOL0     H63275   7.819   0.787   6.118  3.4297 -1.8748  2.0830
  469MOL0     H63276   7.515   0.861   6.258  0.1125  1.6917 -0.7494
  469MOL0     H63277   7.620   0.712   6.237  2.5347 -1.0081  2.9564
  469MOL0     H63278   7.613   0.781   6.395  0.4723  0.0267 -0.0710
  469MOL0     H63279   7.300   1.153   6.337 -0.1873 -0.9033  0.0598
  469MOL0     H63280   7.136   1.285   6.478  0.6524 -0.1946 -1.1967
  469MOL0     H63281   6.983   1.275   6.635 -0.6756  0.8650  0.5865
  469MOL0     H63282   7.000   1.212   6.797  0.5351  0.0500 -0.9226
  469MOL0     H63283   6.974   1.473   6.868  1.3500  1.2588 -0.9820
  469MOL0     H63284   6.949   1.503   6.701  0.2833 -1.6973 -1.0804
  469MOL0     H63285   6.772   1.306   6.864  0.7215  0.6703  0.2109
  469MOL0     H63286   6.741   1.327   6.698 -4.0289  2.2750  1.1899
  469MOL0     H63287   6.737   1.547   6.918  1.9663 -0.7784 -0.5390
  469MOL0     H63288   6.691   1.573   6.749  0.8357 -1.0055 -0.6247
  469MOL0     H63289   6.540   1.378   6.931 -0.3205 -0.6120 -0.7871
  469MOL0     H63290   6.509   1.421   6.759  2.0292 -1.7537  0.0869
  469MOL0     H63291   6.478   1.585   7.015 -0.2650 -2.6052  1.7068
  469MOL0     H63292   6.472   1.669   6.868 -1.9539  1.2305  1.6791
  469MOL0     H63293   6.294   1.433   6.971  0.8845  1.0269  0.4538
  469MOL0     H63294   6.298   1.478   6.798  2.2766 -1.3739 -0.2278
  469MOL0     H63295   6.237   1.659   7.036  1.2619 -0.5630  0.8143
  469MOL0     H63296   6.113   1.584   6.940  0.9454 -1.8454  2.7627
  469MOL0     H63297   7.375   1.209   6.823  2.3148 -1.0253  0.3608
  469MOL0     H63298   7.529   1.097   6.694  0.6109  2.0486  1.7436
  469MOL0     H63299   7.833   1.226   6.318  0.2136  0.3672 -1.1701
  469MOL0     H63300   8.007   1.165   6.168  0.6532 -0.4930  1.7448
  469MOL0     H63301   8.983   1.961   5.527  2.4179 -0.9320 -0.1067
  469MOL0     H63302   9.163   1.809   5.491  3.3119 -1.9189  2.2130
  469MOL0     H63303   9.258   1.307   5.318  3.1687 -0.8940 -3.2025
  469MOL0     H63304   9.474   1.225   5.245 -0.0995  1.5576 -1.2566
  469MOL0     H63305   9.722   1.139   5.237  0.6747  0.8221 -1.5611
  469MOL0     H63306   9.701   1.311   5.197  2.2753  0.9493 -0.4102
  469MOL0     H63307   9.915   1.242   5.154 -0.7812 -3.1814  0.4708
  469MOL0     H63308   9.935   1.176   5.321 -2.9997 -0.3491  1.2770
  469MOL0     H63309   9.974   1.373   5.416 -1.7464 -0.2713 -0.1967
  469MOL0     H63310   9.871   1.463   5.296  1.3513  1.6016 -0.2214
  469MOL0     H63311  10.078   1.550   5.274 -1.5304  0.3060 -1.3402
  469MOL0     H63312  10.071   1.440   5.133  0.6969 -1.5493 -0.4429
  469MOL0     H63313  10.383   1.242   5.311 -0.8711 -3.0220 -3.4726
  469MOL0     H63314   9.655   1.359   5.618 -1.1852 -2.9892  0.3126
  469MOL0     H63315   9.429   1.486   5.661 -1.0781 -1.0360  0.8733
  470MOL0     O63316   2.853   2.456   3.793  0.1099  0.9694 -0.1630
  470MOL0     C63317   2.909   2.520   3.877  0.0075  0.1846 -0.0114
  470MOL0     O63318   2.853   2.601   3.961 -0.4802 -0.4526 -0.4082
  470MOL0     C63319   2.720   2.613   3.975  0.7264 -0.2138 -0.2914
  470MOL0     C63320   2.642   2.673   3.879  0.0470  0.2006 -0.4239
  470MOL0     C63321   2.505   2.669   3.883 -0.1373  0.7465 -0.7963
  470MOL0     C63322   2.442   2.602   3.991 -0.4752  0.7285 -0.2798
  470MOL0     O63323   2.306   2.588   4.002 -0.1644 -0.5293  0.8364
  470MOL0     C63324   2.232   2.694   3.953 -0.8830 -0.4785 -0.1461
  470MOL0     C63325   2.088   2.694   4.013  0.2204 -0.2256  0.2605
  470MOL0     C63326   1.992   2.796   3.951  0.3099 -0.0725  0.0903
  470MOL0     C63327   1.847   2.765   4.000  0.0400 -0.4928  0.0950
  470MOL0     C63328   1.750   2.874   3.949 -0.2942  0.0554  0.1544
  470MOL0     C63329   1.596   2.834   3.964  0.6078 -0.9467  0.2052
  470MOL0     C63330   1.507   2.945   3.891  0.5731 -0.2613 -0.7651
  470MOL0     C63331   1.361   2.906   3.928 -0.1507 -0.8370  0.1780
  470MOL0     N63332   1.258   2.945   3.826  0.2042 -0.0945 -0.6387
  470MOL0     C63333   1.208   3.069   3.820  0.0470  0.1750  0.0132
  470MOL0     C63334   1.115   3.065   3.721  0.0839 -0.7205  0.4994
  470MOL0     C63335   1.027   3.179   3.681 -0.5933 -0.2566  0.4779
  470MOL0     C63336   0.880   3.180   3.728  0.1642  0.4141  0.1658
  470MOL0     C63337   0.870   3.178   3.875  0.6207  0.1179 -0.0582
  470MOL0     C63338   0.716   3.168   3.917 -0.3558  0.0392 -0.3087
  470MOL0     O63339   0.660   3.295   3.872  0.0686 -0.7399  0.0956
  470MOL0     C63340   0.528   3.298   3.845 -0.2064  0.3471 -0.1675
  470MOL0     C63341   0.483   3.399   3.769 -0.6775 -0.2116 -0.3356
  470MOL0     C63342   0.345   3.414   3.733 -0.2067  0.3463  0.5912
  470MOL0     C63343   0.317   3.519   3.634 -0.3874 -0.3168  0.8278
  470MOL0     C63344   0.245   3.338   3.794 -0.2181 -0.3088 -0.7774
  470MOL0     C63345   0.102   3.376   3.808  0.1214 -0.0315 -0.3714
  470MOL0     O63346   0.056   3.501   3.773  0.6152 -0.0922  0.1886
  470MOL0     C63347  -0.072   3.504   3.736  0.5583  0.4218 -0.3904
  470MOL0     C63348  -0.172   3.511   3.836  0.6102  0.6587  1.0231
  470MOL0     C63349  -0.301   3.522   3.794  0.1602  0.1921 -1.2766
  470MOL0     C63350  -0.336   3.534   3.661  0.6062 -0.1743  0.1250
  470MOL0     O63351  -0.469   3.529   3.631  0.0891 -0.4198 -0.2029
  470MOL0     C63352  -0.507   3.535   3.496 -0.3080  0.6136  0.7162
  470MOL0     C63353  -0.658   3.552   3.458  0.6167 -0.7496 -0.0432
  470MOL0     C63354  -0.732   3.427   3.514 -0.9396  0.2379 -0.5578
  470MOL0     C63355  -0.872   3.411   3.477  0.1280 -0.0612  0.4242
  470MOL0     C63356  -0.912   3.269   3.497  0.9131 -0.3683  0.2698
  470MOL0     C63357  -1.064   3.263   3.469  0.6071 -0.0553 -0.4830
  470MOL0     C63358  -1.113   3.112   3.464 -0.0055 -0.4532 -0.7166
  470MOL0     C63359  -1.263   3.078   3.430  0.5670 -0.0938  0.3666
  470MOL0    Cl63360  -1.378   3.120   3.563 -0.2891 -0.0007  0.1329
  470MOL0     C63361  -0.235   3.532   3.558  0.0480  0.5074 -0.4436
  470MOL0     C63362  -0.101   3.534   3.600 -0.4017  0.1970 -0.5226
  470MOL0     O63363   0.029   3.276   3.833 -0.5065  0.5587  0.5459
  470MOL0     C63364   0.295   3.223   3.861 -0.0150  0.7669 -0.5690
  470MOL0     C63365   0.431   3.206   3.894 -0.7270  0.4909  0.4183
  470MOL0     N63366   1.119   2.940   3.664 -0.7442  0.8107  0.9284
  470MOL0     N63367   1.210   2.868   3.720 -0.0337 -1.1609  0.1751
  470MOL0     C63368   2.520   2.541   4.090  0.6426  0.9364  0.3813
  470MOL0     C63369   2.660   2.554   4.087  0.1613 -0.0003 -0.1925
  470MOL0     C63370   3.055   2.507   3.869 -0.1157 -0.0625  0.5146
  470MOL0     C63371   3.127   2.577   3.969 -0.6896 -0.7355 -0.4692
  470MOL0     C63372   3.266   2.594   3.953 -0.0768  0.1794  0.4535
  470MOL0     C63373   3.338   2.542   3.844  0.2451 -0.3846  0.3838
  470MOL0     O63374   3.470   2.565   3.825  0.3713  0.4725  0.0581
  470MOL0     C63375   3.532   2.661   3.910  0.3964  0.7194  0.1472
  470MOL0     C63376   3.676   2.675   3.872 -0.6966  0.4459 -0.7758
  470MOL0     C63377   3.735   2.537   3.836  0.2417  0.0606 -0.3823
  470MOL0     C63378   3.890   2.534   3.838  0.1066  0.9375 -0.6182
  470MOL0     C63379   3.944   2.556   3.970 -0.2615 -0.5777  0.5870
  470MOL0     C63380   3.994   2.563   4.080  0.0709  0.4607  0.4529
  470MOL0     C63381   3.265   2.457   3.757 -0.0352 -0.3512  0.4816
  470MOL0     C63382   3.124   2.447   3.761 -0.2127 -0.0547  0.2109
  470MOL0     H63383   2.693   2.715   3.793 -0.9555  0.2770 -0.9919
  470MOL0     H63384   2.453   2.709   3.796 -1.6930 -2.5216 -1.5196
  470MOL0     H63385   2.290   2.785   3.969 -0.4944 -0.6418 -0.6111
  470MOL0     H63386   2.227   2.686   3.844  0.6852  1.7374 -0.4465
  470MOL0     H63387   2.052   2.595   3.981 -1.1679  0.5118 -0.5332
  470MOL0     H63388   2.090   2.713   4.121 -0.3612  0.9182  0.0767
  470MOL0     H63389   2.013   2.897   3.988 -1.9667 -0.0462  1.4544
  470MOL0     H63390   1.992   2.790   3.842  1.3633 -0.7732  0.1091
  470MOL0     H63391   1.813   2.670   3.957  1.0006  0.5523 -3.2441
  470MOL0     H63392   1.847   2.757   4.109  1.3280  0.6941  0.2042
  470MOL0     H63393   1.782   2.969   3.993 -0.8543 -0.0209  0.7472
  470MOL0     H63394   1.767   2.877   3.841 -3.0276 -0.8131 -0.3897
  470MOL0     H63395   1.598   2.734   3.920  2.5830 -1.5637  1.5566
  470MOL0     H63396   1.572   2.849   4.070 -2.2433 -1.7605 -0.2557
  470MOL0     H63397   1.544   3.042   3.924  0.1323  0.5132 -2.4281
  470MOL0     H63398   1.520   2.949   3.782 -0.4882  3.0905 -0.8668
  470MOL0     H63399   1.333   2.946   4.026 -1.4170 -2.0935  0.3685
  470MOL0     H63400   1.363   2.797   3.939 -1.8094 -0.9603 -0.4388
  470MOL0     H63401   1.220   3.155   3.884 -0.3143  1.2815 -1.3619
  470MOL0     H63402   1.076   3.269   3.722  2.2140 -2.3329  2.0500
  470MOL0     H63403   1.035   3.189   3.572  0.2366  1.5721  0.6511
  470MOL0     H63404   0.845   3.090   3.678  2.9786 -1.7102  1.7206
  470MOL0     H63405   0.825   3.263   3.682  0.4606 -0.3883 -1.7431
  470MOL0     H63406   0.920   3.266   3.918  1.5952 -0.0274 -0.8438
  470MOL0     H63407   0.919   3.087   3.909  1.9376  0.8837  0.1698
  470MOL0     H63408   0.702   3.155   4.025 -0.8833 -1.5339 -0.5430
  470MOL0     H63409   0.679   3.076   3.872 -0.9997 -0.6907  1.6263
  470MOL0     H63410   0.561   3.468   3.737 -0.2777 -0.5395 -0.0718
  470MOL0     H63411   0.379   3.494   3.547  2.0705 -1.2817  2.7375
  470MOL0     H63412   0.212   3.517   3.603 -0.0510 -1.0136 -0.3257
  470MOL0     H63413   0.339   3.620   3.671  0.7894 -1.2023  2.6839
  470MOL0     H63414  -0.155   3.504   3.942 -0.5700  0.4865  1.2208
  470MOL0     H63415  -0.373   3.523   3.876  0.3018  0.7985 -1.1583
  470MOL0     H63416  -0.454   3.625   3.462  1.9420 -0.1827  1.8691
  470MOL0     H63417  -0.463   3.456   3.436 -0.5350  0.0098  1.3376
  470MOL0     H63418  -0.695   3.641   3.511  0.5592 -1.1798  0.6527
  470MOL0     H63419  -0.663   3.570   3.350 -1.4786 -1.5108 -0.1088
  470MOL0     H63420  -0.725   3.438   3.623  0.2139 -1.1629 -0.4662
  470MOL0     H63421  -0.672   3.342   3.483 -0.6296  0.4719 -0.5963
  470MOL0     H63422  -0.932   3.470   3.547 -1.3000 -2.1934  1.0776
  470MOL0     H63423  -0.902   3.449   3.379  0.3530 -0.5063  0.1845
  470MOL0     H63424  -0.879   3.230   3.594  0.6790  2.8868  1.7850
  470MOL0     H63425  -0.856   3.210   3.425  0.4439 -2.2490  1.3545
  470MOL0     H63426  -1.117   3.307   3.554  1.6609  2.0777 -0.8624
  470MOL0     H63427  -1.070   3.323   3.377  1.4791 -0.4758 -0.8300
  470MOL0     H63428  -1.091   3.072   3.564  0.3633  1.3047 -0.0495
  470MOL0     H63429  -1.050   3.058   3.393  0.0455  1.1133 -1.9120
  470MOL0     H63430  -1.264   2.972   3.402 -0.8955 -0.1249  0.4162
  470MOL0     H63431  -1.296   3.147   3.352  0.0639 -0.6864  0.0448
  470MOL0     H63432  -0.255   3.540   3.452 -1.3594  1.0386 -0.1652
  470MOL0     H63433  -0.011   3.527   3.539  0.5249 -2.9399  0.9594
  470MOL0     H63434   0.215   3.163   3.902 -1.1354 -0.4930 -4.2018
  470MOL0     H63435   0.482   3.128   3.948 -3.0709  0.2111  2.4328
  470MOL0     H63436   2.466   2.493   4.171 -0.3438  1.2832 -0.0586
  470MOL0     H63437   2.714   2.513   4.171  0.4076 -1.2291 -0.9151
  470MOL0     H63438   3.071   2.617   4.053 -2.0141 -3.5239  0.0818
  470MOL0     H63439   3.314   2.654   4.030  1.8546 -1.4976  0.6451
  470MOL0     H63440   3.486   2.759   3.896  0.1214  0.3817 -1.5742
  470MOL0     H63441   3.529   2.634   4.016  0.0541 -4.9645 -1.0181
  470MOL0     H63442   3.740   2.722   3.948 -0.6853  2.1420 -1.7783
  470MOL0     H63443   3.681   2.737   3.782  1.9235  1.7893  0.1599
  470MOL0     H63444   3.703   2.515   3.733 -2.2463 -2.0862  0.7226
  470MOL0     H63445   3.702   2.451   3.896 -0.4270 -0.1776 -1.0702
  470MOL0     H63446   3.937   2.608   3.773  3.3666 -0.0438  0.4216
  470MOL0     H63447   3.922   2.433   3.811 -0.8115  0.0907  1.2804
  470MOL0     H63448   4.046   2.581   4.172 -0.3304 -1.5573  1.1252
  470MOL0     H63449   3.309   2.422   3.664  2.1195  0.1097  1.2814
  470MOL0     H63450   3.073   2.395   3.680  0.4302  0.4375 -0.5246
  471MOL0     O63451   3.322   6.226  10.629 -0.9602 -0.0789 -0.6489
  471MOL0     C63452   3.391   6.252  10.726 -0.2963 -0.6475 -0.5935
  471MOL0     O63453   3.356   6.326  10.841 -0.2084 -0.3814 -0.7792
  471MOL0     C63454   3.223   6.353  10.861 -0.5924 -1.3020 -0.0393
  471MOL0     C63455   3.167   6.339  10.986 -0.2907  0.2840 -0.4772
  471MOL0     C63456   3.029   6.354  11.006  0.2435  0.1765 -0.1721
  471MOL0     C63457   2.950   6.384  10.901 -0.0110  0.2342 -0.2068
  471MOL0     O63458   2.811   6.392  10.906 -0.4917 -0.1974 -0.5965
  471MOL0     C63459   2.738   6.322  11.006  0.1739 -0.0014  0.4028
  471MOL0     C63460   2.588   6.319  10.981 -0.1523  0.3449 -0.2062
  471MOL0     C63461   2.565   6.223  10.866 -0.7569 -0.2118 -0.1713
  471MOL0     C63462   2.428   6.159  10.886  0.6266  0.4066  0.0697
  471MOL0     C63463   2.361   6.102  10.761 -0.1518  0.5491  0.4637
  471MOL0     C63464   2.227   6.026  10.796  0.0421  0.1610 -0.1851
  471MOL0     C63465   2.173   5.971  10.663 -0.3325 -0.2710 -0.4701
  471MOL0     C63466   2.064   5.866  10.694 -0.0835  0.5217 -0.1237
  471MOL0     N63467   1.934   5.919  10.758 -0.1954  0.1920 -0.4650
  471MOL0     C63468   1.831   5.949  10.680  0.6905  0.0105  0.7781
  471MOL0     C63469   1.719   5.973  10.756 -0.3922  0.5464  0.4740
  471MOL0     C63470   1.580   6.012  10.723  0.7070  0.1515 -0.4833
  471MOL0     C63471   1.461   5.946  10.790  0.2963 -0.9837 -0.1844
  471MOL0     C63472   1.350   5.915  10.692 -0.5969 -0.1164 -0.6974
  471MOL0     C63473   1.233   5.854  10.764  0.8169  0.5834 -0.6312
  471MOL0     O63474   1.126   5.792  10.681  0.3104 -0.0574 -0.8754
  471MOL0     C63475   1.004   5.763  10.738  0.0976  0.0146 -0.0001
  471MOL0     C63476   0.963   5.801  10.867  0.2061 -0.0269 -0.0277
  471MOL0     C63477   0.843   5.752  10.925 -0.0691  0.0449  0.1304
  471MOL0     C63478   0.815   5.789  11.071 -0.4208  0.2742  0.2166
  471MOL0     C63479   0.755   5.678  10.851  1.0730  0.6935 -0.4993
  471MOL0     C63480   0.626   5.624  10.897  0.0212  0.1851  0.3371
  471MOL0     O63481   0.589   5.506  10.835 -0.2026 -0.1141  0.1142
  471MOL0     C63482   0.456   5.468  10.838 -0.6106  0.6092  0.3340
  471MOL0     C63483   0.428   5.325  10.810 -1.4388 -0.0202 -0.1509
  471MOL0     C63484   0.296   5.282  10.808  0.8101 -0.2018 -0.2630
  471MOL0     C63485   0.184   5.362  10.850  0.4062 -0.2672 -0.4810
  471MOL0     O63486   0.053   5.308  10.832 -1.1489  0.7447  0.2056
  471MOL0     C63487  -0.054   5.355  10.916  0.4956  0.1166  0.3614
  471MOL0     C63488  -0.177   5.305  10.844 -0.0989  0.0073 -0.0850
  471MOL0     C63489  -0.305   5.331  10.916  0.2058  0.1526  0.0588
  471MOL0     C63490  -0.332   5.257  11.054 -0.1971  0.0622  0.0465
  471MOL0     C63491  -0.453   5.307  11.126 -0.2119 -0.6956  0.0248
  471MOL0     C63492  -0.444   5.457  11.171  0.1151  0.2409 -0.1449
  471MOL0     C63493  -0.590   5.504  11.188  0.9925  0.7890  0.2236
  471MOL0     C63494  -0.657   5.443  11.315  0.3076 -0.4584  0.1645
  471MOL0    Cl63495  -0.820   5.524  11.329 -0.3386  0.0451  0.9187
  471MOL0     C63496   0.213   5.495  10.883  0.3519  0.2261 -0.6310
  471MOL0     C63497   0.350   5.545  10.871  0.3828  0.0376  0.2386
  471MOL0     O63498   0.562   5.684  10.984 -0.3513 -0.1567  0.6725
  471MOL0     C63499   0.778   5.652  10.711 -0.4218  0.6235  0.0563
  471MOL0     C63500   0.908   5.694  10.661  0.6094 -0.0717 -0.1767
  471MOL0     N63501   1.766   5.945  10.886 -0.3156  0.9517 -0.3688
  471MOL0     N63502   1.896   5.910  10.887  0.4647  0.0193 -0.4438
  471MOL0     C63503   3.013   6.427  10.787  1.1568  0.3268  0.7017
  471MOL0     C63504   3.144   6.411  10.761 -0.1368  0.9541  0.9271
  471MOL0     C63505   3.538   6.215  10.713 -0.7817 -0.2502 -0.1540
  471MOL0     C63506   3.578   6.119  10.616  0.6860  0.7386  0.0288
  471MOL0     C63507   3.713   6.087  10.608  0.2599  0.4811 -0.7309
  471MOL0     C63508   3.804   6.133  10.703 -0.4610 -0.5337 -0.4519
  471MOL0     O63509   3.939   6.093  10.707  0.1893  0.1343 -0.2699
  471MOL0     C63510   3.967   5.955  10.664 -0.0700 -0.2007 -0.1191
  471MOL0     C63511   4.104   5.907  10.712  0.1306 -0.3971 -0.0235
  471MOL0     C63512   4.222   5.960  10.627 -0.3975  0.0945 -0.2716
  471MOL0     C63513   4.365   5.911  10.677 -0.0092 -1.0687 -0.4232
  471MOL0     C63514   4.402   5.768  10.682 -0.5916  0.6169  0.4893
  471MOL0     C63515   4.450   5.656  10.697 -0.8645  0.0330  0.5567
  471MOL0     C63516   3.770   6.233  10.791 -0.2806  0.0755 -0.5417
  471MOL0     C63517   3.636   6.270  10.799 -0.0936  0.2344 -0.0316
  471MOL0     H63518   3.226   6.294  11.066 -0.0662  0.0758 -0.7586
  471MOL0     H63519   2.980   6.338  11.101  1.0249 -1.1187  0.0363
  471MOL0     H63520   2.776   6.221  11.023  1.7324  0.5732  0.4876
  471MOL0     H63521   2.739   6.369  11.104  1.8317 -1.5218  1.1639
  471MOL0     H63522   2.534   6.280  11.068 -1.8878  1.3936 -0.7584
  471MOL0     H63523   2.549   6.419  10.960  0.5115  0.1072 -2.9325
  471MOL0     H63524   2.551   6.277  10.772 -2.5004  1.8766  1.1941
  471MOL0     H63525   2.642   6.146  10.857 -1.0414 -0.2874 -2.5460
  471MOL0     H63526   2.423   6.091  10.972 -1.8703  1.7346  1.1121
  471MOL0     H63527   2.361   6.243  10.909  0.7496  0.4417  0.3034
  471MOL0     H63528   2.327   6.179  10.691 -2.1231  0.4647  1.2674
  471MOL0     H63529   2.431   6.039  10.706 -1.0760 -0.2103  0.1474
  471MOL0     H63530   2.240   5.938  10.860 -0.3558 -2.0268 -2.9293
  471MOL0     H63531   2.158   6.098  10.842 -1.6517 -0.5976 -1.4769
  471MOL0     H63532   2.140   6.047  10.592 -0.5081  1.4692  1.3626
  471MOL0     H63533   2.258   5.923  10.614  2.0072  1.4061  1.6127
  471MOL0     H63534   2.099   5.781  10.752 -1.5177 -0.5025 -0.6956
  471MOL0     H63535   2.038   5.826  10.595 -2.0409  0.3648  0.4055
  471MOL0     H63536   1.834   5.980  10.576 -0.6705 -1.7270  0.1751
  471MOL0     H63537   1.561   6.119  10.734 -0.9996 -0.2441  0.8158
  471MOL0     H63538   1.571   5.991  10.616 -0.0676  0.0626 -0.4065
  471MOL0     H63539   1.423   5.994  10.880  3.4587  0.7706  0.3625
  471MOL0     H63540   1.499   5.848  10.821  1.4535 -1.2312 -2.1852
  471MOL0     H63541   1.393   5.851  10.614  2.3114  2.5914 -1.5011
  471MOL0     H63542   1.305   5.996  10.633  1.2843 -0.0826 -2.1622
  471MOL0     H63543   1.178   5.940  10.803  0.5209  1.3317 -2.5630
  471MOL0     H63544   1.266   5.788  10.844 -2.3203 -0.8159 -0.3639
  471MOL0     H63545   1.034   5.860  10.924 -0.6072  1.6462 -0.6663
  471MOL0     H63546   0.908   5.825  11.116 -0.4152 -1.6034  1.8783
  471MOL0     H63547   0.748   5.872  11.090 -0.5549 -0.0226  1.0805
  471MOL0     H63548   0.790   5.703  11.135  3.7890  0.3370  2.2951
  471MOL0     H63549   0.509   5.260  10.779  1.3704  3.0363  0.2471
  471MOL0     H63550   0.259   5.184  10.778  2.4996 -1.3619  1.2113
  471MOL0     H63551  -0.056   5.310  11.016 -2.4963 -0.6540  0.0423
  471MOL0     H63552  -0.056   5.464  10.925 -0.1847  0.3700 -2.1979
  471MOL0     H63553  -0.173   5.342  10.741 -0.9133 -1.4002 -0.6521
  471MOL0     H63554  -0.168   5.196  10.839 -1.3393 -0.1980  1.5432
  471MOL0     H63555  -0.378   5.303  10.840  2.1631 -0.0772 -1.8539
  471MOL0     H63556  -0.314   5.439  10.930 -0.5741 -0.0522  1.2528
  471MOL0     H63557  -0.346   5.150  11.034 -4.4506  0.4418  0.1645
  471MOL0     H63558  -0.249   5.280  11.121 -0.5892  0.3774  0.4287
  471MOL0     H63559  -0.466   5.244  11.214 -2.2890  1.6542  1.5388
  471MOL0     H63560  -0.539   5.298  11.059 -0.1377  0.3456 -0.2209
  471MOL0     H63561  -0.395   5.471  11.267 -1.0824 -0.2126  0.5512
  471MOL0     H63562  -0.397   5.520  11.095 -0.1109  0.6482  0.0467
  471MOL0     H63563  -0.651   5.486  11.099  0.6433  3.5960 -0.2009
  471MOL0     H63564  -0.587   5.612  11.203  1.7136  0.7987 -0.0006
  471MOL0     H63565  -0.591   5.472  11.397 -0.9830 -2.0598  1.8609
  471MOL0     H63566  -0.663   5.334  11.316  1.3289 -0.5215  0.4299
  471MOL0     H63567   0.131   5.566  10.890  0.2761  0.0392  0.6543
  471MOL0     H63568   0.353   5.653  10.883  0.2093  0.2391 -1.2524
  471MOL0     H63569   0.700   5.600  10.657 -0.5709 -0.5092  1.3031
  471MOL0     H63570   0.945   5.671  10.561  0.2968 -0.6447 -0.1688
  471MOL0     H63571   2.942   6.456  10.709  2.7048 -1.9423 -1.7105
  471MOL0     H63572   3.182   6.448  10.666 -0.8066 -0.0726  0.2272
  471MOL0     H63573   3.520   6.071  10.538  3.4201  0.0537 -1.7042
  471MOL0     H63574   3.744   6.019  10.530  0.0764 -0.6242  0.1479
  471MOL0     H63575   3.887   5.886  10.692 -1.3579  1.0443 -0.6179
  471MOL0     H63576   3.966   5.943  10.555 -1.4549  3.0733 -0.5874
  471MOL0     H63577   4.111   5.798  10.716  1.7117 -0.3323 -0.4110
  471MOL0     H63578   4.128   5.944  10.812 -0.8323 -2.1906  0.9262
  471MOL0     H63579   4.218   6.069  10.623 -0.7673  0.2080  1.7890
  471MOL0     H63580   4.205   5.927  10.524 -0.9072  2.8711 -1.1675
  471MOL0     H63581   4.394   5.950  10.775  2.0465 -0.5529 -1.1674
  471MOL0     H63582   4.438   5.965  10.616  0.0998 -0.6288  0.0883
  471MOL0     H63583   4.492   5.562  10.725  0.5199  0.9592  1.7038
  471MOL0     H63584   3.851   6.284  10.842 -0.8275  1.3806 -0.9314
  471MOL0     H63585   3.609   6.349  10.870  0.9397  2.1615 -1.6774
  472MOL0     O63586   0.542   1.311   2.777  0.0917  1.0355 -0.1700
  472MOL0     C63587   0.552   1.237   2.875 -0.4649  0.6673 -0.2221
  472MOL0     O63588   0.452   1.173   2.936 -0.1351 -0.2310  0.0817
  472MOL0     C63589   0.325   1.215   2.915 -0.0282  0.1659  0.2355
  472MOL0     C63590   0.254   1.164   2.807  0.6360 -0.2401 -0.1324
  472MOL0     C63591   0.119   1.186   2.789  0.5397 -0.6163 -0.6247
  472MOL0     C63592   0.051   1.243   2.897 -0.2216 -0.0702 -0.5962
  472MOL0     O63593  -0.088   1.237   2.915 -0.4658 -0.6355 -0.3255
  472MOL0     C63594  -0.158   1.261   2.789 -0.0589 -0.4361  0.1267
  472MOL0     C63595  -0.299   1.296   2.814 -0.4851 -0.9647 -0.6255
  472MOL0     C63596  -0.374   1.326   2.687  0.2755 -0.8935 -0.6905
  472MOL0     C63597  -0.530   1.331   2.722  1.0576  0.2865  0.3810
  472MOL0     C63598  -0.593   1.381   2.594  0.1542 -0.2512 -0.8848
  472MOL0     C63599  -0.730   1.442   2.628  1.7741 -0.7448 -0.0762
  472MOL0     C63600  -0.788   1.512   2.497 -0.2328 -0.3909 -0.5572
  472MOL0     C63601  -0.924   1.576   2.520 -1.0133 -0.2254  0.1659
  472MOL0     N63602  -0.997   1.616   2.404 -0.0044  0.0207  0.1536
  472MOL0     C63603  -1.022   1.542   2.289  0.4686 -0.2087  0.0884
  472MOL0     C63604  -1.111   1.612   2.212 -1.0320  0.1643  0.6150
  472MOL0     C63605  -1.187   1.577   2.080  0.6048 -0.1260 -0.6952
  472MOL0     C63606  -1.305   1.486   2.109 -0.5932  0.1184  0.3379
  472MOL0     C63607  -1.413   1.579   2.157  0.3822 -0.0661 -0.5286
  472MOL0     C63608  -1.541   1.513   2.201 -1.1468  0.7071  0.0434
  472MOL0     O63609  -1.653   1.592   2.154 -0.1348  0.4375 -0.0399
  472MOL0     C63610  -1.780   1.538   2.155 -0.2931  0.6984  0.6163
  472MOL0     C63611  -1.875   1.622   2.112  0.2742 -0.2797  0.1167
  472MOL0     C63612  -2.010   1.578   2.096 -0.3066  0.0967  0.7320
  472MOL0     C63613  -2.105   1.691   2.047 -0.7014  0.3343 -0.4695
  472MOL0     C63614  -2.052   1.447   2.132  0.5734  0.4254  0.5990
  472MOL0     C63615  -2.196   1.388   2.121  0.7692  0.4748  0.7769
  472MOL0     O63616  -2.288   1.460   2.059 -0.0139 -0.2983  0.4611
  472MOL0     C63617  -2.407   1.415   2.007  0.3707  0.3265 -0.3545
  472MOL0     C63618  -2.472   1.518   1.943  0.2674  0.0516  0.7151
  472MOL0     C63619  -2.600   1.504   1.908  0.3260  0.2653  0.2837
  472MOL0     C63620  -2.660   1.375   1.919 -0.0641  0.6380  0.1239
  472MOL0     O63621  -2.783   1.360   1.859  0.4384  0.1296 -0.3606
  472MOL0     C63622  -2.881   1.263   1.908 -0.1813  0.6418  0.2217
  472MOL0     C63623  -2.991   1.339   1.985 -0.1266  0.1939  0.6006
  472MOL0     C63624  -3.070   1.439   1.899  0.1012  0.1769 -0.3198
  472MOL0     C63625  -3.197   1.372   1.828  0.7239  0.0286 -0.5352
  472MOL0     C63626  -3.329   1.381   1.920 -0.5471  0.2265  0.1588
  472MOL0     C63627  -3.380   1.522   1.951 -0.4011 -0.5042 -0.9873
  472MOL0     C63628  -3.523   1.519   2.021 -1.2838  1.3605  0.0824
  472MOL0     C63629  -3.547   1.660   2.068  0.4637  0.5102 -0.3009
  472MOL0    Cl63630  -3.677   1.678   2.183  0.3861 -0.4481  0.2111
  472MOL0     C63631  -2.589   1.265   1.965 -0.5198  0.7553 -1.5837
  472MOL0     C63632  -2.465   1.285   2.015 -0.0466 -0.4061 -0.1266
  472MOL0     O63633  -2.218   1.272   2.163  0.4802 -0.0381 -0.3186
  472MOL0     C63634  -1.946   1.366   2.186  0.5233 -0.3162  0.4546
  472MOL0     C63635  -1.810   1.407   2.194 -0.0284  0.1571  0.3099
  472MOL0     N63636  -1.125   1.738   2.273 -0.3143 -0.1836 -0.0087
  472MOL0     N63637  -1.058   1.739   2.385 -0.3626  0.2686  0.2392
  472MOL0     C63638   0.119   1.304   3.001 -0.2776 -0.1431 -0.0700
  472MOL0     C63639   0.259   1.287   3.009  0.4999  0.0377 -0.0282
  472MOL0     C63640   0.690   1.217   2.941  0.5851  0.6416 -0.5106
  472MOL0     C63641   0.703   1.147   3.058 -0.3994  0.4273 -0.3595
  472MOL0     C63642   0.828   1.123   3.118  0.9240 -0.3542  0.0183
  472MOL0     C63643   0.944   1.167   3.071  0.1100 -0.1881  0.5952
  472MOL0     O63644   1.054   1.146   3.140 -0.7554  0.1322 -0.4159
  472MOL0     C63645   1.180   1.169   3.089  0.3381  0.3793 -0.0824
  472MOL0     C63646   1.222   1.076   2.979  0.1848 -0.1047 -0.1993
  472MOL0     C63647   1.359   1.125   2.921  0.1824  0.2467  0.4428
  472MOL0     C63648   1.472   1.087   3.007 -0.2122  0.3950 -0.5253
  472MOL0     C63649   1.597   1.135   2.940 -0.0558  0.2758  0.4506
  472MOL0     C63650   1.688   1.177   2.875  1.2683  0.6722  0.3891
  472MOL0     C63651   0.936   1.244   2.953  0.0051  0.2571  0.9187
  472MOL0     C63652   0.814   1.268   2.891 -0.3788 -0.7391  0.1145
  472MOL0     H63653   0.318   1.108   2.740 -0.9774  0.1858 -2.1463
  472MOL0     H63654   0.079   1.147   2.696  0.4403  0.0321 -0.8557
  472MOL0     H63655  -0.120   1.343   2.729 -0.3730 -1.0342 -0.9236
  472MOL0     H63656  -0.143   1.170   2.730  3.0850 -0.2052  0.3839
  472MOL0     H63657  -0.346   1.220   2.877 -1.0203  0.7671  1.1551
  472MOL0     H63658  -0.302   1.390   2.870 -1.4913 -1.1449 -0.3663
  472MOL0     H63659  -0.335   1.423   2.656 -1.6750  0.9108  1.9792
  472MOL0     H63660  -0.363   1.241   2.619  1.2408 -1.3304 -0.0105
  472MOL0     H63661  -0.566   1.230   2.742  0.3579 -0.2592 -3.0254
  472MOL0     H63662  -0.549   1.400   2.804  3.8831  0.5338  0.9412
  472MOL0     H63663  -0.529   1.460   2.553  0.1260 -0.1194 -0.6757
  472MOL0     H63664  -0.603   1.304   2.517  3.7230  1.4451 -3.3206
  472MOL0     H63665  -0.802   1.366   2.660 -1.1530  1.7410 -0.2976
  472MOL0     H63666  -0.714   1.512   2.711  0.6685  0.2814 -0.7027
  472MOL0     H63667  -0.722   1.592   2.463  1.1201 -0.2342  2.1892
  472MOL0     H63668  -0.787   1.433   2.421  2.1650 -2.7197  1.6909
  472MOL0     H63669  -0.916   1.659   2.591  1.0445 -0.6830  0.5189
  472MOL0     H63670  -0.984   1.495   2.564 -0.3013 -0.8816 -0.0417
  472MOL0     H63671  -0.992   1.441   2.263 -0.8287 -0.5908 -0.0281
  472MOL0     H63672  -1.230   1.666   2.032 -0.5954 -0.8479 -0.9788
  472MOL0     H63673  -1.122   1.535   2.003 -1.3025 -1.7605 -1.4870
  472MOL0     H63674  -1.278   1.405   2.177 -0.3062 -1.4098 -1.5200
  472MOL0     H63675  -1.342   1.450   2.012  2.0992  1.1341 -1.1803
  472MOL0     H63676  -1.436   1.644   2.072 -1.1002  0.3916  0.1803
  472MOL0     H63677  -1.390   1.648   2.238 -4.5513  2.1694 -0.6387
  472MOL0     H63678  -1.550   1.510   2.310 -4.8998 -1.0557 -0.1905
  472MOL0     H63679  -1.544   1.410   2.167  1.7681  0.3850  0.4878
  472MOL0     H63680  -1.838   1.718   2.078  0.7761 -0.7177 -0.6123
  472MOL0     H63681  -2.045   1.770   2.001 -0.9606  1.9008  1.7028
  472MOL0     H63682  -2.171   1.656   1.967 -4.1235 -1.3226  2.7847
  472MOL0     H63683  -2.165   1.732   2.129 -0.2552 -0.6466  0.3690
  472MOL0     H63684  -2.416   1.611   1.932 -2.5542  1.7018 -0.7531
  472MOL0     H63685  -2.656   1.584   1.861 -0.6645 -1.1386 -1.0199
  472MOL0     H63686  -2.923   1.209   1.823  0.7490 -0.6358  0.5353
  472MOL0     H63687  -2.846   1.181   1.971 -2.1871  0.3281  1.0247
  472MOL0     H63688  -3.062   1.268   2.029  0.1856  0.9896  2.5170
  472MOL0     H63689  -2.950   1.393   2.071 -1.5980  1.3463  0.6288
  472MOL0     H63690  -3.004   1.475   1.820  1.8659 -0.2610  0.8908
  472MOL0     H63691  -3.103   1.530   1.951  2.8474  2.2663 -1.9454
  472MOL0     H63692  -3.222   1.426   1.736 -1.7178 -0.4230 -0.2137
  472MOL0     H63693  -3.176   1.268   1.802  1.4318  0.5171 -2.0731
  472MOL0     H63694  -3.290   1.331   2.010  0.1996 -0.8416 -0.7373
  472MOL0     H63695  -3.412   1.322   1.880 -1.0518 -0.8402  2.5536
  472MOL0     H63696  -3.306   1.583   2.003 -0.2384 -1.0102 -0.6084
  472MOL0     H63697  -3.393   1.570   1.854 -1.0214  1.5104  0.0345
  472MOL0     H63698  -3.509   1.447   2.102  1.4126  1.3304 -0.2992
  472MOL0     H63699  -3.601   1.479   1.956 -0.7097 -2.7064  1.5962
  472MOL0     H63700  -3.561   1.716   1.974 -0.3203  0.7581 -0.0471
  472MOL0     H63701  -3.455   1.701   2.110  0.4979 -1.5158  1.7981
  472MOL0     H63702  -2.628   1.164   1.964  1.0336  0.0056  1.4565
  472MOL0     H63703  -2.410   1.201   2.058 -1.3147 -1.6412 -0.8278
  472MOL0     H63704  -1.969   1.260   2.195  1.7191 -0.8651 -1.8999
  472MOL0     H63705  -1.737   1.329   2.215 -1.3923 -1.2640 -0.0567
  472MOL0     H63706   0.067   1.350   3.084  2.1474  0.6684  1.0986
  472MOL0     H63707   0.311   1.315   3.100  2.1600  0.0245 -0.9310
  472MOL0     H63708   0.619   1.092   3.100 -0.3893  1.8952  1.7083
  472MOL0     H63709   0.829   1.068   3.212  1.1442  0.3155  0.4185
  472MOL0     H63710   1.198   1.272   3.059 -0.6231  1.4808  2.7923
  472MOL0     H63711   1.246   1.159   3.175  0.9280  2.1864 -0.2804
  472MOL0     H63712   1.149   1.082   2.897  2.1592 -0.0106 -2.0494
  472MOL0     H63713   1.224   0.973   3.015 -0.5347  0.8900  3.0632
  472MOL0     H63714   1.353   1.233   2.904 -4.3390  0.4129  1.8125
  472MOL0     H63715   1.390   1.068   2.833  1.5186 -1.3428  1.8466
  472MOL0     H63716   1.478   0.981   3.033 -0.8281  0.3945 -0.3485
  472MOL0     H63717   1.463   1.136   3.105 -2.7840  0.2278 -0.5995
  472MOL0     H63718   1.771   1.204   2.812  3.7696 -1.6196  2.4484
  472MOL0     H63719   1.028   1.283   2.912  0.5563 -2.4627 -0.6599
  472MOL0     H63720   0.813   1.334   2.805 -0.5137  1.8404  1.9691
  473MOL0     O63721  10.026   5.294   7.047  0.7688 -0.1754  0.2623
  473MOL0     C63722  10.089   5.197   6.996  0.7791 -0.1855  0.0204
  473MOL0     O63723  10.039   5.073   6.981 -0.3055  0.4355 -0.2653
  473MOL0     C63724   9.915   5.024   7.020 -0.2945 -0.5129 -0.1592
  473MOL0     C63725   9.799   5.098   7.011 -0.1510  0.5080  0.7117
  473MOL0     C63726   9.674   5.030   7.030 -0.2754 -0.9298 -1.0733
  473MOL0     C63727   9.659   4.896   7.073  0.2413 -0.4653  0.9028
  473MOL0     O63728   9.544   4.827   7.107  0.1020 -0.1859  0.3662
  473MOL0     C63729   9.425   4.892   7.050  0.7374 -0.1101 -0.4806
  473MOL0     C63730   9.311   4.798   7.064 -0.2031  0.0269  0.7607
  473MOL0     C63731   9.183   4.843   6.991  0.3932 -1.0678  0.5818
  473MOL0     C63732   9.091   4.718   6.957 -0.7013 -0.9807 -0.6659
  473MOL0     C63733   8.964   4.759   6.889  0.1471  0.7401  0.5686
  473MOL0     C63734   8.904   4.633   6.844  0.2673  1.0652  0.9147
  473MOL0     C63735   8.777   4.649   6.756  1.2427 -0.3756 -0.4258
  473MOL0     C63736   8.703   4.789   6.781 -0.5690  0.8542 -0.2487
  473MOL0     N63737   8.613   4.802   6.662 -0.3202  0.4733  0.1364
  473MOL0     C63738   8.635   4.836   6.532 -0.0928 -0.6375  0.3027
  473MOL0     C63739   8.521   4.831   6.461 -0.1759 -0.3106  0.2733
  473MOL0     C63740   8.494   4.848   6.321 -0.4546 -0.3182  0.1144
  473MOL0     C63741   8.509   4.993   6.276  0.7598 -0.0416  0.1472
  473MOL0     C63742   8.386   5.081   6.301  0.6292 -0.2833  0.3552
  473MOL0     C63743   8.410   5.238   6.285  0.4495  0.8647  0.3084
  473MOL0     O63744   8.359   5.290   6.165 -0.2792 -0.0799  0.0259
  473MOL0     C63745   8.227   5.327   6.169  0.3135  0.2411  0.2815
  473MOL0     C63746   8.189   5.395   6.052 -1.0818 -0.1960  0.9401
  473MOL0     C63747   8.063   5.442   6.037  0.7958  0.1079 -0.2736
  473MOL0     C63748   8.045   5.530   5.915 -0.3075  0.1459 -0.2333
  473MOL0     C63749   7.977   5.436   6.147  0.3214 -0.5115  0.9353
  473MOL0     C63750   7.858   5.519   6.146 -0.0395  0.8016  0.0945
  473MOL0     O63751   7.844   5.597   6.262 -0.0908 -0.0980  0.4834
  473MOL0     C63752   7.730   5.667   6.279 -0.5279 -0.0084 -0.7156
  473MOL0     C63753   7.725   5.804   6.250  0.2706 -0.1348  0.0803
  473MOL0     C63754   7.609   5.872   6.266 -0.2737  0.0132  0.3506
  473MOL0     C63755   7.493   5.816   6.313 -0.0574  0.9014  0.7154
  473MOL0     O63756   7.378   5.898   6.309 -0.1805  0.2948  0.3937
  473MOL0     C63757   7.254   5.834   6.317 -0.6703 -0.1047 -0.1415
  473MOL0     C63758   7.154   5.933   6.282 -0.1423  0.7448  0.7111
  473MOL0     C63759   7.018   5.862   6.249 -0.6751 -0.7588  0.4212
  473MOL0     C63760   6.905   5.965   6.247  0.5101  0.4029  0.3503
  473MOL0     C63761   6.762   5.906   6.223  0.4843  0.2247 -0.7860
  473MOL0     C63762   6.659   6.011   6.258 -1.0290  0.7315 -0.1604
  473MOL0     C63763   6.518   5.958   6.251  0.0555 -0.3022  0.1362
  473MOL0     C63764   6.412   6.071   6.254 -1.0795 -0.7259  0.5094
  473MOL0    Cl63765   6.249   6.003   6.283 -0.0688 -0.2528 -0.2441
  473MOL0     C63766   7.495   5.677   6.336 -0.1354  0.4619  0.2308
  473MOL0     C63767   7.616   5.603   6.332 -0.1994  0.3502 -0.1125
  473MOL0     O63768   7.773   5.508   6.054  0.3529  0.6578  0.0827
  473MOL0     C63769   8.014   5.370   6.260  0.3861 -0.6186  0.8487
  473MOL0     C63770   8.138   5.311   6.271 -0.4734 -0.2464  0.5182
  473MOL0     N63771   8.428   4.798   6.555 -0.1076 -0.0839 -0.5247
  473MOL0     N63772   8.482   4.781   6.671 -0.3362 -0.4048 -0.3468
  473MOL0     C63773   9.776   4.824   7.082 -0.6146  0.2901  0.3165
  473MOL0     C63774   9.903   4.888   7.056  0.2158  0.3187  0.0024
  473MOL0     C63775  10.228   5.223   6.938  0.3940  0.7747  0.2777
  473MOL0     C63776  10.282   5.350   6.935  0.2503 -0.4311  0.1615
  473MOL0     C63777  10.412   5.378   6.900 -0.1623 -0.3846 -0.7506
  473MOL0     C63778  10.502   5.271   6.880  0.2625 -0.2623  0.6183
  473MOL0     O63779  10.638   5.306   6.868 -0.2291  0.5505  0.5648
  473MOL0     C63780  10.735   5.201   6.815  0.0680 -0.5938  0.0274
  473MOL0     C63781  10.792   5.119   6.935  0.6203 -0.1863 -0.0767
  473MOL0     C63782  10.883   5.013   6.892 -0.5906 -0.1579 -0.1432
  473MOL0     C63783  10.952   4.952   7.004  0.4511 -0.1987 -0.3440
  473MOL0     C63784  11.028   4.836   6.951  0.2611  0.4026 -0.4857
  473MOL0     C63785  11.101   4.740   6.914 -0.4529  0.3789 -0.4198
  473MOL0     C63786  10.445   5.139   6.882 -0.3938  0.0821 -0.3611
  473MOL0     C63787  10.306   5.117   6.903 -0.1643  0.4522  0.4714
  473MOL0     H63788   9.808   5.199   6.972 -0.2037 -0.3226 -1.5783
  473MOL0     H63789   9.591   5.100   7.030  0.7702  0.3738 -0.2099
  473MOL0     H63790   9.401   4.981   7.107  0.9208 -0.0009 -0.5722
  473MOL0     H63791   9.433   4.911   6.942 -1.7483  2.8516 -0.2554
  473MOL0     H63792   9.350   4.708   7.016  2.6137  1.3589  0.3599
  473MOL0     H63793   9.277   4.773   7.165 -0.3147 -2.2049  0.2158
  473MOL0     H63794   9.125   4.918   7.046  2.6551  2.0443 -1.0193
  473MOL0     H63795   9.215   4.886   6.896  2.1997 -0.0533  1.6070
  473MOL0     H63796   9.144   4.651   6.889  1.6650 -2.7564  2.6668
  473MOL0     H63797   9.068   4.666   7.050 -2.2150 -0.9163 -0.9761
  473MOL0     H63798   8.898   4.810   6.960 -0.7253 -0.0605  0.3533
  473MOL0     H63799   8.981   4.827   6.806 -1.4666  1.0302  0.4479
  473MOL0     H63800   8.976   4.579   6.782  1.1593  1.3962  1.6416
  473MOL0     H63801   8.877   4.576   6.933 -2.2694  2.3186  1.0352
  473MOL0     H63802   8.817   4.664   6.655 -1.1820  0.3286 -1.3330
  473MOL0     H63803   8.711   4.564   6.769  0.2858  0.5367  0.9759
  473MOL0     H63804   8.774   4.873   6.786  0.5222 -0.0883  0.7949
  473MOL0     H63805   8.641   4.788   6.872 -0.5969  1.6564 -0.2479
  473MOL0     H63806   8.731   4.860   6.488  0.0520  0.6722  1.2613
  473MOL0     H63807   8.571   4.789   6.270  1.1642  1.0100  0.9264
  473MOL0     H63808   8.408   4.790   6.289  0.8524 -1.5771 -1.3110
  473MOL0     H63809   8.530   4.994   6.168 -0.7691 -4.4938 -0.4000
  473MOL0     H63810   8.597   5.028   6.330  2.2511 -1.1348 -1.4465
  473MOL0     H63811   8.346   5.073   6.402 -1.5193 -1.0150 -0.5092
  473MOL0     H63812   8.304   5.058   6.233 -2.6291 -0.2301  3.9676
  473MOL0     H63813   8.514   5.270   6.281  1.5679 -2.4534 -2.9712
  473MOL0     H63814   8.364   5.278   6.376  0.4711 -2.3156  1.8737
  473MOL0     H63815   8.258   5.408   5.969 -2.6010  0.1097 -0.3123
  473MOL0     H63816   7.959   5.516   5.849 -0.1504 -2.7316  0.0686
  473MOL0     H63817   8.048   5.635   5.947  1.6961 -0.2876  1.1878
  473MOL0     H63818   8.127   5.513   5.845 -1.3124  0.1243 -1.4420
  473MOL0     H63819   7.806   5.861   6.206  0.2967 -0.2665 -0.0418
  473MOL0     H63820   7.596   5.979   6.259  0.1222  0.1479  1.3887
  473MOL0     H63821   7.255   5.762   6.235  1.5622 -0.0900 -0.1963
  473MOL0     H63822   7.232   5.782   6.410 -0.0591 -1.2088 -0.5909
  473MOL0     H63823   7.145   5.996   6.371 -1.3025 -0.7607  1.7189
  473MOL0     H63824   7.195   5.997   6.204  0.8085  0.6668  1.1371
  473MOL0     H63825   7.002   5.787   6.326  1.5471  0.5333  2.2572
  473MOL0     H63826   7.026   5.806   6.155 -1.8914  0.4271 -0.4138
  473MOL0     H63827   6.904   6.020   6.341 -2.2004 -2.0165  1.8684
  473MOL0     H63828   6.930   6.040   6.171  1.1980  1.3202  1.4493
  473MOL0     H63829   6.744   5.819   6.287  1.2241 -0.0235 -0.9101
  473MOL0     H63830   6.762   5.872   6.119 -0.9235 -2.0131 -0.1265
  473MOL0     H63831   6.677   6.052   6.358 -1.4877 -1.6026  0.9385
  473MOL0     H63832   6.669   6.088   6.181  1.3797 -0.9792 -1.7006
  473MOL0     H63833   6.489   5.894   6.335  1.1436  1.4575  1.9379
  473MOL0     H63834   6.511   5.896   6.161  1.7510 -0.1414 -0.1265
  473MOL0     H63835   6.409   6.121   6.157 -1.6742  0.2852  1.0365
  473MOL0     H63836   6.438   6.153   6.321 -0.3534  1.3415 -2.1671
  473MOL0     H63837   7.400   5.633   6.363  0.2739 -0.8126 -0.3095
  473MOL0     H63838   7.617   5.501   6.370  0.7886  1.0531  1.8885
  473MOL0     H63839   7.939   5.377   6.338 -1.2739  2.2868 -0.7973
  473MOL0     H63840   8.169   5.269   6.366 -1.8539  0.0823  1.1442
  473MOL0     H63841   9.774   4.719   7.110 -0.2121 -0.2194 -1.4215
  473MOL0     H63842   9.988   4.820   7.059 -0.9382 -1.5028 -3.2107
  473MOL0     H63843  10.220   5.432   6.972  1.6219 -0.5276  2.9650
  473MOL0     H63844  10.446   5.481   6.903  0.7453 -0.6867  1.7424
  473MOL0     H63845  10.685   5.130   6.748 -0.0458  0.7594 -1.3729
  473MOL0     H63846  10.813   5.256   6.761 -0.3590  1.7205  1.6420
  473MOL0     H63847  10.709   5.086   6.999  1.3589 -0.1578  0.9181
  473MOL0     H63848  10.855   5.187   6.993  1.0299 -0.1575 -0.5528
  473MOL0     H63849  10.951   5.050   6.816 -0.6360  2.7276  1.0775
  473MOL0     H63850  10.830   4.932   6.840  1.0890  0.2911 -2.7180
  473MOL0     H63851  10.892   4.918   7.089 -2.9492 -1.7659 -3.1129
  473MOL0     H63852  11.027   5.025   7.037 -0.7294  2.6302 -3.3409
  473MOL0     H63853  11.154   4.654   6.879 -1.3343 -0.7256  0.8427
  473MOL0     H63854  10.500   5.049   6.857 -2.2838 -0.6988 -1.9423
  473MOL0     H63855  10.270   5.015   6.890 -0.8398  0.1734  3.7645
  474MOL0     O63856   6.170   8.484   9.033  0.8211 -0.3129 -0.7067
  474MOL0     C63857   6.109   8.491   8.929  0.4683 -0.8348 -0.0213
  474MOL0     O63858   6.146   8.444   8.811 -0.6278  0.0210  0.0301
  474MOL0     C63859   6.269   8.384   8.793  0.3007 -0.1202  0.7166
  474MOL0     C63860   6.383   8.374   8.885 -0.1906 -0.6687  0.0293
  474MOL0     C63861   6.503   8.299   8.852  0.1354  0.2077 -0.4639
  474MOL0     C63862   6.508   8.227   8.733  0.0229  0.5969  0.9291
  474MOL0     O63863   6.616   8.146   8.697  0.1101  0.1669  0.0594
  474MOL0     C63864   6.683   8.076   8.804  0.2291 -0.0576  0.5183
  474MOL0     C63865   6.788   7.978   8.745  0.0535 -0.8095 -0.6815
  474MOL0     C63866   6.898   8.048   8.652  0.4530 -0.3059 -0.2562
  474MOL0     C63867   6.965   7.950   8.565  0.7361  0.6674 -0.3936
  474MOL0     C63868   7.086   8.015   8.493 -0.7791  0.1008  0.0528
  474MOL0     C63869   7.205   8.037   8.596  1.5287  0.0977  0.2074
  474MOL0     C63870   7.340   8.062   8.526  0.5987 -0.2237 -0.1174
  474MOL0     C63871   7.417   7.935   8.481  0.1346 -0.2914  0.6650
  474MOL0     N63872   7.560   7.975   8.458  0.3422  0.0836 -0.7302
  474MOL0     C63873   7.602   8.081   8.377  0.1804 -0.4528 -0.0412
  474MOL0     C63874   7.734   8.048   8.357 -0.2056 -0.3454 -0.3117
  474MOL0     C63875   7.817   8.134   8.265  0.0134 -1.3923  0.3766
  474MOL0     C63876   7.936   8.203   8.329  0.6854  0.2967 -0.4502
  474MOL0     C63877   7.905   8.333   8.408 -0.1998  0.1917 -0.0631
  474MOL0     C63878   7.877   8.309   8.558 -0.3706  0.4956 -0.2640
  474MOL0     O63879   7.869   8.433   8.625 -0.1832 -0.1788  0.0447
  474MOL0     C63880   7.753   8.504   8.633  0.0263 -0.5886 -0.0027
  474MOL0     C63881   7.623   8.447   8.602 -0.7373 -0.1297 -0.6066
  474MOL0     C63882   7.510   8.537   8.600 -0.6543  0.6698  0.3778
  474MOL0     C63883   7.375   8.474   8.553  0.5162 -0.6350 -0.1163
  474MOL0     C63884   7.528   8.675   8.624  0.1404  0.1337  0.0418
  474MOL0     C63885   7.418   8.778   8.636 -0.2890  0.7266 -0.0104
  474MOL0     O63886   7.460   8.905   8.657 -0.3874 -0.0434  0.1033
  474MOL0     C63887   7.377   9.000   8.715 -0.7501 -0.3439 -0.8628
  474MOL0     C63888   7.359   8.992   8.855  0.3133  0.7798  0.2149
  474MOL0     C63889   7.278   9.092   8.910 -1.0579  0.1518  0.1475
  474MOL0     C63890   7.235   9.206   8.839 -0.4547  0.2912  0.3586
  474MOL0     O63891   7.182   9.301   8.917 -0.6494 -0.1822  0.7125
  474MOL0     C63892   7.112   9.415   8.852 -0.8353  0.1166  0.0375
  474MOL0     C63893   6.997   9.451   8.950 -0.0499 -1.3124  0.2009
  474MOL0     C63894   7.037   9.509   9.093 -0.0016 -0.2073  0.9444
  474MOL0     C63895   7.181   9.571   9.098  0.5673 -0.0337 -0.4042
  474MOL0     C63896   7.199   9.635   9.234  0.3581  0.6388  0.5260
  474MOL0     C63897   7.219   9.544   9.354 -0.1632 -0.0207  1.3054
  474MOL0     C63898   7.326   9.589   9.448 -0.4253 -0.2487  0.2384
  474MOL0     C63899   7.468   9.546   9.416  0.2817 -0.0918  0.5053
  474MOL0    Cl63900   7.575   9.598   9.551  0.2917 -0.1916 -0.3160
  474MOL0     C63901   7.261   9.206   8.700  0.3453  0.3615 -0.1623
  474MOL0     C63902   7.331   9.105   8.642  0.7353 -0.0631  0.3341
  474MOL0     O63903   7.305   8.738   8.623 -0.1646 -0.2532  0.3351
  474MOL0     C63904   7.659   8.728   8.661 -0.4704 -0.6155  0.4727
  474MOL0     C63905   7.764   8.636   8.670 -0.2406 -0.4316  0.6913
  474MOL0     N63906   7.771   7.934   8.426  0.4321  0.4662  0.4841
  474MOL0     N63907   7.665   7.899   8.499 -0.2055 -0.2339 -0.4826
  474MOL0     C63908   6.393   8.229   8.645 -0.1334  0.6024 -1.4235
  474MOL0     C63909   6.280   8.299   8.679  0.1144  0.1496  0.3528
  474MOL0     C63910   5.976   8.541   8.942  0.4070  0.3949  0.1702
  474MOL0     C63911   5.913   8.562   9.074  0.3998 -0.9258  0.2453
  474MOL0     C63912   5.781   8.597   9.096 -0.5614  0.3208  0.0912
  474MOL0     C63913   5.700   8.622   8.984  0.4578 -0.1777 -0.3874
  474MOL0     O63914   5.578   8.671   9.002 -0.1888 -0.2071 -0.5265
  474MOL0     C63915   5.466   8.642   8.913  0.2983  0.8806 -0.3698
  474MOL0     C63916   5.333   8.673   8.994 -0.1135 -0.6227 -0.1468
  474MOL0     C63917   5.204   8.608   8.941 -0.0459  0.1390  0.0536
  474MOL0     C63918   5.197   8.624   8.787 -0.3336 -0.1918  0.0141
  474MOL0     C63919   5.058   8.596   8.754  0.3088 -0.4636 -0.2296
  474MOL0     C63920   4.948   8.572   8.708 -0.6447  0.3602  0.3916
  474MOL0     C63921   5.754   8.597   8.856 -1.3628 -0.1670 -0.3380
  474MOL0     C63922   5.886   8.555   8.838 -1.6230  0.4749  0.2486
  474MOL0     H63923   6.387   8.413   8.986  0.9310 -1.3544  0.2683
  474MOL0     H63924   6.579   8.287   8.928  0.0876  1.2398 -0.2357
  474MOL0     H63925   6.727   8.149   8.873  0.6875 -0.8433  1.0645
  474MOL0     H63926   6.608   8.023   8.863  0.5793  0.1811  1.1817
  474MOL0     H63927   6.843   7.940   8.831  0.5255 -1.7546 -1.3875
  474MOL0     H63928   6.739   7.902   8.683  0.1439 -0.0598 -1.7010
  474MOL0     H63929   6.855   8.129   8.591  1.3212  0.6949  0.4468
  474MOL0     H63930   6.965   8.101   8.719 -2.3086  1.7656  1.0858
  474MOL0     H63931   6.995   7.857   8.613  0.2673 -0.8120 -2.7536
  474MOL0     H63932   6.899   7.912   8.486  0.6789  1.5526 -0.7940
  474MOL0     H63933   7.121   7.943   8.419  0.0166 -1.3089  1.7329
  474MOL0     H63934   7.055   8.112   8.453  1.7493  1.2460  0.6900
  474MOL0     H63935   7.168   8.112   8.667  0.0997 -0.1541 -0.2222
  474MOL0     H63936   7.209   7.946   8.656 -0.3356 -0.2661 -0.1402
  474MOL0     H63937   7.325   8.138   8.449 -2.9703 -0.6404 -0.0148
  474MOL0     H63938   7.410   8.103   8.600  2.2547 -1.3934 -0.9909
  474MOL0     H63939   7.375   7.901   8.386 -0.7624 -1.6920  1.5390
  474MOL0     H63940   7.414   7.853   8.554 -1.3131 -0.8221  0.0346
  474MOL0     H63941   7.556   8.169   8.335  1.8495 -0.2288 -1.5278
  474MOL0     H63942   7.850   8.079   8.176  1.3977 -0.4916  0.2963
  474MOL0     H63943   7.755   8.214   8.224  1.2441  0.7009  2.3414
  474MOL0     H63944   7.998   8.238   8.246  0.0869  0.6354 -0.7660
  474MOL0     H63945   7.986   8.131   8.394 -2.5415 -0.2541  1.6400
  474MOL0     H63946   7.818   8.381   8.362  1.5020  1.6887 -1.8556
  474MOL0     H63947   7.985   8.404   8.391 -0.2292  0.8629  2.2235
  474MOL0     H63948   7.962   8.252   8.597 -0.8723  0.2276  0.4486
  474MOL0     H63949   7.786   8.248   8.558  0.4335 -0.7947 -1.9621
  474MOL0     H63950   7.621   8.342   8.576 -1.0170 -0.4088  0.5091
  474MOL0     H63951   7.320   8.543   8.488  3.6128  1.4604 -0.7884
  474MOL0     H63952   7.381   8.377   8.503  0.0404 -0.9503  0.4425
  474MOL0     H63953   7.324   8.460   8.648  0.7720 -1.5809 -0.1138
  474MOL0     H63954   7.396   8.916   8.923  3.2309  2.0479  0.1917
  474MOL0     H63955   7.246   9.086   9.014  1.2682 -3.4803  0.8320
  474MOL0     H63956   7.176   9.500   8.825 -0.3033  0.2716  1.7064
  474MOL0     H63957   7.062   9.388   8.758 -1.3021  1.4395 -0.1137
  474MOL0     H63958   6.933   9.525   8.900  0.8721  0.4814  1.5390
  474MOL0     H63959   6.936   9.362   8.967 -1.7375 -0.5390 -1.4828
  474MOL0     H63960   7.035   9.422   9.160 -1.7835 -1.8853 -1.1218
  474MOL0     H63961   6.957   9.575   9.129  0.1750  0.1172  0.7414
  474MOL0     H63962   7.244   9.482   9.087  0.2125 -0.4371  0.6629
  474MOL0     H63963   7.201   9.638   9.014 -0.3373  0.9077  0.1133
  474MOL0     H63964   7.117   9.706   9.248 -2.0364 -1.6293 -0.9161
  474MOL0     H63965   7.290   9.694   9.225 -0.1063  1.1351 -1.3672
  474MOL0     H63966   7.118   9.531   9.394 -1.3218  2.5147 -0.5743
  474MOL0     H63967   7.252   9.449   9.312 -0.6418  0.3258  0.1169
  474MOL0     H63968   7.292   9.541   9.540  1.5624  1.2003  1.8315
  474MOL0     H63969   7.332   9.696   9.466  1.0672 -0.4830  1.2818
  474MOL0     H63970   7.509   9.589   9.324  2.2544  2.3680  2.3568
  474MOL0     H63971   7.471   9.438   9.402  0.2007  0.1055 -1.3163
  474MOL0     H63972   7.223   9.282   8.632  1.1036  0.7085 -0.2097
  474MOL0     H63973   7.345   9.103   8.534 -2.0470 -1.6483 -0.0801
  474MOL0     H63974   7.684   8.832   8.680 -1.3774  0.2478 -2.4704
  474MOL0     H63975   7.865   8.672   8.686 -0.3947  0.5350 -0.3802
  474MOL0     H63976   6.388   8.164   8.559  2.5678 -1.4601 -0.1768
  474MOL0     H63977   6.197   8.299   8.610  0.5607  1.3420 -0.2008
  474MOL0     H63978   5.972   8.562   9.165 -1.3256  2.7216  1.5523
  474MOL0     H63979   5.744   8.613   9.196  1.9284  1.2309  0.9398
  474MOL0     H63980   5.468   8.697   8.818  2.0741 -0.8138 -1.3893
  474MOL0     H63981   5.474   8.536   8.887 -0.1533  1.4086 -3.0177
  474MOL0     H63982   5.330   8.781   9.004  1.7133 -0.6141  0.5961
  474MOL0     H63983   5.351   8.639   9.096 -2.7629  0.8745  0.9182
  474MOL0     H63984   5.119   8.656   8.989 -0.7536  0.4362 -1.4730
  474MOL0     H63985   5.202   8.502   8.969 -0.6041  0.7864  2.7565
  474MOL0     H63986   5.255   8.549   8.733 -0.8246  1.5046 -3.1141
  474MOL0     H63987   5.221   8.723   8.746 -3.7612 -0.3326 -2.8387
  474MOL0     H63988   4.852   8.540   8.675 -0.7744  0.4959  0.6348
  474MOL0     H63989   5.688   8.600   8.770 -1.2305 -3.1449 -0.6469
  474MOL0     H63990   5.934   8.536   8.743  0.4513 -2.4270  1.7151
  475MOL0     O63991  10.985   4.351   3.382  0.4901 -0.0975 -0.8280
  475MOL0     C63992  10.964   4.357   3.502  0.1017 -0.4953  0.5652
  475MOL0     O63993  10.840   4.354   3.563 -0.6478 -0.0015  0.3922
  475MOL0     C63994  10.728   4.356   3.488  0.6655  0.4775 -0.2921
  475MOL0     C63995  10.712   4.262   3.390 -1.0563  0.0410  0.8680
  475MOL0     C63996  10.603   4.265   3.311  0.5222 -0.3036  0.1508
  475MOL0     C63997  10.493   4.355   3.332  0.3154  0.5424 -0.7733
  475MOL0     O63998  10.388   4.359   3.235 -0.5406  0.1504 -0.2417
  475MOL0     C63999  10.289   4.466   3.223  0.1117 -0.1212 -0.2643
  475MOL0     C64000  10.167   4.407   3.289  0.5387 -0.9942  0.3883
  475MOL0     C64001  10.030   4.492   3.265  0.3829  0.8230  0.2718
  475MOL0     C64002   9.918   4.405   3.320 -0.6312  0.4603 -0.9083
  475MOL0     C64003   9.780   4.412   3.257 -0.0421 -0.0548 -0.1046
  475MOL0     C64004   9.688   4.522   3.321  1.2636  1.0262  0.7422
  475MOL0     C64005   9.552   4.529   3.253 -0.3416 -0.5458  0.1489
  475MOL0     C64006   9.552   4.560   3.110  0.3564 -0.1905  0.6095
  475MOL0     N64007   9.412   4.572   3.051 -0.5572  0.5867  0.6333
  475MOL0     C64008   9.327   4.670   3.079 -0.6370  0.6253  0.4631
  475MOL0     C64009   9.213   4.626   3.021  0.4552  0.0473 -0.4572
  475MOL0     C64010   9.080   4.695   3.012  0.8214 -0.3883  0.9729
  475MOL0     C64011   8.970   4.670   3.116 -0.7438 -0.6497  0.1321
  475MOL0     C64012   8.889   4.556   3.074  0.3151 -0.1221  0.4954
  475MOL0     C64013   8.790   4.500   3.181 -0.2717 -0.9090  0.9163
  475MOL0     O64014   8.687   4.588   3.219  0.6112 -0.2212 -0.7254
  475MOL0     C64015   8.567   4.536   3.267  0.5176  0.9188  0.4036
  475MOL0     C64016   8.457   4.618   3.277 -0.0556  0.0601 -0.8921
  475MOL0     C64017   8.332   4.565   3.317 -0.1567 -0.2690  0.0492
  475MOL0     C64018   8.229   4.658   3.285  0.6984 -0.2757  0.1343
  475MOL0     C64019   8.311   4.432   3.355 -0.2009  1.4983  1.2310
  475MOL0     C64020   8.172   4.369   3.390 -1.4866 -1.1625  0.4603
  475MOL0     O64021   8.074   4.450   3.441 -0.2235  0.3383 -0.3701
  475MOL0     C64022   7.963   4.403   3.510 -0.2948  0.7104 -0.3511
  475MOL0     C64023   7.985   4.303   3.612 -0.4639  0.0087 -0.3065
  475MOL0     C64024   7.876   4.254   3.680  0.2699  0.5771  0.8829
  475MOL0     C64025   7.741   4.288   3.650  0.3301 -0.3611 -0.4039
  475MOL0     O64026   7.646   4.210   3.706 -0.2648  0.1756 -0.1070
  475MOL0     C64027   7.509   4.230   3.676  0.2714  0.1226  0.1174
  475MOL0     C64028   7.425   4.116   3.733  0.1972 -0.0307 -0.4643
  475MOL0     C64029   7.274   4.133   3.728  0.0959 -0.7781 -0.5559
  475MOL0     C64030   7.193   3.994   3.752  0.3605  0.4717 -0.1692
  475MOL0     C64031   7.043   4.021   3.754  0.1181  0.5034  0.3530
  475MOL0     C64032   6.936   3.903   3.767 -0.5438 -0.0876  0.0819
  475MOL0     C64033   6.790   3.953   3.758  0.8588 -0.1871  0.6438
  475MOL0     C64034   6.689   3.832   3.754 -0.7641  0.2264  0.3176
  475MOL0    Cl64035   6.683   3.781   3.931 -0.3888  0.3295  0.1557
  475MOL0     C64036   7.730   4.397   3.565  0.4228  0.3392  0.4275
  475MOL0     C64037   7.836   4.445   3.489  0.2368 -0.6394  0.4006
  475MOL0     O64038   8.162   4.257   3.368 -0.3412  0.2737 -0.1977
  475MOL0     C64039   8.423   4.349   3.353  0.8486 -0.5189 -0.1671
  475MOL0     C64040   8.550   4.400   3.314 -0.4539 -0.2537 -0.0660
  475MOL0     N64041   9.230   4.495   2.967  0.7973 -1.1709 -0.2183
  475MOL0     N64042   9.354   4.465   2.994 -0.2301 -0.5235 -0.1663
  475MOL0     C64043  10.504   4.441   3.441 -0.4640  0.3473 -0.1543
  475MOL0     C64044  10.622   4.439   3.519  0.3501  0.7632  0.0097
  475MOL0     C64045  11.080   4.391   3.582  0.2037 -0.4358  0.1827
  475MOL0     C64046  11.068   4.438   3.715 -0.1267  0.5488 -0.2563
  475MOL0     C64047  11.186   4.479   3.778 -0.0105  0.0015 -0.0150
  475MOL0     C64048  11.311   4.481   3.718 -0.1769  0.4542  0.4271
  475MOL0     O64049  11.424   4.518   3.780  0.3222  0.0703  0.6055
  475MOL0     C64050  11.426   4.543   3.920 -0.1170  0.3107  0.4978
  475MOL0     C64051  11.552   4.600   3.970  0.4182  1.4088  0.5151
  475MOL0     C64052  11.687   4.524   3.941 -0.6013 -0.4693  0.1884
  475MOL0     C64053  11.810   4.603   3.984  0.2488 -0.0756 -0.4998
  475MOL0     C64054  11.936   4.533   3.958  0.1168 -0.5096 -0.3199
  475MOL0     C64055  12.043   4.491   3.918  0.1224  0.0933 -0.6443
  475MOL0     C64056  11.321   4.442   3.580  0.2036  0.1278 -0.5477
  475MOL0     C64057  11.203   4.405   3.515 -0.6921  0.1738 -0.0519
  475MOL0     H64058  10.787   4.189   3.360 -0.5583  0.5412  0.8850
  475MOL0     H64059  10.592   4.190   3.233  2.7674 -1.3459  0.7444
  475MOL0     H64060  10.316   4.562   3.268  0.1128 -0.8914  1.4612
  475MOL0     H64061  10.261   4.473   3.118 -1.9210 -4.9068 -0.2974
  475MOL0     H64062  10.150   4.305   3.254 -2.2141 -1.3553  2.5015
  475MOL0     H64063  10.176   4.396   3.397 -5.4607 -0.7799  1.2327
  475MOL0     H64064  10.025   4.591   3.310 -0.5449  0.4634  0.9802
  475MOL0     H64065  10.017   4.503   3.157 -0.2326 -1.6493  0.0392
  475MOL0     H64066   9.939   4.298   3.319  1.3299  0.8067 -1.8130
  475MOL0     H64067   9.906   4.432   3.425  1.0208 -0.2736 -0.5055
  475MOL0     H64068   9.790   4.431   3.149 -0.0653 -1.7937 -0.4375
  475MOL0     H64069   9.737   4.312   3.265 -2.7032  0.9096 -1.1267
  475MOL0     H64070   9.666   4.517   3.428  1.0178  1.4630  0.7156
  475MOL0     H64071   9.728   4.623   3.305 -1.8361  2.2164 -0.2360
  475MOL0     H64072   9.502   4.434   3.270 -1.9287  0.2230  0.0344
  475MOL0     H64073   9.494   4.612   3.294 -1.7541 -0.1423 -2.4773
  475MOL0     H64074   9.594   4.476   3.054 -2.6396 -1.7508  0.5532
  475MOL0     H64075   9.607   4.653   3.094  1.2303 -0.8678 -0.4487
  475MOL0     H64076   9.343   4.768   3.121 -0.5017  2.3669 -3.2177
  475MOL0     H64077   9.087   4.803   2.997  3.5342 -0.8448 -2.1307
  475MOL0     H64078   9.048   4.660   2.914  0.8160 -2.7417  1.7419
  475MOL0     H64079   8.912   4.762   3.129  0.7421  0.7374 -2.2629
  475MOL0     H64080   9.013   4.649   3.213  0.9441  2.2597  0.1318
  475MOL0     H64081   8.956   4.473   3.048  1.0328  0.8624 -0.9549
  475MOL0     H64082   8.826   4.587   2.990 -0.7073 -1.4149  0.7541
  475MOL0     H64083   8.853   4.468   3.265 -0.2754 -0.3483  1.1395
  475MOL0     H64084   8.746   4.410   3.139 -0.1941 -0.4682 -0.1254
  475MOL0     H64085   8.470   4.721   3.245 -2.0589  0.5430 -0.3165
  475MOL0     H64086   8.179   4.681   3.379  2.4840  1.0312  0.8187
  475MOL0     H64087   8.263   4.757   3.254  1.1191 -0.4857 -0.0770
  475MOL0     H64088   8.160   4.614   3.212 -0.4581  1.6985 -0.0335
  475MOL0     H64089   8.080   4.254   3.634 -0.5654  0.2780  0.7885
  475MOL0     H64090   7.883   4.159   3.733  0.5579 -1.2823 -2.2186
  475MOL0     H64091   7.473   4.323   3.721  2.0667 -0.5860  3.3701
  475MOL0     H64092   7.479   4.242   3.571 -1.4492 -1.1743  0.4215
  475MOL0     H64093   7.461   4.020   3.696  1.2333 -0.6464  1.9301
  475MOL0     H64094   7.458   4.110   3.838 -0.0385 -1.1119 -0.4432
  475MOL0     H64095   7.246   4.172   3.629 -4.5240  1.7728  1.3999
  475MOL0     H64096   7.238   4.205   3.803 -1.9278 -4.2765  2.1393
  475MOL0     H64097   7.206   3.913   3.679 -0.7658 -0.7716  0.9664
  475MOL0     H64098   7.213   3.963   3.855  0.8489  0.6362 -0.2127
  475MOL0     H64099   7.018   4.073   3.661 -3.0070 -2.7409 -0.8422
  475MOL0     H64100   7.022   4.095   3.832  0.3436 -0.8463  1.7393
  475MOL0     H64101   6.952   3.823   3.694 -0.8272 -0.4747  0.4365
  475MOL0     H64102   6.948   3.853   3.864 -0.5885 -2.6865 -1.1622
  475MOL0     H64103   6.790   4.009   3.664 -0.5868 -0.8819  0.2007
  475MOL0     H64104   6.767   4.021   3.840 -2.2516 -0.2468 -0.0511
  475MOL0     H64105   6.731   3.750   3.695 -3.4132 -1.3765  0.5344
  475MOL0     H64106   6.588   3.857   3.721 -0.7225  0.2533  0.2108
  475MOL0     H64107   7.633   4.435   3.532  0.2116  0.9110  1.6687
  475MOL0     H64108   7.820   4.501   3.398 -1.3712  0.3104  1.2139
  475MOL0     H64109   8.414   4.243   3.378 -3.3313 -0.8331 -2.3039
  475MOL0     H64110   8.639   4.337   3.317 -0.7880 -0.7195  0.1473
  475MOL0     H64111  10.421   4.504   3.470 -2.0186 -2.1684  1.2841
  475MOL0     H64112  10.634   4.496   3.611 -0.1150 -3.6254  3.0810
  475MOL0     H64113  10.973   4.454   3.765  0.5904  2.5070  0.5735
  475MOL0     H64114  11.175   4.509   3.882  0.0199  0.4206 -0.1285
  475MOL0     H64115  11.337   4.601   3.945 -1.1434 -0.4775 -1.1452
  475MOL0     H64116  11.413   4.444   3.966 -5.1229  0.6759  0.3783
  475MOL0     H64117  11.547   4.604   4.079 -0.3749 -0.7716  0.6054
  475MOL0     H64118  11.563   4.701   3.929  0.6502  1.8083  1.5220
  475MOL0     H64119  11.699   4.507   3.833  1.9755 -0.5224  0.4145
  475MOL0     H64120  11.695   4.424   3.986 -0.8543 -0.5951 -0.0373
  475MOL0     H64121  11.807   4.630   4.090  0.6191  0.2404 -0.5671
  475MOL0     H64122  11.811   4.698   3.931  0.1360  0.8637  1.1277
  475MOL0     H64123  12.137   4.451   3.885  1.4605  3.0504 -0.7550
  475MOL0     H64124  11.419   4.439   3.535 -1.1439 -2.0165 -3.6047
  475MOL0     H64125  11.203   4.397   3.407 -0.5062  0.2956 -0.0619
  476MOL0     O64126   9.884   4.007   8.614  1.0182  0.2729 -0.2548
  476MOL0     C64127   9.866   4.026   8.495  0.2670  1.1115  0.6856
  476MOL0     O64128   9.747   4.014   8.427 -0.0598  0.1252 -0.7287
  476MOL0     C64129   9.641   3.966   8.505 -0.1054 -1.6837 -0.0975
  476MOL0     C64130   9.653   3.837   8.561 -0.1608  0.5582  0.6225
  476MOL0     C64131   9.552   3.795   8.639  0.0909  0.2546 -0.2157
  476MOL0     C64132   9.432   3.869   8.656  0.7118  0.0068  0.4841
  476MOL0     O64133   9.342   3.792   8.718  1.2153 -0.3664  0.1553
  476MOL0     C64134   9.209   3.851   8.732  0.6159  0.3099  0.8719
  476MOL0     C64135   9.128   3.759   8.815  0.4690  0.0924  0.5372
  476MOL0     C64136   8.984   3.799   8.813 -0.0718 -0.0024 -0.1346
  476MOL0     C64137   8.897   3.746   8.699 -0.3695  0.3669  0.2862
  476MOL0     C64138   8.754   3.800   8.710 -0.0026 -0.4538 -0.8875
  476MOL0     C64139   8.672   3.705   8.619 -0.0725 -0.2697  0.8915
  476MOL0     C64140   8.525   3.739   8.636 -0.5110  0.7199  0.5641
  476MOL0     C64141   8.441   3.680   8.527 -0.6470  0.3495  0.0071
  476MOL0     N64142   8.301   3.729   8.516 -0.2910 -0.3757  1.0566
  476MOL0     C64143   8.237   3.699   8.395  0.2822 -0.3494 -0.4884
  476MOL0     C64144   8.113   3.746   8.439  0.3540 -0.2702  0.1087
  476MOL0     C64145   7.992   3.722   8.359 -0.4122  0.3836  0.5002
  476MOL0     C64146   7.864   3.733   8.445  0.3133  0.2607  0.0162
  476MOL0     C64147   7.734   3.669   8.382 -0.1491 -0.1656 -0.1961
  476MOL0     C64148   7.612   3.685   8.478  0.7374  0.1497  0.3437
  476MOL0     O64149   7.640   3.634   8.603 -0.3201 -0.3296 -0.3951
  476MOL0     C64150   7.543   3.621   8.700 -0.1299  0.6256  0.0979
  476MOL0     C64151   7.563   3.520   8.796 -0.6674  0.0328  0.4772
  476MOL0     C64152   7.477   3.496   8.907 -0.2513 -0.5153 -0.2019
  476MOL0     C64153   7.498   3.384   9.007 -0.3012  0.4024 -0.9694
  476MOL0     C64154   7.362   3.575   8.908 -0.3297 -0.1854  0.0382
  476MOL0     C64155   7.251   3.568   9.005  0.1147 -0.1507 -0.2042
  476MOL0     O64156   7.125   3.594   8.958  0.7581 -0.5511 -0.1140
  476MOL0     C64157   7.027   3.614   9.056  0.3675 -0.7612 -0.1736
  476MOL0     C64158   7.044   3.701   9.168 -0.0651  0.1800  0.5200
  476MOL0     C64159   6.934   3.731   9.245  0.4758 -0.0228 -0.0857
  476MOL0     C64160   6.810   3.671   9.223 -0.7750 -0.3557 -0.5850
  476MOL0     O64161   6.723   3.703   9.325 -0.5337 -0.4276 -0.2480
  476MOL0     C64162   6.607   3.619   9.338 -0.0723 -0.1492 -0.2971
  476MOL0     C64163   6.516   3.673   9.454  0.0313 -0.1518 -0.3223
  476MOL0     C64164   6.415   3.772   9.391  0.2542 -0.6893 -0.8230
  476MOL0     C64165   6.309   3.831   9.485  0.0373  0.3811 -0.2137
  476MOL0     C64166   6.210   3.727   9.531 -0.8221  0.1256  0.1882
  476MOL0     C64167   6.115   3.787   9.632 -0.2169 -0.9258 -0.5876
  476MOL0     C64168   6.032   3.911   9.589  0.4114  0.7093  0.1760
  476MOL0     C64169   5.922   3.934   9.696 -0.1971 -0.1833 -0.0527
  476MOL0    Cl64170   5.969   4.046   9.830 -0.0869  0.3531 -0.0346
  476MOL0     C64171   6.798   3.581   9.112  0.1391 -0.3661  0.8031
  476MOL0     C64172   6.905   3.557   9.029 -0.0848  0.3752  0.0910
  476MOL0     O64173   7.284   3.548   9.129 -0.2604  0.2436  0.2847
  476MOL0     C64174   7.340   3.680   8.817  0.2687 -0.6595 -0.4730
  476MOL0     C64175   7.427   3.705   8.708  0.3322 -0.1463 -0.5593
  476MOL0     N64176   8.111   3.809   8.562  0.2347 -0.5551 -0.0177
  476MOL0     N64177   8.225   3.799   8.610  0.4868 -0.2254  0.8931
  476MOL0     C64178   9.426   3.996   8.604  0.0141  0.3682  0.2840
  476MOL0     C64179   9.534   4.053   8.532 -0.0669  0.9717 -0.8587
  476MOL0     C64180   9.979   4.068   8.403 -0.1221  0.5753 -0.6711
  476MOL0     C64181  10.107   4.088   8.456  0.6448 -0.7392 -0.0738
  476MOL0     C64182  10.224   4.120   8.384  0.2907 -0.7771 -0.0706
  476MOL0     C64183  10.209   4.123   8.249  0.1003 -0.1580 -0.2035
  476MOL0     O64184  10.313   4.163   8.174  0.2915  0.1358  0.5501
  476MOL0     C64185  10.334   4.130   8.036 -1.2239  0.2403 -0.7170
  476MOL0     C64186  10.308   3.983   7.998  0.1506 -1.3536 -0.1200
  476MOL0     C64187  10.413   3.887   8.060 -0.7084  0.0995  1.0113
  476MOL0     C64188  10.383   3.740   8.012  0.6801 -0.1168 -0.3385
  476MOL0     C64189  10.487   3.649   8.063 -0.6110 -0.4533 -0.8267
  476MOL0     C64190  10.572   3.571   8.106 -0.0959  0.4411 -0.2258
  476MOL0     C64191  10.080   4.106   8.186  0.0041 -0.4009  0.1172
  476MOL0     C64192   9.963   4.084   8.268 -0.7274  1.1212  0.8863
  476MOL0     H64193   9.744   3.782   8.541 -0.2512 -0.8347  3.5377
  476MOL0     H64194   9.559   3.692   8.674  3.0516  0.7040  0.8544
  476MOL0     H64195   9.222   3.941   8.793 -1.0331  2.1882 -1.3727
  476MOL0     H64196   9.165   3.878   8.636 -0.2519  0.8546  1.4028
  476MOL0     H64197   9.137   3.655   8.783  0.6383  0.0434  0.7417
  476MOL0     H64198   9.168   3.749   8.917  1.7951 -5.8394 -0.2249
  476MOL0     H64199   8.937   3.772   8.908 -2.1873  1.2164 -0.7661
  476MOL0     H64200   8.973   3.907   8.807 -1.2078 -0.1032 -0.1581
  476MOL0     H64201   8.950   3.779   8.608 -1.9473  1.8886 -0.1337
  476MOL0     H64202   8.904   3.637   8.694  0.8814  0.4150  0.6090
  476MOL0     H64203   8.706   3.798   8.808  0.1052  0.9610 -0.7915
  476MOL0     H64204   8.751   3.904   8.677 -1.2009 -0.0608  0.3918
  476MOL0     H64205   8.709   3.725   8.518  0.1137  1.0238  1.1921
  476MOL0     H64206   8.684   3.601   8.649 -1.8213 -0.2966  1.6068
  476MOL0     H64207   8.496   3.705   8.735 -0.8182 -1.1053 -0.1190
  476MOL0     H64208   8.517   3.848   8.626 -1.0723  0.7226  1.0300
  476MOL0     H64209   8.432   3.573   8.546 -0.2906 -0.2264 -2.7002
  476MOL0     H64210   8.495   3.699   8.434  1.1429 -0.3351  0.8636
  476MOL0     H64211   8.261   3.645   8.305  2.3259  1.7238 -1.3057
  476MOL0     H64212   7.981   3.801   8.285  1.4392 -1.0799 -1.4832
  476MOL0     H64213   8.000   3.624   8.310 -1.5036  0.4334  0.1996
  476MOL0     H64214   7.849   3.837   8.472  0.3113  0.1294  0.5263
  476MOL0     H64215   7.878   3.669   8.533 -2.8297 -0.9164 -0.2251
  476MOL0     H64216   7.753   3.570   8.337 -0.4424  0.9058 -2.8896
  476MOL0     H64217   7.712   3.734   8.297 -1.7163  0.1378  0.4099
  476MOL0     H64218   7.516   3.649   8.438  1.3146 -0.3111 -0.6638
  476MOL0     H64219   7.597   3.794   8.485  0.4537  0.0537  1.2711
  476MOL0     H64220   7.648   3.455   8.781 -1.3437 -0.2688 -2.6526
  476MOL0     H64221   7.491   3.420   9.110 -0.4828 -1.2761 -0.3502
  476MOL0     H64222   7.426   3.301   9.003 -2.6344  1.9808  2.8496
  476MOL0     H64223   7.599   3.342   9.002 -0.9485 -1.4261  0.1417
  476MOL0     H64224   7.136   3.758   9.175 -0.3179  0.9307 -1.5003
  476MOL0     H64225   6.933   3.804   9.325  3.8123 -0.7505  0.7848
  476MOL0     H64226   6.559   3.608   9.240  1.6562 -0.6257 -1.1209
  476MOL0     H64227   6.637   3.518   9.367 -0.6897 -0.1272  0.4756
  476MOL0     H64228   6.454   3.591   9.492 -1.3163  0.8177 -0.3187
  476MOL0     H64229   6.575   3.709   9.539  2.1543 -0.0071 -1.7840
  476MOL0     H64230   6.371   3.711   9.312 -0.2818 -1.6937  0.2125
  476MOL0     H64231   6.467   3.856   9.345 -1.2907  0.7500 -0.0597
  476MOL0     H64232   6.353   3.886   9.569  2.4629  0.0766 -1.2147
  476MOL0     H64233   6.245   3.903   9.434  0.0357  0.5474  0.0192
  476MOL0     H64234   6.252   3.636   9.575  1.1017  0.1183 -1.5123
  476MOL0     H64235   6.162   3.689   9.440 -1.2287 -1.3598  0.9861
  476MOL0     H64236   6.057   3.702   9.670  0.2803 -1.5171 -1.1334
  476MOL0     H64237   6.177   3.816   9.718  1.1246 -2.7482 -0.8735
  476MOL0     H64238   5.984   3.878   9.497  1.1121  1.0166 -0.3130
  476MOL0     H64239   6.085   4.002   9.559 -1.2808  2.7416  2.8934
  476MOL0     H64240   5.887   3.837   9.733  0.8581 -0.8994 -0.8624
  476MOL0     H64241   5.844   3.978   9.633 -0.1251  2.1882  1.3989
  476MOL0     H64242   6.704   3.537   9.080 -0.3255  1.9327 -1.3271
  476MOL0     H64243   6.889   3.491   8.944  1.6566 -0.9100  0.7106
  476MOL0     H64244   7.248   3.737   8.823  0.4565 -0.4391  0.3089
  476MOL0     H64245   7.415   3.790   8.641 -0.6585 -1.9212 -2.7493
  476MOL0     H64246   9.338   4.058   8.612  0.1611  1.0959 -2.5930
  476MOL0     H64247   9.535   4.155   8.495 -2.0682  0.6127 -2.0409
  476MOL0     H64248  10.124   4.069   8.562 -2.0627 -1.8391  0.2488
  476MOL0     H64249  10.322   4.137   8.427 -1.0604 -0.6375  3.2478
  476MOL0     H64250  10.273   4.199   7.976  2.6664  1.3549 -3.8452
  476MOL0     H64251  10.438   4.149   8.009 -0.3812 -1.1592  1.2971
  476MOL0     H64252  10.301   3.985   7.889  0.6591  1.3752 -0.1809
  476MOL0     H64253  10.210   3.960   8.042  0.2863 -2.0318 -0.1690
  476MOL0     H64254  10.413   3.896   8.169 -2.2775  1.5531  0.9252
  476MOL0     H64255  10.513   3.915   8.027 -0.4997 -0.8730  0.7751
  476MOL0     H64256  10.369   3.733   7.904 -1.0643  0.1588 -0.1565
  476MOL0     H64257  10.291   3.699   8.054  2.0209 -2.3846  0.5478
  476MOL0     H64258  10.654   3.508   8.136 -0.2552  0.7689  0.9639
  476MOL0     H64259  10.077   4.120   8.078  0.1049 -0.1032  0.1522
  476MOL0     H64260   9.866   4.068   8.223 -1.2301  0.6855  2.0837
  477MOL0     O64261   5.579   6.716   5.920  0.5205  0.7295 -0.3387
  477MOL0     C64262   5.639   6.804   5.975 -0.5678 -0.7796 -0.3376
  477MOL0     O64263   5.727   6.783   6.066 -0.2288  0.0132 -0.4206
  477MOL0     C64264   5.746   6.657   6.118 -0.5293  0.0769  0.9942
  477MOL0     C64265   5.660   6.596   6.205  0.6023  0.7069  1.3183
  477MOL0     C64266   5.695   6.467   6.259  0.7034  0.2020 -0.5560
  477MOL0     C64267   5.809   6.399   6.210 -0.3440 -0.6356 -0.7367
  477MOL0     O64268   5.857   6.278   6.244 -0.0091 -0.0356  1.6879
  477MOL0     C64269   5.764   6.176   6.268 -0.2023 -0.5744 -0.2024
  477MOL0     C64270   5.840   6.060   6.327  0.2897 -0.1685 -0.3464
  477MOL0     C64271   5.771   5.928   6.324  0.2719 -0.1074 -0.6057
  477MOL0     C64272   5.625   5.935   6.363 -0.1875  0.2490  1.2169
  477MOL0     C64273   5.559   5.793   6.356  0.3035  0.3563  0.5939
  477MOL0     C64274   5.417   5.809   6.388  0.2804 -0.1101  0.1702
  477MOL0     C64275   5.350   5.672   6.368 -0.0443  0.3448  0.5902
  477MOL0     C64276   5.215   5.690   6.442  0.1046  0.0003  0.1670
  477MOL0     N64277   5.122   5.592   6.390 -0.3187  1.0591 -0.6857
  477MOL0     C64278   5.088   5.580   6.259  0.6499 -1.0395  0.1187
  477MOL0     C64279   4.995   5.476   6.258  0.7570 -0.4750  0.4587
  477MOL0     C64280   4.926   5.415   6.131 -0.4946 -0.8054  0.1022
  477MOL0     C64281   4.768   5.442   6.117  0.3869  0.0932 -0.0823
  477MOL0     C64282   4.740   5.592   6.096 -0.0238  0.2381 -0.2172
  477MOL0     C64283   4.596   5.611   6.049 -0.0884 -0.4472  0.0146
  477MOL0     O64284   4.519   5.581   6.160 -0.0648  0.0632 -0.5282
  477MOL0     C64285   4.425   5.679   6.191  0.8302 -0.1807 -1.4736
  477MOL0     C64286   4.461   5.805   6.245  1.0727  0.9054 -0.2929
  477MOL0     C64287   4.358   5.905   6.267 -0.7937 -0.1399 -0.0857
  477MOL0     C64288   4.400   6.045   6.327  0.3283  0.5835  0.1270
  477MOL0     C64289   4.221   5.874   6.244 -0.0255 -0.1174 -0.3392
  477MOL0     C64290   4.111   5.971   6.272  0.5211 -0.7285  1.2366
  477MOL0     O64291   3.989   5.904   6.282 -0.4742 -0.3713  0.5310
  477MOL0     C64292   3.879   5.966   6.329  0.4358 -0.8536  0.0372
  477MOL0     C64293   3.878   6.080   6.421  0.4833  0.0708 -0.3260
  477MOL0     C64294   3.748   6.132   6.460 -0.7840 -1.6552 -0.6852
  477MOL0     C64295   3.625   6.082   6.416  0.4356  0.0124 -0.2014
  477MOL0     O64296   3.500   6.106   6.465 -0.1274  0.0985  0.1390
  477MOL0     C64297   3.476   6.222   6.542 -0.1710  0.3103  0.3397
  477MOL0     C64298   3.327   6.256   6.557  0.4969  0.0350 -0.0374
  477MOL0     C64299   3.272   6.265   6.414 -0.4448 -0.1904 -0.3480
  477MOL0     C64300   3.121   6.295   6.403 -0.3562 -0.6483 -0.3616
  477MOL0     C64301   3.082   6.312   6.260  0.5202 -0.7965 -0.8707
  477MOL0     C64302   2.933   6.355   6.252  0.2473 -0.6835  1.2369
  477MOL0     C64303   2.840   6.242   6.269  0.2476  0.5501 -0.1079
  477MOL0     C64304   2.703   6.297   6.294 -0.3498 -0.4707  0.6425
  477MOL0    Cl64305   2.601   6.168   6.241  0.0050 -0.1340  0.2817
  477MOL0     C64306   3.636   5.966   6.335  0.6857 -1.0201  1.3477
  477MOL0     C64307   3.758   5.909   6.288 -0.5163  0.0442  0.3382
  477MOL0     O64308   4.130   6.090   6.288  0.2880 -0.2300 -0.8710
  477MOL0     C64309   4.191   5.745   6.191  0.1110  0.3627 -0.5773
  477MOL0     C64310   4.291   5.651   6.167  0.2769 -0.5194  0.3308
  477MOL0     N64311   4.991   5.423   6.386  0.7396  0.5769  0.1295
  477MOL0     N64312   5.058   5.498   6.464 -0.1825 -0.3300  0.1837
  477MOL0     C64313   5.886   6.458   6.116 -0.6183 -0.1668  0.0591
  477MOL0     C64314   5.859   6.588   6.077 -0.6302 -0.7375  0.2562
  477MOL0     C64315   5.587   6.944   5.953 -1.1089 -0.1579 -0.2413
  477MOL0     C64316   5.672   7.056   5.985  0.0383 -0.5385 -0.1640
  477MOL0     C64317   5.625   7.191   5.975  0.2621  0.2932  1.0146
  477MOL0     C64318   5.495   7.205   5.921 -0.5062  0.4619 -0.5690
  477MOL0     O64319   5.440   7.331   5.924 -0.4291 -0.5083  0.6723
  477MOL0     C64320   5.415   7.392   6.053 -0.2001 -0.2294 -0.0284
  477MOL0     C64321   5.386   7.542   6.038  0.4536 -0.4961 -1.0671
  477MOL0     C64322   5.253   7.566   5.962 -0.1179  0.0739 -0.1930
  477MOL0     C64323   5.245   7.716   5.946  0.8022 -0.0660 -0.7381
  477MOL0     C64324   5.138   7.753   5.856 -0.0596  0.8410 -0.3005
  477MOL0     C64325   5.037   7.783   5.798 -0.8535 -0.4488  0.3554
  477MOL0     C64326   5.428   7.094   5.865  0.0404 -0.4545 -0.1564
  477MOL0     C64327   5.475   6.970   5.877 -0.4959 -0.1002 -0.5138
  477MOL0     H64328   5.567   6.648   6.227 -2.6259 -3.9928  0.3019
  477MOL0     H64329   5.630   6.422   6.335  0.9469 -0.0624 -0.5035
  477MOL0     H64330   5.690   6.208   6.342 -0.4546 -1.0430 -0.2509
  477MOL0     H64331   5.715   6.133   6.180 -0.2434 -2.6870  0.7867
  477MOL0     H64332   5.943   6.047   6.291  0.9628  2.0114  0.5587
  477MOL0     H64333   5.852   6.082   6.434 -0.4275  3.3111 -0.8522
  477MOL0     H64334   5.788   5.881   6.227 -0.3032 -2.4385  0.3501
  477MOL0     H64335   5.810   5.874   6.411  2.2687  3.0731  0.6507
  477MOL0     H64336   5.603   5.980   6.461 -2.1831  1.4864  0.2620
  477MOL0     H64337   5.578   6.006   6.295  2.8798  1.5821  0.2952
  477MOL0     H64338   5.584   5.760   6.255 -1.5507  0.9248 -0.0967
  477MOL0     H64339   5.606   5.734   6.435  1.0105  1.2404  0.8624
  477MOL0     H64340   5.405   5.831   6.495 -2.7125 -2.4656  0.4801
  477MOL0     H64341   5.369   5.885   6.326  1.2415 -0.0030 -0.4505
  477MOL0     H64342   5.336   5.644   6.263 -0.7498 -1.4624  1.1232
  477MOL0     H64343   5.404   5.588   6.413  1.1500  0.9216  0.2770
  477MOL0     H64344   5.177   5.792   6.429  1.1056  0.4318  0.6009
  477MOL0     H64345   5.237   5.672   6.547  1.1250 -1.0417 -0.2024
  477MOL0     H64346   5.128   5.634   6.174  0.3327  0.4661  0.8958
  477MOL0     H64347   4.975   5.461   6.045 -0.9819  0.2712  0.3905
  477MOL0     H64348   4.954   5.310   6.119  2.0831 -0.1664  0.0996
  477MOL0     H64349   4.717   5.420   6.212  3.3128  1.4716  1.9479
  477MOL0     H64350   4.740   5.368   6.041  2.9920  2.0773 -3.2155
  477MOL0     H64351   4.811   5.642   6.029 -0.1430  3.4233  1.8173
  477MOL0     H64352   4.761   5.639   6.193  1.6299 -2.4269  0.8577
  477MOL0     H64353   4.568   5.540   5.970  0.8473 -0.7072 -0.0893
  477MOL0     H64354   4.569   5.710   6.012  1.8969  0.7074  1.5152
  477MOL0     H64355   4.566   5.818   6.266  1.0527 -1.8527  2.2337
  477MOL0     H64356   4.508   6.033   6.343 -0.1595 -1.1535  2.5872
  477MOL0     H64357   4.380   6.117   6.247 -0.6730 -1.4170 -1.4958
  477MOL0     H64358   4.340   6.069   6.416 -1.7832 -2.4698 -0.3356
  477MOL0     H64359   3.971   6.124   6.455  0.0824  1.1824 -0.6105
  477MOL0     H64360   3.749   6.217   6.527  2.0280 -1.1746 -1.1941
  477MOL0     H64361   3.512   6.203   6.643 -1.2567 -1.5465  0.4297
  477MOL0     H64362   3.524   6.311   6.500  1.0923 -0.9961 -1.1118
  477MOL0     H64363   3.277   6.179   6.616 -0.1233  2.0209  2.1599
  477MOL0     H64364   3.307   6.350   6.609  0.9594  1.8503 -2.9212
  477MOL0     H64365   3.298   6.173   6.360  1.2653 -1.1554  1.9212
  477MOL0     H64366   3.329   6.341   6.359  1.2005 -1.6258 -0.7333
  477MOL0     H64367   3.046   6.229   6.448 -2.4230  2.5088  1.1666
  477MOL0     H64368   3.102   6.390   6.452 -1.2606 -1.0125  0.0190
  477MOL0     H64369   3.090   6.213   6.214  0.2420 -1.7072  0.9142
  477MOL0     H64370   3.152   6.380   6.211 -0.9215  0.4993 -1.2279
  477MOL0     H64371   2.904   6.424   6.331 -2.6866  0.3880 -0.6130
  477MOL0     H64372   2.923   6.401   6.153  3.9565  1.1361  1.5465
  477MOL0     H64373   2.873   6.177   6.351  0.7048 -0.2178 -0.8847
  477MOL0     H64374   2.849   6.189   6.173  1.2939 -1.9172  1.2418
  477MOL0     H64375   2.675   6.386   6.238  1.0953 -0.2177  0.2748
  477MOL0     H64376   2.697   6.319   6.401  0.8356 -0.8138  0.7905
  477MOL0     H64377   3.546   5.920   6.294  0.6867 -0.3016  0.5118
  477MOL0     H64378   3.759   5.828   6.216 -1.0175  1.1789 -0.9775
  477MOL0     H64379   4.098   5.706   6.151  1.7320 -0.1600 -4.3040
  477MOL0     H64380   4.259   5.559   6.119 -1.4563 -0.4174  1.1846
  477MOL0     H64381   5.968   6.397   6.078 -1.2568 -1.0169 -0.0060
  477MOL0     H64382   5.919   6.646   6.007  0.2695 -0.2906  1.3571
  477MOL0     H64383   5.773   7.044   6.024  0.1255  2.1247  0.6278
  477MOL0     H64384   5.685   7.272   6.014  1.4583 -0.5548  0.9844
  477MOL0     H64385   5.338   7.341   6.110  0.4148 -0.6122  0.4697
  477MOL0     H64386   5.508   7.385   6.111  0.5514  2.1380 -0.8381
  477MOL0     H64387   5.468   7.586   5.981  0.4297 -0.0057 -0.7276
  477MOL0     H64388   5.384   7.583   6.139  1.5742  0.2544 -1.3406
  477MOL0     H64389   5.162   7.526   6.007  0.2511  0.3990  0.8878
  477MOL0     H64390   5.259   7.521   5.863 -0.6562 -0.0261 -0.1833
  477MOL0     H64391   5.337   7.759   5.905  0.4023 -1.1302 -2.8800
  477MOL0     H64392   5.230   7.757   6.047  4.7400 -0.6514  0.2626
  477MOL0     H64393   4.952   7.823   5.747  1.0597  1.7915 -1.2938
  477MOL0     H64394   5.336   7.119   5.814 -1.8518 -1.9599  2.2723
  477MOL0     H64395   5.433   6.886   5.822  2.4028 -2.1717  0.1924
  478MOL0     O64396   7.014   6.564   4.280 -0.0916  0.6547  0.1279
  478MOL0     C64397   7.126   6.605   4.266  0.5779 -0.0685  0.1447
  478MOL0     O64398   7.207   6.646   4.373  0.2306  0.2063 -0.1647
  478MOL0     C64399   7.136   6.646   4.502  0.5601 -0.8870  0.1974
  478MOL0     C64400   7.172   6.558   4.607 -0.1984 -0.3560  0.0802
  478MOL0     C64401   7.110   6.564   4.730  0.0696  0.7176  0.0695
  478MOL0     C64402   7.012   6.660   4.758  0.2116  0.0697 -0.2370
  478MOL0     O64403   6.951   6.678   4.878 -0.1963 -0.0757  0.0572
  478MOL0     C64404   6.964   6.590   4.986 -0.2406  0.2833  0.0314
  478MOL0     C64405   6.863   6.632   5.097  0.4480  0.5171 -1.1706
  478MOL0     C64406   6.716   6.612   5.056 -0.6288 -0.0634 -0.2465
  478MOL0     C64407   6.613   6.636   5.160  0.0151  0.8188 -0.3626
  478MOL0     C64408   6.469   6.583   5.124 -0.6680 -0.3473 -0.2373
  478MOL0     C64409   6.379   6.587   5.251  0.2789  0.2357  0.2393
  478MOL0     C64410   6.234   6.577   5.205 -0.1175  0.7824 -0.2635
  478MOL0     C64411   6.144   6.604   5.328 -1.0759  0.0327  0.1401
  478MOL0     N64412   6.006   6.587   5.287 -0.1165 -0.0510 -0.2999
  478MOL0     C64413   5.949   6.468   5.301 -0.2500 -0.0325  0.4546
  478MOL0     C64414   5.828   6.486   5.250  0.2967  0.6761 -0.4794
  478MOL0     C64415   5.715   6.381   5.266 -0.0850 -0.2591  0.5726
  478MOL0     C64416   5.577   6.450   5.286  0.2269 -0.7957 -0.2623
  478MOL0     C64417   5.479   6.343   5.318 -0.3334  0.5659  0.0817
  478MOL0     C64418   5.341   6.392   5.350  0.2489 -0.4462  0.6101
  478MOL0     O64419   5.360   6.481   5.467  0.6635 -0.0212 -0.4355
  478MOL0     C64420   5.256   6.486   5.555 -0.7060  0.3949 -0.7990
  478MOL0     C64421   5.280   6.541   5.679 -0.8529  0.4168 -0.0004
  478MOL0     C64422   5.178   6.556   5.775  0.0489  0.4355  0.4247
  478MOL0     C64423   5.203   6.627   5.902 -0.5614 -0.7494 -0.2962
  478MOL0     C64424   5.050   6.499   5.755 -0.6128 -0.2771  0.4431
  478MOL0     C64425   4.938   6.489   5.854 -0.5801  0.6114 -0.3114
  478MOL0     O64426   4.976   6.469   5.989  0.0048 -0.2662 -0.0002
  478MOL0     C64427   4.894   6.492   6.096 -0.1320 -0.4128  0.3503
  478MOL0     C64428   4.909   6.418   6.211  0.3150  0.1686  0.2621
  478MOL0     C64429   4.810   6.421   6.314 -0.6150 -0.1324  0.1903
  478MOL0     C64430   4.707   6.514   6.317 -0.6141  0.3944 -0.4484
  478MOL0     O64431   4.618   6.505   6.419  0.0143  0.2589 -0.9156
  478MOL0     C64432   4.566   6.630   6.465 -0.1156 -0.9735 -0.0038
  478MOL0     C64433   4.499   6.626   6.603  0.0090 -0.8121 -0.8350
  478MOL0     C64434   4.360   6.565   6.604 -0.6494  0.7076 -0.5749
  478MOL0     C64435   4.352   6.414   6.594  0.2762 -0.5988  0.4506
  478MOL0     C64436   4.210   6.355   6.584 -0.3042  0.0399 -1.1136
  478MOL0     C64437   4.162   6.343   6.728 -0.1899  0.4949 -0.1811
  478MOL0     C64438   4.019   6.288   6.719 -0.6006 -0.3569 -1.1683
  478MOL0     C64439   3.954   6.294   6.854  0.4563 -0.6291  0.3416
  478MOL0    Cl64440   4.048   6.245   6.997 -0.0107 -0.1189 -0.2572
  478MOL0     C64441   4.700   6.593   6.198 -0.0215  0.5599  0.0367
  478MOL0     C64442   4.793   6.585   6.094 -0.0881 -0.7836  0.1824
  478MOL0     O64443   4.823   6.478   5.811  0.5055  0.5000  0.5686
  478MOL0     C64444   5.023   6.464   5.623  0.4870  0.4374  0.2093
  478MOL0     C64445   5.124   6.450   5.530 -0.1777  0.4741  0.0585
  478MOL0     N64446   5.818   6.615   5.200  0.1903 -0.0034  0.1546
  478MOL0     N64447   5.920   6.676   5.229  0.6479  0.5062  0.0240
  478MOL0     C64448   6.973   6.745   4.660 -0.0811 -0.1640 -0.9077
  478MOL0     C64449   7.032   6.740   4.535  0.3740  1.3849  0.6791
  478MOL0     C64450   7.176   6.602   4.118  0.3103  0.0570 -0.1748
  478MOL0     C64451   7.306   6.642   4.076 -0.2580 -0.1502 -0.6091
  478MOL0     C64452   7.343   6.621   3.945 -0.2304 -0.0440 -0.5298
  478MOL0     C64453   7.261   6.570   3.849  0.3070  0.2009 -0.3456
  478MOL0     O64454   7.291   6.535   3.718  0.2289  0.0386  0.1067
  478MOL0     C64455   7.226   6.613   3.619 -0.3284 -0.1342 -0.0622
  478MOL0     C64456   7.333   6.668   3.526 -0.6530 -0.0584  0.6097
  478MOL0     C64457   7.437   6.759   3.593  0.0325 -0.7276  0.2421
  478MOL0     C64458   7.372   6.880   3.659  0.1126  0.7318  0.1257
  478MOL0     C64459   7.290   6.960   3.561 -0.2150 -0.0250  0.4317
  478MOL0     C64460   7.229   7.017   3.474 -0.1071 -0.1304  0.6313
  478MOL0     C64461   7.136   6.546   3.890  0.3085 -0.2995 -0.3344
  478MOL0     C64462   7.090   6.565   4.018 -0.2764 -0.0925 -0.0014
  478MOL0     H64463   7.252   6.486   4.590  0.4000  0.8829 -3.0306
  478MOL0     H64464   7.139   6.488   4.802  1.6243 -1.1045 -2.2915
  478MOL0     H64465   6.936   6.492   4.947 -0.5291  0.4560 -0.2015
  478MOL0     H64466   7.066   6.585   5.024 -0.0436  0.4392 -0.4590
  478MOL0     H64467   6.891   6.563   5.178  0.2178 -3.2900 -4.0542
  478MOL0     H64468   6.874   6.735   5.133  2.5035 -0.5969  1.7218
  478MOL0     H64469   6.682   6.682   4.979 -3.7912 -0.4723  0.6237
  478MOL0     H64470   6.697   6.510   5.022 -1.3743  0.4519 -1.4514
  478MOL0     H64471   6.645   6.567   5.238 -1.5224 -1.5577 -1.7115
  478MOL0     H64472   6.600   6.741   5.189  1.0602  0.8075  0.1976
  478MOL0     H64473   6.444   6.654   5.044 -0.1872 -0.4649 -0.4959
  478MOL0     H64474   6.480   6.486   5.076  0.6028 -0.0605 -0.5704
  478MOL0     H64475   6.397   6.495   5.308 -1.2562  0.1156  0.5755
  478MOL0     H64476   6.397   6.671   5.318 -3.3505 -0.9958  3.0621
  478MOL0     H64477   6.207   6.654   5.132 -1.1777 -0.0981 -0.8494
  478MOL0     H64478   6.228   6.478   5.158  2.3928  1.6749 -2.7878
  478MOL0     H64479   6.161   6.708   5.358 -2.4056  0.0292  0.9715
  478MOL0     H64480   6.172   6.542   5.414 -1.4360  0.6087  0.6807
  478MOL0     H64481   5.995   6.386   5.356 -1.3103 -1.6641 -1.0092
  478MOL0     H64482   5.719   6.313   5.180 -1.6607 -0.2782  0.4784
  478MOL0     H64483   5.742   6.318   5.351  0.2893  2.5753  2.7116
  478MOL0     H64484   5.545   6.511   5.201 -0.6464  1.9030  1.8449
  478MOL0     H64485   5.596   6.523   5.366 -1.1566 -0.0554 -0.5737
  478MOL0     H64486   5.515   6.278   5.398 -0.8634  1.7847  1.3660
  478MOL0     H64487   5.470   6.275   5.233 -4.3316 -1.1571  1.6517
  478MOL0     H64488   5.284   6.303   5.374  0.6598 -0.4161  1.7697
  478MOL0     H64489   5.301   6.446   5.264 -0.9014 -0.8491  0.8828
  478MOL0     H64490   5.379   6.582   5.696  0.3432 -2.0205 -0.7177
  478MOL0     H64491   5.122   6.696   5.929  1.2549  2.4593 -2.3108
  478MOL0     H64492   5.223   6.557   5.983  1.8111  1.6416  1.3974
  478MOL0     H64493   5.293   6.688   5.885  1.0772 -3.2615 -1.2513
  478MOL0     H64494   4.992   6.347   6.214  0.6565  0.5919  1.3820
  478MOL0     H64495   4.815   6.357   6.401 -2.9720  1.2497  1.4466
  478MOL0     H64496   4.656   6.690   6.478 -0.1498 -0.7226 -0.8650
  478MOL0     H64497   4.502   6.673   6.387 -2.2035 -2.4741  0.7740
  478MOL0     H64498   4.566   6.575   6.673 -1.9698 -0.3631  1.5050
  478MOL0     H64499   4.491   6.725   6.650  0.4368 -0.3227 -1.7616
  478MOL0     H64500   4.307   6.611   6.520  0.3937  1.1468 -0.9974
  478MOL0     H64501   4.319   6.581   6.704  2.0587 -2.6026  1.2691
  478MOL0     H64502   4.410   6.392   6.504  1.9915  2.5677  0.6507
  478MOL0     H64503   4.408   6.374   6.680 -1.8048  0.1766  2.2433
  478MOL0     H64504   4.231   6.254   6.547  2.4202  0.0484  0.2059
  478MOL0     H64505   4.137   6.411   6.525 -0.8899  0.5031  0.0263
  478MOL0     H64506   4.232   6.280   6.784  2.0592  3.1854  0.2620
  478MOL0     H64507   4.163   6.439   6.782 -1.5671  1.3740 -1.6354
  478MOL0     H64508   4.022   6.188   6.674 -1.9687 -0.2047 -1.6669
  478MOL0     H64509   3.966   6.357   6.651  1.2601  1.3568 -0.9707
  478MOL0     H64510   3.860   6.238   6.853 -0.0591  0.0804 -3.1341
  478MOL0     H64511   3.933   6.400   6.865 -0.2192 -0.9124  2.0482
  478MOL0     H64512   4.610   6.646   6.168 -0.4195 -1.5369 -2.9373
  478MOL0     H64513   4.778   6.649   6.008 -1.9637 -0.5474  0.6314
  478MOL0     H64514   4.931   6.416   5.591  0.6571  0.0937  0.2322
  478MOL0     H64515   5.088   6.412   5.435 -4.7271 -1.5460  2.2967
  478MOL0     H64516   6.884   6.804   4.677 -0.6547 -1.3692  0.5409
  478MOL0     H64517   7.011   6.800   4.447  0.1624 -0.6399 -0.7347
  478MOL0     H64518   7.365   6.684   4.157 -1.9881  2.0847 -0.4171
  478MOL0     H64519   7.444   6.651   3.920  1.5755 -3.5937  1.6989
  478MOL0     H64520   7.156   6.547   3.567  1.6955 -0.2132 -2.8962
  478MOL0     H64521   7.178   6.702   3.661  1.5831  1.2816 -0.7241
  478MOL0     H64522   7.281   6.731   3.453  0.4846  0.2257  0.0255
  478MOL0     H64523   7.386   6.589   3.472  0.3752  1.7476 -1.1484
  478MOL0     H64524   7.510   6.785   3.516  0.5190 -1.0491  0.5936
  478MOL0     H64525   7.494   6.704   3.668  0.1360 -1.6166 -0.4703
  478MOL0     H64526   7.456   6.941   3.695  0.3331  0.7695 -0.4460
  478MOL0     H64527   7.310   6.843   3.741 -0.9804 -0.7008 -1.2720
  478MOL0     H64528   7.177   7.085   3.410  2.1158  0.6565 -0.4202
  478MOL0     H64529   7.065   6.514   3.815  1.1893 -1.3137 -0.7658
  478MOL0     H64530   6.985   6.539   4.032  0.3024 -3.1123 -0.4670
  479MOL0     O64531   7.336   4.046   4.830  0.1351 -0.0475 -0.0435
  479MOL0     C64532   7.411   3.957   4.793  0.4419  0.4575  0.3037
  479MOL0     O64533   7.389   3.866   4.689  0.9154 -0.1242  0.8145
  479MOL0     C64534   7.270   3.873   4.621 -0.2960 -0.4960 -0.1060
  479MOL0     C64535   7.259   3.857   4.482 -0.4217  0.3390  0.2712
  479MOL0     C64536   7.139   3.877   4.415  0.0413 -0.1222  0.1738
  479MOL0     C64537   7.025   3.909   4.486 -0.1660  0.0872  0.0735
  479MOL0     O64538   6.897   3.931   4.430 -1.0049  0.1366  0.0940
  479MOL0     C64539   6.887   3.940   4.288  0.6894 -0.5230  0.3690
  479MOL0     C64540   6.743   3.947   4.243 -0.7870  0.8420 -0.3260
  479MOL0     C64541   6.660   3.825   4.284 -0.4980 -0.3864 -0.5051
  479MOL0     C64542   6.514   3.854   4.244 -0.2700 -1.1692 -0.4535
  479MOL0     C64543   6.424   3.742   4.278  0.3021  0.7206 -0.6462
  479MOL0     C64544   6.416   3.717   4.431  0.9300  0.1801  0.1757
  479MOL0     C64545   6.301   3.619   4.475  0.2438 -0.5287 -0.7589
  479MOL0     C64546   6.162   3.663   4.425 -0.7012 -1.2826  0.5200
  479MOL0     N64547   6.050   3.593   4.490 -0.4473  0.4265  0.3465
  479MOL0     C64548   5.914   3.626   4.484 -0.1743  0.4790 -1.4862
  479MOL0     C64549   5.850   3.537   4.560  0.6369  0.2916 -1.1132
  479MOL0     C64550   5.703   3.512   4.596  0.1172  0.2358 -0.8302
  479MOL0     C64551   5.641   3.615   4.694  0.1052  0.5792 -1.0904
  479MOL0     C64552   5.725   3.621   4.819 -0.6952 -0.3851  0.1809
  479MOL0     C64553   5.761   3.482   4.878 -0.6481 -0.6280 -0.5135
  479MOL0     O64554   5.818   3.473   5.007 -0.2123 -0.2504 -0.5810
  479MOL0     C64555   5.951   3.458   5.024 -0.4554  1.1261 -0.2724
  479MOL0     C64556   6.052   3.493   4.935 -0.9720  0.1020  0.7498
  479MOL0     C64557   6.186   3.447   4.957 -0.5539 -1.4371  0.7468
  479MOL0     C64558   6.280   3.486   4.845 -1.8176  0.2067 -0.3539
  479MOL0     C64559   6.218   3.375   5.071  0.4160  0.0960  0.0414
  479MOL0     C64560   6.362   3.362   5.113  0.5674 -0.4517 -0.2612
  479MOL0     O64561   6.438   3.481   5.111 -0.8963  0.6516  0.6004
  479MOL0     C64562   6.535   3.484   5.210  0.7679 -0.1020  0.0479
  479MOL0     C64563   6.514   3.460   5.345  0.1594 -0.0758 -0.5509
  479MOL0     C64564   6.619   3.477   5.432 -0.5263 -1.1655  0.0697
  479MOL0     C64565   6.745   3.511   5.393  0.1946 -0.2385 -0.0816
  479MOL0     O64566   6.845   3.524   5.488  0.3057  0.4990 -0.9082
  479MOL0     C64567   6.968   3.593   5.456  0.1027  0.0909 -0.0176
  479MOL0     C64568   7.042   3.620   5.581 -0.1496  0.3882  0.6325
  479MOL0     C64569   7.182   3.675   5.552  1.4565 -0.4302  1.7883
  479MOL0     C64570   7.273   3.556   5.502  0.5603 -0.3973 -0.6570
  479MOL0     C64571   7.419   3.606   5.507  0.8422  0.3347  0.0052
  479MOL0     C64572   7.499   3.518   5.416  0.3800 -0.1363 -1.0173
  479MOL0     C64573   7.628   3.576   5.389 -0.1352  0.0161 -0.8547
  479MOL0     C64574   7.726   3.580   5.519  0.8754  0.7566 -0.4836
  479MOL0    Cl64575   7.899   3.570   5.478  0.3055 -0.6547 -0.2723
  479MOL0     C64576   6.761   3.530   5.256  0.2409  0.0435 -0.1165
  479MOL0     C64577   6.660   3.519   5.167 -0.4723 -0.1308 -0.1148
  479MOL0     O64578   6.403   3.258   5.165  0.7969 -0.4187  0.1313
  479MOL0     C64579   6.117   3.336   5.165 -0.9591  0.5876  0.1885
  479MOL0     C64580   5.983   3.380   5.138  0.5820  0.2543 -0.0009
  479MOL0     N64581   5.944   3.449   4.611 -0.8292  0.9476  0.3653
  479MOL0     N64582   6.058   3.481   4.567  0.5458  0.5304  0.4098
  479MOL0     C64583   7.033   3.916   4.621  0.4749  0.4303 -0.4188
  479MOL0     C64584   7.149   3.891   4.690  0.7377 -0.3217  0.3108
  479MOL0     C64585   7.535   3.936   4.879 -0.1365 -0.4830 -0.5543
  479MOL0     C64586   7.549   3.989   5.012 -0.4528  0.3411 -0.0410
  479MOL0     C64587   7.674   3.978   5.080  0.4017 -0.3521  0.0758
  479MOL0     C64588   7.769   3.891   5.022 -1.1834 -0.4799  0.1874
  479MOL0     O64589   7.866   3.859   5.115  1.1551  0.3375 -0.1017
  479MOL0     C64590   7.976   3.780   5.075  0.6354  0.8973  0.1381
  479MOL0     C64591   8.064   3.854   4.973 -0.8491  0.1675  0.0181
  479MOL0     C64592   8.194   3.777   4.940 -0.1175 -0.6071  0.0935
  479MOL0     C64593   8.289   3.878   4.867  0.1858  0.1933 -0.2059
  479MOL0     C64594   8.408   3.810   4.841 -0.4425  0.0801  0.6867
  479MOL0     C64595   8.508   3.746   4.811  0.6700 -0.4344  1.3258
  479MOL0     C64596   7.759   3.844   4.889  0.1202  0.1413  1.4417
  479MOL0     C64597   7.642   3.867   4.816 -0.4236 -0.0804 -0.0652
  479MOL0     H64598   7.349   3.834   4.426 -2.1592 -0.8008 -2.2516
  479MOL0     H64599   7.135   3.872   4.306 -3.5617 -2.6037  0.2598
  479MOL0     H64600   6.947   4.029   4.266 -0.2347 -0.4073 -1.9179
  479MOL0     H64601   6.940   3.856   4.241 -0.2566 -1.6165  1.2021
  479MOL0     H64602   6.694   4.032   4.293 -0.9390 -1.3436  3.6066
  479MOL0     H64603   6.748   3.954   4.134  1.7545 -1.8404 -0.4917
  479MOL0     H64604   6.690   3.731   4.237 -2.2852 -0.4881 -1.5054
  479MOL0     H64605   6.664   3.826   4.394 -2.6271  0.6458 -0.3944
  479MOL0     H64606   6.487   3.944   4.299  1.6233 -0.9798  0.2412
  479MOL0     H64607   6.513   3.872   4.136 -0.3900  1.3426 -0.0836
  479MOL0     H64608   6.321   3.761   4.249 -0.3478 -2.1746 -0.5448
  479MOL0     H64609   6.457   3.648   4.233 -1.1489 -0.3408  0.4519
  479MOL0     H64610   6.513   3.672   4.451  0.4792 -0.0275  2.0823
  479MOL0     H64611   6.406   3.813   4.484 -0.5379 -0.7197  1.6354
  479MOL0     H64612   6.317   3.516   4.442 -1.3831 -1.0729  0.0617
  479MOL0     H64613   6.299   3.626   4.584  2.0846 -2.0555 -0.5781
  479MOL0     H64614   6.155   3.653   4.316  0.0719 -3.9859  0.6378
  479MOL0     H64615   6.161   3.771   4.442  0.3527 -1.3549  1.1402
  479MOL0     H64616   5.865   3.713   4.440 -2.8499  0.3185  0.8610
  479MOL0     H64617   5.635   3.508   4.510 -1.4914 -1.5861  0.4517
  479MOL0     H64618   5.698   3.412   4.640 -3.2455 -0.4274 -2.3684
  479MOL0     H64619   5.537   3.588   4.713  0.3203  0.5438  0.1383
  479MOL0     H64620   5.641   3.716   4.653 -0.7798  0.7634 -0.6647
  479MOL0     H64621   5.688   3.691   4.895 -0.9601  0.0079 -0.2969
  479MOL0     H64622   5.817   3.667   4.781 -1.6476 -0.0870 -1.9228
  479MOL0     H64623   5.823   3.420   4.812  1.2400 -0.3994  0.9599
  479MOL0     H64624   5.665   3.431   4.879  0.7095 -3.3917  0.9559
  479MOL0     H64625   6.027   3.548   4.845  2.1594 -1.1574 -1.0342
  479MOL0     H64626   6.219   3.489   4.754 -0.1478  1.7222 -1.4701
  479MOL0     H64627   6.320   3.585   4.866 -2.5743  0.3578  0.4223
  479MOL0     H64628   6.362   3.414   4.837  1.2243  3.0115  2.5078
  479MOL0     H64629   6.415   3.438   5.383 -1.0921  1.5989 -2.6048
  479MOL0     H64630   6.604   3.464   5.539  0.2474  0.8741  0.4612
  479MOL0     H64631   7.027   3.523   5.397  0.3219  0.3933 -0.1624
  479MOL0     H64632   6.931   3.677   5.395 -1.9373  1.4235  2.8267
  479MOL0     H64633   6.991   3.687   5.650  1.7191  1.3210  1.1726
  479MOL0     H64634   7.053   3.524   5.631  1.3202 -0.5248 -1.2881
  479MOL0     H64635   7.224   3.709   5.647  1.1697 -2.1656  2.5746
  479MOL0     H64636   7.164   3.756   5.480 -1.8505 -0.9230  1.9256
  479MOL0     H64637   7.262   3.472   5.571  2.3741  0.7641  1.1938
  479MOL0     H64638   7.241   3.529   5.401 -0.4859  3.7022 -1.5913
  479MOL0     H64639   7.458   3.595   5.609 -0.3698  1.0478  0.5653
  479MOL0     H64640   7.425   3.710   5.474  0.6592  0.6091  0.8010
  479MOL0     H64641   7.506   3.421   5.466 -0.9673  2.0826  4.1479
  479MOL0     H64642   7.443   3.487   5.328  0.6108  0.1881 -1.2773
  479MOL0     H64643   7.616   3.679   5.354  2.6339  0.3814 -0.9184
  479MOL0     H64644   7.682   3.519   5.312  1.3783  0.2108  0.0288
  479MOL0     H64645   7.702   3.483   5.563  1.2614 -0.0863 -2.0426
  479MOL0     H64646   7.703   3.663   5.586 -1.6949 -1.9442  2.2717
  479MOL0     H64647   6.862   3.533   5.217  0.3938  4.9769  0.0825
  479MOL0     H64648   6.675   3.529   5.060 -1.0000  2.8650  0.0150
  479MOL0     H64649   6.144   3.274   5.251 -3.5665  0.7089  1.1709
  479MOL0     H64650   5.903   3.344   5.202  0.5717  1.0091  0.4181
  479MOL0     H64651   6.940   3.926   4.677  0.8425  0.9323  0.1093
  479MOL0     H64652   7.138   3.890   4.798  1.1441  2.1720  0.4431
  479MOL0     H64653   7.474   4.040   5.071 -0.3195 -0.9512  1.3104
  479MOL0     H64654   7.677   4.029   5.176  0.6735  1.3114 -0.7771
  479MOL0     H64655   8.037   3.770   5.165  0.5595  0.0465  0.1086
  479MOL0     H64656   7.954   3.679   5.039  0.3124  0.1919  2.1918
  479MOL0     H64657   8.085   3.956   5.005  0.8446  0.0644 -0.6909
  479MOL0     H64658   8.017   3.866   4.874 -3.6928 -2.3324  0.9090
  479MOL0     H64659   8.170   3.688   4.881 -0.1574 -1.2616  1.0688
  479MOL0     H64660   8.239   3.746   5.035  0.5574  2.4321  0.8834
  479MOL0     H64661   8.315   3.970   4.920  1.6829 -1.0903  1.3897
  479MOL0     H64662   8.245   3.910   4.772  1.2510 -2.0039 -1.5139
  479MOL0     H64663   8.587   3.674   4.802  0.6064 -0.5068  1.3495
  479MOL0     H64664   7.830   3.782   4.835 -0.1020  0.4712  0.7642
  479MOL0     H64665   7.633   3.832   4.713 -0.6617  1.6906 -0.6820
  480MOL0     O64666   7.811   3.144   9.000  0.7003  0.0726  0.5482
  480MOL0     C64667   7.923   3.110   8.954 -0.1830 -0.4811  0.3786
  480MOL0     O64668   7.952   3.101   8.825  0.1925  0.4933 -0.1350
  480MOL0     C64669   7.855   3.133   8.734  0.6509 -0.4411 -0.7011
  480MOL0     C64670   7.757   3.044   8.690  0.3827 -0.2068 -0.2065
  480MOL0     C64671   7.660   3.080   8.594 -0.1994 -0.2006 -0.5926
  480MOL0     C64672   7.659   3.209   8.545  0.8273  0.0453 -0.1156
  480MOL0     O64673   7.553   3.233   8.465  1.0290  0.2125  0.5478
  480MOL0     C64674   7.476   3.344   8.491 -0.0126 -0.5328 -0.5111
  480MOL0     C64675   7.340   3.342   8.427  0.2706  0.4777 -0.1637
  480MOL0     C64676   7.245   3.467   8.462  0.6323  0.2891  0.1107
  480MOL0     C64677   7.098   3.445   8.429 -0.9073  0.5809 -0.2232
  480MOL0     C64678   7.016   3.569   8.465 -0.0510  0.4194 -0.0276
  480MOL0     C64679   7.022   3.590   8.613  0.5557  0.0333  0.4221
  480MOL0     C64680   6.899   3.673   8.661  0.1366 -0.7881 -0.5436
  480MOL0     C64681   6.774   3.587   8.662  0.2431 -0.2491 -0.2559
  480MOL0     N64682   6.668   3.643   8.751 -0.6127 -0.1390 -0.1779
  480MOL0     C64683   6.657   3.780   8.787 -0.7200  0.7265 -0.1156
  480MOL0     C64684   6.564   3.781   8.880  1.0564 -0.0576 -0.5419
  480MOL0     C64685   6.492   3.894   8.942  0.1479  0.5221 -0.7580
  480MOL0     C64686   6.571   3.923   9.077 -0.0108 -0.0491  0.2695
  480MOL0     C64687   6.523   4.055   9.148 -0.0085  0.0965  0.2844
  480MOL0     C64688   6.374   4.069   9.163  0.6310  0.5177  0.5428
  480MOL0     O64689   6.355   4.151   9.274 -0.3142  0.2861  0.1653
  480MOL0     C64690   6.223   4.177   9.310 -0.0640 -0.8360 -0.4377
  480MOL0     C64691   6.107   4.143   9.232 -0.6371  0.2294  0.2421
  480MOL0     C64692   5.980   4.159   9.290 -0.2471  0.2431 -0.1170
  480MOL0     C64693   5.868   4.085   9.210 -0.3057 -0.6273  0.1628
  480MOL0     C64694   5.963   4.213   9.425  0.7325  0.6013  1.0489
  480MOL0     C64695   5.830   4.229   9.490 -0.0467  0.2047  0.4460
  480MOL0     O64696   5.831   4.280   9.613  0.2647  0.1235  0.2585
  480MOL0     C64697   5.714   4.312   9.686 -0.4099  0.0566 -0.7420
  480MOL0     C64698   5.708   4.285   9.825  0.4917 -1.3600  0.7441
  480MOL0     C64699   5.587   4.320   9.898  0.4454 -0.1873  1.1823
  480MOL0     C64700   5.477   4.385   9.837  0.1533  0.2592  0.7409
  480MOL0     O64701   5.369   4.419   9.917 -0.0296 -0.0698  0.4229
  480MOL0     C64702   5.309   4.548   9.888 -0.4474 -0.2790 -0.3852
  480MOL0     C64703   5.296   4.628  10.023 -0.3320  0.5654  0.7964
  480MOL0     C64704   5.252   4.771  10.025  0.6783  0.0546  0.5133
  480MOL0     C64705   5.099   4.791  10.040  0.3126 -0.6904  0.5226
  480MOL0     C64706   5.056   4.945  10.059 -0.3494 -0.1823 -0.3358
  480MOL0     C64707   5.132   5.016  10.173 -0.2449  0.1113 -0.3003
  480MOL0     C64708   5.107   5.165  10.165 -0.0432  0.2185 -0.9561
  480MOL0     C64709   5.218   5.252  10.220 -0.0695  0.5497  0.2181
  480MOL0    Cl64710   5.356   5.268  10.095 -0.0080 -0.1906 -0.6786
  480MOL0     C64711   5.494   4.420   9.697 -0.3762 -0.4923 -0.1355
  480MOL0     C64712   5.606   4.368   9.629  0.2971 -0.1238  0.5978
  480MOL0     O64713   5.729   4.200   9.428  0.6156  0.2762  0.1098
  480MOL0     C64714   6.083   4.240   9.495  0.8704 -0.3745  0.9520
  480MOL0     C64715   6.208   4.222   9.441  0.2690  0.0267  0.8531
  480MOL0     N64716   6.517   3.652   8.901  0.0754 -0.3344  0.4457
  480MOL0     N64717   6.581   3.567   8.824  0.3650  0.2405 -0.6852
  480MOL0     C64718   7.757   3.302   8.579  0.2620  0.3830  0.4117
  480MOL0     C64719   7.852   3.264   8.681  0.3842  0.1640 -0.5049
  480MOL0     C64720   8.027   3.070   9.050 -0.2535 -0.2131  0.2558
  480MOL0     C64721   8.003   3.065   9.190  1.2706  0.4278  0.1012
  480MOL0     C64722   8.094   3.009   9.283 -0.0860  0.3286 -0.1969
  480MOL0     C64723   8.221   2.971   9.235 -0.3885 -1.0642  0.2029
  480MOL0     O64724   8.323   2.917   9.316  0.0814 -0.4424 -0.2548
  480MOL0     C64725   8.274   2.816   9.404  0.1010 -0.3803  0.5544
  480MOL0     C64726   8.392   2.719   9.411  0.3750  0.5706  0.5540
  480MOL0     C64727   8.501   2.765   9.504  0.2696  0.7893 -0.5018
  480MOL0     C64728   8.606   2.648   9.503  0.3671  0.3050 -0.3862
  480MOL0     C64729   8.741   2.687   9.541 -0.1449  0.4707  0.6935
  480MOL0     C64730   8.850   2.713   9.577  0.1873 -0.0673 -0.7118
  480MOL0     C64731   8.252   2.978   9.102  0.0835 -0.5159 -0.4636
  480MOL0     C64732   8.155   3.020   9.014  0.6245  0.1573  0.1429
  480MOL0     H64733   7.742   2.949   8.741 -1.2416  0.1045 -0.0503
  480MOL0     H64734   7.577   3.018   8.561 -1.8305  1.0563  0.9094
  480MOL0     H64735   7.449   3.357   8.596  0.3953  1.1366 -0.5835
  480MOL0     H64736   7.528   3.431   8.449  2.3267 -0.1340  2.7700
  480MOL0     H64737   7.364   3.356   8.322 -0.3850 -1.0062 -0.5371
  480MOL0     H64738   7.282   3.254   8.458 -1.4943  1.8338  0.5515
  480MOL0     H64739   7.243   3.479   8.571 -1.8851  1.2387  0.0379
  480MOL0     H64740   7.283   3.562   8.423  1.5176  0.9731  2.4385
  480MOL0     H64741   7.085   3.420   8.323  2.5471  1.2412 -0.9274
  480MOL0     H64742   7.054   3.363   8.487 -1.1226 -0.0193 -1.2193
  480MOL0     H64743   7.056   3.650   8.403  0.0395 -0.7614 -1.5797
  480MOL0     H64744   6.915   3.540   8.431 -0.1550 -3.8818  3.1677
  480MOL0     H64745   7.020   3.496   8.667 -2.7973  0.7722  1.8234
  480MOL0     H64746   7.115   3.646   8.628  2.1874 -2.0254 -1.4157
  480MOL0     H64747   6.917   3.704   8.765 -2.9914  0.5435 -0.2800
  480MOL0     H64748   6.893   3.763   8.599  0.7301 -0.2921  0.0963
  480MOL0     H64749   6.811   3.490   8.697 -0.1532 -1.4311 -2.8668
  480MOL0     H64750   6.728   3.559   8.567 -0.9325 -1.4717  0.6275
  480MOL0     H64751   6.701   3.867   8.740 -2.2060  1.6751  0.2109
  480MOL0     H64752   6.499   3.980   8.875  0.3732  1.7772  0.8007
  480MOL0     H64753   6.386   3.879   8.963  0.3751  0.1815  0.2056
  480MOL0     H64754   6.680   3.931   9.066  0.1506 -1.2424  0.8223
  480MOL0     H64755   6.551   3.833   9.136 -2.8068  0.6143  0.4450
  480MOL0     H64756   6.554   4.139   9.084 -0.6970  0.6364  0.6507
  480MOL0     H64757   6.568   4.077   9.245 -1.3107  1.3483  0.6312
  480MOL0     H64758   6.320   3.975   9.174 -1.0712  1.4857  0.9608
  480MOL0     H64759   6.336   4.120   9.073 -2.7225 -0.8646  1.0350
  480MOL0     H64760   6.121   4.088   9.139 -1.4902 -0.4592  0.5068
  480MOL0     H64761   5.920   4.004   9.157  0.5549 -0.4085  0.6525
  480MOL0     H64762   5.791   4.042   9.275 -0.7500  1.2573  0.9370
  480MOL0     H64763   5.818   4.159   9.147  2.5073  1.5818  0.3133
  480MOL0     H64764   5.792   4.236   9.873  0.2656 -3.4720 -0.8923
  480MOL0     H64765   5.578   4.305  10.005  3.6330 -2.7937  1.2416
  480MOL0     H64766   5.382   4.598   9.823  0.1844  0.3590  0.7810
  480MOL0     H64767   5.210   4.541   9.843 -1.0980  2.0677  0.5417
  480MOL0     H64768   5.222   4.567  10.075 -0.0634  2.0318  3.0518
  480MOL0     H64769   5.392   4.627  10.075  0.9778 -1.5849 -1.4294
  480MOL0     H64770   5.283   4.815   9.930  0.5990  4.5644  2.2989
  480MOL0     H64771   5.313   4.820  10.102  2.9689 -2.3734  0.3698
  480MOL0     H64772   5.055   4.749   9.950  0.0667  2.7198 -1.1182
  480MOL0     H64773   5.054   4.745  10.128 -1.4705  3.4342  2.0327
  480MOL0     H64774   4.951   4.967  10.083  0.3542  2.4605  0.7132
  480MOL0     H64775   5.080   4.991   9.963 -2.0062  1.3709 -0.0760
  480MOL0     H64776   5.109   4.967  10.268 -0.8606 -1.4451 -1.1965
  480MOL0     H64777   5.240   5.005  10.164 -0.3360 -1.3297  0.0551
  480MOL0     H64778   5.007   5.183  10.206  0.6669  0.0862  0.9650
  480MOL0     H64779   5.085   5.195  10.062 -1.3928  0.4355 -0.6255
  480MOL0     H64780   5.258   5.208  10.312  2.4485 -1.8036 -1.8113
  480MOL0     H64781   5.178   5.351  10.243 -2.3215  0.0206 -1.1475
  480MOL0     H64782   5.416   4.461   9.634 -0.3311 -0.5312 -0.2179
  480MOL0     H64783   5.617   4.376   9.521  0.4786  2.5348  0.7436
  480MOL0     H64784   6.088   4.267   9.600  0.7456 -0.0936  0.8867
  480MOL0     H64785   6.291   4.253   9.504 -0.0042  1.1925  0.6572
  480MOL0     H64786   7.754   3.405   8.546 -0.1159  0.8912  1.9508
  480MOL0     H64787   7.914   3.343   8.723 -1.1656  2.1095 -1.7406
  480MOL0     H64788   7.907   3.094   9.232  0.0948 -0.1544 -2.0414
  480MOL0     H64789   8.057   3.019   9.384  0.9131  2.9984 -0.0304
  480MOL0     H64790   8.252   2.849   9.506  3.6802  0.6477  1.1379
  480MOL0     H64791   8.184   2.764   9.370  0.2164  0.4601 -1.0905
  480MOL0     H64792   8.424   2.706   9.307 -2.9362  0.2357 -0.5374
  480MOL0     H64793   8.354   2.617   9.426 -2.8570  0.0077 -7.1313
  480MOL0     H64794   8.464   2.760   9.607  1.6694  0.3826  0.0054
  480MOL0     H64795   8.546   2.861   9.478 -0.2954  0.4864 -2.7926
  480MOL0     H64796   8.605   2.600   9.405 -2.4332 -0.6219  0.0070
  480MOL0     H64797   8.571   2.569   9.570 -1.2104 -2.6711 -4.3638
  480MOL0     H64798   8.945   2.746   9.613 -1.5087  2.3955  1.8357
  480MOL0     H64799   8.352   2.942   9.077  0.8416 -0.0262  1.6536
  480MOL0     H64800   8.185   3.027   8.910  1.3157  0.0916  0.3336
  481MOL0     O64801   7.271   9.848   3.295 -0.1269 -0.1285 -0.2795
  481MOL0     C64802   7.283   9.750   3.364  1.0625 -0.1299  0.3459
  481MOL0     O64803   7.181   9.684   3.424 -0.7134  0.0775 -0.4487
  481MOL0     C64804   7.049   9.711   3.407  0.0530 -0.0771 -1.8156
  481MOL0     C64805   6.990   9.801   3.322  0.1961 -0.8342  0.0041
  481MOL0     C64806   6.852   9.815   3.328 -0.4016  0.1686 -0.1853
  481MOL0     C64807   6.769   9.751   3.420  0.2195  0.7191 -0.5850
  481MOL0     O64808   6.630   9.751   3.429 -0.3201  0.5580 -0.3095
  481MOL0     C64809   6.560   9.823   3.319 -0.4482  0.2893  0.5174
  481MOL0     C64810   6.408   9.813   3.344  0.6908 -0.0780 -1.0029
  481MOL0     C64811   6.317   9.907   3.267  1.4463 -0.3831 -0.3077
  481MOL0     C64812   6.178   9.855   3.277  0.0427  0.5060  0.4476
  481MOL0     C64813   6.088   9.865   3.152  0.1760  1.0757 -1.0345
  481MOL0     C64814   6.115   9.762   3.043 -0.4293 -0.5330 -0.6971
  481MOL0     C64815   5.996   9.760   2.952  0.0599  0.3271  0.2650
  481MOL0     C64816   6.002   9.644   2.852 -0.3579  0.0138 -0.2134
  481MOL0     N64817   5.879   9.632   2.775  0.4172 -0.5058  0.1517
  481MOL0     C64818   5.760   9.566   2.812 -0.1463  0.1034 -0.5433
  481MOL0     C64819   5.676   9.596   2.703  0.3290 -0.0166  0.3205
  481MOL0     C64820   5.530   9.541   2.689  0.2746  0.2713  0.4148
  481MOL0     C64821   5.461   9.530   2.825  0.6718  0.4399  0.1223
  481MOL0     C64822   5.318   9.486   2.803 -0.9172  0.0039 -0.8562
  481MOL0     C64823   5.229   9.615   2.793  0.3159 -0.2602  0.1926
  481MOL0     O64824   5.091   9.592   2.817 -0.1044 -0.3008 -0.5088
  481MOL0     C64825   5.007   9.539   2.722  0.7035  0.5897 -0.1725
  481MOL0     C64826   5.039   9.504   2.588  0.8469 -0.3654  0.0119
  481MOL0     C64827   4.939   9.463   2.501 -0.4771 -0.7231  0.1086
  481MOL0     C64828   4.996   9.413   2.374 -1.1412  0.6851  0.2797
  481MOL0     C64829   4.805   9.463   2.526 -0.3749  0.3010 -0.3785
  481MOL0     C64830   4.698   9.429   2.431  0.7958 -0.2348  0.9817
  481MOL0     O64831   4.568   9.459   2.471 -0.2775 -0.5703  0.5301
  481MOL0     C64832   4.463   9.427   2.395 -0.7391  0.6976 -0.0716
  481MOL0     C64833   4.422   9.494   2.278 -0.0649 -0.1906 -0.2716
  481MOL0     C64834   4.309   9.449   2.216 -0.4460 -0.6406 -0.3525
  481MOL0     C64835   4.226   9.347   2.272 -0.0010  0.1004  0.2938
  481MOL0     O64836   4.106   9.325   2.209 -0.2187 -0.4556 -0.5463
  481MOL0     C64837   4.023   9.221   2.251 -0.5171 -0.7761  0.6176
  481MOL0     C64838   3.909   9.226   2.148 -0.6452 -0.4230 -0.0369
  481MOL0     C64839   3.791   9.148   2.196 -0.3396  0.8477 -0.4206
  481MOL0     C64840   3.674   9.143   2.089 -0.5612  0.4279  0.5054
  481MOL0     C64841   3.567   9.053   2.149  0.1885 -0.8575 -0.1288
  481MOL0     C64842   3.583   8.906   2.128  0.6347 -0.8166  0.3655
  481MOL0     C64843   3.571   8.851   1.983 -0.0387  0.7324 -0.0930
  481MOL0     C64844   3.494   8.721   1.977  0.3425  0.2446  0.8496
  481MOL0    Cl64845   3.317   8.757   1.975 -0.2945 -0.1709  0.2555
  481MOL0     C64846   4.263   9.285   2.384  0.1228 -0.0776 -0.0819
  481MOL0     C64847   4.383   9.324   2.449  0.7281  0.3016  0.4348
  481MOL0     O64848   4.728   9.351   2.344 -0.1471  0.3903  0.1093
  481MOL0     C64849   4.773   9.499   2.657 -1.0722 -0.3381 -0.0346
  481MOL0     C64850   4.871   9.538   2.753 -0.2950  0.1814 -0.2560
  481MOL0     N64851   5.742   9.668   2.611 -0.7456 -0.3021  0.6781
  481MOL0     N64852   5.866   9.682   2.650  0.7275 -0.0899  1.0527
  481MOL0     C64853   6.834   9.659   3.510 -0.2763 -0.3294  0.7608
  481MOL0     C64854   6.972   9.638   3.497  0.2558 -0.3866 -0.4747
  481MOL0     C64855   7.425   9.712   3.390 -0.6858  0.0816  0.6683
  481MOL0     C64856   7.531   9.754   3.300  0.0430  0.2112  0.1917
  481MOL0     C64857   7.657   9.698   3.311  0.5190 -0.2014  0.4452
  481MOL0     C64858   7.687   9.622   3.421  0.5986  0.9252 -0.9565
  481MOL0     O64859   7.810   9.569   3.425 -0.1730  0.2137 -0.2109
  481MOL0     C64860   7.908   9.634   3.508  0.4065  0.3247  0.1967
  481MOL0     C64861   7.952   9.760   3.438  0.2024  0.5573  0.6905
  481MOL0     C64862   8.099   9.789   3.471  0.9817  0.0206 -0.3259
  481MOL0     C64863   8.198   9.683   3.419  0.7056 -0.1277 -0.2446
  481MOL0     C64864   8.336   9.725   3.443 -0.2862  0.0064 -0.5025
  481MOL0     C64865   8.450   9.767   3.464  0.8723 -0.6019  0.4385
  481MOL0     C64866   7.583   9.578   3.504 -0.1242  0.8396  0.1811
  481MOL0     C64867   7.455   9.624   3.490  0.2473  0.5076  0.0724
  481MOL0     H64868   7.044   9.867   3.254  0.0009 -2.8932 -2.2870
  481MOL0     H64869   6.810   9.876   3.249  1.3053 -2.2649 -3.1817
  481MOL0     H64870   6.590   9.928   3.310  2.7527 -0.5366  0.1641
  481MOL0     H64871   6.587   9.780   3.222  2.0715  0.4833  1.0665
  481MOL0     H64872   6.377   9.709   3.328 -0.7207  0.0305  0.7603
  481MOL0     H64873   6.387   9.843   3.447 -1.5247  0.5409 -1.5776
  481MOL0     H64874   6.321  10.010   3.305  0.5368 -0.4849  0.0944
  481MOL0     H64875   6.351   9.906   3.163 -0.1084 -0.4193 -0.8299
  481MOL0     H64876   6.181   9.750   3.310  1.4297  0.4086  0.0607
  481MOL0     H64877   6.131   9.915   3.355 -1.0132 -2.3690  2.2092
  481MOL0     H64878   5.988   9.844   3.190  0.7848 -3.1231 -1.3586
  481MOL0     H64879   6.094   9.962   3.101  0.0600  1.1316 -0.9414
  481MOL0     H64880   6.204   9.797   2.989 -1.1267  2.3655 -0.1469
  481MOL0     H64881   6.141   9.665   3.085  4.0504  0.4689 -0.6330
  481MOL0     H64882   5.910   9.753   3.019 -0.5454 -0.1327 -0.5401
  481MOL0     H64883   5.973   9.846   2.888 -1.0437 -2.2316 -3.0937
  481MOL0     H64884   6.027   9.548   2.897 -1.0384 -0.0076  0.1255
  481MOL0     H64885   6.084   9.670   2.784  0.7236 -0.3911  0.9031
  481MOL0     H64886   5.745   9.501   2.898  1.5266  1.3551  0.7563
  481MOL0     H64887   5.472   9.609   2.626  0.7651 -0.1594 -0.5111
  481MOL0     H64888   5.532   9.441   2.644  2.2261 -0.3963  1.8266
  481MOL0     H64889   5.469   9.624   2.880 -1.1503  0.5007  0.3458
  481MOL0     H64890   5.510   9.459   2.891  0.2878  0.8033  0.8082
  481MOL0     H64891   5.289   9.441   2.899  0.5297  0.3972 -0.2180
  481MOL0     H64892   5.304   9.414   2.723 -3.2400 -1.1874  0.5081
  481MOL0     H64893   5.244   9.633   2.686 -3.2062  0.0040 -0.3571
  481MOL0     H64894   5.257   9.700   2.855 -1.8193  1.2968 -0.8786
  481MOL0     H64895   5.141   9.507   2.551  0.1464 -0.3161 -2.0231
  481MOL0     H64896   4.983   9.306   2.361  1.9701  0.2980 -0.2563
  481MOL0     H64897   4.956   9.458   2.283 -1.2438  3.6108  1.6412
  481MOL0     H64898   5.105   9.414   2.374 -1.1280  0.8718 -1.0135
  481MOL0     H64899   4.498   9.565   2.248  0.4878 -0.7412 -0.1859
  481MOL0     H64900   4.267   9.491   2.126 -3.5557 -0.5259  1.0394
  481MOL0     H64901   4.075   9.125   2.248 -2.8251 -2.0755 -0.3922
  481MOL0     H64902   3.987   9.223   2.354  2.8586 -0.4282  1.9362
  481MOL0     H64903   3.882   9.331   2.132  2.2912  0.5489  0.7414
  481MOL0     H64904   3.946   9.191   2.051  0.1178  1.7453 -0.5738
  481MOL0     H64905   3.754   9.194   2.288 -2.5398  2.2667 -1.8937
  481MOL0     H64906   3.818   9.044   2.216  1.5804  0.6793 -3.2715
  481MOL0     H64907   3.634   9.240   2.059  1.8615  1.8504  1.5743
  481MOL0     H64908   3.699   9.105   1.990  0.7907  0.5560  0.7840
  481MOL0     H64909   3.484   9.086   2.086  0.3850  0.7531  0.4056
  481MOL0     H64910   3.538   9.070   2.253  2.5276 -1.4420  0.6888
  481MOL0     H64911   3.683   8.877   2.162  0.8164  1.3118  1.8606
  481MOL0     H64912   3.503   8.864   2.190  1.0063 -1.7552  0.2225
  481MOL0     H64913   3.671   8.834   1.944  0.1917 -0.6639  1.0346
  481MOL0     H64914   3.526   8.922   1.913  1.3705  0.1482 -1.6586
  481MOL0     H64915   3.503   8.655   2.063  0.4776 -0.7724  0.0661
  481MOL0     H64916   3.507   8.666   1.884  0.2442  0.6783  0.5727
  481MOL0     H64917   4.205   9.198   2.415 -0.3526  0.0471 -0.6032
  481MOL0     H64918   4.412   9.271   2.540  3.6162  1.2011  0.1514
  481MOL0     H64919   4.672   9.510   2.694 -0.0200  3.0511  2.3512
  481MOL0     H64920   4.837   9.565   2.852 -2.1406 -0.6069 -0.6365
  481MOL0     H64921   6.773   9.597   3.575 -3.3905  1.2780 -0.3825
  481MOL0     H64922   7.010   9.572   3.575  1.0834  0.6925  0.0622
  481MOL0     H64923   7.510   9.823   3.218 -2.0331 -0.9515 -0.3105
  481MOL0     H64924   7.742   9.719   3.247  0.9698  0.3207  1.1923
  481MOL0     H64925   7.869   9.665   3.606  1.2773 -0.0556  0.6814
  481MOL0     H64926   7.994   9.566   3.515  2.8713  3.0931 -1.0251
  481MOL0     H64927   7.882   9.841   3.458 -0.7555  0.0509 -0.4364
  481MOL0     H64928   7.948   9.746   3.329  0.8582 -2.2720  0.9290
  481MOL0     H64929   8.108   9.802   3.579  0.3405  0.4633 -0.3224
  481MOL0     H64930   8.114   9.889   3.428 -2.0531  0.2640 -1.0605
  481MOL0     H64931   8.175   9.673   3.312 -2.5196  0.2720  0.3129
  481MOL0     H64932   8.181   9.585   3.466  2.2924  1.0957  3.2020
  481MOL0     H64933   8.550   9.803   3.468 -0.0479  2.0815  1.3560
  481MOL0     H64934   7.604   9.503   3.579 -1.7824  0.5015  0.3448
  481MOL0     H64935   7.371   9.591   3.551  0.4763  0.2644  0.2609
  482MOL0     O64936   6.538   1.835   1.040  0.5629 -0.1538 -0.3951
  482MOL0     C64937   6.589   1.941   1.006  0.2764 -0.7029 -0.8254
  482MOL0     O64938   6.518   2.050   0.958  0.1337 -0.7093  0.2330
  482MOL0     C64939   6.380   2.060   0.965 -0.9987 -0.2471 -0.2400
  482MOL0     C64940   6.328   2.186   0.994 -0.4200 -0.5895  0.0177
  482MOL0     C64941   6.190   2.208   1.006  0.2651 -0.3160 -0.2769
  482MOL0     C64942   6.102   2.096   0.990 -0.0810 -0.7422 -0.3491
  482MOL0     O64943   5.970   2.116   1.012 -0.1811  0.4885 -0.1284
  482MOL0     C64944   5.870   2.026   0.955 -0.3346 -0.6753 -0.5188
  482MOL0     C64945   5.746   2.081   1.000  0.3008  0.3285 -0.7075
  482MOL0     C64946   5.633   1.980   0.962 -0.4457  0.7796  0.0808
  482MOL0     C64947   5.490   2.031   0.976 -0.1386  0.6128  0.0731
  482MOL0     C64948   5.389   1.944   0.909  0.2056  0.4699 -0.2068
  482MOL0     C64949   5.249   1.987   0.946 -0.8098  0.3009 -0.1729
  482MOL0     C64950   5.204   2.100   0.849  0.1307 -0.5369 -0.4333
  482MOL0     C64951   5.060   2.154   0.895 -0.2031 -0.7348 -0.0327
  482MOL0     N64952   4.955   2.053   0.858 -0.3198 -0.3246 -0.6176
  482MOL0     C64953   4.909   2.047   0.729 -0.1027 -1.7525  0.2194
  482MOL0     C64954   4.790   1.984   0.733 -0.2750  0.2935 -0.1764
  482MOL0     C64955   4.696   1.958   0.613  0.1299 -0.1857 -0.2522
  482MOL0     C64956   4.576   1.877   0.654  0.2705 -0.1855 -0.1963
  482MOL0     C64957   4.484   1.863   0.538 -0.8094 -0.3337  0.1628
  482MOL0     C64958   4.366   1.779   0.572  0.0065 -0.0395 -0.1927
  482MOL0     O64959   4.298   1.759   0.443 -0.0250  0.6484 -0.1055
  482MOL0     C64960   4.179   1.691   0.442  0.3005  0.4419 -0.2662
  482MOL0     C64961   4.100   1.652   0.556 -0.1609 -0.1147 -0.3821
  482MOL0     C64962   3.989   1.571   0.543  0.5039 -0.2816  0.2986
  482MOL0     C64963   3.935   1.503   0.665 -0.7080 -0.0795  0.0135
  482MOL0     C64964   3.944   1.543   0.411  0.1024 -0.4605  0.3581
  482MOL0     C64965   3.828   1.452   0.383  0.2101 -0.0293  0.3380
  482MOL0     O64966   3.818   1.404   0.260 -0.3299  1.2130  0.1549
  482MOL0     C64967   3.725   1.307   0.229  0.2582  0.0404  0.2103
  482MOL0     C64968   3.590   1.338   0.228  1.1197 -0.0127  0.1634
  482MOL0     C64969   3.492   1.252   0.179 -0.2174  0.3117 -0.8042
  482MOL0     C64970   3.536   1.126   0.134 -0.3456 -0.3842  0.2645
  482MOL0     O64971   3.450   1.042   0.067  0.8877 -0.6297  1.0686
  482MOL0     C64972   3.327   1.014   0.130  0.4053  0.3225  0.6305
  482MOL0     C64973   3.267   0.889   0.062 -0.5313  0.3864 -0.4269
  482MOL0     C64974   3.116   0.875   0.081  0.8953  0.0270 -0.1851
  482MOL0     C64975   3.072   0.733   0.034 -0.4179 -0.4798 -0.5258
  482MOL0     C64976   2.920   0.704   0.038 -0.2607 -0.7532 -0.1535
  482MOL0     C64977   2.894   0.593  -0.062 -0.9547  0.2878 -0.3442
  482MOL0     C64978   2.745   0.543  -0.045  0.0512  0.4579 -0.3995
  482MOL0     C64979   2.738   0.428  -0.148 -0.2094 -0.0015  0.2254
  482MOL0    Cl64980   2.596   0.324  -0.118 -0.1574  0.3018  0.2105
  482MOL0     C64981   3.673   1.088   0.146  0.7714  0.9889  0.2098
  482MOL0     C64982   3.764   1.181   0.195 -0.2020 -0.9068 -0.2230
  482MOL0     O64983   3.749   1.436   0.477  0.7138  0.2677  0.3540
  482MOL0     C64984   4.016   1.597   0.300 -0.3818 -0.5148  0.2149
  482MOL0     C64985   4.136   1.666   0.314  0.0523  0.6037  0.0939
  482MOL0     N64986   4.776   1.946   0.869  0.3238 -0.0917 -0.2655
  482MOL0     N64987   4.878   1.978   0.938 -0.3275  0.2506  0.0401
  482MOL0     C64988   6.148   1.973   0.975 -0.7078  0.1144  0.3519
  482MOL0     C64989   6.292   1.955   0.968 -1.1396 -0.0930  0.1052
  482MOL0     C64990   6.731   1.946   1.015 -0.3518  0.5098 -0.6020
  482MOL0     C64991   6.797   2.049   0.944  0.1415 -0.0967  0.2048
  482MOL0     C64992   6.939   2.050   0.938 -0.0633  0.1412  0.7590
  482MOL0     C64993   7.019   1.946   0.998  0.3478  0.7872  0.7000
  482MOL0     O64994   7.159   1.957   0.995  0.1691 -0.5653  0.5058
  482MOL0     C64995   7.239   1.894   1.104  1.0671  0.9144  0.7959
  482MOL0     C64996   7.392   1.872   1.069 -0.4121  0.7506 -0.3548
  482MOL0     C64997   7.476   2.006   1.051  0.6100 -0.1062 -0.0062
  482MOL0     C64998   7.605   1.984   0.988  0.4685 -0.3029  0.7291
  482MOL0     C64999   7.600   1.907   0.857  0.2113 -0.2807  0.0701
  482MOL0     C65000   7.591   1.866   0.745 -0.7489  0.0955  0.0864
  482MOL0     C65001   6.953   1.852   1.076 -0.1565 -0.1031  0.1193
  482MOL0     C65002   6.811   1.863   1.092  0.5998  1.3342 -0.2799
  482MOL0     H65003   6.389   2.276   1.001  2.3381 -2.4715  3.9251
  482MOL0     H65004   6.140   2.301   1.031  0.3464 -0.7459  1.6299
  482MOL0     H65005   5.877   2.030   0.846  1.5714 -0.3044 -0.4093
  482MOL0     H65006   5.894   1.929   0.998 -1.2545 -1.2445 -1.2598
  482MOL0     H65007   5.737   2.113   1.104 -0.1391  2.1119 -1.2589
  482MOL0     H65008   5.728   2.167   0.935  3.8817  0.1465 -2.1490
  482MOL0     H65009   5.660   1.949   0.861 -0.5924  1.8473 -0.2954
  482MOL0     H65010   5.655   1.898   1.031  3.3112  3.5467  2.6116
  482MOL0     H65011   5.478   2.033   1.085  0.4257 -0.6597  0.1894
  482MOL0     H65012   5.482   2.130   0.932  2.0854  0.3113 -1.1732
  482MOL0     H65013   5.394   1.948   0.799 -0.4385 -0.5686 -0.2858
  482MOL0     H65014   5.411   1.838   0.928  0.7645  0.2232 -2.0198
  482MOL0     H65015   5.185   1.898   0.935  0.6587 -0.8796  0.4338
  482MOL0     H65016   5.245   2.010   1.053 -0.0282 -0.0227 -0.0672
  482MOL0     H65017   5.268   2.186   0.870 -1.4722  0.8533 -1.0279
  482MOL0     H65018   5.203   2.067   0.745 -0.1824 -0.2606 -0.5185
  482MOL0     H65019   5.026   2.242   0.839 -2.1595 -1.1581  0.4084
  482MOL0     H65020   5.054   2.175   1.002  2.3732  3.3836 -0.4845
  482MOL0     H65021   4.949   2.098   0.642 -3.8470 -1.2953 -1.4028
  482MOL0     H65022   4.674   2.050   0.558  2.9170  2.7562  3.0004
  482MOL0     H65023   4.761   1.897   0.551 -0.7455 -2.0025  0.5459
  482MOL0     H65024   4.516   1.925   0.732  2.2633  1.4749  0.4101
  482MOL0     H65025   4.605   1.777   0.686 -2.4145 -0.4698  1.6134
  482MOL0     H65026   4.541   1.817   0.457 -0.5843  1.4526 -0.7254
  482MOL0     H65027   4.458   1.967   0.516  1.2316  0.1590 -0.0873
  482MOL0     H65028   4.304   1.826   0.649  0.8032 -1.5373  1.4450
  482MOL0     H65029   4.386   1.680   0.614  1.6976 -0.0472 -0.9452
  482MOL0     H65030   4.138   1.670   0.656  0.6831  1.3497 -0.9239
  482MOL0     H65031   3.917   1.395   0.656  3.5296 -0.9445 -0.1890
  482MOL0     H65032   4.018   1.510   0.737  2.8701  0.7866 -3.7764
  482MOL0     H65033   3.845   1.552   0.702  0.1885  0.9888  0.8724
  482MOL0     H65034   3.571   1.434   0.276 -0.3002 -1.4420  2.6188
  482MOL0     H65035   3.388   1.282   0.173 -1.1256 -2.5762 -0.6543
  482MOL0     H65036   3.353   0.991   0.234  0.5999 -1.2592  0.2607
  482MOL0     H65037   3.259   1.099   0.122 -0.3666 -0.1089  2.1539
  482MOL0     H65038   3.301   0.891  -0.042  1.2325 -2.9009 -0.0685
  482MOL0     H65039   3.320   0.804   0.106  0.8051  1.8824  0.9777
  482MOL0     H65040   3.055   0.939   0.016 -1.8628  0.9719  3.0530
  482MOL0     H65041   3.085   0.891   0.184 -1.7276 -0.3159 -0.8382
  482MOL0     H65042   3.112   0.709  -0.065 -1.7662 -2.3788 -0.6635
  482MOL0     H65043   3.117   0.661   0.104  2.9480  0.1458 -1.8710
  482MOL0     H65044   2.865   0.794   0.008  0.3300  0.0021  0.9299
  482MOL0     H65045   2.897   0.683   0.142 -0.3486  1.0669  0.2375
  482MOL0     H65046   2.903   0.631  -0.165 -4.1317 -0.9821 -1.1948
  482MOL0     H65047   2.962   0.511  -0.041 -0.7500  1.0224  2.2457
  482MOL0     H65048   2.669   0.619  -0.067 -0.1163  0.8677  1.4751
  482MOL0     H65049   2.720   0.501   0.053 -1.5931  0.1139 -0.9377
  482MOL0     H65050   2.828   0.367  -0.145  0.2943  0.7426  0.4322
  482MOL0     H65051   2.725   0.479  -0.244  0.1646 -1.6556 -0.7495
  482MOL0     H65052   3.702   0.988   0.115 -0.0082  0.5435  0.8712
  482MOL0     H65053   3.871   1.161   0.188 -0.5888 -2.7232 -1.9369
  482MOL0     H65054   3.994   1.573   0.196  2.4869  4.1879 -1.8582
  482MOL0     H65055   4.203   1.683   0.230  0.0041 -2.6991 -0.7599
  482MOL0     H65056   6.084   1.885   0.969 -0.0890 -0.2601 -1.6488
  482MOL0     H65057   6.329   1.854   0.951  0.8193  0.5663  0.2460
  482MOL0     H65058   6.738   2.121   0.889 -1.6733 -0.1319  1.9781
  482MOL0     H65059   6.997   2.117   0.875  0.2454 -1.1622 -0.4084
  482MOL0     H65060   7.216   1.937   1.202  1.2141 -0.3098  1.3935
  482MOL0     H65061   7.203   1.790   1.101 -0.0477  1.2422  1.7890
  482MOL0     H65062   7.391   1.827   0.969 -1.0108 -0.3147  0.1145
  482MOL0     H65063   7.440   1.807   1.142 -1.1196 -0.6583 -1.0957
  482MOL0     H65064   7.481   2.042   1.155 -3.4085 -1.8630  1.0075
  482MOL0     H65065   7.413   2.078   1.000  0.5600 -0.0201  0.1763
  482MOL0     H65066   7.662   1.917   1.052 -0.3819 -1.5810  0.2030
  482MOL0     H65067   7.663   2.077   0.991  0.7929 -0.5174  1.1423
  482MOL0     H65068   7.588   1.845   0.640 -1.3737  3.8225 -0.7914
  482MOL0     H65069   7.009   1.775   1.128  3.3826  2.6981  0.8531
  482MOL0     H65070   6.766   1.785   1.152  2.9287  1.0658  1.2829
  483MOL0     O65071   1.968   4.708   2.012  0.2101  0.8881 -0.0068
  483MOL0     C65072   1.996   4.753   1.903 -0.3851  0.9957  0.0096
  483MOL0     O65073   1.916   4.746   1.787  0.5584  0.7467 -0.1384
  483MOL0     C65074   1.797   4.673   1.793  0.1930 -0.7523  0.6598
  483MOL0     C65075   1.688   4.728   1.733 -0.1204  0.4588  0.5578
  483MOL0     C65076   1.555   4.667   1.746 -0.1551  0.6244 -0.5856
  483MOL0     C65077   1.543   4.542   1.805  0.2707  0.1122  0.8912
  483MOL0     O65078   1.415   4.497   1.820 -0.2737  0.1749 -0.9934
  483MOL0     C65079   1.395   4.352   1.817  0.8168 -0.6993 -0.3130
  483MOL0     C65080   1.239   4.326   1.796  0.2011 -0.0128  0.0872
  483MOL0     C65081   1.211   4.381   1.660 -0.0558  0.0185 -0.0562
  483MOL0     C65082   1.061   4.352   1.620  0.1089  0.0777 -0.1400
  483MOL0     C65083   1.020   4.417   1.489  0.1685 -0.7217  0.4097
  483MOL0     C65084   0.895   4.360   1.434  0.5318 -0.1937  0.3824
  483MOL0     C65085   0.829   4.455   1.329 -0.1299 -0.0029  0.6434
  483MOL0     C65086   0.725   4.389   1.250  0.2196  0.2891 -0.1794
  483MOL0     N65087   0.641   4.492   1.178 -0.7790  0.3872 -0.1552
  483MOL0     C65088   0.559   4.580   1.235  0.3572  0.2487  0.2295
  483MOL0     C65089   0.512   4.650   1.129 -0.4863 -0.3618 -0.4734
  483MOL0     C65090   0.414   4.767   1.147  0.1697  0.0305 -0.2462
  483MOL0     C65091   0.283   4.709   1.084  0.3678 -0.2533  0.4058
  483MOL0     C65092   0.161   4.796   1.076  0.6986 -0.4033  0.2153
  483MOL0     C65093   0.100   4.848   1.211  0.7718 -0.9168 -0.1343
  483MOL0     O65094  -0.020   4.925   1.194  0.2391 -0.0083 -0.1876
  483MOL0     C65095  -0.143   4.870   1.215  0.8173 -0.4934 -0.5699
  483MOL0     C65096  -0.247   4.890   1.125 -0.5321  0.7304 -0.1577
  483MOL0     C65097  -0.370   4.839   1.144 -0.1032  0.0200 -0.1465
  483MOL0     C65098  -0.459   4.827   1.028 -0.6604 -0.7299  0.5880
  483MOL0     C65099  -0.401   4.783   1.275  0.7778 -0.3877  0.1289
  483MOL0     C65100  -0.547   4.739   1.294 -0.2330 -0.5020  0.0825
  483MOL0     O65101  -0.551   4.615   1.359  0.1379 -0.1252 -0.4466
  483MOL0     C65102  -0.673   4.560   1.389 -0.3066  0.3213 -0.6781
  483MOL0     C65103  -0.675   4.480   1.505  0.6241  0.7108 -0.4070
  483MOL0     C65104  -0.790   4.413   1.535 -0.6102 -0.9954 -0.3211
  483MOL0     C65105  -0.904   4.419   1.448  0.2678  0.7795 -0.3499
  483MOL0     O65106  -1.014   4.344   1.484  0.5420  0.2550  0.9186
  483MOL0     C65107  -1.138   4.367   1.417  0.4767  1.0463  0.2940
  483MOL0     C65108  -1.257   4.281   1.458 -0.9468  0.9881 -0.4930
  483MOL0     C65109  -1.238   4.128   1.430 -0.2562  0.4387 -0.1241
  483MOL0     C65110  -1.336   4.041   1.508  0.4427  0.0058 -0.0027
  483MOL0     C65111  -1.327   3.895   1.450 -0.6582  0.7823  0.2246
  483MOL0     C65112  -1.422   3.873   1.337  0.1438 -0.1343 -0.0037
  483MOL0     C65113  -1.403   3.735   1.268 -0.5625 -0.5686  0.5060
  483MOL0     C65114  -1.423   3.615   1.355  0.2500 -0.1047  0.0142
  483MOL0    Cl65115  -1.480   3.489   1.252  0.0833 -0.6452  0.2583
  483MOL0     C65116  -0.899   4.485   1.323 -0.1672 -0.1473 -0.4983
  483MOL0     C65117  -0.781   4.568   1.300  0.4945  0.7727  0.1855
  483MOL0     O65118  -0.643   4.809   1.270 -0.3211 -0.0748  0.0947
  483MOL0     C65119  -0.303   4.766   1.377  0.3080  0.2776  0.3267
  483MOL0     C65120  -0.172   4.810   1.344  0.4982 -0.5484 -0.0968
  483MOL0     N65121   0.571   4.602   1.013 -0.0175  0.4911 -0.3240
  483MOL0     N65122   0.643   4.504   1.044 -0.4546  0.5785  0.7390
  483MOL0     C65123   1.660   4.484   1.852 -0.2165  0.3358  0.2050
  483MOL0     C65124   1.782   4.547   1.854 -0.0755 -0.1835  0.5328
  483MOL0     C65125   2.118   4.816   1.893 -0.3901 -0.2547  0.4952
  483MOL0     C65126   2.150   4.879   1.770  0.3184 -0.4578 -0.5879
  483MOL0     C65127   2.255   4.968   1.757 -0.1747 -0.3519 -0.8609
  483MOL0     C65128   2.335   5.000   1.873 -0.1997 -0.6212  0.5742
  483MOL0     O65129   2.429   5.096   1.873  0.4500 -0.3958  0.1564
  483MOL0     C65130   2.505   5.120   1.751  0.2991 -0.0112 -0.3090
  483MOL0     C65131   2.579   5.252   1.750  0.6565 -0.6022 -0.3664
  483MOL0     C65132   2.488   5.383   1.730 -0.0093 -0.4296  0.1683
  483MOL0     C65133   2.550   5.518   1.752  0.1928 -0.0844  0.0741
  483MOL0     C65134   2.641   5.542   1.632  0.6693 -0.4639 -1.1120
  483MOL0     C65135   2.700   5.555   1.524  0.0658 -0.7420 -0.4442
  483MOL0     C65136   2.302   4.932   1.994  0.5420 -0.3432  0.0560
  483MOL0     C65137   2.196   4.845   2.004  0.4970  0.1528 -0.4921
  483MOL0     H65138   1.693   4.818   1.672  1.1975  0.3436  0.4545
  483MOL0     H65139   1.466   4.717   1.709 -1.7059  0.1500  2.1860
  483MOL0     H65140   1.449   4.308   1.733  3.1747  2.7640 -0.8030
  483MOL0     H65141   1.428   4.308   1.911 -0.6918 -0.5667  0.3143
  483MOL0     H65142   1.217   4.219   1.798 -0.2277  0.0194 -1.6921
  483MOL0     H65143   1.187   4.379   1.876 -0.2674  0.6756 -0.6597
  483MOL0     H65144   1.226   4.489   1.671 -0.3087 -0.0985  1.8232
  483MOL0     H65145   1.280   4.339   1.586  2.7886  2.0168  1.2440
  483MOL0     H65146   1.049   4.244   1.608 -0.2679  0.0326  0.5746
  483MOL0     H65147   0.995   4.389   1.699 -2.7821 -1.3466 -1.7327
  483MOL0     H65148   0.994   4.520   1.512 -0.0735 -0.1652 -2.1279
  483MOL0     H65149   1.103   4.417   1.418 -0.1622  0.7809 -0.0030
  483MOL0     H65150   0.904   4.258   1.394 -2.0838 -1.4368  2.6604
  483MOL0     H65151   0.827   4.361   1.519 -2.0083 -1.1457 -1.5165
  483MOL0     H65152   0.781   4.544   1.370 -0.7561  0.2974 -0.6707
  483MOL0     H65153   0.911   4.491   1.267  0.4041 -0.7546  0.8956
  483MOL0     H65154   0.651   4.329   1.303  1.4318 -1.5467 -0.4805
  483MOL0     H65155   0.772   4.327   1.173 -1.9061  1.1820 -2.2801
  483MOL0     H65156   0.539   4.589   1.341 -0.0870 -1.5987  0.3201
  483MOL0     H65157   0.404   4.797   1.251  0.3203  1.3844 -0.6136
  483MOL0     H65158   0.454   4.857   1.099 -0.4424  0.2534 -0.3463
  483MOL0     H65159   0.260   4.612   1.130 -1.7202  0.6121  1.3489
  483MOL0     H65160   0.305   4.688   0.979 -2.1083  2.1502 -0.7279
  483MOL0     H65161   0.090   4.739   1.015  3.1281 -2.5185 -0.7851
  483MOL0     H65162   0.175   4.882   1.009 -2.4768 -0.2526 -0.4440
  483MOL0     H65163   0.171   4.913   1.263 -1.2065  0.2496  1.2636
  483MOL0     H65164   0.076   4.766   1.280 -2.4511 -0.5219 -0.6505
  483MOL0     H65165  -0.227   4.946   1.033  0.8525  0.0894 -0.2788
  483MOL0     H65166  -0.524   4.915   1.035 -1.5807 -1.4182  0.8422
  483MOL0     H65167  -0.403   4.850   0.937  0.3380  1.3314  1.6508
  483MOL0     H65168  -0.528   4.742   1.029 -1.3891 -0.1627  1.9508
  483MOL0     H65169  -0.597   4.486   1.580 -1.2899 -0.9833  1.8652
  483MOL0     H65170  -0.799   4.374   1.636  1.7214  2.0586  1.2339
  483MOL0     H65171  -1.164   4.473   1.415  1.9481  1.4449  1.1198
  483MOL0     H65172  -1.109   4.348   1.313  0.3114 -2.3282  0.7580
  483MOL0     H65173  -1.285   4.296   1.563 -1.9337  2.4476 -0.9254
  483MOL0     H65174  -1.344   4.318   1.403  1.8966  3.9354 -3.4865
  483MOL0     H65175  -1.136   4.095   1.450 -0.2425  0.5741  0.0334
  483MOL0     H65176  -1.246   4.110   1.323  0.2317  0.5446 -0.1809
  483MOL0     H65177  -1.314   4.049   1.615  0.2408  1.5170 -0.0520
  483MOL0     H65178  -1.441   4.066   1.493 -0.3341 -2.4339  0.9713
  483MOL0     H65179  -1.349   3.825   1.532 -1.0254  2.0543  1.2337
  483MOL0     H65180  -1.221   3.882   1.424  0.8725  2.0759  4.7903
  483MOL0     H65181  -1.526   3.885   1.368 -0.5758 -4.0475 -0.4484
  483MOL0     H65182  -1.395   3.952   1.266 -0.9716 -1.0709 -1.5342
  483MOL0     H65183  -1.304   3.727   1.221 -0.4672  2.1317  0.0575
  483MOL0     H65184  -1.471   3.724   1.183 -0.9097 -0.7567  0.8074
  483MOL0     H65185  -1.509   3.623   1.423 -2.6252 -3.0671 -2.9241
  483MOL0     H65186  -1.333   3.587   1.411 -1.5809  0.0785  3.3370
  483MOL0     H65187  -0.977   4.490   1.247  0.0730  0.3366 -0.7221
  483MOL0     H65188  -0.761   4.597   1.197  1.3022 -0.3906 -0.0092
  483MOL0     H65189  -0.320   4.716   1.472 -2.0543 -0.2588 -0.3235
  483MOL0     H65190  -0.091   4.811   1.416  0.9287  0.9056 -0.5496
  483MOL0     H65191   1.657   4.396   1.916  1.7012 -2.0357 -2.6941
  483MOL0     H65192   1.868   4.502   1.901  1.0533  1.4760  0.1641
  483MOL0     H65193   2.096   4.862   1.678  1.2777 -0.3563 -1.1744
  483MOL0     H65194   2.282   5.014   1.663  0.4407  2.7042  0.7159
  483MOL0     H65195   2.583   5.043   1.749  1.0197  0.6154  1.5503
  483MOL0     H65196   2.442   5.121   1.662 -0.2090 -0.9165  0.0250
  483MOL0     H65197   2.654   5.256   1.671  2.1548 -0.6450  1.0108
  483MOL0     H65198   2.646   5.259   1.836  1.8325 -1.1636 -1.2186
  483MOL0     H65199   2.413   5.373   1.809  0.7797  1.7656  1.2894
  483MOL0     H65200   2.423   5.386   1.642 -1.5914 -1.2299  1.2747
  483MOL0     H65201   2.607   5.530   1.844 -2.2515 -1.0304  1.8334
  483MOL0     H65202   2.473   5.595   1.764  0.5207  0.2767 -0.1430
  483MOL0     H65203   2.758   5.578   1.437  0.4739  2.4726  0.5653
  483MOL0     H65204   2.348   4.972   2.084  0.8218 -3.2964  1.3144
  483MOL0     H65205   2.160   4.819   2.103 -2.8415 -1.4191 -1.9655
  484MOL0     O65206   1.788  11.227   1.953  0.2593  1.0584  0.1938
  484MOL0     C65207   1.852  11.170   1.860  0.4689  0.0411 -0.6723
  484MOL0     O65208   1.786  11.128   1.749 -0.0289  0.0513 -0.1284
  484MOL0     C65209   1.647  11.132   1.743 -0.4283  0.0738  0.8595
  484MOL0     C65210   1.550  11.087   1.844 -0.9224 -0.1370 -0.0261
  484MOL0     C65211   1.414  11.083   1.820 -0.3724 -0.7325 -0.3778
  484MOL0     C65212   1.364  11.130   1.693 -0.2676  0.1047  0.3766
  484MOL0     O65213   1.231  11.129   1.659  0.3587 -0.0253  0.0752
  484MOL0     C65214   1.128  11.168   1.751  0.2381 -0.2066 -0.3572
  484MOL0     C65215   0.997  11.167   1.680  0.3099  0.0517  0.0918
  484MOL0     C65216   0.869  11.211   1.763  0.0700  0.9026  0.6618
  484MOL0     C65217   0.751  11.176   1.675  0.2665  0.2938 -0.2559
  484MOL0     C65218   0.610  11.216   1.741 -0.4202 -0.9408  0.2623
  484MOL0     C65219   0.493  11.165   1.668  0.2806  0.6148  0.1700
  484MOL0     C65220   0.368  11.210   1.753  0.2052 -0.0349  1.1783
  484MOL0     C65221   0.316  11.349   1.724 -0.6378 -0.5212 -0.2812
  484MOL0     N65222   0.168  11.353   1.752  0.4728 -0.4018 -0.0104
  484MOL0     C65223   0.102  11.418   1.853  0.6468  0.4728 -0.1051
  484MOL0     C65224  -0.030  11.383   1.838  0.2613  0.7188 -0.4795
  484MOL0     C65225  -0.132  11.398   1.947 -0.0712 -0.2111 -0.4711
  484MOL0     C65226  -0.173  11.537   1.968 -0.0494 -0.4266 -0.3778
  484MOL0     C65227  -0.276  11.548   2.086 -0.3032 -0.2910  0.2775
  484MOL0     C65228  -0.275  11.686   2.152 -0.8646 -0.7026  0.1383
  484MOL0     O65229  -0.312  11.683   2.288 -0.4164 -1.0945  0.2041
  484MOL0     C65230  -0.438  11.737   2.311 -0.1563 -0.5489 -0.3853
  484MOL0     C65231  -0.550  11.700   2.240  0.2887  1.1459  0.1338
  484MOL0     C65232  -0.677  11.760   2.271  0.1448 -0.4976 -0.2249
  484MOL0     C65233  -0.797  11.723   2.184 -0.0964 -0.5711 -0.0344
  484MOL0     C65234  -0.688  11.831   2.388  0.2413 -0.1269  0.1535
  484MOL0     C65235  -0.819  11.882   2.430 -0.7692 -0.6528 -0.0209
  484MOL0     O65236  -0.922  11.802   2.406 -0.0190  0.7434  0.4792
  484MOL0     C65237  -1.049  11.854   2.399 -0.0712 -0.1979  0.3561
  484MOL0     C65238  -1.074  11.984   2.350 -0.1000  0.8391 -1.0797
  484MOL0     C65239  -1.199  12.032   2.337  0.1753 -0.0592  0.0332
  484MOL0     C65240  -1.317  11.965   2.377 -0.4028  0.4945  0.6517
  484MOL0     O65241  -1.434  12.023   2.375  0.4142  0.1513 -0.1649
  484MOL0     C65242  -1.479  12.068   2.503  0.2306  0.9614  0.5073
  484MOL0     C65243  -1.610  12.149   2.489 -0.5742  1.2990 -0.7186
  484MOL0     C65244  -1.581  12.284   2.444  0.3474 -0.6701 -0.5005
  484MOL0     C65245  -1.702  12.374   2.406  0.5525 -0.3569 -0.1570
  484MOL0     C65246  -1.769  12.424   2.526  0.5063 -0.3728 -0.5607
  484MOL0     C65247  -1.903  12.503   2.493 -0.8755 -0.6170  0.5928
  484MOL0     C65248  -2.027  12.423   2.464 -0.1274  0.3334  0.2245
  484MOL0     C65249  -2.069  12.321   2.567  0.0894 -0.4140 -0.2577
  484MOL0    Cl65250  -2.101  12.408   2.729  0.2597  0.3059 -0.0096
  484MOL0     C65251  -1.299  11.835   2.428 -0.1392 -0.1259 -0.2120
  484MOL0     C65252  -1.164  11.778   2.427 -0.5557 -0.4017 -0.0706
  484MOL0     O65253  -0.823  11.992   2.491 -0.0877  0.4364  0.1644
  484MOL0     C65254  -0.580  11.848   2.474 -0.0077 -0.4698 -0.5985
  484MOL0     C65255  -0.456  11.811   2.427  0.4001  0.2736  0.1727
  484MOL0     N65256  -0.042  11.295   1.730 -0.5460 -0.5134 -0.4024
  484MOL0     N65257   0.077  11.275   1.683  0.0424  0.0345  1.1210
  484MOL0     C65258   1.463  11.175   1.598  0.4608 -0.1883 -0.2545
  484MOL0     C65259   1.599  11.179   1.619  0.5876 -0.0555  0.0392
  484MOL0     C65260   1.995  11.158   1.864 -0.9009 -0.5148  0.7759
  484MOL0     C65261   2.065  11.085   1.770  0.1152  0.0872 -0.0332
  484MOL0     C65262   2.205  11.083   1.763 -0.0218 -0.0195 -0.7382
  484MOL0     C65263   2.276  11.164   1.849 -0.1254 -0.2087  1.0081
  484MOL0     O65264   2.415  11.181   1.851 -0.4150 -0.5708  0.6215
  484MOL0     C65265   2.488  11.095   1.762  0.9711 -0.4223 -0.2313
  484MOL0     C65266   2.630  11.095   1.819  0.0949  0.0449 -0.4807
  484MOL0     C65267   2.706  11.229   1.789  1.2505  0.1486  0.2165
  484MOL0     C65268   2.850  11.233   1.846 -0.2253 -0.8679  0.4203
  484MOL0     C65269   2.912  11.357   1.789 -0.0633  0.1831 -0.0561
  484MOL0     C65270   2.977  11.460   1.760  0.1918  0.4975  0.0116
  484MOL0     C65271   2.211  11.234   1.955 -0.4709  0.4129 -0.2358
  484MOL0     C65272   2.067  11.231   1.966 -0.0171 -0.4656  0.4726
  484MOL0     H65273   1.596  11.066   1.940 -1.6438  0.0629  0.3665
  484MOL0     H65274   1.345  11.041   1.893 -0.6229  0.5416  0.1388
  484MOL0     H65275   1.116  11.094   1.831 -0.6823  0.4053  0.0974
  484MOL0     H65276   1.156  11.262   1.798 -3.2347  1.0431 -0.5042
  484MOL0     H65277   1.004  11.235   1.595 -0.7201 -0.6717 -0.5882
  484MOL0     H65278   0.978  11.065   1.646 -2.2325 -0.3760  2.4249
  484MOL0     H65279   0.863  11.173   1.866  3.7149 -1.3431  0.2137
  484MOL0     H65280   0.877  11.320   1.768 -0.4560  1.1523 -2.2640
  484MOL0     H65281   0.771  11.218   1.576  2.0045  0.1362  0.0021
  484MOL0     H65282   0.742  11.067   1.666  1.2023  0.2756 -1.1982
  484MOL0     H65283   0.606  11.181   1.845 -0.7224  1.3286  1.0982
  484MOL0     H65284   0.608  11.326   1.747 -0.2372 -0.6069 -3.6048
  484MOL0     H65285   0.476  11.202   1.566  0.9476 -0.4162 -0.3341
  484MOL0     H65286   0.504  11.056   1.656  3.6336  0.9738 -1.0664
  484MOL0     H65287   0.303  11.129   1.721  3.4881 -3.2594  2.0538
  484MOL0     H65288   0.393  11.194   1.858 -0.0183  3.0097  1.8034
  484MOL0     H65289   0.330  11.371   1.618  0.5872 -0.5384 -0.1408
  484MOL0     H65290   0.376  11.418   1.784  1.5515 -2.4399 -0.1254
  484MOL0     H65291   0.133  11.467   1.944 -0.9774  1.1800  0.1013
  484MOL0     H65292  -0.221  11.340   1.923  0.0427 -0.0419 -1.3644
  484MOL0     H65293  -0.089  11.363   2.041 -2.1800  0.6625  0.8868
  484MOL0     H65294  -0.227  11.561   1.876 -0.0224  0.0239 -0.2787
  484MOL0     H65295  -0.083  11.598   1.973 -1.5501  1.9947 -1.3226
  484MOL0     H65296  -0.234  11.478   2.158  0.9333  1.0529  0.9077
  484MOL0     H65297  -0.376  11.513   2.061  0.0915 -0.9758 -0.3940
  484MOL0     H65298  -0.333  11.749   2.083  1.5238  0.9572 -0.5226
  484MOL0     H65299  -0.175  11.730   2.152 -1.2929  0.3410  1.7180
  484MOL0     H65300  -0.547  11.631   2.156  0.0726  2.1790 -0.7490
  484MOL0     H65301  -0.851  11.638   2.226  1.2199 -1.3281  0.1593
  484MOL0     H65302  -0.850  11.819   2.178  0.9358  0.0020 -0.2779
  484MOL0     H65303  -0.766  11.699   2.082  1.3563  0.6886  0.0825
  484MOL0     H65304  -0.993  12.052   2.328  0.4859  0.7196  0.6178
  484MOL0     H65305  -1.206  12.138   2.314 -2.2232 -0.3343 -0.8044
  484MOL0     H65306  -1.496  11.985   2.572 -1.5599  1.5843  0.8914
  484MOL0     H65307  -1.409  12.141   2.545  1.4319  0.3062 -0.3303
  484MOL0     H65308  -1.678  12.091   2.425  0.3306  0.1737 -0.7096
  484MOL0     H65309  -1.660  12.163   2.585  0.0632  0.8960 -0.3206
  484MOL0     H65310  -1.511  12.287   2.360  0.8521 -4.1910 -0.3396
  484MOL0     H65311  -1.533  12.334   2.529 -0.3362 -0.6739 -0.1022
  484MOL0     H65312  -1.675  12.463   2.348  1.0724  0.9626  1.9918
  484MOL0     H65313  -1.766  12.316   2.338  0.2442 -0.7299  0.4442
  484MOL0     H65314  -1.702  12.485   2.588 -0.9196 -0.7182  1.4273
  484MOL0     H65315  -1.798  12.339   2.587  1.2471 -0.4793 -0.3517
  484MOL0     H65316  -1.929  12.570   2.576 -1.3447  0.5387 -0.4510
  484MOL0     H65317  -1.894  12.564   2.403 -2.9421  1.1814  1.5001
  484MOL0     H65318  -2.002  12.369   2.372  1.2702  0.2326  0.6475
  484MOL0     H65319  -2.109  12.495   2.454 -0.7710 -0.3990  0.1464
  484MOL0     H65320  -1.988  12.248   2.580  1.2238  0.8764  0.1467
  484MOL0     H65321  -2.158  12.267   2.533 -0.8282  0.6298  0.4156
  484MOL0     H65322  -1.384  11.778   2.462 -2.2333  1.2849 -2.7159
  484MOL0     H65323  -1.154  11.675   2.460  1.4502 -0.6580 -1.3012
  484MOL0     H65324  -0.587  11.900   2.569  0.5453 -2.4984  0.6150
  484MOL0     H65325  -0.364  11.835   2.479 -0.9535  1.1547  2.2592
  484MOL0     H65326   1.422  11.201   1.501 -0.3253 -2.8011 -0.7230
  484MOL0     H65327   1.667  11.202   1.537 -0.5381 -0.6494 -1.0934
  484MOL0     H65328   2.017  11.028   1.692  1.6962 -0.5517 -0.5648
  484MOL0     H65329   2.250  11.017   1.690 -0.0954 -0.1005 -0.7120
  484MOL0     H65330   2.448  10.994   1.777 -3.4742  1.2260  0.7393
  484MOL0     H65331   2.499  11.123   1.657 -1.9684 -1.6090 -0.9668
  484MOL0     H65332   2.675  11.011   1.764 -1.8696 -1.5965  0.2997
  484MOL0     H65333   2.631  11.081   1.927  0.6018  0.2725 -0.4532
  484MOL0     H65334   2.645  11.311   1.829 -0.5393 -0.5565 -0.9894
  484MOL0     H65335   2.703  11.254   1.683  1.1204  3.3183  0.8718
  484MOL0     H65336   2.918  11.155   1.813  3.1292  1.7865  0.5703
  484MOL0     H65337   2.841  11.234   1.955  0.2364  3.2262  0.5677
  484MOL0     H65338   3.021  11.547   1.716  0.2109 -0.2361 -1.5069
  484MOL0     H65339   2.276  11.302   2.010  0.7095 -1.3451  0.6236
  484MOL0     H65340   2.025  11.301   2.036  3.2541  2.2560 -0.0476
  485MOL0     O65341   6.084   5.975   0.310 -0.4095  0.5192  0.2187
  485MOL0     C65342   6.077   6.098   0.300 -0.1358 -0.5415 -0.1165
  485MOL0     O65343   5.968   6.166   0.321 -0.4388  0.5354  0.9580
  485MOL0     C65344   5.850   6.113   0.370 -0.2448  0.5339 -0.2135
  485MOL0     C65345   5.777   6.176   0.475  0.1315 -0.0330  0.1494
  485MOL0     C65346   5.654   6.132   0.523 -0.6807  0.7226  0.3971
  485MOL0     C65347   5.595   6.024   0.468 -0.6249  0.4856 -0.5088
  485MOL0     O65348   5.475   5.980   0.526  0.1608 -0.9993  0.7115
  485MOL0     C65349   5.411   5.862   0.470  0.1671  0.4673  0.0808
  485MOL0     C65350   5.327   5.904   0.336 -0.7871  0.3058  0.5582
  485MOL0     C65351   5.189   5.980   0.365 -0.9262  0.3171  0.6164
  485MOL0     C65352   5.079   5.889   0.418 -0.9913 -0.2999  0.3040
  485MOL0     C65353   4.975   5.972   0.491 -0.3457 -0.0504  1.0011
  485MOL0     C65354   4.869   5.887   0.546  0.0692  0.3153 -0.6322
  485MOL0     C65355   4.777   5.967   0.640 -0.6168 -0.3229  0.2054
  485MOL0     C65356   4.687   6.071   0.560  0.1917 -0.3236 -0.5559
  485MOL0     N65357   4.554   6.028   0.542  0.0504 -0.5098  0.4148
  485MOL0     C65358   4.452   6.070   0.617 -0.0630 -0.4423  0.5005
  485MOL0     C65359   4.343   6.011   0.558 -0.3311  0.0987  0.0653
  485MOL0     C65360   4.201   6.031   0.594  0.3623  0.5130  0.1365
  485MOL0     C65361   4.132   6.084   0.463  0.0330 -0.4492  0.8307
  485MOL0     C65362   3.992   6.140   0.508  0.5435 -0.1850 -0.0548
  485MOL0     C65363   3.888   6.046   0.568 -0.5890 -0.1045  1.2420
  485MOL0     O65364   3.854   5.938   0.473 -0.4809 -0.6331  0.2359
  485MOL0     C65365   3.729   5.941   0.431 -0.1261  0.6039  0.3232
  485MOL0     C65366   3.700   5.962   0.294 -0.2430 -0.1165  0.1004
  485MOL0     C65367   3.573   5.990   0.236 -0.1739  1.0451 -0.0154
  485MOL0     C65368   3.577   6.006   0.094  0.0269 -0.0709  0.9142
  485MOL0     C65369   3.457   5.981   0.319 -0.4075  0.3192  0.5137
  485MOL0     C65370   3.310   5.974   0.269  0.1024 -0.6186 -1.2662
  485MOL0     O65371   3.220   5.978   0.371  0.5265 -0.2485 -0.7425
  485MOL0     C65372   3.086   5.954   0.352  0.7542 -0.6975  0.0396
  485MOL0     C65373   2.992   6.020   0.437  0.1712 -0.6991  0.1197
  485MOL0     C65374   2.855   6.007   0.428 -0.8358  0.3090 -0.1006
  485MOL0     C65375   2.804   5.930   0.333 -1.1793 -0.2112 -0.3015
  485MOL0     O65376   2.669   5.915   0.336  0.2485 -0.5320  0.0909
  485MOL0     C65377   2.592   5.908   0.219 -0.1127  0.0050 -0.3153
  485MOL0     C65378   2.452   5.977   0.252 -0.5780  0.2716 -1.1213
  485MOL0     C65379   2.388   5.883   0.352  0.4981  0.7575 -0.5435
  485MOL0     C65380   2.271   5.966   0.395  0.7223  0.0016  0.1243
  485MOL0     C65381   2.184   5.895   0.504  0.3006 -0.1892  0.1942
  485MOL0     C65382   2.051   5.965   0.527  0.8043 -0.5176 -0.5095
  485MOL0     C65383   1.949   5.880   0.606  0.0111  0.2744  0.5519
  485MOL0     C65384   1.806   5.935   0.566 -0.2042 -0.3232 -0.6515
  485MOL0    Cl65385   1.773   6.082   0.669  0.4052  0.0075  0.2272
  485MOL0     C65386   2.886   5.863   0.248 -0.2081  1.0411  0.0190
  485MOL0     C65387   3.022   5.864   0.263 -0.3524 -0.9761  0.5449
  485MOL0     O65388   3.291   5.962   0.151  0.8976  0.4337  0.6179
  485MOL0     C65389   3.485   5.958   0.449 -0.7629  0.4764  0.2243
  485MOL0     C65390   3.617   5.939   0.505  0.2837 -0.3769 -0.3752
  485MOL0     N65391   4.385   5.936   0.446  0.1336 -0.5374  0.5611
  485MOL0     N65392   4.514   5.948   0.436  0.4834  0.2430  0.1908
  485MOL0     C65393   5.653   5.969   0.351  0.3385  0.3395  0.7525
  485MOL0     C65394   5.786   6.002   0.313  0.4564  0.0863  0.1619
  485MOL0     C65395   6.195   6.176   0.268  0.0124  0.0875 -0.3611
  485MOL0     C65396   6.191   6.305   0.216 -0.0004 -0.8114 -0.9819
  485MOL0     C65397   6.305   6.383   0.205  0.1967 -0.1663  0.1996
  485MOL0     C65398   6.430   6.335   0.228 -1.4302  0.0791 -0.4725
  485MOL0     O65399   6.526   6.421   0.180  0.1775 -0.4123  0.3657
  485MOL0     C65400   6.659   6.382   0.207  0.3742 -0.1174  0.5278
  485MOL0     C65401   6.739   6.507   0.153  0.3461 -0.0881  0.0057
  485MOL0     C65402   6.698   6.643   0.213 -0.0346  0.0666 -0.6852
  485MOL0     C65403   6.694   6.644   0.372  0.0776  0.2226 -0.4084
  485MOL0     C65404   6.825   6.609   0.439  0.5449 -0.1666 -1.2328
  485MOL0     C65405   6.928   6.584   0.500  0.3434  0.8929 -0.3593
  485MOL0     C65406   6.435   6.199   0.266  0.6857  1.2896 -0.0367
  485MOL0     C65407   6.316   6.129   0.300 -0.7826 -0.2212 -0.3233
  485MOL0     H65408   5.818   6.265   0.522 -0.1004  0.7312 -1.0570
  485MOL0     H65409   5.595   6.179   0.602 -2.5490  1.9620 -1.6391
  485MOL0     H65410   5.483   5.785   0.440  1.8700  2.5850 -1.6250
  485MOL0     H65411   5.344   5.819   0.545  1.7069  0.0777  1.2643
  485MOL0     H65412   5.386   5.969   0.270  0.1168 -1.0567 -0.0214
  485MOL0     H65413   5.312   5.811   0.280  2.5338  1.9675 -3.7181
  485MOL0     H65414   5.218   6.063   0.430 -2.2029  1.1586  0.1388
  485MOL0     H65415   5.147   6.028   0.276 -0.4259  0.7530  0.6075
  485MOL0     H65416   5.039   5.831   0.334 -0.4359 -0.4749  0.1530
  485MOL0     H65417   5.129   5.825   0.490  1.4854  0.6686 -0.4555
  485MOL0     H65418   5.030   6.024   0.569  1.4648 -0.0598 -0.2185
  485MOL0     H65419   4.937   6.047   0.421  0.2963 -0.4832  0.1619
  485MOL0     H65420   4.810   5.832   0.473  1.4206 -3.6283  0.9778
  485MOL0     H65421   4.914   5.810   0.610  1.5413  1.8659  0.2869
  485MOL0     H65422   4.713   5.897   0.695  1.0991 -1.0464  1.3948
  485MOL0     H65423   4.843   6.007   0.718  0.5042 -2.2230  0.3063
  485MOL0     H65424   4.737   6.100   0.467 -0.5116 -0.7891 -1.0887
  485MOL0     H65425   4.682   6.165   0.617  2.0821 -1.9633  2.5801
  485MOL0     H65426   4.460   6.136   0.703 -0.0428 -1.4289  1.2717
  485MOL0     H65427   4.154   5.940   0.633  1.9723 -0.9330 -1.1081
  485MOL0     H65428   4.198   6.110   0.669  2.3954  0.3148  0.4801
  485MOL0     H65429   4.128   5.999   0.395  3.0889 -1.4401  1.7345
  485MOL0     H65430   4.191   6.160   0.412 -0.9508  1.1886  2.0345
  485MOL0     H65431   3.952   6.209   0.434 -0.0032  0.9694  1.2722
  485MOL0     H65432   4.011   6.200   0.597  0.4558 -2.3324  1.5071
  485MOL0     H65433   3.798   6.107   0.582 -0.8957 -0.1048 -0.4966
  485MOL0     H65434   3.929   6.010   0.663  3.4707  1.8401  0.4387
  485MOL0     H65435   3.787   5.964   0.229 -1.4796 -0.5921 -1.6383
  485MOL0     H65436   3.669   6.056   0.064  0.6360 -1.8652 -0.3887
  485MOL0     H65437   3.565   5.915   0.035  1.6076  0.8528 -0.9287
  485MOL0     H65438   3.500   6.076   0.060  0.9433  0.8819  0.7614
  485MOL0     H65439   3.029   6.076   0.523 -0.4983 -0.5007  0.2814
  485MOL0     H65440   2.805   6.057   0.510 -0.1684  1.2976 -0.2756
  485MOL0     H65441   2.644   5.959   0.137  1.3735  1.7283  1.5920
  485MOL0     H65442   2.576   5.802   0.196 -1.0516  0.1686 -0.4682
  485MOL0     H65443   2.468   6.076   0.295  2.2075 -0.8112  0.6130
  485MOL0     H65444   2.391   5.994   0.163 -1.0561  2.1295 -0.4833
  485MOL0     H65445   2.455   5.871   0.437  1.6097  0.3409 -1.4385
  485MOL0     H65446   2.355   5.786   0.311 -1.6217  0.3637  1.8447
  485MOL0     H65447   2.304   6.063   0.435 -1.1221  0.1073  1.5111
  485MOL0     H65448   2.209   5.997   0.310  1.4297 -0.7327 -0.6756
  485MOL0     H65449   2.228   5.881   0.602 -1.7619  0.0677  1.2189
  485MOL0     H65450   2.170   5.795   0.459  1.3786  0.0377 -0.6892
  485MOL0     H65451   2.070   6.056   0.585 -0.0105 -1.2154  0.8884
  485MOL0     H65452   2.006   6.000   0.433  0.3226  0.7510  0.1651
  485MOL0     H65453   1.953   5.873   0.715 -0.1015  0.8310  0.5974
  485MOL0     H65454   1.950   5.779   0.564 -1.5461  1.5820 -3.0975
  485MOL0     H65455   1.735   5.853   0.580 -0.3307  0.1522  2.2990
  485MOL0     H65456   1.803   5.956   0.459 -0.8186 -0.3126 -0.6353
  485MOL0     H65457   2.843   5.800   0.171  3.2639  1.0093 -2.1427
  485MOL0     H65458   3.102   5.815   0.208 -0.9187 -1.9584  0.5833
  485MOL0     H65459   3.405   5.942   0.521 -1.4998  2.0583 -0.2015
  485MOL0     H65460   3.626   5.920   0.611 -4.1377  0.6661  0.3775
  485MOL0     H65461   5.613   5.880   0.303  1.3211 -0.0922  0.7038
  485MOL0     H65462   5.838   5.953   0.232  3.6783  2.0894  0.8520
  485MOL0     H65463   6.099   6.353   0.184 -0.5102 -2.0441 -1.4540
  485MOL0     H65464   6.294   6.487   0.174  1.5115  0.6271  2.2283
  485MOL0     H65465   6.688   6.365   0.311  0.4603 -1.2635  0.3271
  485MOL0     H65466   6.688   6.296   0.147  1.2606  1.5196 -1.4951
  485MOL0     H65467   6.712   6.522   0.048 -1.1344  1.3056  0.5467
  485MOL0     H65468   6.846   6.488   0.163  0.0018 -1.5332  1.3396
  485MOL0     H65469   6.607   6.687   0.171 -0.0547  1.4630  0.7053
  485MOL0     H65470   6.781   6.712   0.194 -0.9027  0.5899 -2.7863
  485MOL0     H65471   6.613   6.582   0.411 -0.3711  1.9669  1.6404
  485MOL0     H65472   6.671   6.749   0.389 -0.1903  0.1015  0.0083
  485MOL0     H65473   7.014   6.557   0.558 -0.4979  1.9044  1.4549
  485MOL0     H65474   6.524   6.138   0.268 -0.4488 -0.4300  2.6304
  485MOL0     H65475   6.325   6.026   0.332  0.5709  0.0421  0.2028
  486MOL0     O65476   9.949   3.371   6.032  0.4302 -0.5393  0.2631
  486MOL0     C65477   9.974   3.250   6.021  0.1283  0.3206  0.1110
  486MOL0     O65478   9.890   3.150   5.981  0.1342 -0.3225  0.2049
  486MOL0     C65479   9.761   3.180   5.961  1.4384  0.8314  0.5143
  486MOL0     C65480   9.664   3.188   6.060  0.4480  0.3465 -0.5079
  486MOL0     C65481   9.526   3.209   6.036  0.1959 -0.7294  0.8263
  486MOL0     C65482   9.478   3.227   5.898 -0.2134 -0.1137 -0.3591
  486MOL0     O65483   9.348   3.253   5.873 -0.6254 -0.0292  0.6366
  486MOL0     C65484   9.315   3.333   5.760 -0.2656 -0.3120 -0.2359
  486MOL0     C65485   9.196   3.423   5.802 -1.1285 -0.1615 -1.1589
  486MOL0     C65486   9.073   3.350   5.753  0.2755  0.8079 -0.3285
  486MOL0     C65487   8.949   3.409   5.821  0.8498 -0.7648  0.4516
  486MOL0     C65488   8.883   3.524   5.740 -0.3724 -1.0206  0.4421
  486MOL0     C65489   8.761   3.563   5.814 -0.3831  0.3261  0.8045
  486MOL0     C65490   8.687   3.655   5.712  0.2766 -0.1076 -0.9615
  486MOL0     C65491   8.560   3.716   5.761 -0.1206 -0.6419 -0.8008
  486MOL0     N65492   8.448   3.626   5.753 -0.0503  0.2004 -0.5062
  486MOL0     C65493   8.326   3.663   5.787 -0.1324 -0.2099  1.5089
  486MOL0     C65494   8.251   3.546   5.778 -1.0304 -0.0924  0.3427
  486MOL0     C65495   8.108   3.523   5.808  0.4324 -0.0871 -0.3260
  486MOL0     C65496   8.029   3.643   5.856  0.6609 -0.5760 -0.9855
  486MOL0     C65497   7.988   3.734   5.738 -0.1086  0.0231  0.3235
  486MOL0     C65498   7.978   3.880   5.786 -0.0234 -0.0697  0.7100
  486MOL0     O65499   7.871   3.894   5.887 -0.0134 -0.2155 -0.1436
  486MOL0     C65500   7.747   3.918   5.843  0.4921 -0.5118  0.3403
  486MOL0     C65501   7.717   3.938   5.707  0.5042  0.4565 -0.1216
  486MOL0     C65502   7.587   3.960   5.654 -0.1498  0.1339  0.6501
  486MOL0     C65503   7.570   3.985   5.502  0.5275 -0.9144  0.6151
  486MOL0     C65504   7.486   3.980   5.747  0.0070  0.2017 -0.0439
  486MOL0     C65505   7.348   4.031   5.708 -0.7476 -0.3782 -0.2347
  486MOL0     O65506   7.245   3.986   5.786  0.5388  0.2148 -0.0120
  486MOL0     C65507   7.116   3.999   5.757 -0.4083 -0.7989 -0.5936
  486MOL0     C65508   7.033   4.039   5.860  0.0420  0.4207  0.7461
  486MOL0     C65509   6.894   4.048   5.834 -0.1985  0.8860 -0.2490
  486MOL0     C65510   6.837   4.022   5.712 -0.1018  0.4155  0.5789
  486MOL0     O65511   6.705   4.044   5.690 -0.8089  0.4890 -0.6250
  486MOL0     C65512   6.653   3.996   5.571 -0.0161  0.6980 -0.0311
  486MOL0     C65513   6.504   4.001   5.585 -0.1844  0.1538  0.4825
  486MOL0     C65514   6.444   3.922   5.467  0.3474  0.0244 -0.4874
  486MOL0     C65515   6.294   3.904   5.482 -0.3404 -0.7437  0.6983
  486MOL0     C65516   6.238   3.794   5.390 -0.2788 -0.9280  0.5825
  486MOL0     C65517   6.092   3.822   5.355 -0.6010 -0.1475  0.1085
  486MOL0     C65518   6.038   3.703   5.277 -0.5645  0.2636 -0.1237
  486MOL0     C65519   5.892   3.725   5.238 -0.4515  0.2897  0.5370
  486MOL0    Cl65520   5.874   3.843   5.106 -0.2367  0.2087  0.2141
  486MOL0     C65521   6.927   3.987   5.614  0.7555 -0.1410  0.7351
  486MOL0     C65522   7.064   3.979   5.629 -0.7108 -0.2144  0.3029
  486MOL0     O65523   7.344   4.116   5.618  0.2185  0.2934 -0.1464
  486MOL0     C65524   7.515   3.965   5.887 -0.5104 -0.5981 -0.2200
  486MOL0     C65525   7.640   3.925   5.933 -0.0721 -0.0555 -0.0481
  486MOL0     N65526   8.336   3.443   5.736  0.1173 -0.1418  0.3712
  486MOL0     N65527   8.453   3.486   5.730 -0.2729  0.1922 -0.5133
  486MOL0     C65528   9.574   3.208   5.801 -0.0506 -0.3092 -0.1564
  486MOL0     C65529   9.712   3.182   5.828 -0.3660  0.3485 -0.0141
  486MOL0     C65530  10.115   3.217   6.063  0.5259 -0.1463  0.3544
  486MOL0     C65531  10.193   3.312   6.133 -0.1130  0.2224  0.0574
  486MOL0     C65532  10.328   3.277   6.176  0.8297 -0.4043  0.2006
  486MOL0     C65533  10.383   3.150   6.151  0.0734  0.4823  0.0284
  486MOL0     O65534  10.509   3.103   6.182 -0.1817  0.7833  0.7034
  486MOL0     C65535  10.627   3.188   6.153  0.4993  0.3529 -0.4721
  486MOL0     C65536  10.702   3.137   6.033 -0.4540  0.2016  0.3804
  486MOL0     C65537  10.731   2.987   6.052  0.0882  0.0662  0.2472
  486MOL0     C65538  10.808   2.932   5.931 -0.1176  0.2476 -0.7832
  486MOL0     C65539  10.940   2.997   5.897 -0.8286 -0.1465  0.3276
  486MOL0     C65540  11.046   3.035   5.878  0.2535 -0.7123  0.4020
  486MOL0     C65541  10.296   3.056   6.087  0.1784 -0.0575  1.4078
  486MOL0     C65542  10.164   3.088   6.045  0.4199 -0.2516  0.6886
  486MOL0     H65543   9.687   3.175   6.166  0.8111  2.8518 -0.2088
  486MOL0     H65544   9.452   3.229   6.113  0.7082 -0.9690  1.3808
  486MOL0     H65545   9.394   3.403   5.731 -2.3007  2.3728  0.2250
  486MOL0     H65546   9.294   3.271   5.673 -2.8950 -0.5077  0.4664
  486MOL0     H65547   9.193   3.438   5.910  1.3129 -0.5634 -0.9657
  486MOL0     H65548   9.202   3.520   5.752  0.6726  1.2187  1.5480
  486MOL0     H65549   9.071   3.371   5.645  0.4757  1.7918 -0.1516
  486MOL0     H65550   9.083   3.244   5.779 -0.8551  0.3864 -1.4778
  486MOL0     H65551   8.874   3.330   5.828  0.1429 -0.0500  1.1103
  486MOL0     H65552   8.976   3.450   5.918 -0.9970  1.1463  0.2245
  486MOL0     H65553   8.945   3.614   5.740 -1.1699 -0.3481  3.4249
  486MOL0     H65554   8.852   3.495   5.639  0.9453 -0.7223 -0.0607
  486MOL0     H65555   8.702   3.472   5.828 -1.7433  0.9141 -0.7382
  486MOL0     H65556   8.783   3.605   5.912  0.7265 -1.8705  1.5686
  486MOL0     H65557   8.747   3.742   5.686 -1.2672  0.9174 -1.1890
  486MOL0     H65558   8.650   3.602   5.624 -0.0279 -3.2392  0.9097
  486MOL0     H65559   8.536   3.807   5.705 -0.3080 -1.1086 -1.4846
  486MOL0     H65560   8.565   3.744   5.867  1.4493  0.5483 -1.1440
  486MOL0     H65561   8.283   3.758   5.816 -2.0423 -0.2319 -0.8934
  486MOL0     H65562   8.071   3.486   5.712 -2.1314  1.8581 -0.2161
  486MOL0     H65563   8.092   3.447   5.886  0.0115 -1.4892 -1.7390
  486MOL0     H65564   8.099   3.701   5.917 -0.2605 -1.7570  1.2891
  486MOL0     H65565   7.943   3.608   5.914 -0.9637 -1.3670 -3.6792
  486MOL0     H65566   7.895   3.695   5.696 -1.3281  1.4432  1.5775
  486MOL0     H65567   8.069   3.736   5.664 -0.7129  1.5138 -0.3203
  486MOL0     H65568   7.986   3.955   5.708  1.5460 -3.4229 -2.6673
  486MOL0     H65569   8.074   3.903   5.833 -0.2141  3.5624 -0.4410
  486MOL0     H65570   7.805   3.941   5.643  0.6250  2.3438  0.0861
  486MOL0     H65571   7.651   3.945   5.440  1.0541 -0.9848  1.3344
  486MOL0     H65572   7.480   3.945   5.454  0.4659  0.6868 -0.7138
  486MOL0     H65573   7.584   4.093   5.488  0.1684 -0.8489  0.7606
  486MOL0     H65574   7.082   4.057   5.955  1.7589  1.4275 -0.2692
  486MOL0     H65575   6.838   4.100   5.911 -2.8810  0.2811 -1.6574
  486MOL0     H65576   6.689   4.051   5.483  0.7897 -0.0636 -0.1875
  486MOL0     H65577   6.691   3.895   5.553 -0.4558  0.6073 -0.4579
  486MOL0     H65578   6.473   3.961   5.682 -2.1176  2.0918  0.7343
  486MOL0     H65579   6.467   4.103   5.577 -0.2033  0.0944 -0.3179
  486MOL0     H65580   6.498   3.828   5.450 -0.4836 -0.5237 -0.1409
  486MOL0     H65581   6.466   3.988   5.382  2.8750  0.6687  0.5913
  486MOL0     H65582   6.269   3.879   5.586  0.4545 -0.8157  0.8778
  486MOL0     H65583   6.248   4.003   5.470  1.2190 -0.0520  0.2397
  486MOL0     H65584   6.248   3.699   5.444 -1.3459  0.0017  2.5324
  486MOL0     H65585   6.290   3.776   5.296 -0.0501 -3.0032  1.0558
  486MOL0     H65586   6.035   3.820   5.448  1.5474  0.2500  1.5070
  486MOL0     H65587   6.082   3.918   5.302 -1.2345  0.6743  1.6420
  486MOL0     H65588   6.048   3.617   5.344  1.3232 -0.7012 -1.5656
  486MOL0     H65589   6.099   3.677   5.190  0.1726  1.8313 -0.1133
  486MOL0     H65590   5.838   3.750   5.330 -2.2904 -0.4395 -0.2931
  486MOL0     H65591   5.846   3.629   5.210 -0.1001  0.2081  0.2287
  486MOL0     H65592   6.886   3.980   5.513 -1.3675 -0.1688  1.5536
  486MOL0     H65593   7.130   3.950   5.547 -1.1282 -1.1520  0.2826
  486MOL0     H65594   7.436   3.971   5.960 -1.2342  2.0067 -1.1267
  486MOL0     H65595   7.654   3.906   6.039  0.1802  0.9107  0.1060
  486MOL0     H65596   9.540   3.228   5.699 -0.3584  0.8819  0.1675
  486MOL0     H65597   9.772   3.145   5.746 -2.0506 -0.5540 -0.8857
  486MOL0     H65598  10.144   3.406   6.154  0.1382 -0.0815  2.2175
  486MOL0     H65599  10.392   3.348   6.227  1.7861 -1.2723  0.2318
  486MOL0     H65600  10.595   3.287   6.120  1.4090  2.1811  3.5302
  486MOL0     H65601  10.692   3.205   6.239  0.9695  1.3457 -1.0020
  486MOL0     H65602  10.789   3.197   6.007 -1.5458  2.7273  2.1173
  486MOL0     H65603  10.638   3.165   5.948  1.2289  3.2220 -0.0519
  486MOL0     H65604  10.636   2.932   6.054 -0.1632  0.4389 -0.8976
  486MOL0     H65605  10.793   2.973   6.141  2.0973  1.3300 -0.8973
  486MOL0     H65606  10.750   2.913   5.840  1.9902 -0.9785 -1.9471
  486MOL0     H65607  10.839   2.832   5.961  0.5698  0.5513 -0.4557
  486MOL0     H65608  11.145   3.070   5.858  0.4197 -1.1385  0.4709
  486MOL0     H65609  10.321   2.950   6.087 -1.9134 -0.6044  1.8195
  486MOL0     H65610  10.098   3.019   5.992 -0.7735  0.7289  0.8610
  487MOL0     O65611   7.373   0.021   4.110  0.2368 -0.2319 -0.6106
  487MOL0     C65612   7.405  -0.034   4.004 -1.0283 -0.3961  0.4117
  487MOL0     O65613   7.336  -0.122   3.927  0.1525  0.4776  0.0353
  487MOL0     C65614   7.216  -0.167   3.972  0.2535 -0.9543  0.0980
  487MOL0     C65615   7.182  -0.301   3.957 -0.2647 -0.8281 -0.0525
  487MOL0     C65616   7.044  -0.342   3.982 -0.6361 -0.3143  0.3218
  487MOL0     C65617   6.952  -0.254   4.039 -0.0482 -0.0294  0.7516
  487MOL0     O65618   6.826  -0.283   4.072  0.0475  0.7812 -0.9920
  487MOL0     C65619   6.768  -0.415   4.032  0.0771 -0.6084 -0.4526
  487MOL0     C65620   6.635  -0.421   4.107 -1.1078  0.1745 -0.2380
  487MOL0     C65621   6.537  -0.328   4.034  0.5412 -0.5223  1.2785
  487MOL0     C65622   6.412  -0.294   4.127 -0.1098 -0.5249  0.2591
  487MOL0     C65623   6.319  -0.414   4.149  0.0725  0.4853 -0.2406
  487MOL0     C65624   6.257  -0.473   4.024 -0.5664  0.0811  0.5573
  487MOL0     C65625   6.128  -0.551   4.063 -0.6090  0.2308 -0.4210
  487MOL0     C65626   6.020  -0.530   3.962 -0.4202  0.1767  0.4142
  487MOL0     N65627   5.894  -0.597   3.982  0.2604 -0.4540  0.4162
  487MOL0     C65628   5.816  -0.580   4.094 -0.0820 -0.3627 -0.3818
  487MOL0     C65629   5.703  -0.646   4.064 -0.1050  0.0116 -0.4211
  487MOL0     C65630   5.598  -0.667   4.159 -0.0506  0.5786 -0.7299
  487MOL0     C65631   5.497  -0.553   4.167 -0.5661  0.1742 -0.1373
  487MOL0     C65632   5.393  -0.590   4.273 -0.6738  0.3689  0.2825
  487MOL0     C65633   5.277  -0.675   4.218 -0.3652  0.0804 -0.1623
  487MOL0     O65634   5.178  -0.594   4.154  0.4441 -0.2084 -0.1254
  487MOL0     C65635   5.049  -0.658   4.147  0.3053 -0.3119 -0.3769
  487MOL0     C65636   4.945  -0.574   4.159 -0.1489 -0.5498  0.0793
  487MOL0     C65637   4.814  -0.615   4.175  0.3293  0.8416  0.7686
  487MOL0     C65638   4.720  -0.507   4.199  0.3347  0.3794  0.3041
  487MOL0     C65639   4.776  -0.756   4.162 -0.8386  0.1832 -0.0211
  487MOL0     C65640   4.636  -0.799   4.164  0.1103 -0.1948  0.4088
  487MOL0     O65641   4.612  -0.932   4.135  0.1601 -0.3529  0.3789
  487MOL0     C65642   4.499  -0.994   4.184 -0.0883 -0.5446 -0.6763
  487MOL0     C65643   4.470  -0.993   4.319  0.2062 -0.6981 -0.7978
  487MOL0     C65644   4.360  -1.061   4.374 -0.6142 -0.0630  0.0109
  487MOL0     C65645   4.286  -1.144   4.294  0.1433  0.3989  0.2152
  487MOL0     O65646   4.183  -1.229   4.337 -0.2651  0.5261  0.4536
  487MOL0     C65647   4.147  -1.235   4.473 -0.0342 -0.2590 -0.3794
  487MOL0     C65648   4.098  -1.373   4.502  0.0969 -0.3241  0.4957
  487MOL0     C65649   3.959  -1.401   4.446  0.2125 -0.2836  0.1707
  487MOL0     C65650   3.904  -1.530   4.521 -0.2258 -0.7007  0.3490
  487MOL0     C65651   3.829  -1.609   4.427 -0.3289  0.1971 -0.3498
  487MOL0     C65652   3.768  -1.735   4.490  0.5795 -0.8693 -0.6865
  487MOL0     C65653   3.703  -1.836   4.389  0.3079 -0.6278 -0.3046
  487MOL0     C65654   3.590  -1.774   4.308 -0.1154 -0.0251  1.3130
  487MOL0    Cl65655   3.482  -1.901   4.243 -0.0829  0.1022  0.3535
  487MOL0     C65656   4.311  -1.147   4.153  0.8237  0.2266 -0.8761
  487MOL0     C65657   4.415  -1.074   4.100  0.4365 -0.9072 -0.3636
  487MOL0     O65658   4.547  -0.728   4.216  0.4000  0.8992 -0.1405
  487MOL0     C65659   4.885  -0.849   4.139  0.1601 -0.2964 -0.2841
  487MOL0     C65660   5.021  -0.792   4.143  0.7102  1.5806  0.0905
  487MOL0     N65661   5.723  -0.712   3.939  1.1324  0.4439  0.2110
  487MOL0     N65662   5.834  -0.675   3.886 -0.5628 -0.1245 -0.4742
  487MOL0     C65663   6.988  -0.122   4.052 -0.5001  0.3166  0.2349
  487MOL0     C65664   7.116  -0.077   4.022  0.1691  0.5321  0.1940
  487MOL0     C65665   7.549  -0.026   3.974 -0.3237 -1.0358  0.3068
  487MOL0     C65666   7.606  -0.122   3.892 -0.0241 -0.0433  0.4269
  487MOL0     C65667   7.740  -0.116   3.859  0.0152  0.6742  0.3380
  487MOL0     C65668   7.827  -0.021   3.909 -0.6024  0.1981 -0.6987
  487MOL0     O65669   7.959  -0.023   3.895  0.2484  0.5530 -0.0567
  487MOL0     C65670   8.045   0.049   3.984 -0.4586  0.1933 -0.2024
  487MOL0     C65671   8.187   0.002   3.960  0.2329 -0.1357  0.1700
  487MOL0     C65672   8.207  -0.137   4.012  0.1875 -0.1547  0.1676
  487MOL0     C65673   8.346  -0.187   3.988  0.1887  0.2691 -0.0812
  487MOL0     C65674   8.380  -0.170   3.842 -0.9723 -0.0031 -0.1228
  487MOL0     C65675   8.416  -0.161   3.728  0.2422 -0.5286  0.5138
  487MOL0     C65676   7.767   0.088   3.977 -0.7158 -0.1244 -0.1178
  487MOL0     C65677   7.632   0.081   4.010  0.2931 -0.0430 -0.5378
  487MOL0     H65678   7.253  -0.378   3.927  1.3874 -0.0129  1.5074
  487MOL0     H65679   7.022  -0.446   3.963  1.1217 -0.6952  0.2272
  487MOL0     H65680   6.751  -0.421   3.924 -1.0757  1.1740 -0.4254
  487MOL0     H65681   6.833  -0.491   4.075  0.9710  0.2602 -0.2382
  487MOL0     H65682   6.592  -0.522   4.114 -0.5915 -0.3008 -2.8932
  487MOL0     H65683   6.644  -0.383   4.209  2.2070 -0.3176 -0.2587
  487MOL0     H65684   6.581  -0.238   3.990 -0.0993 -1.4038 -1.3412
  487MOL0     H65685   6.501  -0.378   3.943  0.6051  2.6366 -0.6230
  487MOL0     H65686   6.450  -0.265   4.225  0.4458 -0.2902 -0.0227
  487MOL0     H65687   6.362  -0.205   4.088  0.7536  0.0003  0.3205
  487MOL0     H65688   6.376  -0.488   4.206 -1.8751 -0.6312  0.3695
  487MOL0     H65689   6.237  -0.381   4.214 -0.0475 -0.0730 -0.1032
  487MOL0     H65690   6.244  -0.395   3.947  0.2415 -0.6487 -0.3331
  487MOL0     H65691   6.328  -0.546   3.985  2.5284  3.3380 -0.5200
  487MOL0     H65692   6.162  -0.655   4.058  1.0346  0.7634 -0.7478
  487MOL0     H65693   6.087  -0.520   4.160 -2.0510 -0.3764 -0.8097
  487MOL0     H65694   6.060  -0.568   3.867 -3.4257 -1.3132 -0.3856
  487MOL0     H65695   5.995  -0.425   3.948  1.5176  0.6166  0.0477
  487MOL0     H65696   5.839  -0.522   4.183 -1.7985 -1.6819  0.9823
  487MOL0     H65697   5.562  -0.768   4.137  0.8605 -0.0117  0.3948
  487MOL0     H65698   5.637  -0.685   4.259 -2.8479  0.4813  0.4328
  487MOL0     H65699   5.442  -0.554   4.072 -1.8955 -0.9886  0.6058
  487MOL0     H65700   5.543  -0.455   4.182 -0.0547 -0.3958  2.4488
  487MOL0     H65701   5.363  -0.497   4.322  3.8377  1.2112  1.8404
  487MOL0     H65702   5.443  -0.640   4.355 -1.2420  2.5418  2.0586
  487MOL0     H65703   5.230  -0.723   4.305  0.7767 -0.0469  0.4088
  487MOL0     H65704   5.307  -0.745   4.139  1.5314 -0.1757  0.7440
  487MOL0     H65705   4.972  -0.471   4.177 -2.3080 -0.3262  2.7668
  487MOL0     H65706   4.654  -0.489   4.113  0.6249 -1.7110 -0.4276
  487MOL0     H65707   4.657  -0.541   4.282 -1.4431 -4.2835 -2.5333
  487MOL0     H65708   4.776  -0.417   4.224 -0.1888  0.3950  1.4949
  487MOL0     H65709   4.532  -0.933   4.385  1.1446 -1.6066 -0.8307
  487MOL0     H65710   4.358  -1.050   4.482  4.1756 -0.3576  0.3488
  487MOL0     H65711   4.229  -1.220   4.543 -1.4348  1.5568  0.9665
  487MOL0     H65712   4.070  -1.165   4.506 -0.6866 -1.8477  1.6909
  487MOL0     H65713   4.173  -1.442   4.464 -0.5683 -0.4037 -0.7397
  487MOL0     H65714   4.095  -1.386   4.611 -2.3717 -3.1649  0.2128
  487MOL0     H65715   3.971  -1.420   4.339 -0.2839  2.4480 -0.4497
  487MOL0     H65716   3.890  -1.320   4.474 -3.0196 -2.1132 -1.8822
  487MOL0     H65717   3.996  -1.578   4.557 -0.0036 -0.0220  0.7126
  487MOL0     H65718   3.840  -1.510   4.607 -0.8379  0.0385 -0.2610
  487MOL0     H65719   3.898  -1.646   4.351 -0.9858 -0.0778 -0.8283
  487MOL0     H65720   3.748  -1.546   4.387 -0.4785 -0.8592 -1.7821
  487MOL0     H65721   3.838  -1.792   4.552  0.7919 -0.7395 -0.8086
  487MOL0     H65722   3.693  -1.693   4.559  3.3414  0.1616  1.9091
  487MOL0     H65723   3.661  -1.918   4.448  0.3365 -0.1541  0.3846
  487MOL0     H65724   3.779  -1.888   4.328 -0.6254 -0.3653 -1.7482
  487MOL0     H65725   3.626  -1.730   4.215 -1.4222 -3.6368 -1.1056
  487MOL0     H65726   3.543  -1.694   4.366  1.7058  2.1028  0.0410
  487MOL0     H65727   4.246  -1.204   4.087  0.3205 -0.5410  0.2481
  487MOL0     H65728   4.432  -1.060   3.994  0.8816  1.4659 -0.0299
  487MOL0     H65729   4.869  -0.956   4.138 -2.3546  0.0368 -0.6114
  487MOL0     H65730   5.109  -0.855   4.141 -0.9105 -0.8067  0.4479
  487MOL0     H65731   6.918  -0.060   4.106 -0.5204  1.2317 -0.7960
  487MOL0     H65732   7.136   0.029   4.036 -1.0183  1.0620 -1.7436
  487MOL0     H65733   7.549  -0.208   3.857 -0.0376  0.1547 -0.0355
  487MOL0     H65734   7.784  -0.202   3.810 -2.0162 -0.6448  0.7080
  487MOL0     H65735   8.041   0.157   3.974  1.2050  0.8629  4.2761
  487MOL0     H65736   8.013   0.034   4.088  0.2225 -0.3534 -0.0601
  487MOL0     H65737   8.253   0.070   4.015 -1.2352  1.6684 -0.2000
  487MOL0     H65738   8.203   0.017   3.852 -0.6738  3.0480  0.3846
  487MOL0     H65739   8.141  -0.217   3.978  2.4238 -4.8161  5.1339
  487MOL0     H65740   8.190  -0.128   4.120  0.1321  0.9232  0.0834
  487MOL0     H65741   8.352  -0.291   4.023  0.3362  0.2007 -0.3087
  487MOL0     H65742   8.410  -0.128   4.055  1.3536 -1.8718  0.7966
  487MOL0     H65743   8.443  -0.149   3.625 -0.8218  1.8246  0.4517
  487MOL0     H65744   7.819   0.181   3.998 -2.2598  0.5269  1.0881
  487MOL0     H65745   7.586   0.161   4.067 -0.1978 -1.2719  0.8517
  488MOL0     O65746   8.457   3.169   9.689  0.9210 -0.3321 -0.1680
  488MOL0     C65747   8.407   3.079   9.755  0.4466 -0.2854  0.2851
  488MOL0     O65748   8.272   3.059   9.759 -0.7032 -0.8628 -0.2297
  488MOL0     C65749   8.191   3.139   9.695  0.3213  0.8310 -0.0804
  488MOL0     C65750   8.212   3.180   9.559 -0.0919 -0.1917 -0.1766
  488MOL0     C65751   8.121   3.255   9.492  0.3471  0.0762 -0.1490
  488MOL0     C65752   7.992   3.266   9.545 -0.5812 -0.0429  0.6940
  488MOL0     O65753   7.892   3.322   9.472 -0.0267 -0.7630 -0.1928
  488MOL0     C65754   7.923   3.429   9.383 -0.0512  0.0228 -0.2941
  488MOL0     C65755   7.785   3.478   9.345  0.8406 -0.2702 -1.0046
  488MOL0     C65756   7.688   3.517   9.459 -0.4039 -0.0759 -0.1200
  488MOL0     C65757   7.547   3.533   9.404  0.5558  0.4976 -0.2278
  488MOL0     C65758   7.456   3.535   9.528 -0.3986  0.5514  0.2172
  488MOL0     C65759   7.319   3.592   9.489 -1.0526 -0.0350 -0.5385
  488MOL0     C65760   7.218   3.580   9.604 -0.5192  0.1237 -0.4646
  488MOL0     C65761   7.090   3.641   9.546  0.1109  0.4221  0.2583
  488MOL0     N65762   6.990   3.666   9.652  0.0429 -0.4504 -0.0896
  488MOL0     C65763   6.904   3.567   9.692  0.0901 -0.3506  0.3951
  488MOL0     C65764   6.834   3.620   9.796 -0.1221  0.3470  0.5423
  488MOL0     C65765   6.734   3.532   9.878 -0.3993  0.9988 -0.4296
  488MOL0     C65766   6.624   3.621   9.939  0.2385  1.0429 -0.3195
  488MOL0     C65767   6.527   3.691   9.843 -0.4640  0.4730  0.4566
  488MOL0     C65768   6.420   3.763   9.921 -0.5608  0.0336  1.1232
  488MOL0     O65769   6.345   3.658   9.983  0.0479 -0.4109 -0.9107
  488MOL0     C65770   6.225   3.699  10.032  0.3765  0.2819 -0.8132
  488MOL0     C65771   6.200   3.806  10.113  0.0298  0.7033  0.0904
  488MOL0     C65772   6.075   3.851  10.145 -0.6927  0.5462  0.2255
  488MOL0     C65773   6.059   3.974  10.231  0.0408  0.6255  0.4017
  488MOL0     C65774   5.962   3.784  10.106  0.4592 -0.1081 -0.1361
  488MOL0     C65775   5.828   3.814  10.139  0.2232 -0.0610 -0.9730
  488MOL0     O65776   5.789   3.939  10.182 -0.4831 -0.1901 -0.2045
  488MOL0     C65777   5.665   3.975  10.213 -0.1104  0.2314 -0.0640
  488MOL0     C65778   5.565   3.962  10.118 -0.4221  0.4483 -0.4977
  488MOL0     C65779   5.437   4.008  10.157  0.3484  0.4975  0.1961
  488MOL0     C65780   5.409   4.055  10.290  0.2292 -0.3185  0.0352
  488MOL0     O65781   5.290   4.093  10.342 -0.5108  0.2320  0.2254
  488MOL0     C65782   5.175   4.058  10.267  0.4542 -0.0113 -0.2079
  488MOL0     C65783   5.127   4.145  10.149 -0.0440 -0.8249  0.2654
  488MOL0     C65784   5.078   4.274  10.203 -0.1484 -0.7552 -0.2020
  488MOL0     C65785   4.983   4.364  10.111  0.0051  0.3986 -0.3609
  488MOL0     C65786   4.854   4.295  10.071 -0.1049  0.0848 -0.1184
  488MOL0     C65787   4.752   4.263  10.189  0.1420  0.5450  0.4791
  488MOL0     C65788   4.692   4.388  10.246  0.1644  0.0754 -0.5570
  488MOL0     C65789   4.606   4.365  10.374 -0.2350  0.1024 -0.0207
  488MOL0    Cl65790   4.451   4.296  10.344  0.3783 -0.2183 -0.2151
  488MOL0     C65791   5.518   4.075  10.377 -0.4070 -0.8062 -0.0148
  488MOL0     C65792   5.644   4.028  10.340  0.4427  0.3863 -1.2292
  488MOL0     O65793   5.749   3.713  10.142 -0.4549  0.5057  0.6331
  488MOL0     C65794   5.982   3.673  10.020 -0.5110 -0.5845 -0.0677
  488MOL0     C65795   6.112   3.640   9.984  0.6121 -0.1771 -0.8092
  488MOL0     N65796   6.883   3.751   9.818  0.0563 -0.1090 -0.5450
  488MOL0     N65797   6.977   3.779   9.727  0.2329  1.2541 -0.2094
  488MOL0     C65798   7.968   3.220   9.675  0.6646 -0.7083  1.0024
  488MOL0     C65799   8.065   3.162   9.750 -0.3027 -0.9681 -1.0559
  488MOL0     C65800   8.503   2.979   9.828  0.2178 -0.0792 -0.3605
  488MOL0     C65801   8.634   2.959   9.788 -0.0980  0.4748 -0.7293
  488MOL0     C65802   8.717   2.869   9.858 -0.4998 -0.5592 -0.1709
  488MOL0     C65803   8.662   2.788   9.959  0.4194 -0.2007 -0.2868
  488MOL0     O65804   8.728   2.684  10.013  0.1844  0.9339 -0.5596
  488MOL0     C65805   8.862   2.658   9.966 -0.7053 -0.7401  0.6115
  488MOL0     C65806   8.908   2.522  10.022  0.1227 -0.4837  0.8933
  488MOL0     C65807   9.048   2.492   9.973  0.2950 -0.0662  0.5714
  488MOL0     C65808   9.046   2.458   9.816  0.2410  0.5919 -0.1489
  488MOL0     C65809   9.149   2.361   9.790  0.9351  0.4546  0.1464
  488MOL0     C65810   9.226   2.281   9.773 -0.0611 -0.0508 -0.1437
  488MOL0     C65811   8.529   2.800   9.993 -0.6063 -0.7049 -0.0939
  488MOL0     C65812   8.453   2.898   9.932 -0.4770 -0.0989  0.1642
  488MOL0     H65813   8.301   3.153   9.503 -0.2588  0.5042 -0.7996
  488MOL0     H65814   8.145   3.301   9.396 -2.3981  1.6896 -0.1655
  488MOL0     H65815   7.991   3.500   9.431  0.6426 -0.0017 -1.2148
  488MOL0     H65816   7.970   3.404   9.287 -1.5996  2.2238 -1.7447
  488MOL0     H65817   7.786   3.574   9.294 -0.9650  1.3982  1.8416
  488MOL0     H65818   7.736   3.412   9.272 -1.2923  1.1890 -0.9918
  488MOL0     H65819   7.691   3.454   9.548  2.2679  1.4291  0.9515
  488MOL0     H65820   7.723   3.610   9.503  0.1518 -1.2797  2.1552
  488MOL0     H65821   7.531   3.619   9.339  2.1555  2.4393  1.8189
  488MOL0     H65822   7.513   3.446   9.345 -0.7763 -0.6198  2.0488
  488MOL0     H65823   7.439   3.434   9.567 -2.4716  0.8991  0.3274
  488MOL0     H65824   7.499   3.598   9.607  2.0622 -1.6009  0.7196
  488MOL0     H65825   7.334   3.699   9.470  1.9125 -0.4359 -0.9440
  488MOL0     H65826   7.292   3.538   9.399 -2.2196 -2.5355  1.1899
  488MOL0     H65827   7.208   3.479   9.644  0.8957 -0.1335 -0.7079
  488MOL0     H65828   7.253   3.646   9.683  1.4742 -1.7531  0.3251
  488MOL0     H65829   7.044   3.563   9.484 -0.8271  0.5693  0.7393
  488MOL0     H65830   7.119   3.732   9.493 -0.3466  0.1309 -0.5136
  488MOL0     H65831   6.880   3.470   9.649 -0.5480  1.4849 -3.8708
  488MOL0     H65832   6.675   3.477   9.804 -0.1624 -0.7420  0.6290
  488MOL0     H65833   6.784   3.472   9.955 -0.8225  1.4940  0.2460
  488MOL0     H65834   6.676   3.688  10.008 -0.2889 -1.2116  2.4562
  488MOL0     H65835   6.568   3.548   9.999  1.6463 -1.9415 -2.3849
  488MOL0     H65836   6.481   3.623   9.770  0.3836  0.2274  0.1424
  488MOL0     H65837   6.585   3.763   9.785 -1.7963  0.8110 -0.4977
  488MOL0     H65838   6.359   3.821   9.851 -1.7342 -1.5883  0.7315
  488MOL0     H65839   6.453   3.829  10.001 -0.5781  0.7410  0.5603
  488MOL0     H65840   6.276   3.867  10.161 -0.5506  0.2591  1.6116
  488MOL0     H65841   6.152   4.011  10.277 -1.3910  2.8898  1.6713
  488MOL0     H65842   6.020   4.060  10.176 -0.6972  0.5455  0.7914
  488MOL0     H65843   5.998   3.946  10.317  1.2738  0.2284  1.1659
  488MOL0     H65844   5.585   3.928  10.017  0.7817 -0.3178 -0.0188
  488MOL0     H65845   5.356   4.001  10.085  2.9021 -1.4507 -2.7703
  488MOL0     H65846   5.184   3.955  10.231  0.6813 -0.7007  1.7257
  488MOL0     H65847   5.100   4.058  10.347  1.7244  1.1707  1.0324
  488MOL0     H65848   5.213   4.173  10.087 -0.0267 -0.2757  0.5301
  488MOL0     H65849   5.051   4.090  10.094  0.7624  0.2840 -2.0820
  488MOL0     H65850   5.173   4.329  10.206 -0.9073  1.1228 -4.0147
  488MOL0     H65851   5.020   4.268  10.295 -1.2649  3.0296 -0.4819
  488MOL0     H65852   4.967   4.454  10.172  0.8538  0.2557  0.0993
  488MOL0     H65853   5.033   4.401  10.021 -0.6442  0.4122 -0.7183
  488MOL0     H65854   4.876   4.203  10.015 -1.3140 -1.1514  1.3467
  488MOL0     H65855   4.801   4.352   9.994 -2.5887  1.0496  2.1708
  488MOL0     H65856   4.671   4.206  10.144  1.3388 -0.8809  0.0685
  488MOL0     H65857   4.810   4.201  10.258  0.9313  1.6374  0.8178
  488MOL0     H65858   4.620   4.433  10.178 -1.9387 -0.2351  1.3382
  488MOL0     H65859   4.767   4.465  10.265 -0.6875  1.6638 -3.1368
  488MOL0     H65860   4.582   4.463  10.415 -0.5759  0.0754 -0.1534
  488MOL0     H65861   4.659   4.323  10.460  0.2636  2.8792  1.1498
  488MOL0     H65862   5.489   4.105  10.477  1.1306 -0.4600  0.3628
  488MOL0     H65863   5.729   4.052  10.403 -2.5807  1.8552  2.6695
  488MOL0     H65864   5.899   3.615   9.982 -0.2505 -1.9919  1.4417
  488MOL0     H65865   6.131   3.557   9.918 -0.2457 -1.5230  0.5753
  488MOL0     H65866   7.868   3.247   9.707  0.0092 -1.6255 -0.1679
  488MOL0     H65867   8.043   3.134   9.853  0.0613  1.9397 -0.0944
  488MOL0     H65868   8.678   3.028   9.716  1.5185  0.4207  0.1502
  488MOL0     H65869   8.825   2.869   9.845 -0.2347 -0.1642  1.7273
  488MOL0     H65870   8.861   2.641   9.858 -1.7088 -0.9377  0.6382
  488MOL0     H65871   8.928   2.736  10.004 -1.3112 -1.1450  2.6796
  488MOL0     H65872   8.845   2.440   9.988 -0.6654  0.9087 -1.2804
  488MOL0     H65873   8.919   2.536  10.130  2.3057  1.9650  0.4549
  488MOL0     H65874   9.082   2.402  10.025  2.3107  0.8706  0.9702
  488MOL0     H65875   9.116   2.576   9.988  2.2902 -1.4482 -0.2774
  488MOL0     H65876   9.060   2.553   9.763 -0.2478 -0.9979 -3.3464
  488MOL0     H65877   8.947   2.424   9.784 -0.0943  0.8728  0.5720
  488MOL0     H65878   9.314   2.222   9.758 -0.2343 -0.2946 -0.2018
  488MOL0     H65879   8.475   2.753  10.075 -3.9854  1.2458 -1.0261
  488MOL0     H65880   8.351   2.914   9.963 -0.1874 -0.1530  1.1672
  489MOL0     O65881   9.029  10.294  10.144  0.1535  0.2572  0.3612
  489MOL0     C65882   9.063  10.187  10.193  0.2061  0.7408 -0.4377
  489MOL0     O65883   9.018  10.138  10.321  0.0151  0.6806  0.0344
  489MOL0     C65884   8.956  10.225  10.404 -0.1077 -0.0785  0.1961
  489MOL0     C65885   8.987  10.361  10.420 -0.5443  0.3685 -0.7203
  489MOL0     C65886   8.924  10.446  10.511 -0.0282 -0.2631 -0.7107
  489MOL0     C65887   8.823  10.390  10.598 -0.4339 -0.5114  0.2894
  489MOL0     O65888   8.763  10.467  10.693  0.1674  0.0161  0.0636
  489MOL0     C65889   8.827  10.590  10.735 -0.3510  0.4475 -0.1681
  489MOL0     C65890   8.732  10.640  10.853  0.1474  0.3031 -0.2069
  489MOL0     C65891   8.739  10.543  10.973  1.3855  0.6067 -0.5614
  489MOL0     C65892   8.671  10.605  11.088 -0.2609  0.0896 -0.7948
  489MOL0     C65893   8.677  10.519  11.216 -0.1785  0.3352  0.2337
  489MOL0     C65894   8.642  10.575  11.349 -1.5472 -0.8322 -0.6436
  489MOL0     C65895   8.501  10.649  11.349 -0.7902 -0.1669  0.5296
  489MOL0     C65896   8.385  10.554  11.333  0.3036 -0.7045 -0.1811
  489MOL0     N65897   8.363  10.494  11.468  0.0728  0.0350  1.1929
  489MOL0     C65898   8.322  10.553  11.583 -0.5634  0.1200  0.5717
  489MOL0     C65899   8.298  10.448  11.666 -0.5018 -1.1753  1.0023
  489MOL0     C65900   8.270  10.468  11.811 -0.5888 -0.2578  0.3660
  489MOL0     C65901   8.130  10.516  11.821  0.3681 -0.0162 -0.9550
  489MOL0     C65902   8.090  10.546  11.963  0.2534  0.2875  0.2318
  489MOL0     C65903   7.946  10.603  11.979 -0.6194 -0.0504 -0.9397
  489MOL0     O65904   7.924  10.706  11.883 -0.3376 -0.5194  0.6160
  489MOL0     C65905   7.795  10.709  11.844 -0.3290 -0.0738  0.4174
  489MOL0     C65906   7.755  10.616  11.752  0.2875 -0.0270  0.2047
  489MOL0     C65907   7.630  10.617  11.698 -0.5228 -0.6708  0.1014
  489MOL0     C65908   7.590  10.505  11.608 -0.0484 -0.8048 -0.2750
  489MOL0     C65909   7.532  10.709  11.749 -0.0175 -0.3874  0.1107
  489MOL0     C65910   7.392  10.704  11.713 -0.5664  1.2459 -0.5640
  489MOL0     O65911   7.299  10.726  11.808 -0.1229 -0.6524  0.5344
  489MOL0     C65912   7.174  10.716  11.757 -0.1742 -0.0775  0.2274
  489MOL0     C65913   7.108  10.810  11.680  0.1776  0.0248 -0.1881
  489MOL0     C65914   6.966  10.796  11.651  0.2052 -0.4537 -0.2757
  489MOL0     C65915   6.903  10.680  11.689 -0.1734 -0.3672 -0.0918
  489MOL0     O65916   6.772  10.660  11.651 -0.2531  0.4678  0.0693
  489MOL0     C65917   6.684  10.568  11.731 -0.0086  0.2027  0.2758
  489MOL0     C65918   6.549  10.626  11.713 -0.0707 -0.2583 -0.4890
  489MOL0     C65919   6.485  10.599  11.577  0.4894 -0.8003 -0.3254
  489MOL0     C65920   6.360  10.683  11.546  0.4447  0.0788 -0.4627
  489MOL0     C65921   6.246  10.632  11.640  0.5285 -0.9361 -0.0799
  489MOL0     C65922   6.110  10.664  11.575 -0.2708  0.9511 -0.3241
  489MOL0     C65923   6.003  10.623  11.682  0.1322  0.2724 -0.3934
  489MOL0     C65924   5.859  10.640  11.628 -0.1741  0.4008  0.0719
  489MOL0    Cl65925   5.818  10.808  11.580  0.0949 -0.0148 -0.5183
  489MOL0     C65926   6.977  10.587  11.763 -0.6405  0.0295 -0.5650
  489MOL0     C65927   7.109  10.610  11.802  0.6692 -0.2287 -0.1372
  489MOL0     O65928   7.368  10.695  11.590  0.0247 -0.1842 -0.4365
  489MOL0     C65929   7.567  10.793  11.858  0.0366 -0.1982  0.0189
  489MOL0     C65930   7.704  10.800  11.902 -0.1476  0.1273  0.0762
  489MOL0     N65931   8.313  10.326  11.608 -0.9025 -0.5116  0.1337
  489MOL0     N65932   8.362  10.356  11.490  0.1777 -1.2595  0.2265
  489MOL0     C65933   8.795  10.255  10.584  0.8128  0.7278  0.6997
  489MOL0     C65934   8.857  10.171  10.490 -0.2241 -1.2035 -0.1061
  489MOL0     C65935   9.189  10.127  10.137  0.2979  0.5858  0.2757
  489MOL0     C65936   9.230  10.008  10.175 -1.3172  0.3588  0.2727
  489MOL0     C65937   9.367   9.969  10.141  0.4965 -0.4852 -0.7028
  489MOL0     C65938   9.445  10.050  10.054 -0.8309 -0.0811 -0.2670
  489MOL0     O65939   9.575  10.005  10.040  0.3171  0.0253 -0.0264
  489MOL0     C65940   9.673  10.078   9.978 -0.2045 -0.8390  0.1736
  489MOL0     C65941   9.707  10.028   9.843  1.6269  0.5858 -0.5648
  489MOL0     C65942   9.823  10.101   9.779 -0.1791  0.2980  0.0926
  489MOL0     C65943   9.959  10.056   9.820 -0.1828 -0.2691  0.2183
  489MOL0     C65944  10.064  10.133   9.746  0.1590  1.0048 -0.6567
  489MOL0     C65945  10.134  10.195   9.669  0.6100  0.1169 -0.3267
  489MOL0     C65946   9.392  10.171  10.005  0.7562  0.3825  0.5409
  489MOL0     C65947   9.261  10.202  10.045 -0.2768 -0.5509 -0.6723
  489MOL0     H65948   9.078  10.395  10.371  0.2573 -1.5420 -0.6863
  489MOL0     H65949   8.959  10.547  10.528  1.2747 -1.0828  2.0735
  489MOL0     H65950   8.923  10.555  10.774 -0.4141  0.9328  0.4282
  489MOL0     H65951   8.830  10.668  10.658 -0.0098  0.0989 -0.5149
  489MOL0     H65952   8.767  10.739  10.884 -0.0127  0.0435  0.8414
  489MOL0     H65953   8.630  10.657  10.818  0.3447  1.4377 -0.2644
  489MOL0     H65954   8.685  10.453  10.944 -0.5411  0.8331  1.9940
  489MOL0     H65955   8.842  10.531  11.009  1.7797  5.4121  0.6671
  489MOL0     H65956   8.735  10.691  11.110 -2.1001  0.8904  2.1606
  489MOL0     H65957   8.566  10.629  11.070 -0.0106 -0.2039 -2.8828
  489MOL0     H65958   8.600  10.443  11.202  0.0729  0.1168  0.0430
  489MOL0     H65959   8.779  10.482  11.225  0.0703  1.2307  1.3691
  489MOL0     H65960   8.627  10.487  11.412 -2.9275 -0.4717 -0.4162
  489MOL0     H65961   8.728  10.634  11.383 -2.8942 -0.2728  2.0325
  489MOL0     H65962   8.486  10.703  11.442  1.5354  1.3347  0.1056
  489MOL0     H65963   8.502  10.722  11.267  0.9750  0.0574  0.7117
  489MOL0     H65964   8.408  10.475  11.261  0.9500 -0.2090 -0.5331
  489MOL0     H65965   8.296  10.609  11.301  1.5308  0.4344 -1.7758
  489MOL0     H65966   8.315  10.654  11.620  2.2363  0.4962  0.2535
  489MOL0     H65967   8.295  10.378  11.868  1.5313 -0.7982 -1.2524
  489MOL0     H65968   8.323  10.554  11.853 -0.8617 -0.6915  1.6354
  489MOL0     H65969   8.049  10.451  11.786  1.3529 -0.8990 -1.6419
  489MOL0     H65970   8.123  10.615  11.773 -0.5179  1.0338  1.1764
  489MOL0     H65971   8.163  10.615  12.008 -1.2400  1.7737  0.4679
  489MOL0     H65972   8.084  10.455  12.023 -0.9132 -1.1125 -1.8932
  489MOL0     H65973   7.934  10.648  12.078  0.3786 -0.0562 -0.8029
  489MOL0     H65974   7.873  10.522  11.971 -2.7952  1.4330  2.0318
  489MOL0     H65975   7.834  10.557  11.707  1.1175  1.1871 -0.0032
  489MOL0     H65976   7.516  10.440  11.656  2.2098 -3.6667 -0.3620
  489MOL0     H65977   7.545  10.533  11.513  0.1739 -0.8476 -0.3945
  489MOL0     H65978   7.680  10.447  11.584 -0.5289 -2.1270  0.9733
  489MOL0     H65979   7.163  10.895  11.642  1.3667 -0.5987  0.1003
  489MOL0     H65980   6.925  10.867  11.580  0.1728 -1.2079 -1.0219
  489MOL0     H65981   6.689  10.468  11.687 -0.1004 -0.6460  2.0978
  489MOL0     H65982   6.710  10.567  11.837  0.8269 -0.0848  0.0760
  489MOL0     H65983   6.501  10.570  11.794  0.4399 -2.3972 -1.5975
  489MOL0     H65984   6.562  10.732  11.739  2.4028 -0.6684  0.2150
  489MOL0     H65985   6.466  10.491  11.579 -0.5851 -0.6123  0.0200
  489MOL0     H65986   6.563  10.611  11.501 -0.8941 -2.0384 -2.0018
  489MOL0     H65987   6.378  10.789  11.569 -2.7244 -0.3297  6.0893
  489MOL0     H65988   6.330  10.682  11.440 -1.1089  1.4210 -0.0873
  489MOL0     H65989   6.254  10.679  11.739 -2.6457  0.7733 -0.5236
  489MOL0     H65990   6.250  10.523  11.653 -0.9118 -0.7633  2.5190
  489MOL0     H65991   6.123  10.771  11.556  0.2848  0.7975 -0.8415
  489MOL0     H65992   6.107  10.612  11.479  3.5430 -1.5838  0.7406
  489MOL0     H65993   6.021  10.684  11.771  0.4245  1.6741 -1.3893
  489MOL0     H65994   6.024  10.520  11.714 -0.2876  0.5056  0.6678
  489MOL0     H65995   5.789  10.625  11.711 -0.6949  0.1998 -0.3997
  489MOL0     H65996   5.840  10.569  11.547 -0.2361  0.2253  0.2405
  489MOL0     H65997   6.926  10.492  11.776 -0.0610 -0.0173  1.9760
  489MOL0     H65998   7.162  10.534  11.857 -0.4128 -1.8484 -1.2361
  489MOL0     H65999   7.490  10.850  11.910 -0.2795 -0.8485  0.2805
  489MOL0     H66000   7.731  10.873  11.978 -0.8316  0.8257 -0.3328
  489MOL0     H66001   8.721  10.212  10.651  1.4564 -2.0779 -0.2438
  489MOL0     H66002   8.817  10.073  10.467  0.4125 -0.7560 -3.7351
  489MOL0     H66003   9.162   9.944  10.230 -0.5858 -3.1993 -2.6153
  489MOL0     H66004   9.401   9.885  10.201 -1.3246 -0.7261  0.0541
  489MOL0     H66005   9.645  10.182   9.959  2.8894 -0.2577 -1.9376
  489MOL0     H66006   9.763  10.075  10.040  0.9442 -1.4309 -1.4635
  489MOL0     H66007   9.627  10.033   9.769  1.5186  2.4285 -0.3621
  489MOL0     H66008   9.739   9.924   9.853 -1.9127 -0.9557 -3.0838
  489MOL0     H66009   9.803  10.208   9.795  0.9360  0.3275  1.3911
  489MOL0     H66010   9.811  10.078   9.672 -1.4990  2.1303 -0.2105
  489MOL0     H66011   9.974   9.949   9.802 -1.4537 -0.1309 -1.9185
  489MOL0     H66012   9.977  10.074   9.927  2.5311 -2.4327  0.2430
  489MOL0     H66013  10.186  10.256   9.598  1.6879 -0.0883  0.2686
  489MOL0     H66014   9.447  10.237   9.938  2.0881 -0.5907  0.6293
  489MOL0     H66015   9.218  10.294  10.006  2.5306  0.5002 -1.5201
  490MOL0     O66016   1.954   5.138  10.919 -0.0057 -0.1168  0.0085
  490MOL0     C66017   1.891   5.246  10.932  0.8943 -0.3236 -0.5713
  490MOL0     O66018   1.755   5.260  10.927 -0.3489 -0.4555  0.4663
  490MOL0     C66019   1.668   5.163  10.899 -0.6354  0.5357  0.4529
  490MOL0     C66020   1.670   5.104  10.772 -0.0322 -0.5830  0.0387
  490MOL0     C66021   1.595   4.987  10.734 -0.3291 -1.0723  0.4786
  490MOL0     C66022   1.524   4.926  10.832  0.6297 -1.3126 -0.0126
  490MOL0     O66023   1.466   4.803  10.825 -0.0237 -0.6649 -0.1209
  490MOL0     C66024   1.462   4.732  10.701 -0.1103 -0.4831  0.2610
  490MOL0     C66025   1.448   4.582  10.723 -0.0581 -0.1576 -0.4022
  490MOL0     C66026   1.411   4.508  10.598 -0.1253 -0.0567  0.9975
  490MOL0     C66027   1.409   4.351  10.635  0.1979 -0.4678  0.3197
  490MOL0     C66028   1.368   4.269  10.513 -0.0724 -0.3902 -0.2236
  490MOL0     C66029   1.463   4.282  10.388 -0.4796 -0.2414 -0.5068
  490MOL0     C66030   1.419   4.373  10.276 -0.0013  0.5100 -0.0651
  490MOL0     C66031   1.501   4.353  10.149 -0.4495 -0.2779  0.4685
  490MOL0     N66032   1.446   4.236  10.069  0.5217 -0.8771 -1.0120
  490MOL0     C66033   1.327   4.236  10.002 -0.5591 -0.0184 -0.3720
  490MOL0     C66034   1.319   4.109   9.941  0.2613 -1.4670 -0.6904
  490MOL0     C66035   1.211   4.062   9.856 -0.0023 -0.1933  0.0627
  490MOL0     C66036   1.180   3.923   9.894  0.1129  0.4311  0.1017
  490MOL0     C66037   1.062   3.863   9.821 -0.2207 -0.0612  0.2549
  490MOL0     C66038   0.930   3.899   9.885  0.2938 -0.4165  0.5026
  490MOL0     O66039   0.911   3.804   9.990 -0.5979 -0.2732  0.5677
  490MOL0     C66040   0.817   3.827  10.087  0.7125 -0.4631  0.0116
  490MOL0     C66041   0.825   3.765  10.213  0.6699  0.2447  0.2995
  490MOL0     C66042   0.741   3.797  10.325 -0.5441  0.1679  0.6681
  490MOL0     C66043   0.768   3.734  10.457  0.2405 -0.1113 -0.9939
  490MOL0     C66044   0.645   3.895  10.305 -0.2207 -0.7170 -0.4972
  490MOL0     C66045   0.550   3.940  10.418  0.0814  0.1214 -0.7993
  490MOL0     O66046   0.443   4.006  10.371 -0.1870 -0.0543  0.1877
  490MOL0     C66047   0.343   4.056  10.450 -0.1387  0.5046  0.6931
  490MOL0     C66048   0.234   4.105  10.378  0.2871  0.2264  0.4489
  490MOL0     C66049   0.110   4.133  10.436 -0.9758 -0.1707  0.3234
  490MOL0     C66050   0.100   4.130  10.567  0.8602  0.0230  0.4222
  490MOL0     O66051  -0.024   4.163  10.617  0.1038 -0.1895 -0.0737
  490MOL0     C66052  -0.078   4.096  10.736 -0.1744 -0.0506  0.6922
  490MOL0     C66053  -0.095   3.952  10.699 -0.3431  0.8010  0.5742
  490MOL0     C66054  -0.240   3.936  10.642  0.5549  0.4894 -0.0839
  490MOL0     C66055  -0.253   3.794  10.597  0.4962 -0.0224  0.0384
  490MOL0     C66056  -0.362   3.783  10.494  0.0205  0.1267 -0.0682
  490MOL0     C66057  -0.396   3.632  10.474 -0.8070 -0.3396  0.3664
  490MOL0     C66058  -0.485   3.592  10.361  0.3884  0.3669  0.1698
  490MOL0     C66059  -0.494   3.431  10.351  0.0217 -0.2073  0.5021
  490MOL0    Cl66060  -0.600   3.412  10.206  0.2814  0.4311  0.1616
  490MOL0     C66061   0.213   4.103  10.651  0.5682  0.1999  0.7788
  490MOL0     C66062   0.335   4.062  10.589  0.4866 -0.0207 -0.2800
  490MOL0     O66063   0.568   3.903  10.533  0.2578 -0.4189  0.1380
  490MOL0     C66064   0.637   3.961  10.175 -0.1411 -0.7643 -0.1503
  490MOL0     C66065   0.725   3.927  10.073 -0.3404 -0.7911 -0.8235
  490MOL0     N66066   1.429   4.044   9.980 -0.9001  0.3724 -1.1477
  490MOL0     N66067   1.508   4.121  10.048 -0.2428 -0.0074  0.0218
  490MOL0     C66068   1.502   4.997  10.954  0.8078  0.5938 -0.2372
  490MOL0     C66069   1.571   5.108  10.989 -0.4644  0.0288  0.6172
  490MOL0     C66070   1.972   5.366  10.962  0.0855 -0.5599 -0.6023
  490MOL0     C66071   2.115   5.353  10.962  0.9717 -0.9755 -0.0861
  490MOL0     C66072   2.194   5.461  11.008 -0.0850 -0.4555 -0.7565
  490MOL0     C66073   2.146   5.584  11.039  0.1184  0.3781  0.0590
  490MOL0     O66074   2.212   5.708  11.066  0.3807 -0.1759  0.1077
  490MOL0     C66075   2.353   5.708  11.066  0.8466  0.9643 -0.0229
  490MOL0     C66076   2.412   5.668  10.926 -0.3399 -0.6354 -1.0780
  490MOL0     C66077   2.535   5.745  10.879  0.1752  0.3496 -0.6792
  490MOL0     C66078   2.664   5.710  10.956 -0.3131 -0.3727  0.4975
  490MOL0     C66079   2.705   5.575  10.906  1.0467 -1.6149  0.9160
  490MOL0     C66080   2.729   5.465  10.864  0.2397  0.7524  0.0758
  490MOL0     C66081   2.002   5.607  11.037  0.6126  0.9546 -0.1561
  490MOL0     C66082   1.918   5.494  11.001  0.6562 -0.3233  0.0892
  490MOL0     H66083   1.733   5.154  10.700 -0.7027 -0.3032 -0.3680
  490MOL0     H66084   1.602   4.966  10.628  2.8703  1.5214  0.0217
  490MOL0     H66085   1.376   4.764  10.641  0.4551 -1.6144 -1.2219
  490MOL0     H66086   1.546   4.759  10.635 -0.6809  0.5628 -0.0593
  490MOL0     H66087   1.542   4.559  10.773 -0.3623  0.2455  0.3694
  490MOL0     H66088   1.371   4.569  10.800  2.0573  1.1931  2.0763
  490MOL0     H66089   1.307   4.531  10.571 -0.3094  1.3458  2.7192
  490MOL0     H66090   1.457   4.541  10.504 -3.0878 -1.0449 -0.9406
  490MOL0     H66091   1.507   4.327  10.678  0.2049 -0.6665  0.1930
  490MOL0     H66092   1.328   4.340  10.708  1.8986  1.4029  2.6548
  490MOL0     H66093   1.364   4.161  10.532  0.7888 -0.5449 -0.8659
  490MOL0     H66094   1.268   4.306  10.486 -0.3325  0.8167  2.1504
  490MOL0     H66095   1.565   4.304  10.419 -0.1954 -0.9653 -0.9123
  490MOL0     H66096   1.469   4.179  10.352  0.6004 -1.1188  1.9709
  490MOL0     H66097   1.314   4.363  10.250 -0.0462 -1.0319  0.6114
  490MOL0     H66098   1.435   4.473  10.319  0.8630 -0.4103  1.9037
  490MOL0     H66099   1.608   4.346  10.170 -0.0438  2.3393 -0.2676
  490MOL0     H66100   1.500   4.447  10.091  1.1771 -0.0026  0.8322
  490MOL0     H66101   1.261   4.319   9.980  1.1337  0.9511 -2.1758
  490MOL0     H66102   1.116   4.117   9.866 -0.1161 -0.0488 -1.5453
  490MOL0     H66103   1.241   4.079   9.752 -1.4157  1.6611 -0.1027
  490MOL0     H66104   1.157   3.915  10.000 -0.3963  1.6941  0.1000
  490MOL0     H66105   1.262   3.856   9.868 -0.2900  0.5366 -1.6028
  490MOL0     H66106   1.075   3.755   9.829 -1.2536 -0.4653 -2.4351
  490MOL0     H66107   1.067   3.893   9.715  0.2711  1.6647  0.7370
  490MOL0     H66108   0.851   3.891   9.810 -0.5616  0.3909  1.2852
  490MOL0     H66109   0.928   4.004   9.916  4.9216  0.2690 -0.7125
  490MOL0     H66110   0.906   3.694  10.228  0.1308 -0.1366  1.4766
  490MOL0     H66111   0.677   3.691  10.499 -1.3440  3.5428 -0.3386
  490MOL0     H66112   0.849   3.661  10.450  1.4301  0.9422  1.1070
  490MOL0     H66113   0.801   3.804  10.534  2.4339  1.5756 -3.2935
  490MOL0     H66114   0.242   4.105  10.270 -0.9952 -2.0423  0.2908
  490MOL0     H66115   0.017   4.163  10.389  0.0063  2.5868  0.0022
  490MOL0     H66116  -0.019   4.107  10.828 -1.5575  1.7281  1.4282
  490MOL0     H66117  -0.169   4.147  10.769  0.6608  1.8383  0.2135
  490MOL0     H66118  -0.025   3.917  10.623 -0.9602 -0.1083  0.3988
  490MOL0     H66119  -0.079   3.882  10.782  0.0903 -0.9521 -0.9071
  490MOL0     H66120  -0.263   4.013  10.567 -1.3624 -0.0779 -0.1290
  490MOL0     H66121  -0.306   3.946  10.729  0.7627 -2.4699  0.4992
  490MOL0     H66122  -0.163   3.761  10.543 -0.6209 -2.1952 -0.6253
  490MOL0     H66123  -0.280   3.728  10.679  1.2171 -1.5774 -0.9249
  490MOL0     H66124  -0.343   3.830  10.397 -0.4654  0.3547 -0.0528
  490MOL0     H66125  -0.456   3.816  10.537 -1.1231 -2.8866 -0.0225
  490MOL0     H66126  -0.302   3.579  10.454 -1.4087 -1.1904 -0.2718
  490MOL0     H66127  -0.431   3.588  10.567 -0.9987 -1.3622 -0.1808
  490MOL0     H66128  -0.440   3.629  10.268 -1.1588 -2.4949 -1.8595
  490MOL0     H66129  -0.589   3.624  10.369 -0.0973 -1.5831  3.1906
  490MOL0     H66130  -0.543   3.392  10.441 -0.1413 -2.7822 -0.6145
  490MOL0     H66131  -0.402   3.377  10.327 -0.4958 -0.6148 -0.6305
  490MOL0     H66132   0.188   4.102  10.756 -1.2077  1.1549  0.4051
  490MOL0     H66133   0.412   4.028  10.658  0.7577  2.1652  0.5863
  490MOL0     H66134   0.568   4.041  10.150 -1.2043 -1.7042 -0.2847
  490MOL0     H66135   0.719   3.997   9.991  1.3467 -0.3285 -0.5881
  490MOL0     H66136   1.433   4.955  11.027  0.1719  3.2123  0.8039
  490MOL0     H66137   1.576   5.136  11.094  1.7783  1.7971  0.1077
  490MOL0     H66138   2.158   5.260  10.926  2.4986 -0.7010  0.9712
  490MOL0     H66139   2.301   5.443  11.006  0.3408  1.8125 -1.0204
  490MOL0     H66140   2.385   5.811  11.077 -1.4712  1.9853 -1.9137
  490MOL0     H66141   2.389   5.651  11.152 -0.9417 -0.7051 -0.2957
  490MOL0     H66142   2.345   5.704  10.847  1.9880  0.4858 -2.6223
  490MOL0     H66143   2.437   5.562  10.918  2.7944  0.0327 -1.1416
  490MOL0     H66144   2.525   5.853  10.892  2.0166  0.3453  1.3727
  490MOL0     H66145   2.531   5.726  10.771 -1.1404 -1.1772 -0.4045
  490MOL0     H66146   2.649   5.708  11.064 -2.2711 -1.1373  0.2517
  490MOL0     H66147   2.738   5.790  10.946 -0.5779 -0.0681  0.9919
  490MOL0     H66148   2.742   5.369  10.817 -0.6133 -0.0169  1.3601
  490MOL0     H66149   1.959   5.706  11.047  0.3333  0.7108  1.2753
  490MOL0     H66150   1.812   5.516  10.999  0.3334 -1.7738 -0.1070
  491MOL0     O66151   5.365  10.035   7.574  0.0636 -0.2703  0.6292
  491MOL0     C66152   5.446  10.131   7.567 -0.4645  0.4667 -0.1520
  491MOL0     O66153   5.419  10.264   7.595  0.4149  0.7553 -0.7577
  491MOL0     C66154   5.290  10.301   7.607  0.5492  0.4517 -0.1317
  491MOL0     C66155   5.258  10.390   7.703 -0.0457 -0.4836 -0.4476
  491MOL0     C66156   5.129  10.432   7.721  0.1546  0.0954  0.3647
  491MOL0     C66157   5.029  10.398   7.622  0.7173  0.3183 -0.0172
  491MOL0     O66158   4.902  10.453   7.652  0.4162 -0.2645 -0.7753
  491MOL0     C66159   4.785  10.404   7.591 -0.2628  0.2583 -0.2800
  491MOL0     C66160   4.659  10.459   7.677 -0.0884  0.3328  0.2568
  491MOL0     C66161   4.517  10.413   7.636 -0.4938  0.2393  0.7461
  491MOL0     C66162   4.408  10.472   7.720  0.6528 -0.1664 -0.6912
  491MOL0     C66163   4.265  10.444   7.654  0.1450  0.7250 -0.0359
  491MOL0     C66164   4.149  10.506   7.738  0.9164  0.5007  0.4724
  491MOL0     C66165   4.012  10.481   7.669  1.1860 -0.1167  0.2756
  491MOL0     C66166   3.908  10.575   7.745  0.0983  0.3596  0.3731
  491MOL0     N66167   3.781  10.583   7.667 -0.3023  0.0384 -0.7676
  491MOL0     C66168   3.749  10.659   7.562  0.0035 -0.0356  0.2244
  491MOL0     C66169   3.621  10.625   7.522 -0.4787  0.3413 -0.0459
  491MOL0     C66170   3.539  10.676   7.407  0.0284  0.7750 -0.3022
  491MOL0     C66171   3.538  10.829   7.392 -0.0173  0.7417 -0.3300
  491MOL0     C66172   3.446  10.894   7.499  0.3285 -0.1413 -0.0899
  491MOL0     C66173   3.299  10.842   7.481 -0.3088  0.0440  0.4271
  491MOL0     O66174   3.220  10.933   7.551 -0.0353 -0.4691  1.0911
  491MOL0     C66175   3.086  10.947   7.514  0.3318  0.7385 -0.6548
  491MOL0     C66176   3.025  11.067   7.554  0.0514 -0.4630  0.6529
  491MOL0     C66177   2.891  11.095   7.529 -0.7054  0.7737 -0.1865
  491MOL0     C66178   2.839  11.214   7.592  0.2492  0.0280 -0.0651
  491MOL0     C66179   2.817  11.007   7.450 -0.5659  0.7337  0.1339
  491MOL0     C66180   2.671  11.023   7.397  0.1623  0.2196  0.9193
  491MOL0     O66181   2.599  10.911   7.387  0.6273  0.7683 -0.7833
  491MOL0     C66182   2.459  10.901   7.386  0.4702 -0.3278  0.4809
  491MOL0     C66183   2.404  10.771   7.405  0.5224 -0.3813  0.0638
  491MOL0     C66184   2.263  10.754   7.410 -0.1739 -0.7661  0.0137
  491MOL0     C66185   2.175  10.865   7.407 -0.4023  1.2454 -1.0022
  491MOL0     O66186   2.044  10.826   7.427 -0.5834 -0.1010  0.0403
  491MOL0     C66187   1.934  10.905   7.374 -0.5166 -0.3607  0.1976
  491MOL0     C66188   1.810  10.839   7.422 -1.1104 -0.4216 -0.0739
  491MOL0     C66189   1.687  10.914   7.374  0.8955 -0.3902  0.5044
  491MOL0     C66190   1.557  10.835   7.383 -0.1705 -0.0518  0.0367
  491MOL0     C66191   1.437  10.911   7.321 -0.6511  0.2151  0.1137
  491MOL0     C66192   1.310  10.821   7.321  0.5278  0.4485 -0.0232
  491MOL0     C66193   1.207  10.902   7.242 -0.4302  0.3477 -0.7767
  491MOL0     C66194   1.063  10.847   7.261 -0.6695  0.5551  0.1213
  491MOL0    Cl66195   0.970  10.956   7.155 -0.2810 -0.3139 -0.5090
  491MOL0     C66196   2.229  10.992   7.386  0.3454  0.0097  0.3806
  491MOL0     C66197   2.370  11.010   7.375 -0.6533  0.0051 -0.4499
  491MOL0     O66198   2.637  11.129   7.347 -0.6653 -0.0868  0.2794
  491MOL0     C66199   2.881  10.890   7.395 -0.2647 -0.7869 -0.0438
  491MOL0     C66200   3.012  10.862   7.432  0.3744  0.4120  0.1812
  491MOL0     N66201   3.580  10.533   7.619  0.1976  0.4925  0.2749
  491MOL0     N66202   3.673  10.502   7.694 -0.0572  0.5478 -0.4600
  491MOL0     C66203   5.052  10.313   7.517  0.1391  1.6872 -0.5309
  491MOL0     C66204   5.183  10.254   7.513 -0.6325  0.3963  0.0513
  491MOL0     C66205   5.583  10.099   7.514  0.0296 -0.2743  0.7716
  491MOL0     C66206   5.625   9.964   7.491  0.8557  0.2746  0.7335
  491MOL0     C66207   5.760   9.937   7.467 -0.3809 -0.0598  0.1885
  491MOL0     C66208   5.857  10.041   7.450 -0.0470 -0.4779 -0.0365
  491MOL0     O66209   5.989  10.020   7.421  0.6371  0.0126  0.2448
  491MOL0     C66210   6.021   9.886   7.427 -0.1382  0.4147  0.3324
  491MOL0     C66211   6.175   9.871   7.387  0.3660  0.0317  0.4178
  491MOL0     C66212   6.227   9.733   7.375  0.5840  0.3073  0.2839
  491MOL0     C66213   6.386   9.728   7.364  0.1120 -0.6770 -0.5961
  491MOL0     C66214   6.461   9.611   7.420  0.5396 -0.2893 -1.1700
  491MOL0     C66215   6.529   9.518   7.447 -0.8366 -0.6496 -0.8473
  491MOL0     C66216   5.815  10.173   7.467 -0.4600  0.2321  0.2842
  491MOL0     C66217   5.683  10.195   7.495  0.4214 -0.2999  1.0758
  491MOL0     H66218   5.334  10.416   7.776  0.1707  2.3131 -1.5301
  491MOL0     H66219   5.104  10.495   7.807  1.1079 -1.0585  1.5403
  491MOL0     H66220   4.766  10.434   7.487 -0.8142  0.0005 -0.2574
  491MOL0     H66221   4.778  10.295   7.593  0.6340  0.1776 -0.9482
  491MOL0     H66222   4.669  10.408   7.773 -0.9175  1.0326  0.7263
  491MOL0     H66223   4.665  10.567   7.693  2.3495  0.2236  0.5499
  491MOL0     H66224   4.503  10.433   7.530 -0.3665 -0.9539  0.4907
  491MOL0     H66225   4.513  10.307   7.659 -4.0146  0.7962  3.4989
  491MOL0     H66226   4.416  10.427   7.819  0.4237 -0.1812 -0.6795
  491MOL0     H66227   4.418  10.581   7.726  0.4958 -0.2257  1.0032
  491MOL0     H66228   4.262  10.495   7.557  1.4981 -1.8797 -1.5354
  491MOL0     H66229   4.262  10.337   7.630  1.7109  1.0457 -1.8957
  491MOL0     H66230   4.153  10.467   7.840 -2.6151 -1.4267  0.0602
  491MOL0     H66231   4.171  10.613   7.738  0.6211  0.6037  2.4416
  491MOL0     H66232   4.014  10.506   7.562  3.3460 -2.0114 -0.1983
  491MOL0     H66233   3.991  10.374   7.681  3.7337 -0.6540  0.5382
  491MOL0     H66234   3.943  10.675   7.770  1.3074 -0.1410  0.7548
  491MOL0     H66235   3.886  10.529   7.842 -1.5111 -0.8263 -0.5018
  491MOL0     H66236   3.819  10.725   7.512  3.2401 -2.7563  0.7971
  491MOL0     H66237   3.581  10.625   7.320  1.4306 -1.6638  1.6438
  491MOL0     H66238   3.443  10.624   7.406  0.8717 -0.9991  1.8591
  491MOL0     H66239   3.501  10.859   7.294 -2.5807  2.4360  1.0389
  491MOL0     H66240   3.640  10.867   7.403  0.1765  0.9201 -2.3401
  491MOL0     H66241   3.450  11.001   7.476  0.2163 -0.5799 -2.4978
  491MOL0     H66242   3.487  10.881   7.599  3.4339 -0.4957 -1.2783
  491MOL0     H66243   3.286  10.742   7.524  0.6400 -0.3208 -0.0896
  491MOL0     H66244   3.280  10.845   7.373  1.4784  0.5615  0.0980
  491MOL0     H66245   3.093  11.127   7.613 -2.2608  1.6414  1.3759
  491MOL0     H66246   2.894  11.234   7.685  0.9340  1.0689 -0.6840
  491MOL0     H66247   2.834  11.304   7.531 -0.8097  0.9027  1.2492
  491MOL0     H66248   2.737  11.188   7.622 -1.3232  0.3215 -4.5229
  491MOL0     H66249   2.467  10.685   7.422 -2.1420 -2.6784 -0.9884
  491MOL0     H66250   2.217  10.659   7.432 -1.0866 -0.1592  0.7978
  491MOL0     H66251   1.929  11.005   7.418  0.2538 -0.5097  0.6513
  491MOL0     H66252   1.952  10.918   7.266  1.5431 -0.3452  0.5015
  491MOL0     H66253   1.804  10.733   7.395 -0.3889 -0.6451  0.6071
  491MOL0     H66254   1.809  10.833   7.531 -3.2938 -1.3109 -0.1144
  491MOL0     H66255   1.706  10.924   7.267  1.2559  0.6644  0.6553
  491MOL0     H66256   1.670  11.017   7.405 -1.7918  0.0551 -1.9501
  491MOL0     H66257   1.581  10.746   7.324  0.0448 -0.1119  0.2119
  491MOL0     H66258   1.542  10.810   7.489 -0.6864  2.8763  0.7413
  491MOL0     H66259   1.463  10.941   7.218  1.3754  0.3273  0.6124
  491MOL0     H66260   1.423  11.006   7.373  1.6570  0.4484  0.4418
  491MOL0     H66261   1.325  10.726   7.268 -1.2421  0.0860  0.0724
  491MOL0     H66262   1.273  10.802   7.422 -0.4834  2.0779 -0.0533
  491MOL0     H66263   1.221  10.897   7.133  0.8708 -2.2268 -0.5690
  491MOL0     H66264   1.212  11.005   7.279  0.6158  0.6078 -1.5747
  491MOL0     H66265   1.013  10.853   7.359 -0.6262  2.0768  0.0761
  491MOL0     H66266   1.050  10.744   7.227  0.7709  1.1326 -2.4278
  491MOL0     H66267   2.163  11.077   7.375  1.5983  1.0839  0.8704
  491MOL0     H66268   2.416  11.108   7.366 -0.1463 -0.3710 -2.4878
  491MOL0     H66269   2.835  10.813   7.334  1.8759 -2.0190 -0.1780
  491MOL0     H66270   3.064  10.770   7.407  1.1544 -0.9541  5.6019
  491MOL0     H66271   4.968  10.274   7.459 -0.5569  0.8941  0.9393
  491MOL0     H66272   5.202  10.188   7.429  1.3341  0.0775  0.6807
  491MOL0     H66273   5.557   9.881   7.505  0.4603  0.6529  1.0735
  491MOL0     H66274   5.791   9.833   7.464  2.3284  0.5583  2.6399
  491MOL0     H66275   6.007   9.848   7.529  2.2070 -2.1060 -0.1568
  491MOL0     H66276   5.965   9.844   7.343  1.9098 -1.9718  0.0212
  491MOL0     H66277   6.239   9.918   7.462  2.2941  2.3477 -2.4499
  491MOL0     H66278   6.186   9.927   7.293  0.8349  1.4221  1.2646
  491MOL0     H66279   6.201   9.688   7.279  4.6896  3.7543 -2.8897
  491MOL0     H66280   6.187   9.677   7.460  0.8559 -1.3529 -0.6444
  491MOL0     H66281   6.427   9.816   7.414  3.2664 -0.4657 -3.2687
  491MOL0     H66282   6.403   9.737   7.257  0.3459  0.0059 -0.5009
  491MOL0     H66283   6.586   9.437   7.487  1.3450  1.0874 -0.2464
  491MOL0     H66284   5.901  10.240   7.465 -1.0930  1.1401 -3.4961
  491MOL0     H66285   5.655  10.299   7.510  1.4579 -0.3658  3.9748
  492MOL0     O66286  10.238   9.708   3.473 -0.2030  0.0480  0.9655
  492MOL0     C66287  10.175   9.607   3.442  0.0706 -0.4699 -0.5832
  492MOL0     O66288  10.036   9.608   3.439 -0.4312  0.3332 -0.4843
  492MOL0     C66289   9.975   9.731   3.446  0.2623  0.2695 -0.6036
  492MOL0     C66290   9.951   9.790   3.568  0.5526 -0.1545  0.1911
  492MOL0     C66291   9.892   9.916   3.570 -0.2513 -0.5816 -0.3318
  492MOL0     C66292   9.862   9.982   3.449 -0.8183  0.2123  0.2400
  492MOL0     O66293   9.813  10.114   3.446 -0.4628  1.0941  0.6264
  492MOL0     C66294   9.760  10.169   3.559  0.9725 -0.3602  1.2546
  492MOL0     C66295   9.695  10.306   3.544 -0.1104  0.5903  0.2226
  492MOL0     C66296   9.542  10.307   3.556 -0.1880 -0.0413 -0.5717
  492MOL0     C66297   9.486  10.312   3.707 -0.9650  0.1317  0.2767
  492MOL0     C66298   9.334  10.312   3.702  0.4696 -0.6494 -0.9932
  492MOL0     C66299   9.279  10.434   3.634 -0.1383  0.3765 -0.3124
  492MOL0     C66300   9.307  10.560   3.712  0.2368 -0.1907  0.0714
  492MOL0     C66301   9.317  10.677   3.611  0.4336  0.0602 -0.3326
  492MOL0     N66302   9.177  10.714   3.587 -0.1168  0.5453 -0.3244
  492MOL0     C66303   9.101  10.683   3.483  0.4245  0.2074  0.2292
  492MOL0     C66304   8.986  10.749   3.500 -0.4400  0.0514  1.0421
  492MOL0     C66305   8.864  10.732   3.419  0.1564  0.5395  0.7635
  492MOL0     C66306   8.744  10.808   3.478 -0.4551  0.5048  0.3165
  492MOL0     C66307   8.614  10.744   3.431 -0.7498  0.4367 -0.0350
  492MOL0     C66308   8.491  10.813   3.483 -0.5265  0.6279  0.5023
  492MOL0     O66309   8.383  10.772   3.399  0.1524 -0.3825  0.0181
  492MOL0     C66310   8.248  10.807   3.435 -0.0124  0.1698  0.1161
  492MOL0     C66311   8.219  10.882   3.550  0.5098 -0.0180  0.1654
  492MOL0     C66312   8.085  10.908   3.582 -0.4149  0.2493 -0.9011
  492MOL0     C66313   8.055  11.010   3.688  0.6251 -0.0532 -0.4088
  492MOL0     C66314   7.980  10.842   3.502  0.8307 -0.0901 -0.0012
  492MOL0     C66315   7.832  10.857   3.523  0.7949 -0.3874  0.7952
  492MOL0     O66316   7.749  10.763   3.469  0.1095 -0.0311 -0.0576
  492MOL0     C66317   7.617  10.790   3.489  0.1490  0.0375  1.0949
  492MOL0     C66318   7.554  10.904   3.429  0.4348 -0.0912  0.0147
  492MOL0     C66319   7.426  10.946   3.471 -0.1111  0.5013  0.5234
  492MOL0     C66320   7.348  10.863   3.549 -0.1906  0.1029  0.8170
  492MOL0     O66321   7.229  10.924   3.579 -0.0594 -0.2318 -0.1309
  492MOL0     C66322   7.136  10.844   3.645  0.1768 -0.2972 -1.0224
  492MOL0     C66323   7.005  10.925   3.648 -0.7526 -0.6816  0.6923
  492MOL0     C66324   6.935  10.930   3.517 -0.0322  0.6849 -0.3074
  492MOL0     C66325   6.831  11.037   3.514  0.7922  0.4050 -0.1234
  492MOL0     C66326   6.697  10.988   3.565  0.0368  0.5249 -0.6781
  492MOL0     C66327   6.604  11.098   3.597  0.2674  1.1504 -0.5852
  492MOL0     C66328   6.457  11.055   3.608 -0.2837  0.5117  0.6829
  492MOL0     C66329   6.369  11.166   3.674  0.5520  0.6105 -0.3835
  492MOL0    Cl66330   6.212  11.097   3.726 -0.2728 -0.3946 -0.3808
  492MOL0     C66331   7.405  10.736   3.594 -0.3081  0.2510 -0.3123
  492MOL0     C66332   7.539  10.707   3.562 -0.2789  0.0700 -0.7105
  492MOL0     O66333   7.797  10.966   3.572 -0.1218 -0.3056  0.9290
  492MOL0     C66334   8.018  10.767   3.391  0.6016  0.3486 -1.3152
  492MOL0     C66335   8.146  10.762   3.352 -1.2478  0.3365  0.4872
  492MOL0     N66336   8.998  10.828   3.611  0.2057  0.0179  0.2398
  492MOL0     N66337   9.116  10.800   3.661  0.5271 -0.4933  0.0019
  492MOL0     C66338   9.882   9.915   3.320 -0.7896  0.6437 -0.7517
  492MOL0     C66339   9.947   9.790   3.322 -0.1249  0.4841  0.4096
  492MOL0     C66340  10.248   9.480   3.412 -0.7555  0.3044 -0.8122
  492MOL0     C66341  10.386   9.477   3.421 -0.5028  0.3163  0.1161
  492MOL0     C66342  10.454   9.355   3.408 -0.7531 -0.8072  0.0562
  492MOL0     C66343  10.387   9.238   3.372 -0.4645 -0.6476  0.3775
  492MOL0     O66344  10.470   9.128   3.363  0.2629 -0.2524 -0.1277
  492MOL0     C66345  10.422   9.027   3.271 -0.0177  0.5452 -0.8762
  492MOL0     C66346  10.410   8.894   3.333  0.5350  0.5442  0.1132
  492MOL0     C66347  10.316   8.902   3.450 -0.4026 -0.4458 -0.1603
  492MOL0     C66348  10.291   8.763   3.514 -0.5293  0.3084  0.7346
  492MOL0     C66349  10.398   8.728   3.604  0.3314  0.3767 -0.8381
  492MOL0     C66350  10.486   8.683   3.674 -0.1537  0.7045 -0.1546
  492MOL0     C66351  10.250   9.243   3.346  0.9012 -0.3457 -0.0498
  492MOL0     C66352  10.183   9.365   3.377 -0.1837 -0.0009  0.4277
  492MOL0     H66353   9.972   9.734   3.658 -2.5932  0.4325  1.4057
  492MOL0     H66354   9.863   9.970   3.660  2.3808 -0.1565  0.3253
  492MOL0     H66355   9.686  10.104   3.605 -1.4178  1.8801  0.8434
  492MOL0     H66356   9.839  10.189   3.633  1.3462  0.7294  0.5928
  492MOL0     H66357   9.743  10.385   3.603  1.4319  1.9690 -2.6762
  492MOL0     H66358   9.724  10.348   3.448  0.3386  0.7434  0.4189
  492MOL0     H66359   9.520  10.409   3.524 -1.6174 -0.7263 -1.9294
  492MOL0     H66360   9.493  10.232   3.492 -2.2704 -0.0447  0.9207
  492MOL0     H66361   9.506  10.216   3.755  0.9494  0.8136  0.9613
  492MOL0     H66362   9.538  10.399   3.750  0.7855 -0.0852 -1.2977
  492MOL0     H66363   9.304  10.225   3.644 -1.7702 -0.2423 -0.5232
  492MOL0     H66364   9.304  10.313   3.807 -1.3981 -0.3589 -1.4998
  492MOL0     H66365   9.319  10.441   3.532  0.8149 -0.4309 -0.0186
  492MOL0     H66366   9.170  10.435   3.629 -0.7831  0.6352  5.6769
  492MOL0     H66367   9.228  10.573   3.786  0.2879  1.2393 -0.0935
  492MOL0     H66368   9.401  10.550   3.768  0.0945 -0.4673  0.2680
  492MOL0     H66369   9.361  10.655   3.513 -1.7280  2.6559 -2.0789
  492MOL0     H66370   9.367  10.766   3.651 -2.4123  1.5191  0.2215
  492MOL0     H66371   9.129  10.617   3.402 -0.1385  0.6914 -0.3711
  492MOL0     H66372   8.884  10.772   3.319 -2.4927  1.5737  0.5677
  492MOL0     H66373   8.833  10.628   3.405  0.7141  0.1316  2.4295
  492MOL0     H66374   8.742  10.911   3.444  2.0961  0.3972 -0.3846
  492MOL0     H66375   8.738  10.799   3.587  0.9652  2.5579  0.6188
  492MOL0     H66376   8.612  10.640   3.463  1.1282  0.4490  0.2458
  492MOL0     H66377   8.622  10.749   3.322  0.3919  0.3905  0.0315
  492MOL0     H66378   8.497  10.922   3.489  1.6619  0.5014  1.7048
  492MOL0     H66379   8.470  10.784   3.587 -0.5312 -2.3686 -0.2504
  492MOL0     H66380   8.291  10.938   3.610 -1.0750  0.5885  1.5769
  492MOL0     H66381   8.148  11.055   3.725 -0.2862  0.3510  1.5560
  492MOL0     H66382   7.998  11.096   3.653 -2.2828 -0.3833  2.9701
  492MOL0     H66383   7.990  10.964   3.763  0.5106 -0.2201 -0.6107
  492MOL0     H66384   7.607  10.963   3.355  2.2216 -1.9620 -0.2859
  492MOL0     H66385   7.386  11.040   3.435  1.4436  1.5934  1.5041
  492MOL0     H66386   7.121  10.749   3.593  1.0108 -1.3022  0.4950
  492MOL0     H66387   7.166  10.819   3.747 -1.1472  0.9003 -0.2962
  492MOL0     H66388   6.941  10.884   3.727 -0.5237 -1.3222  0.5495
  492MOL0     H66389   7.025  11.027   3.682 -0.7815  0.4619 -2.3764
  492MOL0     H66390   6.883  10.834   3.507 -1.1301  0.3822  5.2317
  492MOL0     H66391   7.012  10.949   3.441 -0.1170  0.3422 -0.4801
  492MOL0     H66392   6.862  11.132   3.559 -2.5049  1.6099 -0.1297
  492MOL0     H66393   6.822  11.066   3.409  0.3367 -1.9782 -0.7968
  492MOL0     H66394   6.710  10.931   3.658 -0.0714 -1.0291 -1.5803
  492MOL0     H66395   6.646  10.931   3.487 -3.8796  0.9348  1.3372
  492MOL0     H66396   6.650  11.157   3.677 -0.2774  1.9754 -0.8640
  492MOL0     H66397   6.591  11.151   3.502 -0.9607  0.4909 -0.8099
  492MOL0     H66398   6.467  10.971   3.677  2.4951 -1.1662 -1.5428
  492MOL0     H66399   6.420  11.012   3.515  0.2412  0.3676  0.5420
  492MOL0     H66400   6.355  11.246   3.600 -0.5812 -1.2707 -2.2997
  492MOL0     H66401   6.416  11.202   3.766  0.1308 -0.6874  0.3697
  492MOL0     H66402   7.340  10.675   3.656 -0.3185 -1.1360 -1.6337
  492MOL0     H66403   7.584  10.619   3.609  2.6111  1.6030 -0.3939
  492MOL0     H66404   7.946  10.732   3.317 -1.2262  1.8477 -0.3558
  492MOL0     H66405   8.185  10.696   3.275 -0.8450 -0.5364  1.4234
  492MOL0     H66406   9.849   9.962   3.228 -4.4686 -0.6281 -0.2556
  492MOL0     H66407   9.969   9.726   3.238 -1.5382  0.7233 -0.1644
  492MOL0     H66408  10.436   9.569   3.450 -0.4055  0.2495  0.1600
  492MOL0     H66409  10.562   9.348   3.417 -0.8090  0.2162  2.3331
  492MOL0     H66410  10.326   9.050   3.223 -1.4295 -1.2315  0.9258
  492MOL0     H66411  10.497   9.022   3.192 -0.3425  0.7403 -1.2001
  492MOL0     H66412  10.512   8.860   3.356  0.1950  0.0291  0.9257
  492MOL0     H66413  10.381   8.833   3.247  0.0391  3.4585 -1.9290
  492MOL0     H66414  10.219   8.939   3.418  0.5474  1.7498 -0.7005
  492MOL0     H66415  10.350   8.981   3.517  0.9474 -1.1191 -0.0141
  492MOL0     H66416  10.287   8.690   3.432 -2.3255 -1.6749  2.4677
  492MOL0     H66417  10.195   8.760   3.566 -1.4088  0.5470 -0.7900
  492MOL0     H66418  10.562   8.624   3.721 -0.3108 -1.4047 -2.3401
  492MOL0     H66419  10.183   9.160   3.324  0.2092 -0.9686  3.7603
  492MOL0     H66420  10.076   9.368   3.360  0.0639 -0.9684 -1.5077
  493MOL0     O66421  10.292   8.051   9.077 -0.6140  0.8604 -0.7180
  493MOL0     C66422  10.250   8.149   9.020 -0.7594  0.5413 -0.1454
  493MOL0     O66423  10.123   8.167   8.976  0.0586  0.8833 -0.5151
  493MOL0     C66424  10.030   8.071   8.980 -0.1158  0.9227 -0.6457
  493MOL0     C66425  10.045   7.937   8.956 -0.2260  0.2040  0.7388
  493MOL0     C66426   9.932   7.848   8.964  1.2943 -0.0745  0.4902
  493MOL0     C66427   9.805   7.909   8.987  0.0889  0.5613 -0.7757
  493MOL0     O66428   9.697   7.819   9.004 -0.3219 -0.1890  0.5743
  493MOL0     C66429   9.608   7.833   8.902  0.3763 -0.5351  0.0481
  493MOL0     C66430   9.504   7.731   8.922 -0.2664  0.6988 -0.4621
  493MOL0     C66431   9.420   7.752   9.049 -0.1708 -0.5496  1.1986
  493MOL0     C66432   9.304   7.855   9.017  0.1179 -0.5210 -0.6948
  493MOL0     C66433   9.191   7.849   9.126 -0.2770  0.5077 -0.3958
  493MOL0     C66434   9.091   7.966   9.115  0.4426  0.3996  1.2961
  493MOL0     C66435   8.983   7.944   9.222 -0.8492 -0.0670  0.3529
  493MOL0     C66436   8.880   8.062   9.214  0.2609 -0.0285 -0.5154
  493MOL0     N66437   8.775   8.052   9.312 -0.2353  0.5705 -0.0821
  493MOL0     C66438   8.775   8.106   9.441  0.3845  0.1833  0.5316
  493MOL0     C66439   8.648   8.098   9.477  0.2286 -0.7874 -0.6748
  493MOL0     C66440   8.597   8.149   9.609  1.2128  0.1054  0.1784
  493MOL0     C66441   8.496   8.256   9.568  0.4092 -0.3077 -0.5291
  493MOL0     C66442   8.471   8.350   9.690  0.5271  0.1091  0.3386
  493MOL0     C66443   8.322   8.393   9.697  0.2649  0.0213 -0.4099
  493MOL0     O66444   8.322   8.515   9.763 -0.4042  0.3778  0.1700
  493MOL0     C66445   8.199   8.566   9.793 -0.2493 -1.1884 -0.2932
  493MOL0     C66446   8.177   8.623   9.921 -0.1346 -0.2973 -0.4228
  493MOL0     C66447   8.047   8.650   9.980 -0.6100 -0.2414  0.1131
  493MOL0     C66448   8.044   8.679  10.127 -0.4246  0.3826  0.3211
  493MOL0     C66449   7.928   8.629   9.897  0.3495 -0.8025 -0.0175
  493MOL0     C66450   7.785   8.655   9.943  0.1649  0.5272  0.1731
  493MOL0     O66451   7.684   8.628   9.851  0.0694 -0.0784  1.1319
  493MOL0     C66452   7.549   8.678   9.880 -0.3853  0.5781  0.6578
  493MOL0     C66453   7.452   8.610   9.803 -0.0175  0.7343  0.2340
  493MOL0     C66454   7.318   8.633   9.827 -0.2822 -0.4244  0.0779
  493MOL0     C66455   7.273   8.717   9.933 -0.7030 -0.9111  0.5138
  493MOL0     O66456   7.135   8.755   9.945 -0.4715 -0.6535 -0.4560
  493MOL0     C66457   7.034   8.673   9.888 -0.3384 -0.1580 -0.7053
  493MOL0     C66458   7.034   8.518   9.929  0.3043  0.4138 -0.4561
  493MOL0     C66459   6.984   8.485  10.072 -0.4382 -0.2512 -0.7290
  493MOL0     C66460   6.842   8.528  10.115 -0.5193  0.1928 -0.0644
  493MOL0     C66461   6.739   8.454  10.025 -0.5953  0.5277  0.5396
  493MOL0     C66462   6.597   8.496  10.067 -0.0429 -0.0010  0.0501
  493MOL0     C66463   6.505   8.391   9.993 -0.5879 -0.1430  0.2945
  493MOL0     C66464   6.359   8.423  10.030  0.0746  1.1175 -0.1879
  493MOL0    Cl66465   6.243   8.382   9.893 -0.3005  0.0210  0.6731
  493MOL0     C66466   7.367   8.795  10.000 -0.5588  1.4937 -0.7776
  493MOL0     C66467   7.504   8.774   9.978  0.0133  0.1857 -0.3966
  493MOL0     O66468   7.768   8.705  10.056 -0.2243 -0.2231 -0.9208
  493MOL0     C66469   7.950   8.603   9.761  0.1836  0.2122  0.3500
  493MOL0     C66470   8.079   8.567   9.713  0.0195 -0.5678  0.5091
  493MOL0     N66471   8.573   8.037   9.379 -0.2197  0.3165 -0.5391
  493MOL0     N66472   8.650   8.014   9.273  0.3221  0.1275  0.0547
  493MOL0     C66473   9.793   8.046   9.000 -0.4327  0.1349  0.2508
  493MOL0     C66474   9.898   8.130   8.999 -0.4178 -0.5279  0.1535
  493MOL0     C66475  10.351   8.253   9.003 -0.1075  0.5600 -0.3500
  493MOL0     C66476  10.312   8.369   8.935 -0.1853 -0.5667 -0.0325
  493MOL0     C66477  10.384   8.487   8.916 -0.3994 -0.4873 -0.4647
  493MOL0     C66478  10.517   8.482   8.946  0.3541  0.0275 -0.0018
  493MOL0     O66479  10.592   8.594   8.914 -0.1826  0.1313 -1.0262
  493MOL0     C66480  10.727   8.592   8.961  0.2356 -0.4262  0.6046
  493MOL0     C66481  10.796   8.718   8.906 -0.8548 -0.6358  0.7494
  493MOL0     C66482  10.944   8.729   8.956 -0.3626 -0.9092  0.4499
  493MOL0     C66483  10.997   8.864   8.929 -0.2522 -0.1049  0.6957
  493MOL0     C66484  11.135   8.860   8.944  0.4238 -0.6124  0.1101
  493MOL0     C66485  11.255   8.842   8.968 -0.2687 -0.1848  0.3492
  493MOL0     C66486  10.562   8.367   9.013 -0.2912  0.0279  0.0601
  493MOL0     C66487  10.480   8.255   9.055 -0.8595  0.9426  0.0334
  493MOL0     H66488  10.146   7.900   8.940 -0.7353 -1.0067  0.1981
  493MOL0     H66489   9.951   7.743   8.945  6.0338  0.2272  2.2068
  493MOL0     H66490   9.553   7.927   8.894 -0.9267 -1.1533  1.3470
  493MOL0     H66491   9.640   7.811   8.799 -2.9022 -1.1687 -0.9687
  493MOL0     H66492   9.442   7.738   8.832  0.2439  0.7734 -0.8104
  493MOL0     H66493   9.552   7.634   8.941 -0.3652  1.0000  1.5125
  493MOL0     H66494   9.389   7.650   9.073 -1.5289  0.0545  2.0926
  493MOL0     H66495   9.479   7.796   9.130 -0.4491  3.6591 -0.6373
  493MOL0     H66496   9.348   7.954   9.016  2.7434 -1.5401  1.7934
  493MOL0     H66497   9.257   7.846   8.918 -3.3636 -1.9991  0.8830
  493MOL0     H66498   9.139   7.752   9.120  0.1827  0.2032  0.4158
  493MOL0     H66499   9.225   7.857   9.229 -1.1098 -1.1503  0.0499
  493MOL0     H66500   9.144   8.061   9.122 -1.7750  1.7266  0.6944
  493MOL0     H66501   9.043   7.964   9.017 -0.5392 -0.1438  1.7732
  493MOL0     H66502   8.933   7.846   9.217 -1.9712  0.5362 -0.9133
  493MOL0     H66503   9.027   7.943   9.322 -0.9162  0.0137  0.3835
  493MOL0     H66504   8.833   8.060   9.115  0.0945  0.7411 -0.4539
  493MOL0     H66505   8.936   8.155   9.228 -0.5958  0.1886  1.8551
  493MOL0     H66506   8.854   8.159   9.492  0.1821  0.3643  0.6594
  493MOL0     H66507   8.532   8.076   9.658 -0.2016  0.2260 -1.4225
  493MOL0     H66508   8.674   8.182   9.679 -1.4517 -3.2986  5.2944
  493MOL0     H66509   8.399   8.218   9.533  1.9616 -2.4663 -2.8122
  493MOL0     H66510   8.530   8.318   9.484  2.2986 -1.1892 -0.4519
  493MOL0     H66511   8.535   8.437   9.675  0.5616 -0.2646 -1.9579
  493MOL0     H66512   8.502   8.304   9.785 -0.1357 -2.3543 -0.5704
  493MOL0     H66513   8.271   8.308   9.744 -0.0277 -0.4919 -1.5970
  493MOL0     H66514   8.281   8.399   9.595 -0.5011 -1.8632 -0.2517
  493MOL0     H66515   8.259   8.636   9.991 -0.3482 -3.0791  0.4551
  493MOL0     H66516   7.988   8.599  10.176  0.2424 -1.4124 -1.7309
  493MOL0     H66517   8.146   8.671  10.166  0.3725 -2.3965 -2.0077
  493MOL0     H66518   8.018   8.782  10.152  1.1594  0.7317  0.6848
  493MOL0     H66519   7.481   8.537   9.727  0.5528  2.0585 -0.8562
  493MOL0     H66520   7.243   8.578   9.772 -0.4798  0.5635 -0.6695
  493MOL0     H66521   6.939   8.716   9.920  1.4735  3.5981  0.3795
  493MOL0     H66522   7.045   8.677   9.779 -3.2881 -2.0247 -1.1664
  493MOL0     H66523   6.968   8.472   9.855  3.4924  2.4480 -5.0416
  493MOL0     H66524   7.126   8.460   9.919  0.4038 -1.2173  5.8181
  493MOL0     H66525   7.058   8.518  10.145 -1.7079 -2.1174  1.5486
  493MOL0     H66526   6.974   8.378  10.096 -0.4826  0.2214  1.5678
  493MOL0     H66527   6.838   8.511  10.223  0.3147 -3.8239 -0.4882
  493MOL0     H66528   6.830   8.635  10.096  0.3844  0.5998  1.4482
  493MOL0     H66529   6.758   8.347  10.027 -0.9600  0.4403 -0.3863
  493MOL0     H66530   6.763   8.487   9.924 -0.6263 -0.9036  0.0440
  493MOL0     H66531   6.580   8.495  10.175 -1.7761 -2.2521 -0.1666
  493MOL0     H66532   6.566   8.595  10.033 -0.2952  0.8150  2.4873
  493MOL0     H66533   6.523   8.286  10.016  2.1719  0.6509  2.2867
  493MOL0     H66534   6.538   8.387   9.889  0.7959 -0.9028  0.7403
  493MOL0     H66535   6.342   8.528  10.055  2.4101  1.4905 -0.0055
  493MOL0     H66536   6.334   8.363  10.119  1.0202  1.3992  0.2722
  493MOL0     H66537   7.331   8.864  10.076  2.4297 -1.0976  3.4489
  493MOL0     H66538   7.579   8.833  10.030  0.3755 -1.1030  0.6270
  493MOL0     H66539   7.872   8.609   9.685 -2.0481  1.4352  2.5902
  493MOL0     H66540   8.094   8.546   9.608  1.6911  1.6424  0.2152
  493MOL0     H66541   9.692   8.083   9.001 -0.9012 -0.9136 -1.9397
  493MOL0     H66542   9.882   8.237   9.005 -1.0546 -0.6283  0.3815
  493MOL0     H66543  10.210   8.383   8.901 -0.3253 -0.8869  0.2618
  493MOL0     H66544  10.346   8.575   8.865  2.1606  1.3098  0.5447
  493MOL0     H66545  10.728   8.597   9.070 -0.1321  0.8447  0.5611
  493MOL0     H66546  10.782   8.506   8.922 -0.0095 -0.1905 -0.2847
  493MOL0     H66547  10.741   8.803   8.946  1.7112 -0.8581  5.4623
  493MOL0     H66548  10.787   8.716   8.797  1.5720  3.1809  0.2920
  493MOL0     H66549  10.996   8.650   8.901 -0.7522  0.8438 -2.6351
  493MOL0     H66550  10.947   8.713   9.064 -0.9772  4.7342  1.5781
  493MOL0     H66551  10.947   8.925   9.005 -0.9630  0.1598  0.0305
  493MOL0     H66552  10.971   8.889   8.826 -1.9781 -0.1866  1.0862
  493MOL0     H66553  11.358   8.829   8.994  0.2391 -0.8324 -1.7820
  493MOL0     H66554  10.666   8.378   9.041 -0.1616  0.4345 -0.5549
  493MOL0     H66555  10.523   8.170   9.106  1.3142  2.2086  0.4753
  494MOL0     O66556   7.100   1.635   4.938 -0.4500  0.5530 -0.0553
  494MOL0     C66557   7.111   1.648   5.060  0.1045  0.4233  0.1944
  494MOL0     O66558   7.015   1.656   5.157 -0.0979 -0.7221  0.5400
  494MOL0     C66559   6.878   1.650   5.135  0.6205 -0.2297  0.1579
  494MOL0     C66560   6.797   1.676   5.247  0.3068 -0.7980  0.3650
  494MOL0     C66561   6.661   1.667   5.249 -0.3055  0.1170  0.6295
  494MOL0     C66562   6.590   1.638   5.131  0.5994  0.8363 -0.4595
  494MOL0     O66563   6.457   1.626   5.127 -0.0536 -0.4381  0.4041
  494MOL0     C66564   6.371   1.661   5.236 -0.1702  0.5429 -0.3889
  494MOL0     C66565   6.222   1.637   5.187 -0.1523 -0.6070  0.1161
  494MOL0     C66566   6.112   1.652   5.301 -0.4081  0.5658  0.2591
  494MOL0     C66567   5.985   1.582   5.267 -0.1615  0.5150  0.3601
  494MOL0     C66568   5.859   1.630   5.333 -0.1944 -0.6571  0.1759
  494MOL0     C66569   5.724   1.577   5.286  0.6104  0.7131  0.3154
  494MOL0     C66570   5.610   1.637   5.369  0.5266 -0.1584  0.9773
  494MOL0     C66571   5.481   1.571   5.330  0.6084  0.5260 -0.4546
  494MOL0     N66572   5.374   1.619   5.420 -0.3664  0.3393  1.0766
  494MOL0     C66573   5.278   1.722   5.403  0.4758 -0.1202 -0.9016
  494MOL0     C66574   5.191   1.698   5.505  0.6216 -0.3330 -0.3734
  494MOL0     C66575   5.063   1.775   5.542  0.2377 -0.4220  0.0294
  494MOL0     C66576   4.937   1.734   5.470 -0.0471 -0.3819  0.3658
  494MOL0     C66577   4.800   1.793   5.528 -0.2894  0.0382 -0.2694
  494MOL0     C66578   4.679   1.780   5.429 -0.0775 -1.0222 -0.8852
  494MOL0     O66579   4.632   1.646   5.425 -0.0171  0.0073  0.3464
  494MOL0     C66580   4.519   1.622   5.351 -0.1714 -0.0615  0.0405
  494MOL0     C66581   4.464   1.489   5.349  0.1276  0.0934 -0.6324
  494MOL0     C66582   4.345   1.453   5.288  0.5653 -0.6270  0.3652
  494MOL0     C66583   4.315   1.302   5.293 -0.7471 -0.8671 -0.2878
  494MOL0     C66584   4.273   1.554   5.221  0.1232  0.2467  1.2680
  494MOL0     C66585   4.142   1.523   5.163  0.7298  0.0493  0.2423
  494MOL0     O66586   4.095   1.613   5.070  0.6620 -0.0603  0.0640
  494MOL0     C66587   3.978   1.585   4.996 -0.6749  0.5207  0.4597
  494MOL0     C66588   3.976   1.611   4.861 -0.0343  0.0177 -0.9027
  494MOL0     C66589   3.866   1.596   4.774 -0.7574  0.3938 -0.2677
  494MOL0     C66590   3.748   1.542   4.827  0.1177 -1.1195  0.4939
  494MOL0     O66591   3.637   1.513   4.755  0.8330  0.4076  0.0540
  494MOL0     C66592   3.638   1.550   4.611 -0.2046 -0.3128 -0.7273
  494MOL0     C66593   3.505   1.524   4.541 -0.2293 -0.2507  0.4771
  494MOL0     C66594   3.485   1.367   4.523 -0.4191 -0.3810 -0.4205
  494MOL0     C66595   3.381   1.333   4.411 -0.0006  0.2469  0.5032
  494MOL0     C66596   3.445   1.342   4.277  0.2967 -0.0123 -0.1406
  494MOL0     C66597   3.334   1.307   4.164 -0.2675  0.0461 -0.6415
  494MOL0     C66598   3.401   1.317   4.034 -0.1956 -0.2591 -0.0111
  494MOL0     C66599   3.302   1.284   3.923 -0.0012  0.9400  0.1275
  494MOL0    Cl66600   3.277   1.103   3.918  0.1383 -0.5002 -0.2014
  494MOL0     C66601   3.746   1.522   4.968  0.1120  0.0445 -0.5134
  494MOL0     C66602   3.854   1.555   5.052 -0.3583  0.4237 -0.0122
  494MOL0     O66603   4.085   1.426   5.198  0.1546 -0.0407  0.5295
  494MOL0     C66604   4.316   1.690   5.238  0.3684  0.3724 -0.4856
  494MOL0     C66605   4.437   1.721   5.297 -1.3493 -0.4948  0.7042
  494MOL0     N66606   5.222   1.586   5.574 -0.7412  0.4537  0.1913
  494MOL0     N66607   5.332   1.542   5.524  0.1637  0.2737 -0.0035
  494MOL0     C66608   6.658   1.607   5.017 -0.2393  0.0173  0.1300
  494MOL0     C66609   6.804   1.618   5.019 -0.6565 -0.3992  0.0560
  494MOL0     C66610   7.250   1.684   5.109 -0.5756  0.0052  0.5233
  494MOL0     C66611   7.372   1.657   5.036 -0.1191 -0.0656  1.0722
  494MOL0     C66612   7.491   1.716   5.074  1.0074 -0.3355  0.4033
  494MOL0     C66613   7.506   1.773   5.195  0.3470 -1.2006 -0.9438
  494MOL0     O66614   7.635   1.817   5.213 -0.4443  0.2837 -0.4719
  494MOL0     C66615   7.688   1.834   5.348 -0.1733  0.0130 -0.5966
  494MOL0     C66616   7.843   1.851   5.339 -0.2500  0.1406  0.7423
  494MOL0     C66617   7.876   1.983   5.272  0.2910 -0.6992 -0.2378
  494MOL0     C66618   8.028   2.027   5.278  0.4492  1.2562  0.2667
  494MOL0     C66619   8.056   2.076   5.418  0.0109  0.7066 -0.7064
  494MOL0     C66620   8.068   2.113   5.528  0.0454 -0.2815  0.2519
  494MOL0     C66621   7.398   1.786   5.283  0.5826 -1.0114  1.3646
  494MOL0     C66622   7.265   1.735   5.242 -0.0035  0.6392  0.0576
  494MOL0     H66623   6.847   1.698   5.341  0.8927  1.1514 -0.3466
  494MOL0     H66624   6.602   1.695   5.335  0.8739  3.6070  0.4489
  494MOL0     H66625   6.395   1.586   5.312  0.1720 -0.9747 -1.9273
  494MOL0     H66626   6.386   1.761   5.279 -1.2419  1.1672 -1.4036
  494MOL0     H66627   6.189   1.700   5.104  2.2342 -1.6613 -1.7596
  494MOL0     H66628   6.220   1.531   5.158 -0.3442 -0.9307  1.2285
  494MOL0     H66629   6.149   1.596   5.388  1.1203  0.9935 -0.0832
  494MOL0     H66630   6.079   1.752   5.331 -0.6517  0.0305  1.8770
  494MOL0     H66631   5.962   1.592   5.160 -0.1310 -1.1018  0.1775
  494MOL0     H66632   5.992   1.476   5.291 -2.5038  0.0084 -0.8334
  494MOL0     H66633   5.864   1.599   5.438  0.9388 -3.0007 -0.5174
  494MOL0     H66634   5.864   1.739   5.320  0.6755 -0.1474  3.6668
  494MOL0     H66635   5.715   1.600   5.180 -0.7708 -1.9371 -0.2261
  494MOL0     H66636   5.722   1.469   5.304 -0.9193  0.8175  0.8991
  494MOL0     H66637   5.627   1.623   5.477  0.4197  0.6182  1.0982
  494MOL0     H66638   5.621   1.745   5.358 -2.2308  0.7688  4.9963
  494MOL0     H66639   5.493   1.464   5.352  1.6182  0.4032 -1.4833
  494MOL0     H66640   5.453   1.580   5.224  2.4833 -1.4729 -1.2223
  494MOL0     H66641   5.269   1.815   5.349  0.8803  1.3658  1.4534
  494MOL0     H66642   5.022   1.753   5.640 -3.2440  2.1186 -0.6530
  494MOL0     H66643   5.079   1.882   5.527 -1.2367  0.1631  2.2866
  494MOL0     H66644   4.941   1.624   5.475  4.7380 -0.3683  1.4678
  494MOL0     H66645   4.944   1.761   5.364  1.2450  1.4992  0.8903
  494MOL0     H66646   4.813   1.898   5.552  0.1478 -0.4155  1.6578
  494MOL0     H66647   4.777   1.743   5.623 -1.7304 -1.2145 -1.2281
  494MOL0     H66648   4.704   1.815   5.328 -1.1246  0.3207 -0.7100
  494MOL0     H66649   4.606   1.851   5.469  3.3802  1.5995  1.4535
  494MOL0     H66650   4.522   1.408   5.393  0.9481  0.1616 -1.5533
  494MOL0     H66651   4.300   1.262   5.192  2.3257  1.9956 -2.0725
  494MOL0     H66652   4.393   1.247   5.345  1.7794  3.1829  0.7163
  494MOL0     H66653   4.228   1.280   5.355 -1.1112  0.8257 -0.1237
  494MOL0     H66654   4.070   1.651   4.824  0.9570 -3.1106 -2.0218
  494MOL0     H66655   3.880   1.631   4.673 -2.5034  2.0436  0.0058
  494MOL0     H66656   3.665   1.655   4.592 -0.6729 -0.5256 -2.8501
  494MOL0     H66657   3.720   1.498   4.561  1.4237  1.8923 -0.5185
  494MOL0     H66658   3.436   1.573   4.610  2.7987  2.2771  2.0037
  494MOL0     H66659   3.506   1.578   4.446  2.2968  2.5645  1.9318
  494MOL0     H66660   3.454   1.328   4.620 -0.3224 -1.7350 -0.9125
  494MOL0     H66661   3.582   1.326   4.495 -0.4661 -0.9703  0.2637
  494MOL0     H66662   3.351   1.228   4.420  2.5149 -0.8728 -2.3961
  494MOL0     H66663   3.295   1.396   4.435  0.5363  0.6393  1.4247
  494MOL0     H66664   3.516   1.261   4.254 -0.2012 -1.2721  2.4193
  494MOL0     H66665   3.490   1.437   4.246  1.1605 -0.5191 -0.4973
  494MOL0     H66666   3.276   1.216   4.178  0.8253 -0.4267  1.1578
  494MOL0     H66667   3.269   1.395   4.169  0.7011  0.7606 -0.2611
  494MOL0     H66668   3.487   1.248   4.031  1.0737  1.2718 -0.5182
  494MOL0     H66669   3.451   1.414   4.027 -2.1050  0.6666 -2.0770
  494MOL0     H66670   3.331   1.311   3.821  0.9932 -1.0312 -0.1605
  494MOL0     H66671   3.206   1.328   3.951 -0.5374 -1.1316  1.8408
  494MOL0     H66672   3.658   1.486   5.020  0.0677 -1.5514 -1.6341
  494MOL0     H66673   3.843   1.532   5.157  5.2524 -1.2244  0.5504
  494MOL0     H66674   4.256   1.773   5.201  1.7961  1.8188  0.3350
  494MOL0     H66675   4.478   1.819   5.316  1.4901 -1.6378  1.0017
  494MOL0     H66676   6.601   1.568   4.933 -2.4210  2.0807  0.5400
  494MOL0     H66677   6.873   1.602   4.937 -0.0718 -0.3450  0.5355
  494MOL0     H66678   7.366   1.611   4.938 -0.0606  2.1615 -0.0521
  494MOL0     H66679   7.582   1.717   5.015  1.3238  1.6201  0.8583
  494MOL0     H66680   7.635   1.925   5.374  1.3914  0.9695 -0.6191
  494MOL0     H66681   7.653   1.749   5.407  0.6023 -1.2272 -1.8556
  494MOL0     H66682   7.898   1.770   5.290 -1.0907 -0.5886  0.9786
  494MOL0     H66683   7.875   1.845   5.443 -0.6883 -1.2099  0.8177
  494MOL0     H66684   7.826   2.063   5.327  0.6630 -2.8231  3.5758
  494MOL0     H66685   7.842   1.978   5.168  0.2727 -2.2910 -0.1833
  494MOL0     H66686   8.040   2.105   5.203 -0.2805 -0.7676 -2.0765
  494MOL0     H66687   8.095   1.946   5.249 -0.4159  0.1822  1.1783
  494MOL0     H66688   8.091   2.156   5.624 -2.6648  3.5544 -0.5699
  494MOL0     H66689   7.397   1.837   5.378  0.5526  4.2377 -1.1264
  494MOL0     H66690   7.179   1.736   5.308 -0.0333  0.6745  0.0182
  495MOL0     O66691   9.878   2.950   2.633 -0.2037  0.2506 -0.1457
  495MOL0     C66692   9.818   2.951   2.529  0.2917  0.5379  0.1691
  495MOL0     O66693   9.687   2.922   2.527  0.0792  0.1755  1.0008
  495MOL0     C66694   9.626   2.884   2.645 -0.0851  0.0818  0.2801
  495MOL0     C66695   9.544   2.983   2.695  0.9400 -1.0314  0.2260
  495MOL0     C66696   9.469   2.972   2.815  0.2949  1.1329  0.0710
  495MOL0     C66697   9.475   2.851   2.882  0.5926 -0.0890 -0.4530
  495MOL0     O66698   9.407   2.846   2.999 -0.0227  0.5746 -0.6173
  495MOL0     C66699   9.347   2.727   3.036 -0.1414  0.1804 -0.4171
  495MOL0     C66700   9.247   2.755   3.156 -0.1346  0.0431  0.2333
  495MOL0     C66701   9.122   2.822   3.104  0.9895 -0.3763  0.6965
  495MOL0     C66702   8.995   2.816   3.192 -0.1339  0.2974 -0.4059
  495MOL0     C66703   8.872   2.852   3.119 -0.0728  0.0001  0.1005
  495MOL0     C66704   8.744   2.819   3.201 -0.2377 -0.0581 -0.3337
  495MOL0     C66705   8.742   2.902   3.326  0.4996 -0.5532 -0.1192
  495MOL0     C66706   8.611   2.872   3.407  0.2072 -0.0463 -0.0542
  495MOL0     N66707   8.516   2.976   3.391  0.0546  0.1024  0.4094
  495MOL0     C66708   8.524   3.093   3.453  0.5379  1.4345  0.6585
  495MOL0     C66709   8.436   3.173   3.381  0.2923  0.3046 -1.3312
  495MOL0     C66710   8.411   3.325   3.402  0.0209 -0.0548  0.8280
  495MOL0     C66711   8.273   3.347   3.473  0.1217 -0.4463 -1.2644
  495MOL0     C66712   8.262   3.306   3.619 -0.3806 -0.2954 -0.0348
  495MOL0     C66713   8.117   3.305   3.671  0.5350  0.3234  0.1967
  495MOL0     O66714   8.075   3.442   3.667 -0.1342  0.8225 -0.1244
  495MOL0     C66715   7.938   3.458   3.672  0.6356 -0.1414  0.0520
  495MOL0     C66716   7.894   3.584   3.619  0.2149  0.6679  0.0373
  495MOL0     C66717   7.763   3.619   3.617 -0.3952 -0.6416  0.4638
  495MOL0     C66718   7.750   3.745   3.534 -0.5029  0.7426 -0.7458
  495MOL0     C66719   7.667   3.532   3.672 -0.1139 -0.4727 -1.9781
  495MOL0     C66720   7.517   3.566   3.669  0.6316 -0.9465  0.8064
  495MOL0     O66721   7.443   3.450   3.668  0.2841 -0.9244 -0.0829
  495MOL0     C66722   7.304   3.444   3.666 -0.3476 -1.2684 -0.7809
  495MOL0     C66723   7.221   3.552   3.634 -0.8899  0.2738 -0.1851
  495MOL0     C66724   7.084   3.541   3.625  0.8472 -0.2479 -0.2536
  495MOL0     C66725   7.023   3.412   3.644  0.2320 -0.0021 -0.5190
  495MOL0     O66726   6.887   3.407   3.628 -0.1203 -0.7231 -0.5418
  495MOL0     C66727   6.803   3.313   3.694 -0.5282 -0.2021  0.1106
  495MOL0     C66728   6.676   3.382   3.738  0.8240  0.2802  0.4527
  495MOL0     C66729   6.584   3.399   3.610  0.1978 -0.1986  0.3594
  495MOL0     C66730   6.433   3.348   3.632 -0.5558  0.4516  0.0814
  495MOL0     C66731   6.354   3.346   3.499  0.1621 -0.7352 -0.2280
  495MOL0     C66732   6.204   3.305   3.529  0.1120  0.0154 -0.3650
  495MOL0     C66733   6.122   3.282   3.406 -0.1297 -0.0292  0.3584
  495MOL0     C66734   5.975   3.275   3.441 -0.5288  0.8224  0.3228
  495MOL0    Cl66735   5.913   3.419   3.525 -0.1162  0.1623 -0.0255
  495MOL0     C66736   7.106   3.295   3.671 -0.1772  0.4452 -0.1547
  495MOL0     C66737   7.242   3.319   3.689 -0.3252 -0.6664  0.7777
  495MOL0     O66738   7.475   3.684   3.682 -0.6509 -0.1465  0.6571
  495MOL0     C66739   7.714   3.412   3.734  0.0789  0.1390 -0.1176
  495MOL0     C66740   7.842   3.371   3.724 -0.4923 -0.2743  0.2762
  495MOL0     N66741   8.357   3.094   3.294  0.1341 -0.2303  0.0529
  495MOL0     N66742   8.422   2.981   3.295  0.5373 -0.6325 -0.0464
  495MOL0     C66743   9.555   2.748   2.836 -1.2201  0.4562 -0.3832
  495MOL0     C66744   9.625   2.768   2.715  0.5977 -0.2412 -0.4675
  495MOL0     C66745   9.884   2.982   2.398 -0.7591  0.1987 -0.1419
  495MOL0     C66746   9.812   2.986   2.280  0.5503 -0.1611  1.0102
  495MOL0     C66747   9.872   3.015   2.154  0.7804  0.1048  0.1764
  495MOL0     C66748  10.005   3.056   2.153 -0.3849  0.4881 -0.1547
  495MOL0     O66749  10.061   3.096   2.032 -0.3803  0.2645 -0.2426
  495MOL0     C66750  10.166   3.199   2.043 -0.0156 -0.1224 -0.1622
  495MOL0     C66751  10.300   3.157   1.983 -0.1788  0.2217 -0.7415
  495MOL0     C66752  10.346   3.009   2.023  0.1653 -0.4571 -0.1344
  495MOL0     C66753  10.466   2.958   1.946 -0.1941  0.5772  0.1667
  495MOL0     C66754  10.567   3.059   1.940 -0.6163 -0.6924 -0.0499
  495MOL0     C66755  10.658   3.148   1.923 -0.3152 -0.1322  0.9908
  495MOL0     C66756  10.079   3.033   2.272  0.0740  0.0725  0.5029
  495MOL0     C66757  10.027   3.002   2.399  0.2043 -0.1027  0.3145
  495MOL0     H66758   9.554   3.080   2.647  0.4741 -0.6314  0.9176
  495MOL0     H66759   9.411   3.054   2.856  0.0549  0.4522  1.1449
  495MOL0     H66760   9.286   2.677   2.960 -2.0811 -2.2287  2.4619
  495MOL0     H66761   9.420   2.653   3.070 -0.5583  0.0583  0.2281
  495MOL0     H66762   9.209   2.657   3.188  0.9642  0.0083  1.5378
  495MOL0     H66763   9.291   2.809   3.241 -1.6971  1.3795  0.2432
  495MOL0     H66764   9.144   2.929   3.091 -3.1477  0.3712 -1.9082
  495MOL0     H66765   9.107   2.779   3.005 -0.5687 -0.4050  0.9176
  495MOL0     H66766   9.000   2.717   3.239  0.2772  0.1181 -0.8155
  495MOL0     H66767   9.004   2.893   3.269  0.9708  0.3564 -0.5763
  495MOL0     H66768   8.872   2.959   3.097 -0.3446 -0.0727 -0.2724
  495MOL0     H66769   8.871   2.791   3.028 -1.5420  0.1003  0.0197
  495MOL0     H66770   8.661   2.847   3.136 -1.1978  0.6623  1.1730
  495MOL0     H66771   8.740   2.710   3.205  3.2283 -0.3165 -0.5861
  495MOL0     H66772   8.821   2.876   3.398 -0.4585 -1.8708  0.5161
  495MOL0     H66773   8.750   3.006   3.297 -1.8106 -0.1640  0.4711
  495MOL0     H66774   8.636   2.856   3.512  0.9808  0.1922 -0.1941
  495MOL0     H66775   8.567   2.779   3.368 -4.0378  1.6847  0.0501
  495MOL0     H66776   8.589   3.119   3.537  1.8016 -0.8813  0.4688
  495MOL0     H66777   8.499   3.366   3.453  1.7586  0.2031 -2.1512
  495MOL0     H66778   8.411   3.373   3.304 -0.9451  0.2298  0.9533
  495MOL0     H66779   8.203   3.287   3.415  0.6827 -2.5034  0.0529
  495MOL0     H66780   8.266   3.455   3.463  1.6400 -0.2421 -0.4552
  495MOL0     H66781   8.312   3.374   3.689  2.2839 -0.1807 -1.8857
  495MOL0     H66782   8.303   3.205   3.632 -2.3461 -1.2115 -0.5308
  495MOL0     H66783   8.126   3.270   3.774  0.8632  0.4750  0.2217
  495MOL0     H66784   8.049   3.248   3.607  1.1905 -0.0518 -0.1887
  495MOL0     H66785   7.960   3.646   3.560 -0.3189  0.8719 -0.3547
  495MOL0     H66786   7.769   3.724   3.428  3.0442 -1.6526  0.1682
  495MOL0     H66787   7.647   3.777   3.552 -1.5345 -2.6682  0.2753
  495MOL0     H66788   7.819   3.817   3.579 -0.2444  0.1853 -0.2271
  495MOL0     H66789   7.253   3.650   3.600  0.3811  0.7873  2.2348
  495MOL0     H66790   7.031   3.634   3.605  1.8042  1.0792  2.7956
  495MOL0     H66791   6.783   3.235   3.620 -0.1977 -0.9818  0.8328
  495MOL0     H66792   6.860   3.272   3.777 -0.5111 -1.3566 -0.4487
  495MOL0     H66793   6.632   3.317   3.813 -2.0635  0.5570 -0.8538
  495MOL0     H66794   6.705   3.478   3.781  0.9461  0.3418  0.2381
  495MOL0     H66795   6.631   3.344   3.528  1.7365 -0.9998  1.7249
  495MOL0     H66796   6.583   3.505   3.582 -1.4963 -0.4848 -0.7979
  495MOL0     H66797   6.437   3.248   3.678 -1.5026  0.9447  1.2913
  495MOL0     H66798   6.364   3.413   3.687 -2.1756 -0.8409 -0.3546
  495MOL0     H66799   6.399   3.272   3.431 -0.2608 -2.5696  1.3739
  495MOL0     H66800   6.364   3.444   3.452  0.7297 -1.4208 -1.5924
  495MOL0     H66801   6.210   3.205   3.574  1.5744  0.1109 -0.2826
  495MOL0     H66802   6.159   3.378   3.597  3.3369 -0.1649  2.2691
  495MOL0     H66803   6.157   3.199   3.344  0.0605  2.0240 -2.5064
  495MOL0     H66804   6.123   3.375   3.349 -1.6194 -0.2485 -0.0716
  495MOL0     H66805   5.963   3.182   3.497 -0.3364 -0.9712 -2.4133
  495MOL0     H66806   5.930   3.260   3.343 -0.7878  0.3041  0.5179
  495MOL0     H66807   7.074   3.191   3.679 -3.8631  1.3233 -1.6463
  495MOL0     H66808   7.307   3.232   3.685  0.9906  0.3211 -0.7400
  495MOL0     H66809   7.646   3.334   3.768 -1.2112  1.5344  0.6321
  495MOL0     H66810   7.887   3.282   3.767  4.0353  1.1253 -0.9758
  495MOL0     H66811   9.565   2.650   2.883 -0.7351  0.3765 -0.6448
  495MOL0     H66812   9.699   2.693   2.690  3.8488  2.0496  1.4463
  495MOL0     H66813   9.708   2.958   2.288  0.7983 -1.3373  0.2814
  495MOL0     H66814   9.822   3.020   2.058  1.6471  2.9880 -0.2251
  495MOL0     H66815  10.142   3.293   1.992 -1.6916  0.1593  1.0857
  495MOL0     H66816  10.192   3.227   2.146  0.4801  0.5440 -0.4577
  495MOL0     H66817  10.373   3.227   2.025  1.1317 -1.7286  0.4735
  495MOL0     H66818  10.288   3.141   1.876 -0.3111  0.1579 -0.7162
  495MOL0     H66819  10.270   2.931   2.016  0.0489 -0.5836  1.8380
  495MOL0     H66820  10.374   3.014   2.129 -2.0340 -1.3769  0.5506
  495MOL0     H66821  10.431   2.935   1.845  2.0885 -1.9179 -0.1666
  495MOL0     H66822  10.507   2.866   1.988  1.6503  1.6450  0.8406
  495MOL0     H66823  10.744   3.211   1.924 -0.3165 -0.1299  1.6001
  495MOL0     H66824  10.184   3.058   2.264 -0.5073  2.4116 -0.8470
  495MOL0     H66825  10.086   3.004   2.490  1.6495  1.3783 -0.5969
  496MOL0     O66826   0.669   4.901  11.135 -0.5464 -0.1850 -0.5425
  496MOL0     C66827   0.668   5.000  11.070  0.0995  0.1874 -0.6585
  496MOL0     O66828   0.563   5.043  11.001  0.1890  0.7188  0.4206
  496MOL0     C66829   0.446   4.985  11.033  0.2004  0.2057  0.1374
  496MOL0     C66830   0.342   5.069  11.077 -0.3017 -0.4951  0.4191
  496MOL0     C66831   0.222   5.016  11.099 -0.2737  0.5179  0.6235
  496MOL0     C66832   0.191   4.877  11.078  0.3155 -0.4164 -0.5911
  496MOL0     O66833   0.066   4.817  11.092 -0.4203 -0.5917  0.6041
  496MOL0     C66834  -0.036   4.891  11.166 -0.5627 -0.3814  0.1851
  496MOL0     C66835  -0.142   4.797  11.215 -0.0591 -0.8707 -0.1363
  496MOL0     C66836  -0.232   4.875  11.307 -0.1917  0.3166 -0.1319
  496MOL0     C66837  -0.369   4.806  11.309 -0.0541 -0.2545  0.4513
  496MOL0     C66838  -0.458   4.875  11.408 -0.3116 -0.9997 -0.2038
  496MOL0     C66839  -0.601   4.836  11.407  0.5225 -0.4846 -0.0168
  496MOL0     C66840  -0.691   4.902  11.513 -0.9629 -0.6681 -0.3522
  496MOL0     C66841  -0.636   4.852  11.650  0.1479 -0.4419 -1.0755
  496MOL0     N66842  -0.738   4.851  11.763 -0.4135  0.6011 -0.8581
  496MOL0     C66843  -0.719   4.810  11.899  0.1893  0.3395 -0.2694
  496MOL0     C66844  -0.845   4.808  11.952  0.3764  0.5882  0.4529
  496MOL0     C66845  -0.877   4.759  12.087  0.6867 -1.0056  0.3976
  496MOL0     C66846  -0.825   4.859  12.183 -0.7699  0.2217 -0.6941
  496MOL0     C66847  -0.841   4.836  12.347 -0.4132  0.1349  1.6277
  496MOL0     C66848  -0.985   4.830  12.385 -0.7290 -0.2054  0.2736
  496MOL0     O66849  -1.057   4.715  12.343  0.7384  0.3219 -0.3053
  496MOL0     C66850  -1.181   4.685  12.406 -0.1488 -0.5734 -0.6201
  496MOL0     C66851  -1.236   4.759  12.518 -0.3875 -0.4470  0.2783
  496MOL0     C66852  -1.356   4.718  12.580 -0.2442  0.7002  0.5371
  496MOL0     C66853  -1.398   4.803  12.704 -0.3648  1.0478 -0.0955
  496MOL0     C66854  -1.423   4.600  12.523  0.0260 -0.3472 -0.1663
  496MOL0     C66855  -1.556   4.551  12.588 -0.3337  0.2059 -0.4649
  496MOL0     O66856  -1.557   4.539  12.727  0.1412  0.3607 -0.1173
  496MOL0     C66857  -1.653   4.482  12.803 -0.7006  0.5425  0.2693
  496MOL0     C66858  -1.679   4.530  12.930  0.2953  0.5142 -0.6681
  496MOL0     C66859  -1.776   4.469  13.015 -0.4055  0.7209  0.5119
  496MOL0     C66860  -1.843   4.355  12.972 -0.0775  0.4152  0.1850
  496MOL0     O66861  -1.934   4.286  13.047  0.7091 -0.0534  0.1610
  496MOL0     C66862  -2.036   4.370  13.097 -0.4359  1.4317  0.2339
  496MOL0     C66863  -2.141   4.280  13.168 -0.1365 -0.0638  0.2090
  496MOL0     C66864  -2.259   4.363  13.220 -0.0872 -0.6254  0.0313
  496MOL0     C66865  -2.343   4.253  13.299  0.5741 -0.1750  0.0925
  496MOL0     C66866  -2.403   4.142  13.202  0.0277  0.5384  0.3111
  496MOL0     C66867  -2.493   4.198  13.090 -1.0150  0.3329 -0.1602
  496MOL0     C66868  -2.614   4.280  13.135 -0.1310  0.2456  0.2829
  496MOL0     C66869  -2.715   4.276  13.022 -0.7696  0.7675 -0.6683
  496MOL0    Cl66870  -2.873   4.333  13.095 -0.1064 -0.3881  0.2371
  496MOL0     C66871  -1.813   4.305  12.846 -0.0846  0.2857 -0.8758
  496MOL0     C66872  -1.716   4.367  12.766 -0.7263  0.1041 -0.4482
  496MOL0     O66873  -1.639   4.504  12.510 -0.0361 -0.1333 -0.4486
  496MOL0     C66874  -1.373   4.543  12.405 -0.4365  0.5192  0.8539
  496MOL0     C66875  -1.263   4.588  12.347 -0.3457 -0.1855 -0.4077
  496MOL0     N66876  -0.941   4.829  11.852 -0.9299  0.1847  0.5689
  496MOL0     N66877  -0.873   4.861  11.745  0.3316  0.6631 -0.7354
  496MOL0     C66878   0.289   4.802  11.026 -0.2195  0.8578 -0.4714
  496MOL0     C66879   0.420   4.851  10.999  0.2945 -0.2345  0.4960
  496MOL0     C66880   0.773   5.099  11.089 -0.5634 -0.0624  0.3911
  496MOL0     C66881   0.866   5.089  11.192  0.8451 -0.3317 -0.0735
  496MOL0     C66882   0.943   5.197  11.231  0.4098 -0.4218  0.4470
  496MOL0     C66883   0.932   5.320  11.156 -0.4364 -0.0257  0.5119
  496MOL0     O66884   1.029   5.423  11.164  0.2977  0.7960 -0.3013
  496MOL0     C66885   1.128   5.401  11.264 -0.7114 -0.4503  0.2995
  496MOL0     C66886   1.231   5.515  11.248 -1.3628 -0.1706  0.1636
  496MOL0     C66887   1.298   5.512  11.119 -0.3729  0.2984 -0.0745
  496MOL0     C66888   1.401   5.627  11.115  0.4499  0.1840  0.5777
  496MOL0     C66889   1.526   5.603  11.192  0.4544  0.3245  0.5979
  496MOL0     C66890   1.626   5.595  11.266 -0.2725  0.4025  0.1748
  496MOL0     C66891   0.847   5.326  11.039  0.2115  0.1548 -0.5154
  496MOL0     C66892   0.768   5.211  11.009  0.5959  0.0355 -0.3232
  496MOL0     H66893   0.364   5.174  11.091  0.8212 -0.7699  0.8322
  496MOL0     H66894   0.139   5.081  11.124 -0.1549  0.3090  1.5819
  496MOL0     H66895   0.015   4.928  11.255  0.5982  1.7413 -1.2516
  496MOL0     H66896  -0.082   4.973  11.109  3.3814  2.8335  1.1662
  496MOL0     H66897  -0.194   4.760  11.126  0.4894 -2.3265  0.1256
  496MOL0     H66898  -0.101   4.705  11.258  0.2132 -1.3147 -1.2893
  496MOL0     H66899  -0.198   4.883  11.411  1.0820  4.5758 -0.7105
  496MOL0     H66900  -0.252   4.978  11.276  0.5838 -0.1478 -2.3663
  496MOL0     H66901  -0.421   4.801  11.212  2.4440  1.3355 -1.0835
  496MOL0     H66902  -0.349   4.705  11.345 -1.0296 -0.2260  1.1022
  496MOL0     H66903  -0.409   4.883  11.506 -1.2322 -0.0787  0.2074
  496MOL0     H66904  -0.463   4.977  11.368  0.8199 -1.3123 -1.2108
  496MOL0     H66905  -0.648   4.863  11.312 -1.9918  0.2064  1.3540
  496MOL0     H66906  -0.605   4.727  11.414 -0.0994 -0.4214  0.6473
  496MOL0     H66907  -0.686   5.011  11.516 -0.1569 -0.6786  2.7632
  496MOL0     H66908  -0.797   4.880  11.498 -1.1161  0.8552 -1.7661
  496MOL0     H66909  -0.547   4.911  11.673 -1.6855  2.0411  0.0957
  496MOL0     H66910  -0.594   4.751  11.641  0.9418 -0.4686  1.8181
  496MOL0     H66911  -0.635   4.771  11.956 -1.7986 -2.5482  0.9005
  496MOL0     H66912  -0.983   4.735  12.101  0.4939 -0.4856 -0.1355
  496MOL0     H66913  -0.829   4.663  12.108 -0.0794 -1.1079  1.8929
  496MOL0     H66914  -0.858   4.961  12.160  0.6092  0.6346 -0.9962
  496MOL0     H66915  -0.719   4.868  12.155 -0.8105  3.0363 -0.2278
  496MOL0     H66916  -0.791   4.922  12.391  0.7647  1.1631 -1.5072
  496MOL0     H66917  -0.788   4.741  12.357  0.9795  0.6204 -0.6235
  496MOL0     H66918  -1.026   4.926  12.352  2.7442  1.6575  0.9164
  496MOL0     H66919  -0.985   4.823  12.494 -1.5481  0.1348  0.3069
  496MOL0     H66920  -1.186   4.847  12.557 -2.5302  2.0536 -2.2100
  496MOL0     H66921  -1.504   4.799  12.732 -0.2428  1.0069  0.3654
  496MOL0     H66922  -1.343   4.765  12.790 -0.9211  0.0139 -0.1881
  496MOL0     H66923  -1.353   4.902  12.690  1.4890  0.3701  0.8352
  496MOL0     H66924  -1.642   4.620  12.977  1.5326 -0.9551  1.3562
  496MOL0     H66925  -1.782   4.503  13.118 -0.6728  2.2993  0.0101
  496MOL0     H66926  -1.992   4.432  13.175 -1.3951 -0.6845  2.6348
  496MOL0     H66927  -2.088   4.424  13.017 -0.2169  0.1047 -0.8511
  496MOL0     H66928  -2.187   4.218  13.091 -3.3102 -2.5819  3.7547
  496MOL0     H66929  -2.090   4.219  13.245 -0.0302 -1.5095 -0.9581
  496MOL0     H66930  -2.315   4.417  13.144 -0.6567 -0.9672  0.2026
  496MOL0     H66931  -2.222   4.436  13.293 -3.2492  1.7091 -0.5276
  496MOL0     H66932  -2.279   4.193  13.364 -1.6106 -1.9346  0.7443
  496MOL0     H66933  -2.423   4.301  13.357  0.9345 -0.4831  0.8542
  496MOL0     H66934  -2.472   4.077  13.256 -2.5739  2.0352 -0.9704
  496MOL0     H66935  -2.330   4.070  13.164 -1.3199  0.0664 -1.5153
  496MOL0     H66936  -2.437   4.265  13.023 -2.3974  0.3210 -1.4003
  496MOL0     H66937  -2.531   4.119  13.025 -0.4055  0.7620 -1.0634
  496MOL0     H66938  -2.588   4.384  13.156  1.4893 -0.1223  0.2578
  496MOL0     H66939  -2.656   4.223  13.218  0.0045 -1.4130 -0.7216
  496MOL0     H66940  -2.738   4.172  12.996 -0.0196  0.5068 -0.2998
  496MOL0     H66941  -2.676   4.336  12.940 -3.1595 -0.1447 -2.5799
  496MOL0     H66942  -1.861   4.214  12.812 -1.3204  1.3300 -2.0284
  496MOL0     H66943  -1.699   4.320  12.670  1.3925 -0.0839 -0.0302
  496MOL0     H66944  -1.430   4.463  12.358  3.1451 -2.4701  1.0979
  496MOL0     H66945  -1.224   4.554  12.251 -1.3798  1.4188 -1.4463
  496MOL0     H66946   0.270   4.700  10.995  0.2279  0.2254  1.2438
  496MOL0     H66947   0.494   4.795  10.942 -0.2095 -0.0229 -0.3896
  496MOL0     H66948   0.852   5.002  11.257 -2.0791  0.0809  0.0009
  496MOL0     H66949   1.002   5.201  11.322  0.5122 -2.8181  0.5364
  496MOL0     H66950   1.077   5.400  11.360 -1.0787  0.1459  0.1186
  496MOL0     H66951   1.185   5.309  11.246 -1.7573 -0.6039 -2.9799
  496MOL0     H66952   1.307   5.496  11.324 -1.3139 -2.0713 -0.3220
  496MOL0     H66953   1.192   5.615  11.269 -0.9247  0.5777 -2.3617
  496MOL0     H66954   1.226   5.526  11.039  0.5123 -0.6461 -1.0735
  496MOL0     H66955   1.351   5.417  11.103  1.2575  1.0648  0.4931
  496MOL0     H66956   1.355   5.720  11.150  0.1382  0.2345  0.0459
  496MOL0     H66957   1.436   5.636  11.012  1.6169 -0.2748  0.9201
  496MOL0     H66958   1.711   5.583  11.331  1.1778  3.3958 -0.9794
  496MOL0     H66959   0.837   5.413  10.975  1.5538 -0.5395 -1.7074
  496MOL0     H66960   0.697   5.221  10.928 -0.7560  0.7868  0.9143
  497MOL0     O66961   3.574   8.164   4.663  0.1410 -0.1914  0.4465
  497MOL0     C66962   3.601   8.230   4.562 -0.2208  0.2432 -0.6309
  497MOL0     O66963   3.549   8.220   4.436  0.1756  0.5069  0.3505
  497MOL0     C66964   3.460   8.113   4.402  0.3960 -0.1713 -0.6980
  497MOL0     C66965   3.408   8.134   4.276  1.7000 -0.6887 -0.0931
  497MOL0     C66966   3.321   8.031   4.227 -0.1621  0.2000 -0.4198
  497MOL0     C66967   3.279   7.924   4.311 -0.2353  0.3368 -0.4935
  497MOL0     O66968   3.194   7.847   4.253  0.0214 -0.0277  0.0793
  497MOL0     C66969   3.193   7.711   4.287  0.4870 -0.3227 -0.4727
  497MOL0     C66970   3.091   7.642   4.193  0.1757  0.2344 -0.0954
  497MOL0     C66971   2.949   7.690   4.225 -0.2981 -0.0885  0.0503
  497MOL0     C66972   2.844   7.616   4.138  0.0807 -0.2088 -0.4812
  497MOL0     C66973   2.700   7.658   4.159  0.2437  0.3296  0.4011
  497MOL0     C66974   2.645   7.596   4.285  0.3555  0.2179 -0.3007
  497MOL0     C66975   2.599   7.458   4.257  0.5204 -0.2020 -0.6364
  497MOL0     C66976   2.580   7.370   4.387 -0.4926  0.4769 -0.4150
  497MOL0     N66977   2.493   7.415   4.493  0.0953  0.7805  0.0297
  497MOL0     C66978   2.357   7.418   4.486 -0.1612 -0.0402 -0.7407
  497MOL0     C66979   2.322   7.439   4.614  0.2854 -0.2281 -0.1077
  497MOL0     C66980   2.183   7.435   4.675 -0.1440 -0.7808 -0.1055
  497MOL0     C66981   2.088   7.326   4.629 -0.1361 -0.1612  0.4390
  497MOL0     C66982   1.947   7.350   4.681 -0.4015 -1.3803  0.1967
  497MOL0     C66983   1.865   7.224   4.665  1.2140  1.1581  1.0250
  497MOL0     O66984   1.726   7.265   4.687  0.0994 -0.2038  0.0865
  497MOL0     C66985   1.627   7.177   4.711 -0.4414  0.7645 -0.8957
  497MOL0     C66986   1.645   7.040   4.700 -0.6339  0.6019 -1.2875
  497MOL0     C66987   1.534   6.951   4.699  0.4291 -0.8231 -0.4548
  497MOL0     C66988   1.568   6.806   4.721  0.6479 -0.6922  0.0636
  497MOL0     C66989   1.399   7.002   4.686  0.3259  0.4167 -0.3250
  497MOL0     C66990   1.277   6.922   4.684 -1.3496  0.5537 -0.8351
  497MOL0     O66991   1.170   6.983   4.639  0.1856  0.6520  0.3066
  497MOL0     C66992   1.056   6.909   4.652 -0.6563 -0.8191  0.4732
  497MOL0     C66993   1.024   6.807   4.566  0.3779  0.1508 -0.0228
  497MOL0     C66994   0.914   6.723   4.583 -0.1588 -0.7483 -0.2014
  497MOL0     C66995   0.837   6.726   4.702 -0.7643  0.0772 -0.1561
  497MOL0     O66996   0.739   6.635   4.744 -0.3090 -0.4463 -0.1333
  497MOL0     C66997   0.704   6.523   4.664  0.1921 -0.7078  0.0491
  497MOL0     C66998   0.584   6.565   4.570 -0.3090  0.1920 -0.0843
  497MOL0     C66999   0.471   6.630   4.652 -0.1548  0.7763 -0.1252
  497MOL0     C67000   0.350   6.655   4.560  0.6762 -0.2396  0.6192
  497MOL0     C67001   0.257   6.767   4.621  0.0337 -0.2679  0.1092
  497MOL0     C67002   0.154   6.821   4.521  0.2461 -0.6984 -0.3382
  497MOL0     C67003   0.062   6.916   4.592 -0.2545 -0.9062 -0.9134
  497MOL0     C67004  -0.009   7.019   4.511  1.1930 -0.1973 -0.8102
  497MOL0    Cl67005  -0.095   6.940   4.370  0.0444 -0.2210  0.1019
  497MOL0     C67006   0.875   6.825   4.796 -0.2454 -0.5458  0.5104
  497MOL0     C67007   0.976   6.922   4.768 -0.5770 -0.4653 -0.0933
  497MOL0     O67008   1.280   6.807   4.744  1.0576  0.0533  0.0775
  497MOL0     C67009   1.389   7.143   4.692  0.3111  0.8983 -0.0639
  497MOL0     C67010   1.502   7.225   4.712 -0.2201 -1.6072 -0.1124
  497MOL0     N67011   2.434   7.447   4.689  0.2932  0.7977  0.1447
  497MOL0     N67012   2.541   7.433   4.618 -0.1421  0.2949 -0.0460
  497MOL0     C67013   3.339   7.895   4.437  0.4197 -0.0076  0.9872
  497MOL0     C67014   3.435   7.991   4.478  0.5217 -0.3325  0.6584
  497MOL0     C67015   3.701   8.332   4.585 -0.7142  0.3647 -0.4166
  497MOL0     C67016   3.732   8.414   4.476  0.4875 -0.2922  0.1311
  497MOL0     C67017   3.806   8.534   4.499  0.0011  0.4433 -0.1699
  497MOL0     C67018   3.852   8.564   4.628  0.6405 -0.6866  0.8600
  497MOL0     O67019   3.935   8.672   4.637  0.2413  0.1989  0.3768
  497MOL0     C67020   3.967   8.718   4.768 -0.0128 -0.0303 -0.4694
  497MOL0     C67021   4.040   8.849   4.752 -0.3823 -0.4303  0.1172
  497MOL0     C67022   4.105   8.887   4.887  0.1604  0.1172 -0.2952
  497MOL0     C67023   4.172   9.020   4.885 -0.5117  0.4180 -0.4111
  497MOL0     C67024   4.208   9.045   5.026 -1.1348 -0.1347  0.4034
  497MOL0     C67025   4.229   9.060   5.144  0.0863 -0.1890  0.0493
  497MOL0     C67026   3.827   8.476   4.736 -0.1864 -0.7612  1.0761
  497MOL0     C67027   3.750   8.365   4.708 -0.3335  0.3733 -0.1505
  497MOL0     H67028   3.435   8.216   4.211  2.3487 -1.4667 -0.8373
  497MOL0     H67029   3.285   8.053   4.127  0.8703  0.1488 -0.8143
  497MOL0     H67030   3.292   7.669   4.265  1.1714 -0.0219  1.8214
  497MOL0     H67031   3.163   7.697   4.391  3.0766 -1.5507  0.2037
  497MOL0     H67032   3.109   7.669   4.089  0.7128 -0.3762 -0.1679
  497MOL0     H67033   3.101   7.533   4.186 -0.7481  0.0416  1.2132
  497MOL0     H67034   2.928   7.677   4.331  1.3133  0.3162  0.4527
  497MOL0     H67035   2.940   7.793   4.190 -0.7184 -0.0685  0.2167
  497MOL0     H67036   2.856   7.626   4.030  4.8889  0.5015 -0.0978
  497MOL0     H67037   2.864   7.510   4.155  2.0531  0.3312  0.8407
  497MOL0     H67038   2.693   7.767   4.160  0.5645  0.4547 -2.8610
  497MOL0     H67039   2.647   7.615   4.074 -0.5457 -0.4926  1.2848
  497MOL0     H67040   2.720   7.585   4.364  0.0586  0.3411  0.0015
  497MOL0     H67041   2.559   7.652   4.324 -0.6379 -1.0750 -0.5760
  497MOL0     H67042   2.500   7.469   4.212 -0.1858 -4.5252 -0.5095
  497MOL0     H67043   2.661   7.397   4.190  0.2091 -1.5823  0.2976
  497MOL0     H67044   2.680   7.355   4.428 -0.9553  1.0026  0.9458
  497MOL0     H67045   2.546   7.269   4.360  2.0190  0.1580 -2.7904
  497MOL0     H67046   2.284   7.398   4.408 -0.2634 -1.0863 -0.3804
  497MOL0     H67047   2.186   7.438   4.784  2.1275  0.3860 -0.1559
  497MOL0     H67048   2.127   7.523   4.640  0.1582  0.9836  3.4527
  497MOL0     H67049   2.128   7.231   4.665  0.8831 -0.2363 -0.8059
  497MOL0     H67050   2.090   7.331   4.519 -0.9935 -0.0870  0.4179
  497MOL0     H67051   1.903   7.438   4.634  0.2088 -0.7278  0.8295
  497MOL0     H67052   1.936   7.364   4.789 -0.7233 -0.1083  0.0056
  497MOL0     H67053   1.884   7.151   4.744 -0.6059 -0.6835 -0.1641
  497MOL0     H67054   1.875   7.178   4.566  0.7320 -1.0093  1.9312
  497MOL0     H67055   1.741   6.991   4.688 -0.8276  0.1986 -1.2190
  497MOL0     H67056   1.511   6.762   4.803  0.7316  0.9745  1.0506
  497MOL0     H67057   1.536   6.758   4.628  0.6676  0.5370 -0.6055
  497MOL0     H67058   1.674   6.782   4.731  0.6102 -0.8776  0.0191
  497MOL0     H67059   1.089   6.794   4.480  3.3304  0.1546  2.0976
  497MOL0     H67060   0.880   6.650   4.509 -4.9098  1.8012 -0.9819
  497MOL0     H67061   0.792   6.489   4.608  0.2591 -1.0179  0.3409
  497MOL0     H67062   0.656   6.446   4.724 -2.0134  0.3438 -0.2625
  497MOL0     H67063   0.623   6.636   4.496  2.9002 -2.5918 -1.2857
  497MOL0     H67064   0.543   6.479   4.517  0.1959  0.9660 -1.8070
  497MOL0     H67065   0.509   6.718   4.704  1.3584 -0.3057  0.6836
  497MOL0     H67066   0.445   6.563   4.735 -0.7470  1.6944  0.4574
  497MOL0     H67067   0.397   6.691   4.468  0.2006 -0.3275  0.3414
  497MOL0     H67068   0.286   6.569   4.536  0.4998  0.2526 -0.7840
  497MOL0     H67069   0.308   6.852   4.666 -1.1096 -0.1915  1.3333
  497MOL0     H67070   0.203   6.723   4.705  1.5858  0.5488  1.5880
  497MOL0     H67071   0.216   6.872   4.446  0.9535  0.7846  1.1927
  497MOL0     H67072   0.095   6.733   4.493 -2.4409 -0.4048  3.5730
  497MOL0     H67073   0.131   6.968   4.659  0.7078 -1.3173 -1.5637
  497MOL0     H67074  -0.024   6.874   4.645 -1.2752  2.1290  0.0214
  497MOL0     H67075   0.056   7.092   4.463  1.5940 -0.1957 -0.2751
  497MOL0     H67076  -0.089   7.066   4.570  0.5967 -2.2956  0.1750
  497MOL0     H67077   0.807   6.839   4.879  0.9190 -0.5341  1.4917
  497MOL0     H67078   1.007   6.983   4.852  0.5678 -1.3096  0.1285
  497MOL0     H67079   1.286   7.177   4.693 -0.3048 -0.8167  1.5436
  497MOL0     H67080   1.491   7.332   4.728 -0.2840 -1.6557  0.1832
  497MOL0     H67081   3.315   7.807   4.495  1.6823 -2.0450 -1.4026
  497MOL0     H67082   3.492   7.965   4.566  0.3030 -0.9348  0.6293
  497MOL0     H67083   3.675   8.406   4.384 -1.4831  2.2937  1.0122
  497MOL0     H67084   3.821   8.603   4.417 -1.1022 -1.6025 -2.2138
  497MOL0     H67085   3.878   8.741   4.827 -0.7291  2.9715 -2.4531
  497MOL0     H67086   4.034   8.643   4.811 -0.1135  0.4812  0.6130
  497MOL0     H67087   3.992   8.944   4.726  1.9410  1.0537  0.8726
  497MOL0     H67088   4.115   8.822   4.678  1.7025 -2.6252  2.8106
  497MOL0     H67089   4.182   8.818   4.922 -0.1730  0.1214  0.4599
  497MOL0     H67090   4.038   8.878   4.973  1.1131 -0.1869  0.4324
  497MOL0     H67091   4.107   9.099   4.847  2.1219  1.9086 -2.1081
  497MOL0     H67092   4.261   9.009   4.822 -1.2797  0.4464 -1.5310
  497MOL0     H67093   4.257   9.090   5.243 -0.4448  1.7068 -0.3255
  497MOL0     H67094   3.860   8.481   4.840  0.0953 -0.7531  0.9871
  497MOL0     H67095   3.713   8.307   4.792 -2.3253 -0.2983 -1.4277
  498MOL0     O67096   2.540   2.931  10.630  0.3338  0.8214 -0.2920
  498MOL0     C67097   2.615   2.865  10.573  0.4565  0.8418 -0.7227
  498MOL0     O67098   2.583   2.803  10.449 -0.8945  0.3850  0.1756
  498MOL0     C67099   2.454   2.779  10.406  0.1908  0.1914  0.0654
  498MOL0     C67100   2.421   2.803  10.272  0.9048  0.3502  0.4848
  498MOL0     C67101   2.290   2.759  10.222  0.1092  0.0708  0.3731
  498MOL0     C67102   2.196   2.695  10.309 -0.0026 -0.0440  0.0244
  498MOL0     O67103   2.064   2.666  10.274 -0.0586  0.2874 -0.1679
  498MOL0     C67104   2.021   2.718  10.156 -1.0988  1.0284  0.4681
  498MOL0     C67105   1.881   2.678  10.132 -0.6435 -0.0484  0.6664
  498MOL0     C67106   1.852   2.540  10.087 -0.9075 -0.3739 -0.2458
  498MOL0     C67107   1.694   2.527  10.072  0.0935 -0.0515 -0.0052
  498MOL0     C67108   1.655   2.398   9.998  0.2581  0.2285  0.0433
  498MOL0     C67109   1.507   2.375   9.985  0.0897  0.1817 -1.3035
  498MOL0     C67110   1.444   2.367  10.125  0.2626 -0.0460 -0.2058
  498MOL0     C67111   1.298   2.308  10.118  0.5544 -0.8945  0.6891
  498MOL0     N67112   1.230   2.380  10.010  0.9424 -0.2883  0.7394
  498MOL0     C67113   1.212   2.334   9.882 -0.0546 -0.2036  0.4529
  498MOL0     C67114   1.136   2.427   9.820  0.1817 -0.7605  0.2968
  498MOL0     C67115   1.075   2.428   9.680 -0.1808  0.6477  0.4463
  498MOL0     C67116   0.970   2.323   9.658 -0.2293  0.0911  0.9675
  498MOL0     C67117   1.016   2.191   9.607 -0.2525  0.0079 -0.5830
  498MOL0     C67118   0.905   2.090   9.566 -0.2519  0.2883 -0.4177
  498MOL0     O67119   0.807   2.083   9.671 -0.7176 -0.1322  0.0857
  498MOL0     C67120   0.688   2.009   9.646  0.5787 -0.7132  0.3869
  498MOL0     C67121   0.633   1.986   9.521  0.1553  0.2920 -0.7876
  498MOL0     C67122   0.515   1.915   9.504 -0.0308  0.5248  0.1763
  498MOL0     C67123   0.465   1.913   9.358  1.0378  0.2401  0.0691
  498MOL0     C67124   0.452   1.844   9.617 -0.6456 -0.5041  1.2100
  498MOL0     C67125   0.341   1.745   9.610  0.1025  0.2374 -0.6402
  498MOL0     O67126   0.289   1.699   9.725  0.2361  0.0318 -0.2531
  498MOL0     C67127   0.160   1.648   9.727  0.1997 -0.4659 -0.7916
  498MOL0     C67128   0.155   1.508   9.718 -0.5625  0.5875  0.0532
  498MOL0     C67129   0.029   1.443   9.710  0.2274  0.2256 -0.2195
  498MOL0     C67130  -0.091   1.512   9.754  0.1960  0.0349  0.7499
  498MOL0     O67131  -0.201   1.430   9.773 -0.5989 -0.2350  1.2085
  498MOL0     C67132  -0.321   1.476   9.834 -0.0085 -0.0312  0.7125
  498MOL0     C67133  -0.306   1.478   9.990  0.4230 -0.2429  0.1216
  498MOL0     C67134  -0.428   1.556  10.043  0.0316  0.6071 -0.2840
  498MOL0     C67135  -0.398   1.694  10.078 -1.0845 -0.9765  0.4825
  498MOL0     C67136  -0.519   1.779  10.123 -0.1660  0.6781  0.1229
  498MOL0     C67137  -0.474   1.917  10.163  0.3785  0.0572  0.2261
  498MOL0     C67138  -0.590   2.012  10.198 -0.2690 -0.4131  0.8135
  498MOL0     C67139  -0.552   2.157  10.216  0.4968  0.4138  0.4514
  498MOL0    Cl67140  -0.419   2.165  10.335  0.0101  0.4389  0.0294
  498MOL0     C67141  -0.080   1.651   9.773  0.3984 -0.3154 -0.0748
  498MOL0     C67142   0.042   1.720   9.763 -0.4656  0.2938  0.3366
  498MOL0     O67143   0.291   1.723   9.505  0.0175  0.9739  0.2525
  498MOL0     C67144   0.521   1.870   9.740  0.3076 -0.8127  0.1416
  498MOL0     C67145   0.630   1.954   9.763 -0.2657  0.7186  0.3456
  498MOL0     N67146   1.111   2.534   9.917 -0.0409 -0.5839 -0.7848
  498MOL0     N67147   1.171   2.500  10.028  0.9199 -0.4552  0.6257
  498MOL0     C67148   2.236   2.672  10.442 -0.6632 -0.1476  0.4086
  498MOL0     C67149   2.356   2.722  10.494  0.0829 -0.6570 -0.3082
  498MOL0     C67150   2.748   2.848  10.625 -0.5555 -0.5069  0.1551
  498MOL0     C67151   2.773   2.877  10.757 -0.5765  0.4701  0.0815
  498MOL0     C67152   2.911   2.868  10.807  0.8789 -0.1590  1.1031
  498MOL0     C67153   3.013   2.818  10.724  0.0876  0.4235  0.6217
  498MOL0     O67154   3.135   2.820  10.782 -0.4146  0.7009 -0.0588
  498MOL0     C67155   3.249   2.797  10.702  0.5304  0.6612  0.5229
  498MOL0     C67156   3.372   2.814  10.792  0.5329 -0.2145  0.2230
  498MOL0     C67157   3.365   2.711  10.908 -0.4540  0.7175  0.8950
  498MOL0     C67158   3.466   2.734  11.022 -0.0541  0.8398 -0.3520
  498MOL0     C67159   3.605   2.735  10.982  0.3335 -0.5550  0.0168
  498MOL0     C67160   3.719   2.734  10.931  0.4776 -0.0838 -0.2141
  498MOL0     C67161   2.986   2.782  10.590 -0.2987 -0.2778 -0.5423
  498MOL0     C67162   2.858   2.800  10.542  0.9417 -0.5717 -0.0748
  498MOL0     H67163   2.492   2.842  10.201 -2.0576  2.9334 -1.3256
  498MOL0     H67164   2.265   2.779  10.119 -2.3118 -0.3473  0.8326
  498MOL0     H67165   2.039   2.826  10.159  1.7257  0.6053  2.1320
  498MOL0     H67166   2.082   2.672  10.077 -0.2429 -2.1836  2.8252
  498MOL0     H67167   1.833   2.702  10.227 -0.0180  0.9721  0.7457
  498MOL0     H67168   1.846   2.736  10.046 -1.8519  1.0640  1.8501
  498MOL0     H67169   1.902   2.511   9.995  2.6254  3.1663  0.2825
  498MOL0     H67170   1.898   2.475  10.163 -0.2788 -1.3327 -1.4240
  498MOL0     H67171   1.647   2.530  10.170  2.0942  0.5678  0.9812
  498MOL0     H67172   1.656   2.608  10.009  0.4461  0.8648  0.9391
  498MOL0     H67173   1.686   2.397   9.893 -0.7551  1.9519 -0.3096
  498MOL0     H67174   1.699   2.310  10.045  1.3314  0.6629 -0.1290
  498MOL0     H67175   1.471   2.467   9.939 -3.7513 -0.5499 -0.1276
  498MOL0     H67176   1.491   2.284   9.927  2.0900 -1.7148  0.8822
  498MOL0     H67177   1.510   2.321  10.200  1.0248 -1.5774 -1.7345
  498MOL0     H67178   1.432   2.469  10.161 -0.6079  0.2264 -1.2338
  498MOL0     H67179   1.245   2.320  10.213 -0.5270  4.5270 -0.2981
  498MOL0     H67180   1.314   2.206  10.081  0.7304 -0.7739  0.4301
  498MOL0     H67181   1.258   2.248   9.835  2.0458  0.5185  1.0475
  498MOL0     H67182   1.032   2.527   9.667 -1.3169  0.1788  0.4520
  498MOL0     H67183   1.151   2.419   9.603 -0.2018 -0.4044  0.5314
  498MOL0     H67184   0.903   2.367   9.583  1.4370  0.9942 -0.0470
  498MOL0     H67185   0.912   2.298   9.747  1.3187 -0.0488  1.9693
  498MOL0     H67186   1.063   2.137   9.690 -0.6017 -2.2905 -1.7900
  498MOL0     H67187   1.092   2.198   9.529  0.8009 -1.5602  0.2494
  498MOL0     H67188   0.954   1.993   9.554  1.7794  1.3547 -1.2115
  498MOL0     H67189   0.859   2.120   9.471  0.7790 -0.9802 -1.3597
  498MOL0     H67190   0.681   2.038   9.438  1.6659  0.9071  0.4313
  498MOL0     H67191   0.372   1.971   9.356  1.1680  0.4353 -0.3310
  498MOL0     H67192   0.542   1.949   9.289  3.4494 -1.5191  1.6784
  498MOL0     H67193   0.450   1.814   9.316  2.3952 -0.6513  1.5649
  498MOL0     H67194   0.248   1.452   9.714 -1.4617 -0.8963 -2.1598
  498MOL0     H67195   0.013   1.336   9.699 -0.0870  0.4276 -2.1551
  498MOL0     H67196  -0.347   1.577   9.803 -0.8642 -0.5329 -0.2282
  498MOL0     H67197  -0.407   1.418   9.799  0.5499  0.9933 -2.7156
  498MOL0     H67198  -0.301   1.378  10.035 -1.5981 -0.6468 -0.4518
  498MOL0     H67199  -0.210   1.522  10.017 -0.7939  0.9794  2.9369
  498MOL0     H67200  -0.465   1.506  10.133  1.9007  1.2587  0.9086
  498MOL0     H67201  -0.511   1.559   9.973  1.3197  2.2708 -1.8330
  498MOL0     H67202  -0.321   1.699  10.156  0.2396  1.1851 -0.8397
  498MOL0     H67203  -0.366   1.745   9.986 -0.3797 -0.2701  1.1003
  498MOL0     H67204  -0.580   1.739  10.205 -0.8631  0.8759 -0.2971
  498MOL0     H67205  -0.586   1.791  10.038 -1.3600  1.3835  1.1335
  498MOL0     H67206  -0.410   1.899  10.250 -0.5749 -4.2553  0.2852
  498MOL0     H67207  -0.408   1.958  10.086 -1.2306 -1.4230 -2.0818
  498MOL0     H67208  -0.640   1.971  10.286  2.2222  2.8341  4.0213
  498MOL0     H67209  -0.655   2.004  10.110  1.0440 -1.5450 -0.0930
  498MOL0     H67210  -0.631   2.223  10.254 -2.1499 -1.6813 -1.1376
  498MOL0     H67211  -0.533   2.206  10.120  0.2098 -0.7147 -0.1947
  498MOL0     H67212  -0.157   1.719   9.807  0.4563 -0.0979 -0.3712
  498MOL0     H67213   0.047   1.827   9.780 -0.7247 -0.0558  2.9298
  498MOL0     H67214   0.465   1.825   9.821 -0.2446 -1.1083 -0.3997
  498MOL0     H67215   0.662   1.981   9.863 -0.8777 -2.9143  1.6659
  498MOL0     H67216   2.166   2.619  10.506 -1.0891 -0.3123 -0.1815
  498MOL0     H67217   2.398   2.699  10.591 -1.0753  0.9941  0.6366
  498MOL0     H67218   2.704   2.914  10.832  1.1559  0.8622  1.5509
  498MOL0     H67219   2.941   2.906  10.904  3.1148  0.8346  0.0945
  498MOL0     H67220   3.246   2.696  10.661 -0.8399  0.8583  0.1035
  498MOL0     H67221   3.252   2.860  10.612  0.0626  1.1409  0.8385
  498MOL0     H67222   3.379   2.912  10.839  0.3172  0.2074 -0.6207
  498MOL0     H67223   3.464   2.794  10.737  0.9070  0.8803  0.4268
  498MOL0     H67224   3.382   2.612  10.866  3.2036  0.8785  1.6518
  498MOL0     H67225   3.263   2.702  10.945  0.1815 -1.8963  2.2421
  498MOL0     H67226   3.452   2.657  11.098 -1.0336 -0.0677 -1.4287
  498MOL0     H67227   3.452   2.831  11.072  2.3620  1.7091 -1.1879
  498MOL0     H67228   3.808   2.731  10.870 -0.2364  0.9354 -1.3750
  498MOL0     H67229   3.056   2.735  10.521 -0.1296 -0.6757 -0.1023
  498MOL0     H67230   2.841   2.768  10.440  0.9720 -0.5251 -0.0947
  499MOL0     O67231   5.777   2.257   1.654  0.1008  0.8043 -0.6189
  499MOL0     C67232   5.795   2.244   1.532 -0.0129 -0.4518 -1.0502
  499MOL0     O67233   5.748   2.140   1.453  0.1968 -0.1571 -0.1211
  499MOL0     C67234   5.648   2.060   1.495  1.2915  0.5330  0.1213
  499MOL0     C67235   5.564   2.068   1.617 -0.2388  0.3039 -0.4642
  499MOL0     C67236   5.451   1.990   1.633 -0.6522 -0.2239  0.2420
  499MOL0     C67237   5.425   1.895   1.535  0.5306 -0.2883  0.1965
  499MOL0     O67238   5.320   1.810   1.567 -0.6681  0.3611  0.3113
  499MOL0     C67239   5.231   1.769   1.455 -0.5002 -0.6573 -0.5722
  499MOL0     C67240   5.107   1.702   1.515  0.2535  0.7885  0.1052
  499MOL0     C67241   4.983   1.665   1.431 -0.2561  0.3210  0.5210
  499MOL0     C67242   4.911   1.783   1.376 -0.1249 -0.3776 -0.1173
  499MOL0     C67243   4.777   1.757   1.304  0.8462  0.2252  0.8051
  499MOL0     C67244   4.665   1.712   1.409  0.3916 -0.5003 -0.5668
  499MOL0     C67245   4.531   1.779   1.376  0.4047 -0.2116 -0.1461
  499MOL0     C67246   4.415   1.739   1.461 -0.1602 -0.4283  0.1730
  499MOL0     N67247   4.309   1.836   1.458 -0.2540 -0.2444  0.3470
  499MOL0     C67248   4.233   1.867   1.345  0.0203 -0.2991 -0.5769
  499MOL0     C67249   4.145   1.958   1.390 -0.6474 -1.0102  0.2068
  499MOL0     C67250   4.036   2.026   1.318 -0.3091 -1.0735  0.0900
  499MOL0     C67251   3.892   1.974   1.349  0.5305 -0.0911 -0.1441
  499MOL0     C67252   3.787   2.012   1.241  0.0060 -0.2383 -0.1251
  499MOL0     C67253   3.649   2.038   1.302  0.4284  0.3184 -0.3911
  499MOL0     O67254   3.589   1.919   1.353  0.1001  0.5709 -0.0349
  499MOL0     C67255   3.467   1.938   1.419  0.4737 -0.3061  1.5166
  499MOL0     C67256   3.396   1.818   1.440 -0.6462  0.3658 -0.7959
  499MOL0     C67257   3.263   1.816   1.485  0.7919  0.0306  0.0606
  499MOL0     C67258   3.189   1.682   1.493 -0.8966 -0.2087 -0.7476
  499MOL0     C67259   3.204   1.942   1.515 -0.3479  0.4194  0.5693
  499MOL0     C67260   3.065   1.949   1.569 -0.1200  0.6282  0.1532
  499MOL0     O67261   2.971   1.872   1.526  0.8253  0.8363 -0.0766
  499MOL0     C67262   2.838   1.860   1.569 -1.2070 -0.6626  0.0343
  499MOL0     C67263   2.765   1.757   1.518  0.2835  0.6587 -0.0991
  499MOL0     C67264   2.629   1.726   1.555 -0.0453 -0.1582  0.0275
  499MOL0     C67265   2.567   1.806   1.648 -0.9403 -0.4010  0.1610
  499MOL0     O67266   2.438   1.799   1.680 -0.2983  0.0527 -0.2131
  499MOL0     C67267   2.347   1.774   1.576 -0.1361 -0.3233  0.7246
  499MOL0     C67268   2.197   1.801   1.611  0.3834 -0.0982 -0.5713
  499MOL0     C67269   2.145   1.712   1.726  0.3825 -0.3333  1.0141
  499MOL0     C67270   1.993   1.679   1.717 -0.5975  0.1592 -0.5665
  499MOL0     C67271   1.939   1.637   1.854 -0.3247  0.3516 -0.2141
  499MOL0     C67272   1.793   1.586   1.836  0.0751 -0.0608 -0.0957
  499MOL0     C67273   1.698   1.651   1.933 -0.3170 -0.2282  0.2017
  499MOL0     C67274   1.555   1.610   1.891 -0.4098 -0.6803  0.0703
  499MOL0    Cl67275   1.526   1.438   1.894 -0.3532 -0.7271  0.2192
  499MOL0     C67276   2.642   1.913   1.709  0.1559 -0.3088  0.2229
  499MOL0     C67277   2.768   1.944   1.660 -0.4770  0.3658  0.3932
  499MOL0     O67278   3.062   2.040   1.650  0.7920  0.2989 -0.3202
  499MOL0     C67279   3.275   2.058   1.499 -0.0247 -0.3294 -0.3121
  499MOL0     C67280   3.400   2.064   1.438  0.0779  0.9227 -0.2068
  499MOL0     N67281   4.164   1.976   1.530  0.1870 -0.3777 -0.3728
  499MOL0     N67282   4.259   1.902   1.563  0.3933 -0.0070 -0.2984
  499MOL0     C67283   5.496   1.889   1.416  0.0412 -0.1128 -0.6648
  499MOL0     C67284   5.609   1.966   1.399 -0.4090 -0.6747 -0.1399
  499MOL0     C67285   5.910   2.317   1.482 -1.3309 -0.2633 -0.5186
  499MOL0     C67286   5.995   2.408   1.553 -0.4119  0.0901 -0.1794
  499MOL0     C67287   6.076   2.506   1.489 -0.3772  0.2256  1.1521
  499MOL0     C67288   6.085   2.500   1.351  0.3800  0.4249  0.4205
  499MOL0     O67289   6.158   2.584   1.275 -0.2561  1.2368 -0.0589
  499MOL0     C67290   6.250   2.676   1.330  0.4361 -0.4201 -0.2047
  499MOL0     C67291   6.381   2.611   1.378  0.4259  0.2731 -0.5711
  499MOL0     C67292   6.488   2.597   1.269  0.1233  0.0234  0.2673
  499MOL0     C67293   6.451   2.508   1.148  0.6830 -0.2251  0.3267
  499MOL0     C67294   6.576   2.467   1.079 -0.5968  0.0947 -0.0677
  499MOL0     C67295   6.671   2.436   1.020 -0.5107 -0.7600 -0.2486
  499MOL0     C67296   6.007   2.406   1.281  0.5392 -0.4441 -0.3085
  499MOL0     C67297   5.924   2.320   1.346  0.5749 -0.4120 -0.6078
  499MOL0     H67298   5.586   2.141   1.694  0.6098 -0.1504 -0.2731
  499MOL0     H67299   5.393   2.009   1.723 -0.1138 -1.3044  0.8387
  499MOL0     H67300   5.204   1.864   1.409  0.3914 -1.0036 -1.8465
  499MOL0     H67301   5.292   1.699   1.397  0.5686 -0.8253  0.6939
  499MOL0     H67302   5.140   1.601   1.542 -0.2111  0.5677 -0.1347
  499MOL0     H67303   5.074   1.756   1.604 -1.8195 -4.3573  2.9069
  499MOL0     H67304   5.007   1.602   1.345 -1.6997  1.8495 -1.0900
  499MOL0     H67305   4.911   1.612   1.494 -1.7966 -0.2805 -1.6234
  499MOL0     H67306   4.900   1.855   1.457  3.8188  0.2291  0.0818
  499MOL0     H67307   4.969   1.832   1.297  1.0930 -0.9424  0.3915
  499MOL0     H67308   4.750   1.851   1.256  4.2842 -0.4165 -2.9719
  499MOL0     H67309   4.787   1.676   1.230  2.1566 -1.0885  2.3483
  499MOL0     H67310   4.650   1.604   1.406 -1.1753 -0.3671  1.0438
  499MOL0     H67311   4.689   1.743   1.511  1.2460  1.1022 -1.2170
  499MOL0     H67312   4.554   1.886   1.375 -1.4127  0.2303  1.2192
  499MOL0     H67313   4.508   1.754   1.272  1.1160 -1.0547 -0.1110
  499MOL0     H67314   4.446   1.720   1.564 -2.8138 -1.0771  0.9341
  499MOL0     H67315   4.389   1.639   1.425  0.4586 -0.2453 -0.7975
  499MOL0     H67316   4.257   1.837   1.243 -1.7453  1.9431 -1.7377
  499MOL0     H67317   4.057   2.129   1.350  0.4692 -0.9179 -0.8678
  499MOL0     H67318   4.059   2.024   1.211  2.4120  1.5005  0.4759
  499MOL0     H67319   3.869   2.005   1.452  2.2393 -2.1134  0.9016
  499MOL0     H67320   3.890   1.866   1.362  0.9167  0.0465  1.1982
  499MOL0     H67321   3.781   1.933   1.166 -1.2465  0.8760 -1.2491
  499MOL0     H67322   3.826   2.100   1.188  1.8115 -2.0523 -1.9891
  499MOL0     H67323   3.583   2.088   1.231 -0.5394 -1.4466 -0.8017
  499MOL0     H67324   3.666   2.105   1.386 -0.8153 -0.5142  0.5596
  499MOL0     H67325   3.444   1.726   1.408 -0.0196  0.2131  0.5337
  499MOL0     H67326   3.263   1.601   1.492 -0.7187 -0.0576 -0.2453
  499MOL0     H67327   3.128   1.685   1.584  0.2929  2.6297  0.0892
  499MOL0     H67328   3.122   1.667   1.409 -0.7162  0.4133 -1.0052
  499MOL0     H67329   2.829   1.696   1.455 -2.7118 -0.6875 -2.0892
  499MOL0     H67330   2.592   1.646   1.491  1.7737 -1.2810  0.3251
  499MOL0     H67331   2.374   1.822   1.482 -0.7460 -1.1843  0.0962
  499MOL0     H67332   2.357   1.670   1.545 -5.4126 -1.0596  0.4755
  499MOL0     H67333   2.190   1.905   1.644 -1.1561 -0.2978 -0.1982
  499MOL0     H67334   2.138   1.796   1.520 -3.9382  3.4290  1.6836
  499MOL0     H67335   2.167   1.763   1.820 -2.2126  1.6633  0.6560
  499MOL0     H67336   2.194   1.614   1.719 -2.1141 -1.5473 -1.9827
  499MOL0     H67337   1.940   1.771   1.690 -2.4884 -0.1906  1.5895
  499MOL0     H67338   1.972   1.611   1.634 -1.2793  2.1228 -2.0758
  499MOL0     H67339   1.946   1.711   1.934  1.1079  0.5711 -0.5235
  499MOL0     H67340   2.011   1.565   1.894 -0.3299  0.9871  0.9905
  499MOL0     H67341   1.754   1.611   1.737 -3.6940  1.3923  1.5939
  499MOL0     H67342   1.786   1.477   1.837  2.1200 -0.2394  0.6869
  499MOL0     H67343   1.719   1.758   1.916 -1.4010 -0.0487 -0.0433
  499MOL0     H67344   1.699   1.615   2.036 -3.4469  0.0407  0.4248
  499MOL0     H67345   1.539   1.642   1.788  1.9064 -1.5276 -0.6020
  499MOL0     H67346   1.483   1.666   1.952 -1.0812 -0.6331 -0.7481
  499MOL0     H67347   2.593   1.970   1.786 -0.6708  0.5754 -0.9169
  499MOL0     H67348   2.814   2.036   1.695  0.7524  0.5312 -1.5394
  499MOL0     H67349   3.229   2.155   1.512  2.8376  1.5113 -2.5236
  499MOL0     H67350   3.462   2.150   1.417  0.3668  0.5812 -0.7569
  499MOL0     H67351   5.471   1.819   1.337 -0.9265 -0.9108  0.3170
  499MOL0     H67352   5.673   1.954   1.312 -0.9911  1.0358 -0.8575
  499MOL0     H67353   5.985   2.399   1.661 -0.5593  1.2722 -0.0891
  499MOL0     H67354   6.147   2.573   1.536  0.8018 -0.3684  0.2490
  499MOL0     H67355   6.267   2.752   1.253  0.0342  1.1574  1.2253
  499MOL0     H67356   6.208   2.724   1.419  0.5410  0.7290 -0.7602
  499MOL0     H67357   6.373   2.518   1.434  2.9200 -0.0918 -0.6992
  499MOL0     H67358   6.424   2.667   1.462  0.6461  1.3560 -1.3758
  499MOL0     H67359   6.570   2.541   1.314  3.1180  0.7359 -3.6819
  499MOL0     H67360   6.518   2.698   1.238 -2.4317  1.0373  0.8488
  499MOL0     H67361   6.388   2.564   1.078  0.2940  0.1506  0.9705
  499MOL0     H67362   6.401   2.422   1.193  2.3648  0.0755  3.0125
  499MOL0     H67363   6.748   2.395   0.957 -0.1635 -0.5472  0.0320
  499MOL0     H67364   6.011   2.400   1.173 -0.7945 -1.0393 -0.3458
  499MOL0     H67365   5.858   2.248   1.299  2.0806 -4.0291  2.3745
  500MOL0     O67366   6.065   5.859   7.309 -0.0347  0.1268  0.1241
  500MOL0     C67367   6.065   5.810   7.194 -0.3703 -0.4808 -0.0469
  500MOL0     O67368   5.953   5.778   7.119 -0.1608 -0.3823  0.3698
  500MOL0     C67369   5.830   5.819   7.163  0.7334 -0.4955 -0.0045
  500MOL0     C67370   5.799   5.921   7.258  0.2153 -0.7396  0.0951
  500MOL0     C67371   5.659   5.941   7.296  0.1223  0.4419 -0.4842
  500MOL0     C67372   5.549   5.892   7.221  0.7868 -0.2994  0.3621
  500MOL0     O67373   5.416   5.908   7.251  0.7710 -0.1381  0.1864
  500MOL0     C67374   5.389   6.008   7.352  0.6123 -0.4682  0.2911
  500MOL0     C67375   5.234   6.010   7.363  0.8041  0.0769 -0.2819
  500MOL0     C67376   5.168   5.886   7.432 -0.0516  0.0289  0.1310
  500MOL0     C67377   5.021   5.886   7.427  0.4987 -0.3851  0.0160
  500MOL0     C67378   4.962   6.012   7.492 -0.5347  1.7177 -0.2165
  500MOL0     C67379   4.811   6.000   7.508 -0.3828 -0.6905  0.1199
  500MOL0     C67380   4.753   6.035   7.368 -0.0915  0.1222 -0.6977
  500MOL0     C67381   4.603   6.079   7.372 -0.8667 -0.1489  0.0250
  500MOL0     N67382   4.566   6.192   7.458 -0.5949 -0.0285 -0.5227
  500MOL0     C67383   4.525   6.162   7.590 -0.2273  0.5986  0.0780
  500MOL0     C67384   4.531   6.285   7.646 -0.7562 -0.5120  0.3163
  500MOL0     C67385   4.491   6.324   7.787  0.9793 -0.2041 -0.4478
  500MOL0     C67386   4.348   6.381   7.771 -0.8551  0.0219  0.4974
  500MOL0     C67387   4.264   6.384   7.896 -0.4474 -0.7296  0.2049
  500MOL0     C67388   4.132   6.440   7.870 -0.1642 -0.2471  0.8572
  500MOL0     O67389   4.068   6.437   8.001 -0.2603 -0.0122  0.3218
  500MOL0     C67390   3.949   6.504   8.006  0.4731 -0.6765 -0.9657
  500MOL0     C67391   3.875   6.571   7.901  0.5620 -0.8296  0.3404
  500MOL0     C67392   3.747   6.642   7.930 -0.0851  0.0038 -0.4093
  500MOL0     C67393   3.673   6.709   7.822 -0.5092 -0.4608 -0.6693
  500MOL0     C67394   3.701   6.643   8.068  0.9835 -0.0075 -0.1526
  500MOL0     C67395   3.570   6.698   8.110 -0.2491 -0.6366  0.5165
  500MOL0     O67396   3.498   6.775   8.028 -0.1737 -0.2291  0.6969
  500MOL0     C67397   3.378   6.834   8.067  0.7248 -0.1931 -0.1749
  500MOL0     C67398   3.383   6.940   8.151 -0.4599 -0.3497  0.6223
  500MOL0     C67399   3.275   7.017   8.182  0.7849 -0.7008  0.4943
  500MOL0     C67400   3.149   6.987   8.135  0.7331  0.6569 -0.2983
  500MOL0     O67401   3.043   7.058   8.177  0.3807 -0.4838  0.4250
  500MOL0     C67402   3.039   7.131   8.300 -1.1680  0.2958 -0.5826
  500MOL0     C67403   2.901   7.165   8.340 -0.3533 -0.3121 -0.1631
  500MOL0     C67404   2.835   7.239   8.222 -0.4485  0.4353  1.2167
  500MOL0     C67405   2.721   7.325   8.278 -0.3081  1.2266  0.3565
  500MOL0     C67406   2.663   7.402   8.161  0.2226  0.4925 -0.2143
  500MOL0     C67407   2.526   7.470   8.199 -0.5423  0.6487  0.4577
  500MOL0     C67408   2.412   7.381   8.255  0.6426 -0.3968 -0.4636
  500MOL0     C67409   2.276   7.453   8.235 -0.0243  0.3005 -0.7475
  500MOL0    Cl67410   2.225   7.437   8.063 -0.0792  0.4626 -0.0702
  500MOL0     C67411   3.135   6.888   8.047 -0.0570  0.8722  0.2746
  500MOL0     C67412   3.249   6.801   8.021  0.1062 -0.6257  0.9958
  500MOL0     O67413   3.538   6.677   8.225  0.0235 -1.0406  0.4432
  500MOL0     C67414   3.782   6.578   8.166  0.5978 -0.4098 -0.1869
  500MOL0     C67415   3.896   6.515   8.133  0.6835  0.2366 -0.3438
  500MOL0     N67416   4.576   6.380   7.548 -0.0878  0.0347 -0.1400
  500MOL0     N67417   4.591   6.320   7.435  0.1912 -0.1034 -0.0363
  500MOL0     C67418   5.588   5.811   7.111 -0.1390 -0.0876  1.1438
  500MOL0     C67419   5.725   5.773   7.083 -0.5172  0.1970  0.6110
  500MOL0     C67420   6.190   5.788   7.123  0.1429  0.3968 -0.1289
  500MOL0     C67421   6.195   5.754   6.991 -0.8907  0.1513  0.3831
  500MOL0     C67422   6.321   5.728   6.933 -0.7775  0.1608  0.3297
  500MOL0     C67423   6.444   5.736   7.011  0.9020 -0.8694  0.6859
  500MOL0     O67424   6.563   5.690   6.978 -0.2218  0.6455  0.1631
  500MOL0     C67425   6.580   5.622   6.849 -1.0789  1.0199 -0.0200
  500MOL0     C67426   6.720   5.559   6.851  0.4096  0.1435 -0.2861
  500MOL0     C67427   6.839   5.649   6.823  0.0394  0.2041  0.4302
  500MOL0     C67428   6.826   5.727   6.687  0.6333  0.1295 -0.8056
  500MOL0     C67429   6.952   5.792   6.652 -0.2389  0.3160 -0.6853
  500MOL0     C67430   7.061   5.842   6.639 -0.2350 -0.0136  1.1248
  500MOL0     C67431   6.428   5.801   7.132 -0.1443  0.0777  0.2988
  500MOL0     C67432   6.311   5.821   7.195  0.3018  0.1454 -0.0988
  500MOL0     H67433   5.879   5.986   7.294 -0.5506  1.0214 -1.2114
  500MOL0     H67434   5.639   6.010   7.377  0.0602 -0.0961 -0.0333
  500MOL0     H67435   5.440   5.989   7.447  1.3754 -1.1613 -0.2474
  500MOL0     H67436   5.414   6.105   7.308  0.6649 -0.5640  0.1081
  500MOL0     H67437   5.205   6.097   7.423 -1.1576 -0.0796 -0.9367
  500MOL0     H67438   5.181   6.025   7.269  0.7328 -1.6709 -0.5427
  500MOL0     H67439   5.204   5.798   7.378  0.0966  1.4687 -2.3034
  500MOL0     H67440   5.195   5.897   7.538 -3.4402  4.1175  0.8276
  500MOL0     H67441   4.988   5.881   7.323  2.5587  1.7084 -0.8021
  500MOL0     H67442   4.978   5.804   7.487  0.6467 -0.7577 -0.3816
  500MOL0     H67443   4.997   6.004   7.595  0.3601 -1.9376 -0.6898
  500MOL0     H67444   4.998   6.108   7.453  0.4051  1.1682 -0.7401
  500MOL0     H67445   4.785   5.901   7.547  1.7382 -1.5736 -0.5068
  500MOL0     H67446   4.777   6.074   7.580  0.0314 -2.0863  1.8181
  500MOL0     H67447   4.805   6.112   7.310 -1.8865  1.2402 -0.8637
  500MOL0     H67448   4.766   5.937   7.321  0.9122 -0.7550  1.3017
  500MOL0     H67449   4.537   5.994   7.391 -3.5146  1.3304 -1.8281
  500MOL0     H67450   4.583   6.123   7.274 -1.2117 -0.4003 -0.0200
  500MOL0     H67451   4.507   6.066   7.637 -4.2657  1.0028 -0.2925
  500MOL0     H67452   4.493   6.230   7.844 -0.7443 -1.0890 -1.7625
  500MOL0     H67453   4.557   6.402   7.827  0.2788 -1.2063  3.0498
  500MOL0     H67454   4.303   6.312   7.698 -0.2044 -0.2703  0.3611
  500MOL0     H67455   4.347   6.480   7.725 -2.7261  0.8737  2.2191
  500MOL0     H67456   4.309   6.448   7.973  0.3064  0.2674 -1.0401
  500MOL0     H67457   4.251   6.282   7.934  0.2519 -0.4613  1.2216
  500MOL0     H67458   4.082   6.380   7.793  2.6956  0.0413 -1.4483
  500MOL0     H67459   4.141   6.534   7.814  1.6258 -2.9166 -3.9844
  500MOL0     H67460   3.899   6.577   7.795 -1.4959  0.1148 -0.1104
  500MOL0     H67461   3.580   6.652   7.807  0.6074 -2.0139 -2.0167
  500MOL0     H67462   3.665   6.813   7.854 -1.1834 -0.7483  0.1254
  500MOL0     H67463   3.732   6.714   7.730 -1.8685  1.0731 -1.5115
  500MOL0     H67464   3.478   6.974   8.192 -0.7283 -1.2418  2.0458
  500MOL0     H67465   3.301   7.105   8.240  1.5421 -0.6868  0.1484
  500MOL0     H67466   3.058   7.066   8.386 -1.8963  0.1269 -0.5399
  500MOL0     H67467   3.103   7.219   8.297  0.6396 -0.8149  2.0748
  500MOL0     H67468   2.842   7.075   8.358 -2.0347  0.3390 -2.0565
  500MOL0     H67469   2.901   7.223   8.432  0.6833  0.9755 -0.9308
  500MOL0     H67470   2.820   7.170   8.138  2.7885 -1.2687  1.8631
  500MOL0     H67471   2.906   7.308   8.176  0.7184 -1.4808  0.0219
  500MOL0     H67472   2.650   7.255   8.323  2.3822  0.5158  3.9261
  500MOL0     H67473   2.750   7.384   8.365 -0.7976 -1.5896  2.6035
  500MOL0     H67474   2.643   7.330   8.081  0.6128 -1.5056  1.4071
  500MOL0     H67475   2.735   7.476   8.125 -1.3031  2.2276  0.1569
  500MOL0     H67476   2.533   7.565   8.252 -1.2726  2.3889 -2.3316
  500MOL0     H67477   2.489   7.492   8.099 -1.3276 -2.6268 -0.0882
  500MOL0     H67478   2.438   7.372   8.360 -0.3067  3.1544  0.2002
  500MOL0     H67479   2.402   7.280   8.215 -0.7255 -1.5610  2.5422
  500MOL0     H67480   2.282   7.556   8.271  0.5738 -0.8928  2.9801
  500MOL0     H67481   2.209   7.408   8.309  0.9065 -0.2471 -0.2172
  500MOL0     H67482   3.047   6.863   7.988  0.2752  0.1871  0.0633
  500MOL0     H67483   3.224   6.721   7.952 -2.0030  2.2654 -1.8724
  500MOL0     H67484   3.753   6.576   8.270 -1.8138 -0.0529 -0.7979
  500MOL0     H67485   3.951   6.478   8.218 -0.1979  2.8939  1.5211
  500MOL0     H67486   5.502   5.776   7.055  1.1187 -0.6433 -0.5368
  500MOL0     H67487   5.763   5.701   7.011 -0.3731  0.3836  0.4987
  500MOL0     H67488   6.120   5.722   6.920  0.4475  0.4338 -1.2249
  500MOL0     H67489   6.333   5.690   6.833  2.0208 -0.3227  0.7873
  500MOL0     H67490   6.510   5.538   6.841  1.1963 -0.9582 -0.1316
  500MOL0     H67491   6.574   5.685   6.759  0.6883 -1.9751 -2.4073
  500MOL0     H67492   6.723   5.485   6.770  0.4035 -0.9780  0.7030
  500MOL0     H67493   6.740   5.501   6.942  1.4311 -0.8333 -1.1069
  500MOL0     H67494   6.931   5.591   6.832  0.4965  0.6067 -1.3181
  500MOL0     H67495   6.834   5.712   6.913 -1.7503 -0.4485  0.8432
  500MOL0     H67496   6.756   5.809   6.703  0.5571 -0.4295  2.5746
  500MOL0     H67497   6.767   5.663   6.620 -1.6310 -0.3888  1.5334
  500MOL0     H67498   7.158   5.886   6.629  0.8615 -2.5945 -0.6776
  500MOL0     H67499   6.523   5.818   7.181 -0.4991  0.6280  0.7983
  500MOL0     H67500   6.306   5.864   7.294  0.4472  0.0454 -0.0479
  501MOL0     O67501   5.188   7.478   2.470 -0.0020 -0.2297 -0.5663
  501MOL0     C67502   5.220   7.601   2.473 -0.6793  0.2134 -0.0228
  501MOL0     O67503   5.133   7.703   2.487 -0.2397  0.2933  0.9987
  501MOL0     C67504   4.999   7.668   2.495 -0.2781  0.6671  0.5693
  501MOL0     C67505   4.933   7.673   2.625  0.3599 -0.0035 -0.0820
  501MOL0     C67506   4.794   7.654   2.634  0.4100 -0.2340  0.0084
  501MOL0     C67507   4.723   7.632   2.519  0.1031  0.1665 -0.5324
  501MOL0     O67508   4.588   7.602   2.530 -0.2921  0.0879 -0.2649
  501MOL0     C67509   4.512   7.672   2.627  0.7641 -0.0410 -0.1545
  501MOL0     C67510   4.408   7.580   2.698  0.5154  0.1896 -0.1504
  501MOL0     C67511   4.282   7.546   2.615  0.9979  0.1433 -0.9725
  501MOL0     C67512   4.176   7.490   2.698 -0.0602 -0.1343 -0.3007
  501MOL0     C67513   4.076   7.595   2.749  0.3721  0.4686  0.5659
  501MOL0     C67514   3.976   7.534   2.844  0.5081  1.1836 -0.4052
  501MOL0     C67515   3.882   7.636   2.902  0.1002 -0.0853  0.5494
  501MOL0     C67516   3.944   7.751   2.983  0.1152 -0.2962 -0.2743
  501MOL0     N67517   3.993   7.716   3.119 -0.4338 -0.3240 -0.3997
  501MOL0     C67518   3.928   7.651   3.227 -0.4287 -0.1622  0.9040
  501MOL0     C67519   4.027   7.643   3.321  1.0625 -0.8743 -0.0752
  501MOL0     C67520   4.005   7.561   3.442 -0.8314  0.8479  0.7720
  501MOL0     C67521   4.064   7.621   3.566 -0.1243 -0.4379 -0.0186
  501MOL0     C67522   4.017   7.759   3.617  0.5865  0.2158  0.5426
  501MOL0     C67523   3.871   7.775   3.665  0.1939  0.4374 -0.2109
  501MOL0     O67524   3.764   7.734   3.568 -0.5184 -0.4091 -0.6551
  501MOL0     C67525   3.628   7.733   3.606 -0.0509  0.2854 -0.4484
  501MOL0     C67526   3.563   7.791   3.717  0.4527 -0.1801 -0.2117
  501MOL0     C67527   3.430   7.775   3.746  0.4635  0.8106 -0.1876
  501MOL0     C67528   3.369   7.859   3.860  0.4967  0.0434  0.2128
  501MOL0     C67529   3.354   7.682   3.672 -0.1982 -0.7511 -1.0505
  501MOL0     C67530   3.213   7.643   3.708 -0.9463  0.1610  0.3799
  501MOL0     O67531   3.137   7.605   3.611  0.1558 -0.5400  1.2951
  501MOL0     C67532   3.003   7.605   3.625  0.2975  0.1511 -0.1879
  501MOL0     C67533   2.949   7.504   3.709  0.5091 -0.2259  0.1890
  501MOL0     C67534   2.809   7.494   3.731 -0.1005 -0.3528 -0.2892
  501MOL0     C67535   2.722   7.589   3.664  0.2986  0.2213  0.2113
  501MOL0     O67536   2.587   7.575   3.675 -0.8482  0.2117  0.5718
  501MOL0     C67537   2.520   7.449   3.707  0.1325  0.3549  0.4048
  501MOL0     C67538   2.370   7.461   3.683  0.2408 -0.3808  0.7016
  501MOL0     C67539   2.283   7.353   3.761  0.3973  0.1852 -0.7029
  501MOL0     C67540   2.133   7.383   3.754  0.7029 -0.6122 -0.0671
  501MOL0     C67541   2.082   7.481   3.864  0.2453  0.1056  0.1433
  501MOL0     C67542   1.944   7.534   3.828  0.7894  0.2672 -0.0429
  501MOL0     C67543   1.827   7.453   3.867  0.1913 -0.2334 -0.3585
  501MOL0     C67544   1.806   7.455   4.021 -0.0676 -0.5599  0.3875
  501MOL0    Cl67545   1.650   7.381   4.070 -0.4181 -0.0388  0.0563
  501MOL0     C67546   2.775   7.693   3.589 -0.3815 -0.0966 -0.8760
  501MOL0     C67547   2.913   7.700   3.574  0.5136 -0.0418  0.7162
  501MOL0     O67548   3.183   7.633   3.822  0.1669  0.4801  0.2349
  501MOL0     C67549   3.417   7.625   3.563 -0.2006 -0.1623  0.3007
  501MOL0     C67550   3.548   7.658   3.528 -0.6428  0.4005  1.2544
  501MOL0     N67551   4.148   7.694   3.271  0.5813  0.1069 -0.2616
  501MOL0     N67552   4.125   7.742   3.150 -0.1741  0.3162  0.2046
  501MOL0     C67553   4.791   7.613   2.395  0.3743 -0.0405 -0.5771
  501MOL0     C67554   4.925   7.635   2.382  0.5166 -0.0637 -0.4885
  501MOL0     C67555   5.366   7.647   2.477  0.1626  0.2967 -0.2525
  501MOL0     C67556   5.467   7.550   2.465  0.0261  0.1583 -0.1316
  501MOL0     C67557   5.602   7.582   2.478 -0.1870 -0.6247  0.1544
  501MOL0     C67558   5.641   7.712   2.510 -0.0464 -0.5514  0.3452
  501MOL0     O67559   5.767   7.745   2.545  0.0520 -0.3408  0.0558
  501MOL0     C67560   5.885   7.672   2.490 -0.9116  0.0543 -0.2316
  501MOL0     C67561   5.906   7.688   2.333 -0.1681 -0.0747  1.0327
  501MOL0     C67562   5.947   7.828   2.282 -1.0187 -0.2694 -0.0648
  501MOL0     C67563   6.096   7.853   2.329 -0.1296 -0.1722  0.9675
  501MOL0     C67564   6.146   7.973   2.269  0.4637  0.2614 -0.3298
  501MOL0     C67565   6.181   8.084   2.238  0.3984 -0.1536 -0.5107
  501MOL0     C67566   5.541   7.808   2.530  0.3486  0.5604  0.2492
  501MOL0     C67567   5.401   7.778   2.514  0.3327  0.8410 -0.3597
  501MOL0     H67568   4.993   7.695   2.713 -2.5943  1.0293  1.8147
  501MOL0     H67569   4.741   7.658   2.728 -0.6784 -0.2935 -0.5890
  501MOL0     H67570   4.566   7.731   2.702 -0.1163  0.2017  0.2955
  501MOL0     H67571   4.451   7.746   2.575 -0.0924 -1.5533 -1.3803
  501MOL0     H67572   4.464   7.488   2.712 -0.2594 -0.5103 -1.4316
  501MOL0     H67573   4.377   7.622   2.794  1.2645  0.0945  0.1365
  501MOL0     H67574   4.245   7.642   2.578  1.0299  0.6025  0.1449
  501MOL0     H67575   4.312   7.475   2.537  1.3878 -1.0442  0.2120
  501MOL0     H67576   4.121   7.410   2.647 -0.8706  1.1312 -1.4657
  501MOL0     H67577   4.225   7.448   2.787  0.2686 -2.0919 -1.3348
  501MOL0     H67578   4.130   7.674   2.801 -2.8202  2.3068  1.3583
  501MOL0     H67579   4.009   7.639   2.675 -1.6132 -0.2997  1.8367
  501MOL0     H67580   3.920   7.452   2.798 -0.8575  1.4313  0.7770
  501MOL0     H67581   4.039   7.489   2.922  1.2607  1.2453 -0.9583
  501MOL0     H67582   3.820   7.676   2.822 -3.6278  0.9244  3.6652
  501MOL0     H67583   3.805   7.596   2.968 -0.4817  1.4080  0.8183
  501MOL0     H67584   3.868   7.831   2.984  1.1563  0.7328  1.3673
  501MOL0     H67585   4.029   7.794   2.931 -0.0388 -1.2416 -1.3345
  501MOL0     H67586   3.828   7.610   3.214 -0.2750  0.2147 -2.4886
  501MOL0     H67587   3.901   7.549   3.473  0.4014 -1.6033  4.7259
  501MOL0     H67588   4.040   7.458   3.426 -0.9548  0.4156  2.9566
  501MOL0     H67589   4.172   7.627   3.556 -0.2491 -1.3831 -2.8831
  501MOL0     H67590   4.051   7.551   3.649  0.4568  0.2405  0.6597
  501MOL0     H67591   4.037   7.840   3.546  2.1678  0.5906  1.3585
  501MOL0     H67592   4.082   7.782   3.703 -0.5404 -1.6222  1.9415
  501MOL0     H67593   3.864   7.879   3.697  2.9068  0.7887 -0.5706
  501MOL0     H67594   3.856   7.714   3.755 -2.9425 -2.1044 -2.2418
  501MOL0     H67595   3.632   7.854   3.772 -2.4795  3.5751 -0.4294
  501MOL0     H67596   3.270   7.901   3.841  0.9266  2.0482  2.0744
  501MOL0     H67597   3.358   7.785   3.941 -1.9886  1.0943  0.9348
  501MOL0     H67598   3.427   7.942   3.900  1.6500  0.2771 -1.8382
  501MOL0     H67599   3.017   7.429   3.748 -0.5611 -0.5478  1.4890
  501MOL0     H67600   2.762   7.420   3.795 -3.6057  1.1243 -0.9363
  501MOL0     H67601   2.562   7.371   3.642  1.1617  0.0188  1.4437
  501MOL0     H67602   2.539   7.439   3.814  1.4865  1.5337  0.3129
  501MOL0     H67603   2.338   7.561   3.712  1.4050  1.7119 -4.1281
  501MOL0     H67604   2.364   7.464   3.574  0.0083  1.7999  0.7332
  501MOL0     H67605   2.301   7.361   3.869  0.6784 -0.6637 -0.6771
  501MOL0     H67606   2.316   7.250   3.743 -2.1382 -0.5504 -1.5879
  501MOL0     H67607   2.110   7.429   3.657 -1.4460 -0.2229  0.5661
  501MOL0     H67608   2.080   7.288   3.763  0.3113 -0.4895 -0.9764
  501MOL0     H67609   2.142   7.572   3.863 -2.3675  1.9568 -0.8137
  501MOL0     H67610   2.096   7.435   3.962  2.9793  0.0265 -0.2093
  501MOL0     H67611   1.944   7.635   3.869 -2.0228  0.9496 -1.4732
  501MOL0     H67612   1.934   7.555   3.721  0.2845  4.3897  0.6406
  501MOL0     H67613   1.822   7.353   3.824 -0.1453 -0.6820  0.6864
  501MOL0     H67614   1.742   7.507   3.824  1.4522  1.6118 -0.6600
  501MOL0     H67615   1.800   7.559   4.054  1.8027 -0.0138 -0.7899
  501MOL0     H67616   1.895   7.411   4.066  0.9844  1.2374  0.1400
  501MOL0     H67617   2.710   7.761   3.536  0.9500  1.9121 -0.0325
  501MOL0     H67618   2.958   7.786   3.525  0.2957 -0.9598 -1.1715
  501MOL0     H67619   3.363   7.559   3.496 -0.3144 -0.3243  0.5519
  501MOL0     H67620   3.599   7.603   3.450 -0.4921 -0.8861  2.2257
  501MOL0     H67621   4.739   7.580   2.305 -0.5470  0.2948 -0.1746
  501MOL0     H67622   4.982   7.630   2.290 -0.7146  0.1473 -1.2940
  501MOL0     H67623   5.440   7.446   2.450  2.1913 -0.3532 -0.7214
  501MOL0     H67624   5.675   7.504   2.456  0.0848 -0.6751  1.1880
  501MOL0     H67625   5.970   7.716   2.542 -0.6102  1.1098 -1.5470
  501MOL0     H67626   5.881   7.567   2.521 -1.5029  0.5296  1.3655
  501MOL0     H67627   5.823   7.646   2.276 -0.2902  0.6175  0.6908
  501MOL0     H67628   5.982   7.612   2.312  1.5641  1.0624  2.8406
  501MOL0     H67629   5.882   7.904   2.326 -0.5336  0.7274 -1.0068
  501MOL0     H67630   5.922   7.842   2.177  0.3956  0.8027 -0.3011
  501MOL0     H67631   6.161   7.773   2.292  0.2624  0.6865 -0.2441
  501MOL0     H67632   6.105   7.854   2.438 -0.0684 -3.5778  1.1006
  501MOL0     H67633   6.196   8.182   2.198  0.9034 -0.3124 -0.7301
  501MOL0     H67634   5.566   7.913   2.543 -2.7437  2.0948 -3.9442
  501MOL0     H67635   5.327   7.857   2.528 -1.8743 -1.3657  1.1609
  502MOL0     O67636   2.218   3.196  10.775 -0.3333 -0.5219  0.9828
  502MOL0     C67637   2.332   3.195  10.717  0.0959 -0.0958  0.0193
  502MOL0     O67638   2.366   3.203  10.587 -0.0268  1.2466  0.1744
  502MOL0     C67639   2.264   3.199  10.496 -0.7879 -0.0755  0.2872
  502MOL0     C67640   2.207   3.323  10.459 -0.0611 -1.0031 -0.0188
  502MOL0     C67641   2.112   3.332  10.354 -0.2213  0.6577 -0.4551
  502MOL0     C67642   2.075   3.219  10.280 -1.3201 -0.6651 -0.1793
  502MOL0     O67643   1.971   3.210  10.192 -0.0952  0.2641  0.0184
  502MOL0     C67644   1.845   3.275  10.218  0.1861 -1.0860  0.1852
  502MOL0     C67645   1.744   3.217  10.133  0.6008 -0.3043 -0.4035
  502MOL0     C67646   1.600   3.270  10.175 -1.1789  0.6630  1.1447
  502MOL0     C67647   1.538   3.202  10.301  0.4547  0.3923  0.1633
  502MOL0     C67648   1.489   3.058  10.296  0.2365  0.3735  0.4218
  502MOL0     C67649   1.390   3.040  10.176  0.4600  0.0108 -0.6886
  502MOL0     C67650   1.345   2.886  10.171 -0.0759 -0.1282 -0.3567
  502MOL0     C67651   1.441   2.815  10.091 -0.5343  0.6495  0.6175
  502MOL0     N67652   1.426   2.863   9.950 -0.1696  0.2180  0.1078
  502MOL0     C67653   1.335   2.818   9.872  0.5963  0.2919  0.4638
  502MOL0     C67654   1.370   2.849   9.743 -0.3054 -0.4242 -0.7718
  502MOL0     C67655   1.303   2.789   9.624 -0.3082 -0.6959 -0.1828
  502MOL0     C67656   1.344   2.647   9.621  0.1687 -0.7936 -0.3195
  502MOL0     C67657   1.498   2.610   9.624  0.0366 -0.2733  0.2217
  502MOL0     C67658   1.536   2.484   9.548 -0.5021 -0.0337 -0.4917
  502MOL0     O67659   1.494   2.383   9.637  0.0278  0.0432  0.1448
  502MOL0     C67660   1.488   2.266   9.585 -0.4581  0.7486 -0.3593
  502MOL0     C67661   1.588   2.180   9.627 -0.3747 -1.2187 -0.0607
  502MOL0     C67662   1.613   2.058   9.564  0.3442  0.1736  0.7763
  502MOL0     C67663   1.734   1.971   9.599 -0.7410 -0.4191 -0.8642
  502MOL0     C67664   1.521   2.014   9.469  0.2155  0.2955 -0.5462
  502MOL0     C67665   1.515   1.879   9.416  0.8200  0.3327 -0.4850
  502MOL0     O67666   1.571   1.777   9.491  0.2756  0.0573  0.2482
  502MOL0     C67667   1.565   1.642   9.466 -0.2237  0.2295  0.8122
  502MOL0     C67668   1.495   1.575   9.360 -0.4141 -0.0731 -0.4653
  502MOL0     C67669   1.500   1.435   9.355  0.0887  0.3784 -0.3482
  502MOL0     C67670   1.579   1.353   9.435  0.5452  0.3655  0.0900
  502MOL0     O67671   1.589   1.227   9.397 -0.1635 -0.1246  0.1920
  502MOL0     C67672   1.646   1.133   9.494  0.2669 -0.1243  0.4837
  502MOL0     C67673   1.664   0.994   9.441 -0.2569  1.1320 -0.0134
  502MOL0     C67674   1.544   0.907   9.440  0.0917 -0.4342  0.5095
  502MOL0     C67675   1.485   0.861   9.578  0.0703 -0.5026 -0.4496
  502MOL0     C67676   1.378   0.753   9.559 -0.0207  1.0425  0.9748
  502MOL0     C67677   1.315   0.713   9.687  0.7407  0.0491 -0.4117
  502MOL0     C67678   1.182   0.644   9.658 -0.4996 -0.4487  0.5577
  502MOL0     C67679   1.142   0.562   9.778 -0.1454 -0.4143 -0.5837
  502MOL0    Cl67680   1.123   0.685   9.913  0.1756  0.3899 -0.1898
  502MOL0     C67681   1.652   1.423   9.534  0.6497  0.1261  0.1479
  502MOL0     C67682   1.636   1.563   9.559 -1.0760  0.0877  0.3877
  502MOL0     O67683   1.461   1.864   9.308  0.3252 -0.6838  0.4165
  502MOL0     C67684   1.422   2.101   9.428 -0.7042  0.2379  0.2689
  502MOL0     C67685   1.400   2.225   9.486  0.1078  0.2859  0.0389
  502MOL0     N67686   1.473   2.938   9.753 -0.2380 -0.1641 -0.0129
  502MOL0     N67687   1.519   2.933   9.869 -1.1549 -0.1437 -0.1616
  502MOL0     C67688   2.139   3.093  10.315 -0.3175  0.0752  0.5200
  502MOL0     C67689   2.232   3.092  10.419 -0.2991  0.1028 -0.2091
  502MOL0     C67690   2.448   3.208  10.816  0.0336  0.1004 -0.4108
  502MOL0     C67691   2.574   3.235  10.763 -0.5739 -0.6548 -0.7844
  502MOL0     C67692   2.676   3.236  10.864  0.4477  0.6480 -0.1303
  502MOL0     C67693   2.662   3.207  11.000 -0.8816  0.0845 -0.1525
  502MOL0     O67694   2.777   3.201  11.080 -0.7867 -0.1689 -0.8879
  502MOL0     C67695   2.789   3.099  11.180 -0.2222 -0.4782  0.4883
  502MOL0     C67696   2.927   3.086  11.235 -0.6666  0.5214 -0.1815
  502MOL0     C67697   3.033   3.085  11.121  0.3797  0.5214  0.9139
  502MOL0     C67698   3.129   2.962  11.123  0.0099  0.2913 -0.1819
  502MOL0     C67699   3.252   2.976  11.201 -0.1883  1.1264 -0.2448
  502MOL0     C67700   3.361   2.989  11.256 -0.0873 -0.3566 -0.7336
  502MOL0     C67701   2.535   3.165  11.035  0.1047 -0.5888 -0.6834
  502MOL0     C67702   2.428   3.161  10.948 -0.2292  0.9607 -0.9910
  502MOL0     H67703   2.246   3.407  10.515  1.1146 -2.3865  1.3284
  502MOL0     H67704   2.059   3.422  10.327 -1.8442 -0.6793 -1.9537
  502MOL0     H67705   1.820   3.275  10.324  0.4334  0.6554  0.2813
  502MOL0     H67706   1.853   3.379  10.183 -1.3650  0.1693  3.1782
  502MOL0     H67707   1.767   3.239  10.028 -2.5304 -2.4180 -1.6716
  502MOL0     H67708   1.745   3.110  10.153  0.4145 -0.0658  0.9575
  502MOL0     H67709   1.613   3.376  10.198  1.0377  1.4679 -2.7984
  502MOL0     H67710   1.534   3.261  10.087  1.2698 -1.0798 -0.6651
  502MOL0     H67711   1.620   3.216  10.373  2.6168  2.7740 -2.5404
  502MOL0     H67712   1.458   3.269  10.334 -1.3566 -1.9131  0.7473
  502MOL0     H67713   1.578   2.996  10.279  3.0641  3.9663  0.9819
  502MOL0     H67714   1.455   3.035  10.397 -0.6666  0.2211  0.0867
  502MOL0     H67715   1.301   3.095  10.207  1.4681  1.2411  0.1387
  502MOL0     H67716   1.420   3.082  10.080 -2.6129  0.8865 -1.3558
  502MOL0     H67717   1.338   2.844  10.271 -0.4787 -0.9330 -0.7100
  502MOL0     H67718   1.245   2.881  10.128 -0.5353 -3.0924  0.8340
  502MOL0     H67719   1.420   2.708  10.099  2.1308  0.1061  1.2140
  502MOL0     H67720   1.545   2.823  10.124  0.4425 -1.9129 -1.4570
  502MOL0     H67721   1.258   2.749   9.906 -0.0167  1.8704  2.4969
  502MOL0     H67722   1.196   2.803   9.640  0.1829  2.3934  1.2251
  502MOL0     H67723   1.330   2.837   9.530  1.0035  0.8356  0.9146
  502MOL0     H67724   1.308   2.601   9.529  1.4333 -1.4456 -0.5142
  502MOL0     H67725   1.297   2.599   9.707 -2.4737  1.5289 -0.3375
  502MOL0     H67726   1.539   2.602   9.725  0.4618 -1.4049 -0.0234
  502MOL0     H67727   1.556   2.684   9.568  1.0464 -1.6786 -0.6644
  502MOL0     H67728   1.645   2.479   9.534 -0.4428 -4.8718  0.0136
  502MOL0     H67729   1.500   2.488   9.444  2.1316  4.3920 -1.5125
  502MOL0     H67730   1.659   2.213   9.702  0.2556 -0.0999 -1.1196
  502MOL0     H67731   1.803   2.033   9.656 -2.8320  1.2198  0.0071
  502MOL0     H67732   1.700   1.891   9.665 -0.1670 -1.7204 -2.0750
  502MOL0     H67733   1.779   1.936   9.505 -1.7672  0.7868 -1.8424
  502MOL0     H67734   1.438   1.625   9.283  3.2628  3.8451 -0.9668
  502MOL0     H67735   1.449   1.385   9.273 -1.2544 -3.4040  2.5194
  502MOL0     H67736   1.743   1.169   9.530  0.7558 -2.1291  1.3476
  502MOL0     H67737   1.573   1.132   9.576 -0.5247 -0.3658 -0.2089
  502MOL0     H67738   1.699   0.986   9.337  2.0272  1.5461  0.6686
  502MOL0     H67739   1.738   0.943   9.504 -1.4099  1.2709  1.4921
  502MOL0     H67740   1.561   0.818   9.379 -0.8811  1.2797 -2.4802
  502MOL0     H67741   1.463   0.954   9.384  0.7958 -1.9637 -1.9662
  502MOL0     H67742   1.565   0.812   9.634  0.1031  1.8195  1.7276
  502MOL0     H67743   1.457   0.946   9.641 -0.3240 -1.7056  1.0627
  502MOL0     H67744   1.422   0.661   9.521 -1.8742  0.3146  0.4650
  502MOL0     H67745   1.300   0.801   9.498  0.7546  2.5654  1.1205
  502MOL0     H67746   1.390   0.654   9.740  1.0978  0.7151 -0.1667
  502MOL0     H67747   1.298   0.805   9.744  1.6158  1.7389 -2.7404
  502MOL0     H67748   1.210   0.574   9.578 -1.1024 -0.9234  0.7627
  502MOL0     H67749   1.110   0.723   9.634 -2.3171 -2.7660 -2.4257
  502MOL0     H67750   1.214   0.486   9.809 -2.6791 -2.3267  1.0363
  502MOL0     H67751   1.051   0.502   9.769 -0.4592 -0.3950  1.9143
  502MOL0     H67752   1.728   1.372   9.592 -0.0066 -1.2784 -0.1728
  502MOL0     H67753   1.692   1.605   9.642  1.7888 -0.5597 -1.0965
  502MOL0     H67754   1.347   2.077   9.353  1.1271 -1.8228 -1.0270
  502MOL0     H67755   1.323   2.295   9.453  1.4546  3.3237  2.7459
  502MOL0     H67756   2.117   2.993  10.280  1.3187  0.2488 -1.0947
  502MOL0     H67757   2.273   3.001  10.461  0.2930  0.7581  0.6926
  502MOL0     H67758   2.581   3.248  10.656 -2.2416 -1.9476 -1.0941
  502MOL0     H67759   2.776   3.266  10.833  0.2485 -0.8948 -2.5611
  502MOL0     H67760   2.718   3.132  11.256 -0.5826  0.3984 -0.2091
  502MOL0     H67761   2.754   2.999  11.150  1.3737 -1.4292  1.6342
  502MOL0     H67762   2.956   3.015  11.312 -1.1532  3.1360  2.5718
  502MOL0     H67763   2.946   3.176  11.294 -2.8834  1.4455 -0.7772
  502MOL0     H67764   3.087   3.180  11.129  0.7355  0.2119  2.5401
  502MOL0     H67765   2.991   3.083  11.020  0.6536 -1.3895  0.7952
  502MOL0     H67766   3.151   2.940  11.018  0.5984 -0.8439  0.1598
  502MOL0     H67767   3.070   2.876  11.154 -2.6085  0.3349 -4.3202
  502MOL0     H67768   3.457   2.988  11.303  0.0628 -5.1555 -0.6676
  502MOL0     H67769   2.519   3.145  11.141 -0.2668 -2.0027 -0.9912
  502MOL0     H67770   2.334   3.113  10.973 -1.5035  3.1154 -1.3947
  503MOL0     O67771   0.006   4.420   4.291  0.7936 -0.1413  0.1585
  503MOL0     C67772  -0.021   4.476   4.397  0.1046  0.7283  0.1573
  503MOL0     O67773  -0.143   4.480   4.454  0.5916 -0.5361  0.0041
  503MOL0     C67774  -0.248   4.438   4.371 -0.1545  0.2467 -0.5676
  503MOL0     C67775  -0.280   4.306   4.376 -0.3580  0.0551  0.6310
  503MOL0     C67776  -0.391   4.245   4.292  0.3532  0.1229 -0.6426
  503MOL0     C67777  -0.459   4.332   4.211  0.8916 -0.2956  0.4057
  503MOL0     O67778  -0.570   4.304   4.133 -0.7722 -0.4749  0.6178
  503MOL0     C67779  -0.572   4.177   4.075 -0.1348  0.7536  0.5201
  503MOL0     C67780  -0.700   4.136   3.995  0.2887 -0.3787  0.4387
  503MOL0     C67781  -0.821   4.129   4.096 -0.2863 -0.1940 -0.3319
  503MOL0     C67782  -0.936   4.045   4.039  0.6093 -0.5571 -0.2904
  503MOL0     C67783  -1.054   4.021   4.136  0.3134  0.2449  0.4239
  503MOL0     C67784  -1.143   3.918   4.063  0.1730  0.3204  0.1614
  503MOL0     C67785  -1.288   3.922   4.100 -0.6075 -0.3070  0.2276
  503MOL0     C67786  -1.373   4.030   4.036  0.4374 -0.9154  0.6421
  503MOL0     N67787  -1.510   3.989   4.010 -0.9867  0.1495 -0.6296
  503MOL0     C67788  -1.605   4.004   4.102 -0.2256 -0.2866 -0.6703
  503MOL0     C67789  -1.715   3.953   4.054 -0.3562 -0.4834 -0.0644
  503MOL0     C67790  -1.849   3.957   4.131  0.0182  1.4344 -0.1229
  503MOL0     C67791  -1.941   4.078   4.118  0.4457 -0.1131  0.6845
  503MOL0     C67792  -1.873   4.210   4.160 -0.1096  0.6171 -0.1678
  503MOL0     C67793  -1.973   4.327   4.160 -0.0399 -0.0215 -0.7999
  503MOL0     O67794  -1.913   4.451   4.193  0.1773 -0.1276  0.2178
  503MOL0     C67795  -2.004   4.552   4.222 -0.0575  0.9246 -0.2623
  503MOL0     C67796  -2.138   4.556   4.168  0.7799 -0.6030 -0.3452
  503MOL0     C67797  -2.219   4.669   4.195  0.2568 -0.1658  0.3878
  503MOL0     C67798  -2.362   4.661   4.149  0.1631  0.1009  0.2647
  503MOL0     C67799  -2.176   4.768   4.287 -0.0356  0.1304  0.2204
  503MOL0     C67800  -2.253   4.891   4.316  0.4814 -0.6934  0.3161
  503MOL0     O67801  -2.216   4.969   4.424 -0.0950  0.2537 -0.2574
  503MOL0     C67802  -2.266   5.096   4.437 -0.2199 -0.6240 -0.0052
  503MOL0     C67803  -2.229   5.203   4.360 -0.4286 -0.0377 -0.2036
  503MOL0     C67804  -2.276   5.333   4.377 -0.3391  0.3152 -0.0304
  503MOL0     C67805  -2.366   5.359   4.480  0.2184 -0.2812 -0.3956
  503MOL0     O67806  -2.415   5.488   4.496  0.0110  0.7140  0.0688
  503MOL0     C67807  -2.487   5.523   4.619 -0.2658  0.5031  0.2985
  503MOL0     C67808  -2.529   5.666   4.602  0.2388 -0.4735  1.4818
  503MOL0     C67809  -2.528   5.742   4.736 -0.4281 -0.1595  0.4332
  503MOL0     C67810  -2.388   5.783   4.787 -0.0683  0.7805  0.9403
  503MOL0     C67811  -2.398   5.838   4.923 -0.1874 -0.4123 -0.4283
  503MOL0     C67812  -2.265   5.851   4.997  0.9267  0.3639  0.0236
  503MOL0     C67813  -2.280   5.911   5.141  0.1734  0.0934 -0.7751
  503MOL0     C67814  -2.144   5.963   5.199  0.0124  0.0604  0.2780
  503MOL0    Cl67815  -2.022   5.825   5.229 -0.3329 -0.0033 -0.1435
  503MOL0     C67816  -2.409   5.250   4.560  0.3042  0.3824  0.0304
  503MOL0     C67817  -2.360   5.124   4.533  0.2608  0.4785 -0.1735
  503MOL0     O67818  -2.346   4.919   4.240  0.2109 -0.2126 -0.4048
  503MOL0     C67819  -2.047   4.758   4.342 -0.3006  0.1797  0.0741
  503MOL0     C67820  -1.960   4.654   4.301 -0.3799 -0.7473  0.0107
  503MOL0     N67821  -1.682   3.907   3.928 -0.4029 -0.4569  0.0880
  503MOL0     N67822  -1.557   3.922   3.904 -0.0223 -0.6090  0.2830
  503MOL0     C67823  -0.429   4.468   4.212  0.0768  0.3872 -0.1151
  503MOL0     C67824  -0.332   4.523   4.291  0.7254  0.2039  0.2806
  503MOL0     C67825   0.093   4.533   4.475  0.1733  0.2187  0.2386
  503MOL0     C67826   0.222   4.528   4.429  1.3733 -0.6623  0.1359
  503MOL0     C67827   0.328   4.604   4.486  0.0221  0.1846  0.9115
  503MOL0     C67828   0.291   4.668   4.607 -0.7118 -0.3075  0.0630
  503MOL0     O67829   0.384   4.752   4.664  0.5257 -1.6892 -0.1826
  503MOL0     C67830   0.519   4.735   4.644  0.4206 -0.1389  0.2468
  503MOL0     C67831   0.569   4.608   4.700 -0.4355  0.3352  0.4968
  503MOL0     C67832   0.710   4.569   4.647 -0.2089  0.0762  0.5210
  503MOL0     C67833   0.825   4.629   4.736 -0.4327  1.4156 -1.0485
  503MOL0     C67834   0.839   4.544   4.861  0.8365  0.1727 -0.2000
  503MOL0     C67835   0.845   4.510   4.981 -0.9198  0.8575 -0.1507
  503MOL0     C67836   0.165   4.659   4.664  0.4146 -0.3056  0.0169
  503MOL0     C67837   0.064   4.588   4.595 -0.1206 -0.4596  0.2652
  503MOL0     H67838  -0.207   4.246   4.431  1.7278  1.9452  0.0999
  503MOL0     H67839  -0.421   4.140   4.295 -2.8267  0.8834 -1.6823
  503MOL0     H67840  -0.484   4.172   4.011 -0.5291  0.0776  0.0203
  503MOL0     H67841  -0.560   4.106   4.157  1.3910  2.5633  1.9746
  503MOL0     H67842  -0.728   4.207   3.916  0.1015  0.8929  1.6140
  503MOL0     H67843  -0.681   4.035   3.958  2.0047  0.0440  0.0491
  503MOL0     H67844  -0.792   4.092   4.195 -0.7319  2.2738  0.8193
  503MOL0     H67845  -0.863   4.228   4.118  0.5142 -0.0172  0.5158
  503MOL0     H67846  -0.964   4.087   3.942  1.6293 -1.2429 -0.8988
  503MOL0     H67847  -0.894   3.948   4.009  0.7535 -0.3159 -0.8818
  503MOL0     H67848  -1.012   3.977   4.227 -0.8989  1.1542  1.4573
  503MOL0     H67849  -1.105   4.113   4.164 -2.0000 -0.6593 -0.5546
  503MOL0     H67850  -1.151   3.933   3.955 -1.0274  1.5054  0.3837
  503MOL0     H67851  -1.098   3.819   4.068  0.3601  0.4567  1.6075
  503MOL0     H67852  -1.332   3.825   4.076  0.3422 -0.6235 -0.2710
  503MOL0     H67853  -1.292   3.929   4.210  0.8195  1.5739  0.2187
  503MOL0     H67854  -1.322   4.048   3.941  0.5056 -3.0948  0.2069
  503MOL0     H67855  -1.366   4.118   4.101  1.0690 -0.4906  0.0130
  503MOL0     H67856  -1.593   4.064   4.192 -1.9915 -0.3881 -0.3302
  503MOL0     H67857  -1.901   3.870   4.090 -0.2439  0.1337  2.7374
  503MOL0     H67858  -1.833   3.921   4.233 -0.6349 -1.0876 -0.8633
  503MOL0     H67859  -2.035   4.074   4.173 -0.9940  4.8974 -0.8221
  503MOL0     H67860  -1.963   4.096   4.012  1.5271  3.1504  0.8908
  503MOL0     H67861  -1.786   4.235   4.099  1.2924  1.7596  2.1431
  503MOL0     H67862  -1.837   4.185   4.260  2.3027  1.2043 -0.8370
  503MOL0     H67863  -2.050   4.291   4.229 -1.7575  2.6174 -1.1866
  503MOL0     H67864  -2.013   4.341   4.059 -2.9169  1.1751  0.4045
  503MOL0     H67865  -2.176   4.478   4.103  0.3430 -1.3759  0.7954
  503MOL0     H67866  -2.388   4.567   4.100 -2.4411  0.0818  1.5394
  503MOL0     H67867  -2.422   4.666   4.239 -0.3651 -1.9825  0.0778
  503MOL0     H67868  -2.389   4.741   4.079  0.8842  0.3848  0.2937
  503MOL0     H67869  -2.171   5.204   4.268 -1.7338  3.3426 -1.1448
  503MOL0     H67870  -2.249   5.412   4.308 -0.6671 -0.4473 -1.0463
  503MOL0     H67871  -2.570   5.460   4.653  1.8696 -1.2770  2.5362
  503MOL0     H67872  -2.410   5.516   4.696 -0.3796 -2.0071  0.2735
  503MOL0     H67873  -2.472   5.716   4.523  0.5465 -3.1966 -0.1731
  503MOL0     H67874  -2.635   5.659   4.573  0.7629 -2.0617 -0.2359
  503MOL0     H67875  -2.570   5.677   4.813 -1.3644 -2.5820 -1.9501
  503MOL0     H67876  -2.585   5.835   4.731 -0.5055 -0.2175  0.2272
  503MOL0     H67877  -2.324   5.695   4.794  0.7227  1.0826 -1.4298
  503MOL0     H67878  -2.338   5.860   4.727 -0.5799  0.3050 -0.1403
  503MOL0     H67879  -2.459   5.773   4.987 -1.2337  0.6085 -0.3507
  503MOL0     H67880  -2.459   5.928   4.934  1.0112  0.4826 -0.8896
  503MOL0     H67881  -2.228   5.749   5.006  1.8165  0.8411  2.5755
  503MOL0     H67882  -2.205   5.924   4.942 -1.1116  0.5391 -2.1228
  503MOL0     H67883  -2.320   5.831   5.205  2.5383 -0.0193  0.6817
  503MOL0     H67884  -2.346   5.998   5.138  1.4287  1.1879  1.1632
  503MOL0     H67885  -2.159   6.024   5.288 -0.5439  0.4939 -0.1059
  503MOL0     H67886  -2.094   6.028   5.127  0.0253  0.8252  0.9682
  503MOL0     H67887  -2.483   5.258   4.638 -0.2198  2.0751 -0.5928
  503MOL0     H67888  -2.392   5.043   4.598  1.5439  0.1662  0.0992
  503MOL0     H67889  -2.008   4.835   4.408 -0.7936 -0.2442  0.8866
  503MOL0     H67890  -1.854   4.661   4.326  0.0475  0.0726 -1.8817
  503MOL0     H67891  -0.489   4.523   4.140  0.3733  0.7534 -0.0891
  503MOL0     H67892  -0.319   4.631   4.292  0.9676  0.1751  0.3016
  503MOL0     H67893   0.238   4.471   4.338 -2.9276 -1.1209 -0.5408
  503MOL0     H67894   0.424   4.607   4.436 -0.3143  1.4435  0.3095
  503MOL0     H67895   0.558   4.753   4.544  2.5756  0.0152  1.0594
  503MOL0     H67896   0.560   4.820   4.700  0.6745  0.2214 -0.4747
  503MOL0     H67897   0.500   4.525   4.681  1.5769 -1.4912  0.7432
  503MOL0     H67898   0.580   4.608   4.809  2.1409 -1.4845  0.3410
  503MOL0     H67899   0.716   4.607   4.545 -0.8718 -1.6297 -0.1931
  503MOL0     H67900   0.722   4.461   4.632 -1.5875 -0.5300  3.1399
  503MOL0     H67901   0.806   4.732   4.767  2.8342  1.3007  1.8815
  503MOL0     H67902   0.921   4.619   4.685 -0.2182  0.0012 -0.4199
  503MOL0     H67903   0.830   4.479   5.082 -0.7455  1.2062 -0.0142
  503MOL0     H67904   0.134   4.700   4.759  0.8188 -1.0709  0.4885
  503MOL0     H67905  -0.037   4.605   4.631 -0.1163  0.2898 -0.0473
  504MOL0     O67906   2.313   9.920   6.069  0.2330  0.2505  0.2647
  504MOL0     C67907   2.337   9.910   6.182  0.3326  0.8793 -0.1010
  504MOL0     O67908   2.243   9.878   6.279 -0.7280  0.1133  0.0639
  504MOL0     C67909   2.108   9.877   6.239  0.3773 -0.2006 -0.6809
  504MOL0     C67910   2.014   9.779   6.292 -0.6877  0.4543 -0.6359
  504MOL0     C67911   1.877   9.776   6.256 -0.0443 -0.0297  0.0797
  504MOL0     C67912   1.830   9.886   6.186  0.2993  0.2179  0.8146
  504MOL0     O67913   1.694   9.876   6.167 -0.1889 -0.5518  0.1123
  504MOL0     C67914   1.619  10.007   6.163  0.2793  0.0922  0.5528
  504MOL0     C67915   1.469   9.974   6.176 -0.4101 -0.1684  0.3673
  504MOL0     C67916   1.381  10.102   6.173 -0.4011 -1.1259 -0.8911
  504MOL0     C67917   1.226  10.068   6.192 -0.2077  0.0678  0.1359
  504MOL0     C67918   1.140  10.188   6.179  0.7477 -0.5118  0.5048
  504MOL0     C67919   1.000  10.133   6.167  0.1554 -0.3100  0.0505
  504MOL0     C67920   0.891  10.248   6.179 -0.2527 -0.0940  0.1891
  504MOL0     C67921   0.753  10.206   6.125  0.0565 -0.7995 -0.2584
  504MOL0     N67922   0.679  10.108   6.210  0.5642 -0.0330 -0.6645
  504MOL0     C67923   0.670   9.973   6.189  0.5614 -0.7927  0.5534
  504MOL0     C67924   0.579   9.931   6.284 -1.0043  0.4038 -0.0406
  504MOL0     C67925   0.544   9.790   6.336 -0.2438 -0.1521 -0.3565
  504MOL0     C67926   0.576   9.770   6.490  0.5162  0.3515 -0.2497
  504MOL0     C67927   0.550   9.625   6.531 -0.4708 -0.2491  1.2022
  504MOL0     C67928   0.614   9.583   6.663 -0.3952 -0.1645  0.0731
  504MOL0     O67929   0.576   9.663   6.779 -0.4582  0.1403 -0.2309
  504MOL0     C67930   0.455   9.653   6.833  0.5362 -0.7381  0.0455
  504MOL0     C67931   0.428   9.748   6.942  0.0830 -0.5444 -0.1358
  504MOL0     C67932   0.317   9.730   7.026  0.3122  0.2300 -0.0729
  504MOL0     C67933   0.306   9.821   7.150  0.0031  0.0420 -0.3725
  504MOL0     C67934   0.215   9.638   6.990 -0.2141 -0.4471  1.0345
  504MOL0     C67935   0.088   9.627   7.049  1.0989 -0.3126 -0.0809
  504MOL0     O67936   0.025   9.743   7.097 -0.1501 -0.1691  0.0261
  504MOL0     C67937  -0.097   9.726   7.153  0.1677  0.3645 -0.1881
  504MOL0     C67938  -0.113   9.784   7.282  0.0075 -0.2981 -0.2037
  504MOL0     C67939  -0.236   9.779   7.348 -0.7566  0.6711  0.0859
  504MOL0     C67940  -0.340   9.702   7.297 -0.3234 -0.0572 -0.0884
  504MOL0     O67941  -0.452   9.691   7.373 -0.5694 -0.3612  0.5667
  504MOL0     C67942  -0.575   9.711   7.303  0.7762  0.0195  0.7412
  504MOL0     C67943  -0.681   9.733   7.414  0.5043 -0.5642  0.2132
  504MOL0     C67944  -0.818   9.765   7.357 -0.2318 -0.1123  0.0216
  504MOL0     C67945  -0.926   9.793   7.467 -0.0349 -0.8406 -0.3195
  504MOL0     C67946  -1.050   9.860   7.408 -0.2137  0.4016  0.2494
  504MOL0     C67947  -1.170   9.854   7.493  0.9629  1.0033 -0.3036
  504MOL0     C67948  -1.300   9.903   7.416 -0.0703  0.7973 -0.0805
  504MOL0     C67949  -1.422   9.879   7.515 -1.0601  0.2711 -0.1541
  504MOL0    Cl67950  -1.571   9.929   7.444 -0.2846  0.0744  0.0247
  504MOL0     C67951  -0.323   9.643   7.173 -0.4508 -0.0949 -0.2996
  504MOL0     C67952  -0.202   9.646   7.108  0.5412 -0.0383  0.2095
  504MOL0     O67953   0.048   9.510   7.057  0.4084 -0.5872  0.0587
  504MOL0     C67954   0.249   9.546   6.884 -0.6615 -0.1270  0.0690
  504MOL0     C67955   0.366   9.551   6.808 -0.1978  0.4948  0.3694
  504MOL0     N67956   0.529  10.041   6.352 -0.1148 -0.2263 -0.8206
  504MOL0     N67957   0.591  10.144   6.310  0.3197 -0.4290 -0.1366
  504MOL0     C67958   1.920   9.982   6.142  0.2070  0.4424  0.3525
  504MOL0     C67959   2.055   9.992   6.172 -0.7879  0.4309 -0.1150
  504MOL0     C67960   2.467   9.955   6.224 -0.0403 -0.2565  0.1607
  504MOL0     C67961   2.493   9.983   6.357 -1.0234 -0.3019  0.3805
  504MOL0     C67962   2.624  10.017   6.388 -0.3895  0.0118  0.1375
  504MOL0     C67963   2.726  10.035   6.296 -0.7930 -0.6413  0.0462
  504MOL0     O67964   2.864  10.060   6.314  0.5251 -0.1979  0.4560
  504MOL0     C67965   2.883  10.137   6.425  0.5606  0.2420  0.4172
  504MOL0     C67966   2.992  10.077   6.519 -0.5153  0.1078 -0.1129
  504MOL0     C67967   3.124  10.087   6.455 -0.4648  0.6149 -0.8804
  504MOL0     C67968   3.227  10.019   6.545 -0.1928 -0.1106 -0.2387
  504MOL0     C67969   3.354  10.004   6.481  0.3877  0.0360  0.5993
  504MOL0     C67970   3.465   9.997   6.438  0.5178 -0.1161 -0.0492
  504MOL0     C67971   2.691  10.004   6.165  0.3932  0.6153  0.2817
  504MOL0     C67972   2.568   9.962   6.124  0.7774  0.8384 -1.0393
  504MOL0     H67973   2.060   9.687   6.327 -0.0085 -0.0681 -2.7261
  504MOL0     H67974   1.810   9.699   6.293  0.6410 -0.3029  0.7784
  504MOL0     H67975   1.652  10.079   6.238 -1.6003  0.8258  0.7385
  504MOL0     H67976   1.630  10.054   6.064 -2.1132  2.0895  1.1195
  504MOL0     H67977   1.436   9.906   6.096 -1.6048 -1.9936  2.3183
  504MOL0     H67978   1.461   9.921   6.271 -0.6370  1.5903  1.3584
  504MOL0     H67979   1.406  10.173   6.252  0.8785  0.2091 -2.4207
  504MOL0     H67980   1.398  10.155   6.079  2.8292 -0.6398 -0.1378
  504MOL0     H67981   1.194   9.978   6.141  3.4775 -2.0200  1.1094
  504MOL0     H67982   1.210  10.036   6.295 -1.5874 -0.5287 -0.2523
  504MOL0     H67983   1.149  10.262   6.259  1.4566  0.4953 -0.4644
  504MOL0     H67984   1.169  10.237   6.085 -0.7851 -3.3479 -1.5909
  504MOL0     H67985   0.993  10.082   6.071 -0.6210 -0.1371  0.0085
  504MOL0     H67986   0.978  10.064   6.249  1.1094 -0.8783 -0.1613
  504MOL0     H67987   0.887  10.270   6.286 -0.4770  0.2062  0.1217
  504MOL0     H67988   0.919  10.339   6.125 -1.1277  0.1284  0.0947
  504MOL0     H67989   0.762  10.184   6.019  3.2885 -0.8142 -0.0770
  504MOL0     H67990   0.698  10.301   6.132  1.1175 -0.1197 -0.8431
  504MOL0     H67991   0.727   9.910   6.121  4.0653  0.1075  2.4255
  504MOL0     H67992   0.436   9.774   6.335 -0.5092  1.1965  1.1297
  504MOL0     H67993   0.597   9.721   6.270  1.4629  2.2411 -1.6587
  504MOL0     H67994   0.513   9.833   6.553  0.4294  0.8058 -0.7835
  504MOL0     H67995   0.682   9.786   6.508  0.7872 -0.9316 -0.5848
  504MOL0     H67996   0.586   9.555   6.455 -0.7036 -0.2708  1.1116
  504MOL0     H67997   0.441   9.614   6.534 -0.7902  1.5391 -1.1270
  504MOL0     H67998   0.721   9.591   6.643 -0.6526 -1.4721 -2.1584
  504MOL0     H67999   0.601   9.477   6.683 -2.8926 -0.0710 -0.6947
  504MOL0     H68000   0.494   9.831   6.967 -1.0794  0.1193  0.8750
  504MOL0     H68001   0.271   9.759   7.234 -1.8613  1.0329 -0.3702
  504MOL0     H68002   0.402   9.871   7.168 -0.8537  2.5510 -2.2655
  504MOL0     H68003   0.237   9.902   7.122  0.1894  0.4125  0.2163
  504MOL0     H68004  -0.028   9.839   7.321  0.0127 -0.6135  0.2354
  504MOL0     H68005  -0.253   9.828   7.443 -0.4291  0.1707  0.4052
  504MOL0     H68006  -0.576   9.792   7.229  0.7186 -1.5021 -0.9944
  504MOL0     H68007  -0.600   9.617   7.252 -4.3820  2.6744 -2.6145
  504MOL0     H68008  -0.689   9.651   7.485 -3.6366  0.6976  1.5023
  504MOL0     H68009  -0.644   9.815   7.475  0.7155 -0.3641 -0.1754
  504MOL0     H68010  -0.852   9.686   7.289 -4.0147  2.1103 -0.9348
  504MOL0     H68011  -0.804   9.854   7.295  0.7782  1.3309  2.1836
  504MOL0     H68012  -0.935   9.697   7.519  1.9074 -1.3374 -0.8247
  504MOL0     H68013  -0.892   9.865   7.542 -2.8532 -0.7638  1.0407
  504MOL0     H68014  -1.075   9.806   7.316 -4.3157 -1.4026  2.1411
  504MOL0     H68015  -1.028   9.964   7.380  0.7371  0.2817  0.5301
  504MOL0     H68016  -1.184   9.750   7.522  0.4381  1.2979  0.5385
  504MOL0     H68017  -1.159   9.913   7.585 -4.5940 -0.7666  1.8834
  504MOL0     H68018  -1.308   9.842   7.326  2.5099 -0.3314  0.3846
  504MOL0     H68019  -1.294  10.005   7.376 -2.0581  1.8903  2.1097
  504MOL0     H68020  -1.406   9.917   7.616 -2.0068 -1.1800  0.5763
  504MOL0     H68021  -1.429   9.773   7.539  0.8640  0.2492  0.4875
  504MOL0     H68022  -0.404   9.582   7.134  0.3292 -1.4743  0.1834
  504MOL0     H68023  -0.191   9.599   7.011  1.1516 -0.8314  0.6526
  504MOL0     H68024   0.180   9.471   6.849 -0.2194  1.3157 -4.5340
  504MOL0     H68025   0.378   9.481   6.726 -1.0167 -0.4780  1.0431
  504MOL0     H68026   1.885  10.057   6.072  2.0716  2.4125  1.4180
  504MOL0     H68027   2.114  10.077   6.141 -1.1943  0.4342 -0.9164
  504MOL0     H68028   2.417   9.975   6.433  1.2287  0.4440  2.8499
  504MOL0     H68029   2.641  10.031   6.494  2.0993  1.6988 -0.3926
  504MOL0     H68030   2.927  10.228   6.382  0.6740  0.4717  1.0170
  504MOL0     H68031   2.798  10.166   6.487 -0.3718  0.8219 -1.0738
  504MOL0     H68032   2.971   9.971   6.539  1.6842 -0.4868 -0.6370
  504MOL0     H68033   3.001  10.126   6.617 -1.4847  1.0849 -0.5031
  504MOL0     H68034   3.158  10.189   6.433  3.9375 -0.5022 -0.1434
  504MOL0     H68035   3.118  10.037   6.358 -0.0020  3.3125 -2.4170
  504MOL0     H68036   3.188   9.921   6.574 -0.1436 -0.1502 -0.3049
  504MOL0     H68037   3.241  10.085   6.631  1.2478 -3.1633  2.0939
  504MOL0     H68038   3.563   9.998   6.395  1.4072  0.1498  1.8933
  504MOL0     H68039   2.769  10.017   6.090 -0.6161  0.1491 -0.8693
  504MOL0     H68040   2.548   9.939   6.020  0.0816  1.8943 -1.1555
  505MOL0     O68041   5.258   4.490   6.425 -0.2047  0.1442  0.2276
  505MOL0     C68042   5.293   4.376   6.390 -0.0469 -0.7466  0.2481
  505MOL0     O68043   5.212   4.290   6.310 -0.5225  0.0530 -0.3000
  505MOL0     C68044   5.100   4.333   6.262  0.5987 -0.3191 -0.5476
  505MOL0     C68045   5.006   4.226   6.255  0.7422 -0.8057  0.2937
  505MOL0     C68046   4.873   4.252   6.225 -0.1879 -0.4162  0.2638
  505MOL0     C68047   4.824   4.379   6.190  0.2009 -0.1606  0.1806
  505MOL0     O68048   4.697   4.411   6.148 -0.1987 -0.7330  0.2292
  505MOL0     C68049   4.624   4.322   6.069 -0.8565 -0.3334  0.2296
  505MOL0     C68050   4.505   4.396   5.989 -0.2838 -0.3442 -1.0529
  505MOL0     C68051   4.519   4.557   5.984  0.0783  0.2722 -0.3925
  505MOL0     C68052   4.396   4.617   5.920  0.9674 -0.4227 -0.2648
  505MOL0     C68053   4.417   4.753   5.862 -0.1220 -0.4625 -0.5136
  505MOL0     C68054   4.454   4.863   5.961  0.6387  0.0300  0.5514
  505MOL0     C68055   4.469   4.996   5.884 -0.1568 -0.5607 -0.0867
  505MOL0     C68056   4.499   5.128   5.965  0.1909 -0.4908  1.2454
  505MOL0     N68057   4.374   5.185   6.022 -0.2821  0.4525 -0.0610
  505MOL0     C68058   4.319   5.151   6.144 -0.5730 -0.3881  0.5969
  505MOL0     C68059   4.211   5.234   6.152  0.9151  0.0579  0.6836
  505MOL0     C68060   4.118   5.244   6.266  1.3227 -0.8348  0.1400
  505MOL0     C68061   4.036   5.374   6.287  0.1653 -0.0115 -0.5243
  505MOL0     C68062   3.950   5.369   6.411 -0.4583 -0.2813 -0.4067
  505MOL0     C68063   3.873   5.508   6.424  0.4923  0.1658 -0.8837
  505MOL0     O68064   3.803   5.523   6.547  0.0868  0.0391 -0.3975
  505MOL0     C68065   3.679   5.486   6.553 -0.6918 -0.4151 -0.6336
  505MOL0     C68066   3.584   5.573   6.504  0.0294  0.1555 -0.1867
  505MOL0     C68067   3.446   5.547   6.519 -0.1525 -0.0764  0.3502
  505MOL0     C68068   3.347   5.652   6.476 -0.1110  0.0083 -0.7681
  505MOL0     C68069   3.400   5.419   6.573  0.0061 -0.0870 -0.5004
  505MOL0     C68070   3.255   5.390   6.608 -0.4747 -0.0527 -0.2774
  505MOL0     O68071   3.142   5.463   6.567 -0.3254 -0.4597  0.5165
  505MOL0     C68072   3.011   5.434   6.577 -0.0493  0.2496  0.1782
  505MOL0     C68073   2.956   5.319   6.631 -0.7019  0.1717  0.7829
  505MOL0     C68074   2.818   5.297   6.642  0.3217 -0.1574  0.6284
  505MOL0     C68075   2.723   5.388   6.586 -0.4477 -0.7632  1.3387
  505MOL0     O68076   2.585   5.377   6.586 -0.6676  0.1828 -0.7924
  505MOL0     C68077   2.520   5.302   6.690 -0.6676  0.4857  1.1620
  505MOL0     C68078   2.362   5.321   6.673  1.2242  0.3207 -0.1319
  505MOL0     C68079   2.324   5.471   6.690 -0.5168 -0.0372 -0.1256
  505MOL0     C68080   2.197   5.505   6.608  0.2547 -0.1774  0.9436
  505MOL0     C68081   2.077   5.407   6.629  0.2908 -0.1377  0.8864
  505MOL0     C68082   1.963   5.440   6.538 -0.4864  0.6999  0.3522
  505MOL0     C68083   1.825   5.412   6.606  0.4728  0.4272 -0.5806
  505MOL0     C68084   1.790   5.255   6.621 -0.3809 -0.7054  0.0483
  505MOL0    Cl68085   1.798   5.188   6.451  0.0363 -0.2454  0.0399
  505MOL0     C68086   2.778   5.505   6.522  0.5264 -0.3489 -0.4020
  505MOL0     C68087   2.920   5.518   6.515 -0.1644 -0.1770 -0.2369
  505MOL0     O68088   3.250   5.319   6.709  0.1591 -0.3956 -0.0612
  505MOL0     C68089   3.505   5.329   6.605 -0.0907 -0.1927 -0.5487
  505MOL0     C68090   3.640   5.365   6.594  0.1720  0.0236 -0.0537
  505MOL0     N68091   4.198   5.310   6.041 -0.2105 -0.0327  0.2308
  505MOL0     N68092   4.292   5.274   5.956 -0.0922 -0.1448  0.3541
  505MOL0     C68093   4.917   4.487   6.200  0.3847  0.2566 -1.1769
  505MOL0     C68094   5.052   4.465   6.233 -0.7273  0.0566  0.1942
  505MOL0     C68095   5.424   4.339   6.426 -0.8547 -0.6693  0.0570
  505MOL0     C68096   5.529   4.427   6.415  0.1191  0.1878  0.5841
  505MOL0     C68097   5.656   4.384   6.457  0.6707  0.1605  0.6519
  505MOL0     C68098   5.675   4.257   6.499 -1.0615  0.5086 -0.3235
  505MOL0     O68099   5.795   4.207   6.549 -0.1661 -0.6584  0.4769
  505MOL0     C68100   5.920   4.276   6.546  0.3011 -0.3141  0.4330
  505MOL0     C68101   6.029   4.162   6.554  0.2324 -0.2686 -1.1927
  505MOL0     C68102   6.167   4.198   6.493  0.2716 -0.1276  0.8316
  505MOL0     C68103   6.275   4.105   6.546 -0.2900 -0.9328  0.8679
  505MOL0     C68104   6.310   4.129   6.686  0.0541  0.0572 -1.2685
  505MOL0     C68105   6.322   4.151   6.807 -0.4665  0.1907 -0.3180
  505MOL0     C68106   5.566   4.167   6.504  0.0244 -0.4998 -0.2708
  505MOL0     C68107   5.440   4.206   6.468 -0.3758 -0.1423 -0.3561
  505MOL0     H68108   5.031   4.122   6.268  3.1079 -0.3950 -0.4654
  505MOL0     H68109   4.808   4.166   6.225  1.2238 -1.6501 -3.0742
  505MOL0     H68110   4.690   4.280   5.993 -1.6053 -0.4628 -0.3701
  505MOL0     H68111   4.575   4.248   6.133 -0.5684  0.3954  1.3127
  505MOL0     H68112   4.490   4.347   5.893  3.1689 -0.9337 -1.4261
  505MOL0     H68113   4.417   4.371   6.049 -1.2915  1.5117 -1.6565
  505MOL0     H68114   4.507   4.599   6.084 -1.5091  1.1414 -0.9111
  505MOL0     H68115   4.615   4.591   5.944  1.6956 -2.9388  0.4294
  505MOL0     H68116   4.372   4.554   5.833  0.9122 -1.7635  0.6877
  505MOL0     H68117   4.310   4.610   5.987  2.0774  0.2679  1.2727
  505MOL0     H68118   4.499   4.755   5.790  0.8881  2.5330  0.5998
  505MOL0     H68119   4.320   4.773   5.815 -1.4846 -0.3979  2.1263
  505MOL0     H68120   4.380   4.877   6.040 -2.5055 -0.8444 -2.0368
  505MOL0     H68121   4.546   4.834   6.013 -0.2693 -2.8495  0.7310
  505MOL0     H68122   4.559   4.987   5.822 -0.1348 -0.3645 -0.0829
  505MOL0     H68123   4.380   5.008   5.823  1.3868  3.0375 -1.9555
  505MOL0     H68124   4.535   5.207   5.899 -1.2384  1.0520  2.2421
  505MOL0     H68125   4.585   5.114   6.031  1.6154  2.9164  0.3431
  505MOL0     H68126   4.356   5.082   6.219 -1.3245 -0.7751  0.6245
  505MOL0     H68127   4.049   5.162   6.245  0.3221  0.0389 -0.0732
  505MOL0     H68128   4.178   5.222   6.355  0.2110 -2.3062  0.5665
  505MOL0     H68129   3.972   5.372   6.198  0.9063 -1.0515 -1.0616
  505MOL0     H68130   4.106   5.459   6.281  0.8689 -0.5842 -0.5859
  505MOL0     H68131   4.008   5.360   6.503 -3.1174 -0.4573  1.3395
  505MOL0     H68132   3.894   5.275   6.420 -0.2992 -0.3488 -0.1028
  505MOL0     H68133   3.806   5.522   6.338 -0.1950  0.0456 -0.3848
  505MOL0     H68134   3.939   5.593   6.404  0.5485  0.0769 -1.0794
  505MOL0     H68135   3.613   5.667   6.458 -0.8025  2.0074  2.7953
  505MOL0     H68136   3.391   5.749   6.453 -0.2270 -0.0911 -1.4173
  505MOL0     H68137   3.286   5.613   6.394 -2.2687 -3.8341  2.2963
  505MOL0     H68138   3.275   5.679   6.554 -1.4402 -0.4074 -1.8000
  505MOL0     H68139   3.022   5.250   6.681 -3.2101 -1.6051  1.8736
  505MOL0     H68140   2.788   5.204   6.688 -1.0879  0.9286  1.9949
  505MOL0     H68141   2.539   5.194   6.693  0.4294  0.6444  0.3132
  505MOL0     H68142   2.543   5.328   6.794 -0.2213  0.9203  0.9561
  505MOL0     H68143   2.343   5.282   6.573 -1.1695 -1.1544  0.8077
  505MOL0     H68144   2.312   5.262   6.750  0.2092  1.9078  0.4665
  505MOL0     H68145   2.399   5.542   6.657  1.0556 -0.6575  1.9223
  505MOL0     H68146   2.312   5.495   6.796 -2.2946  0.4971 -0.4131
  505MOL0     H68147   2.168   5.608   6.632  3.2206  0.9356  0.2829
  505MOL0     H68148   2.212   5.508   6.500 -2.2225  2.2036  0.5609
  505MOL0     H68149   2.031   5.430   6.726 -3.9441 -0.0821 -0.8975
  505MOL0     H68150   2.108   5.303   6.633 -0.2057 -0.3027  0.6134
  505MOL0     H68151   1.973   5.547   6.516 -0.8471  0.8453  0.8770
  505MOL0     H68152   1.970   5.388   6.442 -3.3558 -0.1568  0.5250
  505MOL0     H68153   1.735   5.457   6.563 -2.0242 -1.0793  2.6070
  505MOL0     H68154   1.832   5.450   6.708  0.8582  2.3987 -1.3053
  505MOL0     H68155   1.690   5.249   6.666 -0.5236 -1.0743 -0.3088
  505MOL0     H68156   1.865   5.212   6.687  1.0803  2.0454  0.2947
  505MOL0     H68157   2.721   5.585   6.477  4.7117  2.5211 -1.2502
  505MOL0     H68158   2.969   5.599   6.461  3.0538 -2.2526 -0.7241
  505MOL0     H68159   3.493   5.234   6.658  1.9865 -0.0017  0.3656
  505MOL0     H68160   3.708   5.288   6.631 -0.1370  0.0711  0.6262
  505MOL0     H68161   4.892   4.589   6.171 -2.3201 -0.7048 -2.5724
  505MOL0     H68162   5.129   4.541   6.224  2.0929 -2.2920  2.2168
  505MOL0     H68163   5.506   4.529   6.385  1.8575  1.2366  2.5092
  505MOL0     H68164   5.735   4.458   6.464  1.2114 -0.4246  0.8424
  505MOL0     H68165   5.922   4.345   6.461  0.1041 -0.4730  0.2988
  505MOL0     H68166   5.929   4.331   6.640  2.1737 -1.0926  0.7547
  505MOL0     H68167   5.993   4.075   6.499 -0.7996  0.8442 -2.3211
  505MOL0     H68168   6.035   4.132   6.660  0.7515  1.6878 -0.6253
  505MOL0     H68169   6.193   4.297   6.530  0.9996  0.1141 -0.2702
  505MOL0     H68170   6.159   4.204   6.384  0.8179 -0.9288  0.7424
  505MOL0     H68171   6.366   4.128   6.489 -0.5077 -0.8000  0.5666
  505MOL0     H68172   6.252   3.999   6.530 -1.8442 -0.5844  0.5957
  505MOL0     H68173   6.312   4.177   6.910  2.7399 -0.7232  0.3637
  505MOL0     H68174   5.576   4.061   6.523 -0.5997 -0.4326  0.4579
  505MOL0     H68175   5.356   4.137   6.475  1.3508 -2.3279  0.2291
  506MOL0     O68176   7.602   6.870   7.868 -0.0534  0.1639 -0.2766
  506MOL0     C68177   7.668   6.944   7.946 -0.0014 -0.7871 -0.2383
  506MOL0     O68178   7.617   7.027   8.037 -0.0926  0.3600 -0.5864
  506MOL0     C68179   7.485   7.030   8.064  0.1971  0.6157 -0.6637
  506MOL0     C68180   7.408   7.131   8.007 -0.8809 -0.2654  0.5445
  506MOL0     C68181   7.277   7.136   8.032  0.5653 -0.1757 -0.1266
  506MOL0     C68182   7.215   7.048   8.126  0.4034  0.1258 -1.2459
  506MOL0     O68183   7.080   7.076   8.142  0.2402 -0.0834 -0.3913
  506MOL0     C68184   7.024   7.048   8.271  0.1607 -1.0272 -0.2909
  506MOL0     C68185   6.884   7.100   8.274 -0.3568 -0.0907  0.2179
  506MOL0     C68186   6.880   7.254   8.256  0.0613 -0.3017  0.0918
  506MOL0     C68187   6.747   7.321   8.292  0.1775 -0.5682 -1.1591
  506MOL0     C68188   6.641   7.286   8.187  0.0608  0.1455  0.3114
  506MOL0     C68189   6.523   7.384   8.189 -0.9658  0.6842  0.0424
  506MOL0     C68190   6.425   7.331   8.077  0.2786  0.1603  0.5829
  506MOL0     C68191   6.318   7.232   8.110  0.3899  0.2752 -0.4811
  506MOL0     N68192   6.242   7.182   7.995  0.5467  0.2744  0.0706
  506MOL0     C68193   6.142   7.257   7.918 -0.9759  0.2409  0.0698
  506MOL0     C68194   6.114   7.177   7.816  0.7402 -0.3568 -0.6842
  506MOL0     C68195   6.013   7.200   7.698  0.6471 -0.1696  0.2816
  506MOL0     C68196   5.872   7.223   7.746 -0.4883 -0.5496  0.0773
  506MOL0     C68197   5.763   7.239   7.631 -0.9852 -0.3739 -0.0247
  506MOL0     C68198   5.622   7.267   7.688 -0.0818 -0.4810 -0.6248
  506MOL0     O68199   5.542   7.328   7.585  0.5630 -0.3532 -0.0980
  506MOL0     C68200   5.417   7.376   7.628  0.3178  0.1095  0.3090
  506MOL0     C68201   5.338   7.447   7.524 -0.1932 -0.1497  0.0033
  506MOL0     C68202   5.225   7.497   7.553  0.1238 -0.2531 -0.8413
  506MOL0     C68203   5.178   7.594   7.438  0.3210  0.2805 -0.8710
  506MOL0     C68204   5.158   7.472   7.676 -0.1228 -0.9964  0.4890
  506MOL0     C68205   5.020   7.530   7.695  0.2593 -0.2178 -0.2509
  506MOL0     O68206   4.973   7.553   7.820  0.1754  0.4559  0.3055
  506MOL0     C68207   4.846   7.592   7.842  0.0203 -0.1372 -0.1954
  506MOL0     C68208   4.729   7.506   7.830  0.2103  0.3717 -0.6567
  506MOL0     C68209   4.602   7.558   7.858  0.7881 -0.2103  0.1515
  506MOL0     C68210   4.581   7.697   7.887 -0.1342  0.7165  0.1089
  506MOL0     O68211   4.454   7.746   7.866  0.1665 -0.2012 -0.0840
  506MOL0     C68212   4.421   7.870   7.917 -0.2544 -0.7856  0.7138
  506MOL0     C68213   4.294   7.894   7.847  0.3960  0.3912 -0.7761
  506MOL0     C68214   4.179   7.805   7.895  0.0745  0.3053  0.2469
  506MOL0     C68215   4.052   7.833   7.823 -0.0953 -0.3189 -0.5383
  506MOL0     C68216   3.928   7.749   7.861 -0.2525  0.1725  0.3089
  506MOL0     C68217   3.801   7.806   7.794 -0.2240  0.4691  0.1923
  506MOL0     C68218   3.686   7.701   7.793 -0.7935 -0.1598 -0.4191
  506MOL0     C68219   3.541   7.757   7.769  0.3751  0.5406 -0.4568
  506MOL0    Cl68220   3.484   7.830   7.610 -0.1683  0.5692 -0.3887
  506MOL0     C68221   4.698   7.780   7.898  0.0984  0.8967 -0.0844
  506MOL0     C68222   4.829   7.724   7.875  0.2463 -0.4426  0.2994
  506MOL0     O68223   4.951   7.544   7.593 -0.1234  0.0226  0.5148
  506MOL0     C68224   5.228   7.406   7.780 -0.2729  0.6969  0.0117
  506MOL0     C68225   5.360   7.362   7.761 -0.0094  0.7110  0.3612
  506MOL0     N68226   6.184   7.060   7.824  0.2866 -0.4992 -0.3780
  506MOL0     N68227   6.265   7.063   7.924 -0.0075 -0.4445  0.1887
  506MOL0     C68228   7.291   6.959   8.196 -0.1696  0.4318  0.6745
  506MOL0     C68229   7.429   6.948   8.170 -0.5840 -0.2300  0.9165
  506MOL0     C68230   7.811   6.966   7.917  0.5767  0.8002  0.8559
  506MOL0     C68231   7.878   6.903   7.813 -0.0582 -0.6064 -0.2779
  506MOL0     C68232   8.011   6.931   7.784  0.4253  0.5725 -0.2281
  506MOL0     C68233   8.087   7.013   7.867 -0.3033 -0.0501  0.2836
  506MOL0     O68234   8.227   7.011   7.840  0.4963 -0.1294  0.2064
  506MOL0     C68235   8.319   7.065   7.940 -0.3572  0.2188  0.6661
  506MOL0     C68236   8.450   6.988   7.913 -0.0982 -0.4540  0.2164
  506MOL0     C68237   8.536   7.010   8.045  0.9354 -0.6726  1.2530
  506MOL0     C68238   8.641   6.902   8.052 -0.4828  0.0730 -0.9904
  506MOL0     C68239   8.755   6.925   8.145  0.3598 -0.0198  0.7752
  506MOL0     C68240   8.843   6.946   8.223 -0.3842 -0.3420 -0.1660
  506MOL0     C68241   8.022   7.072   7.976 -0.2185  0.5146 -0.2015
  506MOL0     C68242   7.888   7.048   7.994 -0.4162 -0.6500 -1.1510
  506MOL0     H68243   7.462   7.203   7.946 -0.2542 -0.7648  0.4956
  506MOL0     H68244   7.207   7.195   7.973 -1.2775 -1.4883  0.6428
  506MOL0     H68245   7.015   6.941   8.293 -2.3388 -1.0164 -0.9466
  506MOL0     H68246   7.088   7.096   8.346  0.1843 -1.0740 -0.2800
  506MOL0     H68247   6.813   7.058   8.202 -1.0845  3.9841 -1.7347
  506MOL0     H68248   6.851   7.083   8.377 -0.6896  1.9167  0.4912
  506MOL0     H68249   6.953   7.299   8.323 -1.9045  2.3109  0.6623
  506MOL0     H68250   6.890   7.284   8.151  0.2186  3.4773  1.0446
  506MOL0     H68251   6.700   7.287   8.385  0.1446  1.1323 -0.5165
  506MOL0     H68252   6.762   7.429   8.295  1.2736 -0.7175 -0.7713
  506MOL0     H68253   6.695   7.275   8.092  0.1128 -1.3721  0.4881
  506MOL0     H68254   6.598   7.188   8.213 -3.1529  0.9758 -1.3175
  506MOL0     H68255   6.470   7.393   8.284 -0.1189  2.0746  0.4226
  506MOL0     H68256   6.560   7.485   8.166  2.3636 -0.6983 -1.3590
  506MOL0     H68257   6.376   7.425   8.048  0.8257  0.2386 -0.1087
  506MOL0     H68258   6.479   7.294   7.990  0.4211  0.0093  0.7345
  506MOL0     H68259   6.250   7.267   8.188 -4.2026 -2.6111 -2.7621
  506MOL0     H68260   6.363   7.147   8.163  2.2998  0.8373 -1.1014
  506MOL0     H68261   6.106   7.354   7.951 -1.9212  0.3829 -1.3028
  506MOL0     H68262   6.050   7.288   7.644  1.9037  1.1241  3.0836
  506MOL0     H68263   6.006   7.111   7.634 -3.2264  0.1752 -0.0034
  506MOL0     H68264   5.873   7.311   7.812 -2.8785 -1.3671  1.3486
  506MOL0     H68265   5.842   7.136   7.805  1.3847 -0.4949  1.1945
  506MOL0     H68266   5.759   7.155   7.560  2.0818 -0.4481 -0.2870
  506MOL0     H68267   5.796   7.322   7.569 -2.6207 -1.0208 -1.8689
  506MOL0     H68268   5.638   7.335   7.773  1.1697 -0.9667 -0.4487
  506MOL0     H68269   5.579   7.181   7.740  2.6440  0.9640  4.9162
  506MOL0     H68270   5.391   7.461   7.430  1.0197 -2.3047  0.3039
  506MOL0     H68271   5.257   7.624   7.368 -0.0677  0.5994 -1.1768
  506MOL0     H68272   5.107   7.535   7.380  0.6476 -0.6066 -0.3926
  506MOL0     H68273   5.137   7.688   7.478 -0.4675 -0.2251 -0.4749
  506MOL0     H68274   4.743   7.408   7.786  0.2058  0.1139 -0.1000
  506MOL0     H68275   4.519   7.493   7.834  1.3715 -0.8557 -0.1847
  506MOL0     H68276   4.409   7.882   8.025  0.7520  2.6161  0.5545
  506MOL0     H68277   4.492   7.946   7.883 -0.5672 -0.6341  0.4031
  506MOL0     H68278   4.275   8.001   7.860  2.2647  0.5200  1.3926
  506MOL0     H68279   4.306   7.878   7.739 -0.4682 -2.0249 -0.5641
  506MOL0     H68280   4.168   7.813   8.003  0.0969  1.6419  0.1756
  506MOL0     H68281   4.198   7.699   7.876  0.2789  0.0890  1.5957
  506MOL0     H68282   4.012   7.934   7.837  0.9017 -0.3230  3.9204
  506MOL0     H68283   4.069   7.816   7.717 -0.1785 -0.5912 -0.5118
  506MOL0     H68284   3.907   7.743   7.969  1.8987  0.9290  0.8203
  506MOL0     H68285   3.946   7.643   7.840  0.6652  0.1235  1.2199
  506MOL0     H68286   3.766   7.898   7.841 -2.0514 -1.3051  2.6286
  506MOL0     H68287   3.831   7.824   7.691  1.3221  0.2854  0.5793
  506MOL0     H68288   3.690   7.642   7.885 -0.8451 -3.2382 -2.2602
  506MOL0     H68289   3.704   7.629   7.713 -0.7013 -1.4850  0.7533
  506MOL0     H68290   3.525   7.828   7.850  2.2592  1.6918 -1.0158
  506MOL0     H68291   3.465   7.683   7.795  0.4289  1.1108  1.4239
  506MOL0     H68292   4.693   7.885   7.924 -0.4640  0.4895  1.5258
  506MOL0     H68293   4.912   7.795   7.877 -0.6157  0.7310 -1.7991
  506MOL0     H68294   5.166   7.379   7.865 -1.6142 -1.1352 -1.4752
  506MOL0     H68295   5.406   7.315   7.847 -0.8769 -0.0109  0.4464
  506MOL0     H68296   7.238   6.891   8.261  0.4906 -0.3443  0.4179
  506MOL0     H68297   7.497   6.881   8.221  0.6720  1.2318  1.2333
  506MOL0     H68298   7.821   6.828   7.760 -1.7687  0.0837  0.5202
  506MOL0     H68299   8.055   6.879   7.699  0.6667 -1.3812  1.0513
  506MOL0     H68300   8.325   7.171   7.915  1.4103  0.1048  0.5028
  506MOL0     H68301   8.284   7.049   8.043 -2.9946 -0.4957 -0.2772
  506MOL0     H68302   8.497   7.011   7.817  0.3141 -0.2218  0.4708
  506MOL0     H68303   8.421   6.883   7.904 -4.6473  0.6606 -0.7382
  506MOL0     H68304   8.473   7.017   8.135 -2.1317 -2.7001 -0.5454
  506MOL0     H68305   8.576   7.110   8.027 -0.6438 -0.3841 -1.0947
  506MOL0     H68306   8.678   6.883   7.951 -3.1042  0.5341 -2.1092
  506MOL0     H68307   8.594   6.810   8.089  0.4856  0.7999  2.3968
  506MOL0     H68308   8.926   6.969   8.287 -1.6733  0.3682  1.3110
  506MOL0     H68309   8.086   7.140   8.031  1.6309  0.1820 -1.8196
  506MOL0     H68310   7.844   7.110   8.071 -3.3185 -1.3633 -2.1108
  507MOL0     O68311   4.675   0.694   6.498 -0.0113  0.0120 -0.0721
  507MOL0     C68312   4.714   0.613   6.580 -0.1781  0.9777 -0.1198
  507MOL0     O68313   4.629   0.564   6.678  0.9530 -0.0895 -0.3741
  507MOL0     C68314   4.504   0.621   6.695  0.1185 -0.3922 -0.1290
  507MOL0     C68315   4.471   0.664   6.819  0.6757  0.0706 -0.1677
  507MOL0     C68316   4.341   0.731   6.842  0.2206 -0.4695  0.1113
  507MOL0     C68317   4.238   0.719   6.744  0.1093  0.9208 -0.5633
  507MOL0     O68318   4.110   0.767   6.762 -0.1823  0.2856 -0.2016
  507MOL0     C68319   4.099   0.881   6.847 -0.2139 -0.2841  0.6841
  507MOL0     C68320   4.178   1.001   6.801  0.4463  0.4840  0.4907
  507MOL0     C68321   4.119   1.085   6.688  0.2017  0.0923 -0.2323
  507MOL0     C68322   4.113   1.001   6.561 -0.6608 -0.2636 -0.3357
  507MOL0     C68323   4.048   1.086   6.456  0.5146 -0.4127 -0.0281
  507MOL0     C68324   4.071   1.030   6.311  0.2074  0.5929 -1.1625
  507MOL0     C68325   4.018   0.893   6.281  0.4904 -0.6717 -0.2294
  507MOL0     C68326   3.868   0.871   6.301 -0.1721  0.5185  0.9160
  507MOL0     N68327   3.765   0.969   6.251 -0.1034  0.3142  0.4019
  507MOL0     C68328   3.714   0.971   6.123 -0.3021  0.9437 -0.3681
  507MOL0     C68329   3.628   1.073   6.118  0.0357 -0.1403  0.2844
  507MOL0     C68330   3.563   1.127   5.993 -0.0171  0.7106 -0.4931
  507MOL0     C68331   3.422   1.142   6.026  0.5737  0.2084  0.2409
  507MOL0     C68332   3.320   1.129   5.910 -0.3659 -0.2023  0.6194
  507MOL0     C68333   3.185   1.165   5.961 -0.0920  0.6874 -0.2989
  507MOL0     O68334   3.091   1.135   5.857 -0.5712 -0.3150  0.0687
  507MOL0     C68335   2.956   1.134   5.879  0.1309 -0.6007 -0.7702
  507MOL0     C68336   2.871   1.081   5.786  0.3762  0.0215  0.5971
  507MOL0     C68337   2.739   1.059   5.812  0.8543 -0.1001  0.1028
  507MOL0     C68338   2.662   1.003   5.703 -0.2676 -0.0845  0.4409
  507MOL0     C68339   2.681   1.111   5.933  0.4833  0.2695  0.1341
  507MOL0     C68340   2.539   1.109   5.964  0.2590 -0.0301  0.1751
  507MOL0     O68341   2.499   1.096   6.091  0.1598  0.0387 -0.3192
  507MOL0     C68342   2.366   1.123   6.124 -0.5160 -0.3923  0.4179
  507MOL0     C68343   2.271   1.027   6.108 -0.2372 -0.1257  0.5622
  507MOL0     C68344   2.147   1.045   6.164  0.3003 -0.4812 -0.8074
  507MOL0     C68345   2.111   1.157   6.237 -0.5823  0.2792 -0.2352
  507MOL0     O68346   1.994   1.168   6.298 -0.3845  0.2987 -0.5256
  507MOL0     C68347   1.954   1.278   6.383  0.7831  0.1017 -0.4408
  507MOL0     C68348   1.832   1.225   6.459  0.1714  0.0170  1.1827
  507MOL0     C68349   1.726   1.148   6.376  0.8042 -0.7197  1.2175
  507MOL0     C68350   1.589   1.170   6.435  0.8285 -0.3606  0.3105
  507MOL0     C68351   1.486   1.068   6.391 -0.2474  0.5925  0.4543
  507MOL0     C68352   1.357   1.089   6.473  0.7746 -0.4565 -0.2427
  507MOL0     C68353   1.237   1.019   6.413  0.7238  0.3761  0.2259
  507MOL0     C68354   1.110   1.026   6.500  0.4979  0.3134 -0.3669
  507MOL0    Cl68355   1.036   1.190   6.518 -0.0643 -0.2044 -0.2028
  507MOL0     C68356   2.210   1.261   6.242  0.1250  0.3923 -0.0800
  507MOL0     C68357   2.336   1.248   6.183 -1.0241 -0.2182 -0.5753
  507MOL0     O68358   2.465   1.127   5.872 -0.0029 -0.2144  0.2941
  507MOL0     C68359   2.767   1.160   6.025  0.9333 -0.0975  0.2125
  507MOL0     C68360   2.903   1.173   6.001 -0.5129  0.3803 -0.8849
  507MOL0     N68361   3.625   1.140   6.240  0.0782  0.8264  0.3432
  507MOL0     N68362   3.710   1.076   6.313 -0.2389 -0.3378 -0.0466
  507MOL0     C68363   4.272   0.673   6.618 -0.6548 -0.0566 -0.7292
  507MOL0     C68364   4.405   0.627   6.592 -0.1091 -0.3994  0.9782
  507MOL0     C68365   4.832   0.530   6.560  0.1964 -0.8505  0.7648
  507MOL0     C68366   4.861   0.410   6.632 -0.0387 -0.5529 -0.6739
  507MOL0     C68367   4.987   0.350   6.605  0.6061 -0.4863 -0.3631
  507MOL0     C68368   5.051   0.380   6.488 -0.2027  0.3793  0.5667
  507MOL0     O68369   5.168   0.308   6.468  0.4034 -0.2832  0.8103
  507MOL0     C68370   5.224   0.307   6.335  0.2971 -0.4507  0.2401
  507MOL0     C68371   5.174   0.191   6.245  0.2760 -0.6783 -0.2964
  507MOL0     C68372   5.204   0.058   6.311 -0.1277  0.7270  0.1577
  507MOL0     C68373   5.148  -0.063   6.218 -0.7407 -0.0341  0.1171
  507MOL0     C68374   5.009  -0.038   6.182 -0.0995 -0.2927 -0.1160
  507MOL0     C68375   4.891  -0.013   6.153 -0.4573  0.2929  0.0830
  507MOL0     C68376   5.023   0.501   6.427 -0.6459  0.0591  0.3358
  507MOL0     C68377   4.915   0.575   6.461 -0.2172 -0.0002  0.4192
  507MOL0     H68378   4.543   0.666   6.900 -0.7171 -0.7649  1.1584
  507MOL0     H68379   4.308   0.771   6.937 -1.0674  0.2277 -0.6068
  507MOL0     H68380   3.995   0.916   6.846 -0.9561 -2.3473  0.2116
  507MOL0     H68381   4.110   0.857   6.954  0.5894 -0.7587  0.5073
  507MOL0     H68382   4.186   1.063   6.891  2.5661  1.2413 -0.1525
  507MOL0     H68383   4.282   0.983   6.773 -0.2650  0.2801 -2.3553
  507MOL0     H68384   4.020   1.108   6.728  0.3271 -0.8708  0.6754
  507MOL0     H68385   4.171   1.182   6.682 -0.9215  0.7467  0.2867
  507MOL0     H68386   4.215   0.972   6.532 -0.4036  0.7622 -0.4807
  507MOL0     H68387   4.055   0.909   6.574 -0.6024 -0.5814 -2.1205
  507MOL0     H68388   3.943   1.085   6.485  0.5582 -1.5006  0.1206
  507MOL0     H68389   4.091   1.187   6.467 -1.1332  0.0350  5.4774
  507MOL0     H68390   4.025   1.098   6.239 -0.1117  1.9328  0.2527
  507MOL0     H68391   4.178   1.031   6.290  0.2469 -0.0548 -1.0184
  507MOL0     H68392   4.042   0.868   6.177 -0.1363  0.1717 -0.5831
  507MOL0     H68393   4.078   0.819   6.334  0.2045 -0.5465  0.2745
  507MOL0     H68394   3.855   0.862   6.409  3.0719  3.8686  1.7785
  507MOL0     H68395   3.842   0.776   6.253  0.3390  1.2365 -0.8842
  507MOL0     H68396   3.734   0.905   6.039  0.0340  1.0053 -0.3379
  507MOL0     H68397   3.616   1.213   5.952  0.9730 -0.2413 -1.2967
  507MOL0     H68398   3.574   1.050   5.915  1.7232 -2.2731  2.4239
  507MOL0     H68399   3.410   1.238   6.077 -0.8366  0.4971 -0.5700
  507MOL0     H68400   3.389   1.070   6.101  1.3385  0.1477  0.5216
  507MOL0     H68401   3.319   1.026   5.873 -2.5602 -0.0521  0.1114
  507MOL0     H68402   3.348   1.200   5.832  0.4165 -0.3399  0.7686
  507MOL0     H68403   3.193   1.274   5.966  1.9106  0.5866 -0.5799
  507MOL0     H68404   3.161   1.118   6.057 -1.7815  2.0192 -0.0154
  507MOL0     H68405   2.914   1.052   5.691  0.5002 -2.3786  1.3256
  507MOL0     H68406   2.707   0.920   5.648 -0.1028  0.5330 -0.3780
  507MOL0     H68407   2.567   0.958   5.735  0.0180 -1.1021 -0.1321
  507MOL0     H68408   2.627   1.080   5.633 -0.3181 -0.0792  0.4710
  507MOL0     H68409   2.310   0.938   6.060  1.4406  2.0273 -2.4345
  507MOL0     H68410   2.070   0.969   6.159  1.0492 -1.4355  1.1145
  507MOL0     H68411   2.028   1.300   6.460  0.2499  0.1127  0.0695
  507MOL0     H68412   1.922   1.367   6.327  0.3451  1.0076  1.1801
  507MOL0     H68413   1.876   1.158   6.534  0.8716 -1.3304 -0.3734
  507MOL0     H68414   1.788   1.313   6.507  0.5447 -0.5938  2.6975
  507MOL0     H68415   1.758   1.044   6.367  0.5736 -0.6808 -0.4172
  507MOL0     H68416   1.713   1.189   6.275 -0.2496  0.0430  1.6458
  507MOL0     H68417   1.607   1.172   6.543  1.3492  0.9484  0.2280
  507MOL0     H68418   1.544   1.266   6.410 -1.6735 -0.7446  2.7884
  507MOL0     H68419   1.527   0.970   6.415 -0.6695  0.4343  0.5393
  507MOL0     H68420   1.468   1.078   6.284 -1.8398  1.5798  0.7745
  507MOL0     H68421   1.378   1.038   6.567 -0.1096  0.3527  0.4085
  507MOL0     H68422   1.336   1.195   6.489  0.0961 -0.8141  1.4602
  507MOL0     H68423   1.263   0.913   6.406  4.1955  1.1893 -2.1686
  507MOL0     H68424   1.227   1.054   6.310  2.3181  1.8425  0.5098
  507MOL0     H68425   1.126   0.986   6.600 -2.2092 -0.0631 -0.0238
  507MOL0     H68426   1.035   0.956   6.461  1.3077 -2.0716  2.0837
  507MOL0     H68427   2.189   1.348   6.303  1.1951 -0.0798  0.9907
  507MOL0     H68428   2.417   1.321   6.189 -0.9048 -0.4516  1.2130
  507MOL0     H68429   2.736   1.198   6.122 -2.0127  1.2428 -1.1200
  507MOL0     H68430   2.959   1.216   6.084 -0.3640 -1.6799  0.1509
  507MOL0     H68431   4.199   0.684   6.539 -0.5867  2.6372 -0.5108
  507MOL0     H68432   4.427   0.612   6.487 -2.9940 -0.3767  0.2884
  507MOL0     H68433   4.800   0.379   6.716 -0.4389  0.9728 -0.3851
  507MOL0     H68434   5.032   0.274   6.668 -2.8256 -0.6767  2.1098
  507MOL0     H68435   5.231   0.399   6.276  0.2701 -2.1561 -2.6155
  507MOL0     H68436   5.329   0.285   6.356  0.8669  0.9752 -0.8769
  507MOL0     H68437   5.223   0.203   6.148 -1.4788 -0.5295 -1.1933
  507MOL0     H68438   5.067   0.203   6.229  0.4815  0.0941 -1.1520
  507MOL0     H68439   5.163   0.042   6.411 -0.6785 -1.7955 -0.4142
  507MOL0     H68440   5.313   0.047   6.308 -0.0718  1.3326 -2.3703
  507MOL0     H68441   5.161  -0.149   6.284  2.4051  1.9712  2.3988
  507MOL0     H68442   5.206  -0.073   6.127  0.4698  3.9563  0.2710
  507MOL0     H68443   4.790   0.005   6.121 -0.7360  0.4331  0.9877
  507MOL0     H68444   5.085   0.537   6.345  0.4884 -0.0663  1.1102
  507MOL0     H68445   4.893   0.667   6.406 -2.3674 -0.2563  0.7597
  508MOL0     O68446   9.251   0.450   5.364  1.0653 -0.2247  0.2887
  508MOL0     C68447   9.298   0.413   5.475  0.3273  0.5588 -0.8477
  508MOL0     O68448   9.223   0.380   5.583 -1.5509  0.2039  0.4002
  508MOL0     C68449   9.093   0.348   5.563 -0.0057 -1.3367 -0.1740
  508MOL0     C68450   9.001   0.449   5.605  0.0130 -0.5446 -0.3706
  508MOL0     C68451   8.864   0.416   5.614  0.3405 -0.5350 -0.2221
  508MOL0     C68452   8.814   0.291   5.568  1.3297  0.2860 -0.0729
  508MOL0     O68453   8.689   0.251   5.574  0.3543 -0.2235  1.1679
  508MOL0     C68454   8.585   0.344   5.608 -1.5375  0.1799  0.7610
  508MOL0     C68455   8.460   0.265   5.584  0.7061  0.0282  0.2411
  508MOL0     C68456   8.342   0.354   5.636  0.3797  0.0570  0.5951
  508MOL0     C68457   8.207   0.277   5.610  0.7611  0.4666  0.5921
  508MOL0     C68458   8.092   0.329   5.698  0.3913  0.3304  0.8189
  508MOL0     C68459   8.009   0.441   5.627 -0.6060 -0.0766 -0.0497
  508MOL0     C68460   7.897   0.497   5.709  0.1068  0.2299  0.1554
  508MOL0     C68461   7.788   0.400   5.729 -0.2647 -0.2549 -0.4713
  508MOL0     N68462   7.661   0.474   5.759  0.7124 -0.1749 -0.6520
  508MOL0     C68463   7.628   0.529   5.882  0.0832  0.3371 -0.2369
  508MOL0     C68464   7.502   0.583   5.863 -0.9338  0.6451 -0.0919
  508MOL0     C68465   7.423   0.658   5.966  0.0153  0.6616 -0.6467
  508MOL0     C68466   7.286   0.590   6.002  0.3269  0.3967  0.2682
  508MOL0     C68467   7.217   0.661   6.119 -0.0961  0.3361  0.4036
  508MOL0     C68468   7.075   0.603   6.139  0.4104 -0.0100 -0.5413
  508MOL0     O68469   6.995   0.677   6.237  0.4272  0.7178 -0.3430
  508MOL0     C68470   6.870   0.631   6.276 -0.7904  0.3179  0.4960
  508MOL0     C68471   6.808   0.535   6.204  0.0690  0.4664 -0.2086
  508MOL0     C68472   6.686   0.479   6.245 -0.1112 -0.6009 -0.4193
  508MOL0     C68473   6.630   0.374   6.155  0.0654 -0.0211 -0.9950
  508MOL0     C68474   6.619   0.522   6.362 -0.0014 -0.4638 -0.6442
  508MOL0     C68475   6.506   0.467   6.422  0.2424 -0.2548  0.3831
  508MOL0     O68476   6.477   0.489   6.558  0.1660 -0.3438  0.1664
  508MOL0     C68477   6.361   0.452   6.616  0.5065 -0.2916 -0.1303
  508MOL0     C68478   6.350   0.318   6.655  0.4114 -0.1773 -0.5174
  508MOL0     C68479   6.223   0.265   6.684 -0.7876  0.2060  0.4029
  508MOL0     C68480   6.107   0.344   6.690  0.4747 -0.0263  0.5152
  508MOL0     O68481   5.977   0.305   6.730  0.0956  0.1133  0.0065
  508MOL0     C68482   5.944   0.168   6.733  0.5353 -0.0143  0.4825
  508MOL0     C68483   5.802   0.151   6.750  1.0902  0.1839 -0.0152
  508MOL0     C68484   5.726   0.190   6.630 -0.3267 -0.6439 -0.3069
  508MOL0     C68485   5.576   0.220   6.656  0.3423 -0.3019 -0.1336
  508MOL0     C68486   5.499   0.090   6.663  0.2058 -0.2753 -0.1770
  508MOL0     C68487   5.365   0.116   6.730 -0.4432  0.0889  0.3567
  508MOL0     C68488   5.270   0.004   6.700 -0.2823 -0.2832 -0.3533
  508MOL0     C68489   5.205  -0.041   6.832 -0.1245  0.9565  0.0371
  508MOL0    Cl68490   5.110   0.094   6.916  0.1874  0.3492  0.4316
  508MOL0     C68491   6.124   0.477   6.652  0.4998  1.2136 -0.0991
  508MOL0     C68492   6.245   0.529   6.630 -0.3821  0.5681 -0.1740
  508MOL0     O68493   6.420   0.431   6.339  0.5519 -0.1221 -1.0191
  508MOL0     C68494   6.692   0.619   6.433 -0.5805 -0.1326  0.1662
  508MOL0     C68495   6.816   0.670   6.396  0.5482  0.8663 -0.2600
  508MOL0     N68496   7.454   0.558   5.727 -0.5402  0.4539 -0.4813
  508MOL0     N68497   7.550   0.487   5.674  0.3319 -0.0149  0.6810
  508MOL0     C68498   8.908   0.193   5.521  0.1326 -0.4789 -0.5707
  508MOL0     C68499   9.045   0.222   5.534 -0.3331  0.1618  0.1394
  508MOL0     C68500   9.442   0.412   5.500  0.2687  0.1273 -0.0946
  508MOL0     C68501   9.494   0.406   5.629 -0.2797 -0.0032  0.5464
  508MOL0     C68502   9.632   0.413   5.642 -0.8353 -0.4407  0.1451
  508MOL0     C68503   9.720   0.424   5.534 -0.0100 -0.2907  0.3755
  508MOL0     O68504   9.851   0.438   5.560  0.0057  0.5312 -0.2912
  508MOL0     C68505   9.950   0.440   5.450 -0.6483  0.0271  0.1520
  508MOL0     C68506  10.093   0.446   5.519 -0.5117 -0.0329 -0.7850
  508MOL0     C68507  10.196   0.457   5.414  0.0156 -0.1757 -0.2146
  508MOL0     C68508  10.334   0.405   5.470 -0.1417 -0.5725 -0.3984
  508MOL0     C68509  10.374   0.448   5.606 -0.5298  0.4555  0.0380
  508MOL0     C68510  10.394   0.507   5.712 -0.3770 -0.5560 -0.0044
  508MOL0     C68511   9.668   0.432   5.400 -0.1618  0.3753 -0.0326
  508MOL0     C68512   9.529   0.426   5.391 -0.4166 -0.3683  1.1262
  508MOL0     H68513   9.028   0.551   5.628  3.7806 -1.0615 -1.7293
  508MOL0     H68514   8.793   0.491   5.646 -2.1405 -2.0420 -1.8403
  508MOL0     H68515   8.602   0.379   5.710  1.4110  0.2864  0.3131
  508MOL0     H68516   8.596   0.427   5.538  0.6741 -1.4489 -0.9698
  508MOL0     H68517   8.438   0.231   5.482 -0.3277 -1.5365  0.9313
  508MOL0     H68518   8.462   0.170   5.639 -1.5128  1.5688  3.3407
  508MOL0     H68519   8.349   0.387   5.740  0.9256  2.2070 -0.0592
  508MOL0     H68520   8.334   0.444   5.575  0.2219  1.3571  2.4584
  508MOL0     H68521   8.180   0.264   5.505  0.3764 -1.7289  0.9174
  508MOL0     H68522   8.229   0.177   5.647 -3.3620 -0.6472  0.5093
  508MOL0     H68523   8.030   0.239   5.704  0.7012 -0.1165 -1.4934
  508MOL0     H68524   8.122   0.357   5.799  0.5459 -1.9507  1.4531
  508MOL0     H68525   8.078   0.520   5.597  0.2705 -0.8834 -0.2077
  508MOL0     H68526   7.959   0.414   5.533  0.6705  2.1555 -1.4549
  508MOL0     H68527   7.936   0.530   5.806  0.2962 -1.4728  0.6990
  508MOL0     H68528   7.850   0.578   5.654 -0.0513 -0.1141 -0.2205
  508MOL0     H68529   7.811   0.343   5.819 -1.8512  0.2076  0.2786
  508MOL0     H68530   7.773   0.334   5.643  1.2342  0.7511 -1.5509
  508MOL0     H68531   7.688   0.537   5.972  0.1497  4.3064 -0.4596
  508MOL0     H68532   7.481   0.651   6.059  3.4910 -1.2674 -2.7339
  508MOL0     H68533   7.406   0.762   5.938 -1.4634 -0.1575 -3.1134
  508MOL0     H68534   7.294   0.483   6.020 -1.3927 -0.0939 -1.5272
  508MOL0     H68535   7.234   0.610   5.907  1.9784  0.6098 -0.6202
  508MOL0     H68536   7.210   0.765   6.086  1.6781  0.2522 -0.3364
  508MOL0     H68537   7.266   0.653   6.217 -1.7239  1.2787  1.3265
  508MOL0     H68538   7.084   0.503   6.181  0.4203  0.1959 -0.0459
  508MOL0     H68539   7.021   0.591   6.044 -1.4984 -1.2221  0.6243
  508MOL0     H68540   6.833   0.496   6.106 -0.4229 -1.5570  0.4354
  508MOL0     H68541   6.626   0.277   6.206  0.5612 -1.1941 -3.0915
  508MOL0     H68542   6.528   0.392   6.119  0.2318  1.5544 -0.7431
  508MOL0     H68543   6.689   0.345   6.068 -1.0562 -0.1852 -1.7131
  508MOL0     H68544   6.435   0.251   6.650  0.9265  0.5209 -1.6319
  508MOL0     H68545   6.217   0.157   6.700 -1.3740 -0.2797 -2.5559
  508MOL0     H68546   5.990   0.125   6.644  0.3104  1.0334 -0.1627
  508MOL0     H68547   5.993   0.136   6.826 -0.2345  1.6293  1.5189
  508MOL0     H68548   5.775   0.050   6.785 -0.4687  1.5613  3.2174
  508MOL0     H68549   5.767   0.225   6.823 -0.5704 -0.8714  0.3230
  508MOL0     H68550   5.731   0.116   6.550 -3.3001  0.6903 -1.8963
  508MOL0     H68551   5.778   0.277   6.589 -0.9598 -0.4475 -0.7128
  508MOL0     H68552   5.560   0.287   6.741 -3.3975 -0.4578 -0.5296
  508MOL0     H68553   5.531   0.270   6.569  0.0855 -0.6872 -0.2234
  508MOL0     H68554   5.553   0.014   6.720  0.5323 -0.5813 -0.8889
  508MOL0     H68555   5.486   0.053   6.561  0.7674  0.3932 -0.4986
  508MOL0     H68556   5.365   0.126   6.839 -0.6669 -0.6028  0.4227
  508MOL0     H68557   5.329   0.207   6.682  0.5794  0.2040 -0.2226
  508MOL0     H68558   5.314  -0.072   6.636  4.2290  1.3124  0.4746
  508MOL0     H68559   5.191   0.049   6.639  0.3942  2.5235  0.6879
  508MOL0     H68560   5.281  -0.078   6.900 -0.3873 -1.6426 -0.9748
  508MOL0     H68561   5.139  -0.127   6.818 -0.9948  1.8325 -1.6297
  508MOL0     H68562   6.026   0.524   6.646 -0.9298 -1.4383  0.9433
  508MOL0     H68563   6.245   0.631   6.592  0.9312 -0.0717 -2.0524
  508MOL0     H68564   6.664   0.654   6.532  2.5237  0.9347  0.7724
  508MOL0     H68565   6.862   0.754   6.448  1.8316 -1.4831  2.6448
  508MOL0     H68566   8.875   0.098   5.481  2.5092 -0.5256 -2.6856
  508MOL0     H68567   9.112   0.141   5.507  1.8320  2.7458 -2.8994
  508MOL0     H68568   9.428   0.397   5.715  1.2267 -1.3452  1.6334
  508MOL0     H68569   9.682   0.409   5.738  1.9896  3.0051 -0.9529
  508MOL0     H68570   9.953   0.349   5.389  2.7376 -0.2901  0.5880
  508MOL0     H68571   9.949   0.536   5.399  1.2186  0.3571  0.6382
  508MOL0     H68572  10.128   0.367   5.586  1.9425 -0.3334 -2.2614
  508MOL0     H68573  10.085   0.541   5.574 -0.1030  1.0748 -2.5399
  508MOL0     H68574  10.209   0.558   5.375 -0.9712 -1.2611 -3.8311
  508MOL0     H68575  10.163   0.398   5.328 -0.2970  0.7764 -0.7618
  508MOL0     H68576  10.415   0.423   5.399 -0.8092  0.4633 -0.9175
  508MOL0     H68577  10.325   0.296   5.471 -0.3847 -0.5624 -1.1295
  508MOL0     H68578  10.423   0.547   5.807  0.8772 -2.0088  0.2797
  508MOL0     H68579   9.729   0.460   5.314 -2.8236  0.9091 -1.8692
  508MOL0     H68580   9.493   0.431   5.288 -0.0590 -0.6710  0.9855
  509MOL0     O68581   9.158   3.896   1.073 -0.0000  0.3251 -0.0468
  509MOL0     C68582   9.247   3.922   1.154  1.6787  0.2673  0.1631
  509MOL0     O68583   9.231   3.936   1.292 -0.3132 -0.2588 -0.1595
  509MOL0     C68584   9.121   3.905   1.369  0.5708  0.1599 -0.4339
  509MOL0     C68585   8.993   3.874   1.325  0.3413 -0.9525 -0.8017
  509MOL0     C68586   8.892   3.843   1.419  0.7834 -1.1134 -0.1779
  509MOL0     C68587   8.913   3.851   1.556  0.0326 -0.5279  0.5578
  509MOL0     O68588   8.818   3.827   1.658  0.6611  0.1645 -0.7555
  509MOL0     C68589   8.697   3.768   1.613 -0.3024 -0.3452  0.8117
  509MOL0     C68590   8.583   3.866   1.601  0.3150  0.0882  0.5582
  509MOL0     C68591   8.457   3.803   1.548  0.6231  0.0533 -0.4291
  509MOL0     C68592   8.341   3.896   1.596 -0.5763 -0.0542  0.3850
  509MOL0     C68593   8.220   3.873   1.511 -0.1523 -0.0155  0.0393
  509MOL0     C68594   8.105   3.955   1.556  0.2499 -0.9879  0.3415
  509MOL0     C68595   8.050   3.944   1.701  0.3816 -0.4234 -0.8787
  509MOL0     C68596   7.982   3.809   1.732  0.7804 -0.3107  0.5225
  509MOL0     N68597   7.872   3.780   1.639 -0.2121 -0.5200 -0.0305
  509MOL0     C68598   7.744   3.826   1.642  0.3203  0.1823  0.0242
  509MOL0     C68599   7.683   3.769   1.537  0.1762 -0.4380  0.1704
  509MOL0     C68600   7.550   3.799   1.487 -0.1725 -0.3877 -0.3260
  509MOL0     C68601   7.441   3.757   1.589  1.3050  0.0151  0.1202
  509MOL0     C68602   7.295   3.792   1.532  0.7644 -0.0071 -0.4262
  509MOL0     C68603   7.182   3.736   1.626  0.1034  1.0528 -0.3462
  509MOL0     O68604   7.066   3.796   1.575  0.3931 -0.2208  0.1530
  509MOL0     C68605   6.948   3.740   1.603  0.8746 -0.2176  0.1496
  509MOL0     C68606   6.845   3.771   1.512  0.0672 -0.5713  0.4300
  509MOL0     C68607   6.711   3.726   1.531 -0.1577  0.0953 -0.7691
  509MOL0     C68608   6.613   3.764   1.423  0.2191 -0.0651 -1.5685
  509MOL0     C68609   6.682   3.654   1.646  0.5346  1.4221 -0.4239
  509MOL0     C68610   6.543   3.605   1.686 -0.3296 -0.1950  1.0701
  509MOL0     O68611   6.448   3.624   1.595  0.4230 -0.9107  0.2240
  509MOL0     C68612   6.317   3.574   1.604 -0.2757 -0.8376 -0.5768
  509MOL0     C68613   6.265   3.463   1.671 -0.0246  0.1614 -0.7405
  509MOL0     C68614   6.123   3.433   1.680 -1.0778 -0.1155 -0.0120
  509MOL0     C68615   6.033   3.518   1.625  0.1475  1.0496  0.0714
  509MOL0     O68616   5.906   3.491   1.654  0.0573 -0.0335 -0.6211
  509MOL0     C68617   5.818   3.508   1.546 -0.0050 -0.1613  0.0209
  509MOL0     C68618   5.705   3.416   1.573  0.7075  0.0947  0.2131
  509MOL0     C68619   5.601   3.472   1.476 -0.1340 -0.1860 -0.6155
  509MOL0     C68620   5.471   3.403   1.498  0.8362  0.3431  0.0433
  509MOL0     C68621   5.353   3.457   1.406 -0.3044 -0.8736 -0.2852
  509MOL0     C68622   5.209   3.428   1.446 -0.1023  0.8904  0.6277
  509MOL0     C68623   5.118   3.517   1.369 -0.9137 -0.3823 -0.1401
  509MOL0     C68624   4.975   3.463   1.353 -0.6514  0.7005  0.3935
  509MOL0    Cl68625   4.987   3.306   1.251  0.0765 -0.2986  0.1949
  509MOL0     C68626   6.079   3.636   1.559 -0.1124  0.9037  0.8316
  509MOL0     C68627   6.222   3.663   1.551  0.3276 -0.3289  0.1191
  509MOL0     O68628   6.525   3.544   1.790 -0.5418  0.2796 -0.2004
  509MOL0     C68629   6.788   3.618   1.735  0.2402 -0.2789  0.2032
  509MOL0     C68630   6.915   3.662   1.716 -0.3556 -0.3853  0.0724
  509MOL0     N68631   7.778   3.694   1.475 -0.5136  0.4622 -0.3377
  509MOL0     N68632   7.886   3.701   1.535  0.2657  0.1250 -0.0093
  509MOL0     C68633   9.045   3.881   1.599  0.3630 -0.0679  0.4150
  509MOL0     C68634   9.143   3.910   1.502 -0.3030  0.3821  0.3200
  509MOL0     C68635   9.382   3.943   1.090  0.3994  0.1371 -0.3189
  509MOL0     C68636   9.406   3.910   0.956 -0.0696  0.3676 -0.0385
  509MOL0     C68637   9.523   3.938   0.896 -0.0517  0.1566  1.0119
  509MOL0     C68638   9.618   3.999   0.971 -0.7704  0.6531 -0.2830
  509MOL0     O68639   9.746   4.030   0.924  0.3362 -0.2404  0.1767
  509MOL0     C68640   9.795   3.963   0.807 -0.6590  0.0666  0.3127
  509MOL0     C68641   9.943   3.946   0.812 -0.8544 -0.2361  0.1759
  509MOL0     C68642  10.011   4.085   0.817  0.6185  0.0792 -0.3590
  509MOL0     C68643  10.052   4.148   0.954  0.9529  0.7784  0.6496
  509MOL0     C68644  10.111   4.060   1.051 -0.2666  0.6582  1.0062
  509MOL0     C68645  10.156   3.974   1.125 -0.3261  0.3418  0.0051
  509MOL0     C68646   9.602   4.038   1.103 -0.1182  0.7710 -0.8473
  509MOL0     C68647   9.485   3.999   1.169  0.0673  0.6849  0.0329
  509MOL0     H68648   8.976   3.882   1.218 -0.6237  2.5336 -0.4971
  509MOL0     H68649   8.790   3.826   1.386  1.0966 -1.0091 -1.2438
  509MOL0     H68650   8.705   3.706   1.523 -3.2767  0.1244  0.0893
  509MOL0     H68651   8.670   3.704   1.698  1.7870  0.0479  1.8350
  509MOL0     H68652   8.562   3.916   1.696 -2.0250  0.2474  0.0309
  509MOL0     H68653   8.611   3.956   1.546 -0.2099  1.4110  2.3651
  509MOL0     H68654   8.463   3.801   1.439 -0.7402 -0.8904 -0.5096
  509MOL0     H68655   8.442   3.702   1.588 -0.9256  0.7167  0.7857
  509MOL0     H68656   8.324   3.883   1.703 -3.2841 -0.8586 -0.0608
  509MOL0     H68657   8.379   3.995   1.570 -0.4650 -0.3085 -0.4478
  509MOL0     H68658   8.240   3.898   1.406 -2.1920  0.5802 -0.2496
  509MOL0     H68659   8.194   3.766   1.511  1.1922 -0.3873 -1.4410
  509MOL0     H68660   8.140   4.055   1.530 -0.0846 -0.2909  2.3515
  509MOL0     H68661   8.014   3.950   1.494 -2.2088 -0.5485  3.6190
  509MOL0     H68662   8.133   3.950   1.772 -0.2984 -2.0359  0.1115
  509MOL0     H68663   7.976   4.021   1.727  0.5545 -0.8174  0.9235
  509MOL0     H68664   7.957   3.801   1.839 -1.0321 -0.1292  0.1358
  509MOL0     H68665   8.058   3.730   1.724  1.1915  0.1798 -0.5545
  509MOL0     H68666   7.700   3.893   1.715  2.4173  2.5249 -0.7292
  509MOL0     H68667   7.563   3.906   1.468  0.3907 -0.5849 -1.0840
  509MOL0     H68668   7.521   3.755   1.391 -3.3467  0.8879 -0.0804
  509MOL0     H68669   7.453   3.805   1.686  0.0135  2.2434 -0.7346
  509MOL0     H68670   7.452   3.650   1.608  1.1664 -0.1584 -0.7188
  509MOL0     H68671   7.285   3.747   1.433  0.1501 -0.3732 -0.2048
  509MOL0     H68672   7.285   3.900   1.519 -1.7173 -0.0614  0.4359
  509MOL0     H68673   7.198   3.764   1.730  2.1519  1.5833 -0.7612
  509MOL0     H68674   7.187   3.629   1.605  2.5786  1.3809 -1.8727
  509MOL0     H68675   6.870   3.834   1.428  3.0742 -0.2167  1.4713
  509MOL0     H68676   6.577   3.670   1.380 -1.8627 -1.3241  2.3944
  509MOL0     H68677   6.527   3.822   1.458  1.2050 -0.4848  1.9627
  509MOL0     H68678   6.661   3.816   1.340 -0.1483  1.2302 -1.0073
  509MOL0     H68679   6.330   3.394   1.724 -1.1480 -0.5112 -0.2061
  509MOL0     H68680   6.090   3.346   1.736  1.2948 -2.1100 -1.4972
  509MOL0     H68681   5.784   3.612   1.541 -0.2158 -0.2850 -2.1067
  509MOL0     H68682   5.863   3.471   1.454 -0.6451 -2.0513  0.4241
  509MOL0     H68683   5.726   3.310   1.555  0.2505 -0.2166  1.4046
  509MOL0     H68684   5.666   3.415   1.675  2.7102 -3.0116  1.0839
  509MOL0     H68685   5.632   3.471   1.371  0.2822  5.7783 -0.8765
  509MOL0     H68686   5.593   3.576   1.508  0.9149 -0.5330  0.8919
  509MOL0     H68687   5.487   3.300   1.465  1.5244  0.6457 -0.6075
  509MOL0     H68688   5.434   3.407   1.600  0.2907 -1.4806 -0.0522
  509MOL0     H68689   5.373   3.425   1.303 -1.4241  1.5569 -1.3545
  509MOL0     H68690   5.378   3.564   1.407  3.1750 -1.4613 -2.8659
  509MOL0     H68691   5.207   3.324   1.411 -1.8932  1.9352 -2.8085
  509MOL0     H68692   5.194   3.437   1.554 -3.9426  1.2100  0.2206
  509MOL0     H68693   5.150   3.547   1.269 -0.0861 -2.6959 -0.6227
  509MOL0     H68694   5.113   3.615   1.417 -0.6374 -1.0408  1.2934
  509MOL0     H68695   4.919   3.536   1.294  0.0384 -0.0318 -1.2327
  509MOL0     H68696   4.935   3.447   1.454 -2.0519  0.5623 -0.1580
  509MOL0     H68697   6.004   3.703   1.519  0.3198  0.7751 -0.2206
  509MOL0     H68698   6.252   3.752   1.496 -0.3820 -0.5000 -0.5689
  509MOL0     H68699   6.781   3.565   1.829  0.1671  1.6919  1.3587
  509MOL0     H68700   6.986   3.646   1.797 -0.8273  1.3163  0.8714
  509MOL0     H68701   9.074   3.885   1.704 -2.1856  2.3001  1.1355
  509MOL0     H68702   9.239   3.950   1.535  0.3916 -0.9506 -0.0345
  509MOL0     H68703   9.327   3.868   0.894  0.6132  0.0492 -0.7154
  509MOL0     H68704   9.548   3.906   0.795 -1.8034  2.2181 -0.1819
  509MOL0     H68705   9.757   3.860   0.796 -1.7864  0.6069 -1.0874
  509MOL0     H68706   9.766   4.030   0.727  0.7520  2.6247  1.8155
  509MOL0     H68707   9.967   3.894   0.718  1.1162  1.0598 -0.1049
  509MOL0     H68708   9.985   3.890   0.896 -2.1179 -0.8360  0.4349
  509MOL0     H68709   9.963   4.169   0.766  2.9823  1.4640 -0.4676
  509MOL0     H68710  10.105   4.072   0.762  1.4392 -2.1045  1.4052
  509MOL0     H68711   9.961   4.193   0.994  2.3573  2.1090  2.5022
  509MOL0     H68712  10.130   4.223   0.933  1.0841  0.6493  0.6738
  509MOL0     H68713  10.186   3.912   1.207  1.4115  1.6267  0.4157
  509MOL0     H68714   9.678   4.089   1.161 -0.5552  1.6670 -1.0574
  509MOL0     H68715   9.481   4.013   1.277  1.0229 -1.1191  0.3470
  510MOL0     O68716   1.527   2.468   6.589 -0.3293 -0.4308 -0.3934
  510MOL0     C68717   1.589   2.544   6.668  0.0181  0.3876 -0.3098
  510MOL0     O68718   1.546   2.665   6.707  0.7948  0.1635  0.2654
  510MOL0     C68719   1.421   2.717   6.658 -0.0021 -0.1204 -0.5370
  510MOL0     C68720   1.304   2.647   6.680  0.1574  0.4173 -0.2974
  510MOL0     C68721   1.180   2.692   6.634 -0.2307  0.8032  0.1394
  510MOL0     C68722   1.166   2.816   6.570  0.1133 -0.1606  0.3727
  510MOL0     O68723   1.036   2.854   6.526 -0.0248  0.2292 -0.4022
  510MOL0     C68724   1.019   2.869   6.390  0.3710  0.5366  0.3428
  510MOL0     C68725   0.868   2.858   6.333  0.3128 -0.0165  0.0012
  510MOL0     C68726   0.751   2.864   6.445  0.4705  0.2242  0.2535
  510MOL0     C68727   0.717   3.009   6.483  0.3419 -0.1402 -0.0297
  510MOL0     C68728   0.593   3.030   6.580 -0.8602 -0.7576  0.2876
  510MOL0     C68729   0.619   2.985   6.725  1.1765  0.4342  0.5971
  510MOL0     C68730   0.724   3.067   6.801 -0.7013 -0.5797  0.3061
  510MOL0     C68731   0.726   3.015   6.949 -0.0026 -0.1302  0.3442
  510MOL0     N68732   0.808   2.895   6.967  0.0903  0.2169 -0.6693
  510MOL0     C68733   0.943   2.873   6.945 -0.3745 -0.2329 -0.6602
  510MOL0     C68734   0.965   2.761   7.020 -0.3166 -0.5699 -1.1493
  510MOL0     C68735   1.100   2.708   7.029  0.2198 -0.4258  0.2015
  510MOL0     C68736   1.179   2.790   7.134 -0.3326  0.6851  0.4093
  510MOL0     C68737   1.132   2.770   7.276  0.1385  0.0628  0.2016
  510MOL0     C68738   1.104   2.625   7.314 -0.1440  0.2085  0.7688
  510MOL0     O68739   1.065   2.605   7.447 -0.2710  0.2944 -0.2873
  510MOL0     C68740   0.927   2.621   7.465 -0.9485  0.1816 -1.0373
  510MOL0     C68741   0.872   2.737   7.490 -0.5665 -0.6589 -0.3133
  510MOL0     C68742   0.737   2.764   7.510  0.4809  0.0825 -0.5399
  510MOL0     C68743   0.699   2.909   7.519 -0.0287 -0.4943 -0.1538
  510MOL0     C68744   0.644   2.652   7.496  0.2711 -0.2144 -0.5075
  510MOL0     C68745   0.496   2.661   7.512 -0.1742 -0.4726 -0.3420
  510MOL0     O68746   0.423   2.550   7.528 -0.0157 -0.0646 -0.5328
  510MOL0     C68747   0.286   2.560   7.543  0.2151 -0.2754  0.0786
  510MOL0     C68748   0.208   2.564   7.427 -0.4923 -0.1740  0.1220
  510MOL0     C68749   0.065   2.570   7.432  0.4258 -0.1241  0.3875
  510MOL0     C68750   0.005   2.593   7.548  0.3875  0.5104 -0.5572
  510MOL0     O68751  -0.135   2.626   7.569 -0.5307 -0.1138  0.9426
  510MOL0     C68752  -0.217   2.574   7.469  0.3383  0.1245  0.7361
  510MOL0     C68753  -0.357   2.582   7.518 -0.2322  0.5911  0.6459
  510MOL0     C68754  -0.415   2.454   7.583 -0.3315  0.4545  0.5086
  510MOL0     C68755  -0.570   2.443   7.573 -0.6046 -0.4236  0.4042
  510MOL0     C68756  -0.596   2.308   7.630 -0.6587  0.9084 -0.7565
  510MOL0     C68757  -0.743   2.273   7.624  0.6422  0.8378 -0.4091
  510MOL0     C68758  -0.785   2.126   7.661  0.4201  0.0303 -0.1966
  510MOL0     C68759  -0.928   2.103   7.627  1.2689 -0.5967  0.0482
  510MOL0    Cl68760  -0.971   1.946   7.699 -0.0156 -0.1105 -0.1560
  510MOL0     C68761   0.079   2.596   7.669 -0.1441 -0.6415 -0.9325
  510MOL0     C68762   0.220   2.581   7.667  0.2340 -1.1292  0.1113
  510MOL0     O68763   0.445   2.771   7.513 -0.4771  0.1234 -0.3992
  510MOL0     C68764   0.697   2.528   7.467  0.4251 -0.1470  0.0037
  510MOL0     C68765   0.834   2.513   7.449 -0.1210  0.4030 -1.1287
  510MOL0     N68766   0.854   2.697   7.066 -0.6396  0.4310  0.7019
  510MOL0     N68767   0.765   2.786   7.044 -0.4227  0.1404  0.3043
  510MOL0     C68768   1.280   2.882   6.543  0.1221  0.4621 -1.1323
  510MOL0     C68769   1.406   2.830   6.577 -0.8187 -0.0549  0.5947
  510MOL0     C68770   1.725   2.500   6.698 -0.1184  0.4335 -0.9125
  510MOL0     C68771   1.756   2.364   6.708 -0.5749  0.0637 -0.0536
  510MOL0     C68772   1.889   2.327   6.730  0.0696 -0.3386 -0.7929
  510MOL0     C68773   1.987   2.422   6.758 -0.0598 -0.2453 -0.2000
  510MOL0     O68774   2.112   2.387   6.792 -0.1814 -0.5525  0.2429
  510MOL0     C68775   2.210   2.407   6.688  0.6202 -0.7361 -0.8951
  510MOL0     C68776   2.220   2.289   6.589 -0.0889  0.1500 -0.6712
  510MOL0     C68777   2.274   2.339   6.455  0.1762 -0.6129  0.5299
  510MOL0     C68778   2.425   2.349   6.441  0.5952  0.2042  0.6036
  510MOL0     C68779   2.478   2.466   6.517 -0.2025  0.1965 -0.1791
  510MOL0     C68780   2.534   2.558   6.574  0.2759 -0.7080 -0.1524
  510MOL0     C68781   1.958   2.560   6.767  0.3096  0.3002  0.2928
  510MOL0     C68782   1.828   2.593   6.727 -0.4696 -0.3807 -0.1147
  510MOL0     H68783   1.308   2.552   6.733 -0.6040 -0.7366 -2.2323
  510MOL0     H68784   1.087   2.638   6.652 -0.8957  2.0398  0.5446
  510MOL0     H68785   1.051   2.970   6.362  2.7414  0.0690  1.1624
  510MOL0     H68786   1.067   2.793   6.327 -2.1696 -0.0159 -1.0469
  510MOL0     H68787   0.855   2.939   6.261 -0.4378  1.0162  1.2602
  510MOL0     H68788   0.847   2.762   6.285  0.3149 -0.8897  1.6820
  510MOL0     H68789   0.666   2.809   6.405  1.3951 -0.0360 -1.4669
  510MOL0     H68790   0.785   2.812   6.535 -1.3039  2.5644  2.3946
  510MOL0     H68791   0.801   3.067   6.520  0.0717  0.1355  0.1539
  510MOL0     H68792   0.689   3.056   6.388  0.2321  1.3738  0.7321
  510MOL0     H68793   0.573   3.137   6.578 -1.8023 -0.9338  0.0698
  510MOL0     H68794   0.505   2.985   6.534 -0.4377  0.2745 -1.6966
  510MOL0     H68795   0.528   2.985   6.786  1.0183 -2.2300  0.4706
  510MOL0     H68796   0.666   2.887   6.713  0.1782  0.1062 -1.0318
  510MOL0     H68797   0.824   3.061   6.758 -1.5311 -1.9144 -1.5579
  510MOL0     H68798   0.704   3.174   6.793  0.4107 -0.3750  0.1570
  510MOL0     H68799   0.624   2.996   6.982 -0.1709 -0.7076 -0.4969
  510MOL0     H68800   0.768   3.089   7.018 -2.1594  0.0779  1.5145
  510MOL0     H68801   1.006   2.938   6.885  2.1521 -0.4823  1.5429
  510MOL0     H68802   1.093   2.601   7.054 -2.8208 -0.7409 -1.6019
  510MOL0     H68803   1.156   2.726   6.936 -2.9986  2.5246 -1.3705
  510MOL0     H68804   1.160   2.897   7.118 -0.3453  0.9331  1.9314
  510MOL0     H68805   1.283   2.765   7.114 -0.7868 -0.8510 -0.1812
  510MOL0     H68806   1.052   2.842   7.296  1.9703  1.5947  2.7470
  510MOL0     H68807   1.207   2.806   7.348  0.6228 -0.9566  0.2163
  510MOL0     H68808   1.182   2.554   7.285 -1.7585 -2.0462  1.5872
  510MOL0     H68809   1.022   2.594   7.249  1.3218 -1.1868 -0.4790
  510MOL0     H68810   0.943   2.819   7.499 -2.2771  0.9925 -1.0823
  510MOL0     H68811   0.641   2.935   7.608  2.1305  0.4180  1.0857
  510MOL0     H68812   0.796   2.960   7.518 -0.7259  0.9408  1.4725
  510MOL0     H68813   0.648   2.943   7.428  0.1047  0.3082  0.0602
  510MOL0     H68814   0.256   2.548   7.331 -0.9259  1.8259 -0.4752
  510MOL0     H68815   0.018   2.571   7.334 -1.4196  0.7845  1.2462
  510MOL0     H68816  -0.204   2.644   7.386  0.6650  3.0095  3.0329
  510MOL0     H68817  -0.197   2.472   7.435  1.0531 -0.7629  3.5072
  510MOL0     H68818  -0.368   2.671   7.581  1.3856  0.7164  0.7939
  510MOL0     H68819  -0.417   2.591   7.427 -0.6431 -1.9723  0.5814
  510MOL0     H68820  -0.371   2.442   7.682 -0.1180  1.0446  0.4899
  510MOL0     H68821  -0.370   2.373   7.525 -0.1767  1.0204 -0.1828
  510MOL0     H68822  -0.626   2.525   7.618  0.4784  1.8549 -2.0768
  510MOL0     H68823  -0.589   2.451   7.465  2.5737 -0.8892 -0.3116
  510MOL0     H68824  -0.572   2.301   7.736  0.8904 -1.5669 -1.1970
  510MOL0     H68825  -0.537   2.240   7.568 -4.0281 -2.2337 -0.8932
  510MOL0     H68826  -0.782   2.338   7.703 -0.6545  0.6427 -0.8652
  510MOL0     H68827  -0.779   2.303   7.524  2.0388 -0.9997 -1.5230
  510MOL0     H68828  -0.777   2.117   7.769 -1.1079  0.6140 -0.0083
  510MOL0     H68829  -0.725   2.049   7.612 -0.4746  0.2793 -1.7864
  510MOL0     H68830  -0.948   2.098   7.519 -0.8961  0.8215  0.3266
  510MOL0     H68831  -0.998   2.175   7.669  0.6121 -2.3561  2.1560
  510MOL0     H68832   0.031   2.628   7.761  0.9860  2.3393 -1.2457
  510MOL0     H68833   0.276   2.600   7.758 -1.3056  0.2864  0.8010
  510MOL0     H68834   0.638   2.437   7.457 -2.3905  1.5992 -0.5945
  510MOL0     H68835   0.876   2.415   7.427  1.1524  0.6113  0.1738
  510MOL0     H68836   1.262   2.968   6.479 -0.0144 -1.3750 -3.7442
  510MOL0     H68837   1.492   2.889   6.546  0.5293 -1.7904  0.8082
  510MOL0     H68838   1.679   2.289   6.698 -2.2985  1.5944  1.0280
  510MOL0     H68839   1.921   2.223   6.736  2.0483  0.2236 -1.0505
  510MOL0     H68840   2.180   2.496   6.631  1.9446 -0.6202 -1.4452
  510MOL0     H68841   2.305   2.428   6.737 -0.8337  3.8580  0.4619
  510MOL0     H68842   2.123   2.244   6.567 -0.9749  0.7406  1.7604
  510MOL0     H68843   2.284   2.213   6.634 -0.8501 -1.5187 -2.2545
  510MOL0     H68844   2.227   2.437   6.439  0.9558 -0.0304  1.6518
  510MOL0     H68845   2.239   2.272   6.377 -0.8196  0.9588 -0.4441
  510MOL0     H68846   2.468   2.348   6.341  2.6910 -3.0528  1.3846
  510MOL0     H68847   2.468   2.259   6.485  0.1147 -0.0170  0.6302
  510MOL0     H68848   2.579   2.648   6.610  1.0951  0.8855 -4.4613
  510MOL0     H68849   2.041   2.629   6.780  0.7859 -0.2239  0.1035
  510MOL0     H68850   1.805   2.698   6.713  2.0860 -0.1387 -4.4394
  511MOL0     O68851   7.548   1.036   3.491  0.4847 -0.3884 -0.3998
  511MOL0     C68852   7.578   0.979   3.391  0.3130  0.0059 -0.0822
  511MOL0     O68853   7.494   0.965   3.281  0.7927 -0.0630  0.2630
  511MOL0     C68854   7.362   1.009   3.290 -0.8029 -0.0808 -0.4936
  511MOL0     C68855   7.270   0.963   3.380  0.4751  0.3693  0.0612
  511MOL0     C68856   7.135   1.006   3.385  0.5494  0.0238 -0.5954
  511MOL0     C68857   7.088   1.092   3.292  0.6237  0.2855 -0.0146
  511MOL0     O68858   6.963   1.135   3.320 -0.1716  0.1546  0.6758
  511MOL0     C68859   6.923   1.263   3.278  0.1957 -0.2538  1.0868
  511MOL0     C68860   6.802   1.306   3.363 -0.2914  0.4262  0.4860
  511MOL0     C68861   6.687   1.213   3.323  0.2031 -0.4951 -0.2141
  511MOL0     C68862   6.579   1.212   3.435 -0.5500 -1.1133  0.0556
  511MOL0     C68863   6.456   1.157   3.377  0.5617  0.3823  0.6037
  511MOL0     C68864   6.350   1.148   3.498  0.6901  0.0442 -0.5791
  511MOL0     C68865   6.215   1.079   3.446 -0.5030  0.5251 -0.1313
  511MOL0     C68866   6.089   1.123   3.528 -0.7560  0.7660 -0.4398
  511MOL0     N68867   6.027   1.242   3.470  0.9737  0.3475 -0.1762
  511MOL0     C68868   5.894   1.241   3.444  0.0082 -0.7331 -0.8390
  511MOL0     C68869   5.872   1.373   3.420  0.1297  0.5136  0.6554
  511MOL0     C68870   5.749   1.444   3.359  0.2114  0.0647 -0.3291
  511MOL0     C68871   5.617   1.393   3.422 -0.0697 -0.3171 -0.1331
  511MOL0     C68872   5.609   1.406   3.581 -0.6785 -0.5803 -0.0251
  511MOL0     C68873   5.459   1.433   3.622 -1.3803  0.6028  0.5449
  511MOL0     O68874   5.385   1.323   3.571 -0.2416  0.2296 -0.1793
  511MOL0     C68875   5.250   1.333   3.554  0.3877 -0.6500  0.3531
  511MOL0     C68876   5.186   1.234   3.470 -0.7093 -0.4356 -0.0559
  511MOL0     C68877   5.043   1.252   3.434 -1.0216  0.6600  0.6494
  511MOL0     C68878   4.966   1.153   3.340 -0.7535 -0.0738 -0.0973
  511MOL0     C68879   4.970   1.355   3.495 -0.1951 -0.1654  0.8677
  511MOL0     C68880   4.826   1.377   3.484 -0.1301 -0.3307 -1.0804
  511MOL0     O68881   4.773   1.416   3.372 -0.4462 -0.5279  0.1871
  511MOL0     C68882   4.637   1.417   3.356 -0.2658  0.3605 -0.2373
  511MOL0     C68883   4.561   1.296   3.355 -0.1192  0.5087 -0.2761
  511MOL0     C68884   4.418   1.301   3.327 -0.7365  0.3368  0.0740
  511MOL0     C68885   4.355   1.424   3.290 -0.9627  0.6513  0.5242
  511MOL0     O68886   4.227   1.439   3.244  0.8900 -0.0878 -0.0248
  511MOL0     C68887   4.139   1.334   3.286  0.6879  0.1602  0.1766
  511MOL0     C68888   4.000   1.364   3.238  0.0969 -0.6617  0.3698
  511MOL0     C68889   3.943   1.498   3.278 -0.0224 -0.3713 -0.4843
  511MOL0     C68890   3.923   1.517   3.433  0.0496  0.8504  0.9589
  511MOL0     C68891   3.858   1.394   3.497  0.5456 -0.3475  0.8342
  511MOL0     C68892   3.838   1.408   3.652  0.1278 -0.8519  0.2651
  511MOL0     C68893   3.956   1.347   3.727 -0.1376 -0.2935  0.5800
  511MOL0     C68894   3.945   1.326   3.883  0.3027 -0.9749 -0.2463
  511MOL0    Cl68895   3.918   1.476   3.973  0.0864  0.0528  0.2691
  511MOL0     C68896   4.441   1.532   3.262 -0.0685 -0.0588  0.2610
  511MOL0     C68897   4.578   1.534   3.300 -0.3652  0.7673  0.9797
  511MOL0     O68898   4.763   1.367   3.593 -0.2021  0.2301 -0.1866
  511MOL0     C68899   5.031   1.451   3.570  0.4115 -0.2292 -0.2276
  511MOL0     C68900   5.165   1.437   3.606 -0.2161  0.1840  0.7062
  511MOL0     N68901   5.991   1.445   3.439 -0.3162  0.0844 -0.1966
  511MOL0     N68902   6.084   1.360   3.457 -0.5436  0.3947  0.1376
  511MOL0     C68903   7.173   1.140   3.194  0.9450  0.5958 -0.2725
  511MOL0     C68904   7.307   1.098   3.192  0.2590 -0.0894 -0.2497
  511MOL0     C68905   7.717   0.927   3.370 -0.6464 -0.0040 -0.2217
  511MOL0     C68906   7.744   0.842   3.261  0.1287  0.0718  0.1392
  511MOL0     C68907   7.868   0.779   3.254  0.0867 -1.1395  0.1315
  511MOL0     C68908   7.972   0.804   3.343 -0.2661 -0.8093  0.1943
  511MOL0     O68909   8.067   0.706   3.345  0.0240 -0.8059 -0.2006
  511MOL0     C68910   8.200   0.731   3.383  0.5566  0.4013  0.7743
  511MOL0     C68911   8.223   0.675   3.520 -0.0761  0.2875 -0.1946
  511MOL0     C68912   8.265   0.526   3.528  0.1247 -0.0348 -0.3722
  511MOL0     C68913   8.265   0.485   3.675 -0.5111 -0.0360 -0.0112
  511MOL0     C68914   8.186   0.362   3.691 -0.1471 -0.3852  0.5268
  511MOL0     C68915   8.106   0.277   3.703  0.0417  0.8838  0.1515
  511MOL0     C68916   7.953   0.900   3.448  0.6943  0.0979 -0.0324
  511MOL0     C68917   7.825   0.958   3.463 -0.0367  0.0816  0.2503
  511MOL0     H68918   7.309   0.884   3.444  0.0912 -1.3492 -1.7241
  511MOL0     H68919   7.077   0.981   3.473  2.7093 -4.1345 -0.0738
  511MOL0     H68920   7.010   1.328   3.288  2.1216 -2.4620 -0.3393
  511MOL0     H68921   6.903   1.269   3.170 -0.1460  1.8621  1.2203
  511MOL0     H68922   6.831   1.300   3.468  0.6872 -0.7065  0.1751
  511MOL0     H68923   6.785   1.413   3.350  0.4315  0.5646  0.6536
  511MOL0     H68924   6.643   1.255   3.233  3.2179  1.3938 -0.9335
  511MOL0     H68925   6.714   1.107   3.316 -0.8383 -0.8325  0.5225
  511MOL0     H68926   6.620   1.149   3.515 -0.9923  1.6589  2.6775
  511MOL0     H68927   6.559   1.306   3.487  1.7246 -0.7890  0.4700
  511MOL0     H68928   6.411   1.220   3.300 -1.7012 -2.0488 -0.2193
  511MOL0     H68929   6.461   1.056   3.337  0.8883  0.4615  0.4453
  511MOL0     H68930   6.382   1.093   3.587 -4.4591 -2.9036 -0.1508
  511MOL0     H68931   6.333   1.249   3.535 -0.5087 -0.5498  0.5404
  511MOL0     H68932   6.185   1.084   3.341 -3.8527  0.2967  0.7050
  511MOL0     H68933   6.228   0.971   3.454 -1.6140  0.1433 -2.6838
  511MOL0     H68934   6.135   1.151   3.623  5.4113 -1.1732 -2.3550
  511MOL0     H68935   6.015   1.045   3.544 -0.3800  0.5372  0.2608
  511MOL0     H68936   5.818   1.164   3.445 -0.3635 -0.4646  2.3426
  511MOL0     H68937   5.757   1.552   3.369  2.2315 -0.1882  1.7207
  511MOL0     H68938   5.742   1.419   3.252 -1.0600 -3.2475  0.4015
  511MOL0     H68939   5.593   1.287   3.408  0.8062 -0.6942  1.0838
  511MOL0     H68940   5.540   1.454   3.374  1.4028  4.0065  2.4463
  511MOL0     H68941   5.661   1.501   3.600 -1.4457  0.5993 -3.1806
  511MOL0     H68942   5.651   1.317   3.629  2.9098  1.0331  0.1915
  511MOL0     H68943   5.418   1.523   3.575  0.2625  0.2581 -1.7234
  511MOL0     H68944   5.448   1.436   3.731  0.2438 -1.1675  0.8139
  511MOL0     H68945   5.241   1.146   3.440 -2.8177 -1.7914 -0.1296
  511MOL0     H68946   4.921   1.209   3.257 -0.3773 -2.0055 -1.6583
  511MOL0     H68947   5.035   1.074   3.312 -2.0913 -2.1874  2.1330
  511MOL0     H68948   4.888   1.108   3.402  0.7518 -0.7717  1.3658
  511MOL0     H68949   4.601   1.206   3.401  1.2927  1.9795  1.5127
  511MOL0     H68950   4.364   1.207   3.332  0.8486 -0.6251 -0.2543
  511MOL0     H68951   4.158   1.234   3.246 -1.8834 -0.8364  1.2573
  511MOL0     H68952   4.149   1.330   3.395 -1.5002 -1.2989  0.3752
  511MOL0     H68953   4.006   1.368   3.129 -1.9613  0.9267  0.2423
  511MOL0     H68954   3.924   1.288   3.260  0.7400 -1.6144 -0.6267
  511MOL0     H68955   3.851   1.503   3.218  0.4067 -1.1686 -1.2277
  511MOL0     H68956   4.006   1.575   3.232  1.9899 -3.3854 -3.1857
  511MOL0     H68957   4.024   1.520   3.474  1.3797 -1.9736 -1.6807
  511MOL0     H68958   3.873   1.606   3.472 -1.6568 -0.7783  2.7034
  511MOL0     H68959   3.909   1.298   3.484 -1.1413 -1.2561  0.7256
  511MOL0     H68960   3.759   1.378   3.454  1.1825  0.8402 -1.2172
  511MOL0     H68961   3.846   1.510   3.692  2.0675 -0.2353 -1.4696
  511MOL0     H68962   3.740   1.371   3.681 -2.2530 -0.1778 -5.5360
  511MOL0     H68963   4.039   1.415   3.709 -0.7130 -0.1685 -2.0046
  511MOL0     H68964   3.974   1.251   3.677  0.1381 -0.0934  0.2985
  511MOL0     H68965   4.035   1.272   3.916  0.9726 -0.5340 -1.3052
  511MOL0     H68966   3.860   1.261   3.905 -1.3824  1.1754 -0.1663
  511MOL0     H68967   4.388   1.620   3.229 -0.8314  0.0887  1.7989
  511MOL0     H68968   4.632   1.627   3.284 -0.9049  0.7668 -1.0816
  511MOL0     H68969   4.971   1.521   3.626 -0.7037 -1.9090  0.7843
  511MOL0     H68970   5.203   1.509   3.678  0.8596 -2.4602  3.0003
  511MOL0     H68971   7.143   1.219   3.126  1.0034  1.4273  0.6422
  511MOL0     H68972   7.376   1.126   3.114  1.0945 -1.9552 -0.2174
  511MOL0     H68973   7.657   0.821   3.200  2.7545  0.0802 -3.9700
  511MOL0     H68974   7.890   0.710   3.173 -0.6515 -1.6398  0.3406
  511MOL0     H68975   8.277   0.698   3.313  1.0189 -1.2468  1.9960
  511MOL0     H68976   8.212   0.839   3.396  1.0758  0.7715 -2.1474
  511MOL0     H68977   8.140   0.699   3.586  1.1239  3.7599  0.2738
  511MOL0     H68978   8.298   0.732   3.576  0.4673  0.3590 -0.9780
  511MOL0     H68979   8.362   0.497   3.487  1.7673  2.6530  1.3278
  511MOL0     H68980   8.182   0.474   3.479  0.0523 -0.8095  0.5383
  511MOL0     H68981   8.226   0.560   3.744  2.6842 -0.8322  2.9428
  511MOL0     H68982   8.371   0.467   3.697 -0.6239 -1.9557 -0.8409
  511MOL0     H68983   8.042   0.192   3.716 -0.5554  1.2059 -0.6130
  511MOL0     H68984   8.036   0.915   3.517  1.3346 -2.4781 -0.1297
  511MOL0     H68985   7.806   1.014   3.555 -0.0613 -2.3461  1.8293
  512MOL0     O68986   2.327   5.165   3.796 -0.2332 -0.0389 -0.8525
  512MOL0     C68987   2.255   5.064   3.802  0.6496 -0.1022 -0.3355
  512MOL0     O68988   2.123   5.057   3.816 -0.3222  0.8717  0.0108
  512MOL0     C68989   2.038   5.167   3.827 -0.6888 -0.0727  0.8415
  512MOL0     C68990   2.069   5.299   3.788  0.4821  0.1222 -0.3093
  512MOL0     C68991   1.975   5.394   3.805  0.0287  0.9726  0.3864
  512MOL0     C68992   1.841   5.368   3.846 -0.0122 -1.0608  0.0990
  512MOL0     O68993   1.749   5.470   3.827  0.0713 -0.3580  1.0455
  512MOL0     C68994   1.609   5.452   3.850  0.2160  0.3820 -0.6202
  512MOL0     C68995   1.550   5.382   3.730  0.6885 -0.3667 -0.0169
  512MOL0     C68996   1.398   5.410   3.723  0.8645  0.4594 -0.6070
  512MOL0     C68997   1.344   5.322   3.601 -0.2182  0.7002  0.0241
  512MOL0     C68998   1.198   5.335   3.619 -0.5575  0.2457 -0.0641
  512MOL0     C68999   1.120   5.253   3.507 -0.0014 -0.7569  0.1571
  512MOL0     C69000   1.142   5.109   3.506  0.0422 -0.0364 -0.6727
  512MOL0     C69001   1.091   5.033   3.390  0.4575 -0.6028  0.5311
  512MOL0     N69002   0.945   5.035   3.409  0.0561 -0.6328 -0.6023
  512MOL0     C69003   0.879   4.932   3.468 -0.1751  0.0125  0.4753
  512MOL0     C69004   0.748   4.946   3.428 -0.2198  0.0957  0.8516
  512MOL0     C69005   0.644   4.857   3.490  0.7087 -0.2376 -0.5955
  512MOL0     C69006   0.500   4.896   3.446  0.1351  0.0566  1.0282
  512MOL0     C69007   0.385   4.859   3.542 -0.1549 -0.7114 -0.8271
  512MOL0     C69008   0.363   4.711   3.579  0.5733  0.1774  0.4350
  512MOL0     O69009   0.331   4.650   3.449  0.4360  0.6505  0.1579
  512MOL0     C69010   0.210   4.663   3.400  0.2220  0.5730  0.8412
  512MOL0     C69011   0.185   4.611   3.272  0.6037 -0.2158  0.5563
  512MOL0     C69012   0.066   4.611   3.206 -0.4073  0.2293 -0.2736
  512MOL0     C69013   0.059   4.560   3.064  0.2494  0.6319  0.2474
  512MOL0     C69014  -0.047   4.667   3.275  0.4238 -1.2775  0.5495
  512MOL0     C69015  -0.190   4.661   3.221 -0.8781 -0.5562  0.1823
  512MOL0     O69016  -0.271   4.767   3.258  0.6226 -0.1665 -0.4466
  512MOL0     C69017  -0.397   4.771   3.213  0.3318  0.6547  0.4898
  512MOL0     C69018  -0.495   4.667   3.223 -0.1568  0.2533 -0.2027
  512MOL0     C69019  -0.618   4.687   3.158  0.1508 -0.7055 -0.6814
  512MOL0     C69020  -0.644   4.807   3.087  0.9259  1.2303  0.2277
  512MOL0     O69021  -0.756   4.826   3.017 -0.5995 -0.0275  0.0482
  512MOL0     C69022  -0.867   4.732   3.026 -0.5039  0.4818 -0.3415
  512MOL0     C69023  -0.994   4.805   2.983  0.0344  0.6316 -0.2594
  512MOL0     C69024  -1.117   4.724   2.987 -1.1250 -0.0977 -0.4873
  512MOL0     C69025  -1.221   4.810   2.925  0.9265  0.1624  0.0455
  512MOL0     C69026  -1.353   4.744   2.899  0.6617  0.0559 -0.3074
  512MOL0     C69027  -1.448   4.853   2.838 -0.3084  0.8733 -0.1121
  512MOL0     C69028  -1.578   4.777   2.816 -0.9071 -0.1159 -0.6431
  512MOL0     C69029  -1.654   4.852   2.715  0.1498 -0.4560  0.0212
  512MOL0    Cl69030  -1.687   5.015   2.781  0.1213 -0.2834 -0.2280
  512MOL0     C69031  -0.551   4.913   3.094  0.4734 -0.2203 -0.7486
  512MOL0     C69032  -0.430   4.893   3.154  0.3819  0.1302 -0.6312
  512MOL0     O69033  -0.208   4.581   3.137  0.5696  0.3154 -0.3925
  512MOL0     C69034  -0.027   4.727   3.399 -0.2175  0.4248 -0.6195
  512MOL0     C69035   0.103   4.727   3.456 -0.9857 -0.1147  0.6504
  512MOL0     N69036   0.746   5.067   3.354  0.5085 -1.2354 -0.1982
  512MOL0     N69037   0.863   5.107   3.328  0.4493 -0.0243 -0.2879
  512MOL0     C69038   1.811   5.242   3.874 -0.0671  0.3337  0.2170
  512MOL0     C69039   1.907   5.140   3.873 -0.1738  0.7822 -0.4018
  512MOL0     C69040   2.336   4.939   3.779  0.7987 -0.0386  0.5682
  512MOL0     C69041   2.468   4.938   3.819 -0.8148  1.3661 -0.1989
  512MOL0     C69042   2.545   4.820   3.807  0.6689 -0.4844  0.1711
  512MOL0     C69043   2.486   4.700   3.766  1.2162 -0.7396 -0.6601
  512MOL0     O69044   2.560   4.586   3.765  1.0552 -0.1432 -0.0378
  512MOL0     C69045   2.493   4.455   3.735 -0.3432 -0.5338 -0.2411
  512MOL0     C69046   2.378   4.428   3.838  0.4509  0.4250 -0.0571
  512MOL0     C69047   2.334   4.277   3.805  0.6928 -0.0773 -0.4713
  512MOL0     C69048   2.253   4.215   3.917  0.1405  0.3115 -0.5734
  512MOL0     C69049   2.226   4.076   3.884  0.8300  0.2214 -0.1050
  512MOL0     C69050   2.211   3.955   3.868  1.0036 -1.1351 -0.4956
  512MOL0     C69051   2.356   4.712   3.715 -0.5612 -0.5400 -0.2836
  512MOL0     C69052   2.285   4.828   3.725  0.1242 -0.0376 -0.0304
  512MOL0     H69053   2.167   5.330   3.753  1.5330 -0.2484  2.1399
  512MOL0     H69054   2.001   5.498   3.789  1.4468  0.6491  0.4216
  512MOL0     H69055   1.600   5.397   3.944  3.9254  0.7159  0.0602
  512MOL0     H69056   1.547   5.541   3.863 -0.6114 -0.3278  0.5061
  512MOL0     H69057   1.590   5.424   3.637  1.0731 -1.6053 -0.4373
  512MOL0     H69058   1.577   5.276   3.737  2.2001  0.0373  0.8398
  512MOL0     H69059   1.351   5.393   3.820 -0.0947 -2.8204 -1.5116
  512MOL0     H69060   1.374   5.515   3.702  0.5623  0.4126 -0.5037
  512MOL0     H69061   1.384   5.357   3.505  0.7031  0.6906  0.3914
  512MOL0     H69062   1.368   5.217   3.617  0.0125  0.9939  1.7426
  512MOL0     H69063   1.170   5.280   3.709  1.5238  0.3768  0.7164
  512MOL0     H69064   1.172   5.441   3.610  0.7768  0.5710 -0.2146
  512MOL0     H69065   1.012   5.271   3.519  0.4061  1.0070  1.6053
  512MOL0     H69066   1.141   5.298   3.410  0.8060  0.8894  1.0528
  512MOL0     H69067   1.244   5.074   3.526 -0.9665 -2.6051  0.5024
  512MOL0     H69068   1.085   5.064   3.588 -0.0983  0.9092 -0.2343
  512MOL0     H69069   1.128   4.930   3.384 -2.1895 -1.5876 -0.7844
  512MOL0     H69070   1.113   5.079   3.294 -0.3883 -1.9016 -0.3247
  512MOL0     H69071   0.919   4.846   3.521 -0.0527 -0.5467 -0.4966
  512MOL0     H69072   0.677   4.757   3.463  0.7502 -0.5062  0.4099
  512MOL0     H69073   0.649   4.875   3.598 -0.8129  1.6413 -0.7739
  512MOL0     H69074   0.479   4.849   3.350  2.4465 -3.2834  1.9686
  512MOL0     H69075   0.484   5.002   3.424  1.2758  0.4121  1.7803
  512MOL0     H69076   0.297   4.917   3.513  1.8031  3.0434  0.1059
  512MOL0     H69077   0.417   4.912   3.631 -1.0817  0.6508 -1.2802
  512MOL0     H69078   0.285   4.696   3.654 -1.7607  0.5903 -1.7572
  512MOL0     H69079   0.453   4.677   3.631 -0.3449 -0.1219  1.8797
  512MOL0     H69080   0.274   4.583   3.217  0.4245 -0.9212  0.6088
  512MOL0     H69081   0.025   4.456   3.063 -0.6629  0.8649 -2.8004
  512MOL0     H69082   0.004   4.621   2.992 -2.5682  0.1684  1.8695
  512MOL0     H69083   0.162   4.548   3.029 -0.1278 -1.4485 -0.2862
  512MOL0     H69084  -0.487   4.567   3.265 -0.0063  0.5648  0.5385
  512MOL0     H69085  -0.682   4.599   3.165 -3.0859  1.5648  1.6547
  512MOL0     H69086  -0.854   4.645   2.960  1.1702  0.5275 -0.1131
  512MOL0     H69087  -0.877   4.700   3.130  0.9607 -1.0790 -0.6261
  512MOL0     H69088  -1.003   4.901   3.036 -4.4730  1.2538 -1.6733
  512MOL0     H69089  -0.970   4.816   2.876  1.6726 -3.7908 -0.5586
  512MOL0     H69090  -1.146   4.707   3.091  0.1811  1.9044  0.2765
  512MOL0     H69091  -1.117   4.627   2.936  2.1989  0.5456 -1.9753
  512MOL0     H69092  -1.238   4.895   2.992 -0.6661  0.9594 -1.2975
  512MOL0     H69093  -1.186   4.854   2.831 -0.0522  2.0910  0.5289
  512MOL0     H69094  -1.391   4.701   2.991  2.7390 -0.5034  0.3349
  512MOL0     H69095  -1.335   4.664   2.826 -5.1683 -1.2007 -0.8306
  512MOL0     H69096  -1.462   4.931   2.912  0.3896 -0.1842  1.1701
  512MOL0     H69097  -1.407   4.891   2.744 -1.2911  0.5414 -0.6990
  512MOL0     H69098  -1.636   4.767   2.908  0.1605 -0.7490 -0.0073
  512MOL0     H69099  -1.568   4.674   2.778 -0.3398 -0.0441 -0.6957
  512MOL0     H69100  -1.745   4.794   2.700 -0.8956  0.6789  1.6364
  512MOL0     H69101  -1.599   4.860   2.621  1.6704 -3.7102  0.4779
  512MOL0     H69102  -0.583   5.002   3.041 -1.4325  1.1709  2.4643
  512MOL0     H69103  -0.354   4.970   3.146 -0.1024  0.6266 -0.5191
  512MOL0     H69104  -0.110   4.774   3.451 -0.0044  0.0255  0.1037
  512MOL0     H69105   0.120   4.782   3.549  3.3741  0.8876 -0.5248
  512MOL0     H69106   1.707   5.222   3.898 -0.1015 -0.3296 -0.4267
  512MOL0     H69107   1.870   5.042   3.904 -1.2092  1.4801  0.6392
  512MOL0     H69108   2.516   5.025   3.863  0.5149  0.9345 -0.7205
  512MOL0     H69109   2.644   4.808   3.848  0.0140 -0.8687  1.7106
  512MOL0     H69110   2.464   4.452   3.629 -3.3884  0.4388  0.4733
  512MOL0     H69111   2.570   4.379   3.748 -0.7078 -0.9577 -0.5226
  512MOL0     H69112   2.294   4.498   3.847  0.6977  0.5771  1.3636
  512MOL0     H69113   2.414   4.427   3.941 -2.4989 -2.7174  1.1264
  512MOL0     H69114   2.417   4.209   3.786  0.3124 -1.1001  1.2919
  512MOL0     H69115   2.274   4.276   3.713 -1.2824 -3.6190  0.6581
  512MOL0     H69116   2.159   4.269   3.929  0.1744  0.4164 -0.7610
  512MOL0     H69117   2.309   4.213   4.011  1.0613  0.1471 -1.1052
  512MOL0     H69118   2.207   3.849   3.853  0.9190 -1.4483  1.5016
  512MOL0     H69119   2.307   4.627   3.669 -1.2193  0.7696 -2.1178
  512MOL0     H69120   2.183   4.827   3.686  0.5563  0.2138 -1.2142
  513MOL0     O69121   2.138   7.974   1.299 -0.2029 -0.0545 -0.0298
  513MOL0     C69122   2.210   7.874   1.302 -0.2026 -0.0515 -0.6210
  513MOL0     O69123   2.174   7.744   1.277  0.2408  0.3951 -0.1170
  513MOL0     C69124   2.045   7.701   1.267  1.1621  0.7199 -0.5613
  513MOL0     C69125   1.932   7.749   1.343 -0.7754 -0.1927 -0.5590
  513MOL0     C69126   1.807   7.700   1.328  0.3849 -0.7381  0.1127
  513MOL0     C69127   1.779   7.593   1.236 -0.1732 -0.4325 -0.5932
  513MOL0     O69128   1.654   7.532   1.235 -0.1592  0.2699 -0.3819
  513MOL0     C69129   1.655   7.389   1.226 -0.3449  0.3607 -0.3085
  513MOL0     C69130   1.527   7.326   1.280  0.2922  0.3954 -0.0429
  513MOL0     C69131   1.402   7.358   1.186 -0.0103  1.1075  0.0707
  513MOL0     C69132   1.270   7.317   1.257 -0.7025  0.4683  0.1212
  513MOL0     C69133   1.143   7.376   1.191 -0.8819 -0.3084 -1.2677
  513MOL0     C69134   1.017   7.366   1.283 -0.5614  0.2785  0.1532
  513MOL0     C69135   0.893   7.401   1.210 -0.6779 -0.7173  0.7837
  513MOL0     C69136   0.778   7.428   1.318 -0.5367 -0.3400 -0.0327
  513MOL0     N69137   0.656   7.483   1.261  1.2368 -0.6036 -0.2760
  513MOL0     C69138   0.547   7.524   1.333 -0.0618 -0.0636  0.6053
  513MOL0     C69139   0.453   7.554   1.242 -0.3793 -0.7490  0.8641
  513MOL0     C69140   0.323   7.608   1.275 -0.3891  0.2635  0.7634
  513MOL0     C69141   0.216   7.540   1.183  0.1563 -0.9796 -0.3891
  513MOL0     C69142   0.162   7.643   1.079  0.8138 -0.5624  0.0282
  513MOL0     C69143   0.024   7.599   1.035 -1.1967  0.3914  0.3152
  513MOL0     O69144  -0.025   7.687   0.927  0.4566  0.3180  0.6135
  513MOL0     C69145  -0.161   7.722   0.932 -0.2562  0.7328  0.3234
  513MOL0     C69146  -0.191   7.858   0.926  0.4294  0.9968 -0.1595
  513MOL0     C69147  -0.322   7.904   0.930 -0.0534  0.8331  0.2632
  513MOL0     C69148  -0.348   8.059   0.938 -0.3320  0.5569  0.3062
  513MOL0     C69149  -0.427   7.801   0.939 -0.2465 -0.6203 -0.1573
  513MOL0     C69150  -0.572   7.834   0.934 -0.1112 -0.3320 -0.1141
  513MOL0     O69151  -0.656   7.740   0.893  0.5675  0.0175 -0.2486
  513MOL0     C69152  -0.792   7.773   0.900 -0.5144 -0.2995 -0.0217
  513MOL0     C69153  -0.866   7.809   0.789 -0.3316  0.1650  0.1564
  513MOL0     C69154  -1.004   7.845   0.792  0.3396  0.4819  1.2131
  513MOL0     C69155  -1.077   7.823   0.908 -0.3104  0.0166 -0.1840
  513MOL0     O69156  -1.209   7.849   0.895 -0.2387  0.1162 -0.1222
  513MOL0     C69157  -1.297   7.842   1.009  0.2079 -0.9726  1.0913
  513MOL0     C69158  -1.410   7.953   0.984 -0.4888 -1.1715 -0.0848
  513MOL0     C69159  -1.529   7.915   1.070  0.3748 -0.7895 -0.4065
  513MOL0     C69160  -1.647   8.019   1.073 -0.4300 -0.3816  0.7728
  513MOL0     C69161  -1.773   7.959   1.134  0.4933 -0.2301 -0.3606
  513MOL0     C69162  -1.798   8.008   1.279  0.3505 -0.2012  0.3565
  513MOL0     C69163  -1.870   7.899   1.363  0.0349  0.5733 -0.1793
  513MOL0     C69164  -2.018   7.865   1.320 -0.0686 -0.0702  0.0950
  513MOL0    Cl69165  -2.114   8.006   1.387  0.0705  0.1501 -0.1290
  513MOL0     C69166  -1.008   7.781   1.023 -0.3617  0.5584 -0.2511
  513MOL0     C69167  -0.867   7.759   1.020  0.5290  0.1843 -0.0091
  513MOL0     O69168  -0.602   7.938   0.997 -0.2357 -0.0309 -0.5035
  513MOL0     C69169  -0.397   7.668   0.941 -0.9942  0.2690 -0.0902
  513MOL0     C69170  -0.262   7.629   0.942 -0.0068  0.0117  0.4629
  513MOL0     N69171   0.502   7.522   1.115 -0.7346  0.6474 -0.7583
  513MOL0     N69172   0.621   7.485   1.126 -0.5873 -0.2515  0.5552
  513MOL0     C69173   1.887   7.545   1.157  0.7074 -0.3224 -0.5179
  513MOL0     C69174   2.018   7.595   1.174 -0.4762 -0.9974  0.0982
  513MOL0     C69175   2.353   7.886   1.318 -0.6989  0.4876 -0.0423
  513MOL0     C69176   2.406   7.996   1.383 -0.4573  0.0661  0.6221
  513MOL0     C69177   2.551   8.016   1.380 -0.0957  0.6243 -0.2958
  513MOL0     C69178   2.641   7.909   1.339  0.4005  0.6304 -0.1324
  513MOL0     O69179   2.779   7.902   1.343  0.1573  0.3706 -0.0209
  513MOL0     C69180   2.840   8.022   1.378 -0.4134  0.5897 -0.1686
  513MOL0     C69181   2.990   8.015   1.410  0.0035  0.0001  0.2165
  513MOL0     C69182   3.075   7.993   1.277  0.1265 -0.2436  0.1600
  513MOL0     C69183   3.074   8.117   1.180  0.7353  0.1849  0.6156
  513MOL0     C69184   3.158   8.088   1.065 -0.8122 -1.2023 -0.2885
  513MOL0     C69185   3.235   8.069   0.969 -0.4432  0.3893  0.3600
  513MOL0     C69186   2.583   7.798   1.277 -0.4929 -0.0614 -0.4502
  513MOL0     C69187   2.444   7.786   1.266 -0.7362 -0.0877 -0.5107
  513MOL0     H69188   1.944   7.829   1.416 -2.1872 -0.9756  0.5838
  513MOL0     H69189   1.733   7.756   1.385  1.8354 -1.4123  2.7940
  513MOL0     H69190   1.682   7.361   1.124  1.5504  5.2091 -1.3888
  513MOL0     H69191   1.736   7.367   1.296  0.2218  0.9294 -0.7748
  513MOL0     H69192   1.534   7.218   1.289 -0.2772 -0.2362 -4.7689
  513MOL0     H69193   1.505   7.374   1.376 -4.4068 -1.4325  0.0157
  513MOL0     H69194   1.413   7.462   1.154  4.8790  0.0465 -2.6174
  513MOL0     H69195   1.412   7.305   1.091  2.3806 -0.6247  1.1806
  513MOL0     H69196   1.261   7.208   1.267 -2.2852  0.0779 -3.8457
  513MOL0     H69197   1.276   7.363   1.356 -0.0517  1.1690 -0.2325
  513MOL0     H69198   1.157   7.482   1.168  0.2421 -0.3700 -0.9152
  513MOL0     H69199   1.120   7.318   1.101  0.0670 -2.5882 -0.1062
  513MOL0     H69200   1.009   7.260   1.310  0.3509 -0.4453 -2.2088
  513MOL0     H69201   1.026   7.415   1.381 -4.2373  1.4240  0.0879
  513MOL0     H69202   0.921   7.493   1.157  2.4755 -0.3214  2.8420
  513MOL0     H69203   0.868   7.322   1.138 -0.7622  0.2252 -0.2497
  513MOL0     H69204   0.813   7.503   1.390 -0.5256 -2.8374  2.7376
  513MOL0     H69205   0.748   7.335   1.367 -2.8377  1.5066  2.3648
  513MOL0     H69206   0.542   7.546   1.439  0.6871  1.6712  0.3149
  513MOL0     H69207   0.305   7.584   1.380 -1.5779 -1.1218  0.2740
  513MOL0     H69208   0.333   7.716   1.264 -1.1165  0.5287  2.3668
  513MOL0     H69209   0.136   7.509   1.251  0.9129  2.5967  2.4675
  513MOL0     H69210   0.244   7.445   1.138  0.2988 -0.6126 -1.1032
  513MOL0     H69211   0.220   7.666   0.989 -3.8260  2.0469 -2.6927
  513MOL0     H69212   0.156   7.737   1.136  0.2456 -0.7591  0.2996
  513MOL0     H69213  -0.031   7.601   1.130  0.0615 -1.3479  1.1341
  513MOL0     H69214   0.032   7.498   0.995 -1.7019  0.6391 -0.4483
  513MOL0     H69215  -0.109   7.929   0.917 -0.9865  2.5695 -1.4082
  513MOL0     H69216  -0.410   8.093   0.854 -1.4951  1.1242  1.3736
  513MOL0     H69217  -0.400   8.094   1.028  0.0022 -0.1198  0.7692
  513MOL0     H69218  -0.251   8.109   0.929  0.0353 -0.3185 -0.8779
  513MOL0     H69219  -0.815   7.818   0.693 -3.2954  2.4524 -1.3634
  513MOL0     H69220  -1.059   7.886   0.708 -1.9722 -1.1300  1.8392
  513MOL0     H69221  -1.337   7.740   1.018  2.0415 -1.8548 -0.2242
  513MOL0     H69222  -1.254   7.873   1.105 -0.1184 -0.2853  1.0226
  513MOL0     H69223  -1.373   8.053   1.007 -0.5363 -1.2390  0.3035
  513MOL0     H69224  -1.451   7.968   0.884 -2.6225 -1.8054  0.6472
  513MOL0     H69225  -1.491   7.902   1.172  0.1301 -2.1870 -0.4839
  513MOL0     H69226  -1.575   7.822   1.037 -2.0205  0.8924 -2.2701
  513MOL0     H69227  -1.618   8.107   1.130 -0.4492 -0.1339  0.4069
  513MOL0     H69228  -1.673   8.042   0.969 -3.3382  3.4589  2.0947
  513MOL0     H69229  -1.781   7.850   1.131 -1.3309 -0.1284 -1.2183
  513MOL0     H69230  -1.864   7.994   1.083 -0.2652  0.4096  1.3733
  513MOL0     H69231  -1.705   8.036   1.329  1.2142  0.8119 -1.7046
  513MOL0     H69232  -1.860   8.097   1.260 -0.7789 -1.4422 -2.2450
  513MOL0     H69233  -1.884   7.937   1.465 -2.0197 -0.3191 -0.0611
  513MOL0     H69234  -1.812   7.806   1.361 -0.1807  0.4414 -0.3449
  513MOL0     H69235  -2.048   7.768   1.360  0.9292  1.1908  4.3590
  513MOL0     H69236  -2.015   7.862   1.210 -0.8274 -0.3360  0.0793
  513MOL0     H69237  -1.060   7.761   1.116 -0.4638 -0.2404 -0.4681
  513MOL0     H69238  -0.806   7.740   1.108  2.9767 -0.1211 -1.6693
  513MOL0     H69239  -0.469   7.588   0.929  0.9095 -1.4137 -0.8057
  513MOL0     H69240  -0.238   7.524   0.941  0.5191  0.1189 -1.2537
  513MOL0     H69241   1.872   7.464   1.086  0.1799 -1.1554  0.5217
  513MOL0     H69242   2.100   7.564   1.110 -1.0536 -0.0877 -1.1334
  513MOL0     H69243   2.350   8.076   1.429 -0.2412  0.4951  0.1423
  513MOL0     H69244   2.586   8.111   1.421  0.3891 -0.5356  2.1683
  513MOL0     H69245   2.824   8.105   1.308 -2.8832  1.7037  1.5715
  513MOL0     H69246   2.800   8.046   1.477  2.0840  1.4751  0.7124
  513MOL0     H69247   3.009   7.933   1.479 -0.3386 -2.1114 -2.0566
  513MOL0     H69248   3.021   8.109   1.458  2.3095  1.1782 -3.1617
  513MOL0     H69249   3.046   7.906   1.218 -0.1420 -0.8733  1.2131
  513MOL0     H69250   3.178   7.983   1.313 -0.0537  0.9854  1.0920
  513MOL0     H69251   3.100   8.202   1.244 -0.0985  1.2797 -0.4494
  513MOL0     H69252   2.973   8.130   1.140 -1.6441 -1.7317  5.2813
  513MOL0     H69253   3.295   8.034   0.888 -0.8036  1.3565 -0.3456
  513MOL0     H69254   2.642   7.713   1.246  1.0205 -0.1208  2.2902
  513MOL0     H69255   2.401   7.701   1.214 -0.6788 -0.7511  0.4940
  514MOL0     O69256   3.259   3.393   7.279  1.2025  0.8133 -0.3270
  514MOL0     C69257   3.375   3.411   7.257 -0.5712  0.0773 -0.2918
  514MOL0     O69258   3.430   3.536   7.227  0.6685 -0.0132  0.0175
  514MOL0     C69259   3.358   3.651   7.221 -0.5132 -0.0680  0.4398
  514MOL0     C69260   3.425   3.767   7.163  0.1074  0.0194  0.6498
  514MOL0     C69261   3.360   3.896   7.170 -0.2836 -0.8493  0.2699
  514MOL0     C69262   3.227   3.912   7.220 -0.0155  0.0637 -0.3022
  514MOL0     O69263   3.153   4.018   7.189  0.4735 -0.0214  0.5409
  514MOL0     C69264   3.021   3.987   7.125  0.1470  0.0864 -0.5775
  514MOL0     C69265   2.985   4.098   7.028 -0.0631  0.0793  0.8411
  514MOL0     C69266   2.854   4.068   6.944 -0.3870 -0.1062 -0.7327
  514MOL0     C69267   2.716   4.098   7.005  0.4585  0.1719  0.9125
  514MOL0     C69268   2.598   4.115   6.912 -0.3026  0.5463  0.1422
  514MOL0     C69269   2.475   4.078   6.988 -0.5293 -0.5478  0.5411
  514MOL0     C69270   2.346   4.122   6.915 -0.0053  0.4759  0.6496
  514MOL0     C69271   2.212   4.115   6.986 -0.0418  0.2163 -0.6414
  514MOL0     N69272   2.201   3.997   7.070  0.4067  0.0235  0.0292
  514MOL0     C69273   2.223   3.876   7.029 -0.6640  0.4423  0.0392
  514MOL0     C69274   2.229   3.794   7.140 -0.0604 -0.1294 -0.4753
  514MOL0     C69275   2.239   3.645   7.125  0.3365  0.1890 -0.1498
  514MOL0     C69276   2.105   3.571   7.151 -0.2207 -0.7129 -0.2757
  514MOL0     C69277   1.994   3.615   7.051 -0.6423  0.0325  0.3206
  514MOL0     C69278   1.865   3.524   7.066  0.2721 -0.3165 -0.0441
  514MOL0     O69279   1.810   3.557   7.194  0.4183 -0.0242 -0.4693
  514MOL0     C69280   1.738   3.468   7.261 -0.4521  0.5801  0.6440
  514MOL0     C69281   1.667   3.370   7.195 -0.0642 -0.1428 -0.0684
  514MOL0     C69282   1.597   3.277   7.263  0.9399  0.3234  0.5704
  514MOL0     C69283   1.518   3.177   7.170  0.4684 -1.1502  0.7200
  514MOL0     C69284   1.602   3.266   7.410 -0.2053  0.0043  1.2286
  514MOL0     C69285   1.521   3.167   7.488 -0.5099  0.5564  0.1311
  514MOL0     O69286   1.426   3.087   7.424  0.1375  0.9836 -0.2958
  514MOL0     C69287   1.320   3.055   7.506  0.4039 -0.0854 -0.0508
  514MOL0     C69288   1.321   2.932   7.575 -0.8924 -0.0954  0.8006
  514MOL0     C69289   1.208   2.899   7.658 -0.5494  0.2952  0.5899
  514MOL0     C69290   1.095   2.982   7.665 -0.5075  0.8124 -0.5419
  514MOL0     O69291   0.984   2.962   7.751  0.1601  0.0340  0.8400
  514MOL0     C69292   0.990   2.876   7.867 -0.7057  0.0576 -0.0111
  514MOL0     C69293   0.876   2.920   7.966 -0.3650  0.4192 -0.1445
  514MOL0     C69294   0.745   2.901   7.896  0.3327 -0.2106 -0.4170
  514MOL0     C69295   0.622   2.934   7.993 -0.9985 -0.1070  0.4732
  514MOL0     C69296   0.493   2.925   7.914  0.4941  0.0453  0.5328
  514MOL0     C69297   0.381   2.999   7.995  0.2270 -0.1644  0.3285
  514MOL0     C69298   0.354   2.930   8.128  0.1596  0.0103 -0.4896
  514MOL0     C69299   0.279   3.016   8.228 -0.4315 -0.0586  0.2623
  514MOL0    Cl69300   0.273   2.926   8.389  0.5506 -0.3796 -0.2833
  514MOL0     C69301   1.093   3.093   7.586  0.0209  0.8066  0.9774
  514MOL0     C69302   1.206   3.130   7.514 -0.2816 -0.7593  0.4012
  514MOL0     O69303   1.544   3.164   7.609 -0.6892 -0.4620  0.5606
  514MOL0     C69304   1.689   3.356   7.477 -0.6410 -0.3225 -0.0384
  514MOL0     C69305   1.752   3.457   7.400  0.7531  0.0881  0.8291
  514MOL0     N69306   2.223   3.872   7.251  0.0065  0.6051 -0.0542
  514MOL0     N69307   2.193   3.988   7.204 -0.0846 -0.1227 -0.8604
  514MOL0     C69308   3.169   3.795   7.280  0.0542 -0.0312 -0.5031
  514MOL0     C69309   3.239   3.679   7.284 -0.1648  0.0895  0.2294
  514MOL0     C69310   3.475   3.303   7.289 -0.3216  0.3036  1.1479
  514MOL0     C69311   3.610   3.329   7.278 -0.3405  0.2559  0.1231
  514MOL0     C69312   3.697   3.222   7.298 -0.6877  0.1629 -0.3005
  514MOL0     C69313   3.662   3.092   7.319  0.6328  1.1635  0.1225
  514MOL0     O69314   3.742   2.983   7.335  0.0471 -0.3657  0.0154
  514MOL0     C69315   3.885   2.989   7.359  0.5070  0.1133 -0.0660
  514MOL0     C69316   3.926   3.037   7.500  0.1460 -0.5330  1.3263
  514MOL0     C69317   4.076   2.997   7.539 -0.7561 -0.1906  0.2387
  514MOL0     C69318   4.124   3.081   7.654 -0.3007 -0.5132  0.0940
  514MOL0     C69319   4.249   3.033   7.710  0.3986  0.3392  0.8824
  514MOL0     C69320   4.356   2.987   7.748  0.3190  0.7188  0.0211
  514MOL0     C69321   3.523   3.067   7.300  0.1772 -0.9275 -0.6685
  514MOL0     C69322   3.433   3.169   7.288 -0.2372 -0.2281  0.0443
  514MOL0     H69323   3.525   3.764   7.122 -0.4209 -3.6779 -0.7246
  514MOL0     H69324   3.406   3.977   7.114  0.1310  1.4341  3.6360
  514MOL0     H69325   3.027   3.888   7.080 -1.5726  0.3820 -1.5496
  514MOL0     H69326   2.944   3.987   7.203 -0.0137  1.0004 -0.7126
  514MOL0     H69327   2.974   4.198   7.071  5.0319  1.0008  0.6175
  514MOL0     H69328   3.070   4.106   6.960 -0.8218  0.9515 -0.0400
  514MOL0     H69329   2.858   4.119   6.847  3.1265 -0.8361 -1.0807
  514MOL0     H69330   2.846   3.964   6.913  0.2293  0.0016 -1.2702
  514MOL0     H69331   2.694   4.020   7.078  1.0730  1.3245  2.3669
  514MOL0     H69332   2.722   4.184   7.072 -3.8462 -0.2678  2.1684
  514MOL0     H69333   2.604   4.221   6.886  3.8218  0.5248  0.4480
  514MOL0     H69334   2.613   4.066   6.815  3.0837  0.6447  0.4961
  514MOL0     H69335   2.471   3.972   7.014 -0.7555 -1.1605 -1.7182
  514MOL0     H69336   2.477   4.123   7.087 -2.3592 -1.0508  0.8472
  514MOL0     H69337   2.363   4.224   6.878 -0.8161  1.2815  2.3694
  514MOL0     H69338   2.331   4.062   6.825 -2.5092  1.5970  0.2390
  514MOL0     H69339   2.123   4.096   6.925 -1.4936 -4.5235  2.3922
  514MOL0     H69340   2.212   4.204   7.049  0.1611  0.1610 -0.5653
  514MOL0     H69341   2.225   3.840   6.927  0.7959  3.1622 -0.9611
  514MOL0     H69342   2.279   3.615   7.028  1.4034 -0.6209  0.5061
  514MOL0     H69343   2.307   3.618   7.207 -0.3669 -4.0452 -0.6872
  514MOL0     H69344   2.062   3.591   7.249 -0.4389  1.2245 -0.7211
  514MOL0     H69345   2.133   3.466   7.141  1.9651 -0.3633  1.4263
  514MOL0     H69346   2.032   3.596   6.950 -2.8307 -0.5265 -0.4426
  514MOL0     H69347   1.970   3.722   7.061 -1.4531  0.1725 -2.2249
  514MOL0     H69348   1.889   3.417   7.060  0.6841 -0.1894 -0.7555
  514MOL0     H69349   1.790   3.553   6.991 -1.9929 -0.3969  2.0806
  514MOL0     H69350   1.677   3.372   7.087  0.1792  1.0139 -0.0366
  514MOL0     H69351   1.559   3.179   7.069  1.0419  1.4731  0.9390
  514MOL0     H69352   1.553   3.082   7.213  2.4384 -1.2452 -0.9403
  514MOL0     H69353   1.411   3.198   7.180  0.9482  2.2424 -0.2536
  514MOL0     H69354   1.399   2.861   7.548 -0.6392  0.9791 -1.6353
  514MOL0     H69355   1.208   2.805   7.713 -0.6464 -0.3634 -0.4970
  514MOL0     H69356   0.978   2.772   7.836  1.9816 -0.1853 -0.4141
  514MOL0     H69357   1.086   2.894   7.916 -1.7381  2.4964  1.2781
  514MOL0     H69358   0.888   2.859   8.055  0.8557  0.8331 -0.0062
  514MOL0     H69359   0.890   3.025   7.994  3.6122 -0.3072  1.2220
  514MOL0     H69360   0.730   2.799   7.859 -1.4147  0.3003 -1.1860
  514MOL0     H69361   0.736   2.980   7.821 -1.3463  0.2714  0.2486
  514MOL0     H69362   0.620   2.876   8.085  0.7783  1.5138  1.6322
  514MOL0     H69363   0.628   3.040   8.021 -2.7028  0.2379 -0.3471
  514MOL0     H69364   0.467   2.822   7.889  0.3962  0.2133 -0.0713
  514MOL0     H69365   0.490   2.989   7.825 -3.7187  0.0171  0.4570
  514MOL0     H69366   0.404   3.104   8.016 -4.1936  0.6646  2.2533
  514MOL0     H69367   0.287   2.984   7.941  0.2268 -0.7267  0.4865
  514MOL0     H69368   0.447   2.915   8.184 -1.3807 -0.8397  2.0356
  514MOL0     H69369   0.292   2.842   8.109 -1.5647  1.2981 -1.1091
  514MOL0     H69370   0.182   3.042   8.185  0.2904  2.0786 -0.2081
  514MOL0     H69371   0.330   3.112   8.236 -1.4147  0.5800 -0.8079
  514MOL0     H69372   1.013   3.166   7.596 -1.8613 -1.2527  1.6819
  514MOL0     H69373   1.200   3.220   7.454 -0.6154 -0.0122  1.5397
  514MOL0     H69374   1.699   3.355   7.585 -4.1103  0.9041  0.4091
  514MOL0     H69375   1.808   3.532   7.455  1.6343 -1.3401  1.9574
  514MOL0     H69376   3.078   3.805   7.337  0.3738  3.0592 -0.3213
  514MOL0     H69377   3.194   3.600   7.342  1.6479 -0.2990  1.1926
  514MOL0     H69378   3.646   3.432   7.275  0.1113  0.2404  2.7631
  514MOL0     H69379   3.800   3.256   7.289 -1.0465  1.0016 -1.4682
  514MOL0     H69380   3.914   2.885   7.339  0.4081 -0.5668  2.8994
  514MOL0     H69381   3.930   3.064   7.293  1.1320  1.1403  1.4588
  514MOL0     H69382   3.871   2.984   7.578  2.0375 -1.2591  2.2371
  514MOL0     H69383   3.921   3.146   7.495 -0.8619 -0.6397 -1.9335
  514MOL0     H69384   4.139   3.020   7.453  1.5400  0.4282  1.9997
  514MOL0     H69385   4.076   2.893   7.572 -0.2853 -0.8047 -1.5866
  514MOL0     H69386   4.057   3.097   7.739  1.8178 -0.0012  1.7540
  514MOL0     H69387   4.138   3.180   7.610 -3.4607  2.0636  4.1790
  514MOL0     H69388   4.442   2.951   7.802 -0.0042 -1.2226 -0.6993
  514MOL0     H69389   3.495   2.962   7.299 -2.0364 -0.3866 -0.4093
  514MOL0     H69390   3.328   3.144   7.295 -0.7194  1.5260 -0.4315
  515MOL0     O69391   1.935   4.509   7.672 -0.0709  0.6059 -0.1735
  515MOL0     C69392   1.943   4.391   7.638 -0.1653  0.3934  0.5782
  515MOL0     O69393   1.831   4.305   7.625 -0.9383 -0.7210 -0.2230
  515MOL0     C69394   1.717   4.376   7.596 -0.0509 -0.1450  0.3523
  515MOL0     C69395   1.621   4.404   7.702 -0.2797  0.3632 -0.2566
  515MOL0     C69396   1.499   4.470   7.677  0.1345  0.7253 -0.5474
  515MOL0     C69397   1.484   4.513   7.539 -0.0997 -0.0370 -0.5898
  515MOL0     O69398   1.381   4.601   7.504 -0.4933  0.4902 -0.0828
  515MOL0     C69399   1.301   4.652   7.614  0.9564 -1.0092 -0.0853
  515MOL0     C69400   1.172   4.714   7.563 -1.5401  1.6795  0.5029
  515MOL0     C69401   1.081   4.602   7.503  0.6299  0.8426  0.2665
  515MOL0     C69402   0.938   4.666   7.475 -1.1486  1.1418 -0.8116
  515MOL0     C69403   0.850   4.570   7.410 -0.0952  0.0436 -0.0840
  515MOL0     C69404   0.886   4.542   7.271  0.0014  0.3023 -0.1287
  515MOL0     C69405   0.782   4.447   7.206 -0.2384 -0.1769 -0.9777
  515MOL0     C69406   0.835   4.404   7.068  0.2240  0.1858 -0.7780
  515MOL0     N69407   0.734   4.319   7.006 -0.2608  0.8852  0.0685
  515MOL0     C69408   0.670   4.220   7.073  0.5298  0.6828  0.6658
  515MOL0     C69409   0.604   4.153   6.981  0.2329  0.8647  0.7625
  515MOL0     C69410   0.516   4.035   7.001  0.6278  0.2451 -0.1958
  515MOL0     C69411   0.363   4.061   7.016  0.0868  0.1475 -0.6895
  515MOL0     C69412   0.285   4.011   6.890 -0.1769 -0.4490 -0.6726
  515MOL0     C69413   0.143   4.033   6.909  1.0333  0.2864  0.3063
  515MOL0     O69414   0.068   3.954   6.807 -0.1379 -1.3864  0.3876
  515MOL0     C69415  -0.073   3.975   6.805 -0.5463 -0.1275  0.2195
  515MOL0     C69416  -0.131   3.959   6.683  1.0347 -0.6577  0.4422
  515MOL0     C69417  -0.272   3.977   6.666 -0.3577 -0.4088  0.7417
  515MOL0     C69418  -0.331   4.005   6.531 -0.2023 -0.4387  0.1924
  515MOL0     C69419  -0.354   4.001   6.782 -0.1082  0.8038 -0.3941
  515MOL0     C69420  -0.512   3.999   6.775  0.4724  0.2493  0.0208
  515MOL0     O69421  -0.582   3.922   6.680  1.1959  0.0863 -0.0365
  515MOL0     C69422  -0.723   3.910   6.684 -0.3438 -0.7535 -0.2717
  515MOL0     C69423  -0.775   3.905   6.560  0.4384  0.0294 -0.1541
  515MOL0     C69424  -0.915   3.904   6.542  0.2146  0.1158  0.2841
  515MOL0     C69425  -1.000   3.900   6.649 -0.0192 -0.0529  1.1165
  515MOL0     O69426  -1.136   3.893   6.649 -0.3771 -0.5505  0.2495
  515MOL0     C69427  -1.203   3.893   6.519 -0.3180 -0.1287  0.3147
  515MOL0     C69428  -1.340   3.931   6.552  0.0844  0.0730  0.1583
  515MOL0     C69429  -1.437   3.895   6.438 -0.3450 -0.6097  0.7668
  515MOL0     C69430  -1.543   4.010   6.418 -0.9113 -1.0081  0.5815
  515MOL0     C69431  -1.661   3.958   6.330  0.3167  0.4703  0.3967
  515MOL0     C69432  -1.764   4.074   6.305 -0.1593 -0.0807 -0.8019
  515MOL0     C69433  -1.887   4.019   6.230 -0.8442 -0.6005  0.8631
  515MOL0     C69434  -1.977   4.141   6.196 -0.1057 -0.4923 -0.3166
  515MOL0    Cl69435  -2.038   4.215   6.342  0.4414  0.0980  0.3319
  515MOL0     C69436  -0.945   3.899   6.776 -0.9032  0.0722 -0.8343
  515MOL0     C69437  -0.807   3.905   6.797  0.0316 -0.0014 -0.1766
  515MOL0     O69438  -0.573   4.067   6.863 -0.0487  0.1384 -0.1214
  515MOL0     C69439  -0.292   4.035   6.908  0.2701 -0.2118  1.0184
  515MOL0     C69440  -0.153   4.014   6.916 -0.4592 -0.2879  0.8252
  515MOL0     N69441   0.621   4.217   6.860 -0.8309  0.1893  0.4038
  515MOL0     N69442   0.707   4.315   6.874  0.3500 -0.1108  0.5361
  515MOL0     C69443   1.577   4.486   7.436 -0.4784 -0.4375 -0.4844
  515MOL0     C69444   1.694   4.416   7.471  0.3568  0.8072 -0.2478
  515MOL0     C69445   2.074   4.350   7.597  0.9244  0.1953  0.2537
  515MOL0     C69446   2.101   4.219   7.549 -0.1486  0.5359  0.5050
  515MOL0     C69447   2.226   4.182   7.502 -0.6770  0.4245  0.2381
  515MOL0     C69448   2.334   4.268   7.505  0.0952 -0.2508  0.0588
  515MOL0     O69449   2.465   4.252   7.459  0.1435 -0.4232 -0.8478
  515MOL0     C69450   2.505   4.136   7.385 -0.5953  0.4115  0.0805
  515MOL0     C69451   2.575   4.050   7.479 -0.2510  0.7482 -0.0718
  515MOL0     C69452   2.647   3.925   7.415  0.2206 -0.3273 -0.8089
  515MOL0     C69453   2.558   3.842   7.321 -0.3695  0.4605 -0.4313
  515MOL0     C69454   2.634   3.742   7.242 -0.8981  0.0228 -0.7659
  515MOL0     C69455   2.693   3.671   7.167 -0.1900 -0.2751  0.8652
  515MOL0     C69456   2.309   4.399   7.541 -0.4097  0.0069  0.6476
  515MOL0     C69457   2.183   4.441   7.591  0.3655  0.1367 -1.2031
  515MOL0     H69458   1.652   4.374   7.802  0.7799 -0.5867 -0.8500
  515MOL0     H69459   1.436   4.488   7.763  1.5594 -3.1654  1.5614
  515MOL0     H69460   1.279   4.581   7.694  1.1690  0.0140  0.9196
  515MOL0     H69461   1.354   4.724   7.677 -0.1682 -0.0499 -0.2066
  515MOL0     H69462   1.121   4.760   7.647 -1.5374  0.6890  1.0635
  515MOL0     H69463   1.198   4.790   7.489 -0.3177  1.6218  0.8399
  515MOL0     H69464   1.120   4.550   7.415  0.9767 -1.4793  1.7231
  515MOL0     H69465   1.071   4.522   7.577 -3.9100  0.8955 -0.0084
  515MOL0     H69466   0.890   4.683   7.572 -0.9083 -2.7155  0.1408
  515MOL0     H69467   0.943   4.760   7.420 -2.3938 -0.1310 -3.2586
  515MOL0     H69468   0.835   4.479   7.469 -2.2131 -0.9720 -2.0655
  515MOL0     H69469   0.746   4.605   7.410 -0.2398 -0.3711 -0.8323
  515MOL0     H69470   0.893   4.629   7.206 -0.1185  0.6034  0.2602
  515MOL0     H69471   0.983   4.493   7.259  0.5879  1.5942 -0.7851
  515MOL0     H69472   0.773   4.370   7.282  0.7659 -0.5909 -1.2612
  515MOL0     H69473   0.683   4.490   7.184 -0.2321  0.9751  1.0732
  515MOL0     H69474   0.922   4.342   7.092  2.3192  2.3919 -2.1695
  515MOL0     H69475   0.855   4.483   6.994 -1.0356  1.0877 -0.1907
  515MOL0     H69476   0.680   4.210   7.181 -3.3029 -0.1810  1.0716
  515MOL0     H69477   0.536   3.963   6.922  0.6374  2.3739 -2.2600
  515MOL0     H69478   0.549   3.991   7.096 -1.4820  0.9946  0.9527
  515MOL0     H69479   0.338   4.166   7.037 -0.4916  0.0708 -0.9625
  515MOL0     H69480   0.324   4.003   7.100  0.5724 -0.5709 -0.9503
  515MOL0     H69481   0.300   3.905   6.869 -1.2759 -0.7773  0.1575
  515MOL0     H69482   0.322   4.071   6.806  2.3162 -1.4915 -0.3995
  515MOL0     H69483   0.119   4.140   6.916  5.0598  1.2382  5.0212
  515MOL0     H69484   0.107   3.995   7.005 -1.4223  0.3274 -0.5227
  515MOL0     H69485  -0.086   3.939   6.586 -0.2876 -1.4733 -0.0370
  515MOL0     H69486  -0.410   4.079   6.547  1.2455  0.9795  1.2463
  515MOL0     H69487  -0.253   4.044   6.464 -1.1374 -3.5710 -3.0529
  515MOL0     H69488  -0.369   3.909   6.496 -0.8766 -1.1338  2.6752
  515MOL0     H69489  -0.709   3.909   6.474 -0.1441 -1.7173 -0.7283
  515MOL0     H69490  -0.960   3.892   6.444  1.0365 -1.3448  0.0534
  515MOL0     H69491  -1.163   3.965   6.448  0.5338  1.5287  2.3688
  515MOL0     H69492  -1.187   3.795   6.473  0.6451  1.0753 -2.0748
  515MOL0     H69493  -1.375   3.872   6.638 -0.7420  0.1921 -0.0861
  515MOL0     H69494  -1.352   4.035   6.583  1.2153  0.6960 -1.3585
  515MOL0     H69495  -1.495   3.804   6.457 -0.8638 -0.3382  0.4934
  515MOL0     H69496  -1.382   3.895   6.344 -1.2654  0.0820  0.2203
  515MOL0     H69497  -1.583   4.028   6.518 -0.7088  2.5905  0.1375
  515MOL0     H69498  -1.507   4.109   6.388 -2.3885 -1.0203 -1.4561
  515MOL0     H69499  -1.711   3.892   6.401  1.9749  1.6840  2.8253
  515MOL0     H69500  -1.620   3.912   6.240  0.0926 -1.8173  1.4096
  515MOL0     H69501  -1.815   4.106   6.397 -0.7576 -0.4525 -0.9966
  515MOL0     H69502  -1.712   4.156   6.255 -0.5700 -0.9682 -2.7490
  515MOL0     H69503  -1.942   3.945   6.290 -0.5875 -1.8475 -0.3910
  515MOL0     H69504  -1.859   3.968   6.137 -2.5529 -1.4732  0.7664
  515MOL0     H69505  -2.051   4.113   6.122  1.7186 -3.4430 -1.2004
  515MOL0     H69506  -1.916   4.225   6.162 -0.3058  0.6571  1.9135
  515MOL0     H69507  -1.004   3.902   6.867 -0.4296  1.5116 -0.5389
  515MOL0     H69508  -0.787   3.906   6.904 -4.7728  0.0994  0.9485
  515MOL0     H69509  -0.328   4.065   7.005  3.1794  0.8788  1.8861
  515MOL0     H69510  -0.111   4.033   7.015 -0.2702 -0.7364  0.8366
  515MOL0     H69511   1.568   4.536   7.340 -0.6147 -1.1222 -0.8376
  515MOL0     H69512   1.774   4.394   7.401 -0.4122 -2.5221 -0.2322
  515MOL0     H69513   2.031   4.136   7.557 -0.1286  0.4890  0.2263
  515MOL0     H69514   2.250   4.081   7.470 -2.2016 -0.9032  3.0083
  515MOL0     H69515   2.427   4.081   7.333 -0.3455  0.0455  0.0888
  515MOL0     H69516   2.575   4.171   7.309 -1.2150  1.7406  0.1062
  515MOL0     H69517   2.502   4.025   7.556  0.1254 -0.4692 -0.0931
  515MOL0     H69518   2.650   4.112   7.531 -1.3458  3.7269 -1.7911
  515MOL0     H69519   2.682   3.859   7.494  0.9611  1.0620  0.0652
  515MOL0     H69520   2.734   3.957   7.357  1.7114  1.7068  2.2749
  515MOL0     H69521   2.520   3.911   7.245 -2.1610  1.6464  1.4481
  515MOL0     H69522   2.470   3.798   7.368  0.2807  1.6277  2.0260
  515MOL0     H69523   2.732   3.616   7.083 -2.2095 -1.5225  0.6733
  515MOL0     H69524   2.385   4.473   7.520 -0.9188  0.1032 -1.0754
  515MOL0     H69525   2.165   4.542   7.626 -0.8816 -0.9038  1.4068
  516MOL0     O69526   8.577   5.122   5.449  1.3979  0.5546 -0.4536
  516MOL0     C69527   8.550   5.199   5.540 -0.0053 -0.1855 -0.4191
  516MOL0     O69528   8.473   5.312   5.533  0.7041 -0.5402 -1.0660
  516MOL0     C69529   8.394   5.336   5.429 -0.8010  0.0223 -0.2117
  516MOL0     C69530   8.382   5.468   5.401  0.4104 -0.5837 -0.5143
  516MOL0     C69531   8.300   5.515   5.294  0.7065 -0.4179  0.3046
  516MOL0     C69532   8.226   5.423   5.227  0.0682 -0.1525  0.4747
  516MOL0     O69533   8.136   5.458   5.125  0.2646  0.7693 -0.0573
  516MOL0     C69534   8.109   5.590   5.085 -0.3878 -0.6847  0.5114
  516MOL0     C69535   8.023   5.662   5.187  0.0992 -0.1302 -0.1409
  516MOL0     C69536   7.898   5.585   5.222  0.6469 -0.0358 -0.6283
  516MOL0     C69537   7.816   5.525   5.107  0.2792 -0.6064  0.0462
  516MOL0     C69538   7.761   5.616   4.997 -0.5144 -0.1595  0.2266
  516MOL0     C69539   7.666   5.543   4.904 -0.3049  0.2144  0.1888
  516MOL0     C69540   7.640   5.640   4.785 -1.4402  0.0533 -0.1418
  516MOL0     C69541   7.527   5.593   4.693  0.7776  0.5235 -0.3356
  516MOL0     N69542   7.513   5.691   4.580 -0.5437  0.1091  0.0901
  516MOL0     C69543   7.524   5.676   4.439 -0.8963  0.0741  0.4695
  516MOL0     C69544   7.485   5.794   4.392 -0.0616 -0.7836 -0.0194
  516MOL0     C69545   7.473   5.843   4.250  0.1788  0.2337 -0.3336
  516MOL0     C69546   7.332   5.829   4.183 -0.2462  0.0482  0.7962
  516MOL0     C69547   7.294   5.681   4.189 -0.3257 -0.1334 -0.0420
  516MOL0     C69548   7.145   5.659   4.155  0.0504 -0.4775  0.3215
  516MOL0     O69549   7.108   5.688   4.022  0.1079 -0.5523  0.4342
  516MOL0     C69550   6.973   5.694   4.010  0.7094 -0.5861  0.2754
  516MOL0     C69551   6.899   5.582   3.981  0.0241  0.1593 -0.6399
  516MOL0     C69552   6.759   5.575   3.977  0.2263  0.3084  0.5458
  516MOL0     C69553   6.705   5.440   3.932  0.4013  0.1994  0.4375
  516MOL0     C69554   6.690   5.688   4.007 -2.0865 -0.3982 -0.0687
  516MOL0     C69555   6.550   5.705   4.008 -0.1469 -0.8913 -0.0151
  516MOL0     O69556   6.472   5.633   3.923 -0.5582 -0.1514  0.3434
  516MOL0     C69557   6.337   5.632   3.933  0.5038 -0.6297  0.5668
  516MOL0     C69558   6.255   5.747   3.910 -0.0932 -0.5419  1.2068
  516MOL0     C69559   6.123   5.747   3.919  0.4876  0.0398 -0.0941
  516MOL0     C69560   6.050   5.627   3.959 -0.4909  0.3268 -0.0339
  516MOL0     O69561   5.918   5.643   3.980 -0.0753  0.0409 -0.1307
  516MOL0     C69562   5.846   5.527   4.025 -0.5585 -0.3389 -0.1996
  516MOL0     C69563   5.703   5.569   4.069 -0.0163 -0.5837  0.5751
  516MOL0     C69564   5.617   5.444   4.099 -0.2580  0.0115  0.7092
  516MOL0     C69565   5.483   5.473   4.163 -0.3809 -0.1898 -0.3542
  516MOL0     C69566   5.377   5.526   4.068 -0.1413  0.1388 -0.2307
  516MOL0     C69567   5.263   5.592   4.154  0.4963  0.1424 -0.2705
  516MOL0     C69568   5.138   5.622   4.064 -0.3691  0.0202  0.4960
  516MOL0     C69569   5.029   5.675   4.154 -0.7877 -0.0520 -0.3344
  516MOL0    Cl69570   4.919   5.555   4.233 -0.0637  0.1464  0.1433
  516MOL0     C69571   6.135   5.509   3.971  0.3202  1.0688 -0.9609
  516MOL0     C69572   6.273   5.512   3.963 -0.1878  0.0789 -0.0196
  516MOL0     O69573   6.498   5.777   4.092 -0.4162 -0.2095 -0.0153
  516MOL0     C69574   6.769   5.799   4.043 -0.0181  0.6966 -0.7022
  516MOL0     C69575   6.906   5.808   4.040 -0.2618  0.2748 -0.1354
  516MOL0     N69576   7.457   5.878   4.501  1.2137  0.7485 -0.2612
  516MOL0     N69577   7.471   5.813   4.612 -0.4628 -0.0402 -0.4466
  516MOL0     C69578   8.234   5.288   5.258  0.6145  0.0011  0.1861
  516MOL0     C69579   8.319   5.246   5.355 -0.3814  0.4445 -0.4412
  516MOL0     C69580   8.623   5.181   5.669 -0.1947  0.5710 -0.7831
  516MOL0     C69581   8.584   5.257   5.780  0.6239  0.7666  0.3675
  516MOL0     C69582   8.636   5.232   5.905 -1.0090 -0.1065 -0.2256
  516MOL0     C69583   8.736   5.136   5.924  0.9011  0.0512  0.4881
  516MOL0     O69584   8.780   5.125   6.053  0.2506 -0.0886 -0.3140
  516MOL0     C69585   8.886   5.036   6.081  0.6259  0.0145  1.2230
  516MOL0     C69586   8.820   4.898   6.074  0.0827 -0.3503  0.4261
  516MOL0     C69587   8.924   4.783   6.092  0.1054 -0.3706  0.3875
  516MOL0     C69588   8.948   4.769   6.246 -0.6098  0.4050 -0.5778
  516MOL0     C69589   8.989   4.628   6.268 -0.3261 -0.2098 -0.7071
  516MOL0     C69590   9.041   4.522   6.298 -0.4179  0.6173 -0.1502
  516MOL0     C69591   8.787   5.079   5.805  0.6547 -0.4749  0.4767
  516MOL0     C69592   8.728   5.092   5.679  0.5227 -0.2067 -0.8632
  516MOL0     H69593   8.438   5.548   5.449 -0.7295  0.7013 -1.2588
  516MOL0     H69594   8.303   5.621   5.271 -2.0604 -0.0293  1.3243
  516MOL0     H69595   8.205   5.642   5.071  0.5135 -2.2627  0.6132
  516MOL0     H69596   8.063   5.595   4.986  0.3495  0.6101  0.2157
  516MOL0     H69597   8.066   5.667   5.287 -1.7833 -2.0155  0.8406
  516MOL0     H69598   7.989   5.764   5.163 -0.0595 -0.0639  0.3618
  516MOL0     H69599   7.909   5.496   5.284 -0.7580  1.1410  1.4518
  516MOL0     H69600   7.839   5.657   5.281 -0.0257  0.2881 -1.6736
  516MOL0     H69601   7.881   5.448   5.064  0.8562 -0.4310  0.5810
  516MOL0     H69602   7.737   5.466   5.155  1.0335 -1.6867 -0.0063
  516MOL0     H69603   7.709   5.700   5.044 -0.7933  1.6703 -3.0349
  516MOL0     H69604   7.848   5.644   4.936 -0.5737 -1.5697 -0.5485
  516MOL0     H69605   7.708   5.445   4.882 -2.5600 -1.2084  1.8190
  516MOL0     H69606   7.564   5.527   4.941  0.1101 -1.2524  0.7518
  516MOL0     H69607   7.620   5.739   4.826  2.3450  0.8668  0.0834
  516MOL0     H69608   7.738   5.650   4.739 -0.8000  0.3804  1.2351
  516MOL0     H69609   7.436   5.576   4.750  1.8672 -1.7152  0.8637
  516MOL0     H69610   7.556   5.499   4.646  3.1270  1.0961 -0.2015
  516MOL0     H69611   7.551   5.585   4.386  1.3555  0.7373  0.4053
  516MOL0     H69612   7.501   5.948   4.239 -2.3780  0.8722 -1.6524
  516MOL0     H69613   7.551   5.795   4.190  0.9608  2.7133 -1.4308
  516MOL0     H69614   7.332   5.865   4.080 -1.2521 -0.5828  0.5665
  516MOL0     H69615   7.258   5.880   4.245 -0.8020 -0.4044  0.5136
  516MOL0     H69616   7.314   5.634   4.286  1.9562  0.5018 -0.1510
  516MOL0     H69617   7.348   5.630   4.109  0.5871 -2.2216  1.8057
  516MOL0     H69618   7.087   5.727   4.218 -1.6694 -0.7922 -0.8723
  516MOL0     H69619   7.104   5.561   4.183 -1.5108  0.7272  2.5624
  516MOL0     H69620   6.961   5.497   3.955 -0.0522 -0.2485  0.4253
  516MOL0     H69621   6.764   5.354   3.965 -1.4343 -0.8001  1.2693
  516MOL0     H69622   6.607   5.430   3.979  0.9728  0.5924  1.7711
  516MOL0     H69623   6.697   5.418   3.825  0.5827 -0.0638  0.4756
  516MOL0     H69624   6.300   5.842   3.882 -4.5119  1.6755  0.7298
  516MOL0     H69625   6.064   5.837   3.900  0.3672  0.0778  0.4390
  516MOL0     H69626   5.833   5.464   3.937  0.0840  1.3331 -1.5382
  516MOL0     H69627   5.894   5.476   4.109 -0.9112  2.4838  1.8954
  516MOL0     H69628   5.710   5.626   4.162 -0.3237 -3.2229  2.3354
  516MOL0     H69629   5.654   5.630   3.993 -0.8307 -1.2132  0.5736
  516MOL0     H69630   5.667   5.366   4.157  0.5180  0.9812  1.4082
  516MOL0     H69631   5.602   5.391   4.005  3.1877 -1.5000  0.8604
  516MOL0     H69632   5.444   5.382   4.209  1.5250 -0.7300  0.3217
  516MOL0     H69633   5.504   5.553   4.235  1.7441 -0.4710 -0.6012
  516MOL0     H69634   5.342   5.446   4.002  0.1255  0.8706 -1.2955
  516MOL0     H69635   5.420   5.597   3.997 -0.9714  0.3652 -0.5152
  516MOL0     H69636   5.220   5.525   4.229  0.0630  0.2369 -0.4298
  516MOL0     H69637   5.300   5.685   4.197  2.7092  0.4939 -2.6795
  516MOL0     H69638   5.102   5.536   4.007  1.2800 -0.6863  0.4576
  516MOL0     H69639   5.170   5.694   3.989  3.0544 -0.3978  1.3778
  516MOL0     H69640   4.962   5.744   4.103 -1.4621 -0.5155 -0.0932
  516MOL0     H69641   5.075   5.727   4.238  0.6907 -1.5644 -0.1423
  516MOL0     H69642   6.097   5.410   3.994  0.7249  0.5301 -2.4666
  516MOL0     H69643   6.325   5.418   3.974  0.2133 -0.3278 -3.8976
  516MOL0     H69644   6.726   5.883   4.097  0.4873  0.4554  0.1024
  516MOL0     H69645   6.959   5.891   4.087  0.2818 -0.9233  1.4680
  516MOL0     H69646   8.159   5.223   5.214  1.7527 -3.0592  2.3749
  516MOL0     H69647   8.341   5.141   5.373 -0.9551  0.6358  1.6739
  516MOL0     H69648   8.504   5.330   5.786  0.8901  0.9963  1.4251
  516MOL0     H69649   8.591   5.271   5.996 -1.3164  1.3920 -0.9927
  516MOL0     H69650   8.972   5.053   6.016 -1.1439 -1.6136 -1.7416
  516MOL0     H69651   8.907   5.046   6.188  0.6614  1.3890  1.1059
  516MOL0     H69652   8.775   4.876   5.977 -1.3023  2.1215  0.4299
  516MOL0     H69653   8.732   4.898   6.139 -0.9630 -0.9083 -0.9375
  516MOL0     H69654   9.019   4.810   6.045 -0.2740  2.1474  0.9142
  516MOL0     H69655   8.886   4.689   6.051  0.2060  0.0415 -0.6959
  516MOL0     H69656   8.852   4.777   6.297 -0.7014 -1.8315 -0.2996
  516MOL0     H69657   9.027   4.835   6.284  1.0103  0.0012 -3.0177
  516MOL0     H69658   9.066   4.420   6.316 -1.7758  0.2981  0.0381
  516MOL0     H69659   8.878   5.026   5.830  2.2326  2.2859  0.9422
  516MOL0     H69660   8.761   5.038   5.591  1.4484 -2.6333  0.8861
  517MOL0     O69661   5.434   9.156   9.562  0.2386  0.2093  0.9492
  517MOL0     C69662   5.483   9.134   9.676  0.6003  0.0506 -0.9613
  517MOL0     O69663   5.423   9.060   9.772  0.4845 -0.3515 -0.6797
  517MOL0     C69664   5.305   9.003   9.749 -0.7180 -0.0169  1.0427
  517MOL0     C69665   5.180   9.071   9.747 -0.3382 -0.6585  0.6264
  517MOL0     C69666   5.056   9.013   9.732 -0.0653 -0.2390 -0.2124
  517MOL0     C69667   5.055   8.876   9.685  0.0697  0.3260  0.6889
  517MOL0     O69668   4.934   8.799   9.691  0.3406  0.3117  0.3090
  517MOL0     C69669   4.806   8.861   9.670 -0.4560 -0.3611 -0.0216
  517MOL0     C69670   4.776   8.868   9.524 -0.4794 -1.0193  0.4552
  517MOL0     C69671   4.644   8.938   9.483  0.5168 -0.6009 -0.2225
  517MOL0     C69672   4.518   8.869   9.542 -0.9762 -0.2547 -0.0318
  517MOL0     C69673   4.396   8.958   9.514 -0.2605  0.5008 -0.0405
  517MOL0     C69674   4.267   8.889   9.572 -0.0085 -0.1194 -0.6971
  517MOL0     C69675   4.218   8.764   9.488 -0.6876  0.2412 -0.3439
  517MOL0     C69676   4.065   8.778   9.463  0.2942 -0.4522 -0.1455
  517MOL0     N69677   4.020   8.677   9.366  0.2185 -0.7098 -0.0586
  517MOL0     C69678   3.996   8.552   9.394 -0.0664  0.3258 -0.3757
  517MOL0     C69679   3.938   8.502   9.286  0.3831  0.3533 -0.8587
  517MOL0     C69680   3.876   8.365   9.276 -0.3628  0.4317 -0.1855
  517MOL0     C69681   3.727   8.382   9.240  0.8582 -0.6004 -0.3682
  517MOL0     C69682   3.644   8.406   9.366  0.5804 -0.6338  0.5870
  517MOL0     C69683   3.504   8.344   9.360 -0.1250 -0.7864 -0.2078
  517MOL0     O69684   3.419   8.404   9.256 -0.9410  0.3015 -0.0963
  517MOL0     C69685   3.285   8.383   9.278 -0.4259  0.4374  0.7894
  517MOL0     C69686   3.202   8.435   9.186  1.0305 -1.3890 -0.1146
  517MOL0     C69687   3.064   8.436   9.198  0.7164  0.3295 -0.0605
  517MOL0     C69688   2.977   8.494   9.085 -1.3530  0.0515 -0.8504
  517MOL0     C69689   3.007   8.363   9.312  0.4861 -0.2820 -0.2617
  517MOL0     C69690   2.858   8.343   9.340  0.1581 -0.4614  0.1357
  517MOL0     O69691   2.821   8.290   9.464 -0.8889 -0.4053  0.2210
  517MOL0     C69692   2.694   8.273   9.503  0.4455 -0.0978  0.3001
  517MOL0     C69693   2.590   8.206   9.429  0.7222 -0.0102 -0.5697
  517MOL0     C69694   2.462   8.187   9.487  0.0631 -0.2063 -0.5301
  517MOL0     C69695   2.440   8.231   9.621  0.5101  0.6472  0.1014
  517MOL0     O69696   2.325   8.198   9.687  0.1039 -0.1636  0.0574
  517MOL0     C69697   2.275   8.066   9.659 -0.0903  0.4187  0.2580
  517MOL0     C69698   2.154   8.029   9.750 -0.6256 -0.1640 -0.5341
  517MOL0     C69699   2.192   8.052   9.899 -0.9572 -0.4773 -0.1341
  517MOL0     C69700   2.143   7.944   9.993 -0.5281  0.1120  0.0015
  517MOL0     C69701   2.002   7.937  10.024 -0.2532  0.1439 -0.0451
  517MOL0     C69702   1.960   7.811  10.110 -0.8134  0.8103  0.2614
  517MOL0     C69703   1.804   7.817  10.130  0.2855 -0.5612  0.7634
  517MOL0     C69704   1.759   7.697  10.205 -1.3393  0.1507  0.3349
  517MOL0    Cl69705   1.576   7.668  10.210  0.4109 -0.1837 -0.3094
  517MOL0     C69706   2.536   8.296   9.693 -0.3420  0.1335 -0.0123
  517MOL0     C69707   2.662   8.310   9.634  0.3822 -1.3792 -0.2068
  517MOL0     O69708   2.777   8.375   9.260  0.4567  0.1156  0.0923
  517MOL0     C69709   3.093   8.293   9.391 -0.4254  0.7432 -0.0503
  517MOL0     C69710   3.231   8.308   9.378 -0.0932 -0.1799  0.7793
  517MOL0     N69711   3.946   8.597   9.189  0.0537  0.3347  0.1816
  517MOL0     N69712   4.007   8.697   9.232  0.2415 -0.0853 -0.3660
  517MOL0     C69713   5.174   8.804   9.681 -0.8616 -0.4242  0.5008
  517MOL0     C69714   5.292   8.870   9.706 -0.2540 -0.3648 -0.2002
  517MOL0     C69715   5.616   9.197   9.710 -0.0698 -0.2456  0.6042
  517MOL0     C69716   5.669   9.182   9.835 -0.4052  0.1602 -0.1531
  517MOL0     C69717   5.794   9.233   9.867 -0.4748 -0.4786  1.1203
  517MOL0     C69718   5.868   9.305   9.772 -0.4949 -0.2846 -0.2486
  517MOL0     O69719   6.002   9.354   9.793  0.0559  0.1811 -0.5819
  517MOL0     C69720   6.062   9.324   9.916 -0.3378  0.0152  0.3752
  517MOL0     C69721   6.206   9.380   9.902  0.5009 -0.6899 -0.3110
  517MOL0     C69722   6.273   9.307   9.784  0.7993 -0.5686 -0.7300
  517MOL0     C69723   6.415   9.358   9.781 -0.8066  0.8898  0.3401
  517MOL0     C69724   6.479   9.319   9.648  0.4017  0.3510 -0.0513
  517MOL0     C69725   6.525   9.293   9.545  0.0812  0.2422  0.5862
  517MOL0     C69726   5.817   9.323   9.645 -0.4676  0.6819  0.0862
  517MOL0     C69727   5.698   9.256   9.611 -0.2005  0.0737 -0.1745
  517MOL0     H69728   5.180   9.175   9.779 -1.1495 -0.4862  0.0736
  517MOL0     H69729   4.971   9.080   9.730  0.0245  0.0586  2.4177
  517MOL0     H69730   4.730   8.796   9.714  1.0715 -1.1682  1.5252
  517MOL0     H69731   4.810   8.955   9.725  1.4153 -1.0619  1.1414
  517MOL0     H69732   4.860   8.916   9.473 -0.3903  0.2625  1.7445
  517MOL0     H69733   4.774   8.771   9.475  0.5328 -0.3846 -0.8778
  517MOL0     H69734   4.661   9.042   9.514  2.7128 -0.5822 -1.2605
  517MOL0     H69735   4.633   8.931   9.374  0.1521 -1.0242 -0.1594
  517MOL0     H69736   4.499   8.771   9.497 -1.2082  0.7281 -2.1975
  517MOL0     H69737   4.532   8.859   9.650  1.8254  2.3196 -0.0209
  517MOL0     H69738   4.411   9.053   9.566 -0.3942 -0.3860  1.6815
  517MOL0     H69739   4.364   8.966   9.410  0.0593 -1.5882 -0.3468
  517MOL0     H69740   4.274   8.872   9.680  1.7358  2.7554 -0.2287
  517MOL0     H69741   4.189   8.966   9.564  1.3918  1.2513 -1.8300
  517MOL0     H69742   4.278   8.762   9.397  1.1341  1.0726  0.7731
  517MOL0     H69743   4.241   8.667   9.534 -2.0366 -0.7934 -1.7384
  517MOL0     H69744   4.043   8.877   9.421 -0.1883 -1.5997 -2.7836
  517MOL0     H69745   4.008   8.763   9.555 -2.7217  2.5017 -1.3146
  517MOL0     H69746   4.022   8.499   9.485 -0.6594  0.4055 -0.1551
  517MOL0     H69747   3.929   8.301   9.204 -1.3825  0.3384 -0.8835
  517MOL0     H69748   3.891   8.315   9.372  1.2719  0.6507 -0.3058
  517MOL0     H69749   3.684   8.292   9.197 -2.9739  0.8515  0.0613
  517MOL0     H69750   3.709   8.464   9.170  1.5250 -0.1204  0.0082
  517MOL0     H69751   3.635   8.515   9.380 -0.1940 -0.7896  1.4781
  517MOL0     H69752   3.694   8.369   9.456 -0.1852  0.5376  1.5457
  517MOL0     H69753   3.464   8.371   9.458  1.7533  1.3321  0.0465
  517MOL0     H69754   3.517   8.235   9.353 -0.6791 -0.9554  1.0734
  517MOL0     H69755   3.253   8.493   9.110 -1.6780  1.7239  0.2773
  517MOL0     H69756   2.923   8.419   9.026 -2.1477  0.3774 -0.5578
  517MOL0     H69757   2.902   8.568   9.116  1.3154  2.5531  0.0996
  517MOL0     H69758   3.050   8.551   9.026 -0.8220  0.1427 -0.1168
  517MOL0     H69759   2.609   8.170   9.329 -2.4079 -3.2310 -0.1984
  517MOL0     H69760   2.386   8.136   9.430 -0.4627  4.5151 -4.6609
  517MOL0     H69761   2.240   8.058   9.556  0.0546  1.8364  0.0758
  517MOL0     H69762   2.356   7.995   9.679 -0.5048 -0.3286 -0.6781
  517MOL0     H69763   2.070   8.094   9.725 -1.0257  0.4352  2.0793
  517MOL0     H69764   2.130   7.924   9.730  1.5603 -0.4243 -2.2891
  517MOL0     H69765   2.178   8.153   9.938 -0.6108  0.0444 -1.3220
  517MOL0     H69766   2.299   8.031   9.906 -1.3144 -1.9351  1.5095
  517MOL0     H69767   2.162   7.846   9.947 -4.7860 -0.6679 -0.4812
  517MOL0     H69768   2.201   7.955  10.085  0.8470  0.1012 -0.8304
  517MOL0     H69769   1.942   7.942   9.933  0.5415  3.3488 -0.5109
  517MOL0     H69770   1.978   8.023  10.087 -0.1251  0.8037 -0.8983
  517MOL0     H69771   1.991   7.719  10.061 -0.7055 -0.2765  2.2590
  517MOL0     H69772   2.004   7.807  10.210  0.0306  0.8885 -0.0982
  517MOL0     H69773   1.758   7.831  10.031  1.3691 -0.3784  0.2769
  517MOL0     H69774   1.785   7.904  10.194 -0.9575 -0.4312  0.2597
  517MOL0     H69775   1.799   7.688  10.306  0.2364 -0.5255 -0.3017
  517MOL0     H69776   1.802   7.614  10.149 -0.8242  0.1542  0.7213
  517MOL0     H69777   2.517   8.330   9.794 -0.3709  0.1207 -0.0134
  517MOL0     H69778   2.745   8.343   9.696 -0.8661 -0.0779  0.8691
  517MOL0     H69779   3.068   8.222   9.469  1.8280 -0.0808 -0.0080
  517MOL0     H69780   3.289   8.253   9.452  0.7263  0.0527  0.3131
  517MOL0     H69781   5.172   8.698   9.655 -0.7772 -0.2995 -0.0218
  517MOL0     H69782   5.384   8.813   9.702 -1.7872 -3.1900  1.6716
  517MOL0     H69783   5.627   9.122   9.915  1.3059 -0.3323  0.4174
  517MOL0     H69784   5.843   9.203   9.959  0.0755 -2.6833  0.1726
  517MOL0     H69785   6.010   9.377   9.997  0.6501 -0.1042  1.1111
  517MOL0     H69786   6.066   9.216   9.934 -2.9511 -0.2214 -0.1412
  517MOL0     H69787   6.264   9.358   9.992  0.7962  0.4464 -0.2120
  517MOL0     H69788   6.195   9.486   9.879  1.0831 -0.9966 -2.1052
  517MOL0     H69789   6.216   9.328   9.694  0.0359  1.4047  0.1544
  517MOL0     H69790   6.264   9.200   9.807 -3.4381  0.1569  2.1270
  517MOL0     H69791   6.464   9.306   9.863  0.0681  1.9021  0.4864
  517MOL0     H69792   6.412   9.467   9.795  0.4626  0.8256  1.2682
  517MOL0     H69793   6.562   9.271   9.447 -0.0138  1.0034  0.3770
  517MOL0     H69794   5.871   9.386   9.575  0.9852  2.8074  2.9137
  517MOL0     H69795   5.657   9.267   9.512  0.2710 -0.1086 -0.3939
  518MOL0     O69796   2.214   6.462   6.422  0.3825  0.0271 -0.8369
  518MOL0     C69797   2.222   6.572   6.484 -0.3979 -0.8396  0.9356
  518MOL0     O69798   2.113   6.638   6.526  0.2596 -0.0556  0.5473
  518MOL0     C69799   1.991   6.567   6.519 -0.4514 -0.5444  1.0808
  518MOL0     C69800   1.953   6.521   6.643  0.6101 -0.0450  0.2592
  518MOL0     C69801   1.825   6.456   6.656 -0.7281 -0.3907  0.0993
  518MOL0     C69802   1.742   6.434   6.540  0.3201  0.4018 -0.1351
  518MOL0     O69803   1.624   6.376   6.551 -0.6996 -0.3060 -0.2712
  518MOL0     C69804   1.632   6.232   6.559  0.0247 -0.2854  0.6027
  518MOL0     C69805   1.504   6.163   6.600  0.2641  0.1952 -1.1067
  518MOL0     C69806   1.495   6.185   6.753  0.4948  1.0288  0.4973
  518MOL0     C69807   1.348   6.150   6.795  0.1814 -0.1912 -0.4719
  518MOL0     C69808   1.349   6.143   6.951  0.3677 -0.4614  0.0723
  518MOL0     C69809   1.208   6.095   7.002 -0.7458  0.4047 -0.8043
  518MOL0     C69810   1.096   6.209   7.001 -0.0141 -0.2571 -0.6889
  518MOL0     C69811   1.106   6.310   7.115 -0.1189  0.0942 -0.4100
  518MOL0     N69812   1.004   6.409   7.086 -0.1951  0.5409 -0.2294
  518MOL0     C69813   1.024   6.521   7.011 -1.2044 -1.5280  0.6336
  518MOL0     C69814   0.911   6.577   6.988 -0.3401  0.1030 -0.5275
  518MOL0     C69815   0.882   6.711   6.917  0.3387 -0.4986 -0.1628
  518MOL0     C69816   0.808   6.697   6.791 -0.4325  0.3757  0.3498
  518MOL0     C69817   0.802   6.819   6.698 -0.6741  0.5910  0.2641
  518MOL0     C69818   0.682   6.906   6.746  0.6352 -0.1891  0.4328
  518MOL0     O69819   0.696   7.039   6.683  0.1521  0.2917 -0.3001
  518MOL0     C69820   0.615   7.137   6.730  0.2376 -0.5842  0.5392
  518MOL0     C69821   0.664   7.260   6.704  0.1556  0.6110 -0.1700
  518MOL0     C69822   0.585   7.377   6.718  0.2158  0.0737 -0.4642
  518MOL0     C69823   0.647   7.503   6.683 -0.1761 -0.8187 -0.3287
  518MOL0     C69824   0.453   7.356   6.770  0.8609 -0.9066  0.5169
  518MOL0     C69825   0.353   7.464   6.797  0.3477  0.2404 -0.3269
  518MOL0     O69826   0.220   7.423   6.828  0.0222  0.1221  0.4348
  518MOL0     C69827   0.121   7.518   6.820 -0.4945  0.2682  0.1157
  518MOL0     C69828   0.107   7.586   6.701  0.1684 -0.2042  0.6265
  518MOL0     C69829   0.004   7.675   6.688 -0.0277 -0.3808 -0.1067
  518MOL0     C69830  -0.081   7.712   6.799  0.5323  0.4026 -0.1581
  518MOL0     O69831  -0.190   7.800   6.778 -0.8321  0.0501  0.7021
  518MOL0     C69832  -0.231   7.824   6.643  0.0198 -0.3429 -0.6086
  518MOL0     C69833  -0.350   7.922   6.647 -0.1289 -0.1473 -0.2445
  518MOL0     C69834  -0.480   7.858   6.692 -0.9072 -0.7943 -0.4557
  518MOL0     C69835  -0.604   7.952   6.681 -0.1813  0.2826 -0.5242
  518MOL0     C69836  -0.716   7.914   6.784 -0.5192  0.8060  0.2267
  518MOL0     C69837  -0.825   8.015   6.783 -0.3247 -0.6345 -0.0520
  518MOL0     C69838  -0.906   8.011   6.649  0.9508 -0.1320  0.1506
  518MOL0     C69839  -1.025   8.109   6.648 -0.3697 -0.3207  0.1713
  518MOL0    Cl69840  -1.114   8.097   6.495 -0.1712  0.7219  0.7072
  518MOL0     C69841  -0.064   7.650   6.920  0.3419 -0.3217  0.0929
  518MOL0     C69842   0.038   7.549   6.933  0.4192  0.7841 -0.6141
  518MOL0     O69843   0.395   7.579   6.793  0.4220 -0.0196 -0.5891
  518MOL0     C69844   0.421   7.233   6.815 -0.4155 -0.5367  0.2290
  518MOL0     C69845   0.493   7.119   6.800  0.4126  0.1752  0.0921
  518MOL0     N69846   0.813   6.498   7.045  0.7408 -0.2781 -0.4939
  518MOL0     N69847   0.868   6.397   7.097  0.3209 -0.0743 -0.4036
  518MOL0     C69848   1.782   6.482   6.415  0.1757 -0.3926  0.9043
  518MOL0     C69849   1.913   6.551   6.408  0.3123  0.2125  0.2562
  518MOL0     C69850   2.358   6.644   6.477  0.3709 -0.0360 -0.1598
  518MOL0     C69851   2.364   6.787   6.524  0.1693  0.0301  0.6594
  518MOL0     C69852   2.490   6.846   6.527 -0.6779 -0.2851 -0.1028
  518MOL0     C69853   2.611   6.776   6.496 -0.0904  0.4465  0.3628
  518MOL0     O69854   2.731   6.821   6.519 -0.1800  0.0069  0.7328
  518MOL0     C69855   2.767   6.884   6.639  0.1325 -0.0176 -0.2400
  518MOL0     C69856   2.897   6.837   6.695 -0.3312 -1.0196  0.5529
  518MOL0     C69857   3.018   6.874   6.599  0.1598  0.3302  0.7418
  518MOL0     C69858   3.039   7.022   6.554  0.7930  0.6112  0.3916
  518MOL0     C69859   3.174   7.044   6.525  0.4236  0.2488  0.2876
  518MOL0     C69860   3.292   7.037   6.509 -0.0995  0.8337 -0.3829
  518MOL0     C69861   2.605   6.647   6.455  0.8035  0.3619  0.9298
  518MOL0     C69862   2.480   6.580   6.439 -0.3214 -0.4246 -0.0167
  518MOL0     H69863   2.011   6.534   6.733 -0.2366  2.0935  0.5480
  518MOL0     H69864   1.797   6.415   6.753 -0.6049  0.4934  0.5122
  518MOL0     H69865   1.657   6.203   6.457 -0.3691 -0.5571  0.5807
  518MOL0     H69866   1.708   6.191   6.627 -0.4868 -1.9384  0.2287
  518MOL0     H69867   1.415   6.202   6.551 -2.1684 -3.3020  0.1633
  518MOL0     H69868   1.510   6.057   6.574  2.8121 -0.0314  0.0401
  518MOL0     H69869   1.571   6.122   6.800 -2.7780 -3.0535  0.8827
  518MOL0     H69870   1.518   6.286   6.788 -2.0753  1.2130  1.8472
  518MOL0     H69871   1.294   6.232   6.747 -1.5358 -0.1385  1.4056
  518MOL0     H69872   1.305   6.055   6.763 -1.9836  0.2389  0.9509
  518MOL0     H69873   1.433   6.077   6.978  0.7875  0.4897  1.1671
  518MOL0     H69874   1.377   6.242   6.989 -1.3230  0.1454 -0.1790
  518MOL0     H69875   1.181   6.000   6.955  3.4407 -1.2649 -0.3206
  518MOL0     H69876   1.235   6.080   7.107  0.4477 -0.1541 -1.1720
  518MOL0     H69877   1.090   6.258   6.903 -1.3383 -0.7183 -0.8565
  518MOL0     H69878   1.000   6.159   7.016  0.6870 -1.6976 -0.8560
  518MOL0     H69879   1.209   6.348   7.108 -0.2485  0.1445 -2.4241
  518MOL0     H69880   1.086   6.258   7.209 -2.3628  3.5366  1.2125
  518MOL0     H69881   1.112   6.568   6.968 -3.3496  3.8870  1.4397
  518MOL0     H69882   0.838   6.779   6.991 -1.9310 -1.2460 -0.7356
  518MOL0     H69883   0.981   6.749   6.892 -0.0658  1.1782  0.5934
  518MOL0     H69884   0.709   6.658   6.815  0.1454 -0.9705  0.6451
  518MOL0     H69885   0.853   6.615   6.734 -2.3353 -1.7711  1.7548
  518MOL0     H69886   0.796   6.789   6.593  0.8233 -0.5447  0.4635
  518MOL0     H69887   0.897   6.873   6.699  0.4204 -1.2396  1.0735
  518MOL0     H69888   0.681   6.918   6.855  1.1239  0.1441  0.4000
  518MOL0     H69889   0.596   6.849   6.708  3.1321 -4.6445  0.7488
  518MOL0     H69890   0.759   7.270   6.652  0.9870  1.6566  1.4365
  518MOL0     H69891   0.730   7.496   6.611 -0.7722  1.7420 -1.3948
  518MOL0     H69892   0.580   7.580   6.642  0.5570 -1.3496 -2.6833
  518MOL0     H69893   0.683   7.547   6.776 -2.4868 -1.3363  0.8862
  518MOL0     H69894   0.173   7.567   6.617 -2.8891 -1.9977 -1.5402
  518MOL0     H69895  -0.002   7.718   6.588  0.6999 -2.8346 -1.2870
  518MOL0     H69896  -0.156   7.871   6.579  0.6081 -0.1103  0.2493
  518MOL0     H69897  -0.259   7.732   6.591 -0.5570 -1.6288  1.8471
  518MOL0     H69898  -0.314   7.997   6.718 -0.3144 -0.0314 -0.2720
  518MOL0     H69899  -0.361   7.975   6.551  0.4470  1.7648  0.6867
  518MOL0     H69900  -0.467   7.822   6.794 -0.9147 -3.6562 -1.3604
  518MOL0     H69901  -0.499   7.769   6.630 -0.8803 -0.0195 -1.6049
  518MOL0     H69902  -0.577   8.057   6.698 -0.5416  0.2543  0.3046
  518MOL0     H69903  -0.644   7.947   6.580 -0.5790 -3.1232 -0.3009
  518MOL0     H69904  -0.675   7.924   6.885 -0.2692  0.9813  0.1112
  518MOL0     H69905  -0.757   7.815   6.764  1.0099  0.2287 -0.2514
  518MOL0     H69906  -0.889   7.992   6.869  1.3635 -0.4437  1.3160
  518MOL0     H69907  -0.771   8.110   6.789  0.0294 -0.7400 -1.3314
  518MOL0     H69908  -0.954   7.915   6.632 -0.2921  0.7602 -1.6759
  518MOL0     H69909  -0.832   8.041   6.575 -0.0167 -0.1617 -0.8482
  518MOL0     H69910  -0.985   8.208   6.675 -4.1611  1.6400 -0.6703
  518MOL0     H69911  -1.091   8.079   6.730  0.3674 -1.2645  0.4269
  518MOL0     H69912  -0.128   7.671   7.006  0.9426  1.4377  0.1627
  518MOL0     H69913   0.062   7.493   7.022 -0.4118  1.9720  0.3895
  518MOL0     H69914   0.332   7.221   6.876  0.7193 -0.9960  1.8686
  518MOL0     H69915   0.454   7.021   6.828  0.6559 -0.1727 -0.7668
  518MOL0     H69916   1.715   6.470   6.331 -0.6120  1.1530  1.2732
  518MOL0     H69917   1.955   6.580   6.312 -0.3517 -0.0467 -0.1190
  518MOL0     H69918   2.274   6.837   6.557 -1.3960 -0.1107 -2.9632
  518MOL0     H69919   2.505   6.946   6.567 -1.6185  0.3216 -1.2099
  518MOL0     H69920   2.776   6.991   6.622  1.0897  0.0754  0.7396
  518MOL0     H69921   2.701   6.866   6.725  4.5728 -0.5171  3.4896
  518MOL0     H69922   2.888   6.728   6.697 -2.6383 -0.8809 -0.2564
  518MOL0     H69923   2.923   6.865   6.798  1.1964  1.9521 -0.5403
  518MOL0     H69924   3.032   6.814   6.509  1.7376  0.2825  0.9763
  518MOL0     H69925   3.104   6.848   6.661 -0.6966 -0.2291  1.7262
  518MOL0     H69926   3.021   7.088   6.639  0.2620  0.3386  0.4930
  518MOL0     H69927   2.973   7.047   6.470  0.5170  1.8286  0.9573
  518MOL0     H69928   3.396   7.015   6.496 -0.6391 -1.5546 -1.0610
  518MOL0     H69929   2.699   6.595   6.443  0.2032 -0.4605 -0.4683
  518MOL0     H69930   2.466   6.476   6.411  2.6377 -1.1211  0.6990
  519MOL0     O69931   5.978   7.512   1.237  0.2207  0.4831 -0.1933
  519MOL0     C69932   6.008   7.623   1.199 -1.5264 -0.2530 -0.2666
  519MOL0     O69933   5.939   7.695   1.111 -0.4627 -0.0833  0.2943
  519MOL0     C69934   5.806   7.664   1.090  0.8125  0.2417  0.2499
  519MOL0     C69935   5.756   7.638   0.964 -0.5521 -0.1804  0.9573
  519MOL0     C69936   5.618   7.641   0.942 -0.0376 -0.3003 -0.9401
  519MOL0     C69937   5.526   7.644   1.046 -1.1075 -0.3764  0.1375
  519MOL0     O69938   5.394   7.634   1.014  0.1955 -0.3031 -1.0783
  519MOL0     C69939   5.322   7.526   1.085 -1.3191 -0.4029 -0.3000
  519MOL0     C69940   5.171   7.540   1.078  0.0693 -0.7329  0.5705
  519MOL0     C69941   5.078   7.445   1.152 -0.7643  0.1420 -1.2091
  519MOL0     C69942   4.952   7.503   1.206  0.3915  0.4082 -0.2595
  519MOL0     C69943   4.831   7.502   1.103  0.0922 -0.6468 -0.4623
  519MOL0     C69944   4.690   7.544   1.160  0.6520 -0.0259 -0.1446
  519MOL0     C69945   4.607   7.420   1.212 -0.0866  1.0052 -0.4445
  519MOL0     C69946   4.487   7.475   1.290  0.7536  0.0394 -0.2625
  519MOL0     N69947   4.420   7.358   1.348 -0.6978 -0.2878  0.2084
  519MOL0     C69948   4.340   7.267   1.283  0.6542  0.3992  0.0765
  519MOL0     C69949   4.343   7.154   1.357  0.3491 -0.4105 -0.5752
  519MOL0     C69950   4.249   7.035   1.321  0.3845 -0.6078  0.0710
  519MOL0     C69951   4.105   7.050   1.381  0.6410 -0.0220 -0.4565
  519MOL0     C69952   4.107   7.060   1.526 -0.0614 -0.2639  0.8983
  519MOL0     C69953   3.981   7.095   1.605 -0.0661  0.2701  0.1901
  519MOL0     O69954   3.897   6.980   1.573  0.7698 -0.5862 -0.4100
  519MOL0     C69955   3.762   6.979   1.596  0.1765  0.1625  0.1677
  519MOL0     C69956   3.671   7.083   1.644 -0.7537  0.1456 -0.0518
  519MOL0     C69957   3.540   7.081   1.647  0.7059  0.4878 -0.2401
  519MOL0     C69958   3.456   7.195   1.695  0.0405  0.3399  0.0106
  519MOL0     C69959   3.486   6.956   1.617  0.6186 -0.7945 -0.2631
  519MOL0     C69960   3.333   6.936   1.602  0.2465  0.1892  1.1411
  519MOL0     O69961   3.284   6.810   1.635  0.4466  0.4940  0.0577
  519MOL0     C69962   3.143   6.801   1.643  0.1353 -0.4359 -0.3644
  519MOL0     C69963   3.076   6.728   1.545  0.0930  0.2801  0.4552
  519MOL0     C69964   2.939   6.715   1.535 -0.0829  0.3866 -0.6429
  519MOL0     C69965   2.861   6.777   1.639 -0.7801  0.2507 -0.6890
  519MOL0     O69966   2.722   6.792   1.628  0.8617  0.2249  0.0423
  519MOL0     C69967   2.656   6.908   1.683  0.6759  0.2656 -0.1554
  519MOL0     C69968   2.506   6.917   1.664  0.5625  0.1953  0.4127
  519MOL0     C69969   2.423   6.847   1.760 -0.0684  0.6344 -0.2274
  519MOL0     C69970   2.271   6.893   1.740 -0.0236 -0.6002 -0.0752
  519MOL0     C69971   2.188   6.865   1.865  0.6331 -0.7949  0.0969
  519MOL0     C69972   2.030   6.857   1.849 -0.5998 -1.5888 -0.3319
  519MOL0     C69973   1.959   6.897   1.977  0.1374 -0.0002 -0.3029
  519MOL0     C69974   1.805   6.892   1.958  0.1783 -0.5855  0.3354
  519MOL0    Cl69975   1.778   7.051   1.870 -0.1463  0.4610 -0.1767
  519MOL0     C69976   2.926   6.851   1.740 -0.1066  0.6486 -0.2949
  519MOL0     C69977   3.066   6.865   1.743  0.4006  0.6098 -0.4549
  519MOL0     O69978   3.262   7.021   1.549  0.3286 -0.2821 -0.5136
  519MOL0     C69979   3.560   6.846   1.572 -0.4614 -0.3930 -0.1595
  519MOL0     C69980   3.699   6.857   1.561 -0.5828  0.1028 -0.0172
  519MOL0     N69981   4.428   7.173   1.472  0.0325  0.0819 -0.2928
  519MOL0     N69982   4.465   7.298   1.462 -0.1635 -0.4381 -0.2195
  519MOL0     C69983   5.581   7.654   1.175  0.2882  0.1469 -0.3753
  519MOL0     C69984   5.718   7.672   1.193 -0.6888 -0.0859 -0.2965
  519MOL0     C69985   6.133   7.685   1.247 -0.1702 -0.1797 -0.7378
  519MOL0     C69986   6.239   7.601   1.289  0.0310  0.3947  0.5735
  519MOL0     C69987   6.354   7.657   1.349 -0.2111 -0.0612 -0.3539
  519MOL0     C69988   6.371   7.796   1.356  0.2531  0.1093 -0.5019
  519MOL0     O69989   6.467   7.862   1.433 -0.3365 -0.0157  0.1912
  519MOL0     C69990   6.532   7.794   1.538 -0.1826  0.3094 -0.8572
  519MOL0     C69991   6.639   7.874   1.607 -0.5043 -0.3443  0.1753
  519MOL0     C69992   6.770   7.908   1.528  0.0768 -0.4437 -1.0629
  519MOL0     C69993   6.822   8.053   1.559 -0.0782 -0.5520  0.6691
  519MOL0     C69994   6.912   8.084   1.450 -0.1385  0.4283  1.0586
  519MOL0     C69995   6.977   8.113   1.355 -0.2254 -0.2089 -0.0046
  519MOL0     C69996   6.267   7.873   1.315 -0.3982 -0.5493 -0.5418
  519MOL0     C69997   6.148   7.823   1.259  0.0030 -0.4204 -0.0104
  519MOL0     H69998   5.820   7.627   0.877  0.5150 -1.9705  1.9062
  519MOL0     H69999   5.571   7.623   0.846  0.2543 -1.4633 -0.8780
  519MOL0     H70000   5.364   7.435   1.041  3.2031  1.0694  0.4852
  519MOL0     H70001   5.348   7.527   1.191  1.1843 -0.8191 -0.8614
  519MOL0     H70002   5.163   7.639   1.123  0.0268 -0.4614 -0.0141
  519MOL0     H70003   5.123   7.534   0.979 -0.6228 -3.9199  0.9968
  519MOL0     H70004   5.049   7.369   1.078 -1.7615 -1.8025  1.0215
  519MOL0     H70005   5.127   7.397   1.237  0.2900 -0.9574 -2.3935
  519MOL0     H70006   4.918   7.439   1.288 -1.4662  1.5009 -0.1234
  519MOL0     H70007   4.971   7.598   1.257  1.2513  1.1257 -1.8472
  519MOL0     H70008   4.846   7.556   1.009  0.9487 -4.7791 -2.9536
  519MOL0     H70009   4.826   7.397   1.073 -0.7115 -0.8900  0.4562
  519MOL0     H70010   4.711   7.614   1.242 -0.5944  0.0174  0.1656
  519MOL0     H70011   4.631   7.596   1.084 -0.0071 -1.3160 -0.5526
  519MOL0     H70012   4.580   7.350   1.132  3.4795 -1.7108  0.4585
  519MOL0     H70013   4.665   7.357   1.280 -4.0961  1.1326  3.5926
  519MOL0     H70014   4.419   7.536   1.230  0.6938  0.2858  0.0520
  519MOL0     H70015   4.522   7.536   1.374 -0.7811  0.1538  0.3375
  519MOL0     H70016   4.274   7.285   1.199 -0.9896  1.7456  1.5785
  519MOL0     H70017   4.238   7.025   1.213  0.6471  0.1082 -0.0249
  519MOL0     H70018   4.293   6.946   1.366  0.5367 -0.2330  0.6768
  519MOL0     H70019   4.050   6.957   1.363  1.2760 -0.2856 -1.0855
  519MOL0     H70020   4.052   7.134   1.335  3.0528  2.1138  0.4550
  519MOL0     H70021   4.180   7.135   1.558 -0.5556 -0.2209  2.0023
  519MOL0     H70022   4.143   6.965   1.567  0.5636  0.5186  2.2465
  519MOL0     H70023   3.948   7.196   1.579 -1.4357  0.0050  0.8031
  519MOL0     H70024   4.009   7.096   1.711  0.6497  0.5448 -0.0004
  519MOL0     H70025   3.728   7.174   1.663  1.2884 -1.0446 -0.1980
  519MOL0     H70026   3.419   7.258   1.614  2.3825 -1.5469 -2.7270
  519MOL0     H70027   3.375   7.154   1.756 -1.9836 -1.3951 -3.5641
  519MOL0     H70028   3.526   7.254   1.756  0.2309 -1.6629  1.8629
  519MOL0     H70029   3.144   6.670   1.484  2.3407  2.1296  1.0830
  519MOL0     H70030   2.905   6.659   1.449 -0.5753  0.3510 -0.4311
  519MOL0     H70031   2.668   6.918   1.792  1.0418  0.0827 -0.1770
  519MOL0     H70032   2.689   6.999   1.632 -3.0612  2.0727  0.3055
  519MOL0     H70033   2.491   7.025   1.675  0.9665  0.3763 -0.6056
  519MOL0     H70034   2.488   6.878   1.563 -0.8241  2.3597 -0.2503
  519MOL0     H70035   2.460   6.864   1.861 -0.1783  0.7619 -0.2078
  519MOL0     H70036   2.435   6.740   1.742 -0.7895  0.2219  1.5092
  519MOL0     H70037   2.253   6.997   1.710 -0.1959 -0.2942  1.0464
  519MOL0     H70038   2.229   6.832   1.659 -3.0547 -1.3519  1.8924
  519MOL0     H70039   2.220   6.944   1.934 -1.2875  0.3297 -0.2297
  519MOL0     H70040   2.212   6.760   1.884 -0.2286 -1.7915 -3.5549
  519MOL0     H70041   1.999   6.918   1.764 -0.3340  0.1451  0.7833
  519MOL0     H70042   2.003   6.753   1.826 -2.1443 -1.1130 -0.7523
  519MOL0     H70043   1.995   6.994   2.012  0.4627  0.5659 -2.1279
  519MOL0     H70044   1.994   6.830   2.057  2.2680  1.6430  0.2375
  519MOL0     H70045   1.755   6.902   2.055  1.8028  1.0316  1.0686
  519MOL0     H70046   1.771   6.816   1.887  0.4328  1.4294 -2.1008
  519MOL0     H70047   2.872   6.899   1.821  1.9230 -1.9332  2.8190
  519MOL0     H70048   3.106   6.911   1.832 -2.4908  1.7200  0.3802
  519MOL0     H70049   3.510   6.754   1.543 -1.1917 -0.0862  0.1054
  519MOL0     H70050   3.754   6.779   1.510 -0.1967 -0.8641  1.7787
  519MOL0     H70051   5.516   7.641   1.260  1.6195  1.1020  0.8280
  519MOL0     H70052   5.763   7.687   1.291  4.0346 -0.3912 -2.1659
  519MOL0     H70053   6.241   7.493   1.288  1.2061  0.4060  0.4341
  519MOL0     H70054   6.424   7.588   1.395  0.3165 -2.0843 -3.8827
  519MOL0     H70055   6.459   7.753   1.608 -0.8947 -0.2119 -1.8869
  519MOL0     H70056   6.583   7.707   1.496  1.9296  1.5175 -0.9389
  519MOL0     H70057   6.674   7.833   1.702  1.2008  1.0092  0.1778
  519MOL0     H70058   6.605   7.974   1.635 -0.2795 -0.0063 -0.7370
  519MOL0     H70059   6.740   7.898   1.423 -0.5083  0.1993 -0.9613
  519MOL0     H70060   6.845   7.830   1.546  1.0645  0.5399 -0.7670
  519MOL0     H70061   6.865   8.061   1.660 -0.7174  0.7445  0.8624
  519MOL0     H70062   6.739   8.125   1.562  1.5530  1.6114 -1.8581
  519MOL0     H70063   7.028   8.147   1.267  0.7063  0.4866  0.7780
  519MOL0     H70064   6.277   7.980   1.335 -0.2039 -1.0254  2.2813
  519MOL0     H70065   6.067   7.885   1.223  2.6799  1.9520 -2.5500
  520MOL0     O70066   9.143   1.628   3.646  0.0576  0.7687  0.5496
  520MOL0     C70067   9.173   1.733   3.689  0.8260  0.3720  0.5790
  520MOL0     O70068   9.089   1.824   3.738  0.1020  0.6172  0.8211
  520MOL0     C70069   8.958   1.783   3.766 -0.6259 -0.2565 -0.2792
  520MOL0     C70070   8.926   1.711   3.873 -0.3651  0.7425  0.0196
  520MOL0     C70071   8.792   1.660   3.884 -0.8245  0.4867 -1.0824
  520MOL0     C70072   8.693   1.705   3.800  0.3985 -0.0441 -0.0236
  520MOL0     O70073   8.568   1.644   3.824  1.0377 -0.7028 -0.2107
  520MOL0     C70074   8.455   1.735   3.858 -0.8384 -0.2050  0.3782
  520MOL0     C70075   8.342   1.647   3.904  0.5466  0.6176  0.1494
  520MOL0     C70076   8.219   1.737   3.939  0.5932  0.4150 -0.1693
  520MOL0     C70077   8.096   1.649   3.985  1.1060 -0.3633 -0.1069
  520MOL0     C70078   7.974   1.736   4.024 -0.6306  0.8175 -0.0375
  520MOL0     C70079   7.859   1.647   4.059 -0.3777 -0.5439 -0.0604
  520MOL0     C70080   7.716   1.716   4.043  0.2646  0.3056  0.0950
  520MOL0     C70081   7.605   1.606   4.035  0.6497 -0.7849 -0.9111
  520MOL0     N70082   7.471   1.669   4.021  0.2380 -0.6519  0.7918
  520MOL0     C70083   7.391   1.727   4.122  0.6159  0.3419 -0.2437
  520MOL0     C70084   7.289   1.786   4.048 -0.0604 -0.5974  0.3419
  520MOL0     C70085   7.164   1.854   4.093  0.8319 -0.4814 -0.5986
  520MOL0     C70086   7.053   1.752   4.143 -0.1504 -0.0578 -0.1283
  520MOL0     C70087   6.967   1.697   4.028  0.4250  0.9122  1.2798
  520MOL0     C70088   6.858   1.798   3.986 -0.4263 -0.0416 -0.3173
  520MOL0     O70089   6.797   1.844   4.104 -0.2114 -0.7813 -0.1761
  520MOL0     C70090   6.668   1.808   4.121 -0.2389 -0.4068  0.4351
  520MOL0     C70091   6.579   1.894   4.188  0.0101 -0.0127 -0.0483
  520MOL0     C70092   6.445   1.867   4.212 -0.1399 -0.5242 -0.6787
  520MOL0     C70093   6.370   1.977   4.283 -0.8805 -0.6057 -0.2323
  520MOL0     C70094   6.393   1.744   4.160 -0.2478  0.5113  0.2787
  520MOL0     C70095   6.254   1.685   4.178  0.7311  0.3488  0.0761
  520MOL0     O70096   6.230   1.553   4.168  0.8639 -0.1642 -0.2105
  520MOL0     C70097   6.103   1.515   4.218 -0.5819 -0.5356 -0.6432
  520MOL0     C70098   5.982   1.533   4.149  0.5564  1.0274 -0.0360
  520MOL0     C70099   5.859   1.522   4.216 -0.4879 -0.6739  1.0463
  520MOL0     C70100   5.861   1.479   4.353 -0.2705 -0.4030  0.0651
  520MOL0     O70101   5.759   1.463   4.443 -0.3554 -0.4162  0.2402
  520MOL0     C70102   5.625   1.504   4.397 -0.6813  0.0992  0.6306
  520MOL0     C70103   5.520   1.482   4.506  0.1584  0.8846 -0.0819
  520MOL0     C70104   5.380   1.486   4.444 -0.0195 -0.0492  0.0457
  520MOL0     C70105   5.288   1.437   4.557  0.1132 -0.7333 -0.3344
  520MOL0     C70106   5.146   1.456   4.505  0.1372 -0.5819 -0.2593
  520MOL0     C70107   5.039   1.433   4.608  0.2422 -0.0012  0.2675
  520MOL0     C70108   4.898   1.448   4.551 -0.3457  0.1425 -0.1477
  520MOL0     C70109   4.848   1.332   4.465 -1.2115  0.6510  0.1468
  520MOL0    Cl70110   4.679   1.349   4.428  0.4686 -0.1379  0.0070
  520MOL0     C70111   5.980   1.440   4.410  0.4271 -0.6141 -0.2435
  520MOL0     C70112   6.103   1.473   4.354  0.7151 -0.0339 -0.1446
  520MOL0     O70113   6.171   1.770   4.221 -0.8436 -0.4938 -0.6799
  520MOL0     C70114   6.478   1.656   4.095 -1.4060 -0.0769 -0.2308
  520MOL0     C70115   6.608   1.694   4.072  0.4584  0.3228  0.0881
  520MOL0     N70116   7.304   1.753   3.909  0.0031 -0.0211 -0.2033
  520MOL0     N70117   7.410   1.676   3.896  0.1754  0.3342 -0.4413
  520MOL0     C70118   8.723   1.804   3.706 -0.1019  0.2213 -0.1027
  520MOL0     C70119   8.855   1.831   3.677 -0.1677 -0.6922  0.9006
  520MOL0     C70120   9.318   1.760   3.692 -0.0152  0.2526 -0.1334
  520MOL0     C70121   9.367   1.878   3.748 -0.7988  0.2960 -0.8704
  520MOL0     C70122   9.501   1.907   3.760 -1.2162  0.4129  0.0480
  520MOL0     C70123   9.591   1.813   3.701 -0.1629  0.6183  0.5297
  520MOL0     O70124   9.734   1.826   3.696  0.5300  0.2342  0.3434
  520MOL0     C70125   9.780   1.953   3.742  0.1048 -0.0579 -0.6022
  520MOL0     C70126   9.932   1.942   3.721  0.0502 -0.4193 -1.1503
  520MOL0     C70127  10.011   1.823   3.792 -0.0209  0.8637 -0.1957
  520MOL0     C70128  10.003   1.812   3.941  0.1258  0.2386 -0.0693
  520MOL0     C70129  10.060   1.943   3.999 -0.2817 -0.2894 -0.6027
  520MOL0     C70130  10.093   2.050   4.048  0.3286  0.1374 -0.3047
  520MOL0     C70131   9.550   1.693   3.642 -0.3068 -0.1901 -0.3195
  520MOL0     C70132   9.411   1.667   3.637 -0.0784 -0.1166 -0.7608
  520MOL0     H70133   8.997   1.672   3.946  0.8333  0.4812 -1.2494
  520MOL0     H70134   8.759   1.581   3.951  3.0465 -1.3850 -1.1312
  520MOL0     H70135   8.473   1.798   3.946  0.4690 -0.3223  0.2177
  520MOL0     H70136   8.430   1.796   3.771  0.1618 -0.2173  0.0707
  520MOL0     H70137   8.316   1.577   3.824 -0.5228  1.4535 -0.2638
  520MOL0     H70138   8.370   1.589   3.992 -0.6356 -1.9407 -1.0730
  520MOL0     H70139   8.255   1.808   4.015  2.5416 -2.5697  1.9057
  520MOL0     H70140   8.184   1.793   3.851 -1.5490  1.7289  1.4148
  520MOL0     H70141   8.053   1.583   3.910 -0.7161  1.3241 -0.6100
  520MOL0     H70142   8.118   1.587   4.073  0.1975 -1.9750 -0.9757
  520MOL0     H70143   7.998   1.788   4.117 -1.6878  0.4278  0.4623
  520MOL0     H70144   7.947   1.810   3.948  2.9771  1.1444 -1.2186
  520MOL0     H70145   7.876   1.552   4.009  2.4443  0.0173 -0.3199
  520MOL0     H70146   7.872   1.618   4.163  2.2847 -2.6620 -0.8770
  520MOL0     H70147   7.711   1.786   4.127 -1.3259 -1.3103  1.4338
  520MOL0     H70148   7.713   1.779   3.954 -2.7049 -0.6106 -0.5466
  520MOL0     H70149   7.602   1.538   4.121  0.2166 -0.0862 -0.3627
  520MOL0     H70150   7.637   1.549   3.948  1.8148 -1.4449 -0.0725
  520MOL0     H70151   7.408   1.737   4.229  0.5150 -0.3644 -0.1544
  520MOL0     H70152   7.187   1.921   4.176 -1.4708 -0.8815  0.4397
  520MOL0     H70153   7.110   1.917   4.022 -3.1006 -2.4621  0.3355
  520MOL0     H70154   6.992   1.798   4.221  1.0596  1.4385 -0.0128
  520MOL0     H70155   7.109   1.672   4.192  0.3554 -0.7152 -1.6866
  520MOL0     H70156   6.920   1.602   4.054  1.2288 -0.5636 -2.0816
  520MOL0     H70157   7.038   1.672   3.949  0.9333 -1.1249  2.3171
  520MOL0     H70158   6.796   1.754   3.907  0.2421 -0.7675 -0.4395
  520MOL0     H70159   6.909   1.878   3.932 -1.5527 -0.9198 -2.8210
  520MOL0     H70160   6.630   1.984   4.219 -1.1931  0.4947  0.5095
  520MOL0     H70161   6.281   2.003   4.224  0.2403 -0.1414 -1.7867
  520MOL0     H70162   6.344   1.944   4.384  1.4248 -2.6239 -0.2082
  520MOL0     H70163   6.423   2.073   4.291  0.3707 -1.3899  1.5728
  520MOL0     H70164   5.984   1.548   4.041  1.8554  1.2330 -0.0000
  520MOL0     H70165   5.760   1.543   4.176 -0.7222  3.0797  3.1327
  520MOL0     H70166   5.631   1.612   4.383 -0.1301  0.0284  0.2739
  520MOL0     H70167   5.595   1.441   4.313 -1.2198 -0.6186  1.3453
  520MOL0     H70168   5.530   1.378   4.539 -0.2764  0.8472 -0.0523
  520MOL0     H70169   5.536   1.547   4.592  1.4851  1.3819 -0.6742
  520MOL0     H70170   5.372   1.410   4.366 -2.1356  0.3593 -0.2128
  520MOL0     H70171   5.338   1.581   4.409 -2.2334 -1.4539 -1.3580
  520MOL0     H70172   5.301   1.328   4.563 -0.8202 -1.0165 -2.4441
  520MOL0     H70173   5.313   1.488   4.650  2.5203 -0.5209 -1.0539
  520MOL0     H70174   5.139   1.378   4.428  2.4836 -1.9806  0.8374
  520MOL0     H70175   5.141   1.556   4.460 -0.9992 -0.0312  1.0164
  520MOL0     H70176   5.049   1.337   4.660 -1.5006 -0.9423 -1.0385
  520MOL0     H70177   5.055   1.516   4.677  1.0214 -1.2474  1.6602
  520MOL0     H70178   4.875   1.542   4.499 -0.7603 -0.4277 -1.0234
  520MOL0     H70179   4.834   1.447   4.640 -2.2368  0.6707 -1.4442
  520MOL0     H70180   4.860   1.243   4.527 -0.0829  0.3000 -0.5453
  520MOL0     H70181   4.912   1.325   4.377  1.0900  0.8750  1.7108
  520MOL0     H70182   5.990   1.406   4.513 -1.9450 -0.1811  0.1815
  520MOL0     H70183   6.194   1.465   4.412  1.2181 -0.7785 -1.0201
  520MOL0     H70184   6.443   1.563   4.052  0.6054 -1.3203  0.6643
  520MOL0     H70185   6.665   1.624   4.012  2.7178  2.6708 -0.6547
  520MOL0     H70186   8.639   1.851   3.654  1.6286  3.2257 -0.4347
  520MOL0     H70187   8.882   1.889   3.589 -1.0415 -1.2863  0.2182
  520MOL0     H70188   9.307   1.952   3.800 -0.5745  0.1861 -0.4511
  520MOL0     H70189   9.532   1.988   3.826 -0.0886 -0.3480  0.4910
  520MOL0     H70190   9.734   2.043   3.700 -4.5257 -0.8353  2.0355
  520MOL0     H70191   9.762   1.953   3.850 -0.6810  1.1148 -0.7086
  520MOL0     H70192   9.990   2.033   3.742  3.4162 -1.7401 -3.8832
  520MOL0     H70193   9.944   1.942   3.613 -1.0850 -0.3722 -1.2829
  520MOL0     H70194  10.115   1.836   3.761 -0.2050 -2.3738 -2.7634
  520MOL0     H70195   9.964   1.731   3.757  0.9866  0.7013 -1.1834
  520MOL0     H70196  10.062   1.728   3.978 -2.3333 -1.7522 -0.4060
  520MOL0     H70197   9.903   1.804   3.985  0.4374 -0.5174  0.5104
  520MOL0     H70198  10.134   2.135   4.099  1.6180 -0.5611 -0.1487
  520MOL0     H70199   9.618   1.611   3.622 -1.3314 -1.0454 -0.3200
  520MOL0     H70200   9.381   1.576   3.586  1.9827  0.1582 -2.6009
  521MOL0     O70201  10.419  11.286   3.362 -0.5792  0.3200  0.2321
  521MOL0     C70202  10.420  11.321   3.241  0.0336  0.2395  0.6631
  521MOL0     O70203  10.328  11.411   3.185  0.4516  0.1016  1.0032
  521MOL0     C70204  10.210  11.429   3.250 -0.6658  0.5395  0.3975
  521MOL0     C70205  10.138  11.549   3.232  0.0836  0.3658 -0.4545
  521MOL0     C70206  10.017  11.581   3.296 -0.1707  0.8165 -0.2853
  521MOL0     C70207   9.953  11.476   3.374  0.7738 -0.2107 -0.4645
  521MOL0     O70208   9.838  11.496   3.445 -0.0444  0.3809 -0.3056
  521MOL0     C70209   9.739  11.565   3.375  0.0647  0.6102 -0.7475
  521MOL0     C70210   9.604  11.505   3.414 -0.4883 -0.1170  0.6391
  521MOL0     C70211   9.485  11.552   3.334  0.4069  0.2971  0.0030
  521MOL0     C70212   9.367  11.466   3.361 -0.5205 -0.0165  0.2070
  521MOL0     C70213   9.242  11.503   3.280 -0.3902  0.4653 -0.9071
  521MOL0     C70214   9.171  11.633   3.310  0.8080  0.0178  0.0864
  521MOL0     C70215   9.052  11.654   3.217  0.7076  0.4204 -0.1105
  521MOL0     C70216   8.917  11.687   3.289  0.0573 -1.0536  0.0356
  521MOL0     N70217   8.802  11.738   3.204 -0.5160 -0.2085  0.2304
  521MOL0     C70218   8.672  11.741   3.254  0.8129 -0.0762 -0.6034
  521MOL0     C70219   8.596  11.748   3.146  0.7461  0.0496  0.5556
  521MOL0     C70220   8.442  11.771   3.154  0.1566  0.2288 -0.4486
  521MOL0     C70221   8.373  11.799   3.011 -0.1132  0.9684 -0.7782
  521MOL0     C70222   8.219  11.824   3.036  0.1085 -0.8041 -0.9660
  521MOL0     C70223   8.130  11.705   3.062 -0.2218 -0.3498  0.3484
  521MOL0     O70224   7.990  11.748   3.073  0.3894 -0.5966  0.0680
  521MOL0     C70225   7.893  11.655   3.076 -0.1230 -1.0286  0.4229
  521MOL0     C70226   7.916  11.519   3.073 -0.5377  0.2775 -0.5137
  521MOL0     C70227   7.814  11.425   3.083 -0.1550  0.0396 -0.1184
  521MOL0     C70228   7.855  11.275   3.072  1.0245 -0.3321 -0.3204
  521MOL0     C70229   7.678  11.471   3.100  0.2328  0.6406  0.1172
  521MOL0     C70230   7.556  11.388   3.120  1.3126  0.5048  0.0132
  521MOL0     O70231   7.431  11.462   3.131  0.2294 -0.1552 -0.6817
  521MOL0     C70232   7.304  11.408   3.167  0.5134  1.3040 -0.8046
  521MOL0     C70233   7.193  11.493   3.149  0.0685 -0.1572 -0.3553
  521MOL0     C70234   7.065  11.451   3.180  0.3175  1.4806 -0.4676
  521MOL0     C70235   7.035  11.322   3.220 -0.0737  0.2193  0.6914
  521MOL0     O70236   6.910  11.275   3.248  0.5067  0.1048 -0.0250
  521MOL0     C70237   6.793  11.348   3.216  0.5409 -0.1248  0.4941
  521MOL0     C70238   6.720  11.394   3.345  0.6791  0.3263  0.5714
  521MOL0     C70239   6.584  11.454   3.313 -0.7442  0.2199  0.7441
  521MOL0     C70240   6.506  11.485   3.441  0.1067  0.0626 -0.0510
  521MOL0     C70241   6.392  11.579   3.408  0.1206  0.2065  0.3869
  521MOL0     C70242   6.268  11.515   3.339 -0.4780 -0.5433 -0.5475
  521MOL0     C70243   6.166  11.619   3.325  0.4732 -0.5578  0.2914
  521MOL0     C70244   6.029  11.572   3.272  0.0666  0.1357 -0.6223
  521MOL0    Cl70245   6.054  11.468   3.129  0.0344  0.2233 -0.2808
  521MOL0     C70246   7.146  11.235   3.256  0.5571 -0.5386  0.1701
  521MOL0     C70247   7.282  11.275   3.218  0.8134 -0.5330  0.2246
  521MOL0     O70248   7.564  11.263   3.114 -0.4767 -0.0112 -0.0241
  521MOL0     C70249   7.656  11.615   3.089  0.0884 -0.7606 -0.3558
  521MOL0     C70250   7.767  11.705   3.087 -0.5310  0.3309 -0.2633
  521MOL0     N70251   8.676  11.736   3.036  0.3675 -0.7037  0.8387
  521MOL0     N70252   8.797  11.722   3.067  0.6025 -0.2571  0.4046
  521MOL0     C70253  10.016  11.347   3.363  0.1230  0.1220  0.4406
  521MOL0     C70254  10.138  11.318   3.307 -0.0079 -0.6377 -0.0443
  521MOL0     C70255  10.545  11.320   3.169 -0.2773  1.2380  0.0139
  521MOL0     C70256  10.654  11.246   3.228  0.2278 -1.3478  0.4462
  521MOL0     C70257  10.781  11.249   3.168 -0.3867  0.0705  0.3167
  521MOL0     C70258  10.810  11.302   3.044  0.3060  0.0220  0.2103
  521MOL0     O70259  10.926  11.287   2.972  0.1267 -0.2028  0.1067
  521MOL0     C70260  11.014  11.182   3.024 -0.0043 -0.3118 -0.3961
  521MOL0     C70261  11.141  11.157   2.931 -1.0534  0.7602 -0.0530
  521MOL0     C70262  11.122  11.133   2.774 -0.3359 -0.0583 -0.9274
  521MOL0     C70263  11.053  10.999   2.745 -0.5737 -0.2518  1.3628
  521MOL0     C70264  10.913  11.009   2.704 -1.0256 -0.2984  0.0776
  521MOL0     C70265  10.794  11.023   2.672  0.5480 -0.0586 -0.2852
  521MOL0     C70266  10.703  11.366   2.986  0.4486  0.2384 -0.1177
  521MOL0     C70267  10.579  11.380   3.049  0.3549 -0.4812  0.0972
  521MOL0     H70268  10.179  11.629   3.172  0.5298 -1.0383 -2.1168
  521MOL0     H70269   9.974  11.680   3.302 -2.1812 -0.0941  2.1570
  521MOL0     H70270   9.722  11.669   3.405  1.8553  0.4606  0.9369
  521MOL0     H70271   9.752  11.552   3.267  2.2245 -0.1422 -0.4474
  521MOL0     H70272   9.623  11.398   3.401  1.2008  0.1448  0.7357
  521MOL0     H70273   9.596  11.526   3.521 -0.6793  2.6426  0.1699
  521MOL0     H70274   9.465  11.658   3.356 -3.9399 -0.7411  2.0277
  521MOL0     H70275   9.514  11.541   3.229 -0.1941  2.5339 -0.4656
  521MOL0     H70276   9.391  11.363   3.330  2.1304  0.5539  0.1560
  521MOL0     H70277   9.338  11.460   3.466 -1.2779 -2.1728 -0.0609
  521MOL0     H70278   9.280  11.507   3.177  2.3345  1.6128  0.0661
  521MOL0     H70279   9.173  11.418   3.281  1.2944 -0.9648 -0.8094
  521MOL0     H70280   9.141  11.634   3.415  1.1655  0.8413  0.1902
  521MOL0     H70281   9.240  11.718   3.307 -0.2930  0.9926  1.0821
  521MOL0     H70282   9.069  11.733   3.143  1.6135 -1.3489 -1.8856
  521MOL0     H70283   9.031  11.558   3.168  1.4268 -0.0716  0.5161
  521MOL0     H70284   8.932  11.761   3.368  2.9830 -0.9756 -0.4870
  521MOL0     H70285   8.887  11.599   3.347 -0.3724  0.1771  1.7735
  521MOL0     H70286   8.642  11.760   3.357  1.5796 -0.0191 -0.3877
  521MOL0     H70287   8.400  11.684   3.206  4.2329 -1.1580  0.8820
  521MOL0     H70288   8.418  11.856   3.219  0.2359  0.5360 -0.8183
  521MOL0     H70289   8.376  11.716   2.940 -1.3083  0.9771 -0.8587
  521MOL0     H70290   8.421  11.889   2.971 -2.6403  2.0673 -1.5455
  521MOL0     H70291   8.180  11.859   2.940 -2.8441  0.8454  0.6919
  521MOL0     H70292   8.206  11.911   3.101  2.1665 -0.5255 -0.8541
  521MOL0     H70293   8.174  11.636   3.134 -0.7474 -0.0248  0.9938
  521MOL0     H70294   8.134  11.643   2.972  0.2063  0.5759 -0.2862
  521MOL0     H70295   8.015  11.474   3.080 -0.0732  1.3904  0.4353
  521MOL0     H70296   7.963  11.271   3.054  1.1245  0.4935  0.0603
  521MOL0     H70297   7.828  11.219   3.162 -1.9293  0.8995 -0.3509
  521MOL0     H70298   7.803  11.230   2.987  1.3719 -0.2905 -0.5571
  521MOL0     H70299   7.206  11.592   3.107 -1.2761 -0.6691 -2.0604
  521MOL0     H70300   6.981  11.520   3.167 -2.3449 -1.7585 -1.9045
  521MOL0     H70301   6.823  11.419   3.138  1.2387 -2.0186 -1.0550
  521MOL0     H70302   6.729  11.273   3.169  1.5509  0.4454 -1.9378
  521MOL0     H70303   6.705  11.302   3.403  0.3090  1.0180  1.6099
  521MOL0     H70304   6.785  11.461   3.403  2.2351 -0.2998 -0.3783
  521MOL0     H70305   6.518  11.378   3.269  0.4758 -1.3609  1.5449
  521MOL0     H70306   6.600  11.541   3.249  0.8567 -1.1975 -0.9165
  521MOL0     H70307   6.466  11.397   3.492 -0.8035  1.6175  2.0394
  521MOL0     H70308   6.574  11.524   3.517 -0.6660 -4.4329  3.2982
  521MOL0     H70309   6.434  11.658   3.345 -0.7432  0.3353 -0.0482
  521MOL0     H70310   6.352  11.629   3.497 -2.3275  0.9350 -1.0355
  521MOL0     H70311   6.307  11.479   3.243 -2.0701 -1.0534 -1.0298
  521MOL0     H70312   6.224  11.424   3.380 -1.8473 -0.0442 -0.8580
  521MOL0     H70313   6.191  11.668   3.231 -0.5112 -1.7857 -0.6532
  521MOL0     H70314   6.156  11.683   3.413 -0.0655 -3.4427  2.4913
  521MOL0     H70315   5.969  11.659   3.243  0.6570 -0.0762 -2.6468
  521MOL0     H70316   5.978  11.518   3.352  0.1580 -0.8262 -1.1957
  521MOL0     H70317   7.122  11.135   3.291 -1.1267  0.4075  1.9020
  521MOL0     H70318   7.367  11.210   3.234  0.5102 -0.2404  3.5558
  521MOL0     H70319   7.561  11.667   3.090  1.5152  1.9997  0.0775
  521MOL0     H70320   7.760  11.813   3.083  2.5493  0.6321  0.3613
  521MOL0     H70321   9.972  11.256   3.402  2.4764 -2.6263 -2.7279
  521MOL0     H70322  10.179  11.218   3.302 -1.5911 -1.3660  0.8070
  521MOL0     H70323  10.645  11.197   3.324 -0.1699 -1.5599  0.3015
  521MOL0     H70324  10.854  11.200   3.232 -1.1793 -0.8202  0.5658
  521MOL0     H70325  11.058  11.208   3.121  1.4664 -2.2219 -0.5061
  521MOL0     H70326  10.958  11.089   3.036 -3.5307  1.5141 -1.3070
  521MOL0     H70327  11.207  11.077   2.965  2.7245  2.4391 -2.6740
  521MOL0     H70328  11.205  11.244   2.948 -1.7457  1.1563  0.6085
  521MOL0     H70329  11.218  11.149   2.722 -1.4123  3.1093 -2.2263
  521MOL0     H70330  11.058  11.217   2.746  1.7884  2.2835  0.7524
  521MOL0     H70331  11.066  10.935   2.832  0.0716 -0.0523  1.4142
  521MOL0     H70332  11.098  10.950   2.658 -2.8329 -2.8521  1.5047
  521MOL0     H70333  10.694  11.041   2.635  1.1699  1.9034 -1.1367
  521MOL0     H70334  10.722  11.413   2.890  0.1602 -1.1844 -0.9010
  521MOL0     H70335  10.509  11.449   3.003 -0.2358 -0.5857  0.8122
  522MOL0     O70336   9.616   4.249   8.239  0.4736  0.3938  0.0182
  522MOL0     C70337   9.599   4.256   8.124  0.7888  0.6039 -0.3003
  522MOL0     O70338   9.489   4.218   8.055 -0.1488 -0.8543  0.1539
  522MOL0     C70339   9.384   4.157   8.117 -0.4502  0.4860 -0.4531
  522MOL0     C70340   9.397   4.061   8.225  0.1757 -0.1528 -0.4324
  522MOL0     C70341   9.279   4.007   8.278 -0.3578 -0.3878 -0.0562
  522MOL0     C70342   9.150   4.046   8.237 -0.1435 -0.4014  0.8384
  522MOL0     O70343   9.044   3.979   8.288 -0.4757  0.2236  0.3750
  522MOL0     C70344   8.919   4.053   8.268 -0.3665  1.7388  0.2567
  522MOL0     C70345   8.840   3.995   8.394  0.2108  0.1990  0.7934
  522MOL0     C70346   8.705   4.069   8.399  0.2419  0.4972 -0.1144
  522MOL0     C70347   8.603   4.005   8.309  0.6158  0.1057 -0.1718
  522MOL0     C70348   8.468   4.079   8.318 -0.8229 -0.1260 -0.3290
  522MOL0     C70349   8.365   4.029   8.220  0.0961 -0.1850 -0.4822
  522MOL0     C70350   8.225   4.090   8.250  0.4874  0.6284 -0.4546
  522MOL0     C70351   8.122   4.059   8.144 -1.1831  0.1880 -0.2417
  522MOL0     N70352   7.992   4.125   8.170 -0.2245 -0.1515  0.1471
  522MOL0     C70353   7.892   4.092   8.255  0.7761  1.3892 -0.2819
  522MOL0     C70354   7.807   4.193   8.252  0.5475 -0.1629  0.0381
  522MOL0     C70355   7.690   4.213   8.341 -0.0239 -0.0444  0.4566
  522MOL0     C70356   7.560   4.266   8.265 -0.4091  0.3779 -0.4405
  522MOL0     C70357   7.431   4.232   8.343 -0.3779 -0.1934  0.3312
  522MOL0     C70358   7.391   4.353   8.430  0.3218  1.0571  0.3630
  522MOL0     O70359   7.351   4.468   8.357  0.0956 -0.0585 -0.3288
  522MOL0     C70360   7.215   4.459   8.331 -0.3430 -0.1716  0.4983
  522MOL0     C70361   7.114   4.500   8.421 -0.6932  0.9511 -0.2632
  522MOL0     C70362   6.981   4.503   8.377 -0.1751  0.1424 -0.4711
  522MOL0     C70363   6.890   4.588   8.469  0.0961 -0.5719  1.2585
  522MOL0     C70364   6.947   4.456   8.253  0.6174  0.4837 -0.7724
  522MOL0     C70365   6.807   4.442   8.213 -0.1830  0.0081  0.5037
  522MOL0     O70366   6.782   4.414   8.077  0.5623  0.6753  0.5259
  522MOL0     C70367   6.656   4.371   8.050  0.1609  0.3759 -0.0866
  522MOL0     C70368   6.635   4.237   8.002 -0.8309  1.0067  1.1126
  522MOL0     C70369   6.511   4.188   7.962 -0.1592  0.1640 -0.6122
  522MOL0     C70370   6.405   4.272   7.968  0.5132  0.5736 -0.5885
  522MOL0     O70371   6.285   4.215   7.916  0.0785 -0.2703 -0.4901
  522MOL0     C70372   6.178   4.304   7.912  1.0162 -0.5560 -0.2021
  522MOL0     C70373   6.050   4.209   7.898 -0.5919 -0.4975  0.2200
  522MOL0     C70374   5.916   4.278   7.915 -0.6506  0.1960 -0.5385
  522MOL0     C70375   5.888   4.383   7.806 -0.4695  1.0622 -0.0511
  522MOL0     C70376   5.739   4.420   7.788  0.0431  0.3240 -0.1684
  522MOL0     C70377   5.670   4.467   7.914 -0.1380 -0.7131  0.0574
  522MOL0     C70378   5.520   4.502   7.880 -0.1200  0.4351 -0.1240
  522MOL0     C70379   5.398   4.464   7.970 -0.8615  0.3564  0.7519
  522MOL0    Cl70380   5.234   4.507   7.904 -0.0190 -0.0628 -0.0127
  522MOL0     C70381   6.425   4.398   8.032  0.3773 -0.0213  0.0127
  522MOL0     C70382   6.549   4.446   8.058  0.3034  0.2900  0.2108
  522MOL0     O70383   6.715   4.441   8.292  0.0072  0.3613 -0.2465
  522MOL0     C70384   7.043   4.403   8.164  0.3722  0.1585 -0.1357
  522MOL0     C70385   7.172   4.408   8.207 -0.6513 -0.1881  0.2330
  522MOL0     N70386   7.869   4.302   8.193 -0.1788 -0.5312  0.2922
  522MOL0     N70387   7.983   4.260   8.151  0.0453  0.1495  0.0092
  522MOL0     C70388   9.149   4.136   8.134 -0.2202 -0.8996 -0.3246
  522MOL0     C70389   9.262   4.190   8.079 -0.4891 -0.0999 -0.1497
  522MOL0     C70390   9.713   4.299   8.047 -0.1105  0.3460 -0.4680
  522MOL0     C70391   9.702   4.287   7.909  0.4035 -0.2977  0.0779
  522MOL0     C70392   9.807   4.315   7.823 -0.3035 -0.2045 -0.9283
  522MOL0     C70393   9.928   4.355   7.887 -0.9304 -0.3499 -0.1873
  522MOL0     O70394  10.043   4.378   7.820 -0.6890  0.0805 -0.7614
  522MOL0     C70395  10.040   4.379   7.678  0.0134 -0.1852  0.5553
  522MOL0     C70396  10.103   4.258   7.617  0.0319 -0.6152  0.0209
  522MOL0     C70397  10.248   4.237   7.657  0.7098  0.7574 -0.2612
  522MOL0     C70398  10.348   4.228   7.542  0.8612 -0.4171 -0.5997
  522MOL0     C70399  10.353   4.355   7.465 -0.6535  0.4256 -0.3975
  522MOL0     C70400  10.353   4.456   7.407 -0.0998 -0.6752  0.5675
  522MOL0     C70401   9.940   4.368   8.027  0.9772 -0.1787  1.1485
  522MOL0     C70402   9.835   4.336   8.107  0.0943 -0.1943  0.9127
  522MOL0     H70403   9.499   4.036   8.254  0.9446  0.6007 -2.2904
  522MOL0     H70404   9.303   3.941   8.360  0.5419  1.6278  1.3884
  522MOL0     H70405   8.928   4.161   8.277  1.9530  1.6204 -0.0868
  522MOL0     H70406   8.880   4.019   8.171  1.7102  0.5567 -0.2237
  522MOL0     H70407   8.835   3.886   8.393 -0.8231  0.2436 -0.5595
  522MOL0     H70408   8.900   4.015   8.484  1.4760  1.9993 -0.3757
  522MOL0     H70409   8.664   4.079   8.500  0.3107  1.3009 -0.1566
  522MOL0     H70410   8.730   4.172   8.370  3.1418 -0.0285  0.1410
  522MOL0     H70411   8.639   4.005   8.206 -0.4377  0.0567 -0.5616
  522MOL0     H70412   8.588   3.902   8.343 -0.9432 -0.5126 -2.4456
  522MOL0     H70413   8.427   4.061   8.418 -0.9748 -3.4067 -0.8619
  522MOL0     H70414   8.478   4.186   8.297 -0.4366 -0.1445 -0.2458
  522MOL0     H70415   8.403   4.052   8.120  2.3398 -3.6446 -0.5887
  522MOL0     H70416   8.361   3.920   8.226  2.2437 -0.2176  3.1245
  522MOL0     H70417   8.182   4.066   8.347  2.3855 -0.1200  0.2403
  522MOL0     H70418   8.239   4.198   8.247 -2.0677  1.0647  0.4251
  522MOL0     H70419   8.110   3.950   8.146  1.4842 -0.1688 -0.3332
  522MOL0     H70420   8.162   4.091   8.048 -0.8960  1.1658  0.1961
  522MOL0     H70421   7.876   3.996   8.303  1.9488  0.0748 -2.3661
  522MOL0     H70422   7.655   4.117   8.381 -3.1564  1.1301  0.8184
  522MOL0     H70423   7.724   4.275   8.425 -1.0844  0.2920  0.6464
  522MOL0     H70424   7.552   4.211   8.171 -0.8294 -2.0596  0.9264
  522MOL0     H70425   7.578   4.372   8.248  0.6631  0.1275 -0.9110
  522MOL0     H70426   7.447   4.143   8.405 -3.6497 -0.9628  0.2491
  522MOL0     H70427   7.355   4.205   8.269  0.7328  2.1297 -1.8093
  522MOL0     H70428   7.474   4.383   8.496 -0.6391  0.3878  1.9269
  522MOL0     H70429   7.319   4.311   8.501  1.8728 -3.0013 -0.1959
  522MOL0     H70430   7.136   4.538   8.520  0.3497 -2.0589  0.7873
  522MOL0     H70431   6.835   4.536   8.548 -0.5258 -1.8370  0.0339
  522MOL0     H70432   6.956   4.666   8.507  0.1697 -0.1238  0.2490
  522MOL0     H70433   6.814   4.639   8.410  1.9000 -2.1160 -2.7488
  522MOL0     H70434   6.715   4.164   7.995 -0.9899  0.8697  0.6433
  522MOL0     H70435   6.513   4.090   7.915 -1.5966 -1.1221  1.8288
  522MOL0     H70436   6.165   4.364   8.003 -1.7524 -1.6814  0.2332
  522MOL0     H70437   6.173   4.371   7.825 -2.6148 -0.7055 -0.2765
  522MOL0     H70438   6.066   4.149   7.808  0.4323 -1.9016  1.2937
  522MOL0     H70439   6.056   4.131   7.974 -0.5884 -0.4167  0.3031
  522MOL0     H70440   5.926   4.334   8.008 -0.2396  0.9399 -1.0284
  522MOL0     H70441   5.833   4.207   7.928 -0.5487  0.1690 -0.0309
  522MOL0     H70442   5.945   4.473   7.833 -1.5408  1.5190  0.7208
  522MOL0     H70443   5.914   4.338   7.709  1.5300 -1.0466  1.3515
  522MOL0     H70444   5.695   4.328   7.747  2.2812 -1.0203  0.3099
  522MOL0     H70445   5.724   4.491   7.706 -1.3760 -0.0819 -0.2949
  522MOL0     H70446   5.664   4.389   7.991 -3.3622  0.5797  1.3325
  522MOL0     H70447   5.720   4.558   7.949 -2.0131  1.1084 -1.7154
  522MOL0     H70448   5.497   4.455   7.784 -0.1808  1.7963 -0.8056
  522MOL0     H70449   5.520   4.610   7.862 -1.6927  0.3743 -0.6605
  522MOL0     H70450   5.415   4.509   8.068  1.0716  2.3737 -0.4280
  522MOL0     H70451   5.386   4.355   7.973 -1.1267  0.3906  0.9343
  522MOL0     H70452   6.356   4.481   8.041  0.8649  0.1829  2.4731
  522MOL0     H70453   6.567   4.543   8.104 -2.0798  0.4193  1.0416
  522MOL0     H70454   7.021   4.370   8.063 -0.4810  0.2110  0.0179
  522MOL0     H70455   7.243   4.363   8.139 -1.0054  0.1295 -0.3555
  522MOL0     H70456   9.061   4.164   8.077  1.9722  0.9296 -3.1280
  522MOL0     H70457   9.268   4.267   8.004  3.0385 -1.4496 -1.4674
  522MOL0     H70458   9.603   4.267   7.869  0.1876 -1.3840  1.1047
  522MOL0     H70459   9.795   4.292   7.718 -0.1605  0.1540 -1.0241
  522MOL0     H70460   9.946   4.412   7.631 -1.2352 -1.5865  1.9613
  522MOL0     H70461  10.109   4.458   7.647  1.3911 -0.4980  2.6501
  522MOL0     H70462  10.092   4.276   7.510 -3.3890 -0.9956  0.2021
  522MOL0     H70463  10.037   4.172   7.631 -0.4354 -0.1479  0.7490
  522MOL0     H70464  10.247   4.144   7.714 -2.5686 -1.3062 -3.3231
  522MOL0     H70465  10.282   4.310   7.732  0.5862  0.4000  0.1418
  522MOL0     H70466  10.317   4.143   7.481  0.6016 -3.1904  3.0708
  522MOL0     H70467  10.448   4.200   7.575 -0.4119 -2.1969  2.1589
  522MOL0     H70468  10.345   4.548   7.352 -1.7850 -0.7114  0.6921
  522MOL0     H70469  10.033   4.404   8.071  1.4223 -2.0697  1.8579
  522MOL0     H70470   9.848   4.348   8.214  0.1604 -0.2205  0.9076
  523MOL0     O70471   7.972   0.083   5.933 -0.0774 -0.8158 -0.5206
  523MOL0     C70472   8.030   0.001   5.999  0.5401 -0.3697  1.1150
  523MOL0     O70473   7.983  -0.069   6.101 -0.3686 -0.4054  0.3886
  523MOL0     C70474   7.850  -0.098   6.104  0.3023 -0.6219 -0.4006
  523MOL0     C70475   7.772  -0.078   6.217 -0.0620 -0.4200 -0.6832
  523MOL0     C70476   7.636  -0.111   6.213  0.0718  0.4597 -0.4297
  523MOL0     C70477   7.578  -0.178   6.105  0.0912 -0.2602  0.0489
  523MOL0     O70478   7.440  -0.206   6.105  0.0416  0.1467  0.0677
  523MOL0     C70479   7.373  -0.135   5.999  0.0639 -0.1972  0.3065
  523MOL0     C70480   7.223  -0.150   6.010 -0.4720 -0.1812 -0.7664
  523MOL0     C70481   7.180  -0.298   6.020  0.7395  0.7864  0.5553
  523MOL0     C70482   7.181  -0.358   5.875 -0.0216 -0.2582  0.1277
  523MOL0     C70483   7.150  -0.504   5.869 -0.9966  0.0306  0.5693
  523MOL0     C70484   7.019  -0.552   5.931  0.7481 -0.1064 -0.0251
  523MOL0     C70485   6.893  -0.479   5.888 -0.6888  0.1994  0.6902
  523MOL0     C70486   6.767  -0.544   5.933  0.5106  0.3136 -0.7114
  523MOL0     N70487   6.644  -0.474   5.886 -0.0599  0.4125  0.3932
  523MOL0     C70488   6.582  -0.365   5.946  0.2339 -0.1193  0.4953
  523MOL0     C70489   6.479  -0.344   5.863  1.0726 -0.8318  0.5696
  523MOL0     C70490   6.368  -0.251   5.885  1.3162  0.3187  0.3528
  523MOL0     C70491   6.251  -0.320   5.961  0.3700 -0.2282 -0.3230
  523MOL0     C70492   6.190  -0.428   5.873  0.2924 -0.1854  0.5476
  523MOL0     C70493   6.046  -0.406   5.839 -0.0095 -0.2098  1.1584
  523MOL0     O70494   6.026  -0.287   5.758  0.2159 -0.4903 -0.7817
  523MOL0     C70495   5.901  -0.240   5.738  0.8019  0.0302  0.2784
  523MOL0     C70496   5.890  -0.121   5.671  0.0973  0.5710  0.6698
  523MOL0     C70497   5.768  -0.068   5.631  0.3557  0.3840  0.6325
  523MOL0     C70498   5.765   0.052   5.549 -0.3076 -0.6562 -0.9942
  523MOL0     C70499   5.653  -0.118   5.685  0.7767  0.0846  0.2703
  523MOL0     C70500   5.517  -0.048   5.671  0.0394 -1.4294 -0.5668
  523MOL0     O70501   5.426  -0.081   5.774 -0.7718 -0.4310 -0.5077
  523MOL0     C70502   5.297  -0.042   5.776  0.3628  0.3716 -0.9462
  523MOL0     C70503   5.205  -0.056   5.665 -0.6950  0.5127 -0.6182
  523MOL0     C70504   5.076   0.007   5.664  0.2066 -0.1809 -0.0172
  523MOL0     C70505   5.033   0.087   5.775  0.8548 -0.0918 -0.5450
  523MOL0     O70506   4.915   0.148   5.756  0.0411 -0.6741  0.1577
  523MOL0     C70507   4.821   0.109   5.853 -0.0478 -0.5930 -0.7392
  523MOL0     C70508   4.679   0.145   5.794 -1.0925 -0.0614 -0.2985
  523MOL0     C70509   4.564   0.081   5.865 -0.1810 -0.2978 -0.3340
  523MOL0     C70510   4.439   0.094   5.782  0.9621 -0.3676 -0.3919
  523MOL0     C70511   4.366   0.226   5.806 -0.5567  0.1738 -0.4131
  523MOL0     C70512   4.281   0.260   5.683 -0.0309  0.8730 -0.0728
  523MOL0     C70513   4.182   0.375   5.708 -0.2706  0.3175  0.2638
  523MOL0     C70514   4.047   0.317   5.771  0.8286 -0.4451 -0.0102
  523MOL0    Cl70515   3.956   0.210   5.659  0.1028 -0.0858 -0.0979
  523MOL0     C70516   5.123   0.102   5.880  0.3393  0.4475 -0.5815
  523MOL0     C70517   5.246   0.030   5.886 -0.9949 -0.3094 -0.0240
  523MOL0     O70518   5.490   0.021   5.572  0.0375  0.0145 -0.0638
  523MOL0     C70519   5.664  -0.239   5.761 -0.1610  0.1685  0.5773
  523MOL0     C70520   5.785  -0.303   5.779  0.6844 -0.6406  0.2571
  523MOL0     N70521   6.482  -0.428   5.750 -0.6512 -0.7674  0.4813
  523MOL0     N70522   6.590  -0.500   5.764  0.3841 -0.2196 -0.3802
  523MOL0     C70523   7.660  -0.211   5.994 -0.6178  0.0262 -0.5316
  523MOL0     C70524   7.796  -0.176   6.002  0.7116  0.2063 -0.3606
  523MOL0     C70525   8.168  -0.033   5.970 -0.9999  0.6459 -0.4598
  523MOL0     C70526   8.214  -0.033   5.840  0.1763 -0.1130 -0.6784
  523MOL0     C70527   8.349  -0.063   5.799  0.7338 -0.9159  0.4150
  523MOL0     C70528   8.439  -0.089   5.909 -0.5044  0.3406 -0.0719
  523MOL0     O70529   8.574  -0.127   5.886  0.5951 -0.3173  0.1197
  523MOL0     C70530   8.625  -0.130   5.755 -0.6434 -0.1727 -0.2145
  523MOL0     C70531   8.776  -0.149   5.782 -0.4488  0.6952 -0.0879
  523MOL0     C70532   8.862  -0.188   5.662  0.3236 -0.5364 -0.1347
  523MOL0     C70533   9.006  -0.164   5.684 -1.0265  0.5910  0.0119
  523MOL0     C70534   9.075  -0.171   5.552 -0.2993  0.5910  0.1375
  523MOL0     C70535   9.133  -0.204   5.451  0.6476 -0.3199  0.2218
  523MOL0     C70536   8.387  -0.091   6.041  0.0420  0.1791 -0.2748
  523MOL0     C70537   8.257  -0.067   6.073  0.4569  0.2261 -0.6955
  523MOL0     H70538   7.813  -0.036   6.308 -0.1901  0.1379 -0.8777
  523MOL0     H70539   7.573  -0.096   6.300  0.9466  1.2175  0.0992
  523MOL0     H70540   7.383  -0.026   5.999 -1.7664  0.0037  0.8876
  523MOL0     H70541   7.411  -0.163   5.900  1.6569 -1.3479  1.1977
  523MOL0     H70542   7.196  -0.102   6.104  1.7114  0.6698 -0.5106
  523MOL0     H70543   7.161  -0.091   5.942 -2.1801  0.7767  1.4797
  523MOL0     H70544   7.234  -0.365   6.087 -1.2107 -2.6771 -1.0340
  523MOL0     H70545   7.081  -0.299   6.065  0.1967  0.5408 -0.5939
  523MOL0     H70546   7.100  -0.313   5.819 -1.3290 -1.8793  0.6335
  523MOL0     H70547   7.272  -0.343   5.817 -0.0501  3.5867  0.8158
  523MOL0     H70548   7.175  -0.547   5.772  0.4002  1.4041  0.2788
  523MOL0     H70549   7.230  -0.557   5.921  0.4662 -0.2512 -1.8296
  523MOL0     H70550   7.012  -0.659   5.909  1.5447 -0.7726  2.6168
  523MOL0     H70551   7.026  -0.539   6.039 -0.8303  2.3547 -0.1486
  523MOL0     H70552   6.885  -0.374   5.917 -1.3613 -0.0081  1.3067
  523MOL0     H70553   6.880  -0.489   5.780 -2.1443 -2.4488  1.0177
  523MOL0     H70554   6.775  -0.555   6.042  0.8833  1.4365 -0.6173
  523MOL0     H70555   6.771  -0.643   5.886 -1.5846 -0.9791  1.5759
  523MOL0     H70556   6.600  -0.315   6.040 -1.5153 -1.9704  1.8885
  523MOL0     H70557   6.389  -0.156   5.935  0.0627  1.5169 -1.2863
  523MOL0     H70558   6.333  -0.219   5.786 -0.8510 -0.2462  0.8701
  523MOL0     H70559   6.182  -0.237   5.978  1.3647  0.2824  1.4944
  523MOL0     H70560   6.290  -0.364   6.053  1.7850 -0.1650 -0.8643
  523MOL0     H70561   6.204  -0.517   5.934 -1.9931 -0.3780  0.8646
  523MOL0     H70562   6.243  -0.431   5.777  1.3684 -1.3171  1.1550
  523MOL0     H70563   5.997  -0.397   5.936 -0.7735  0.7613  0.6880
  523MOL0     H70564   6.004  -0.491   5.785 -0.4760 -0.8954  2.5398
  523MOL0     H70565   5.979  -0.062   5.655  0.8096 -1.0931 -2.3756
  523MOL0     H70566   5.853   0.080   5.490 -1.0252  2.7393 -0.6470
  523MOL0     H70567   5.700   0.039   5.462  1.9511  1.1785 -3.1156
  523MOL0     H70568   5.744   0.141   5.609 -1.3389 -2.0651  0.8408
  523MOL0     H70569   5.241  -0.098   5.572  0.0490 -1.5211  0.5203
  523MOL0     H70570   5.002  -0.001   5.585 -0.8635  0.9866  0.8264
  523MOL0     H70571   4.836   0.003   5.872 -0.0086 -0.6693 -1.1770
  523MOL0     H70572   4.837   0.161   5.948  0.9100  0.2313 -1.3265
  523MOL0     H70573   4.657   0.252   5.787 -0.9791  0.3029  3.0219
  523MOL0     H70574   4.688   0.125   5.687  2.3361  0.1654 -0.1588
  523MOL0     H70575   4.550   0.120   5.966 -2.1966  2.1856 -1.4461
  523MOL0     H70576   4.586  -0.026   5.876  0.0418 -0.3394 -1.0816
  523MOL0     H70577   4.462   0.066   5.679 -1.4198 -2.2799 -0.5006
  523MOL0     H70578   4.353   0.033   5.813 -1.3156  2.7428 -0.0547
  523MOL0     H70579   4.444   0.300   5.825 -1.7327  0.9410  1.8693
  523MOL0     H70580   4.302   0.215   5.894  0.3515  1.9801  0.5489
  523MOL0     H70581   4.348   0.291   5.602  1.2877 -0.5341  0.4358
  523MOL0     H70582   4.227   0.170   5.652 -0.3566 -0.1620  3.1399
  523MOL0     H70583   4.158   0.411   5.608 -0.4022 -3.4352 -1.2393
  523MOL0     H70584   4.214   0.457   5.773 -3.7598  0.4676  2.0431
  523MOL0     H70585   3.982   0.397   5.807 -0.1215 -0.8472 -0.7811
  523MOL0     H70586   4.078   0.258   5.859  2.8818  1.6972  0.8133
  523MOL0     H70587   5.115   0.155   5.974  0.1896 -0.3745 -0.1218
  523MOL0     H70588   5.306   0.063   5.971 -3.1257  4.9300 -0.1793
  523MOL0     H70589   5.571  -0.286   5.792 -0.8326  1.9018  1.2932
  523MOL0     H70590   5.800  -0.393   5.839  0.3802 -0.6986  0.2488
  523MOL0     H70591   7.616  -0.261   5.908 -2.3324  1.0771 -0.3191
  523MOL0     H70592   7.861  -0.208   5.921  0.8794 -1.5483  0.4021
  523MOL0     H70593   8.135  -0.016   5.768 -0.9073  0.8736  0.6767
  523MOL0     H70594   8.385  -0.073   5.697 -1.2598 -1.8577 -0.2449
  523MOL0     H70595   8.580  -0.214   5.702  1.6566 -3.2904  2.3521
  523MOL0     H70596   8.607  -0.035   5.703  1.4861  2.5994  3.5946
  523MOL0     H70597   8.785  -0.220   5.865 -1.7283  2.2678  1.4779
  523MOL0     H70598   8.816  -0.053   5.816  1.5887  0.2036 -0.9473
  523MOL0     H70599   8.827  -0.128   5.577  0.7513 -0.8307 -0.5205
  523MOL0     H70600   8.844  -0.294   5.645  0.1917 -0.6057  0.4209
  523MOL0     H70601   9.058  -0.243   5.739 -0.5167 -0.3083 -1.6766
  523MOL0     H70602   9.022  -0.078   5.750 -0.6347 -2.4116  4.2070
  523MOL0     H70603   9.177  -0.216   5.354 -1.2550  0.5150 -0.7968
  523MOL0     H70604   8.444  -0.100   6.133 -0.8250 -0.6165  0.2103
  523MOL0     H70605   8.228  -0.078   6.176  0.1257  0.6883 -0.7353
  524MOL0     O70606   7.457   3.955  10.028 -0.3133  0.3757 -0.5104
  524MOL0     C70607   7.445   3.962  10.150  0.4425  0.5250  0.4459
  524MOL0     O70608   7.328   3.992  10.207 -0.3190  1.0124  0.1928
  524MOL0     C70609   7.239   4.071  10.130 -0.5437 -0.0564  0.5106
  524MOL0     C70610   7.157   4.021  10.034  0.0265 -0.0130  0.2220
  524MOL0     C70611   7.068   4.103   9.970  0.4907 -0.2363 -0.2028
  524MOL0     C70612   7.054   4.244  10.003 -0.6832  0.8758  0.0007
  524MOL0     O70613   6.962   4.327   9.949 -0.0973 -0.1997  0.2452
  524MOL0     C70614   6.924   4.323   9.809  0.1391 -0.1330  0.9841
  524MOL0     C70615   6.859   4.453   9.771  0.0406 -0.6771  0.6036
  524MOL0     C70616   6.715   4.478   9.845 -0.4931  1.1046  0.4712
  524MOL0     C70617   6.623   4.578   9.775  0.0550 -0.5236 -0.5492
  524MOL0     C70618   6.553   4.512   9.659 -0.0742 -0.6460 -0.0722
  524MOL0     C70619   6.454   4.599   9.591  0.2967 -0.2825 -0.1768
  524MOL0     C70620   6.317   4.610   9.667 -0.7850 -0.3320  0.0706
  524MOL0     C70621   6.193   4.672   9.582  0.1601 -0.5365  0.4408
  524MOL0     N70622   6.089   4.727   9.677 -0.6964  0.0353 -0.6342
  524MOL0     C70623   5.985   4.663   9.729 -0.1542  0.5639 -0.9643
  524MOL0     C70624   5.901   4.757   9.771  0.0921 -0.5836 -0.4389
  524MOL0     C70625   5.772   4.727   9.845  0.9734 -0.4995  0.2330
  524MOL0     C70626   5.659   4.832   9.822 -0.0362  0.0400  0.5428
  524MOL0     C70627   5.609   4.836   9.677  0.0360 -0.2633  0.3578
  524MOL0     C70628   5.496   4.931   9.651  0.0123 -0.1112 -0.6722
  524MOL0     O70629   5.372   4.888   9.690  0.3904  1.0911 -0.6056
  524MOL0     C70630   5.258   4.967   9.689 -0.1488  0.3293 -0.2013
  524MOL0     C70631   5.144   4.889   9.702  0.4546 -0.6804 -0.3149
  524MOL0     C70632   5.018   4.954   9.710 -0.5208 -0.6050 -0.2217
  524MOL0     C70633   4.888   4.873   9.723 -0.1371  0.0740 -0.4473
  524MOL0     C70634   5.009   5.096   9.723  0.2353 -0.5076  0.3494
  524MOL0     C70635   4.890   5.170   9.760  0.0339 -0.1537  0.3696
  524MOL0     O70636   4.779   5.158   9.688 -0.5930 -0.4735  0.8421
  524MOL0     C70637   4.665   5.231   9.719  1.2554  0.6551 -0.4661
  524MOL0     C70638   4.592   5.202   9.835 -0.3465 -0.3833  0.0166
  524MOL0     C70639   4.474   5.260   9.870  0.1898 -0.1480  0.0562
  524MOL0     C70640   4.422   5.360   9.794  0.4050 -0.5681 -0.4962
  524MOL0     O70641   4.302   5.412   9.827 -0.6176 -0.3869 -0.0085
  524MOL0     C70642   4.207   5.436   9.721 -1.0987  0.1931  0.1843
  524MOL0     C70643   4.187   5.585   9.675 -0.6337  0.3948  0.1873
  524MOL0     C70644   4.091   5.594   9.556 -0.1819  0.2585  0.0032
  524MOL0     C70645   3.972   5.503   9.575  0.0945 -0.3981  0.5937
  524MOL0     C70646   3.894   5.518   9.444  0.2151  0.0803  0.3216
  524MOL0     C70647   3.774   5.425   9.459  0.0994 -0.3579  0.0672
  524MOL0     C70648   3.724   5.407   9.313 -0.4190 -0.3927 -0.9887
  524MOL0     C70649   3.620   5.299   9.307 -0.3404 -0.2906  0.8918
  524MOL0    Cl70650   3.704   5.138   9.303  0.2916  0.1456  0.1700
  524MOL0     C70651   4.496   5.402   9.671 -0.2698 -0.5420 -0.5231
  524MOL0     C70652   4.612   5.329   9.634 -0.0161  1.1798  0.5879
  524MOL0     O70653   4.908   5.251   9.848 -0.2851  0.0934 -0.3895
  524MOL0     C70654   5.130   5.166   9.720 -0.3090 -1.0591  0.8938
  524MOL0     C70655   5.251   5.101   9.696  0.0820  0.0114  0.1351
  524MOL0     N70656   5.955   4.883   9.747  0.2561 -0.1038 -0.4475
  524MOL0     N70657   6.073   4.857   9.703  0.3406 -0.5394 -0.1995
  524MOL0     C70658   7.139   4.294  10.101 -0.2020 -0.0728  0.5777
  524MOL0     C70659   7.228   4.202  10.161 -0.2682 -0.6547  1.1882
  524MOL0     C70660   7.555   3.913  10.235  1.4493 -0.6331  0.1024
  524MOL0     C70661   7.540   3.898  10.379 -0.5895  0.1611  0.6132
  524MOL0     C70662   7.639   3.844  10.460  0.9298  0.5066  0.3935
  524MOL0     C70663   7.760   3.810  10.409  0.0586  1.8325  0.6844
  524MOL0     O70664   7.863   3.753  10.484 -0.2884  1.3746  0.4805
  524MOL0     C70665   7.840   3.713  10.621  0.0629  0.4475  0.9576
  524MOL0     C70666   7.940   3.598  10.662  0.5152  0.2541  0.4212
  524MOL0     C70667   8.085   3.644  10.681  0.4598 -0.8608  0.2557
  524MOL0     C70668   8.167   3.527  10.728 -0.8837  0.2529 -0.0148
  524MOL0     C70669   8.303   3.581  10.745 -0.6304  0.2215  0.6976
  524MOL0     C70670   8.420   3.620  10.753  0.4005 -1.0310  0.1429
  524MOL0     C70671   7.786   3.831  10.275  0.3964  0.0685  1.0912
  524MOL0     C70672   7.681   3.884  10.190 -0.6206  0.4629  0.2053
  524MOL0     H70673   7.178   3.917  10.010  2.2755  0.5315 -0.4353
  524MOL0     H70674   6.998   4.061   9.898  0.7137 -3.8372  1.4449
  524MOL0     H70675   7.017   4.324   9.751 -0.0545 -0.5280  0.6616
  524MOL0     H70676   6.860   4.239   9.784  0.1069  0.1385  0.1078
  524MOL0     H70677   6.925   4.540   9.784 -0.7083  0.1011 -0.5781
  524MOL0     H70678   6.839   4.438   9.664 -0.2770  0.4893  0.4817
  524MOL0     H70679   6.664   4.383   9.862  3.2275 -0.8981  1.6652
  524MOL0     H70680   6.741   4.521   9.942 -1.9530 -0.5263  1.6297
  524MOL0     H70681   6.558   4.620   9.852 -0.3149 -0.7752 -0.7216
  524MOL0     H70682   6.681   4.657   9.727  0.6377 -0.2893  0.5234
  524MOL0     H70683   6.623   4.456   9.596 -1.1577 -0.0380 -1.8998
  524MOL0     H70684   6.501   4.426   9.704  0.2129 -1.0736 -0.5384
  524MOL0     H70685   6.492   4.695   9.555  1.3908 -0.4704  0.4360
  524MOL0     H70686   6.433   4.536   9.503  5.5952 -1.1359 -1.1526
  524MOL0     H70687   6.287   4.512   9.704  2.5653 -1.4868  0.0659
  524MOL0     H70688   6.327   4.672   9.757 -0.5336 -2.1833  1.3664
  524MOL0     H70689   6.140   4.612   9.507 -3.8478  2.9257  0.0846
  524MOL0     H70690   6.235   4.750   9.518 -1.0560 -0.1012  0.1438
  524MOL0     H70691   5.974   4.555   9.735  1.6688  0.2619 -2.2809
  524MOL0     H70692   5.736   4.632   9.804 -1.4369  0.5360 -0.2424
  524MOL0     H70693   5.804   4.722   9.949  2.2028  1.5548  0.0264
  524MOL0     H70694   5.695   4.933   9.840  2.7106 -0.2533 -2.3730
  524MOL0     H70695   5.572   4.805   9.883 -0.3398  1.7168  0.9030
  524MOL0     H70696   5.576   4.740   9.638  0.4049  0.8832 -3.0550
  524MOL0     H70697   5.691   4.868   9.612 -0.4725  1.1359  0.3703
  524MOL0     H70698   5.501   4.959   9.546 -0.8530 -1.2474 -1.0226
  524MOL0     H70699   5.528   5.022   9.704 -0.8654 -1.8426  3.2174
  524MOL0     H70700   5.142   4.781   9.699 -1.9556 -0.6836 -0.5305
  524MOL0     H70701   4.824   4.937   9.786  0.2968  0.7678 -0.7043
  524MOL0     H70702   4.861   4.839   9.623 -1.6382  1.4741 -0.5682
  524MOL0     H70703   4.903   4.779   9.777 -2.3202  0.3129  0.7115
  524MOL0     H70704   4.631   5.127   9.903 -1.2866  1.5865  2.9215
  524MOL0     H70705   4.447   5.210   9.962  1.9724 -1.9230 -0.3077
  524MOL0     H70706   4.231   5.368   9.640 -0.9048  0.9947 -0.4472
  524MOL0     H70707   4.117   5.401   9.773 -0.0081 -1.0384  1.3131
  524MOL0     H70708   4.156   5.653   9.756  0.0473 -1.6059  2.2264
  524MOL0     H70709   4.288   5.614   9.646  0.5188 -1.1140  2.3867
  524MOL0     H70710   4.147   5.560   9.469 -1.3108  0.0912 -0.6707
  524MOL0     H70711   4.056   5.695   9.534  3.2783  1.9754  1.5708
  524MOL0     H70712   4.007   5.401   9.593 -1.5442 -0.4416  4.7882
  524MOL0     H70713   3.918   5.531   9.666  1.6389  2.0890  0.8454
  524MOL0     H70714   3.959   5.481   9.364  1.0140  0.6180  0.7136
  524MOL0     H70715   3.851   5.618   9.431 -1.9736 -1.1008 -2.9317
  524MOL0     H70716   3.804   5.327   9.496 -0.3901 -1.3190 -1.9535
  524MOL0     H70717   3.693   5.466   9.520  0.3075 -0.8250  0.6646
  524MOL0     H70718   3.802   5.386   9.240 -0.1885  2.1075 -1.5537
  524MOL0     H70719   3.677   5.502   9.286  1.1044  1.8810  3.3821
  524MOL0     H70720   3.567   5.325   9.215  2.5001 -1.0951 -1.0845
  524MOL0     H70721   3.553   5.306   9.393 -0.1847  1.8612  0.8980
  524MOL0     H70722   4.468   5.485   9.606 -0.3758 -1.0469 -1.1267
  524MOL0     H70723   4.667   5.340   9.540 -1.6481 -1.7361 -0.8423
  524MOL0     H70724   5.127   5.275   9.720  1.2669 -0.9906  1.0155
  524MOL0     H70725   5.338   5.164   9.682 -0.4486  0.3604 -1.9285
  524MOL0     H70726   7.126   4.398  10.127  3.5253  0.9368 -0.9889
  524MOL0     H70727   7.297   4.247  10.232  2.7897 -2.5600 -0.3470
  524MOL0     H70728   7.445   3.929  10.422 -0.0627  1.7750  0.6966
  524MOL0     H70729   7.602   3.825  10.560 -4.6690 -1.3288 -1.5706
  524MOL0     H70730   7.856   3.792  10.695  0.9474  0.4391  0.7882
  524MOL0     H70731   7.742   3.665  10.623  0.6092 -0.9075 -0.9728
  524MOL0     H70732   7.943   3.517  10.589  1.8502  0.4614  0.2220
  524MOL0     H70733   7.906   3.562  10.759 -0.0479 -0.2729  0.0316
  524MOL0     H70734   8.083   3.725  10.755 -1.1862 -0.6581  0.0324
  524MOL0     H70735   8.127   3.679  10.586  1.1078 -0.8138  0.5560
  524MOL0     H70736   8.159   3.449  10.652 -1.6243  2.4311 -2.3295
  524MOL0     H70737   8.133   3.508  10.830  4.0472  1.0949  2.0846
  524MOL0     H70738   8.515   3.668  10.752 -0.1145  0.0717 -2.3487
  524MOL0     H70739   7.886   3.805  10.240  1.4657  2.6718  1.9449
  524MOL0     H70740   7.706   3.906  10.087 -1.9588  0.5074 -0.1163
  525MOL0     O70741   2.233   4.832   4.411 -0.4414 -0.0864  0.1858
  525MOL0     C70742   2.310   4.845   4.314 -0.5733 -0.1470 -0.3942
  525MOL0     O70743   2.325   4.964   4.234  0.5122 -0.2336 -0.1868
  525MOL0     C70744   2.241   5.066   4.263  0.0621  0.5562  0.8442
  525MOL0     C70745   2.144   5.111   4.173  0.2230  0.3899  0.5559
  525MOL0     C70746   2.056   5.216   4.197  0.5343  0.0845 -0.4358
  525MOL0     C70747   2.083   5.288   4.321  0.7398 -0.5997 -0.0528
  525MOL0     O70748   2.006   5.405   4.338 -0.7450 -0.8273  0.4406
  525MOL0     C70749   1.996   5.476   4.463  0.2785  0.3449 -0.7041
  525MOL0     C70750   2.062   5.612   4.458  0.4331  0.4211 -0.2136
  525MOL0     C70751   2.207   5.613   4.437 -0.7730 -0.1953  0.1642
  525MOL0     C70752   2.250   5.758   4.448  0.8039 -0.2003  0.0936
  525MOL0     C70753   2.384   5.783   4.376 -0.3794 -0.1811  0.1285
  525MOL0     C70754   2.502   5.738   4.455 -0.1758 -1.1381  0.0471
  525MOL0     C70755   2.548   5.591   4.443  0.1131 -0.2255 -0.3397
  525MOL0     C70756   2.696   5.567   4.499  0.8932  0.5387 -0.2152
  525MOL0     N70757   2.788   5.599   4.389  0.5527  0.5140  0.3525
  525MOL0     C70758   2.879   5.510   4.344 -0.0646 -0.0007 -0.9895
  525MOL0     C70759   2.954   5.573   4.255  0.0115  0.0150 -0.4391
  525MOL0     C70760   3.076   5.519   4.185  0.0559  0.1030  0.7101
  525MOL0     C70761   3.179   5.434   4.271  0.6427  0.4382  0.8880
  525MOL0     C70762   3.235   5.504   4.400 -0.3379 -0.0782 -0.2009
  525MOL0     C70763   3.328   5.413   4.492  0.1890  0.2949  0.1100
  525MOL0     O70764   3.260   5.293   4.527  0.5525 -0.5235  0.4050
  525MOL0     C70765   3.151   5.301   4.608 -0.3218 -0.5143 -0.0654
  525MOL0     C70766   3.084   5.188   4.621  0.5058 -0.7088  0.0210
  525MOL0     C70767   2.957   5.176   4.681  0.7467 -0.2531 -0.9439
  525MOL0     C70768   2.883   5.049   4.685  0.3821  0.7042 -0.1712
  525MOL0     C70769   2.909   5.295   4.754  0.3546 -0.0830 -0.2082
  525MOL0     C70770   2.780   5.281   4.816 -0.2191 -1.3021  0.4171
  525MOL0     O70771   2.668   5.322   4.743 -0.4492 -0.3900  0.2082
  525MOL0     C70772   2.548   5.259   4.789  0.3383  0.1922  0.3348
  525MOL0     C70773   2.482   5.294   4.902 -0.5358 -0.3003  0.1945
  525MOL0     C70774   2.366   5.230   4.945 -0.6303 -0.5301 -0.0265
  525MOL0     C70775   2.308   5.127   4.876  0.5713  0.2679  0.9476
  525MOL0     O70776   2.193   5.070   4.924 -0.3953 -0.2694 -0.3347
  525MOL0     C70777   2.124   4.981   4.834  0.4692  1.0991  0.3285
  525MOL0     C70778   2.041   5.051   4.727  0.6640 -0.0206  0.5887
  525MOL0     C70779   1.927   4.960   4.679 -0.0382 -0.1557 -0.1615
  525MOL0     C70780   1.803   5.017   4.598 -0.5994 -0.3072  0.0404
  525MOL0     C70781   1.864   5.085   4.475  0.7800  0.4677  0.5179
  525MOL0     C70782   1.762   5.131   4.376  0.7093  0.3253 -0.0334
  525MOL0     C70783   1.666   5.229   4.434  0.1324 -0.9061  0.2929
  525MOL0     C70784   1.590   5.307   4.324 -0.1877  0.0516 -0.3067
  525MOL0    Cl70785   1.694   5.440   4.260 -0.1353  0.3375 -0.2001
  525MOL0     C70786   2.382   5.082   4.764  0.0678 -0.2469 -0.3038
  525MOL0     C70787   2.497   5.143   4.725 -0.6978 -0.1653  0.3146
  525MOL0     O70788   2.776   5.245   4.930 -0.0385  0.6891  0.2228
  525MOL0     C70789   2.987   5.410   4.759 -0.2529 -0.1023 -0.0671
  525MOL0     C70790   3.112   5.412   4.687  0.5975 -0.6416  0.8323
  525MOL0     N70791   2.910   5.707   4.261  0.1684 -0.3510  0.0750
  525MOL0     N70792   2.806   5.719   4.336  0.3949 -0.4182 -0.1847
  525MOL0     C70793   2.179   5.237   4.414  0.3934 -0.6689  0.6313
  525MOL0     C70794   2.258   5.132   4.383 -0.0508  0.1517 -0.3374
  525MOL0     C70795   2.390   4.726   4.283 -1.1483 -0.4923 -0.2883
  525MOL0     C70796   2.494   4.734   4.188 -0.7171  0.4263  0.3096
  525MOL0     C70797   2.572   4.623   4.148 -0.4084  0.7881 -0.6592
  525MOL0     C70798   2.543   4.494   4.200  0.4415  0.0150 -0.8683
  525MOL0     O70799   2.603   4.377   4.165 -0.0753 -0.3449  0.5327
  525MOL0     C70800   2.685   4.367   4.053 -0.5963 -0.7745  0.4662
  525MOL0     C70801   2.661   4.226   3.980 -0.3343 -0.3706  0.0204
  525MOL0     C70802   2.735   4.126   4.049 -0.5876  0.9151 -0.2273
  525MOL0     C70803   2.851   4.069   3.958 -0.1615 -0.1253 -0.5843
  525MOL0     C70804   2.913   3.950   4.027  0.0038  0.0789 -0.6880
  525MOL0     C70805   2.985   3.876   4.083  0.4081 -0.1806 -0.8651
  525MOL0     C70806   2.433   4.485   4.291 -0.2096 -0.1704  0.1772
  525MOL0     C70807   2.362   4.595   4.329 -0.6177  0.1326 -0.9111
  525MOL0     H70808   2.140   5.043   4.088  2.3096 -1.7195  2.0187
  525MOL0     H70809   1.976   5.240   4.128 -0.7989  0.1145  1.0742
  525MOL0     H70810   1.890   5.496   4.482  0.0444  0.4055 -1.9910
  525MOL0     H70811   2.025   5.415   4.549 -2.5125  0.9314  0.7722
  525MOL0     H70812   2.013   5.665   4.376  3.0518 -0.6686 -2.6191
  525MOL0     H70813   2.043   5.665   4.552  0.1638  2.8673 -1.5592
  525MOL0     H70814   2.253   5.554   4.516  0.0950 -3.2576 -2.4134
  525MOL0     H70815   2.238   5.567   4.343 -1.4340 -0.5333  0.1075
  525MOL0     H70816   2.175   5.822   4.402  1.0943  0.7414  0.9137
  525MOL0     H70817   2.259   5.784   4.554  1.8431 -1.8187  0.4466
  525MOL0     H70818   2.397   5.746   4.274 -0.7416 -2.6539  0.9275
  525MOL0     H70819   2.392   5.892   4.373 -0.1410 -0.2166 -1.8344
  525MOL0     H70820   2.587   5.797   4.421 -0.0432 -0.7655  0.9957
  525MOL0     H70821   2.485   5.761   4.561 -0.6509 -0.5098 -0.1575
  525MOL0     H70822   2.486   5.526   4.506 -0.2220  0.8232  0.4249
  525MOL0     H70823   2.536   5.567   4.337  1.1886  2.8217 -1.2322
  525MOL0     H70824   2.697   5.461   4.524 -2.2563  0.4173 -0.3039
  525MOL0     H70825   2.726   5.626   4.587  2.7838  0.6102 -0.8542
  525MOL0     H70826   2.895   5.406   4.374  2.4598  0.2602 -1.2057
  525MOL0     H70827   3.041   5.453   4.105 -2.2171  0.4567  1.3514
  525MOL0     H70828   3.126   5.602   4.135 -0.7265 -0.0176 -0.3121
  525MOL0     H70829   3.261   5.407   4.204  1.0432 -0.3807  1.6967
  525MOL0     H70830   3.127   5.355   4.326 -0.9392  2.9195  3.2024
  525MOL0     H70831   3.157   5.545   4.464 -0.7363 -1.6437  0.3642
  525MOL0     H70832   3.301   5.584   4.366  0.1270 -0.8228 -1.1138
  525MOL0     H70833   3.374   5.462   4.578  1.5591 -1.3158  0.3616
  525MOL0     H70834   3.415   5.385   4.431 -0.5261 -2.2028  0.1279
  525MOL0     H70835   3.119   5.091   4.586 -1.6482 -1.8976  0.9352
  525MOL0     H70836   2.846   5.019   4.783  1.3215 -2.2237 -0.6307
  525MOL0     H70837   2.795   5.056   4.621 -0.0064 -1.4058  0.0817
  525MOL0     H70838   2.942   4.960   4.665 -1.8688 -1.8863  3.4835
  525MOL0     H70839   2.528   5.370   4.964 -0.3535 -0.3491  0.1201
  525MOL0     H70840   2.317   5.257   5.037  1.2462 -0.4961  1.0107
  525MOL0     H70841   2.201   4.909   4.803  0.3365  0.1491  2.0588
  525MOL0     H70842   2.064   4.915   4.898  1.1799  0.6560  0.5616
  525MOL0     H70843   1.986   5.136   4.768 -1.5432 -1.7875  1.5178
  525MOL0     H70844   2.104   5.093   4.647  1.6960  1.6262  2.1924
  525MOL0     H70845   1.877   4.920   4.767 -1.5857 -0.0410 -0.9480
  525MOL0     H70846   1.969   4.879   4.619  0.0492  0.1487 -0.5207
  525MOL0     H70847   1.746   4.933   4.559 -1.1685 -0.0971  0.4111
  525MOL0     H70848   1.751   5.089   4.663  0.6075  1.1353 -0.5257
  525MOL0     H70849   1.924   5.004   4.432 -2.1798 -1.2494 -0.6803
  525MOL0     H70850   1.924   5.173   4.498  1.4278  0.6339 -1.5290
  525MOL0     H70851   1.818   5.184   4.298 -0.3843  0.8970 -0.4509
  525MOL0     H70852   1.713   5.048   4.324 -1.5013  4.1381 -4.8656
  525MOL0     H70853   1.713   5.300   4.502  0.1900 -0.8052  0.1498
  525MOL0     H70854   1.592   5.173   4.491 -1.3174  1.5674  0.9887
  525MOL0     H70855   1.495   5.334   4.371 -1.3993 -1.6488 -1.6417
  525MOL0     H70856   1.575   5.236   4.242  1.7029 -0.6454 -0.0986
  525MOL0     H70857   2.341   4.999   4.707 -1.9824 -0.7533  1.7724
  525MOL0     H70858   2.560   5.106   4.646 -3.6015 -2.5756 -1.0660
  525MOL0     H70859   2.957   5.487   4.829  2.7847 -0.9117  2.3331
  525MOL0     H70860   3.167   5.505   4.682 -0.2686 -0.1305  0.7844
  525MOL0     H70861   2.198   5.296   4.503 -0.8526  0.1452  0.3781
  525MOL0     H70862   2.333   5.092   4.450  1.2470 -1.6191 -2.7080
  525MOL0     H70863   2.526   4.833   4.157 -1.0469  0.8937  1.4320
  525MOL0     H70864   2.650   4.643   4.076 -1.3944  1.3880 -1.5958
  525MOL0     H70865   2.679   4.452   3.983  1.2211 -0.0052  1.1798
  525MOL0     H70866   2.788   4.368   4.090  0.1114  0.1046 -1.3946
  525MOL0     H70867   2.694   4.238   3.876 -2.0741 -4.4534 -1.1888
  525MOL0     H70868   2.556   4.196   3.975  0.2482 -2.7136  0.6272
  525MOL0     H70869   2.667   4.046   4.080 -0.7255  0.9519 -0.4348
  525MOL0     H70870   2.783   4.159   4.141  0.7603 -0.9062 -0.2042
  525MOL0     H70871   2.924   4.149   3.943  0.6190  0.0008  2.9255
  525MOL0     H70872   2.807   4.034   3.864 -0.7715 -1.2732  0.1044
  525MOL0     H70873   3.043   3.806   4.139 -0.2313  2.2721  3.2796
  525MOL0     H70874   2.404   4.388   4.332 -0.1751 -0.5958 -0.7790
  525MOL0     H70875   2.284   4.584   4.404  0.6496 -0.6935  0.3178
  526MOL0     O70876   6.189   5.090   3.735  0.7822  0.1571 -0.3610
  526MOL0     C70877   6.223   5.135   3.841  0.3149 -0.0377 -0.4646
  526MOL0     O70878   6.144   5.171   3.945 -0.2246  0.5618  0.3629
  526MOL0     C70879   6.003   5.163   3.941  0.9335  0.1663  0.0286
  526MOL0     C70880   5.934   5.201   3.822  0.5000 -0.0588 -0.5020
  526MOL0     C70881   5.790   5.173   3.810  0.1197  0.5075  0.6154
  526MOL0     C70882   5.726   5.123   3.923  0.0475  0.3553  0.5301
  526MOL0     O70883   5.588   5.126   3.942  0.3662  0.5513 -0.0123
  526MOL0     C70884   5.509   5.068   3.845  0.2714  0.5510  0.3966
  526MOL0     C70885   5.401   4.985   3.910 -1.1423 -0.6817 -0.4064
  526MOL0     C70886   5.307   4.943   3.796  0.1271 -0.9616  0.0449
  526MOL0     C70887   5.166   4.911   3.848  0.1358  0.5552  0.1353
  526MOL0     C70888   5.079   4.902   3.719  0.1551  0.1416  0.4621
  526MOL0     C70889   4.926   4.890   3.764 -0.1188  0.8226  0.3361
  526MOL0     C70890   4.841   4.903   3.631 -0.2336 -0.0575  0.3539
  526MOL0     C70891   4.694   4.894   3.657  0.3652  0.2221 -0.0229
  526MOL0     N70892   4.642   5.019   3.694 -0.4262 -0.3512 -0.3307
  526MOL0     C70893   4.592   5.114   3.603  0.3826 -0.3852  0.3105
  526MOL0     C70894   4.580   5.225   3.675  0.0507 -0.1008  0.2013
  526MOL0     C70895   4.552   5.370   3.636  0.0742 -0.6381  0.0308
  526MOL0     C70896   4.450   5.422   3.732  0.2391 -0.5454  0.1100
  526MOL0     C70897   4.305   5.392   3.688  0.1712  1.2555  0.5392
  526MOL0     C70898   4.202   5.462   3.775 -0.1389  0.1980  0.4224
  526MOL0     O70899   4.076   5.388   3.782  0.3361 -0.7115 -0.3971
  526MOL0     C70900   3.959   5.457   3.811 -1.4364  0.4572 -0.5767
  526MOL0     C70901   3.848   5.418   3.746  0.0454 -0.4401 -0.8559
  526MOL0     C70902   3.725   5.488   3.747  0.8734 -0.3334  0.4593
  526MOL0     C70903   3.616   5.409   3.686  0.4646 -0.0258 -0.9129
  526MOL0     C70904   3.705   5.604   3.826 -1.0596  0.0482  0.3180
  526MOL0     C70905   3.577   5.671   3.842 -0.0980  0.5567 -0.4222
  526MOL0     O70906   3.548   5.701   3.966 -0.0903 -0.7244 -0.0711
  526MOL0     C70907   3.451   5.790   3.989 -0.1749 -0.6538 -0.7239
  526MOL0     C70908   3.426   5.908   3.908  0.2086  0.2078 -0.3496
  526MOL0     C70909   3.305   5.981   3.914  0.0157  0.0533  0.6601
  526MOL0     C70910   3.209   5.945   4.009  0.0567  0.3732 -0.0305
  526MOL0     O70911   3.098   6.033   4.017 -0.4437  0.7224  0.4521
  526MOL0     C70912   2.983   5.996   4.095 -0.3287  0.3980  0.3806
  526MOL0     C70913   2.876   6.105   4.071  0.2685 -0.4678  0.2039
  526MOL0     C70914   2.748   6.038   4.118 -0.2543 -0.7776  0.0877
  526MOL0     C70915   2.636   6.147   4.110  0.8523 -0.0157  0.1608
  526MOL0     C70916   2.503   6.105   4.153 -0.4683 -0.1562  0.4106
  526MOL0     C70917   2.407   6.224   4.160 -0.0778  0.4673  0.3138
  526MOL0     C70918   2.262   6.176   4.188 -0.5624  0.3282 -0.2458
  526MOL0     C70919   2.225   6.172   4.338  0.6427 -0.2276  1.1497
  526MOL0    Cl70920   2.038   6.161   4.336  0.0880  0.0643 -0.4308
  526MOL0     C70921   3.238   5.843   4.097  0.2595  0.2327 -0.3636
  526MOL0     C70922   3.356   5.767   4.091  0.5851 -0.4156  0.3301
  526MOL0     O70923   3.505   5.683   3.745  0.5195  0.0784 -0.0648
  526MOL0     C70924   3.827   5.648   3.891  0.0886 -0.5976  0.7635
  526MOL0     C70925   3.953   5.578   3.882  0.3204  0.2281  0.0481
  526MOL0     N70926   4.626   5.193   3.809  0.9485 -0.1253  1.2018
  526MOL0     N70927   4.661   5.077   3.819  0.5297 -0.4310  0.1641
  526MOL0     C70928   5.798   5.079   4.032  0.4238 -0.2933 -0.7923
  526MOL0     C70929   5.935   5.094   4.044 -0.7247 -1.0910  0.2315
  526MOL0     C70930   6.362   5.118   3.871 -0.6149  0.5533 -0.6367
  526MOL0     C70931   6.410   5.162   3.999 -0.9142  0.4339 -0.6476
  526MOL0     C70932   6.551   5.148   4.030  0.2875  0.6916 -0.0658
  526MOL0     C70933   6.649   5.093   3.939  1.3022  0.4252 -0.3919
  526MOL0     O70934   6.774   5.073   3.994 -0.0848 -0.6371  1.2510
  526MOL0     C70935   6.881   5.051   3.911  0.1395  1.3249  0.5967
  526MOL0     C70936   7.008   5.028   3.986 -0.0797 -0.0662  0.3392
  526MOL0     C70937   6.994   4.942   4.121  0.2863 -0.0654  0.4910
  526MOL0     C70938   6.990   4.791   4.102 -0.5115 -0.0158 -0.9005
  526MOL0     C70939   6.859   4.736   4.070 -0.9486 -0.4353  0.9954
  526MOL0     C70940   6.754   4.703   4.035 -0.6368  0.2483  0.6236
  526MOL0     C70941   6.593   5.056   3.816 -0.5983 -0.5444  0.3590
  526MOL0     C70942   6.461   5.084   3.782  0.3478  0.1806  0.6694
  526MOL0     H70943   5.984   5.241   3.734  3.2379 -3.5950 -0.8295
  526MOL0     H70944   5.738   5.208   3.721  1.0380 -1.3036 -0.7034
  526MOL0     H70945   5.462   5.150   3.790 -2.8518 -0.4660  1.3467
  526MOL0     H70946   5.558   4.996   3.779 -1.2546  1.0517 -1.3665
  526MOL0     H70947   5.443   4.895   3.955  0.5886  0.2965  0.0341
  526MOL0     H70948   5.353   5.047   3.986  1.8294 -0.1342  1.1719
  526MOL0     H70949   5.302   5.001   3.703 -1.7370  0.1388  0.7672
  526MOL0     H70950   5.350   4.850   3.758 -0.1620 -0.4463 -1.6226
  526MOL0     H70951   5.166   4.809   3.886 -2.8166 -1.1947 -3.8247
  526MOL0     H70952   5.118   4.979   3.919 -0.1632 -0.8738  1.3576
  526MOL0     H70953   5.098   4.995   3.664  1.3851  0.3414  1.1842
  526MOL0     H70954   5.118   4.825   3.652 -2.5130 -1.0551  0.1817
  526MOL0     H70955   4.920   4.802   3.829  0.9141  3.0140  3.6675
  526MOL0     H70956   4.899   4.965   3.839 -0.1080  0.3758  0.7927
  526MOL0     H70957   4.872   4.999   3.587 -0.7290  0.1262  0.3999
  526MOL0     H70958   4.874   4.829   3.558  1.2828  2.7796 -2.0868
  526MOL0     H70959   4.663   4.825   3.737 -0.3772 -0.1055 -0.5844
  526MOL0     H70960   4.649   4.864   3.562  1.4905  0.3624 -0.6146
  526MOL0     H70961   4.582   5.110   3.495  0.1358  2.1966  0.1608
  526MOL0     H70962   4.643   5.426   3.660 -0.1364  0.1766 -1.0016
  526MOL0     H70963   4.523   5.386   3.532  3.6605 -0.4272 -1.0863
  526MOL0     H70964   4.482   5.527   3.735  2.2555 -1.0647 -0.8835
  526MOL0     H70965   4.463   5.380   3.832 -1.3983 -0.1569  0.5013
  526MOL0     H70966   4.304   5.282   3.693  1.2866  1.2557  0.9751
  526MOL0     H70967   4.271   5.421   3.588 -0.7710 -0.4220  0.3313
  526MOL0     H70968   4.190   5.564   3.738 -1.3736 -0.3616 -0.8273
  526MOL0     H70969   4.237   5.491   3.874 -1.3584  0.5016  0.7809
  526MOL0     H70970   3.857   5.334   3.677 -1.4246 -1.4976  0.1737
  526MOL0     H70971   3.560   5.361   3.767 -0.8149  0.5191 -1.4483
  526MOL0     H70972   3.537   5.467   3.637 -1.1530 -2.2647 -1.1138
  526MOL0     H70973   3.642   5.323   3.623 -0.9754 -1.3119  0.1623
  526MOL0     H70974   3.477   5.949   3.821 -0.8003  1.0903 -0.5497
  526MOL0     H70975   3.288   6.068   3.851  5.2065  0.6416 -0.3742
  526MOL0     H70976   2.949   5.897   4.064 -0.7533 -0.9106  4.4810
  526MOL0     H70977   3.011   6.005   4.200  0.3840  1.1715  0.1377
  526MOL0     H70978   2.896   6.195   4.130 -2.6492  0.5803 -0.2324
  526MOL0     H70979   2.861   6.144   3.970 -0.1928  0.0781  0.4782
  526MOL0     H70980   2.765   5.997   4.218  1.2773  0.9884  0.6078
  526MOL0     H70981   2.719   5.955   4.052 -0.4563 -0.8451  0.2638
  526MOL0     H70982   2.677   6.232   4.166 -0.7311  2.2466 -1.8873
  526MOL0     H70983   2.627   6.181   4.006 -2.2199  0.6325  0.5486
  526MOL0     H70984   2.509   6.053   4.249 -1.3420 -2.7137 -0.8444
  526MOL0     H70985   2.459   6.025   4.094  1.6119 -1.8271  1.0174
  526MOL0     H70986   2.436   6.297   4.236 -0.3987  1.9795 -0.9862
  526MOL0     H70987   2.400   6.267   4.060 -2.5190 -1.5353 -0.4898
  526MOL0     H70988   2.245   6.069   4.171  2.0464 -0.5742  1.9891
  526MOL0     H70989   2.189   6.235   4.132  1.1626  1.6965 -1.1502
  526MOL0     H70990   2.253   6.269   4.379  1.1408  0.3498 -0.4839
  526MOL0     H70991   2.263   6.083   4.389 -0.8366 -1.1524  0.7018
  526MOL0     H70992   3.171   5.821   4.180  0.3420 -0.4114 -0.4661
  526MOL0     H70993   3.379   5.682   4.154 -0.1632 -1.5021 -0.8237
  526MOL0     H70994   3.836   5.738   3.951  0.9043 -1.9337  2.7445
  526MOL0     H70995   4.043   5.631   3.910  1.5411 -0.5228 -2.2059
  526MOL0     H70996   5.733   5.040   4.109 -0.8058 -0.2675 -1.7880
  526MOL0     H70997   5.998   5.063   4.127 -1.9143  1.1436  2.0713
  526MOL0     H70998   6.340   5.191   4.076  1.6310  2.2894  1.1226
  526MOL0     H70999   6.583   5.174   4.131 -1.5132 -1.8754  1.2818
  526MOL0     H71000   6.859   4.963   3.849  2.0999  0.5457  0.9070
  526MOL0     H71001   6.898   5.139   3.849  1.1313  0.5304 -0.3090
  526MOL0     H71002   7.031   5.132   4.012 -3.6143  0.4111  2.1575
  526MOL0     H71003   7.081   4.981   3.920 -1.0922 -0.4651 -0.5181
  526MOL0     H71004   6.911   4.969   4.187 -1.6287 -0.8946 -1.4499
  526MOL0     H71005   7.083   4.971   4.177  0.8516  3.9916 -2.0515
  526MOL0     H71006   7.024   4.752   4.198 -2.5998 -0.3229 -0.2405
  526MOL0     H71007   7.052   4.771   4.013 -1.8055  0.7517 -2.0062
  526MOL0     H71008   6.656   4.666   4.012 -0.0193  1.0851 -4.6145
  526MOL0     H71009   6.654   5.016   3.736 -0.9206 -0.9172  0.2948
  526MOL0     H71010   6.431   5.083   3.677  1.1915 -0.0923  0.4209
  527MOL0     O71011   9.111  10.301   6.772 -0.1799  0.2264 -0.6827
  527MOL0     C71012   9.104  10.426   6.776  0.1396  0.0329  1.2830
  527MOL0     O71013   8.994  10.500   6.811  0.3176 -0.2563  0.2531
  527MOL0     C71014   8.891  10.423   6.862  0.4028  0.2741 -0.2140
  527MOL0     C71015   8.873  10.428   7.005  0.0543  0.1619 -0.2963
  527MOL0     C71016   8.775  10.357   7.074  0.2062  0.0322 -0.0029
  527MOL0     C71017   8.686  10.274   7.003  0.0684 -0.1802 -0.4452
  527MOL0     O71018   8.587  10.208   7.075 -0.2135 -0.1232  0.1110
  527MOL0     C71019   8.641  10.115   7.168  0.2406  0.8632  0.3802
  527MOL0     C71020   8.529  10.042   7.245 -0.5482  0.8716  0.4166
  527MOL0     C71021   8.447   9.969   7.147  0.2381 -0.1956  0.2769
  527MOL0     C71022   8.319   9.909   7.219  0.6974  0.0425 -0.0180
  527MOL0     C71023   8.221   9.838   7.125 -1.4681  0.4214 -0.2769
  527MOL0     C71024   8.113   9.771   7.212  0.0867 -0.0334  0.4960
  527MOL0     C71025   7.989   9.728   7.138 -0.2525 -0.5639  0.3623
  527MOL0     C71026   7.916   9.853   7.096  0.4699  0.2200  0.8406
  527MOL0     N71027   7.777   9.806   7.060  0.6019 -0.0004 -0.5118
  527MOL0     C71028   7.743   9.749   6.944  0.4018 -0.1426 -0.2083
  527MOL0     C71029   7.613   9.703   6.966 -0.0384  0.0733  0.2519
  527MOL0     C71030   7.525   9.639   6.860  0.0507 -0.3422 -0.5911
  527MOL0     C71031   7.486   9.751   6.758  0.4508 -0.4236  0.1723
  527MOL0     C71032   7.410   9.870   6.815 -0.8138 -0.2540 -0.6642
  527MOL0     C71033   7.285   9.826   6.888 -0.2152 -0.1519 -0.3087
  527MOL0     O71034   7.199   9.765   6.784  0.3002  0.5609  0.5534
  527MOL0     C71035   7.076   9.713   6.828 -0.7287 -0.2590  0.2289
  527MOL0     C71036   6.995   9.686   6.718  0.4422 -0.3250  0.1190
  527MOL0     C71037   6.879   9.609   6.731 -0.1008  0.0166 -1.3211
  527MOL0     C71038   6.801   9.585   6.604  0.0600  0.2127  0.2276
  527MOL0     C71039   6.839   9.555   6.859 -0.2854  0.2356 -0.3960
  527MOL0     C71040   6.727   9.456   6.878  0.6733  0.0867  0.5437
  527MOL0     O71041   6.729   9.386   7.004 -0.4057 -0.7155  0.1415
  527MOL0     C71042   6.605   9.348   7.056 -0.6748  0.2879 -0.6033
  527MOL0     C71043   6.595   9.213   7.112  0.0301  0.1363 -0.5128
  527MOL0     C71044   6.485   9.184   7.198 -0.2833 -0.3221 -0.0197
  527MOL0     C71045   6.384   9.272   7.221  1.7163 -0.0086 -0.6755
  527MOL0     O71046   6.266   9.235   7.294 -0.8756  0.1518  0.0390
  527MOL0     C71047   6.269   9.128   7.387 -0.2831 -0.6230 -0.2631
  527MOL0     C71048   6.360   9.162   7.499  0.1649  0.8031  1.0301
  527MOL0     C71049   6.431   9.036   7.557  0.5005 -0.4633  0.7121
  527MOL0     C71050   6.522   9.072   7.670  1.0055  0.6419 -0.0023
  527MOL0     C71051   6.625   8.965   7.705  0.2707  0.5315  0.3934
  527MOL0     C71052   6.687   9.008   7.838 -1.0073  0.6573  0.3365
  527MOL0     C71053   6.775   8.896   7.888 -0.0427 -0.5842 -0.4110
  527MOL0     C71054   6.841   8.931   8.024  0.5557 -0.9526  0.0183
  527MOL0    Cl71055   6.718   9.007   8.138 -0.1550 -0.1385  0.0899
  527MOL0     C71056   6.391   9.401   7.162  0.4362 -0.4330 -0.3663
  527MOL0     C71057   6.502   9.435   7.088  0.4505  0.2551  0.3695
  527MOL0     O71058   6.632   9.444   6.795  0.9140  0.3519 -0.2706
  527MOL0     C71059   6.917   9.599   6.970 -0.4026  0.4117 -0.0384
  527MOL0     C71060   7.039   9.669   6.958 -0.0901  0.3820  0.6660
  527MOL0     N71061   7.578   9.728   7.098  0.8927 -0.2033 -0.2205
  527MOL0     N71062   7.678   9.789   7.152 -0.6139  0.0047 -1.2082
  527MOL0     C71063   8.706  10.257   6.865  0.4172 -0.3881  0.0151
  527MOL0     C71064   8.806  10.337   6.793  0.2473  0.2345 -0.3358
  527MOL0     C71065   9.221  10.494   6.710  0.1869 -0.6619  0.0303
  527MOL0     C71066   9.340  10.425   6.688 -1.0194 -0.7736  0.7632
  527MOL0     C71067   9.453  10.493   6.635 -0.2674  0.0863 -0.1071
  527MOL0     C71068   9.434  10.624   6.596  0.5865 -0.5401 -0.9861
  527MOL0     O71069   9.541  10.697   6.554  0.3253  0.2942 -0.5663
  527MOL0     C71070   9.658  10.644   6.499  0.4614 -0.3607  0.4571
  527MOL0     C71071   9.635  10.579   6.366  1.2288  0.3044  0.3706
  527MOL0     C71072   9.769  10.517   6.305  0.7035  0.2802 -0.4271
  527MOL0     C71073   9.872  10.626   6.284  0.0101  0.1762 -0.7011
  527MOL0     C71074   9.964  10.607   6.176 -0.6265  0.3941  0.9187
  527MOL0     C71075  10.063  10.580   6.106  0.9253 -0.3132  0.4532
  527MOL0     C71076   9.311  10.688   6.610 -0.3820 -0.7655 -0.1706
  527MOL0     C71077   9.200  10.624   6.657 -0.7520 -0.5173 -0.0759
  527MOL0     H71078   8.940  10.485   7.068  2.3072 -3.0020  0.4495
  527MOL0     H71079   8.771  10.355   7.182 -0.0094  0.2405 -0.0055
  527MOL0     H71080   8.695  10.039   7.111 -0.4859 -0.8137  1.8267
  527MOL0     H71081   8.711  10.161   7.238  0.3170  0.4696  0.5672
  527MOL0     H71082   8.557   9.962   7.313 -3.0643 -3.1875 -2.8521
  527MOL0     H71083   8.476  10.118   7.303 -0.2495  0.8123  0.7682
  527MOL0     H71084   8.406  10.034   7.069  1.3365 -0.5844 -0.6649
  527MOL0     H71085   8.507   9.902   7.084  1.0804  1.7539 -1.0912
  527MOL0     H71086   8.360   9.840   7.293  1.8207  0.4643 -0.2200
  527MOL0     H71087   8.271   9.993   7.270  1.4739 -0.4319  1.5551
  527MOL0     H71088   8.171   9.902   7.052 -3.3699 -0.9846 -0.2846
  527MOL0     H71089   8.284   9.759   7.082 -0.3016  1.7817 -1.1199
  527MOL0     H71090   8.151   9.679   7.258  0.7348  0.3572  0.7600
  527MOL0     H71091   8.097   9.846   7.290  2.1812  2.0993 -0.9784
  527MOL0     H71092   8.018   9.660   7.058  0.0167  0.0944 -0.1046
  527MOL0     H71093   7.922   9.678   7.209 -1.2069  0.6692  0.3649
  527MOL0     H71094   7.954   9.913   7.013 -1.3357  0.9750  0.5116
  527MOL0     H71095   7.906   9.923   7.179 -1.4502  3.3987 -1.8106
  527MOL0     H71096   7.794   9.736   6.849 -1.0462  0.2571 -1.0655
  527MOL0     H71097   7.573   9.561   6.800  0.5404  1.7371 -3.1140
  527MOL0     H71098   7.435   9.598   6.908  0.9644  0.9797  2.4858
  527MOL0     H71099   7.430   9.694   6.683 -0.5785 -3.4939  3.0364
  527MOL0     H71100   7.576   9.789   6.708  2.0344 -2.4425  1.3199
  527MOL0     H71101   7.386   9.939   6.733 -0.1789 -0.1419 -0.7671
  527MOL0     H71102   7.475   9.929   6.882  2.7535  0.6926 -4.5034
  527MOL0     H71103   7.226   9.911   6.923 -0.0440 -0.9720  2.1565
  527MOL0     H71104   7.320   9.757   6.966  0.9603  0.3185 -0.3942
  527MOL0     H71105   7.025   9.730   6.624  1.2894  1.6919  1.2732
  527MOL0     H71106   6.780   9.482   6.575  1.1673  0.6075 -2.2844
  527MOL0     H71107   6.711   9.648   6.610 -1.2976 -1.7085  0.8042
  527MOL0     H71108   6.857   9.607   6.513 -1.5204 -1.4710 -1.2394
  527MOL0     H71109   6.675   9.141   7.095  0.1736 -0.1885  1.4006
  527MOL0     H71110   6.479   9.089   7.250  1.0453 -0.5782 -0.3027
  527MOL0     H71111   6.166   9.119   7.422 -1.1920 -0.9385 -2.7929
  527MOL0     H71112   6.286   9.033   7.335 -1.3713 -1.5332  0.9742
  527MOL0     H71113   6.441   9.225   7.463 -2.3541  3.1030 -1.0801
  527MOL0     H71114   6.298   9.215   7.572 -0.5329  0.2529  0.8541
  527MOL0     H71115   6.488   8.986   7.478  0.6775  1.1272 -0.2208
  527MOL0     H71116   6.352   8.964   7.582  1.9422 -2.1831  0.4556
  527MOL0     H71117   6.579   9.164   7.653  0.6865  1.3013  2.2145
  527MOL0     H71118   6.462   9.099   7.757  2.2647  1.2308  0.7094
  527MOL0     H71119   6.702   8.944   7.631 -1.2326 -2.3732 -0.5067
  527MOL0     H71120   6.565   8.875   7.722  1.1397 -0.1936 -0.2996
  527MOL0     H71121   6.742   9.103   7.830 -0.0689  0.0981 -0.0340
  527MOL0     H71122   6.604   9.032   7.904 -0.9341  1.0925  0.2756
  527MOL0     H71123   6.849   8.878   7.809  4.7475  0.2095  3.4140
  527MOL0     H71124   6.712   8.808   7.904 -1.4846  0.5861  0.6223
  527MOL0     H71125   6.923   9.000   8.005 -0.3854 -0.0092 -0.8029
  527MOL0     H71126   6.889   8.838   8.056  2.2675 -0.6157 -1.4321
  527MOL0     H71127   6.314   9.474   7.186 -0.4571 -1.3187 -0.4778
  527MOL0     H71128   6.501   9.538   7.053  0.7605  0.1814  0.1414
  527MOL0     H71129   6.886   9.554   7.064 -1.6503  0.8463 -0.2276
  527MOL0     H71130   7.094   9.688   7.050 -2.0167  0.1005  1.9262
  527MOL0     H71131   8.633  10.201   6.808 -1.5548 -0.2242  2.2320
  527MOL0     H71132   8.819  10.315   6.688 -2.7006 -0.6850 -0.5851
  527MOL0     H71133   9.356  10.324   6.725  0.2091 -0.9696 -0.2180
  527MOL0     H71134   9.549  10.443   6.624 -0.8013 -0.3341 -4.1249
  527MOL0     H71135   9.729  10.727   6.491  1.7732 -1.4943 -0.2684
  527MOL0     H71136   9.712  10.574   6.564  1.0601 -1.0480 -0.7361
  527MOL0     H71137   9.582  10.645   6.296 -1.0600 -3.2882 -1.6237
  527MOL0     H71138   9.568  10.493   6.373  3.2228 -1.4051 -0.2979
  527MOL0     H71139   9.742  10.473   6.208  0.4239  1.5026 -0.9130
  527MOL0     H71140   9.813  10.433   6.361  0.2294 -0.4950 -1.1907
  527MOL0     H71141   9.931  10.634   6.377 -1.9857  1.2792  0.5436
  527MOL0     H71142   9.822  10.720   6.262 -1.1255  0.5589  2.9009
  527MOL0     H71143  10.142  10.555   6.039 -0.8523 -0.4944 -1.7024
  527MOL0     H71144   9.309  10.795   6.589  0.4553 -0.2961  1.8460
  527MOL0     H71145   9.105  10.669   6.685 -0.4248  0.5340 -0.6361
  528MOL0     O71146   6.233  10.060   4.495 -0.3351  0.6863  0.3512
  528MOL0     C71147   6.329  10.101   4.433 -0.2983 -0.5452  0.0290
  528MOL0     O71148   6.344  10.102   4.306 -0.3886  0.0569 -0.2760
  528MOL0     C71149   6.252  10.066   4.213  0.4681  0.5603  0.7359
  528MOL0     C71150   6.294   9.988   4.103  0.1532 -0.8222  0.3520
  528MOL0     C71151   6.208   9.942   3.995 -0.1147  0.1028  0.2311
  528MOL0     C71152   6.073   9.968   4.007  0.8967  0.0345  0.1997
  528MOL0     O71153   5.979   9.922   3.925 -0.2790 -0.0191  0.0092
  528MOL0     C71154   6.026   9.882   3.790  1.0812  0.1273 -0.6721
  528MOL0     C71155   5.902   9.856   3.710 -0.5925 -0.2196 -0.0742
  528MOL0     C71156   5.939   9.784   3.583 -0.0407  0.7572 -0.7526
  528MOL0     C71157   5.814   9.754   3.500  0.6311 -0.7100 -0.1734
  528MOL0     C71158   5.840   9.653   3.386  0.0135  0.6213 -0.5629
  528MOL0     C71159   5.736   9.671   3.268  0.3029 -0.0480  0.7887
  528MOL0     C71160   5.598   9.602   3.288  0.8581 -0.7100  0.4066
  528MOL0     C71161   5.547   9.576   3.145  0.1265 -0.7441 -0.2339
  528MOL0     N71162   5.399   9.570   3.156 -0.6571  0.1431 -0.0134
  528MOL0     C71163   5.322   9.680   3.133 -0.4427  0.5845  0.2067
  528MOL0     C71164   5.203   9.635   3.160  0.8864 -0.7509  0.4219
  528MOL0     C71165   5.089   9.735   3.173 -0.3724 -0.5659 -0.2837
  528MOL0     C71166   4.946   9.682   3.154 -0.0039  0.3202  0.6481
  528MOL0     C71167   4.838   9.797   3.168  0.6392  0.8894 -1.0504
  528MOL0     C71168   4.702   9.736   3.152 -0.0169  0.5508  0.1760
  528MOL0     O71169   4.609   9.840   3.146 -0.4296 -0.0905  0.3015
  528MOL0     C71170   4.478   9.801   3.130  0.9389 -0.0015 -0.7635
  528MOL0     C71171   4.391   9.906   3.087  0.3686 -0.9607 -0.5364
  528MOL0     C71172   4.252   9.888   3.073 -0.2235 -0.6273 -0.7896
  528MOL0     C71173   4.181  10.003   3.016  0.0180  0.4079 -0.3824
  528MOL0     C71174   4.188   9.769   3.107  0.4846 -0.2933  0.6632
  528MOL0     C71175   4.044   9.745   3.096 -0.0404 -0.1113 -0.4741
  528MOL0     O71176   4.014   9.621   3.049  0.0776  0.3685  0.7252
  528MOL0     C71177   3.901   9.595   2.975  0.1647  0.0365 -0.4914
  528MOL0     C71178   3.821   9.693   2.908 -0.6544 -0.0681  1.3258
  528MOL0     C71179   3.720   9.655   2.822  0.3299 -0.9211 -1.2418
  528MOL0     C71180   3.681   9.524   2.808  0.0644  0.0465  0.1560
  528MOL0     O71181   3.590   9.492   2.718 -0.6691 -0.1982  0.7732
  528MOL0     C71182   3.597   9.358   2.666 -0.3016  0.5001 -0.7797
  528MOL0     C71183   3.508   9.347   2.544  0.4099  0.1122  0.3240
  528MOL0     C71184   3.564   9.433   2.428  0.0640 -0.0937 -0.3448
  528MOL0     C71185   3.476   9.426   2.305 -0.7183 -0.6056  0.2409
  528MOL0     C71186   3.528   9.528   2.203  0.4830 -0.7432 -0.0972
  528MOL0     C71187   3.477   9.513   2.064 -0.2155 -0.1798  0.2019
  528MOL0     C71188   3.506   9.644   1.977  0.4884  0.0969 -0.0561
  528MOL0     C71189   3.652   9.649   1.938 -0.0020  0.3620  0.7724
  528MOL0    Cl71190   3.689   9.520   1.832  0.4654 -0.3018 -0.3037
  528MOL0     C71191   3.763   9.431   2.869  0.3423 -0.5132 -0.2667
  528MOL0     C71192   3.873   9.463   2.950  0.1912 -0.4854  0.1564
  528MOL0     O71193   3.969   9.838   3.119  0.0749 -0.1382  0.5256
  528MOL0     C71194   4.270   9.674   3.156 -0.5454  0.9958 -0.4698
  528MOL0     C71195   4.410   9.685   3.168 -0.2139 -1.1848 -0.0080
  528MOL0     N71196   5.202   9.495   3.171 -0.6646  0.0948 -0.0398
  528MOL0     N71197   5.328   9.462   3.155 -0.1407  0.0005 -0.2576
  528MOL0     C71198   6.026  10.032   4.128 -0.6825 -0.9067  0.1612
  528MOL0     C71199   6.117  10.088   4.225  0.6891 -0.4484 -0.2172
  528MOL0     C71200   6.439  10.152   4.510  0.3742 -0.1958  0.2682
  528MOL0     C71201   6.541  10.229   4.456  0.0755  0.2383  0.3824
  528MOL0     C71202   6.652  10.271   4.532  0.8345  0.1906  0.1063
  528MOL0     C71203   6.659  10.235   4.667 -0.1355  0.3500 -0.0871
  528MOL0     O71204   6.775  10.247   4.742  0.4627 -0.0472  0.1202
  528MOL0     C71205   6.893  10.279   4.679 -0.2172  0.1949 -0.4033
  528MOL0     C71206   6.992  10.327   4.781 -1.1169  0.5403  0.4331
  528MOL0     C71207   7.133  10.361   4.721 -0.2930 -0.2332  0.3934
  528MOL0     C71208   7.146  10.503   4.666  0.0615  0.3687 -0.1865
  528MOL0     C71209   7.288  10.534   4.640 -0.1579 -0.2484  0.2818
  528MOL0     C71210   7.400  10.561   4.599 -0.0622 -0.3975 -0.5753
  528MOL0     C71211   6.555  10.165   4.730 -0.1718  0.3431 -1.0780
  528MOL0     C71212   6.448  10.119   4.648 -0.6816  0.3776  0.0356
  528MOL0     H71213   6.397   9.954   4.102  0.3050 -0.3704 -1.0144
  528MOL0     H71214   6.245   9.885   3.911 -1.3051 -0.5082  0.0976
  528MOL0     H71215   6.079   9.960   3.734  3.4907 -0.3763  0.7822
  528MOL0     H71216   6.087   9.791   3.787 -1.5314 -1.7936  0.3924
  528MOL0     H71217   5.832   9.809   3.780  0.2632 -0.0263  0.9438
  528MOL0     H71218   5.860   9.952   3.677 -1.5115 -0.8712 -0.8418
  528MOL0     H71219   6.007   9.840   3.519  1.7045  1.0503  1.2525
  528MOL0     H71220   5.993   9.692   3.609 -1.4820 -0.0209 -0.3908
  528MOL0     H71221   5.741   9.711   3.568 -0.5275  0.9478 -0.3084
  528MOL0     H71222   5.771   9.846   3.460 -0.3592 -1.7831 -1.6743
  528MOL0     H71223   5.940   9.671   3.344  1.2128  0.4747  1.9948
  528MOL0     H71224   5.843   9.550   3.422  0.1934  0.8917  0.2256
  528MOL0     H71225   5.729   9.775   3.236 -2.0055 -0.2889  0.2919
  528MOL0     H71226   5.778   9.621   3.180 -0.7379 -0.8109  0.6982
  528MOL0     H71227   5.613   9.505   3.338 -0.8463 -1.7463 -0.9945
  528MOL0     H71228   5.534   9.668   3.347 -0.9471 -1.2465 -0.8575
  528MOL0     H71229   5.577   9.484   3.094  0.4943 -0.6957 -0.1115
  528MOL0     H71230   5.577   9.658   3.079 -0.1234 -2.2719 -2.3433
  528MOL0     H71231   5.355   9.781   3.111  0.0475  0.4035  0.0988
  528MOL0     H71232   5.097   9.770   3.277  0.3376 -0.8948 -0.2262
  528MOL0     H71233   5.108   9.825   3.114  0.6057  0.3992  1.4042
  528MOL0     H71234   4.938   9.598   3.224  1.2293 -2.5280 -2.3467
  528MOL0     H71235   4.936   9.648   3.050 -1.3987 -1.5683  1.3301
  528MOL0     H71236   4.847   9.874   3.090 -0.9228  2.7536  0.5008
  528MOL0     H71237   4.844   9.840   3.269  0.7827  0.7612 -1.0043
  528MOL0     H71238   4.682   9.664   3.233  0.4760  1.1715  0.8570
  528MOL0     H71239   4.698   9.674   3.062 -0.2233  1.8057 -0.6928
  528MOL0     H71240   4.430  10.006   3.069 -1.4230 -0.2693 -0.8024
  528MOL0     H71241   4.263  10.069   2.987  3.0289 -2.4836  0.9568
  528MOL0     H71242   4.136   9.975   2.920 -0.1471 -2.8751  0.5188
  528MOL0     H71243   4.109  10.057   3.078  0.4332  0.7669 -0.2143
  528MOL0     H71244   3.848   9.797   2.924  0.8513  0.3902 -2.8301
  528MOL0     H71245   3.674   9.738   2.769  1.2948  1.6882  1.6735
  528MOL0     H71246   3.702   9.342   2.640 -0.4395 -1.0376 -0.4734
  528MOL0     H71247   3.582   9.275   2.735 -1.0063  0.8357 -0.5188
  528MOL0     H71248   3.523   9.247   2.501  0.5762  0.6257 -0.8359
  528MOL0     H71249   3.400   9.365   2.553  0.0607  1.7869 -4.3435
  528MOL0     H71250   3.665   9.417   2.389 -1.6165  0.3502 -5.6190
  528MOL0     H71251   3.560   9.537   2.461  0.4464  0.0821 -0.8507
  528MOL0     H71252   3.472   9.333   2.248  0.0310 -0.3533 -0.2430
  528MOL0     H71253   3.372   9.449   2.328  0.0242  1.2497  2.0264
  528MOL0     H71254   3.637   9.521   2.197  0.8322  3.0987 -0.3474
  528MOL0     H71255   3.501   9.627   2.240 -1.8145 -1.6319  0.7917
  528MOL0     H71256   3.527   9.432   2.009  2.6897  0.8098  1.1587
  528MOL0     H71257   3.370   9.494   2.074 -0.3805  0.4543 -0.2937
  528MOL0     H71258   3.478   9.737   2.027 -0.6719 -0.4655  0.3992
  528MOL0     H71259   3.447   9.641   1.885  1.7637  0.4243 -0.9048
  528MOL0     H71260   3.710   9.641   2.031  0.2305  3.5885  1.0304
  528MOL0     H71261   3.673   9.743   1.887  0.5443  0.2603  0.8003
  528MOL0     H71262   3.742   9.325   2.856 -4.5822 -0.0094  1.3463
  528MOL0     H71263   3.929   9.386   3.001 -0.4203 -1.9318 -1.2837
  528MOL0     H71264   4.216   9.581   3.172 -0.9376  1.1048 -1.1200
  528MOL0     H71265   4.468   9.604   3.212  2.7626  1.2427  0.9432
  528MOL0     H71266   5.919  10.034   4.145 -1.0186  2.3444 -1.5855
  528MOL0     H71267   6.087  10.152   4.306 -0.7891 -0.9458 -0.3473
  528MOL0     H71268   6.539  10.250   4.350  0.3949 -0.7843  0.1604
  528MOL0     H71269   6.730  10.323   4.478  0.5834  0.5298  0.0646
  528MOL0     H71270   6.931  10.197   4.617  1.8209  0.2979  0.6305
  528MOL0     H71271   6.868  10.357   4.607 -1.9078 -2.8983 -3.4624
  528MOL0     H71272   7.008  10.241   4.847  2.6406  0.2742 -0.6257
  528MOL0     H71273   6.955  10.409   4.844 -0.3599  0.9795  0.3225
  528MOL0     H71274   7.151  10.295   4.636  1.0502  0.9974 -0.3369
  528MOL0     H71275   7.208  10.343   4.798  0.9517 -1.6484 -1.0735
  528MOL0     H71276   7.104  10.579   4.733 -0.6644 -0.1802 -0.0171
  528MOL0     H71277   7.083  10.516   4.578 -0.7657 -0.2701  0.2998
  528MOL0     H71278   7.502  10.594   4.587 -0.5874  1.6419  0.1937
  528MOL0     H71279   6.567  10.141   4.835 -0.5730  3.2711 -0.2897
  528MOL0     H71280   6.376  10.057   4.702  1.7645 -1.1475  1.7985
  529MOL0     O71281   0.050   7.109   1.407 -0.3452 -0.3702  0.1320
  529MOL0     C71282   0.122   7.127   1.309  0.0332 -0.6312  0.7195
  529MOL0     O71283   0.079   7.172   1.187  0.5905 -0.5873  0.3004
  529MOL0     C71284  -0.052   7.215   1.170  1.1273 -0.1441 -1.0495
  529MOL0     C71285  -0.128   7.181   1.056 -0.7476 -0.4711  0.3435
  529MOL0     C71286  -0.254   7.242   1.037 -0.5311  0.9813 -0.5903
  529MOL0     C71287  -0.318   7.315   1.138 -0.2496  0.5107  0.2523
  529MOL0     O71288  -0.450   7.346   1.116  0.1846  0.2375 -0.1814
  529MOL0     C71289  -0.521   7.391   1.225  0.5090  0.1108 -0.9515
  529MOL0     C71290  -0.666   7.441   1.181  1.2523 -0.3147 -0.0157
  529MOL0     C71291  -0.750   7.356   1.087  0.1130  0.3179 -0.6720
  529MOL0     C71292  -0.808   7.230   1.162 -0.1394  0.1761  0.8497
  529MOL0     C71293  -0.898   7.267   1.284 -0.0209  0.0874  1.2142
  529MOL0     C71294  -0.987   7.158   1.327  0.1557 -0.5396  0.0812
  529MOL0     C71295  -1.076   7.212   1.444  0.5312  0.3511  0.8507
  529MOL0     C71296  -1.166   7.101   1.497  0.2411  0.2770 -0.6560
  529MOL0     N71297  -1.295   7.083   1.431  0.7675  0.3827 -0.3877
  529MOL0     C71298  -1.355   7.155   1.331 -0.1654  0.0759 -0.3144
  529MOL0     C71299  -1.480   7.102   1.317  0.2939 -0.2744  0.3825
  529MOL0     C71300  -1.582   7.151   1.222 -0.1476 -0.4085  0.1918
  529MOL0     C71301  -1.720   7.075   1.203  0.9899 -0.4218 -0.2073
  529MOL0     C71302  -1.826   7.178   1.150  0.0287  0.4757 -0.3625
  529MOL0     C71303  -1.962   7.124   1.145  0.0939  0.8206 -0.2992
  529MOL0     O71304  -2.029   7.130   1.274  0.4704 -0.4643 -0.2733
  529MOL0     C71305  -2.165   7.153   1.281 -0.0146  0.3557 -0.0442
  529MOL0     C71306  -2.215   7.206   1.403 -0.5546  0.1931  0.4869
  529MOL0     C71307  -2.351   7.217   1.432 -0.2283  0.0051  0.0593
  529MOL0     C71308  -2.389   7.287   1.560 -0.5049 -0.3580 -0.6850
  529MOL0     C71309  -2.438   7.163   1.338  0.7253  0.5535 -0.0544
  529MOL0     C71310  -2.589   7.158   1.360 -0.5136 -1.1945  0.3422
  529MOL0     O71311  -2.668   7.159   1.245 -0.3560  0.1203 -0.3331
  529MOL0     C71312  -2.799   7.195   1.236  0.2396 -0.6640 -0.1594
  529MOL0     C71313  -2.883   7.129   1.144  0.8916  0.2176  0.0801
  529MOL0     C71314  -3.018   7.182   1.113 -0.2122  0.7624 -0.2967
  529MOL0     C71315  -3.066   7.291   1.186  0.2750 -0.0059  0.7640
  529MOL0     O71316  -3.181   7.356   1.159  0.3324  0.3456  0.1769
  529MOL0     C71317  -3.292   7.262   1.123 -0.1768  0.9237 -0.1881
  529MOL0     C71318  -3.427   7.341   1.128 -0.0800  0.5033  0.1723
  529MOL0     C71319  -3.540   7.250   1.099  0.0107 -0.4335 -0.5654
  529MOL0     C71320  -3.667   7.335   1.093 -0.6884 -0.6275  0.1314
  529MOL0     C71321  -3.796   7.254   1.064  0.5354 -0.9903  0.4043
  529MOL0     C71322  -3.935   7.322   1.088 -0.5770  0.9076  0.2663
  529MOL0     C71323  -3.947   7.470   1.022 -0.9670  0.2609 -0.2793
  529MOL0     C71324  -3.916   7.468   0.874  0.0020  0.2639  0.2809
  529MOL0    Cl71325  -4.045   7.400   0.777  0.0524  0.2762 -0.2218
  529MOL0     C71326  -2.978   7.360   1.275 -0.2313  0.8305 -0.4127
  529MOL0     C71327  -2.855   7.311   1.299 -0.1124  0.1224 -0.1542
  529MOL0     O71328  -2.640   7.160   1.471  0.4844  0.5007 -0.6860
  529MOL0     C71329  -2.393   7.109   1.219 -0.4598 -0.0084  0.0291
  529MOL0     C71330  -2.258   7.102   1.199 -0.3366  0.0960  0.1876
  529MOL0     N71331  -1.499   6.994   1.397 -0.4218 -0.1664  0.6205
  529MOL0     N71332  -1.387   6.985   1.457 -0.5117 -0.0782  0.2188
  529MOL0     C71333  -0.242   7.351   1.254  0.1588 -0.5354  0.0733
  529MOL0     C71334  -0.111   7.302   1.271  0.3848  0.0792  0.3880
  529MOL0     C71335   0.266   7.089   1.317  0.1430 -0.2205 -0.4750
  529MOL0     C71336   0.355   7.104   1.211 -0.0828 -0.7251  0.7779
  529MOL0     C71337   0.491   7.069   1.224  1.0374 -0.0994  0.8518
  529MOL0     C71338   0.549   7.022   1.345 -0.6098 -0.2335 -0.1711
  529MOL0     O71339   0.678   6.985   1.365  0.2350  0.3111  0.0999
  529MOL0     C71340   0.761   6.965   1.244  0.0044 -0.2736 -0.1901
  529MOL0     C71341   0.884   6.892   1.293 -0.4446 -0.4071 -0.1493
  529MOL0     C71342   0.970   6.981   1.379 -0.8705 -0.0461 -0.1478
  529MOL0     C71343   1.068   6.896   1.457 -0.4469 -0.1944 -0.3309
  529MOL0     C71344   1.169   6.839   1.369  0.1908  0.1656  0.2883
  529MOL0     C71345   1.258   6.777   1.324  0.1438 -0.2565 -0.8357
  529MOL0     C71346   0.468   7.028   1.454 -0.8827  0.3435  0.4329
  529MOL0     C71347   0.330   7.047   1.438  0.0821  0.3348 -0.9209
  529MOL0     H71348  -0.071   7.134   0.977  4.6965 -0.2001  3.6155
  529MOL0     H71349  -0.312   7.219   0.948  2.0791  0.7548 -2.3379
  529MOL0     H71350  -0.530   7.316   1.304 -2.0139  0.8579 -0.4300
  529MOL0     H71351  -0.479   7.478   1.275  2.2144 -0.4220 -1.3878
  529MOL0     H71352  -0.731   7.443   1.269 -1.0455  0.3324 -1.6334
  529MOL0     H71353  -0.660   7.539   1.133  2.2668 -0.5484 -0.3887
  529MOL0     H71354  -0.834   7.413   1.047  1.2882  2.1187 -0.6804
  529MOL0     H71355  -0.704   7.332   0.991  1.0477 -0.5150 -0.0437
  529MOL0     H71356  -0.886   7.188   1.097 -1.7019  2.8649  0.8075
  529MOL0     H71357  -0.724   7.164   1.185  2.9238  3.7332  0.7711
  529MOL0     H71358  -0.827   7.281   1.367 -0.6785  0.8841  1.6606
  529MOL0     H71359  -0.967   7.349   1.264 -0.4541 -0.5604  0.0149
  529MOL0     H71360  -1.050   7.127   1.243  1.2827 -2.9186  0.0157
  529MOL0     H71361  -0.927   7.073   1.362  2.1300  1.2561  1.3153
  529MOL0     H71362  -1.005   7.235   1.524  1.1704  0.7450  0.1739
  529MOL0     H71363  -1.138   7.301   1.433 -2.8718 -1.4724  3.3668
  529MOL0     H71364  -1.184   7.131   1.601 -0.5009 -2.0726 -0.0408
  529MOL0     H71365  -1.110   7.007   1.505  3.4884  2.0043 -1.1848
  529MOL0     H71366  -1.321   7.234   1.266 -0.8876  0.5500 -0.1247
  529MOL0     H71367  -1.607   7.253   1.254 -0.6027 -0.7772  1.0364
  529MOL0     H71368  -1.529   7.156   1.126  0.4591 -1.8178  0.4383
  529MOL0     H71369  -1.756   7.045   1.301  0.9626  3.3469  1.1088
  529MOL0     H71370  -1.706   6.990   1.136 -0.3297 -1.4104  0.7351
  529MOL0     H71371  -1.792   7.205   1.050 -0.9598 -1.5420 -1.3073
  529MOL0     H71372  -1.825   7.266   1.215  0.2785 -0.8900  1.5933
  529MOL0     H71373  -1.967   7.021   1.108  1.5368  0.6764 -0.1752
  529MOL0     H71374  -2.019   7.184   1.074 -0.9794 -0.4715 -0.5588
  529MOL0     H71375  -2.139   7.242   1.471  0.8454 -1.5840 -0.0475
  529MOL0     H71376  -2.447   7.212   1.615 -1.4091 -0.5874 -1.9019
  529MOL0     H71377  -2.304   7.322   1.618 -0.3927  0.1348 -1.1353
  529MOL0     H71378  -2.454   7.370   1.529  1.3319  0.2516 -3.2643
  529MOL0     H71379  -2.854   7.035   1.097 -0.0352  0.9125 -1.9829
  529MOL0     H71380  -3.082   7.124   1.046 -2.8029  2.4041  0.6094
  529MOL0     H71381  -3.284   7.224   1.021 -1.9411  2.4196 -0.9469
  529MOL0     H71382  -3.283   7.177   1.191  1.5473  0.5624 -0.8434
  529MOL0     H71383  -3.430   7.391   1.225  3.1524  1.9746 -0.3352
  529MOL0     H71384  -3.413   7.422   1.056  2.3578  0.5634  0.6165
  529MOL0     H71385  -3.553   7.164   1.165 -1.9293 -0.2167 -0.6095
  529MOL0     H71386  -3.526   7.207   1.000 -0.6234 -3.8023  0.6428
  529MOL0     H71387  -3.670   7.390   1.188 -0.2984  0.3244 -0.3976
  529MOL0     H71388  -3.655   7.414   1.019  1.0100 -2.6531 -1.8684
  529MOL0     H71389  -3.805   7.152   1.103  0.6640 -0.9733  0.4810
  529MOL0     H71390  -3.789   7.229   0.958 -0.0972 -1.3081  0.4360
  529MOL0     H71391  -4.009   7.265   1.032 -0.8860  1.4367  0.1266
  529MOL0     H71392  -3.962   7.331   1.193  0.1782  0.1143  0.5368
  529MOL0     H71393  -3.875   7.537   1.069 -0.9990  0.2859 -0.2649
  529MOL0     H71394  -4.048   7.511   1.032 -1.0131  0.3807 -1.1621
  529MOL0     H71395  -3.830   7.403   0.852  0.3035 -0.3078  2.9041
  529MOL0     H71396  -3.884   7.568   0.842 -1.8295  1.3246  1.6077
  529MOL0     H71397  -3.018   7.441   1.336 -2.8296  0.1067 -1.0286
  529MOL0     H71398  -2.797   7.361   1.375 -1.7125 -2.2649  2.8472
  529MOL0     H71399  -2.456   7.099   1.132  0.7868  1.1669 -1.0618
  529MOL0     H71400  -2.229   7.046   1.110 -0.6516  0.3850 -0.1031
  529MOL0     H71401  -0.283   7.402   1.341 -2.0505 -3.4511  0.9089
  529MOL0     H71402  -0.064   7.322   1.367  1.3108  3.3039 -0.5943
  529MOL0     H71403   0.310   7.153   1.126  0.9958  0.1250  0.6794
  529MOL0     H71404   0.545   7.080   1.130 -1.3654 -0.2567 -0.6126
  529MOL0     H71405   0.702   6.906   1.173 -1.6102  2.2564 -1.1003
  529MOL0     H71406   0.793   7.062   1.204  1.7597 -0.8186 -0.1710
  529MOL0     H71407   0.949   6.856   1.213  0.9753 -3.0430  2.0272
  529MOL0     H71408   0.854   6.803   1.349 -0.9520  0.3713  0.8477
  529MOL0     H71409   0.909   7.025   1.459  0.5897 -2.4944  2.4896
  529MOL0     H71410   1.023   7.057   1.320 -0.9253 -0.0327 -0.1794
  529MOL0     H71411   1.019   6.819   1.517 -0.1899  1.8406  2.7548
  529MOL0     H71412   1.124   6.955   1.530  0.1380 -2.7643  1.4198
  529MOL0     H71413   1.347   6.732   1.284 -1.3680 -4.5595  0.1423
  529MOL0     H71414   0.514   6.997   1.548 -1.8238 -1.2834  0.3944
  529MOL0     H71415   0.271   7.030   1.528  0.3833  0.6706 -0.6563
  530MOL0     O71416   3.609   8.105   3.955  0.2711  0.4917  0.6656
  530MOL0     C71417   3.616   8.225   3.961  0.3617  0.0553 -0.4303
  530MOL0     O71418   3.520   8.312   3.895 -0.2477  0.7788  0.0817
  530MOL0     C71419   3.411   8.247   3.846  0.9840  0.1813 -0.3385
  530MOL0     C71420   3.408   8.176   3.724  0.8566  0.1317 -0.7401
  530MOL0     C71421   3.286   8.119   3.673 -0.7823 -0.4727  0.1493
  530MOL0     C71422   3.167   8.138   3.747 -0.5357  1.2733 -0.3929
  530MOL0     O71423   3.043   8.110   3.690 -0.2636  0.1248 -0.1466
  530MOL0     C71424   2.924   8.185   3.724 -0.3477  0.0329 -0.1033
  530MOL0     C71425   2.807   8.131   3.633 -0.3398  0.3186  0.6107
  530MOL0     C71426   2.813   8.186   3.490 -1.3436  1.1586 -0.1338
  530MOL0     C71427   2.714   8.116   3.400 -0.7775  0.3600  0.6972
  530MOL0     C71428   2.574   8.167   3.397  0.1507  0.0627 -0.2250
  530MOL0     C71429   2.479   8.072   3.322  0.4902 -0.1168 -0.9480
  530MOL0     C71430   2.337   8.115   3.324  0.2485 -0.5761 -0.4163
  530MOL0     C71431   2.243   8.020   3.246 -0.2038  0.3537  0.0159
  530MOL0     N71432   2.106   8.070   3.252 -0.6222 -0.3295 -0.0182
  530MOL0     C71433   2.032   8.090   3.364 -0.2799  0.6756  0.2895
  530MOL0     C71434   1.922   8.141   3.318  0.4505  0.2293  0.1135
  530MOL0     C71435   1.808   8.190   3.416 -0.6967  0.6681  0.1151
  530MOL0     C71436   1.849   8.328   3.469 -0.1608 -0.1254  0.4050
  530MOL0     C71437   1.796   8.345   3.607 -0.2783 -0.7152  0.6161
  530MOL0     C71438   1.828   8.484   3.650  0.9682 -1.4371 -0.3622
  530MOL0     O71439   1.744   8.507   3.769 -0.6543 -0.0390  0.4676
  530MOL0     C71440   1.808   8.463   3.880 -0.8115 -0.1641 -0.6234
  530MOL0     C71441   1.732   8.380   3.968 -1.0281  0.1060  0.2732
  530MOL0     C71442   1.790   8.335   4.090  0.4502 -0.2059  0.5042
  530MOL0     C71443   1.701   8.238   4.170  0.1078  0.1484  0.4271
  530MOL0     C71444   1.926   8.359   4.122  0.4890 -0.2701 -0.4856
  530MOL0     C71445   2.004   8.283   4.225 -0.6063 -0.1250 -0.3796
  530MOL0     O71446   2.125   8.232   4.179 -0.0229  0.0379  0.0903
  530MOL0     C71447   2.215   8.153   4.255 -0.0382 -0.1903  0.1523
  530MOL0     C71448   2.204   8.092   4.388  0.6833 -0.3809  0.8673
  530MOL0     C71449   2.314   8.017   4.454 -0.0305 -0.1113  0.2761
  530MOL0     C71450   2.432   8.001   4.387  0.4369  0.6005  0.3656
  530MOL0     O71451   2.554   7.952   4.432  0.6316 -0.1927  0.5215
  530MOL0     C71452   2.557   7.864   4.547 -0.0826  0.1001  0.0223
  530MOL0     C71453   2.695   7.804   4.568  0.8784  0.6059  0.3295
  530MOL0     C71454   2.789   7.908   4.634 -0.0299  0.0157 -0.1337
  530MOL0     C71455   2.942   7.896   4.598  0.0067  0.2515  0.3586
  530MOL0     C71456   3.028   7.998   4.681  0.6622 -1.0921  0.9786
  530MOL0     C71457   3.052   7.961   4.821  0.1421  0.2943 -1.1146
  530MOL0     C71458   3.153   8.052   4.886  0.1862 -0.2972  0.7440
  530MOL0     C71459   3.186   8.030   5.035 -0.1253  0.0396  0.1761
  530MOL0    Cl71460   3.050   8.045   5.150  0.3529 -0.4295 -0.2532
  530MOL0     C71461   2.442   8.061   4.263  0.9336  0.4286  0.5857
  530MOL0     C71462   2.340   8.132   4.197 -0.2857 -0.5304  0.1606
  530MOL0     O71463   1.965   8.272   4.341  0.1219  0.0031  1.0849
  530MOL0     C71464   2.001   8.436   4.034  0.3689 -0.4173  0.5719
  530MOL0     C71465   1.939   8.495   3.914 -1.2402  0.2883  0.1263
  530MOL0     N71466   1.925   8.165   3.180  0.6992  0.2499 -0.4502
  530MOL0     N71467   2.045   8.120   3.147 -0.1712 -0.2873  0.7216
  530MOL0     C71468   3.175   8.194   3.868  0.3597 -0.8923 -0.3829
  530MOL0     C71469   3.288   8.249   3.923  0.0057 -0.3833  0.1315
  530MOL0     C71470   3.731   8.286   4.028  1.1082 -1.1037 -0.6558
  530MOL0     C71471   3.815   8.217   4.113  0.0102  1.1892  0.3230
  530MOL0     C71472   3.921   8.279   4.181  0.1173  0.1359  0.2928
  530MOL0     C71473   3.943   8.416   4.177  0.6653 -1.0910  0.3754
  530MOL0     O71474   4.038   8.488   4.245 -0.0504  0.1112 -0.1607
  530MOL0     C71475   4.103   8.413   4.352  0.2505 -0.0870 -0.1534
  530MOL0     C71476   4.183   8.502   4.439  0.2037  0.7175  0.2125
  530MOL0     C71477   4.284   8.419   4.527  0.1683 -0.2081  0.0423
  530MOL0     C71478   4.291   8.487   4.663  0.4455  0.3116  0.0188
  530MOL0     C71479   4.337   8.626   4.659  0.3748 -0.0449 -0.0255
  530MOL0     C71480   4.362   8.739   4.679  1.1123 -0.5360 -0.2603
  530MOL0     C71481   3.860   8.487   4.087 -0.9102  0.1013  0.2140
  530MOL0     C71482   3.751   8.422   4.018 -0.2480 -1.1987 -0.3567
  530MOL0     H71483   3.503   8.169   3.671  1.9113 -2.5496  1.2878
  530MOL0     H71484   3.295   8.056   3.585  1.2239 -0.3670  0.2434
  530MOL0     H71485   2.899   8.165   3.829  2.5135  0.3590  0.7320
  530MOL0     H71486   2.939   8.289   3.695  0.4784 -0.6393 -2.2298
  530MOL0     H71487   2.814   8.022   3.629  3.3580  0.3934  1.3700
  530MOL0     H71488   2.709   8.166   3.667 -1.2234 -0.8821 -0.5782
  530MOL0     H71489   2.799   8.295   3.495 -1.1760  1.1920 -0.3480
  530MOL0     H71490   2.912   8.160   3.451 -1.9660  1.1900 -1.8345
  530MOL0     H71491   2.747   8.118   3.296  0.6358 -0.9724  1.0828
  530MOL0     H71492   2.721   8.011   3.430  0.2063 -0.3416 -1.7438
  530MOL0     H71493   2.539   8.194   3.497  0.6697  0.4442 -0.1421
  530MOL0     H71494   2.572   8.261   3.342 -1.8735  0.0316 -0.2484
  530MOL0     H71495   2.526   8.063   3.224 -0.3589  0.1415 -1.3831
  530MOL0     H71496   2.478   7.972   3.368 -4.0333  1.5588  3.5318
  530MOL0     H71497   2.303   8.119   3.428 -0.7499  0.2835 -0.7547
  530MOL0     H71498   2.330   8.214   3.277 -1.6739 -0.8914 -0.8591
  530MOL0     H71499   2.248   7.917   3.283  0.0466 -0.1056 -1.2475
  530MOL0     H71500   2.280   8.006   3.144 -0.2873 -1.6228  0.2226
  530MOL0     H71501   2.070   8.067   3.463  1.1052 -0.5562 -0.5008
  530MOL0     H71502   1.715   8.192   3.359 -1.7823  1.4094  1.8100
  530MOL0     H71503   1.796   8.116   3.497  2.3520  0.6924  0.7107
  530MOL0     H71504   1.808   8.412   3.412  3.7583  1.3992 -0.4638
  530MOL0     H71505   1.955   8.349   3.453 -0.2927 -0.0402 -0.4336
  530MOL0     H71506   1.839   8.270   3.675  2.6591 -0.5369 -0.8881
  530MOL0     H71507   1.688   8.330   3.599 -0.4830  0.8325  0.3176
  530MOL0     H71508   1.804   8.561   3.576 -0.6844 -0.4892  1.0738
  530MOL0     H71509   1.936   8.499   3.660  1.4291 -3.1901 -2.0770
  530MOL0     H71510   1.629   8.358   3.941 -1.4281  2.5114 -0.3897
  530MOL0     H71511   1.754   8.160   4.226 -0.5391 -0.7130 -0.1300
  530MOL0     H71512   1.643   8.298   4.241 -1.5940 -2.0453  1.0223
  530MOL0     H71513   1.624   8.185   4.114  0.1919  2.5864 -2.1563
  530MOL0     H71514   2.108   8.104   4.436  0.1373  0.8056 -0.4446
  530MOL0     H71515   2.293   7.969   4.549  2.0785 -2.0233 -0.1394
  530MOL0     H71516   2.524   7.921   4.634 -0.7162 -0.1496 -0.0514
  530MOL0     H71517   2.495   7.776   4.526  0.1145 -0.0657  0.1327
  530MOL0     H71518   2.664   7.721   4.632  1.7919  1.7917  2.3773
  530MOL0     H71519   2.729   7.774   4.468 -1.3927  1.7033 -0.8449
  530MOL0     H71520   2.777   7.896   4.743 -4.9833  0.6590 -0.3810
  530MOL0     H71521   2.751   8.006   4.605 -0.5799  0.2708  1.3175
  530MOL0     H71522   2.983   7.797   4.617 -2.0073 -0.2804  2.2951
  530MOL0     H71523   2.950   7.918   4.491  0.6475  0.0750  0.3650
  530MOL0     H71524   2.972   8.093   4.678  1.9597 -0.3288 -1.1730
  530MOL0     H71525   3.123   8.007   4.627 -0.0306 -0.0998 -0.1270
  530MOL0     H71526   2.963   7.947   4.884  1.5784 -1.2673  0.6903
  530MOL0     H71527   3.096   7.862   4.840  0.0512  0.8241  2.8132
  530MOL0     H71528   3.123   8.157   4.882  2.5897  0.6287  3.5549
  530MOL0     H71529   3.248   8.041   4.833 -1.0940 -0.7504 -1.6253
  530MOL0     H71530   3.266   8.095   5.072  0.5606 -0.5727 -0.2274
  530MOL0     H71531   3.224   7.928   5.045  0.1505 -0.0988 -1.8519
  530MOL0     H71532   2.539   8.068   4.214  0.1340  0.0582 -1.1024
  530MOL0     H71533   2.351   8.155   4.092  1.7946 -2.5318 -0.1502
  530MOL0     H71534   2.108   8.457   4.043 -0.0916  2.3828  0.3885
  530MOL0     H71535   2.012   8.548   3.853  1.0434 -0.1955  2.2691
  530MOL0     H71536   3.084   8.203   3.927  0.2473  0.2849 -0.7261
  530MOL0     H71537   3.280   8.303   4.017 -2.3484 -1.2006  0.4686
  530MOL0     H71538   3.804   8.109   4.113 -0.5213  1.1120 -3.1987
  530MOL0     H71539   3.986   8.215   4.240  0.4965 -0.7647 -1.0529
  530MOL0     H71540   4.026   8.352   4.400  0.6265 -1.6259 -1.4477
  530MOL0     H71541   4.163   8.335   4.306  1.6481  0.7037  0.2610
  530MOL0     H71542   4.125   8.554   4.516 -0.6208  0.0439  0.0552
  530MOL0     H71543   4.249   8.561   4.373 -0.5914  0.7543 -0.5685
  530MOL0     H71544   4.388   8.418   4.492  0.2531  0.2646  0.2743
  530MOL0     H71545   4.241   8.320   4.545 -1.3334  0.6353  1.2723
  530MOL0     H71546   4.353   8.431   4.734 -1.4183 -1.3016  0.4926
  530MOL0     H71547   4.193   8.477   4.711 -0.6718  1.2434 -1.9448
  530MOL0     H71548   4.401   8.837   4.702 -0.0482 -0.5225  1.8555
  530MOL0     H71549   3.870   8.595   4.090 -1.9528  0.2789 -1.4223
  530MOL0     H71550   3.692   8.487   3.955  0.6234  1.2107  1.1777
  531MOL0     O71551   0.100   9.914   5.096  0.5710  0.1411  0.3846
  531MOL0     C71552   0.090   9.860   4.982  0.0048  0.0084 -0.2943
  531MOL0     O71553  -0.008   9.764   4.940 -0.1557  0.1863  0.3032
  531MOL0     C71554  -0.098   9.717   5.035  0.4257 -0.0448 -0.2294
  531MOL0     C71555  -0.175   9.796   5.116  0.6987 -0.1069 -0.0607
  531MOL0     C71556  -0.255   9.737   5.219 -0.5552  0.6694  0.0753
  531MOL0     C71557  -0.273   9.605   5.225 -0.5278 -0.0609 -0.2873
  531MOL0     O71558  -0.344   9.564   5.324  0.0473 -0.4063 -0.0343
  531MOL0     C71559  -0.320   9.430   5.372 -0.0680 -0.3505  0.7899
  531MOL0     C71560  -0.406   9.403   5.490 -1.5633 -0.2206  0.3641
  531MOL0     C71561  -0.559   9.411   5.450 -0.3074 -0.2779 -0.8944
  531MOL0     C71562  -0.659   9.352   5.562  0.2643  0.9854  0.1689
  531MOL0     C71563  -0.802   9.341   5.503 -0.5037  1.0403 -0.5774
  531MOL0     C71564  -0.874   9.478   5.481  0.8148  0.2180 -0.0188
  531MOL0     C71565  -1.005   9.463   5.413 -0.3803  0.3963  0.4074
  531MOL0     C71566  -1.096   9.580   5.436  0.4584  0.4843  0.2291
  531MOL0     N71567  -1.233   9.558   5.387  0.5961 -0.7770 -0.3084
  531MOL0     C71568  -1.315   9.464   5.446  0.1075  0.5314  0.2384
  531MOL0     C71569  -1.425   9.477   5.365 -0.1887 -0.1433  0.4818
  531MOL0     C71570  -1.548   9.409   5.411 -0.1912  0.8176  0.2277
  531MOL0     C71571  -1.674   9.465   5.352  0.5492  1.0165 -0.6994
  531MOL0     C71572  -1.798   9.396   5.411  0.5361  0.1895  0.0937
  531MOL0     C71573  -1.922   9.434   5.335  0.4397 -0.4642 -0.0078
  531MOL0     O71574  -2.042   9.397   5.415 -0.6279  0.9496 -0.2322
  531MOL0     C71575  -2.162   9.429   5.358  0.6127  0.2854 -1.0703
  531MOL0     C71576  -2.271   9.383   5.429 -0.1437 -0.2408  0.2119
  531MOL0     C71577  -2.404   9.414   5.396  0.2451 -0.3069 -0.8923
  531MOL0     C71578  -2.516   9.359   5.489 -1.3970 -0.8086  0.3697
  531MOL0     C71579  -2.429   9.507   5.290 -0.0330 -0.1288 -0.0687
  531MOL0     C71580  -2.554   9.563   5.240  0.0041  0.3068  0.7287
  531MOL0     O71581  -2.659   9.565   5.333  0.2847 -0.2461  0.4220
  531MOL0     C71582  -2.784   9.597   5.289  1.0544  0.2998  0.0854
  531MOL0     C71583  -2.832   9.635   5.164 -0.7301 -0.3248 -0.2078
  531MOL0     C71584  -2.967   9.674   5.149 -0.4726 -0.4995  0.5218
  531MOL0     C71585  -3.061   9.686   5.254 -0.2805 -0.0822  0.2908
  531MOL0     O71586  -3.190   9.727   5.220 -0.4098 -0.3182 -0.5908
  531MOL0     C71587  -3.282   9.744   5.329  0.3446 -0.5373 -0.1087
  531MOL0     C71588  -3.381   9.851   5.295 -0.3290  0.4774  0.3550
  531MOL0     C71589  -3.501   9.824   5.379  0.5869 -0.2269 -1.2593
  531MOL0     C71590  -3.583   9.951   5.364  0.3377  0.0155 -0.2802
  531MOL0     C71591  -3.697   9.954   5.461  0.6478  0.8615 -0.4844
  531MOL0     C71592  -3.802   9.851   5.416  0.5832 -0.3107  0.0697
  531MOL0     C71593  -3.924   9.841   5.507 -0.6932  0.1636 -0.0865
  531MOL0     C71594  -4.046   9.795   5.431 -0.3957  1.1581 -0.2364
  531MOL0    Cl71595  -4.101   9.916   5.301 -0.0680  0.1796 -0.2292
  531MOL0     C71596  -3.012   9.640   5.383 -0.3451 -0.2378  1.1885
  531MOL0     C71597  -2.876   9.593   5.398  0.8659 -0.7030  0.2295
  531MOL0     O71598  -2.560   9.586   5.116 -0.4354  0.2919 -0.1908
  531MOL0     C71599  -2.311   9.550   5.217 -0.1072  0.5456 -0.2641
  531MOL0     C71600  -2.179   9.518   5.248  0.2985 -0.5551 -0.2931
  531MOL0     N71601  -1.407   9.569   5.263  0.3852  1.0081 -0.3847
  531MOL0     N71602  -1.291   9.613   5.274 -0.1574 -0.0056  0.4532
  531MOL0     C71603  -0.206   9.525   5.133 -0.6015  0.3798 -0.0888
  531MOL0     C71604  -0.113   9.579   5.042  0.6502 -0.2097  0.5052
  531MOL0     C71605   0.210   9.879   4.902 -0.9590  0.3205  0.7335
  531MOL0     C71606   0.320   9.970   4.931  0.3287 -0.3556 -0.4767
  531MOL0     C71607   0.417   9.992   4.837  0.3107 -0.6434 -0.4965
  531MOL0     C71608   0.433   9.902   4.735  0.2966  0.9110 -0.1827
  531MOL0     O71609   0.545   9.901   4.664 -0.5918 -0.2233  0.6278
  531MOL0     C71610   0.554  10.001   4.560 -0.8018 -0.2120  0.6752
  531MOL0     C71611   0.656   9.962   4.445  0.1231  0.0431 -0.1374
  531MOL0     C71612   0.739   9.835   4.462  0.2913 -0.0864  0.4782
  531MOL0     C71613   0.817   9.793   4.332 -0.4006  0.0011  0.1993
  531MOL0     C71614   0.938   9.870   4.324  0.0581  0.1636 -0.3646
  531MOL0     C71615   1.035   9.940   4.307  0.8409  0.0417  0.0823
  531MOL0     C71616   0.339   9.807   4.708  0.3339  0.9026  0.2468
  531MOL0     C71617   0.224   9.795   4.786 -0.2731  0.0359  0.6696
  531MOL0     H71618  -0.174   9.904   5.103  1.2911 -0.2384 -1.3091
  531MOL0     H71619  -0.313   9.798   5.287 -2.0583  1.1880 -1.5874
  531MOL0     H71620  -0.358   9.364   5.293 -0.2749 -0.7796  1.2486
  531MOL0     H71621  -0.214   9.410   5.394  0.7178  2.2295 -0.2217
  531MOL0     H71622  -0.376   9.306   5.529  3.9500 -1.2223 -4.8642
  531MOL0     H71623  -0.377   9.480   5.562  2.1026 -1.9439  0.9416
  531MOL0     H71624  -0.571   9.518   5.430  0.9078  0.1203  0.3463
  531MOL0     H71625  -0.579   9.352   5.360  1.5030  1.4473 -2.5520
  531MOL0     H71626  -0.629   9.255   5.602 -2.2940 -0.2933 -0.8560
  531MOL0     H71627  -0.660   9.423   5.645  0.3508  0.6150  0.4831
  531MOL0     H71628  -0.805   9.288   5.407 -0.4971  1.4919 -0.8320
  531MOL0     H71629  -0.864   9.291   5.578 -2.1310  3.7844  0.0322
  531MOL0     H71630  -0.894   9.516   5.582  1.3372 -1.1952  0.6397
  531MOL0     H71631  -0.808   9.547   5.427 -2.6302  2.0170 -2.2926
  531MOL0     H71632  -0.988   9.445   5.306  0.3999  0.6061  0.4919
  531MOL0     H71633  -1.055   9.377   5.459 -0.3886  0.6973  0.9737
  531MOL0     H71634  -1.048   9.668   5.392 -1.5407  3.1800  3.0163
  531MOL0     H71635  -1.096   9.605   5.542  0.0577 -0.1243  0.3790
  531MOL0     H71636  -1.289   9.393   5.524  1.5691  1.9161  1.0711
  531MOL0     H71637  -1.529   9.302   5.399  2.0398  1.0489  1.0488
  531MOL0     H71638  -1.554   9.423   5.519  2.7591 -0.5934  0.6958
  531MOL0     H71639  -1.675   9.453   5.243 -0.7996  0.9570 -0.7011
  531MOL0     H71640  -1.686   9.573   5.363 -0.3315  1.1284 -2.4252
  531MOL0     H71641  -1.811   9.411   5.519  1.9834 -2.2996  0.6857
  531MOL0     H71642  -1.791   9.288   5.399  2.8079  0.1855  0.8790
  531MOL0     H71643  -1.925   9.396   5.233 -1.0823  1.2126 -0.6361
  531MOL0     H71644  -1.930   9.543   5.327  0.5950 -0.5365 -1.4002
  531MOL0     H71645  -2.254   9.314   5.510  1.4225  0.7982  0.8371
  531MOL0     H71646  -2.480   9.264   5.529  0.1769  0.0242  1.0301
  531MOL0     H71647  -2.545   9.428   5.569 -3.7363  1.0282 -1.8679
  531MOL0     H71648  -2.607   9.337   5.432 -1.0774 -0.6827 -0.1953
  531MOL0     H71649  -2.785   9.653   5.068 -0.9010  1.5367  0.0227
  531MOL0     H71650  -2.996   9.698   5.047  0.0540  0.5284  0.5951
  531MOL0     H71651  -3.337   9.651   5.349  1.2440 -1.3740 -1.3466
  531MOL0     H71652  -3.226   9.783   5.414  0.6862  1.0147 -1.0156
  531MOL0     H71653  -3.333   9.946   5.319 -2.4893  1.5822  0.4965
  531MOL0     H71654  -3.411   9.855   5.190 -1.2112 -1.0474  0.5255
  531MOL0     H71655  -3.466   9.816   5.482  2.7358 -1.0185 -1.9884
  531MOL0     H71656  -3.558   9.735   5.349 -0.2096  0.4291 -1.7526
  531MOL0     H71657  -3.517  10.033   5.393  1.1364  0.8238 -3.9120
  531MOL0     H71658  -3.601   9.972   5.258  0.1193 -2.4900 -0.8021
  531MOL0     H71659  -3.748  10.051   5.467  1.4708  1.2397  0.7369
  531MOL0     H71660  -3.667   9.927   5.562 -0.5352  1.7036  0.1091
  531MOL0     H71661  -3.827   9.866   5.311  3.6474 -0.4159 -0.7837
  531MOL0     H71662  -3.745   9.758   5.428 -0.0272 -0.7608 -0.4810
  531MOL0     H71663  -3.945   9.943   5.541 -1.7365 -0.3338  0.8142
  531MOL0     H71664  -3.897   9.784   5.597  1.6602 -0.5017 -1.1192
  531MOL0     H71665  -4.128   9.779   5.502 -1.7738  3.3210 -1.2212
  531MOL0     H71666  -4.027   9.701   5.378  0.6059  0.4074  1.3616
  531MOL0     H71667  -3.081   9.643   5.466 -0.0273  0.2625  1.4345
  531MOL0     H71668  -2.858   9.556   5.499 -1.0042 -4.3195 -0.6037
  531MOL0     H71669  -2.313   9.610   5.127  0.9682 -0.4388 -0.9707
  531MOL0     H71670  -2.109   9.557   5.174  0.3911 -2.2564 -1.1393
  531MOL0     H71671  -0.217   9.417   5.129  0.3369  0.1866  1.5005
  531MOL0     H71672  -0.054   9.520   4.971  2.4808  0.6415  1.2417
  531MOL0     H71673   0.311  10.039   5.014 -0.2705 -1.3974  0.3499
  531MOL0     H71674   0.497  10.061   4.862 -0.9667  0.1861  1.5284
  531MOL0     H71675   0.457  10.012   4.512 -0.3906 -2.2359 -0.7380
  531MOL0     H71676   0.584  10.094   4.610  2.4077  0.3714 -2.0160
  531MOL0     H71677   0.722  10.047   4.430  0.0941 -0.2425 -2.2370
  531MOL0     H71678   0.604   9.949   4.349 -1.8893 -0.0352  0.8922
  531MOL0     H71679   0.674   9.748   4.479  0.1862 -0.9244 -3.3313
  531MOL0     H71680   0.804   9.834   4.550 -2.6441 -1.8250  2.8820
  531MOL0     H71681   0.763   9.819   4.240  1.1770 -0.0853 -0.7793
  531MOL0     H71682   0.853   9.690   4.334  1.0732  0.5084  0.5297
  531MOL0     H71683   1.123  10.000   4.292 -1.2500  3.1217 -0.7644
  531MOL0     H71684   0.355   9.726   4.638 -0.5420 -0.2860  1.3766
  531MOL0     H71685   0.151   9.718   4.759  1.2334 -0.9535 -0.7898
  532MOL0     O71686   6.760   0.415   3.494  0.6630 -0.0740  0.1107
  532MOL0     C71687   6.799   0.532   3.495 -0.3239  0.1989  0.7770
  532MOL0     O71688   6.719   0.645   3.489  0.1315 -0.0571  0.2345
  532MOL0     C71689   6.583   0.649   3.474  0.4187  0.8289 -0.1934
  532MOL0     C71690   6.498   0.579   3.556  0.7947  0.9338  0.1538
  532MOL0     C71691   6.356   0.592   3.531  0.5916 -0.4194  0.2844
  532MOL0     C71692   6.303   0.681   3.433 -0.2357  0.4970 -0.1119
  532MOL0     O71693   6.168   0.695   3.434  0.6533 -0.5925 -0.4757
  532MOL0     C71694   6.103   0.678   3.304 -0.6561  0.0031 -0.0835
  532MOL0     C71695   5.951   0.668   3.322 -0.6488  0.2970 -0.4406
  532MOL0     C71696   5.904   0.808   3.369  1.0144 -0.9740  0.0087
  532MOL0     C71697   5.759   0.794   3.404 -0.0301 -0.8092 -0.0419
  532MOL0     C71698   5.684   0.919   3.461  0.0323  0.8956  0.1865
  532MOL0     C71699   5.531   0.888   3.469 -0.4655 -0.1334 -0.0201
  532MOL0     C71700   5.496   0.797   3.597  0.1647 -0.0410 -0.1287
  532MOL0     C71701   5.353   0.759   3.602  0.5049  0.2893  0.4771
  532MOL0     N71702   5.304   0.711   3.469 -0.0372 -0.7309 -0.4170
  532MOL0     C71703   5.328   0.590   3.416 -0.1925 -0.3301 -0.2127
  532MOL0     C71704   5.246   0.587   3.298 -0.4236  0.8585  0.0267
  532MOL0     C71705   5.259   0.479   3.193  0.2888 -0.5681  0.3669
  532MOL0     C71706   5.135   0.432   3.119  0.5769 -0.2391  0.5057
  532MOL0     C71707   5.047   0.337   3.199  0.5554  0.4758  0.2111
  532MOL0     C71708   4.913   0.300   3.120  0.1873 -0.1003  0.6636
  532MOL0     O71709   4.949   0.181   3.050  0.1237 -0.4033  0.2216
  532MOL0     C71710   4.863   0.078   3.062 -0.4442  0.4327 -0.9620
  532MOL0     C71711   4.902  -0.048   3.092 -0.9305 -0.5089  0.5544
  532MOL0     C71712   4.820  -0.152   3.109  0.4087 -0.0502  0.4001
  532MOL0     C71713   4.881  -0.285   3.145 -0.4890  0.3288 -1.0072
  532MOL0     C71714   4.682  -0.141   3.074  0.3337 -0.6197  0.2553
  532MOL0     C71715   4.581  -0.251   3.060  0.2388  0.0274 -0.1442
  532MOL0     O71716   4.456  -0.229   3.009 -0.7595  0.4515  0.3927
  532MOL0     C71717   4.347  -0.308   3.044 -0.8002 -0.3482 -0.2538
  532MOL0     C71718   4.278  -0.293   3.165 -1.4586  0.3602  0.5055
  532MOL0     C71719   4.163  -0.363   3.195  0.0172 -0.5649  0.2273
  532MOL0     C71720   4.118  -0.456   3.099  0.1208 -0.1201  1.0581
  532MOL0     O71721   4.013  -0.538   3.117 -0.4708  0.1298 -0.0072
  532MOL0     C71722   3.908  -0.479   3.194 -0.6676 -0.1136  0.4556
  532MOL0     C71723   3.783  -0.558   3.185  0.4527  0.0592  0.2826
  532MOL0     C71724   3.807  -0.705   3.158  0.4569  0.0313 -0.4856
  532MOL0     C71725   3.677  -0.795   3.163 -0.5676  0.4315  0.1194
  532MOL0     C71726   3.628  -0.821   3.305 -0.4211 -0.4497  0.2106
  532MOL0     C71727   3.505  -0.916   3.329 -0.2108 -0.4476  0.2353
  532MOL0     C71728   3.384  -0.875   3.246 -0.3578  0.2529 -0.9559
  532MOL0     C71729   3.261  -0.958   3.279  0.0677 -0.5524  0.5853
  532MOL0    Cl71730   3.282  -1.118   3.203 -0.5540  0.1636 -0.2522
  532MOL0     C71731   4.181  -0.460   2.973 -0.6042  0.2901 -1.2062
  532MOL0     C71732   4.297  -0.387   2.947  0.1745  0.3833 -0.0898
  532MOL0     O71733   4.608  -0.356   3.122 -0.0986 -0.3356  0.6285
  532MOL0     C71734   4.640  -0.012   3.043  0.0672 -0.6703  0.3310
  532MOL0     C71735   4.726   0.096   3.030 -0.0508  0.1517  0.3992
  532MOL0     N71736   5.168   0.699   3.297  0.3553 -0.1841  0.3107
  532MOL0     N71737   5.204   0.775   3.406  0.1860  0.6285 -0.3681
  532MOL0     C71738   6.390   0.741   3.345 -0.4693  0.0064  0.2709
  532MOL0     C71739   6.523   0.736   3.382 -0.3590  0.2517 -0.2344
  532MOL0     C71740   6.943   0.547   3.505 -0.2502 -0.4037  0.2847
  532MOL0     C71741   6.994   0.669   3.553 -0.7003 -0.0061 -0.7282
  532MOL0     C71742   7.134   0.685   3.564  1.0017  1.1610  0.1515
  532MOL0     C71743   7.230   0.593   3.532 -1.0615  0.3920  0.1557
  532MOL0     O71744   7.366   0.618   3.531  0.0898  0.0103 -0.4888
  532MOL0     C71745   7.455   0.514   3.489 -0.4627 -0.1973  0.4383
  532MOL0     C71746   7.590   0.574   3.491  0.2472  0.0956  0.1331
  532MOL0     C71747   7.692   0.463   3.445 -0.2796 -1.1525 -0.1795
  532MOL0     C71748   7.833   0.507   3.497  0.4133  0.3600 -1.2079
  532MOL0     C71749   7.841   0.492   3.647  0.5579 -1.0395 -0.1794
  532MOL0     C71750   7.847   0.478   3.768  0.2838  0.3831 -0.1809
  532MOL0     C71751   7.180   0.469   3.493  0.9051 -0.1504  1.0675
  532MOL0     C71752   7.037   0.449   3.474  0.5064 -0.0535 -0.0430
  532MOL0     H71753   6.532   0.512   3.634  0.4036 -2.1864 -2.1265
  532MOL0     H71754   6.293   0.548   3.609  1.2939  0.4164  1.3550
  532MOL0     H71755   6.133   0.757   3.235 -1.9751  0.4442 -0.1743
  532MOL0     H71756   6.137   0.587   3.255  2.2174  1.8862 -1.8698
  532MOL0     H71757   5.897   0.644   3.230 -0.4064  2.1926 -1.1256
  532MOL0     H71758   5.925   0.598   3.402  0.6086  2.3218  1.8725
  532MOL0     H71759   5.966   0.837   3.455  2.8882 -3.5261 -0.3593
  532MOL0     H71760   5.922   0.877   3.286 -0.0838  1.7454  1.8532
  532MOL0     H71761   5.701   0.759   3.318  1.5189 -3.7221 -0.0392
  532MOL0     H71762   5.750   0.707   3.469  2.3663 -0.4437  0.9057
  532MOL0     H71763   5.723   0.961   3.554  1.9053 -0.4061  0.0486
  532MOL0     H71764   5.688   0.995   3.382 -0.1901 -0.6675 -1.4112
  532MOL0     H71765   5.477   0.983   3.468  0.3877  0.3951  1.0188
  532MOL0     H71766   5.499   0.837   3.377 -0.3598  0.9638 -0.6728
  532MOL0     H71767   5.557   0.706   3.590 -0.3007 -0.3513 -0.2282
  532MOL0     H71768   5.526   0.851   3.687  0.6923 -0.1555 -0.2299
  532MOL0     H71769   5.285   0.840   3.629  1.4760  2.3230 -2.6504
  532MOL0     H71770   5.342   0.676   3.674 -0.9216 -3.3635 -3.5224
  532MOL0     H71771   5.403   0.514   3.436  1.3875  0.8878 -1.2618
  532MOL0     H71772   5.328   0.522   3.120 -0.3731 -0.8628 -0.4338
  532MOL0     H71773   5.319   0.400   3.239  2.5571  1.4698  1.1324
  532MOL0     H71774   5.148   0.377   3.025 -1.0862  0.2299 -0.0369
  532MOL0     H71775   5.083   0.525   3.097 -1.1632 -0.8026  1.9895
  532MOL0     H71776   5.008   0.400   3.280 -0.6271  3.4262 -2.4078
  532MOL0     H71777   5.094   0.251   3.245  0.5896  0.0603 -0.5850
  532MOL0     H71778   4.905   0.375   3.040  4.5232 -1.4936 -1.3967
  532MOL0     H71779   4.831   0.298   3.193 -0.4771  1.5899  0.0321
  532MOL0     H71780   5.008  -0.066   3.106 -1.1482 -2.0002  0.4670
  532MOL0     H71781   4.990  -0.289   3.161 -0.1204  0.8954 -3.1361
  532MOL0     H71782   4.834  -0.323   3.237  1.6151 -1.0302 -0.4031
  532MOL0     H71783   4.864  -0.350   3.059 -2.9941  1.8351 -1.7355
  532MOL0     H71784   4.318  -0.238   3.249  0.4791 -1.5951  0.9540
  532MOL0     H71785   4.127  -0.355   3.297 -0.0627 -2.2693  0.3672
  532MOL0     H71786   3.941  -0.463   3.297 -0.6476 -0.5064  0.5101
  532MOL0     H71787   3.882  -0.387   3.141  1.3793  1.2415  1.6508
  532MOL0     H71788   3.720  -0.531   3.271 -0.4571 -3.7828  1.0137
  532MOL0     H71789   3.735  -0.524   3.093 -0.0080  0.0627  0.5233
  532MOL0     H71790   3.883  -0.743   3.226 -0.1136  1.3734  0.9855
  532MOL0     H71791   3.839  -0.713   3.054  1.0761 -1.4069 -0.2113
  532MOL0     H71792   3.602  -0.744   3.103  1.0838  2.3720 -0.4108
  532MOL0     H71793   3.693  -0.897   3.126  0.0720 -0.1962  2.0172
  532MOL0     H71794   3.604  -0.726   3.354 -1.1660 -1.0598  1.0530
  532MOL0     H71795   3.709  -0.868   3.361  0.1428 -1.8643 -1.6757
  532MOL0     H71796   3.545  -1.017   3.317  1.1160 -0.2253  2.2338
  532MOL0     H71797   3.482  -0.925   3.436 -0.3624 -0.7119  0.1814
  532MOL0     H71798   3.421  -0.888   3.144  2.5885  1.7000 -0.2110
  532MOL0     H71799   3.356  -0.770   3.263 -0.3328  0.2722 -1.0356
  532MOL0     H71800   3.171  -0.908   3.242  0.8762  0.7208  0.3055
  532MOL0     H71801   3.236  -0.979   3.384 -1.2091  1.1714  0.6651
  532MOL0     H71802   4.140  -0.528   2.898  0.9757 -0.3123 -1.5814
  532MOL0     H71803   4.340  -0.402   2.849  0.4287 -1.9387  0.3148
  532MOL0     H71804   4.534   0.000   3.020 -0.1712  2.5973  2.4798
  532MOL0     H71805   4.686   0.190   2.992  2.1661  0.9963  0.0108
  532MOL0     H71806   6.366   0.809   3.264 -2.9900 -0.6951  0.3482
  532MOL0     H71807   6.593   0.797   3.326  0.3667 -0.2198  0.1350
  532MOL0     H71808   6.931   0.754   3.579  0.2277  0.2529  0.8190
  532MOL0     H71809   7.172   0.785   3.585 -0.0409  1.7270 -0.6066
  532MOL0     H71810   7.444   0.424   3.551 -3.5081 -0.6221 -0.5332
  532MOL0     H71811   7.438   0.486   3.385  1.9585  3.5604 -1.1607
  532MOL0     H71812   7.606   0.615   3.591 -1.7605 -0.1274  0.5885
  532MOL0     H71813   7.588   0.659   3.423  0.9935 -1.3980 -1.8385
  532MOL0     H71814   7.689   0.448   3.337 -2.8105 -1.7604 -0.0794
  532MOL0     H71815   7.661   0.375   3.503 -0.2275  0.2414  2.0905
  532MOL0     H71816   7.851   0.613   3.475  0.4681  0.6679  0.1932
  532MOL0     H71817   7.910   0.441   3.457  1.6893 -0.0467  1.6288
  532MOL0     H71818   7.844   0.478   3.875  3.5158 -2.4738  0.0667
  532MOL0     H71819   7.250   0.387   3.482  1.2818  0.3901 -0.8406
  532MOL0     H71820   7.010   0.352   3.434  0.6549 -0.9019  1.8144
  533MOL0     O71821   5.855   0.977   2.775 -0.7226 -0.5511  0.4054
  533MOL0     C71822   5.776   0.886   2.756  0.2398  0.1995 -0.1590
  533MOL0     O71823   5.807   0.748   2.771 -0.1048 -0.6484 -0.5973
  533MOL0     C71824   5.926   0.715   2.817 -0.0254  0.1711  0.2566
  533MOL0     C71825   6.046   0.770   2.766 -0.1236  0.0283 -0.1180
  533MOL0     C71826   6.167   0.703   2.801  0.1617 -1.3047 -0.6143
  533MOL0     C71827   6.179   0.611   2.897 -0.2365  0.3862 -0.3522
  533MOL0     O71828   6.308   0.579   2.929 -0.1623  0.3031 -0.5984
  533MOL0     C71829   6.371   0.503   2.824 -0.0832  0.0449  0.6104
  533MOL0     C71830   6.527   0.523   2.828 -0.3876 -0.1514 -0.0443
  533MOL0     C71831   6.577   0.467   2.956  0.4289  0.3443 -0.4241
  533MOL0     C71832   6.728   0.488   2.954  0.8045  0.2440  0.2155
  533MOL0     C71833   6.792   0.465   3.086  1.5646  0.5738 -0.0179
  533MOL0     C71834   6.929   0.526   3.100 -0.1009 -0.7578  0.7484
  533MOL0     C71835   6.950   0.675   3.113 -0.6852 -0.7315 -0.6995
  533MOL0     C71836   7.074   0.721   3.181  0.0531 -0.9251 -0.1826
  533MOL0     N71837   7.204   0.704   3.115 -0.1994  0.1075 -0.1439
  533MOL0     C71838   7.276   0.806   3.044  0.2663 -0.3694  0.0505
  533MOL0     C71839   7.383   0.742   2.994 -0.2899 -0.3856  0.4181
  533MOL0     C71840   7.486   0.809   2.898 -0.1986 -0.2499  0.1095
  533MOL0     C71841   7.441   0.790   2.758  0.4173  0.5811  0.3845
  533MOL0     C71842   7.306   0.857   2.725 -0.6793  1.8799  1.0626
  533MOL0     C71843   7.282   0.887   2.576 -0.7861  0.1075 -0.1303
  533MOL0     O71844   7.187   0.995   2.569 -0.2118 -0.3203  0.1302
  533MOL0     C71845   7.043   0.968   2.559 -0.2896  0.4158  0.3004
  533MOL0     C71846   6.990   0.836   2.570  1.1427  0.0246  0.2323
  533MOL0     C71847   6.853   0.814   2.543  0.1340  0.5422  0.1487
  533MOL0     C71848   6.798   0.677   2.565  0.6359 -0.4769 -0.2127
  533MOL0     C71849   6.769   0.921   2.507 -0.2455  0.5553 -0.0157
  533MOL0     C71850   6.620   0.915   2.496  0.0926  0.9853  0.3636
  533MOL0     O71851   6.574   0.968   2.381  0.2139 -0.1605 -0.1500
  533MOL0     C71852   6.464   0.913   2.321 -0.3981  0.2198 -0.7551
  533MOL0     C71853   6.338   0.959   2.348 -0.2249 -0.5374  0.3173
  533MOL0     C71854   6.238   0.898   2.271 -0.2577  0.6070 -0.3093
  533MOL0     C71855   6.265   0.802   2.169  0.3101  0.5212 -0.4629
  533MOL0     O71856   6.160   0.759   2.083 -0.0336  0.4677 -0.3903
  533MOL0     C71857   6.168   0.654   1.991 -0.4897 -0.1521 -0.7372
  533MOL0     C71858   6.047   0.658   1.902 -0.0543  0.1508  0.0631
  533MOL0     C71859   5.918   0.648   1.984 -1.7774  0.3586  0.5712
  533MOL0     C71860   5.787   0.683   1.907 -0.3469  0.4465  0.0953
  533MOL0     C71861   5.766   0.599   1.780  0.2937 -0.4847 -0.2848
  533MOL0     C71862   5.752   0.447   1.796 -0.3341  0.1040  0.4478
  533MOL0     C71863   5.699   0.375   1.673 -0.4226  0.6948  0.3656
  533MOL0     C71864   5.651   0.228   1.697 -0.4032 -0.2902 -0.0074
  533MOL0    Cl71865   5.504   0.234   1.798 -0.3394  0.2154 -1.0005
  533MOL0     C71866   6.399   0.745   2.166 -0.2493  0.1018 -0.1429
  533MOL0     C71867   6.498   0.813   2.236 -0.3557 -0.0652  1.0105
  533MOL0     O71868   6.557   0.833   2.565  0.2937 -0.7028 -0.1478
  533MOL0     C71869   6.824   1.049   2.516 -0.9027  0.1949 -0.0188
  533MOL0     C71870   6.958   1.074   2.537 -0.1513  0.1183 -0.2699
  533MOL0     N71871   7.362   0.602   3.013  0.2596  0.3183 -0.0449
  533MOL0     N71872   7.263   0.584   3.094  0.1779  0.0734 -0.2430
  533MOL0     C71873   6.061   0.556   2.958 -0.8795 -0.3883 -0.6352
  533MOL0     C71874   5.940   0.617   2.915  0.0685 -0.2699 -0.2522
  533MOL0     C71875   5.639   0.910   2.721  0.0876  0.1665  0.1843
  533MOL0     C71876   5.549   0.807   2.710  0.3962  0.9008  0.2077
  533MOL0     C71877   5.418   0.829   2.662 -0.6473 -0.3867  0.2042
  533MOL0     C71878   5.378   0.959   2.622 -0.2742  0.6000  1.1465
  533MOL0     O71879   5.248   0.973   2.580  0.0041  0.4920 -0.6414
  533MOL0     C71880   5.192   1.102   2.593  0.4366 -0.1261 -0.0876
  533MOL0     C71881   5.048   1.076   2.579  0.3823 -1.0675 -0.4418
  533MOL0     C71882   4.970   1.213   2.585 -0.1584  0.7852  0.1656
  533MOL0     C71883   4.820   1.174   2.581  0.2359 -0.7331  0.1193
  533MOL0     C71884   4.743   1.296   2.575 -0.4938 -0.1023 -0.1646
  533MOL0     C71885   4.665   1.390   2.568 -0.1655  0.1522  0.1119
  533MOL0     C71886   5.470   1.067   2.632  0.3946  0.5696  0.2850
  533MOL0     C71887   5.593   1.038   2.685 -0.7282 -0.6963 -0.3734
  533MOL0     H71888   6.054   0.847   2.689 -0.4323 -0.4868 -0.6727
  533MOL0     H71889   6.257   0.740   2.754 -0.0941  1.3335  0.7800
  533MOL0     H71890   6.341   0.399   2.842  0.3247 -0.2422 -0.2667
  533MOL0     H71891   6.352   0.537   2.722  0.4964 -0.6871  0.2452
  533MOL0     H71892   6.560   0.461   2.744  0.2608 -0.4868  0.4580
  533MOL0     H71893   6.553   0.629   2.813  3.5523 -1.0033 -0.3184
  533MOL0     H71894   6.536   0.522   3.041  4.0588  0.7567  1.2884
  533MOL0     H71895   6.561   0.360   2.971  0.9124  0.5048  1.6606
  533MOL0     H71896   6.786   0.420   2.890 -0.9774 -2.3054  1.1370
  533MOL0     H71897   6.754   0.586   2.913  0.9047 -1.2554 -3.8217
  533MOL0     H71898   6.727   0.494   3.168  0.2332 -1.9283 -0.0926
  533MOL0     H71899   6.804   0.356   3.081  1.3893  0.5577 -0.0960
  533MOL0     H71900   6.974   0.474   3.186 -0.4386  1.2013  2.1634
  533MOL0     H71901   6.995   0.502   3.016  1.4452  2.5330  0.8631
  533MOL0     H71902   6.950   0.705   3.008 -2.5859 -0.2100 -0.5864
  533MOL0     H71903   6.862   0.713   3.167  0.4233  0.4626  0.3554
  533MOL0     H71904   7.080   0.675   3.280  2.3369  0.7797  0.5444
  533MOL0     H71905   7.060   0.828   3.197  1.0953 -0.6640 -0.8865
  533MOL0     H71906   7.268   0.914   3.031  1.4289 -0.0941  1.4249
  533MOL0     H71907   7.498   0.915   2.922  3.3298  0.3281 -3.2262
  533MOL0     H71908   7.589   0.772   2.896  0.1613  0.7693 -1.0682
  533MOL0     H71909   7.431   0.685   2.729 -2.3175  1.2517 -1.4496
  533MOL0     H71910   7.529   0.833   2.708  3.2544 -0.9925  3.5616
  533MOL0     H71911   7.291   0.945   2.789 -2.1802  1.1357  1.7795
  533MOL0     H71912   7.227   0.792   2.764  1.7185 -1.2408  1.0830
  533MOL0     H71913   7.246   0.803   2.516 -2.2111  0.3372  0.3676
  533MOL0     H71914   7.381   0.916   2.538 -0.4366  0.3069  0.9053
  533MOL0     H71915   7.052   0.751   2.597 -1.5160 -1.3345  2.5450
  533MOL0     H71916   6.716   0.678   2.638 -0.1656  2.5796 -1.0441
  533MOL0     H71917   6.767   0.626   2.474 -1.2293  0.4070 -0.1083
  533MOL0     H71918   6.877   0.612   2.605 -0.5608 -0.7909  1.7771
  533MOL0     H71919   6.322   1.045   2.413 -0.9103  2.0393 -3.0045
  533MOL0     H71920   6.137   0.938   2.273 -0.2734  0.5598 -0.0438
  533MOL0     H71921   6.261   0.664   1.934  1.6325 -1.0978  2.3181
  533MOL0     H71922   6.163   0.557   2.041 -1.0589  0.4076  0.3328
  533MOL0     H71923   6.048   0.750   1.843  2.4592 -0.3372 -0.7744
  533MOL0     H71924   6.059   0.570   1.837  1.0717 -0.0054  0.4764
  533MOL0     H71925   5.923   0.707   2.076 -1.6353  1.3483 -0.0571
  533MOL0     H71926   5.909   0.547   2.025  1.3934  0.5000  1.8960
  533MOL0     H71927   5.699   0.674   1.972 -0.0144 -0.2472  0.4569
  533MOL0     H71928   5.797   0.788   1.879 -1.2966  1.1343  2.0991
  533MOL0     H71929   5.845   0.610   1.705  1.7387 -1.4430  1.0406
  533MOL0     H71930   5.668   0.635   1.747  0.3377 -1.4260 -1.5225
  533MOL0     H71931   5.850   0.410   1.828  0.0460  2.4069  2.2266
  533MOL0     H71932   5.678   0.429   1.875 -1.5229 -0.2973 -0.7283
  533MOL0     H71933   5.779   0.374   1.599 -0.6620 -2.5400 -0.0280
  533MOL0     H71934   5.614   0.432   1.634  0.6871  3.1846  1.4037
  533MOL0     H71935   5.733   0.178   1.750 -0.4230 -1.2996 -0.9061
  533MOL0     H71936   5.631   0.173   1.605 -0.8020 -0.8397  0.3971
  533MOL0     H71937   6.433   0.662   2.104  0.0679 -0.0428  0.2242
  533MOL0     H71938   6.594   0.769   2.212  0.3100  0.8563  1.9071
  533MOL0     H71939   6.773   1.145   2.507 -0.6445  0.6783  2.7069
  533MOL0     H71940   6.995   1.176   2.543  0.5266  0.0053 -1.9354
  533MOL0     H71941   6.075   0.478   3.032  1.2918 -1.0006 -1.6069
  533MOL0     H71942   5.851   0.588   2.970 -0.7167  0.8133 -0.9281
  533MOL0     H71943   5.568   0.706   2.746  2.4696  2.2714  3.3211
  533MOL0     H71944   5.344   0.750   2.650 -1.2769  0.6484 -4.0625
  533MOL0     H71945   5.193   1.141   2.696  0.0360 -2.1194  0.7151
  533MOL0     H71946   5.220   1.176   2.517  0.1502 -1.7803 -1.8632
  533MOL0     H71947   5.016   1.011   2.661  0.5221 -0.0194  0.4641
  533MOL0     H71948   5.033   1.041   2.477  2.3083  1.3163 -1.6340
  533MOL0     H71949   5.002   1.276   2.502  0.3085 -0.0872 -0.3392
  533MOL0     H71950   4.988   1.263   2.681  0.8403  0.0432  0.3864
  533MOL0     H71951   4.797   1.117   2.671  2.7379 -1.0803  0.6063
  533MOL0     H71952   4.804   1.121   2.486 -1.3963  0.7532 -0.4967
  533MOL0     H71953   4.594   1.470   2.577  0.5403  0.6490  1.6512
  533MOL0     H71954   5.454   1.171   2.607  0.0293  0.0280 -1.9215
  533MOL0     H71955   5.667   1.116   2.695  2.5515 -3.5759 -0.1190
  534MOL0     O71956   9.338   2.684   9.620  0.3929  0.1717  0.0280
  534MOL0     C71957   9.431   2.762   9.597  0.1406 -0.6698 -0.1000
  534MOL0     O71958   9.410   2.889   9.548  0.1381  0.5484 -0.6619
  534MOL0     C71959   9.290   2.930   9.497  0.6730 -0.7173  0.7557
  534MOL0     C71960   9.272   3.070   9.497  0.1885  0.5644 -0.2132
  534MOL0     C71961   9.150   3.129   9.457  0.1499 -0.2757  0.5192
  534MOL0     C71962   9.046   3.046   9.407 -0.7708  0.1637  0.8381
  534MOL0     O71963   8.938   3.115   9.370 -0.8066  0.0002  0.2004
  534MOL0     C71964   8.809   3.073   9.438 -0.1192 -0.2964 -0.1139
  534MOL0     C71965   8.693   3.095   9.337  0.4882 -0.3448  0.2255
  534MOL0     C71966   8.720   3.043   9.195  0.2418 -0.0776 -0.3654
  534MOL0     C71967   8.706   2.888   9.190  0.9591  0.2173  0.1142
  534MOL0     C71968   8.728   2.813   9.057  0.4589  0.1867 -0.8875
  534MOL0     C71969   8.682   2.892   8.932 -0.7974  0.3500  0.2797
  534MOL0     C71970   8.690   2.814   8.797  0.5955  0.6441 -0.2512
  534MOL0     C71971   8.811   2.866   8.711  0.5921  0.6519  0.3500
  534MOL0     N71972   8.797   2.814   8.577  0.0185  0.4959  0.7573
  534MOL0     C71973   8.760   2.879   8.458  0.3197  0.0622  0.0222
  534MOL0     C71974   8.756   2.783   8.365  0.4851  0.5233  0.2764
  534MOL0     C71975   8.717   2.805   8.225  0.1489  0.9424  0.3955
  534MOL0     C71976   8.566   2.797   8.199 -0.6362  0.5224  0.1336
  534MOL0     C71977   8.514   2.835   8.055 -0.6079  0.2698 -0.9771
  534MOL0     C71978   8.370   2.792   8.036 -0.0076 -0.8228  0.1832
  534MOL0     O71979   8.286   2.846   8.140  0.2805 -0.2014  0.0485
  534MOL0     C71980   8.153   2.871   8.108  0.2042 -0.4439 -0.6120
  534MOL0     C71981   8.071   2.930   8.203  0.0142  0.0576 -0.6730
  534MOL0     C71982   7.943   2.981   8.186 -0.1346 -0.3306  0.6474
  534MOL0     C71983   7.885   3.059   8.304 -0.3466 -0.1819  0.2976
  534MOL0     C71984   7.887   2.969   8.053 -0.3990 -0.6928 -0.3978
  534MOL0     C71985   7.753   3.023   8.016 -0.4117  0.1376  0.2489
  534MOL0     O71986   7.646   2.990   8.095 -0.2302 -0.1219  0.1630
  534MOL0     C71987   7.528   3.042   8.046 -0.8186 -0.1659 -0.1978
  534MOL0     C71988   7.457   3.135   8.134  0.3016  0.2147  0.0715
  534MOL0     C71989   7.338   3.195   8.096 -0.2735  0.6123 -0.8570
  534MOL0     C71990   7.282   3.170   7.970 -0.1454 -0.3270 -0.1537
  534MOL0     O71991   7.158   3.223   7.949 -0.2126  0.2341 -0.1473
  534MOL0     C71992   7.073   3.141   7.864  0.1069  0.1656 -0.0260
  534MOL0     C71993   6.955   3.235   7.832 -0.4354  0.1849 -0.0231
  534MOL0     C71994   6.826   3.169   7.795  0.3985  0.3244  0.2198
  534MOL0     C71995   6.703   3.267   7.823 -0.6917  0.0506 -0.1495
  534MOL0     C71996   6.567   3.222   7.756 -1.0166 -0.0475 -0.0265
  534MOL0     C71997   6.469   3.330   7.790  0.0053 -0.3170  0.0485
  534MOL0     C71998   6.329   3.289   7.739 -0.4781 -0.2345  0.1058
  534MOL0     C71999   6.231   3.405   7.735  1.0966  0.6078 -0.4607
  534MOL0    Cl72000   6.178   3.457   7.889 -0.1431 -0.0738 -0.5410
  534MOL0     C72001   7.348   3.072   7.891 -0.1714  0.2911  0.3737
  534MOL0     C72002   7.469   3.013   7.925  0.4229  0.9936  0.2960
  534MOL0     O72003   7.756   3.094   7.918  0.2772  0.4035 -0.0276
  534MOL0     C72004   7.964   2.904   7.955  0.8770 -0.1917  0.0847
  534MOL0     C72005   8.091   2.846   7.986 -0.5803  0.3175  0.1273
  534MOL0     N72006   8.792   2.662   8.420  0.4778  0.6485 -0.8810
  534MOL0     N72007   8.821   2.687   8.541 -0.5189  0.1022 -0.1429
  534MOL0     C72008   9.068   2.913   9.389 -0.0847 -0.0159 -0.3500
  534MOL0     C72009   9.185   2.853   9.440 -0.1514  0.0162 -0.2771
  534MOL0     C72010   9.567   2.722   9.643  0.5834 -0.5994 -0.3916
  534MOL0     C72011   9.580   2.594   9.697 -0.6023 -0.8948  0.0296
  534MOL0     C72012   9.710   2.559   9.729  0.5982  1.2709 -0.7446
  534MOL0     C72013   9.823   2.640   9.715 -0.4424  0.1436  0.4586
  534MOL0     O72014   9.940   2.602   9.762 -0.7858  0.6444  0.2527
  534MOL0     C72015   9.948   2.612   9.908 -0.2688 -0.2768 -0.2278
  534MOL0     C72016  10.088   2.598   9.964 -0.1506  0.0232  0.0154
  534MOL0     C72017  10.190   2.680   9.890 -0.2352 -0.1657  0.5789
  534MOL0     C72018  10.333   2.636   9.944 -0.5825 -0.1382 -0.3127
  534MOL0     C72019  10.350   2.701  10.076  0.0185  0.5684 -0.2093
  534MOL0     C72020  10.364   2.746  10.189 -0.6857 -0.5205 -0.1451
  534MOL0     C72021   9.810   2.768   9.662  0.1444  0.2841 -0.1414
  534MOL0     C72022   9.675   2.808   9.623  0.4775 -0.2537 -0.4280
  534MOL0     H72023   9.362   3.124   9.528  0.8244 -0.1075 -0.8539
  534MOL0     H72024   9.121   3.233   9.467 -1.7956 -0.6171 -0.8199
  534MOL0     H72025   8.795   2.970   9.472  2.6201 -0.8229 -0.3437
  534MOL0     H72026   8.802   3.135   9.527 -1.1605  1.1557 -1.1543
  534MOL0     H72027   8.602   3.049   9.376  0.9430 -1.2440  0.2792
  534MOL0     H72028   8.678   3.203   9.333  1.4867  0.0174  3.4040
  534MOL0     H72029   8.653   3.093   9.124 -0.5495 -0.7041 -0.0686
  534MOL0     H72030   8.822   3.070   9.164  0.2460 -1.6254 -1.8224
  534MOL0     H72031   8.774   2.846   9.265  0.6456  1.1307  0.9291
  534MOL0     H72032   8.607   2.861   9.227  1.2848 -1.2876 -0.0193
  534MOL0     H72033   8.837   2.812   9.053  0.6316 -1.9939  1.8309
  534MOL0     H72034   8.679   2.716   9.071 -0.6565  0.8214 -0.2524
  534MOL0     H72035   8.579   2.914   8.961 -0.4734 -1.2625  3.1220
  534MOL0     H72036   8.725   2.993   8.929 -0.9098  0.3948  0.1577
  534MOL0     H72037   8.702   2.707   8.810  3.7269  0.5456 -2.5846
  534MOL0     H72038   8.600   2.843   8.742 -0.5615 -1.6009  0.3481
  534MOL0     H72039   8.909   2.842   8.751  1.2073  1.8131 -0.3820
  534MOL0     H72040   8.812   2.976   8.711  0.2018  0.6708 -0.6328
  534MOL0     H72041   8.722   2.980   8.451 -0.0095 -0.0849 -0.4594
  534MOL0     H72042   8.758   2.900   8.190  1.8427  0.2705  0.4851
  534MOL0     H72043   8.746   2.727   8.154 -0.9177  0.9934 -0.1237
  534MOL0     H72044   8.521   2.864   8.272 -0.6520 -1.0214  1.6284
  534MOL0     H72045   8.536   2.694   8.224 -2.0250  1.0289  0.6677
  534MOL0     H72046   8.559   2.771   7.979 -2.1457 -0.9255 -0.9261
  534MOL0     H72047   8.532   2.941   8.034 -0.8160  0.6845  0.7437
  534MOL0     H72048   8.358   2.684   8.047  0.1669 -0.6449  2.7895
  534MOL0     H72049   8.353   2.830   7.934  2.3534  3.0531  0.9941
  534MOL0     H72050   8.133   2.936   8.291 -0.6385  0.2533 -0.2225
  534MOL0     H72051   7.816   3.133   8.262  1.6302  1.2011 -0.6701
  534MOL0     H72052   7.825   2.988   8.361  0.9392 -2.4602 -1.0238
  534MOL0     H72053   7.961   3.098   8.372  0.6824 -0.8952 -0.4098
  534MOL0     H72054   7.493   3.159   8.234 -1.5456  0.4168  0.7384
  534MOL0     H72055   7.278   3.259   8.160  1.7437 -0.7257  2.6194
  534MOL0     H72056   7.116   3.119   7.766 -0.2476  0.2114 -0.1934
  534MOL0     H72057   7.042   3.047   7.911  0.5477 -0.2319 -0.5173
  534MOL0     H72058   6.941   3.294   7.923 -0.2701 -1.4336  1.0885
  534MOL0     H72059   6.977   3.311   7.756 -1.5604  2.6963  2.0112
  534MOL0     H72060   6.810   3.087   7.866 -0.4586  0.0499 -0.2700
  534MOL0     H72061   6.821   3.124   7.695 -1.7697 -2.2821  1.3826
  534MOL0     H72062   6.692   3.293   7.928  1.2396  0.8803 -0.1139
  534MOL0     H72063   6.737   3.364   7.785 -1.7361  1.9099  3.2714
  534MOL0     H72064   6.533   3.130   7.805  0.6167 -0.4627  0.3631
  534MOL0     H72065   6.568   3.212   7.647 -0.7245 -0.0210 -0.0257
  534MOL0     H72066   6.457   3.354   7.896 -0.9046 -0.6959  0.0402
  534MOL0     H72067   6.499   3.427   7.750  0.6013  0.0018  1.2306
  534MOL0     H72068   6.301   3.198   7.791 -1.2936 -1.0377 -1.6330
  534MOL0     H72069   6.334   3.254   7.635  0.1505 -1.7085  0.6067
  534MOL0     H72070   6.139   3.374   7.685  1.0417 -0.2734  0.1753
  534MOL0     H72071   6.276   3.489   7.681  0.6250  0.6530 -0.7897
  534MOL0     H72072   7.308   3.034   7.798  1.1248  1.7886 -0.8607
  534MOL0     H72073   7.508   2.940   7.854 -2.5734  1.3092 -1.8767
  534MOL0     H72074   7.921   2.888   7.857 -0.9902  1.2447  0.6104
  534MOL0     H72075   8.139   2.791   7.905 -0.5398 -1.4271  1.2880
  534MOL0     H72076   9.000   2.860   9.323  0.0070  1.2166 -1.4697
  534MOL0     H72077   9.193   2.745   9.436 -1.0232 -0.0379 -0.8749
  534MOL0     H72078   9.503   2.520   9.710 -0.1803 -1.1067  1.4160
  534MOL0     H72079   9.724   2.461   9.773 -2.1932  0.4888 -1.4500
  534MOL0     H72080   9.899   2.702   9.945  1.8162  0.2688  1.3985
  534MOL0     H72081   9.889   2.530   9.950  0.7778 -1.4838 -1.0391
  534MOL0     H72082  10.120   2.497   9.939  1.3776  1.3203 -4.0995
  534MOL0     H72083  10.085   2.620  10.071 -0.0257  1.0305 -0.1751
  534MOL0     H72084  10.174   2.787   9.901 -2.7569 -0.2167 -1.4647
  534MOL0     H72085  10.186   2.664   9.782  3.2060  3.3121 -0.2978
  534MOL0     H72086  10.412   2.675   9.879  0.9977  0.7596  1.9973
  534MOL0     H72087  10.347   2.528   9.952  3.4439  0.2518  0.4300
  534MOL0     H72088  10.381   2.790  10.285 -3.2641 -1.8995  1.0306
  534MOL0     H72089   9.902   2.820   9.637  0.6000 -0.4962 -0.1247
  534MOL0     H72090   9.664   2.909   9.586  0.1279  1.7893  4.5607
  535MOL0     O72091   4.599   9.765   8.022 -0.4436  0.1434 -0.6092
  535MOL0     C72092   4.680   9.713   8.099  0.1036  0.2736  0.2070
  535MOL0     O72093   4.653   9.682   8.231 -0.0405 -0.3688  0.4492
  535MOL0     C72094   4.522   9.680   8.285  0.4454  0.0396  0.3327
  535MOL0     C72095   4.509   9.708   8.419  0.5430 -0.0545 -0.1984
  535MOL0     C72096   4.382   9.723   8.472 -0.3800  1.1293 -0.9590
  535MOL0     C72097   4.260   9.681   8.412 -0.5515 -0.0949  0.4302
  535MOL0     O72098   4.148   9.665   8.486  0.4413  0.6685  0.2028
  535MOL0     C72099   4.025   9.704   8.440  0.4590  0.8810  0.2508
  535MOL0     C72100   3.929   9.586   8.406  0.3743  0.3778 -0.5158
  535MOL0     C72101   3.782   9.619   8.426  0.6463  0.0124 -0.2188
  535MOL0     C72102   3.699   9.533   8.329  0.3356  0.2174 -0.8777
  535MOL0     C72103   3.545   9.577   8.335  0.0564  0.0012  0.7901
  535MOL0     C72104   3.461   9.532   8.448 -0.3740 -0.9644  0.3833
  535MOL0     C72105   3.316   9.539   8.413 -0.4492 -0.0124 -0.5629
  535MOL0     C72106   3.219   9.480   8.519  0.1093 -0.0389 -0.2427
  535MOL0     N72107   3.084   9.463   8.477  0.5243 -0.1964 -0.2794
  535MOL0     C72108   3.037   9.391   8.374 -0.4291 -0.0212  0.7069
  535MOL0     C72109   2.901   9.401   8.379 -0.4873  0.3885  1.1635
  535MOL0     C72110   2.822   9.333   8.274  0.3607  0.3282 -0.5269
  535MOL0     C72111   2.679   9.316   8.312 -0.7735 -0.0459 -0.0156
  535MOL0     C72112   2.599   9.230   8.208  0.3345  0.5407  0.0730
  535MOL0     C72113   2.459   9.229   8.268 -0.3944  0.3781 -0.3253
  535MOL0     O72114   2.365   9.188   8.168  0.1417 -0.0628 -0.1017
  535MOL0     C72115   2.229   9.175   8.199 -0.3294 -0.8357  0.5045
  535MOL0     C72116   2.178   9.155   8.330 -1.2009  0.5960  0.4730
  535MOL0     C72117   2.039   9.134   8.353 -0.4676  0.2173 -0.1001
  535MOL0     C72118   2.002   9.135   8.500 -0.0027 -0.6064  0.0878
  535MOL0     C72119   1.949   9.134   8.239 -0.2345 -0.8695 -0.1204
  535MOL0     C72120   1.807   9.118   8.242  0.5330  0.8005 -0.6952
  535MOL0     O72121   1.754   9.079   8.127 -0.3670  0.3261 -0.2826
  535MOL0     C72122   1.618   9.068   8.111 -0.0064  0.0425  0.6575
  535MOL0     C72123   1.543   8.958   8.150 -0.3369 -0.4174  0.0723
  535MOL0     C72124   1.407   8.954   8.129  0.6596  0.3550 -0.2369
  535MOL0     C72125   1.343   9.059   8.057  0.1326 -0.4724 -0.5710
  535MOL0     O72126   1.210   9.062   8.027 -0.4038  0.0065 -0.0389
  535MOL0     C72127   1.124   9.013   8.134 -0.6848 -0.4858  0.4530
  535MOL0     C72128   0.983   9.072   8.114  0.0627 -0.9473  0.0551
  535MOL0     C72129   0.881   9.057   8.226  0.0776 -0.5586  0.0580
  535MOL0     C72130   0.748   9.132   8.203 -0.0331 -1.2005  0.1041
  535MOL0     C72131   0.631   9.096   8.300 -0.2672  0.1565 -0.9379
  535MOL0     C72132   0.548   8.983   8.253  0.4850 -0.2266 -0.3738
  535MOL0     C72133   0.447   8.958   8.360  0.6880 -0.0442  0.3719
  535MOL0     C72134   0.332   8.865   8.312 -0.3771 -0.3514 -0.0952
  535MOL0    Cl72135   0.223   8.956   8.214  0.0570 -0.3474  0.3697
  535MOL0     C72136   1.423   9.155   7.999  1.3158  0.5835 -0.1052
  535MOL0     C72137   1.559   9.162   8.030 -0.0536 -0.6542 -0.1277
  535MOL0     O72138   1.744   9.145   8.345  0.5647  1.3996  0.8192
  535MOL0     C72139   2.004   9.156   8.112  0.5095 -0.0342 -0.4427
  535MOL0     C72140   2.142   9.167   8.094 -0.1169  0.0568  0.0918
  535MOL0     N72141   2.857   9.480   8.489  0.1127 -0.1128 -1.0974
  535MOL0     N72142   2.971   9.514   8.543  0.2807 -0.3551  0.4299
  535MOL0     C72143   4.278   9.655   8.277  0.1175  1.1565  0.7473
  535MOL0     C72144   4.409   9.653   8.214  0.0467  0.6942  0.7879
  535MOL0     C72145   4.822   9.688   8.056 -0.2246  0.6985  0.3312
  535MOL0     C72146   4.839   9.634   7.933 -0.9659 -0.2661  1.2048
  535MOL0     C72147   4.976   9.614   7.892 -0.3206  0.3325  0.3347
  535MOL0     C72148   5.086   9.636   7.974 -0.0566 -0.3066  0.0971
  535MOL0     O72149   5.215   9.618   7.944 -0.0091  0.3173  0.1799
  535MOL0     C72150   5.257   9.605   7.809  0.2305  0.4617  0.0236
  535MOL0     C72151   5.409   9.596   7.796  0.3869 -0.4444  0.0671
  535MOL0     C72152   5.503   9.710   7.851 -0.2668 -0.5792  0.0212
  535MOL0     C72153   5.650   9.672   7.860  0.3248  0.2010  0.1474
  535MOL0     C72154   5.701   9.644   7.722 -0.4887  0.0708 -0.5830
  535MOL0     C72155   5.740   9.611   7.618 -0.2691  0.0640  0.5180
  535MOL0     C72156   5.055   9.688   8.098 -0.4548 -0.1165 -0.2204
  535MOL0     C72157   4.926   9.718   8.140 -0.6530 -0.2694 -0.5765
  535MOL0     H72158   4.593   9.709   8.487  0.4527  0.7790 -0.0924
  535MOL0     H72159   4.373   9.747   8.577 -0.4526 -1.7105 -0.2335
  535MOL0     H72160   3.966   9.760   8.513  0.4167 -1.9203  2.5438
  535MOL0     H72161   4.033   9.742   8.338  1.6005 -3.4814 -1.5441
  535MOL0     H72162   3.955   9.539   8.311  0.9642 -0.8229  0.2242
  535MOL0     H72163   3.941   9.510   8.483 -0.9048  2.5783  2.0267
  535MOL0     H72164   3.750   9.589   8.526  0.4923  0.5160 -0.1160
  535MOL0     H72165   3.765   9.725   8.409 -0.2556 -0.0214  0.3844
  535MOL0     H72166   3.731   9.550   8.226 -0.9421  0.5806 -1.2405
  535MOL0     H72167   3.715   9.428   8.354  0.8256  0.6218  0.6549
  535MOL0     H72168   3.542   9.685   8.321 -3.2706  0.2336  2.4416
  535MOL0     H72169   3.505   9.535   8.243  1.5822  0.8492 -0.3028
  535MOL0     H72170   3.483   9.426   8.463  1.6959 -0.6759 -0.2839
  535MOL0     H72171   3.476   9.578   8.546 -0.1414 -2.5507  1.1354
  535MOL0     H72172   3.291   9.644   8.391  2.0728  1.2788  2.0364
  535MOL0     H72173   3.296   9.470   8.330  0.5004 -1.6203  0.5135
  535MOL0     H72174   3.203   9.549   8.603 -0.8332 -0.0194 -0.4275
  535MOL0     H72175   3.261   9.386   8.556 -0.0321 -0.1784 -0.4405
  535MOL0     H72176   3.096   9.334   8.303 -1.9910  0.8634 -1.4108
  535MOL0     H72177   2.835   9.397   8.186  5.0247 -0.1616 -0.4253
  535MOL0     H72178   2.866   9.235   8.252  0.7472 -0.0439  1.6928
  535MOL0     H72179   2.625   9.411   8.315 -0.8275 -0.0872  1.9188
  535MOL0     H72180   2.676   9.265   8.409 -0.9933  0.5607  0.3031
  535MOL0     H72181   2.635   9.127   8.208  1.3999  0.8924  1.3287
  535MOL0     H72182   2.593   9.273   8.107  1.1630 -0.8693 -0.5989
  535MOL0     H72183   2.437   9.328   8.308  1.1408  0.4589  0.3661
  535MOL0     H72184   2.457   9.157   8.350 -0.2022  1.0012  0.2278
  535MOL0     H72185   2.252   9.145   8.409 -0.2892  2.9123  0.0106
  535MOL0     H72186   2.062   9.202   8.562  0.8283 -1.6174  0.3969
  535MOL0     H72187   1.899   9.171   8.511 -0.3918 -0.5912 -2.7003
  535MOL0     H72188   2.013   9.033   8.538  2.7432 -0.4471 -0.1119
  535MOL0     H72189   1.592   8.882   8.211 -0.2341 -0.3677  0.0522
  535MOL0     H72190   1.350   8.869   8.162 -0.0441  0.4915 -1.0796
  535MOL0     H72191   1.102   8.906   8.134 -3.4888 -0.0034  0.7974
  535MOL0     H72192   1.168   9.029   8.233  1.7889 -1.3306 -0.4349
  535MOL0     H72193   0.990   9.180   8.095 -0.7279 -1.0495 -0.8885
  535MOL0     H72194   0.955   9.025   8.020 -1.8379 -1.2068  0.6933
  535MOL0     H72195   0.925   9.081   8.323  0.4556 -1.2261  0.0553
  535MOL0     H72196   0.852   8.952   8.241 -1.4791  0.2035  3.3282
  535MOL0     H72197   0.774   9.238   8.211 -3.8389  0.0086 -1.2015
  535MOL0     H72198   0.722   9.132   8.097  2.6222 -1.3288 -0.6092
  535MOL0     H72199   0.572   9.187   8.314  0.1134  0.1942  0.6268
  535MOL0     H72200   0.675   9.075   8.398 -1.4147  2.3124  0.0990
  535MOL0     H72201   0.490   9.018   8.168 -2.6467  0.8940  2.0262
  535MOL0     H72202   0.608   8.896   8.223 -0.6098 -1.1688  0.1231
  535MOL0     H72203   0.398   9.051   8.391  1.9806  0.8987 -0.2948
  535MOL0     H72204   0.494   8.913   8.448 -1.2230  1.0542  2.0441
  535MOL0     H72205   0.276   8.842   8.403  0.6892  1.5455  1.0828
  535MOL0     H72206   0.359   8.769   8.265  2.1916 -0.1803  0.8856
  535MOL0     H72207   1.384   9.222   7.923 -0.2975  1.3619  1.3350
  535MOL0     H72208   1.626   9.234   7.982 -2.2665  0.7463 -1.2785
  535MOL0     H72209   1.935   9.165   8.029 -3.1778 -1.4101  2.2002
  535MOL0     H72210   2.189   9.183   7.998 -0.2216 -0.6619 -0.0902
  535MOL0     H72211   4.193   9.626   8.215  2.0265 -2.0800 -0.6253
  535MOL0     H72212   4.419   9.636   8.108  4.9006 -2.2939  1.4692
  535MOL0     H72213   4.756   9.598   7.873  0.4303 -1.9468  0.1765
  535MOL0     H72214   4.990   9.572   7.792 -2.0470  2.5724 -0.9396
  535MOL0     H72215   5.211   9.516   7.764  0.8006  1.3441 -2.4508
  535MOL0     H72216   5.219   9.689   7.750  1.8683 -0.8578 -3.1623
  535MOL0     H72217   5.414   9.579   7.688  0.2047  2.4321 -0.4974
  535MOL0     H72218   5.435   9.505   7.849  1.8818  0.6054  1.2161
  535MOL0     H72219   5.468   9.729   7.953 -1.7897  0.9843 -0.7452
  535MOL0     H72220   5.491   9.798   7.788  0.6327  2.7557  4.0760
  535MOL0     H72221   5.660   9.589   7.930  0.3676  0.1124  0.0360
  535MOL0     H72222   5.714   9.755   7.893  1.9456 -0.3485 -1.4464
  535MOL0     H72223   5.780   9.562   7.532 -0.0706 -1.0177  1.2150
  535MOL0     H72224   5.129   9.709   8.175 -1.3716 -0.0866  0.6866
  535MOL0     H72225   4.922   9.758   8.241 -1.1887 -1.3704 -0.1460
  536MOL0     O72226   1.753   8.434   9.555 -0.5550  1.1864 -0.2594
  536MOL0     C72227   1.867   8.411   9.583 -0.1746 -0.2571 -0.7965
  536MOL0     O72228   1.909   8.341   9.697  0.1271  1.2408 -0.2177
  536MOL0     C72229   1.809   8.279   9.775 -0.2944  0.1233 -0.4296
  536MOL0     C72230   1.721   8.193   9.716  0.3343 -0.4342 -0.1902
  536MOL0     C72231   1.619   8.151   9.797  0.3885  0.0857  0.1112
  536MOL0     C72232   1.611   8.165   9.935 -0.7284 -0.7257 -0.0008
  536MOL0     O72233   1.508   8.118  10.013  1.2838  0.0509  0.0757
  536MOL0     C72234   1.437   8.001   9.973  1.0865 -0.0366 -1.1782
  536MOL0     C72235   1.353   7.952  10.091 -0.9860  1.1409 -0.4669
  536MOL0     C72236   1.251   7.849  10.041 -0.1369  0.8229 -0.3919
  536MOL0     C72237   1.167   7.807  10.163  0.6010  0.0918 -0.2912
  536MOL0     C72238   1.048   7.706  10.136 -0.7016  0.0345 -0.0133
  536MOL0     C72239   0.991   7.656  10.264 -0.5071  0.0316 -0.0735
  536MOL0     C72240   0.848   7.589  10.229 -0.4872 -0.1297 -0.4014
  536MOL0     C72241   0.745   7.696  10.241  0.5133 -0.5692 -0.2806
  536MOL0     N72242   0.613   7.628  10.221 -0.4307 -0.2194  0.0405
  536MOL0     C72243   0.548   7.624  10.105 -0.4886  0.4699  0.1425
  536MOL0     C72244   0.437   7.544  10.129  0.8390 -0.4401 -0.0159
  536MOL0     C72245   0.319   7.504  10.033 -1.4329 -0.6308 -0.2894
  536MOL0     C72246   0.227   7.395  10.083  0.1764 -0.1357 -0.3385
  536MOL0     C72247   0.116   7.373   9.976  0.4330  0.3574 -0.6665
  536MOL0     C72248   0.039   7.239  10.004 -0.6456 -0.3445 -0.1870
  536MOL0     O72249  -0.041   7.195   9.888 -0.8949 -0.1630  0.1438
  536MOL0     C72250  -0.096   7.076   9.904  0.2842  0.8038 -0.2252
  536MOL0     C72251  -0.146   7.033  10.030  0.3011  0.5629 -0.0499
  536MOL0     C72252  -0.207   6.901  10.047 -1.1475  0.0440 -0.0133
  536MOL0     C72253  -0.250   6.848  10.185 -0.4427  0.2288 -0.4115
  536MOL0     C72254  -0.215   6.819   9.930  0.6765  0.3756 -0.6918
  536MOL0     C72255  -0.283   6.682   9.925 -0.8274 -0.5110 -0.6335
  536MOL0     O72256  -0.238   6.580   9.841 -0.5120  1.1607 -0.2620
  536MOL0     C72257  -0.305   6.467   9.823  0.5661 -0.0326 -0.8073
  536MOL0     C72258  -0.426   6.462   9.750 -0.4638  0.4255  0.4698
  536MOL0     C72259  -0.492   6.347   9.728  0.0683 -0.0071  0.0826
  536MOL0     C72260  -0.444   6.224   9.772 -0.4854 -0.6053 -0.1905
  536MOL0     O72261  -0.526   6.116   9.758  0.7734 -1.2096 -0.3217
  536MOL0     C72262  -0.463   5.989   9.752 -0.5076  0.2066 -0.5276
  536MOL0     C72263  -0.578   5.880   9.717 -0.1956  1.0028  0.0254
  536MOL0     C72264  -0.646   5.831   9.850 -0.4785  0.2657  0.6514
  536MOL0     C72265  -0.734   5.704   9.846  0.0465 -0.3798  0.3577
  536MOL0     C72266  -0.834   5.703   9.966  0.1265  0.5803 -0.2622
  536MOL0     C72267  -0.893   5.566   9.980  0.1029 -0.3852 -0.0819
  536MOL0     C72268  -1.009   5.576  10.074  0.1843 -0.5803 -0.8426
  536MOL0     C72269  -1.083   5.445  10.080 -0.7439 -0.6813 -0.6740
  536MOL0    Cl72270  -1.190   5.453  10.210  0.3466  0.2845  0.1340
  536MOL0     C72271  -0.319   6.224   9.845 -0.1528 -0.5789 -0.8263
  536MOL0     C72272  -0.249   6.346   9.871 -0.2288  0.7289 -0.8027
  536MOL0     O72273  -0.390   6.684   9.983 -0.4323 -0.0330 -0.3350
  536MOL0     C72274  -0.166   6.868   9.813 -0.1580 -0.3693  1.0261
  536MOL0     C72275  -0.114   6.998   9.793 -0.4605  0.3175 -0.0022
  536MOL0     N72276   0.445   7.507  10.261  0.1672  0.3457  0.3955
  536MOL0     N72277   0.541   7.565  10.317  0.2687 -0.3903  1.1899
  536MOL0     C72278   1.720   8.227   9.993  0.5750  0.0819  0.3499
  536MOL0     C72279   1.820   8.285   9.915  0.1772  0.7779  0.5024
  536MOL0     C72280   1.971   8.465   9.497  0.3052  0.2735 -0.7064
  536MOL0     C72281   2.106   8.429   9.531 -0.0088 -0.3361 -0.2387
  536MOL0     C72282   2.208   8.464   9.444  0.2720  0.2857  0.0110
  536MOL0     C72283   2.191   8.524   9.314  0.7591 -0.9130 -0.4375
  536MOL0     O72284   2.292   8.583   9.234  0.0151  0.0892  0.4210
  536MOL0     C72285   2.426   8.563   9.249 -0.6983 -0.6553  0.3054
  536MOL0     C72286   2.483   8.665   9.351  0.6897 -0.0602 -0.3339
  536MOL0     C72287   2.621   8.614   9.412 -0.5290 -0.2255  0.0725
  536MOL0     C72288   2.684   8.711   9.508 -0.9757 -0.4825  0.0544
  536MOL0     C72289   2.622   8.696   9.638 -0.1111  0.7229  0.2842
  536MOL0     C72290   2.570   8.689   9.745  0.0087  0.4235  0.7511
  536MOL0     C72291   2.047   8.563   9.299 -0.7573  0.0126 -0.6612
  536MOL0     C72292   1.941   8.525   9.385 -0.3173  0.2263  0.2565
  536MOL0     H72293   1.722   8.181   9.608  0.5068  0.5335 -0.3066
  536MOL0     H72294   1.540   8.102   9.740  2.2954 -0.7059 -1.9905
  536MOL0     H72295   1.365   8.014   9.892  1.0036  1.9107 -0.8296
  536MOL0     H72296   1.514   7.929   9.943  3.1001 -0.2538  3.5797
  536MOL0     H72297   1.422   7.899  10.157  0.8933  1.9208 -1.7023
  536MOL0     H72298   1.307   8.037  10.142  1.2802  1.8858  0.4674
  536MOL0     H72299   1.191   7.881   9.955 -2.3723 -0.7021  0.5282
  536MOL0     H72300   1.309   7.760  10.015 -0.3385 -0.0171  1.8909
  536MOL0     H72301   1.238   7.744  10.218  0.2491  0.7207  0.9299
  536MOL0     H72302   1.128   7.892  10.220  0.0213 -0.0347 -0.4952
  536MOL0     H72303   0.973   7.761  10.079  1.9523  2.1873 -1.6412
  536MOL0     H72304   1.091   7.622  10.081 -2.0483  0.7442 -2.2745
  536MOL0     H72305   1.064   7.579  10.290  0.6133  0.7083 -1.1041
  536MOL0     H72306   0.990   7.729  10.344 -0.4907 -0.4895  0.4065
  536MOL0     H72307   0.845   7.545  10.129  0.4413  0.9611 -0.9285
  536MOL0     H72308   0.821   7.519  10.309 -4.0282  2.0988  0.6197
  536MOL0     H72309   0.761   7.784  10.178 -1.0115  0.1286  0.2620
  536MOL0     H72310   0.752   7.751  10.335 -1.4865  1.7205 -1.3601
  536MOL0     H72311   0.570   7.673  10.011  2.6028  1.4342  1.2220
  536MOL0     H72312   0.260   7.592  10.006 -0.8371 -0.3712 -0.7523
  536MOL0     H72313   0.367   7.468   9.942  1.4223 -0.5872  1.0880
  536MOL0     H72314   0.171   7.423  10.172  0.3689 -0.5559 -0.0811
  536MOL0     H72315   0.290   7.307  10.098 -2.0266 -1.3524  2.5641
  536MOL0     H72316   0.169   7.374   9.880 -0.3508 -0.6377 -1.1278
  536MOL0     H72317   0.043   7.454   9.970  1.6472  1.6565  1.1180
  536MOL0     H72318  -0.032   7.264  10.083 -0.3543  0.0718 -0.0494
  536MOL0     H72319   0.100   7.158  10.045 -1.0324 -0.5635 -0.0404
  536MOL0     H72320  -0.141   7.089  10.123 -1.3292 -0.1464  0.5080
  536MOL0     H72321  -0.342   6.902  10.208  0.3730  0.5798  2.3550
  536MOL0     H72322  -0.254   6.739  10.193  1.3023  0.1556 -0.0590
  536MOL0     H72323  -0.171   6.881  10.253 -1.1558  0.0408  0.5194
  536MOL0     H72324  -0.472   6.559   9.732  1.4006  0.9714 -1.8256
  536MOL0     H72325  -0.590   6.336   9.683  0.3351  0.6163 -0.6743
  536MOL0     H72326  -0.381   5.989   9.680  0.2298  0.7745  0.3052
  536MOL0     H72327  -0.435   5.961   9.854 -2.3548  1.4203  0.3698
  536MOL0     H72328  -0.655   5.927   9.656  2.0004  1.7254 -2.3568
  536MOL0     H72329  -0.530   5.798   9.664 -2.1359 -0.5017  0.4830
  536MOL0     H72330  -0.702   5.913   9.896  0.3790  0.8091  0.7480
  536MOL0     H72331  -0.564   5.813   9.921  1.6314 -0.6268 -1.8351
  536MOL0     H72332  -0.788   5.701   9.751 -0.3360  0.1106  0.5554
  536MOL0     H72333  -0.668   5.618   9.857 -0.6067 -1.0976 -1.1749
  536MOL0     H72334  -0.912   5.773   9.936  1.4232  1.1819 -2.4795
  536MOL0     H72335  -0.798   5.730  10.066  1.0416 -0.6047 -0.2485
  536MOL0     H72336  -0.927   5.531   9.882 -5.6410  2.8649  0.3116
  536MOL0     H72337  -0.817   5.498  10.019  0.6051  1.7365  2.9911
  536MOL0     H72338  -1.085   5.647  10.042 -1.2350 -1.0357  1.2596
  536MOL0     H72339  -0.976   5.602  10.175  0.0136 -2.9737 -0.0848
  536MOL0     H72340  -1.005   5.369  10.086 -0.1070 -0.0744 -1.0564
  536MOL0     H72341  -1.143   5.436   9.988 -3.0011  0.5974  0.5784
  536MOL0     H72342  -0.290   6.132   9.895 -1.3681 -0.9766 -0.8119
  536MOL0     H72343  -0.154   6.347   9.924  0.0068 -0.9337 -1.1238
  536MOL0     H72344  -0.174   6.806   9.724  3.2861 -0.1102  0.4134
  536MOL0     H72345  -0.088   7.039   9.696 -0.6542 -0.7008 -0.5061
  536MOL0     H72346   1.716   8.239  10.101 -1.5286  0.0566  0.3151
  536MOL0     H72347   1.899   8.352   9.945 -0.2908  1.2139  0.7661
  536MOL0     H72348   2.129   8.379   9.625  1.5186  1.1675  0.2320
  536MOL0     H72349   2.306   8.422   9.464  0.2499  0.5272  0.6246
  536MOL0     H72350   2.447   8.461   9.283  1.7968  0.6812  3.2064
  536MOL0     H72351   2.482   8.578   9.157  0.4010  3.1229  1.4223
  536MOL0     H72352   2.404   8.686   9.423  0.6927 -0.0468 -0.3344
  536MOL0     H72353   2.504   8.761   9.303  1.2266 -0.1088 -0.2107
  536MOL0     H72354   2.688   8.604   9.326 -0.1603 -0.5815  0.3986
  536MOL0     H72355   2.604   8.519   9.463 -2.1578  1.2262  2.4283
  536MOL0     H72356   2.678   8.813   9.467  1.6817 -0.8241 -1.4087
  536MOL0     H72357   2.786   8.680   9.529  0.0298  3.0266  1.1222
  536MOL0     H72358   2.522   8.694   9.840 -2.6116 -1.0647 -0.3850
  536MOL0     H72359   2.005   8.611   9.212 -0.6623  1.1255 -0.1093
  536MOL0     H72360   1.837   8.538   9.357  0.1901  0.9675 -1.3562
  537MOL0     O72361   3.662   5.021   4.618 -0.0912 -0.2260 -0.1413
  537MOL0     C72362   3.728   4.970   4.530  0.3317  1.1517 -0.1932
  537MOL0     O72363   3.676   4.933   4.410 -0.5387 -0.4250 -0.2430
  537MOL0     C72364   3.549   4.945   4.378  1.1256  0.3719  0.8101
  537MOL0     C72365   3.497   5.068   4.329  0.3210 -1.0710 -0.1601
  537MOL0     C72366   3.362   5.078   4.288 -0.1795 -0.3921 -0.4266
  537MOL0     C72367   3.274   4.966   4.305 -0.2359  0.2289  0.0628
  537MOL0     O72368   3.142   4.952   4.254  0.2168  0.1052 -0.1465
  537MOL0     C72369   3.080   5.080   4.226  0.2589 -0.3049  0.5377
  537MOL0     C72370   2.931   5.067   4.174  0.2217 -1.0341 -1.0636
  537MOL0     C72371   2.865   5.198   4.128 -0.3510 -1.2065 -0.0987
  537MOL0     C72372   2.716   5.187   4.131  0.1145  0.7564 -0.5333
  537MOL0     C72373   2.653   5.311   4.080  0.3287 -0.2977  0.0165
  537MOL0     C72374   2.501   5.293   4.079  0.1723 -0.1622  0.1602
  537MOL0     C72375   2.443   5.429   4.061 -0.5852 -0.5638  0.8613
  537MOL0     C72376   2.297   5.452   4.054 -0.8256 -0.0094 -0.3052
  537MOL0     N72377   2.264   5.592   4.023  0.1796  0.6755 -0.3101
  537MOL0     C72378   2.144   5.648   4.071 -0.0088 -0.0205  0.0037
  537MOL0     C72379   2.135   5.757   3.999  0.7449  0.1574  0.2520
  537MOL0     C72380   2.024   5.863   4.012 -0.4955 -0.3719 -0.5615
  537MOL0     C72381   1.909   5.849   3.906 -0.1597 -0.4889  0.4626
  537MOL0     C72382   1.785   5.771   3.946  0.2592 -0.8175 -1.0444
  537MOL0     C72383   1.701   5.837   4.060 -0.4408  0.1109 -0.1749
  537MOL0     O72384   1.605   5.751   4.114 -0.8343  0.6250 -0.3516
  537MOL0     C72385   1.498   5.726   4.040  0.0383  0.0353 -0.4555
  537MOL0     C72386   1.449   5.778   3.917 -0.2735  0.6321  0.0668
  537MOL0     C72387   1.313   5.767   3.872 -0.1204  0.5774 -0.5754
  537MOL0     C72388   1.280   5.824   3.735  0.3970 -0.0640 -0.5821
  537MOL0     C72389   1.220   5.701   3.954  0.2914 -1.3687  0.3923
  537MOL0     C72390   1.075   5.690   3.913 -0.3885 -0.2497 -1.4782
  537MOL0     O72391   1.037   5.643   3.785 -0.0087 -0.2772  0.3321
  537MOL0     C72392   0.909   5.658   3.737 -0.2935 -0.6904  0.0296
  537MOL0     C72393   0.897   5.601   3.613 -0.3211  0.1028  0.5623
  537MOL0     C72394   0.779   5.583   3.545  0.3101  0.4991 -0.5735
  537MOL0     C72395   0.660   5.629   3.608 -0.7377 -0.3911  0.0224
  537MOL0     O72396   0.541   5.610   3.551  0.2247  0.3182  0.2506
  537MOL0     C72397   0.441   5.566   3.638  1.1856 -0.1023  0.6703
  537MOL0     C72398   0.310   5.516   3.574  0.2243 -0.9637 -0.8362
  537MOL0     C72399   0.340   5.398   3.479  0.2367 -0.6738 -0.1871
  537MOL0     C72400   0.216   5.369   3.394 -0.1137  0.6539  0.0586
  537MOL0     C72401   0.217   5.244   3.305 -0.3306 -0.5373  0.9987
  537MOL0     C72402   0.101   5.245   3.213 -0.0791 -0.5486 -0.8432
  537MOL0     C72403  -0.031   5.280   3.265 -0.0583 -0.2378 -0.1492
  537MOL0     C72404  -0.086   5.198   3.369  0.3642 -0.4804 -0.3935
  537MOL0    Cl72405  -0.110   5.024   3.312  0.1727 -0.3072  0.1791
  537MOL0     C72406   0.672   5.688   3.739 -0.3203 -0.7959 -0.2010
  537MOL0     C72407   0.795   5.709   3.800 -0.1331 -0.1726  0.1124
  537MOL0     O72408   0.997   5.713   4.008 -0.4706 -0.5253  0.1339
  537MOL0     C72409   1.267   5.637   4.076 -0.0729 -0.3491 -0.1266
  537MOL0     C72410   1.405   5.658   4.113  0.5726 -0.3797  0.4929
  537MOL0     N72411   2.242   5.773   3.908 -0.5206  0.2809 -0.2204
  537MOL0     N72412   2.322   5.673   3.924  0.5558 -1.0610  0.4080
  537MOL0     C72413   3.323   4.850   4.366  0.4643 -0.4759  0.6232
  537MOL0     C72414   3.458   4.841   4.396  1.0664  1.2727  0.4009
  537MOL0     C72415   3.875   4.953   4.558  0.8556 -0.0369 -0.1523
  537MOL0     C72416   3.931   5.023   4.658  0.6946 -0.4702 -0.9891
  537MOL0     C72417   4.076   5.009   4.675  0.6808 -0.0888 -0.4298
  537MOL0     C72418   4.153   4.931   4.587  0.4425  0.1140 -0.3551
  537MOL0     O72419   4.279   4.915   4.609  0.1825  1.2668 -0.0923
  537MOL0     C72420   4.368   4.925   4.503 -0.0678 -0.3156 -0.5682
  537MOL0     C72421   4.510   4.904   4.549 -0.3844  0.6238 -0.0833
  537MOL0     C72422   4.540   4.756   4.577  0.3992  0.1301  0.2535
  537MOL0     C72423   4.686   4.726   4.606 -0.1723 -0.4495  0.1901
  537MOL0     C72424   4.717   4.584   4.592  0.3162 -0.7171 -0.4541
  537MOL0     C72425   4.760   4.475   4.576  0.1302  0.5615 -0.7482
  537MOL0     C72426   4.084   4.846   4.492 -0.0112  0.3225 -0.5967
  537MOL0     C72427   3.946   4.867   4.478 -0.9663 -0.0772 -0.0933
  537MOL0     H72428   3.562   5.155   4.332 -3.6671  2.2122  0.4268
  537MOL0     H72429   3.331   5.169   4.238 -1.7693 -2.2451 -3.0399
  537MOL0     H72430   3.076   5.141   4.317 -1.1639  0.3090  0.0832
  537MOL0     H72431   3.131   5.133   4.145  0.6328 -0.1680  0.8569
  537MOL0     H72432   2.933   4.997   4.089  0.7672 -3.3153  0.7057
  537MOL0     H72433   2.877   5.023   4.258 -0.7501 -0.4047 -1.3459
  537MOL0     H72434   2.887   5.277   4.201  0.1802 -2.0055  0.6283
  537MOL0     H72435   2.911   5.222   4.032  0.3951  2.3069  0.9923
  537MOL0     H72436   2.679   5.105   4.068  0.8227 -0.9756  1.1936
  537MOL0     H72437   2.684   5.160   4.232 -0.3880  1.1571 -0.5799
  537MOL0     H72438   2.696   5.391   4.140 -0.0851  0.2619 -0.4322
  537MOL0     H72439   2.680   5.352   3.982  0.1160 -0.3802 -0.0771
  537MOL0     H72440   2.459   5.233   3.997 -0.5524  1.2917 -0.5549
  537MOL0     H72441   2.460   5.272   4.178 -2.5261 -0.0865 -0.8555
  537MOL0     H72442   2.485   5.507   4.125  0.4483  1.9543 -2.5719
  537MOL0     H72443   2.459   5.464   3.958 -0.4600  1.9197  1.6529
  537MOL0     H72444   2.250   5.421   4.148 -0.2737  0.2663  0.0630
  537MOL0     H72445   2.247   5.398   3.973 -1.7136 -0.0019  0.2183
  537MOL0     H72446   2.075   5.606   4.143 -0.1608 -1.5040 -0.9640
  537MOL0     H72447   1.997   5.861   4.118  1.5689 -1.8561 -0.0197
  537MOL0     H72448   2.083   5.951   3.986  0.4199 -0.9488 -0.4480
  537MOL0     H72449   1.942   5.791   3.819  0.8517  0.6697  0.0488
  537MOL0     H72450   1.873   5.948   3.878 -0.0277 -0.7948 -0.8467
  537MOL0     H72451   1.817   5.671   3.978  1.5232  0.1680  0.9910
  537MOL0     H72452   1.719   5.759   3.860  0.4520  3.8181 -2.0803
  537MOL0     H72453   1.664   5.932   4.018 -1.0929 -0.3347 -0.6326
  537MOL0     H72454   1.763   5.862   4.146  1.9180  2.6034 -2.3917
  537MOL0     H72455   1.518   5.842   3.862  2.5870 -1.3464  1.1394
  537MOL0     H72456   1.197   5.895   3.743 -1.3948 -2.1995  1.1786
  537MOL0     H72457   1.356   5.886   3.688  0.5544 -1.6534 -2.5514
  537MOL0     H72458   1.252   5.749   3.661 -0.2015  0.2460 -0.6787
  537MOL0     H72459   0.981   5.550   3.567  1.0041  2.0300  0.7189
  537MOL0     H72460   0.775   5.537   3.447  0.3670  0.6415 -0.6432
  537MOL0     H72461   0.475   5.482   3.699  1.1195 -0.2723  0.4747
  537MOL0     H72462   0.418   5.644   3.711 -2.2389  0.4481 -0.7994
  537MOL0     H72463   0.237   5.492   3.651  0.4551  0.0300 -0.2856
  537MOL0     H72464   0.261   5.604   3.529  1.0840  0.5268  0.9994
  537MOL0     H72465   0.374   5.309   3.533  1.6012  0.5436  1.0619
  537MOL0     H72466   0.415   5.434   3.408 -0.0957  0.8192  0.1778
  537MOL0     H72467   0.135   5.373   3.467  0.4422  0.3432  0.7043
  537MOL0     H72468   0.199   5.457   3.331 -1.7026 -0.7691 -1.6263
  537MOL0     H72469   0.214   5.158   3.372 -1.4503 -1.6106 -0.3700
  537MOL0     H72470   0.304   5.241   3.239 -0.3094  0.6596  0.9504
  537MOL0     H72471   0.118   5.320   3.135  4.4650 -0.2914  0.1207
  537MOL0     H72472   0.104   5.147   3.165  2.1434 -0.4944 -0.9139
  537MOL0     H72473  -0.099   5.279   3.180  0.4027 -0.4386 -0.5149
  537MOL0     H72474  -0.036   5.384   3.300 -0.7100 -0.5971  0.8924
  537MOL0     H72475  -0.180   5.246   3.398 -0.0632 -2.4826  1.9433
  537MOL0     H72476  -0.021   5.195   3.457 -1.0718  0.4647  0.7466
  537MOL0     H72477   0.584   5.714   3.796  0.0466 -0.8749  0.4030
  537MOL0     H72478   0.796   5.760   3.895  0.7450 -0.6748  0.3796
  537MOL0     H72479   1.193   5.593   4.142  0.2917 -2.2518 -0.9304
  537MOL0     H72480   1.439   5.615   4.206 -2.2606  1.1271  2.3698
  537MOL0     H72481   3.264   4.768   4.406 -1.1393  1.2894  2.0750
  537MOL0     H72482   3.483   4.745   4.442 -0.9695  1.3388  1.7550
  537MOL0     H72483   3.883   5.096   4.724  3.0573 -1.0658  1.6002
  537MOL0     H72484   4.121   5.065   4.756  0.5043 -1.5816  0.7496
  537MOL0     H72485   4.342   4.858   4.421 -0.5684 -0.1813 -0.5251
  537MOL0     H72486   4.370   5.029   4.470  1.1745  0.5279  1.9176
  537MOL0     H72487   4.533   4.971   4.632  0.0692  3.0921 -2.0855
  537MOL0     H72488   4.576   4.934   4.468 -1.2635  1.0735 -0.6512
  537MOL0     H72489   4.508   4.717   4.480 -2.6525  2.4083  0.1842
  537MOL0     H72490   4.477   4.707   4.652 -1.3529  1.1401 -0.5041
  537MOL0     H72491   4.715   4.755   4.707  0.9440 -2.0982  0.3758
  537MOL0     H72492   4.749   4.771   4.528 -1.9936  2.4957  0.2389
  537MOL0     H72493   4.798   4.376   4.558 -0.1724  0.9009 -3.6819
  537MOL0     H72494   4.137   4.768   4.439 -0.9774 -0.2795 -0.6992
  537MOL0     H72495   3.890   4.800   4.414  1.5898 -0.9452 -1.5912
  538MOL0     O72496   7.496   5.178   0.833  0.3562 -0.0073  0.5596
  538MOL0     C72497   7.536   5.107   0.926  0.6692  0.4399  0.1309
  538MOL0     O72498   7.453   5.060   1.026 -0.2697  0.1037 -0.4111
  538MOL0     C72499   7.322   5.105   1.023  0.1507  0.4767  0.2816
  538MOL0     C72500   7.242   5.065   0.921  0.4540 -0.3899  0.6252
  538MOL0     C72501   7.105   5.078   0.917  0.4992  0.5738 -0.3944
  538MOL0     C72502   7.041   5.148   1.034  0.0430  0.0178  0.7481
  538MOL0     O72503   6.904   5.172   1.048  0.0814 -0.6033 -0.1698
  538MOL0     C72504   6.816   5.152   0.943 -0.2364  0.1913  0.6198
  538MOL0     C72505   6.689   5.227   0.975  0.0474  0.0449 -0.0171
  538MOL0     C72506   6.586   5.187   0.872  1.3893 -0.1050  0.4778
  538MOL0     C72507   6.457   5.276   0.886 -0.0615 -0.3640 -0.2077
  538MOL0     C72508   6.347   5.259   0.776 -0.3181 -0.3711 -0.0300
  538MOL0     C72509   6.219   5.335   0.806  1.1607 -0.4606 -0.2744
  538MOL0     C72510   6.112   5.349   0.697  0.0220  0.3958  0.5881
  538MOL0     C72511   6.042   5.219   0.650 -0.6806  0.2781 -0.0316
  538MOL0     N72512   5.955   5.182   0.757  0.1534 -0.3863 -0.6131
  538MOL0     C72513   5.821   5.218   0.786 -0.8116 -0.5843 -0.1285
  538MOL0     C72514   5.792   5.132   0.883 -0.3339 -0.4023 -0.3101
  538MOL0     C72515   5.654   5.128   0.952 -0.4099 -0.3993 -0.5032
  538MOL0     C72516   5.676   5.131   1.107  0.9909  0.3711  0.3196
  538MOL0     C72517   5.554   5.075   1.180 -0.5473 -0.6819  0.3905
  538MOL0     C72518   5.447   5.181   1.199  0.3571  0.7185 -0.5236
  538MOL0     O72519   5.400   5.205   1.073  0.1444  0.0154 -0.2496
  538MOL0     C72520   5.295   5.287   1.055  0.8223 -0.6542  0.4430
  538MOL0     C72521   5.226   5.364   1.159 -0.4983  0.7837 -0.0505
  538MOL0     C72522   5.113   5.435   1.145 -0.4621 -0.8908  0.3883
  538MOL0     C72523   5.052   5.495   1.268 -0.4132  0.0466  0.5045
  538MOL0     C72524   5.053   5.436   1.024  0.9059 -0.1213 -0.1623
  538MOL0     C72525   4.917   5.509   0.994  0.0450  0.1030 -0.3793
  538MOL0     O72526   4.883   5.526   0.861 -0.5633 -0.4314  0.2675
  538MOL0     C72527   4.753   5.510   0.826 -0.2084  0.5070  0.2768
  538MOL0     C72528   4.692   5.608   0.746  0.5593 -0.8096  0.2440
  538MOL0     C72529   4.557   5.600   0.720  0.1470  0.7031  0.7346
  538MOL0     C72530   4.483   5.483   0.754 -0.1446 -0.4213 -0.7804
  538MOL0     O72531   4.355   5.465   0.710  0.1469 -0.3038 -0.7201
  538MOL0     C72532   4.318   5.504   0.571 -0.0945 -0.6946 -0.5360
  538MOL0     C72533   4.220   5.613   0.564  0.2541  1.0560 -0.0733
  538MOL0     C72534   4.083   5.577   0.623  0.1042 -0.4680 -0.8577
  538MOL0     C72535   3.986   5.522   0.518 -0.3642  0.1280 -0.0320
  538MOL0     C72536   3.848   5.492   0.568  0.2853  0.7747  0.3828
  538MOL0     C72537   3.758   5.434   0.458  0.3460  0.2219 -0.0883
  538MOL0     C72538   3.801   5.292   0.409  0.1184 -0.7125 -0.7969
  538MOL0     C72539   3.732   5.251   0.280 -0.2190  0.1821 -0.6173
  538MOL0    Cl72540   3.822   5.331   0.143  0.0375 -0.3115  0.0413
  538MOL0     C72541   4.543   5.383   0.824 -0.5505 -0.0063  0.5239
  538MOL0     C72542   4.680   5.391   0.866  1.0235  0.0572 -0.0435
  538MOL0     O72543   4.834   5.514   1.090  0.0840  0.1894  0.8238
  538MOL0     C72544   5.110   5.372   0.918  0.6167 -0.6857 -0.4728
  538MOL0     C72545   5.230   5.299   0.932 -0.6813 -1.1672 -0.0203
  538MOL0     N72546   5.900   5.063   0.924 -0.7223 -0.1905  0.1808
  538MOL0     N72547   5.990   5.082   0.838 -0.3242 -0.3079 -0.4457
  538MOL0     C72548   7.129   5.192   1.140  0.6187 -0.6737  0.4462
  538MOL0     C72549   7.264   5.170   1.136 -0.4883  0.2884 -0.4942
  538MOL0     C72550   7.681   5.065   0.915  0.5248  0.1396  0.2872
  538MOL0     C72551   7.738   4.983   1.014  0.4446 -0.1619  0.0498
  538MOL0     C72552   7.869   4.941   1.004 -0.6701 -0.1603  0.4888
  538MOL0     C72553   7.945   4.977   0.890  0.3401 -0.0049  0.6079
  538MOL0     O72554   8.077   4.942   0.865 -0.3623  0.7204 -0.2225
  538MOL0     C72555   8.137   4.834   0.943  0.4200 -0.2202  0.3508
  538MOL0     C72556   8.282   4.818   0.916  0.3225  0.2403  0.1804
  538MOL0     C72557   8.368   4.940   0.940 -0.1993  0.4028 -0.2888
  538MOL0     C72558   8.366   5.041   0.830  0.2979  0.0072 -0.4315
  538MOL0     C72559   8.411   4.990   0.702 -0.5227  0.3633 -0.3989
  538MOL0     C72560   8.452   4.932   0.607 -0.4519 -0.5877  0.9037
  538MOL0     C72561   7.885   5.042   0.783 -0.8391 -0.1745 -0.3617
  538MOL0     C72562   7.751   5.094   0.797  0.0806 -0.2617  0.0626
  538MOL0     H72563   7.292   5.010   0.842 -0.9529  1.4854 -1.6958
  538MOL0     H72564   7.047   5.055   0.827 -0.4909  0.0589  0.3515
  538MOL0     H72565   6.851   5.164   0.840 -2.4247 -1.7414 -0.4373
  538MOL0     H72566   6.782   5.048   0.947 -1.8027  0.1689 -4.7018
  538MOL0     H72567   6.653   5.208   1.077  0.1308  1.0406  0.2063
  538MOL0     H72568   6.722   5.331   0.975  2.7707 -0.7460 -1.0153
  538MOL0     H72569   6.628   5.204   0.773  1.2359  3.7952  0.9013
  538MOL0     H72570   6.554   5.084   0.889 -1.6922  0.5257 -0.8216
  538MOL0     H72571   6.422   5.268   0.989 -0.3682  0.7856 -0.2115
  538MOL0     H72572   6.487   5.381   0.883  1.1062 -0.6862 -0.5653
  538MOL0     H72573   6.386   5.304   0.685 -1.9734  0.4183 -0.3830
  538MOL0     H72574   6.328   5.151   0.775  2.4752 -1.0986  3.6422
  538MOL0     H72575   6.170   5.287   0.891  0.8930 -0.5316 -0.4670
  538MOL0     H72576   6.245   5.435   0.843  0.9836 -1.5094  2.9465
  538MOL0     H72577   6.027   5.410   0.728 -1.6070 -1.2582 -0.3758
  538MOL0     H72578   6.172   5.392   0.617 -0.0195 -3.0594 -1.4999
  538MOL0     H72579   6.117   5.140   0.635  0.8189  1.5463  0.5144
  538MOL0     H72580   5.987   5.230   0.556  0.0629 -1.4462 -0.7215
  538MOL0     H72581   5.755   5.278   0.724  1.2481  1.0316 -0.8433
  538MOL0     H72582   5.586   5.208   0.924 -0.4057 -0.3329 -0.3235
  538MOL0     H72583   5.605   5.035   0.920 -1.5755 -0.8927  2.4473
  538MOL0     H72584   5.688   5.229   1.154 -0.6453  1.0468 -0.5979
  538MOL0     H72585   5.755   5.061   1.135  0.4979  0.8222  3.1571
  538MOL0     H72586   5.585   5.020   1.269 -1.9306 -2.3755 -0.1228
  538MOL0     H72587   5.509   4.999   1.116 -0.7677  1.0167 -1.6134
  538MOL0     H72588   5.473   5.271   1.254 -2.0934  2.2137 -1.6675
  538MOL0     H72589   5.368   5.126   1.251  0.3974 -0.0604 -1.2501
  538MOL0     H72590   5.275   5.359   1.256  1.3768 -0.8374 -1.0026
  538MOL0     H72591   5.096   5.444   1.354  1.7090  0.2597 -0.3851
  538MOL0     H72592   5.074   5.602   1.274  2.9892 -0.5255  0.3378
  538MOL0     H72593   4.944   5.477   1.271 -0.7036  1.7603  1.9378
  538MOL0     H72594   4.755   5.693   0.720 -0.7930  0.5541  1.2483
  538MOL0     H72595   4.515   5.685   0.668  0.6291  1.4845  1.5987
  538MOL0     H72596   4.412   5.528   0.522  0.7121 -0.0148  1.2309
  538MOL0     H72597   4.267   5.420   0.524  0.0790  0.4628 -2.9033
  538MOL0     H72598   4.257   5.702   0.617 -0.1716  0.3417  1.4633
  538MOL0     H72599   4.213   5.639   0.458 -1.6525  1.0075  0.0004
  538MOL0     H72600   4.041   5.666   0.670  0.4339 -0.9386  0.3571
  538MOL0     H72601   4.090   5.492   0.692 -0.8396 -0.0813 -0.2801
  538MOL0     H72602   3.986   5.590   0.433 -0.0444  0.0065 -0.1306
  538MOL0     H72603   4.031   5.426   0.494  0.1275  0.0145  1.2699
  538MOL0     H72604   3.807   5.585   0.606 -0.5152  1.2495 -1.5162
  538MOL0     H72605   3.864   5.415   0.644  0.9046 -1.0079 -1.4226
  538MOL0     H72606   3.660   5.426   0.505  0.2933  2.4981  0.2874
  538MOL0     H72607   3.744   5.492   0.367  1.3336 -0.1367 -0.4865
  538MOL0     H72608   3.754   5.221   0.478  0.0518 -0.7641 -0.8954
  538MOL0     H72609   3.909   5.280   0.399  0.4590  0.1270  1.2837
  538MOL0     H72610   3.629   5.286   0.270 -0.8277 -1.4327 -0.2339
  538MOL0     H72611   3.753   5.145   0.268  1.7567  0.1089  2.4171
  538MOL0     H72612   4.480   5.301   0.857 -0.3776 -0.2066  0.3578
  538MOL0     H72613   4.712   5.319   0.941 -1.9678 -0.6989  0.6217
  538MOL0     H72614   5.067   5.377   0.818  1.8572 -2.6397 -1.1653
  538MOL0     H72615   5.277   5.258   0.843 -1.5305 -0.0177 -1.0322
  538MOL0     H72616   7.089   5.242   1.227  0.6147 -0.3139  0.2397
  538MOL0     H72617   7.339   5.192   1.211 -1.0222  2.2178 -0.4956
  538MOL0     H72618   7.668   4.957   1.092 -0.8329  1.2076 -0.5733
  538MOL0     H72619   7.906   4.883   1.088  0.1830 -3.3293 -1.9092
  538MOL0     H72620   8.136   4.862   1.049  2.1558  0.0376  0.3269
  538MOL0     H72621   8.095   4.737   0.917  2.7856 -0.7546 -1.9288
  538MOL0     H72622   8.295   4.787   0.812 -1.1483  1.2757 -0.3527
  538MOL0     H72623   8.318   4.740   0.983 -0.9419 -1.0522 -0.5897
  538MOL0     H72624   8.471   4.905   0.947 -0.6261 -1.0403 -0.8650
  538MOL0     H72625   8.334   4.988   1.033  2.1773  1.6575 -0.0083
  538MOL0     H72626   8.434   5.121   0.859  0.9752 -0.2031 -1.4036
  538MOL0     H72627   8.268   5.088   0.816 -0.9593 -2.2844  0.1623
  538MOL0     H72628   8.490   4.867   0.531 -1.8369 -0.3305 -0.0573
  538MOL0     H72629   7.940   5.053   0.690  0.0277  0.2816  0.1827
  538MOL0     H72630   7.704   5.147   0.714 -1.2859  0.3416  1.1627
  539MOL0     O72631   2.204  10.528   6.369 -0.3133  0.3073  0.0081
  539MOL0     C72632   2.285  10.451   6.318 -0.5956  0.8524  0.1646
  539MOL0     O72633   2.260  10.367   6.206  0.6660 -0.5870 -0.0575
  539MOL0     C72634   2.135  10.363   6.151  0.0367  0.8780 -0.2370
  539MOL0     C72635   2.106  10.388   6.016 -0.0305  0.3772  0.0012
  539MOL0     C72636   1.979  10.381   5.971  0.0913  0.1460  0.0353
  539MOL0     C72637   1.873  10.347   6.054  0.5582  0.8473 -0.0678
  539MOL0     O72638   1.745  10.342   6.026  0.4471 -0.9883  0.3163
  539MOL0     C72639   1.695  10.427   5.921 -0.3460  0.3039 -0.0465
  539MOL0     C72640   1.559  10.479   5.961 -0.0971  0.3373  0.1152
  539MOL0     C72641   1.444  10.446   5.856  0.9974 -0.1860 -0.5474
  539MOL0     C72642   1.312  10.501   5.916 -0.3849 -0.3400  0.3763
  539MOL0     C72643   1.194  10.517   5.810 -0.3401  0.4810 -0.8557
  539MOL0     C72644   1.062  10.562   5.875 -0.0036  0.8314 -0.4668
  539MOL0     C72645   1.054  10.708   5.906 -1.1754  0.8883  0.2350
  539MOL0     C72646   0.923  10.739   5.976 -0.2558 -0.0394  0.2915
  539MOL0     N72647   0.810  10.680   5.901  0.3622  0.5735 -0.5722
  539MOL0     C72648   0.743  10.750   5.806 -0.2501  0.5455  0.0471
  539MOL0     C72649   0.632  10.668   5.790 -0.5659 -0.0408  0.0695
  539MOL0     C72650   0.526  10.683   5.685  0.3189 -0.1969  0.3051
  539MOL0     C72651   0.386  10.711   5.756 -0.2051 -0.8416  0.0879
  539MOL0     C72652   0.386  10.841   5.839 -0.2082 -0.5553  0.9220
  539MOL0     C72653   0.250  10.891   5.875  1.3164  0.0989 -0.7869
  539MOL0     O72654   0.165  10.936   5.767  0.6978  0.3213 -0.1599
  539MOL0     C72655   0.036  10.976   5.802  0.9891  0.6139  0.0073
  539MOL0     C72656  -0.025  10.973   5.931 -0.8201 -0.3662 -0.6929
  539MOL0     C72657  -0.157  11.010   5.948 -0.2667 -0.0147  1.1449
  539MOL0     C72658  -0.215  11.014   6.094  0.1311 -0.2537  1.2393
  539MOL0     C72659  -0.235  11.047   5.830  0.0133 -0.0901 -0.5142
  539MOL0     C72660  -0.378  11.088   5.843  0.6635 -0.6815  0.3661
  539MOL0     O72661  -0.450  11.060   5.727 -0.1436  0.3028 -0.0629
  539MOL0     C72662  -0.580  11.090   5.712  0.3744  0.7027  0.6728
  539MOL0     C72663  -0.657  10.991   5.657  0.1705  0.4333  1.1578
  539MOL0     C72664  -0.797  11.006   5.660  0.5419 -0.0757 -0.0567
  539MOL0     C72665  -0.858  11.108   5.738 -0.0532  0.2943 -0.2525
  539MOL0     O72666  -0.997  11.111   5.763  0.0644  1.1431  0.1779
  539MOL0     C72667  -1.019  11.037   5.882 -0.0835  0.5443  0.6173
  539MOL0     C72668  -1.109  10.919   5.855 -0.1132  0.3603  0.1536
  539MOL0     C72669  -1.243  10.965   5.811  0.1957  1.5064  0.4935
  539MOL0     C72670  -1.333  10.977   5.931  0.4307 -0.1751  0.8352
  539MOL0     C72671  -1.473  11.026   5.887 -1.0955 -0.8821  0.1120
  539MOL0     C72672  -1.555  10.918   5.827  0.8337  0.0824 -0.0605
  539MOL0     C72673  -1.640  10.835   5.923 -0.7323  0.5999  0.4979
  539MOL0     C72674  -1.731  10.730   5.850  0.5724 -1.1785  1.1413
  539MOL0    Cl72675  -1.816  10.615   5.949 -0.3457 -0.1725 -0.1897
  539MOL0     C72676  -0.779  11.212   5.779 -0.0904 -0.4644 -0.2433
  539MOL0     C72677  -0.638  11.208   5.766 -0.0908  0.2196  0.1663
  539MOL0     O72678  -0.422  11.144   5.943 -0.4101 -0.2199 -0.2538
  539MOL0     C72679  -0.179  11.046   5.699  0.3030 -0.0051  0.5516
  539MOL0     C72680  -0.048  11.019   5.686 -0.0248 -0.0764  0.2811
  539MOL0     N72681   0.634  10.562   5.878  0.1785  0.7688 -0.1294
  539MOL0     N72682   0.745  10.570   5.940  0.3232  0.1042  0.4399
  539MOL0     C72683   1.897  10.304   6.186 -0.0109 -0.1688  0.6042
  539MOL0     C72684   2.029  10.312   6.237  0.4143 -0.7239 -0.2293
  539MOL0     C72685   2.423  10.444   6.370  0.0260  0.4607  0.5489
  539MOL0     C72686   2.535  10.402   6.289  0.1716 -0.6095  0.5227
  539MOL0     C72687   2.668  10.409   6.343 -0.1359  0.0617  0.4834
  539MOL0     C72688   2.690  10.456   6.474 -0.4252 -0.0002  0.0216
  539MOL0     O72689   2.818  10.457   6.519  0.3984  0.7226  0.1049
  539MOL0     C72690   2.839  10.489   6.657 -0.1505  0.1030  0.0105
  539MOL0     C72691   2.981  10.462   6.706 -0.0942  0.5478  0.0166
  539MOL0     C72692   3.068  10.576   6.668  0.2296  0.2252  0.1644
  539MOL0     C72693   3.216  10.564   6.710  0.1643 -0.3989 -0.0688
  539MOL0     C72694   3.285  10.461   6.642  0.6203  0.1274  0.3537
  539MOL0     C72695   3.321  10.377   6.566  0.3465  0.5620 -0.3600
  539MOL0     C72696   2.582  10.506   6.547 -0.3667  0.3112  0.0741
  539MOL0     C72697   2.452  10.501   6.494  0.5626 -0.1136 -0.9733
  539MOL0     H72698   2.189  10.409   5.949  0.0216 -1.3602 -0.5376
  539MOL0     H72699   1.972  10.409   5.867  2.0142  1.4134  0.1880
  539MOL0     H72700   1.761  10.513   5.913  1.6641 -0.6015  3.9499
  539MOL0     H72701   1.688  10.369   5.829  0.9127 -0.2802  0.2027
  539MOL0     H72702   1.526  10.444   6.059 -0.0257  0.2561  0.1101
  539MOL0     H72703   1.573  10.588   5.963  1.6125  0.1348  1.1491
  539MOL0     H72704   1.454  10.494   5.758 -3.1078 -1.9629 -2.0779
  539MOL0     H72705   1.435  10.340   5.831  0.3135  0.0831 -1.4948
  539MOL0     H72706   1.284  10.442   6.003  0.4914 -1.4295 -0.0608
  539MOL0     H72707   1.333  10.601   5.956  1.5053 -1.6294  2.8732
  539MOL0     H72708   1.218  10.576   5.721 -1.7451  0.4316 -1.2881
  539MOL0     H72709   1.179  10.417   5.767 -1.6594  0.3823 -0.1929
  539MOL0     H72710   0.991  10.530   5.798  1.2658 -2.2467 -0.5094
  539MOL0     H72711   1.049  10.499   5.964 -1.7729 -0.3771 -1.5220
  539MOL0     H72712   1.136  10.745   5.968  0.2412 -0.6424 -0.6244
  539MOL0     H72713   1.053  10.763   5.811  1.2067  1.2280  0.3299
  539MOL0     H72714   0.900  10.846   5.980  1.2942  0.5273 -2.7880
  539MOL0     H72715   0.924  10.695   6.076  1.3041 -2.7729 -0.8403
  539MOL0     H72716   0.763  10.844   5.756 -1.2716  0.4186 -0.6215
  539MOL0     H72717   0.550  10.763   5.615 -1.7018 -0.2377 -0.4763
  539MOL0     H72718   0.527  10.591   5.625  2.0308  0.9705 -1.5763
  539MOL0     H72719   0.372  10.632   5.830 -2.6586 -2.0093 -1.5015
  539MOL0     H72720   0.310  10.693   5.680  2.3401 -1.2319 -2.5583
  539MOL0     H72721   0.447  10.911   5.781  1.2493 -1.6069  1.1363
  539MOL0     H72722   0.442  10.828   5.932  0.7045  0.0011  0.4759
  539MOL0     H72723   0.257  10.980   5.938 -0.3844 -0.0201 -0.3933
  539MOL0     H72724   0.202  10.809   5.928 -0.1252 -0.3789 -2.7174
  539MOL0     H72725   0.038  10.949   6.015 -1.2534  1.7316  0.3008
  539MOL0     H72726  -0.141  10.967   6.160 -0.5723 -5.3946 -1.0743
  539MOL0     H72727  -0.242  11.117   6.116  0.3847  0.1786 -0.3613
  539MOL0     H72728  -0.299  10.947   6.115 -0.5942  0.8678  2.0433
  539MOL0     H72729  -0.612  10.914   5.595 -2.9407  0.2077 -1.0401
  539MOL0     H72730  -0.862  10.934   5.611  0.4911 -1.9253  2.5250
  539MOL0     H72731  -0.923  11.014   5.929  0.3947 -0.3676 -0.7471
  539MOL0     H72732  -1.081  11.106   5.941 -0.7489 -0.1768  0.7716
  539MOL0     H72733  -1.056  10.866   5.776 -0.4843  1.0296 -0.5521
  539MOL0     H72734  -1.128  10.861   5.946  1.2708  1.9975  1.5752
  539MOL0     H72735  -1.279  10.894   5.736 -1.2918  1.4936  1.1851
  539MOL0     H72736  -1.246  11.054   5.746 -1.2706 -1.5386 -4.1025
  539MOL0     H72737  -1.341  10.883   5.986 -2.1362 -1.0987 -0.9064
  539MOL0     H72738  -1.296  11.050   6.003 -1.0665 -0.0457  1.5142
  539MOL0     H72739  -1.471  11.115   5.823 -4.8560 -0.4832  0.2948
  539MOL0     H72740  -1.520  11.062   5.979 -0.3991 -1.1769  0.5821
  539MOL0     H72741  -1.623  10.965   5.755 -2.1793  0.2542  2.6748
  539MOL0     H72742  -1.497  10.846   5.769  0.9809 -0.2514  0.4936
  539MOL0     H72743  -1.699  10.911   5.976  0.6494  1.5695  0.6855
  539MOL0     H72744  -1.573  10.782   5.991  1.9155  1.2567 -1.4648
  539MOL0     H72745  -1.668  10.662   5.794  0.4778 -0.4511  0.1174
  539MOL0     H72746  -1.808  10.778   5.789 -0.2640 -2.7971  0.8754
  539MOL0     H72747  -0.828  11.298   5.821  0.8046  0.1436 -0.4042
  539MOL0     H72748  -0.583  11.291   5.810 -1.2072 -0.3454  2.8526
  539MOL0     H72749  -0.228  11.086   5.611  3.6538  2.1651 -0.5085
  539MOL0     H72750   0.003  11.017   5.590  0.0258 -0.8493  0.3212
  539MOL0     H72751   1.819  10.274   6.254  1.5177 -2.4171  1.4704
  539MOL0     H72752   2.055  10.284   6.339 -1.8790  1.8581  1.2095
  539MOL0     H72753   2.521  10.375   6.185 -0.7344 -1.5094  0.8607
  539MOL0     H72754   2.751  10.374   6.282  1.3311  1.3137  1.6564
  539MOL0     H72755   2.819  10.592   6.687  2.3076  1.0232 -1.3031
  539MOL0     H72756   2.769  10.424   6.711 -1.5101 -0.6082 -2.4506
  539MOL0     H72757   3.010  10.367   6.659 -1.2985 -0.9970  2.2618
  539MOL0     H72758   2.982  10.442   6.813 -1.1391  0.0819 -0.0516
  539MOL0     H72759   3.025  10.665   6.715 -3.1687 -1.1621 -0.0217
  539MOL0     H72760   3.050  10.586   6.561  1.3547 -0.2580 -0.0844
  539MOL0     H72761   3.229  10.548   6.817 -2.5565 -0.4260  0.3475
  539MOL0     H72762   3.268  10.656   6.682 -2.7660  0.7862 -2.2586
  539MOL0     H72763   3.351  10.302   6.497 -1.4826 -0.4409 -0.1333
  539MOL0     H72764   2.600  10.551   6.644  1.5635 -1.3997  0.5952
  539MOL0     H72765   2.363  10.536   6.545  1.3243  1.2184 -0.5234
  540MOL0     O72766   1.846   3.688   4.859  0.5518 -0.0470  0.7130
  540MOL0     C72767   1.950   3.728   4.835  0.1967 -0.4776  0.2845
  540MOL0     O72768   1.974   3.860   4.790  0.3298 -0.5598  0.6405
  540MOL0     C72769   1.857   3.927   4.756 -0.2353 -0.6241 -0.1328
  540MOL0     C72770   1.793   4.005   4.852 -0.3934 -0.2413 -0.8819
  540MOL0     C72771   1.660   4.055   4.825 -0.6580 -0.1090  1.0996
  540MOL0     C72772   1.588   4.019   4.705  0.6369  0.4619  0.0473
  540MOL0     O72773   1.464   4.060   4.665  0.8981 -0.0085  0.4710
  540MOL0     C72774   1.430   4.190   4.710  0.1732 -0.0236  0.3248
  540MOL0     C72775   1.284   4.223   4.677 -0.2430 -0.2642  0.0642
  540MOL0     C72776   1.249   4.370   4.693  0.1253  0.5040  0.5471
  540MOL0     C72777   1.254   4.412   4.845 -0.2277  0.4569 -0.5483
  540MOL0     C72778   1.194   4.546   4.886  0.5097  0.5216 -0.3961
  540MOL0     C72779   1.253   4.669   4.823  0.3822 -0.5875  0.3921
  540MOL0     C72780   1.143   4.775   4.834  0.1519 -0.2944 -0.5286
  540MOL0     C72781   1.158   4.883   4.730 -0.3261  0.3422 -0.0518
  540MOL0     N72782   1.035   4.958   4.739 -0.1053 -0.1633 -0.0424
  540MOL0     C72783   0.995   5.044   4.836  0.6405 -0.0856 -0.4885
  540MOL0     C72784   0.884   5.108   4.784 -0.3551  0.5098  0.4493
  540MOL0     C72785   0.789   5.204   4.847  0.8183 -0.0564 -0.7554
  540MOL0     C72786   0.654   5.149   4.882  0.4159  0.6424  0.2673
  540MOL0     C72787   0.563   5.149   4.757  0.1163 -0.0468 -0.8915
  540MOL0     C72788   0.432   5.083   4.809 -0.6373 -0.3852 -0.5916
  540MOL0     O72789   0.328   5.088   4.712 -0.0272 -0.3537 -0.0289
  540MOL0     C72790   0.199   5.054   4.746 -0.1856  0.7531  0.0606
  540MOL0     C72791   0.163   5.011   4.872 -0.4554 -0.2849  0.6642
  540MOL0     C72792   0.031   4.979   4.901  0.2776 -0.1356  0.3391
  540MOL0     C72793  -0.001   4.941   5.044 -0.3532 -0.2771 -0.5215
  540MOL0     C72794  -0.065   4.972   4.802 -0.1269 -0.8365  0.1057
  540MOL0     C72795  -0.198   4.908   4.811 -0.6416 -0.5793  0.1487
  540MOL0     O72796  -0.262   4.902   4.697  0.1253  0.4804  1.0143
  540MOL0     C72797  -0.379   4.834   4.684  0.6484 -0.2730  0.0261
  540MOL0     C72798  -0.500   4.899   4.706 -0.2313 -0.0451  0.1080
  540MOL0     C72799  -0.620   4.838   4.682 -0.2085 -0.4115  0.2848
  540MOL0     C72800  -0.620   4.715   4.632 -0.3607  0.3968 -0.0706
  540MOL0     O72801  -0.745   4.667   4.606  0.3235 -0.2854 -0.0271
  540MOL0     C72802  -0.770   4.561   4.517  0.3771  0.3521  0.1942
  540MOL0     C72803  -0.911   4.557   4.473  0.3382 -0.5080 -0.1462
  540MOL0     C72804  -0.959   4.447   4.378  0.0003  0.1442  0.4243
  540MOL0     C72805  -1.096   4.383   4.419 -0.3566 -0.5037 -0.8592
  540MOL0     C72806  -1.212   4.478   4.385 -0.0453  0.0047  0.0984
  540MOL0     C72807  -1.346   4.421   4.425 -1.1018  0.2735 -0.0682
  540MOL0     C72808  -1.419   4.336   4.317  0.1862 -0.5388  0.9005
  540MOL0     C72809  -1.567   4.345   4.331  0.2607 -0.4472 -0.4591
  540MOL0    Cl72810  -1.624   4.504   4.265  0.1126 -0.6985 -0.0243
  540MOL0     C72811  -0.500   4.650   4.597 -0.3891 -0.3274 -0.8387
  540MOL0     C72812  -0.378   4.702   4.631 -0.6770  0.0346  0.4485
  540MOL0     O72813  -0.235   4.857   4.921  0.4448  1.1322  0.4995
  540MOL0     C72814  -0.019   5.007   4.672  0.1879 -0.5336  0.5581
  540MOL0     C72815   0.109   5.055   4.646 -0.6211  0.5337 -0.2333
  540MOL0     N72816   0.865   5.074   4.658  0.1033  0.4683 -0.6067
  540MOL0     N72817   0.957   4.976   4.632  0.4635 -0.3276 -0.2672
  540MOL0     C72818   1.657   3.935   4.615 -0.2033  0.2210 -0.5616
  540MOL0     C72819   1.794   3.906   4.634 -0.1487  0.5835  0.6493
  540MOL0     C72820   2.068   3.661   4.885 -0.1294  0.9769 -0.4426
  540MOL0     C72821   2.068   3.527   4.934  0.0520 -0.1748 -0.3659
  540MOL0     C72822   2.178   3.465   4.979  0.7915  0.5907 -0.2178
  540MOL0     C72823   2.304   3.525   4.971  0.3288  0.8160 -1.3398
  540MOL0     O72824   2.407   3.446   5.010  0.1242  0.0670 -0.2272
  540MOL0     C72825   2.535   3.507   5.022  0.2650  0.0996  0.2643
  540MOL0     C72826   2.634   3.420   4.949  0.2655  0.3601  0.3613
  540MOL0     C72827   2.624   3.446   4.797  0.2097 -0.3659  0.4600
  540MOL0     C72828   2.753   3.402   4.712  0.1618  1.0109  0.4389
  540MOL0     C72829   2.728   3.403   4.565 -0.4100 -0.3941 -0.4109
  540MOL0     C72830   2.702   3.371   4.447  0.0685 -1.1573 -0.1173
  540MOL0     C72831   2.309   3.660   4.929  0.1253  0.2833  0.5705
  540MOL0     C72832   2.195   3.724   4.885  0.5950 -0.0417 -0.5891
  540MOL0     H72833   1.844   4.017   4.947  0.3595 -1.0913 -1.1633
  540MOL0     H72834   1.615   4.117   4.901  0.1608  1.9049  0.0263
  540MOL0     H72835   1.459   4.214   4.813  0.8809 -0.1722  0.1678
  540MOL0     H72836   1.496   4.263   4.660  1.6981  0.1633  2.4876
  540MOL0     H72837   1.265   4.192   4.573 -1.0881  0.0505  0.1149
  540MOL0     H72838   1.228   4.170   4.754 -2.0808 -0.1264 -1.1101
  540MOL0     H72839   1.328   4.418   4.634 -0.5905  0.4820 -0.4573
  540MOL0     H72840   1.152   4.385   4.645 -0.1544 -3.3421 -0.3557
  540MOL0     H72841   1.191   4.336   4.892  0.6881 -0.2762 -0.4793
  540MOL0     H72842   1.355   4.402   4.886 -0.4501 -3.6617 -0.5977
  540MOL0     H72843   1.087   4.533   4.870  0.5875 -4.0217  1.1549
  540MOL0     H72844   1.204   4.549   4.995 -1.7921  0.6845 -0.1394
  540MOL0     H72845   1.340   4.696   4.884 -0.1219 -4.6285  3.3030
  540MOL0     H72846   1.280   4.658   4.718 -0.8816 -1.5245  0.1534
  540MOL0     H72847   1.044   4.732   4.819  0.1694 -0.0445 -1.4070
  540MOL0     H72848   1.137   4.828   4.929  0.5109 -0.3916 -0.4494
  540MOL0     H72849   1.185   4.852   4.629 -2.0937  2.6873 -1.3580
  540MOL0     H72850   1.237   4.944   4.775  0.0294 -1.9627  2.7135
  540MOL0     H72851   1.037   5.047   4.936  0.3214 -0.0927 -0.3512
  540MOL0     H72852   0.818   5.232   4.948 -0.8702 -0.4136 -0.1366
  540MOL0     H72853   0.792   5.294   4.784  2.5731 -0.9009 -1.9767
  540MOL0     H72854   0.611   5.187   4.975 -2.1087 -0.8943 -0.1684
  540MOL0     H72855   0.677   5.043   4.900  1.7463  0.6915 -0.9731
  540MOL0     H72856   0.605   5.087   4.677 -1.8865  0.6436 -2.5952
  540MOL0     H72857   0.543   5.248   4.713 -0.8506 -1.8442 -4.9950
  540MOL0     H72858   0.399   5.139   4.898  0.7283 -0.4636 -0.0170
  540MOL0     H72859   0.446   4.978   4.833 -1.4652 -0.3726  0.0089
  540MOL0     H72860   0.234   5.010   4.955  1.3723  2.1038 -0.7196
  540MOL0     H72861   0.090   4.955   5.104  2.0858 -0.1346 -3.9116
  540MOL0     H72862  -0.080   5.010   5.073  0.2479  0.4456 -0.5782
  540MOL0     H72863  -0.043   4.840   5.045 -0.0392 -0.4066 -0.0588
  540MOL0     H72864  -0.479   5.000   4.737 -2.7297  0.8884 -1.0235
  540MOL0     H72865  -0.712   4.896   4.684 -0.6882 -0.7366 -3.5587
  540MOL0     H72866  -0.707   4.580   4.430  0.1032  5.2051  0.7880
  540MOL0     H72867  -0.755   4.468   4.572  0.7087  1.2412  1.6669
  540MOL0     H72868  -0.982   4.567   4.556  3.0506 -0.3798  2.3320
  540MOL0     H72869  -0.922   4.649   4.415 -3.7307 -0.6832  0.1208
  540MOL0     H72870  -0.887   4.366   4.395 -1.1033 -0.7427  0.9881
  540MOL0     H72871  -0.950   4.467   4.271 -0.4379  0.4490  0.4397
  540MOL0     H72872  -1.107   4.287   4.369 -2.1578 -2.1317  2.3939
  540MOL0     H72873  -1.091   4.367   4.527 -2.7653 -2.3160 -0.9477
  540MOL0     H72874  -1.215   4.514   4.282 -4.6910 -2.1302 -0.7565
  540MOL0     H72875  -1.198   4.572   4.440 -1.8598 -1.1965  2.8461
  540MOL0     H72876  -1.329   4.358   4.514 -1.6958 -0.2774 -0.3325
  540MOL0     H72877  -1.412   4.503   4.454 -2.0976 -1.2804  2.4350
  540MOL0     H72878  -1.398   4.229   4.327  2.8570 -0.2552 -0.7613
  540MOL0     H72879  -1.403   4.362   4.212  0.2592  1.9369  1.4726
  540MOL0     H72880  -1.595   4.348   4.437  1.1211 -0.2309 -0.2382
  540MOL0     H72881  -1.614   4.256   4.288 -1.0365 -0.6459  1.2563
  540MOL0     H72882  -0.510   4.555   4.546  1.2622 -1.3974  0.6840
  540MOL0     H72883  -0.278   4.662   4.613  0.6152  4.0072 -2.9968
  540MOL0     H72884  -0.074   4.991   4.580 -0.8322  0.2764  1.0065
  540MOL0     H72885   0.141   5.083   4.546  0.0167 -0.1796 -0.2348
  540MOL0     H72886   1.608   3.905   4.524 -1.3021  2.2083 -0.6946
  540MOL0     H72887   1.857   3.850   4.565 -0.0933 -0.9676  1.8869
  540MOL0     H72888   1.972   3.479   4.954  0.4782 -0.0385  2.3642
  540MOL0     H72889   2.169   3.368   5.025  0.6908  1.8102  2.5096
  540MOL0     H72890   2.549   3.613   4.997  0.6015 -0.2423 -1.0575
  540MOL0     H72891   2.544   3.500   5.131 -2.5498  1.8839  0.7154
  540MOL0     H72892   2.619   3.315   4.975  0.3074  0.4315  0.6796
  540MOL0     H72893   2.738   3.448   4.973  1.9504 -3.5457 -1.5104
  540MOL0     H72894   2.611   3.547   4.757 -1.5250 -0.2925  1.1275
  540MOL0     H72895   2.544   3.381   4.759 -0.8514  1.0564  0.1981
  540MOL0     H72896   2.785   3.301   4.737  0.5138  1.1071  0.3774
  540MOL0     H72897   2.840   3.465   4.735  1.5086 -0.2072 -1.1165
  540MOL0     H72898   2.698   3.335   4.346  1.2378 -1.8782  0.0774
  540MOL0     H72899   2.401   3.717   4.926  0.4979 -0.1185  2.8137
  540MOL0     H72900   2.198   3.821   4.835  1.4240 -0.6363 -1.7271
  541MOL0     O72901   3.417   6.259   7.631  0.2850  0.0982 -0.8585
  541MOL0     C72902   3.459   6.366   7.596  0.0770 -0.3499  0.0400
  541MOL0     O72903   3.383   6.476   7.554  0.1203 -1.0773 -0.1849
  541MOL0     C72904   3.246   6.485   7.538 -0.0720 -0.5714  0.1325
  541MOL0     C72905   3.179   6.374   7.498  0.4099  0.2774 -1.1240
  541MOL0     C72906   3.041   6.370   7.483  0.7081  0.0448  0.8031
  541MOL0     C72907   2.973   6.489   7.517 -0.1694 -0.5132  0.2347
  541MOL0     O72908   2.833   6.483   7.512  0.8549 -0.8442 -0.8739
  541MOL0     C72909   2.770   6.609   7.520  0.0427 -0.4360 -0.3338
  541MOL0     C72910   2.635   6.592   7.460  0.3818  0.6710  0.0249
  541MOL0     C72911   2.549   6.720   7.461  0.1123 -0.4325  0.1817
  541MOL0     C72912   2.403   6.673   7.433  0.0316 -0.0033  0.0409
  541MOL0     C72913   2.306   6.786   7.459  0.6005 -0.0500  0.2907
  541MOL0     C72914   2.170   6.749   7.400  0.2206  0.4188 -0.7217
  541MOL0     C72915   2.059   6.844   7.435  0.1920 -0.3070 -0.6243
  541MOL0     C72916   1.935   6.783   7.360  0.0794 -0.6338 -0.4820
  541MOL0     N72917   1.823   6.878   7.355  0.2443  0.1101  0.0178
  541MOL0     C72918   1.804   6.995   7.428  0.8778  0.1687  0.2928
  541MOL0     C72919   1.727   7.076   7.346  0.0235  0.6857  0.6264
  541MOL0     C72920   1.691   7.218   7.378  0.2212 -0.4189 -0.1545
  541MOL0     C72921   1.603   7.240   7.507  0.3117 -0.2138 -0.4862
  541MOL0     C72922   1.463   7.194   7.501  0.1707 -0.3022  0.1812
  541MOL0     C72923   1.404   7.145   7.637 -0.3940  0.5275 -0.4828
  541MOL0     O72924   1.295   7.062   7.608  0.1868  0.1332 -0.0048
  541MOL0     C72925   1.308   6.927   7.619 -0.8330 -0.5292  0.0461
  541MOL0     C72926   1.423   6.859   7.578 -0.0336 -0.1754 -0.4364
  541MOL0     C72927   1.444   6.725   7.614  0.1849 -0.5591 -0.0619
  541MOL0     C72928   1.579   6.672   7.570 -0.1256 -0.4937 -0.2192
  541MOL0     C72929   1.339   6.651   7.683  0.1342 -1.0539  0.5265
  541MOL0     C72930   1.330   6.511   7.716  0.1281  0.8086  0.1935
  541MOL0     O72931   1.229   6.468   7.799 -0.4768 -0.6423 -0.1806
  541MOL0     C72932   1.244   6.342   7.854 -0.4431 -0.2218 -0.5204
  541MOL0     C72933   1.171   6.235   7.810 -0.3743 -0.3059 -0.8246
  541MOL0     C72934   1.197   6.113   7.873 -0.2206 -0.3113 -0.8107
  541MOL0     C72935   1.263   6.103   7.995 -0.4498 -0.4163 -0.2358
  541MOL0     O72936   1.283   5.976   8.037  0.4652  0.1227  0.8476
  541MOL0     C72937   1.349   5.957   8.172  0.6725 -0.0992  0.2317
  541MOL0     C72938   1.421   5.829   8.160 -0.3533 -0.2806 -0.0892
  541MOL0     C72939   1.331   5.707   8.181  0.0714  0.4987  0.0014
  541MOL0     C72940   1.396   5.600   8.271  0.6467  0.2372 -0.5914
  541MOL0     C72941   1.348   5.450   8.258  0.0276  0.4720  0.9085
  541MOL0     C72942   1.425   5.367   8.363 -0.3613  1.1196  0.5252
  541MOL0     C72943   1.413   5.214   8.363 -0.0112 -0.2770  0.5430
  541MOL0     C72944   1.270   5.174   8.356 -1.0264  0.0465 -0.1389
  541MOL0    Cl72945   1.249   4.994   8.359  0.1318  0.0141 -0.3755
  541MOL0     C72946   1.319   6.214   8.050 -0.2457  0.1116  0.6807
  541MOL0     C72947   1.313   6.330   7.973 -0.3373  0.2016  0.0154
  541MOL0     O72948   1.413   6.436   7.669  0.1232  0.0972 -0.1482
  541MOL0     C72949   1.229   6.733   7.729  0.1335 -0.3335  0.3158
  541MOL0     C72950   1.207   6.859   7.685  0.6162 -0.4969 -0.3247
  541MOL0     N72951   1.695   7.011   7.226  0.0348  0.4793 -0.2079
  541MOL0     N72952   1.759   6.901   7.231 -0.0211  0.4206 -0.0054
  541MOL0     C72953   3.045   6.605   7.560 -1.2821  0.1495  0.1896
  541MOL0     C72954   3.185   6.603   7.573 -0.4322  0.3651 -0.3335
  541MOL0     C72955   3.606   6.372   7.583  1.2099 -0.0090  0.3722
  541MOL0     C72956   3.692   6.258   7.566 -0.0268  0.1231 -0.2929
  541MOL0     C72957   3.826   6.260   7.555 -0.1950  0.5686  0.2156
  541MOL0     C72958   3.890   6.383   7.552  0.6213 -0.2504  0.1889
  541MOL0     O72959   4.023   6.398   7.543 -0.9737  0.1052 -0.0899
  541MOL0     C72960   4.102   6.305   7.473  0.0459 -0.4136 -0.0681
  541MOL0     C72961   4.228   6.383   7.433 -0.1279 -0.3407 -0.1534
  541MOL0     C72962   4.213   6.470   7.307 -0.6687  0.2817  0.3512
  541MOL0     C72963   4.151   6.608   7.344  0.1140  0.0126  0.4115
  541MOL0     C72964   4.238   6.695   7.421 -0.5279 -0.5866  0.2588
  541MOL0     C72965   4.322   6.748   7.488  0.7566  0.6760  0.6551
  541MOL0     C72966   3.808   6.496   7.561 -0.5048  0.3563  0.1947
  541MOL0     C72967   3.669   6.491   7.567 -0.2603 -0.4998  0.0636
  541MOL0     H72968   3.226   6.283   7.460 -0.4151 -0.2601 -0.8909
  541MOL0     H72969   2.992   6.280   7.446  4.7861 -2.9914  2.0113
  541MOL0     H72970   2.785   6.639   7.624  1.9857 -1.0730 -0.3895
  541MOL0     H72971   2.819   6.686   7.459  2.2198  1.8379  3.8104
  541MOL0     H72972   2.639   6.565   7.354 -3.6213  1.6430 -0.5056
  541MOL0     H72973   2.579   6.508   7.502  0.6893  0.0084 -0.8620
  541MOL0     H72974   2.569   6.782   7.549 -1.2637 -0.2890  0.4188
  541MOL0     H72975   2.576   6.785   7.377 -0.4537 -2.2208 -1.4576
  541MOL0     H72976   2.384   6.642   7.330 -3.0601 -1.6268  0.9667
  541MOL0     H72977   2.369   6.587   7.491 -1.0251  0.5788  0.3115
  541MOL0     H72978   2.310   6.804   7.567  2.3564  3.4191 -0.2267
  541MOL0     H72979   2.338   6.877   7.408  0.3720 -0.4994 -0.6651
  541MOL0     H72980   2.179   6.750   7.291 -1.5820  0.9302 -0.9081
  541MOL0     H72981   2.144   6.646   7.427 -0.4419  1.2716  2.3129
  541MOL0     H72982   2.041   6.862   7.541 -2.4846  3.7168 -1.5009
  541MOL0     H72983   2.085   6.939   7.388 -0.8302 -0.0602 -0.7161
  541MOL0     H72984   1.905   6.694   7.416 -1.2370  1.4134  2.2489
  541MOL0     H72985   1.964   6.744   7.262 -0.0407 -0.7851 -0.4574
  541MOL0     H72986   1.837   7.021   7.528 -0.7476 -1.1576  1.2250
  541MOL0     H72987   1.782   7.278   7.393  1.2440 -2.2576  1.3388
  541MOL0     H72988   1.652   7.264   7.286 -0.9113 -1.9454 -0.4780
  541MOL0     H72989   1.591   7.348   7.521 -3.2659 -0.8323  2.5352
  541MOL0     H72990   1.650   7.200   7.597  2.6396 -0.1147 -1.5639
  541MOL0     H72991   1.456   7.111   7.430  0.9439  0.4563 -0.8208
  541MOL0     H72992   1.399   7.271   7.455  0.8046  0.2527  0.2041
  541MOL0     H72993   1.385   7.230   7.703 -2.4914  0.0153 -0.3569
  541MOL0     H72994   1.486   7.093   7.687  1.2730  3.8840  0.6073
  541MOL0     H72995   1.503   6.899   7.516  3.0682  1.1013  3.8319
  541MOL0     H72996   1.619   6.633   7.664  0.7455 -0.4253 -0.5432
  541MOL0     H72997   1.563   6.598   7.491  0.3158 -0.7790 -0.0463
  541MOL0     H72998   1.657   6.734   7.524  1.6340 -1.4533  1.3412
  541MOL0     H72999   1.109   6.242   7.721  1.5829  1.2740 -2.1491
  541MOL0     H73000   1.154   6.026   7.824  0.2514  0.3149 -2.4031
  541MOL0     H73001   1.422   6.036   8.185 -0.4972  1.1573 -0.5630
  541MOL0     H73002   1.279   5.960   8.256 -0.2325  0.8454 -0.5293
  541MOL0     H73003   1.463   5.832   8.059  1.4198  0.9540  0.6147
  541MOL0     H73004   1.501   5.830   8.235 -0.4038 -0.8737 -0.0260
  541MOL0     H73005   1.304   5.671   8.081  0.3234  1.0088 -0.2515
  541MOL0     H73006   1.235   5.730   8.229  0.7692 -1.1140  2.3750
  541MOL0     H73007   1.503   5.602   8.249  1.1764  2.4696  1.6225
  541MOL0     H73008   1.383   5.628   8.377  2.2141 -1.6636  0.1590
  541MOL0     H73009   1.373   5.405   8.161  1.9700 -1.3377  2.1688
  541MOL0     H73010   1.239   5.442   8.264  0.2289 -1.6158  2.9301
  541MOL0     H73011   1.530   5.393   8.342 -0.7774  0.9367 -2.1881
  541MOL0     H73012   1.408   5.402   8.466  2.4784  0.7521  1.1956
  541MOL0     H73013   1.460   5.168   8.450  1.2127  1.8953  1.1209
  541MOL0     H73014   1.470   5.174   8.279  0.8629  0.1725  0.9094
  541MOL0     H73015   1.227   5.218   8.266  0.9891  0.8937 -0.7408
  541MOL0     H73016   1.207   5.216   8.435  0.8192  1.4916  0.6192
  541MOL0     H73017   1.362   6.225   8.149 -1.1864  1.0364  1.0167
  541MOL0     H73018   1.349   6.421   8.019 -1.3560  1.6068 -1.8168
  541MOL0     H73019   1.144   6.691   7.782 -0.9820  0.4754 -0.7801
  541MOL0     H73020   1.117   6.917   7.704  1.5165  0.4387  1.3686
  541MOL0     H73021   3.006   6.700   7.595  0.2035  1.1532 -0.7544
  541MOL0     H73022   3.246   6.689   7.599 -0.5952  0.7274 -1.1161
  541MOL0     H73023   3.640   6.162   7.569 -0.3564  0.3180  1.0762
  541MOL0     H73024   3.892   6.174   7.543 -0.8194  0.2639 -1.1644
  541MOL0     H73025   4.125   6.213   7.527 -2.4253 -1.2493 -0.3157
  541MOL0     H73026   4.051   6.278   7.380 -1.1764 -1.4368  0.8677
  541MOL0     H73027   4.313   6.315   7.420  0.5657  0.5106 -0.1414
  541MOL0     H73028   4.253   6.445   7.519 -0.1887 -0.7605  0.1719
  541MOL0     H73029   4.154   6.421   7.229 -0.9982 -0.7917  1.2477
  541MOL0     H73030   4.311   6.478   7.257  0.6798  2.8767  3.0960
  541MOL0     H73031   4.061   6.591   7.403 -0.6250  0.1518 -0.6471
  541MOL0     H73032   4.119   6.663   7.255 -2.2758 -0.2120  1.0712
  541MOL0     H73033   4.409   6.783   7.539  1.1702 -0.9169  1.1011
  541MOL0     H73034   3.859   6.591   7.557  1.7180 -0.7182  1.1631
  541MOL0     H73035   3.617   6.586   7.573  1.2668  0.5621 -2.1397
  542MOL0     O73036   5.013   0.145   5.348  0.0928  0.0910  0.2368
  542MOL0     C73037   5.028   0.094   5.233  0.3039 -0.5077 -0.3743
  542MOL0     O73038   4.928   0.062   5.145 -0.2346  0.2180  0.5524
  542MOL0     C73039   4.805   0.064   5.200  0.3340 -1.0113  0.3099
  542MOL0     C73040   4.763   0.010   5.320  0.8740  1.2110  0.2096
  542MOL0     C73041   4.630   0.018   5.367 -0.6219 -0.3923  0.3274
  542MOL0     C73042   4.535   0.066   5.284  0.3285 -0.0025  0.2487
  542MOL0     O73043   4.414   0.088   5.343  0.5311  0.7117 -0.2686
  542MOL0     C73044   4.338   0.209   5.326  0.4694  0.1538 -0.1149
  542MOL0     C73045   4.189   0.181   5.347  0.4286  0.5475  0.0239
  542MOL0     C73046   4.140   0.100   5.224  0.6369 -0.8089 -0.0221
  542MOL0     C73047   4.002   0.139   5.188  0.1465  0.3199 -0.0680
  542MOL0     C73048   3.940   0.058   5.078 -0.2259  0.1399 -0.8148
  542MOL0     C73049   3.786   0.082   5.085 -0.5999  0.9142  0.0892
  542MOL0     C73050   3.712  -0.002   4.981 -0.5536 -0.4045  0.7259
  542MOL0     C73051   3.556   0.022   4.983  0.3424 -0.1221  0.2492
  542MOL0     N73052   3.500  -0.057   4.865 -0.0901  0.6988 -0.3400
  542MOL0     C73053   3.419  -0.173   4.853 -0.5647 -0.1662 -0.0410
  542MOL0     C73054   3.354  -0.164   4.736 -0.6395 -0.7670  0.1585
  542MOL0     C73055   3.248  -0.263   4.697  0.1016 -0.4785 -0.7487
  542MOL0     C73056   3.150  -0.202   4.595  0.1796  0.7228 -0.1228
  542MOL0     C73057   3.082  -0.319   4.523  0.1567  0.3458  0.1554
  542MOL0     C73058   2.972  -0.287   4.433  0.3471  0.2597 -0.0443
  542MOL0     O73059   2.873  -0.197   4.483 -0.2295 -0.1064  0.1657
  542MOL0     C73060   2.770  -0.164   4.404 -0.2731 -0.4882  0.6308
  542MOL0     C73061   2.725  -0.226   4.286 -0.3175  0.6076 -0.1615
  542MOL0     C73062   2.613  -0.179   4.213 -0.2174  0.1070 -1.3569
  542MOL0     C73063   2.569  -0.258   4.092  0.7555 -0.4443 -0.4715
  542MOL0     C73064   2.536  -0.069   4.269  0.0617  0.4686 -0.6377
  542MOL0     C73065   2.396  -0.041   4.227  0.1405  0.1638  0.3781
  542MOL0     O73066   2.336   0.073   4.270 -0.0911 -0.2948  0.0561
  542MOL0     C73067   2.209   0.097   4.244 -0.3042 -0.6784 -0.5231
  542MOL0     C73068   2.174   0.229   4.255  0.7104  0.6003 -1.0338
  542MOL0     C73069   2.038   0.256   4.248 -0.1363  0.2901  0.4641
  542MOL0     C73070   1.938   0.164   4.209 -0.1300  0.3144 -0.9827
  542MOL0     O73071   1.803   0.195   4.194  0.6135  0.0673 -0.1587
  542MOL0     C73072   1.758   0.326   4.187  0.3914 -0.0624 -0.9452
  542MOL0     C73073   1.612   0.324   4.132  0.1550 -0.2002 -0.3282
  542MOL0     C73074   1.533   0.445   4.165 -0.6112 -0.0797  0.8201
  542MOL0     C73075   1.611   0.580   4.138  0.2704 -0.2364 -0.0950
  542MOL0     C73076   1.524   0.704   4.108 -0.6043 -0.5193  0.2927
  542MOL0     C73077   1.386   0.699   4.176  0.4894 -0.1199 -0.6758
  542MOL0     C73078   1.320   0.830   4.208  0.1742  0.6564  1.2923
  542MOL0     C73079   1.166   0.812   4.223 -0.3417 -0.2919  0.7659
  542MOL0    Cl73080   1.130   0.729   4.371 -0.2621  0.1924  0.1284
  542MOL0     C73081   1.979   0.033   4.200  0.0794  0.1630 -0.3001
  542MOL0     C73082   2.115  -0.001   4.222 -0.4694  0.1326  0.4381
  542MOL0     O73083   2.362  -0.112   4.133  1.1990 -0.1771  0.5117
  542MOL0     C73084   2.595   0.006   4.364  0.3475  0.8793  0.7045
  542MOL0     C73085   2.713  -0.036   4.430 -0.3189 -0.5357  0.1734
  542MOL0     N73086   3.401  -0.054   4.675 -0.4526 -0.1618 -0.0743
  542MOL0     N73087   3.484   0.005   4.747  0.2744 -0.0901  0.2381
  542MOL0     C73088   4.565   0.122   5.158  0.0174 -0.0094 -0.5839
  542MOL0     C73089   4.701   0.115   5.120  0.2588  0.4110 -0.3419
  542MOL0     C73090   5.164   0.044   5.199  0.1971 -0.6043 -0.6038
  542MOL0     C73091   5.205   0.005   5.067  0.9919 -0.2074 -0.7012
  542MOL0     C73092   5.322  -0.054   5.039 -0.0911 -0.4980  0.5006
  542MOL0     C73093   5.416  -0.078   5.138 -0.1069  0.3496  0.7607
  542MOL0     O73094   5.541  -0.130   5.127  0.1242 -0.4909 -0.1009
  542MOL0     C73095   5.580  -0.172   4.990 -0.1039 -0.4830 -0.0624
  542MOL0     C73096   5.693  -0.269   5.004 -0.5329  0.6301 -0.8857
  542MOL0     C73097   5.833  -0.214   5.015 -0.4656 -0.5475  0.7930
  542MOL0     C73098   5.938  -0.339   5.009  0.2065 -0.2768  0.5435
  542MOL0     C73099   6.079  -0.296   5.020  0.5122 -0.2014  0.2810
  542MOL0     C73100   6.198  -0.274   5.040  0.1240  0.0016  0.1443
  542MOL0     C73101   5.381  -0.046   5.270 -0.7318  0.4549 -0.8505
  542MOL0     C73102   5.262   0.019   5.299 -0.2741 -0.7265 -0.6357
  542MOL0     H73103   4.827  -0.039   5.392 -0.1511 -0.9330 -0.2387
  542MOL0     H73104   4.609  -0.005   5.471  0.2869 -0.1881  0.5617
  542MOL0     H73105   4.373   0.279   5.402  0.2067 -0.3359  0.4723
  542MOL0     H73106   4.344   0.251   5.226  0.8375  0.1157 -0.1119
  542MOL0     H73107   4.170   0.127   5.440 -0.0329  0.2347 -0.2432
  542MOL0     H73108   4.146   0.281   5.354  1.2361  1.0437 -1.5908
  542MOL0     H73109   4.202   0.117   5.135  0.1789  2.7949  0.2286
  542MOL0     H73110   4.137  -0.004   5.258 -4.9948 -0.3722  1.8417
  542MOL0     H73111   3.945   0.127   5.281  0.4696  2.4435  0.4415
  542MOL0     H73112   4.002   0.245   5.161  0.0218  1.1537  2.8865
  542MOL0     H73113   3.991   0.081   4.984  3.7058 -2.7849  0.3216
  542MOL0     H73114   3.951  -0.047   5.106  3.7423  0.8488  1.0333
  542MOL0     H73115   3.753   0.055   5.186 -2.1584 -2.2775 -1.1294
  542MOL0     H73116   3.764   0.189   5.079 -1.9802  0.5871 -1.6362
  542MOL0     H73117   3.744   0.022   4.879 -0.9905 -0.6212  0.5390
  542MOL0     H73118   3.742  -0.105   5.003  0.9114  0.1958  1.6962
  542MOL0     H73119   3.548   0.131   4.969  0.8827 -0.2839 -1.5508
  542MOL0     H73120   3.504   0.002   5.077  1.1665  2.1766  1.2729
  542MOL0     H73121   3.399  -0.241   4.935 -0.0807 -0.2353  0.0226
  542MOL0     H73122   3.309  -0.345   4.658  0.3334 -0.7283  0.1263
  542MOL0     H73123   3.203  -0.303   4.788 -0.6489  3.6756  0.9113
  542MOL0     H73124   3.194  -0.135   4.521  0.6644 -0.5055 -0.9966
  542MOL0     H73125   3.077  -0.145   4.652 -0.7006  0.4996 -1.0114
  542MOL0     H73126   3.054  -0.398   4.593  2.5736 -1.9124 -1.2341
  542MOL0     H73127   3.153  -0.365   4.454 -2.1057 -0.3641 -1.8298
  542MOL0     H73128   2.923  -0.372   4.386 -2.8899  1.2757  1.1800
  542MOL0     H73129   3.016  -0.223   4.356  0.2026  2.0448  1.2943
  542MOL0     H73130   2.773  -0.316   4.247 -1.6461 -0.5210  0.7437
  542MOL0     H73131   2.521  -0.195   4.016  0.1083 -0.8580 -0.4163
  542MOL0     H73132   2.654  -0.304   4.041  1.3306  0.7469 -0.6034
  542MOL0     H73133   2.501  -0.336   4.128 -0.8959  1.3115  0.4148
  542MOL0     H73134   2.245   0.311   4.262 -1.2027  2.1743  2.7612
  542MOL0     H73135   2.015   0.362   4.250 -3.3621 -0.3461  1.7800
  542MOL0     H73136   1.775   0.366   4.287  0.2815  0.4225 -1.1157
  542MOL0     H73137   1.817   0.383   4.115  0.1765 -1.3313 -2.1740
  542MOL0     H73138   1.606   0.307   4.024 -1.0126 -1.5816 -0.0705
  542MOL0     H73139   1.558   0.241   4.177  0.8161 -0.7457 -0.5179
  542MOL0     H73140   1.494   0.422   4.265 -1.8664 -0.0502  0.3573
  542MOL0     H73141   1.453   0.434   4.091  0.3215 -2.6027  0.0853
  542MOL0     H73142   1.679   0.579   4.224 -1.6787  0.0293  1.5288
  542MOL0     H73143   1.685   0.564   4.059 -0.0129  0.9651 -0.6201
  542MOL0     H73144   1.514   0.703   3.999  0.6008  1.5879  0.1067
  542MOL0     H73145   1.581   0.788   4.148  0.3831 -1.4272  0.8440
  542MOL0     H73146   1.324   0.651   4.100 -1.8418 -0.2094  1.1696
  542MOL0     H73147   1.393   0.652   4.275  0.5259  2.1679  0.4769
  542MOL0     H73148   1.329   0.895   4.120 -1.1067 -1.8223 -0.7835
  542MOL0     H73149   1.361   0.883   4.295 -0.3876  0.0300  1.9506
  542MOL0     H73150   1.122   0.770   4.133 -1.2946  3.3020 -0.5841
  542MOL0     H73151   1.119   0.910   4.226  0.8805  0.2986  2.0341
  542MOL0     H73152   1.904  -0.042   4.178 -0.1549 -0.0753  1.2110
  542MOL0     H73153   2.144  -0.105   4.210  1.6621  0.9097 -2.0347
  542MOL0     H73154   2.548   0.102   4.386  0.1973  1.3557 -1.4906
  542MOL0     H73155   2.755   0.030   4.505  2.4328 -3.0443  1.0603
  542MOL0     H73156   4.488   0.171   5.100  0.4874  2.2475  0.6006
  542MOL0     H73157   4.730   0.164   5.027 -0.2692  2.5254  0.5592
  542MOL0     H73158   5.134   0.012   4.985 -0.1558 -1.6797  0.1239
  542MOL0     H73159   5.346  -0.081   4.937  1.0369 -0.4066  0.7325
  542MOL0     H73160   5.498  -0.229   4.946  1.0960 -3.7319  1.5523
  542MOL0     H73161   5.603  -0.092   4.920 -2.0434  2.4642  2.4137
  542MOL0     H73162   5.690  -0.338   4.919 -1.8032 -3.3639  2.1154
  542MOL0     H73163   5.670  -0.337   5.087  1.8314  0.8794  0.0511
  542MOL0     H73164   5.846  -0.142   5.096  1.7044  1.6449 -1.3386
  542MOL0     H73165   5.868  -0.154   4.930 -1.4947  0.8535  1.3138
  542MOL0     H73166   5.922  -0.397   4.918 -0.1161 -0.6183  0.8122
  542MOL0     H73167   5.909  -0.422   5.074  0.0220 -2.0967 -1.7435
  542MOL0     H73168   6.300  -0.243   5.053 -0.5421  2.5296 -0.1694
  542MOL0     H73169   5.449  -0.070   5.352 -0.7342  1.7203 -0.4601
  542MOL0     H73170   5.241   0.055   5.399 -0.0243 -2.1198 -0.0598
  543MOL0     O73171  11.302   6.698   8.107  0.2779  0.3903 -0.3959
  543MOL0     C73172  11.366   6.598   8.131  0.5834  0.4217  0.2184
  543MOL0     O73173  11.304   6.477   8.156  0.0653 -0.0129 -0.4764
  543MOL0     C73174  11.165   6.458   8.177 -1.0477  1.1043 -0.3847
  543MOL0     C73175  11.067   6.525   8.107 -0.0995  0.3742  0.2727
  543MOL0     C73176  10.930   6.509   8.139 -0.4547  0.0546  0.4036
  543MOL0     C73177  10.899   6.422   8.244 -0.5248 -0.2192  0.0698
  543MOL0     O73178  10.766   6.394   8.256 -0.7578 -0.0469 -0.0991
  543MOL0     C73179  10.722   6.305   8.357  1.0742  0.6525 -0.3773
  543MOL0     C73180  10.576   6.339   8.390 -0.0915 -0.3317 -0.8752
  543MOL0     C73181  10.551   6.278   8.531 -0.3296 -0.5170  0.0072
  543MOL0     C73182  10.412   6.315   8.590 -0.1916  0.6852  0.3679
  543MOL0     C73183  10.296   6.236   8.520 -0.0194 -0.3094 -0.2084
  543MOL0     C73184  10.160   6.263   8.589  0.5397  0.6176  0.3392
  543MOL0     C73185  10.115   6.408   8.566  0.6781  0.2594 -0.1099
  543MOL0     C73186   9.968   6.435   8.608 -0.5781 -0.0211 -0.3866
  543MOL0     N73187   9.876   6.326   8.581 -0.3677 -0.4562  0.6761
  543MOL0     C73188   9.787   6.327   8.472 -0.2974  0.4004 -0.4834
  543MOL0     C73189   9.721   6.210   8.492  0.6321 -0.0513  0.1159
  543MOL0     C73190   9.633   6.137   8.401 -0.2860 -0.3568 -0.4562
  543MOL0     C73191   9.554   6.027   8.471  0.7693  1.3412 -0.0896
  543MOL0     C73192   9.441   5.967   8.364  0.0160  0.3751 -0.3578
  543MOL0     C73193   9.327   6.063   8.339  0.0025  1.6446 -0.1731
  543MOL0     O73194   9.228   6.039   8.441 -1.2698 -1.1983  0.3468
  543MOL0     C73195   9.120   6.113   8.425  1.1203  0.1164  0.6434
  543MOL0     C73196   9.106   6.233   8.345  0.3436  0.9879 -0.3606
  543MOL0     C73197   8.993   6.316   8.347 -0.2125  0.2790 -0.1341
  543MOL0     C73198   8.995   6.430   8.235  0.7262  0.6834 -0.0299
  543MOL0     C73199   8.882   6.279   8.430  0.4664  0.7966 -0.4143
  543MOL0     C73200   8.750   6.358   8.443 -0.6760 -0.3074  1.7248
  543MOL0     O73201   8.662   6.290   8.511 -0.0969  0.0369 -0.5354
  543MOL0     C73202   8.556   6.373   8.558 -0.2131  0.9898  0.6290
  543MOL0     C73203   8.431   6.330   8.519  0.0442  0.7268  0.2225
  543MOL0     C73204   8.316   6.390   8.564 -0.7551 -0.2023 -0.5651
  543MOL0     C73205   8.329   6.499   8.652 -0.0057  0.2863 -0.5880
  543MOL0     O73206   8.219   6.566   8.700  0.4361  0.9770  0.0718
  543MOL0     C73207   8.089   6.523   8.651 -0.7962  0.8766 -0.1076
  543MOL0     C73208   7.971   6.619   8.685 -0.1965  0.1004  0.3414
  543MOL0     C73209   7.977   6.644   8.833  0.2846 -0.0116  0.5903
  543MOL0     C73210   7.835   6.687   8.873  0.1532 -0.2216 -0.9398
  543MOL0     C73211   7.846   6.732   9.017 -0.4299  0.5401 -0.6393
  543MOL0     C73212   7.712   6.780   9.069  0.3183  0.1970  0.2772
  543MOL0     C73213   7.727   6.838   9.200  0.1771 -0.8462  0.1100
  543MOL0     C73214   7.590   6.885   9.244 -0.4247  0.1251 -0.0179
  543MOL0    Cl73215   7.564   6.922   9.420  0.2074 -0.1742 -0.5547
  543MOL0     C73216   8.454   6.541   8.694 -0.8146 -0.1595 -0.2182
  543MOL0     C73217   8.573   6.475   8.655 -0.2373 -0.8141 -0.4904
  543MOL0     O73218   8.748   6.481   8.424  1.0551 -0.0207 -0.2578
  543MOL0     C73219   8.890   6.157   8.511  0.5151 -0.4390  0.1021
  543MOL0     C73220   9.010   6.080   8.506 -0.4316 -0.2665 -0.1039
  543MOL0     N73221   9.760   6.154   8.618  0.4897 -0.2358  0.0778
  543MOL0     N73222   9.836   6.240   8.680 -0.2462  0.4137 -0.1468
  543MOL0     C73223  11.002   6.368   8.319 -0.2774 -0.2781 -0.5320
  543MOL0     C73224  11.140   6.383   8.292 -1.0618  0.0696  0.3757
  543MOL0     C73225  11.511   6.600   8.125  0.6381 -0.9676  0.4731
  543MOL0     C73226  11.572   6.721   8.163  0.1092  0.0117 -0.7286
  543MOL0     C73227  11.715   6.725   8.151 -0.0377  1.1433 -0.4307
  543MOL0     C73228  11.792   6.617   8.108  0.3191  0.8643 -0.5878
  543MOL0     O73229  11.928   6.630   8.110 -0.2315  0.2619 -1.1032
  543MOL0     C73230  11.979   6.538   8.213  0.2207  0.3787  0.0547
  543MOL0     C73231  12.128   6.559   8.232 -1.0602  0.0481 -0.9386
  543MOL0     C73232  12.217   6.526   8.112  0.1714 -0.3091 -0.3781
  543MOL0     C73233  12.371   6.510   8.141 -0.6074  0.7847 -0.0611
  543MOL0     C73234  12.391   6.375   8.203 -0.4112 -1.3105 -0.5893
  543MOL0     C73235  12.379   6.276   8.268 -0.1069  0.4137 -0.0816
  543MOL0     C73236  11.719   6.495   8.077 -0.0865  0.5483 -0.5053
  543MOL0     C73237  11.581   6.484   8.091 -0.1360 -0.2066  0.5333
  543MOL0     H73238  11.092   6.590   8.024 -1.2219 -1.0118 -1.2192
  543MOL0     H73239  10.844   6.545   8.085  1.0365 -0.3203 -2.4092
  543MOL0     H73240  10.729   6.200   8.326 -1.1230  0.7177 -1.2958
  543MOL0     H73241  10.773   6.324   8.452  0.0313 -0.6534  0.4906
  543MOL0     H73242  10.572   6.448   8.395 -0.8074 -0.3723 -0.2737
  543MOL0     H73243  10.503   6.314   8.312 -2.1080  0.8538  0.5279
  543MOL0     H73244  10.554   6.169   8.533 -2.9797 -0.6566  1.0614
  543MOL0     H73245  10.616   6.321   8.607 -1.7006 -0.0622  0.9724
  543MOL0     H73246  10.413   6.271   8.690 -0.9578 -2.8866 -1.0052
  543MOL0     H73247  10.401   6.424   8.593 -3.1141  0.5647 -1.3929
  543MOL0     H73248  10.286   6.264   8.414 -0.2615 -2.6090 -0.8486
  543MOL0     H73249  10.326   6.131   8.523  3.3920  0.5004  4.1926
  543MOL0     H73250  10.082   6.196   8.551 -0.5591  0.7792  2.2047
  543MOL0     H73251  10.165   6.250   8.697 -2.7136 -0.6569  0.4359
  543MOL0     H73252  10.184   6.472   8.621  2.6849 -0.0917 -2.0893
  543MOL0     H73253  10.110   6.418   8.457 -0.6147 -2.3360 -0.3657
  543MOL0     H73254   9.928   6.534   8.583  0.4301  1.3152  2.7610
  543MOL0     H73255   9.973   6.448   8.716 -0.5621 -1.7681 -0.1441
  543MOL0     H73256   9.782   6.381   8.378 -0.1649  0.1716 -0.6223
  543MOL0     H73257   9.558   6.203   8.358 -2.0816 -1.2476  1.1447
  543MOL0     H73258   9.687   6.086   8.321  0.4753  1.2806 -1.0119
  543MOL0     H73259   9.499   6.065   8.558  0.2560 -4.1246  2.3895
  543MOL0     H73260   9.626   5.954   8.510 -0.8857  1.1295  2.8544
  543MOL0     H73261   9.407   5.865   8.385  0.2223  0.0926 -1.3559
  543MOL0     H73262   9.494   5.957   8.269  0.4330  0.6321 -0.1557
  543MOL0     H73263   9.288   6.029   8.243 -2.3613 -0.9036  1.5230
  543MOL0     H73264   9.363   6.166   8.334 -1.1814  2.0600 -0.3367
  543MOL0     H73265   9.184   6.259   8.274  0.2345  1.7601 -0.2037
  543MOL0     H73266   9.068   6.505   8.266  0.8358  0.0735  1.2901
  543MOL0     H73267   9.013   6.384   8.137 -0.2838  0.5632 -0.1668
  543MOL0     H73268   8.894   6.471   8.230  0.7331  1.7216  4.3009
  543MOL0     H73269   8.415   6.252   8.444 -3.7814 -0.1003  1.6788
  543MOL0     H73270   8.223   6.344   8.532 -1.4374 -0.2152  1.3257
  543MOL0     H73271   8.094   6.519   8.541  0.2074 -0.9754 -0.0360
  543MOL0     H73272   8.074   6.422   8.690  0.9094 -1.2350 -4.2349
  543MOL0     H73273   7.981   6.719   8.642  0.7272 -0.8557 -1.8354
  543MOL0     H73274   7.877   6.576   8.651 -0.7479  2.0569 -0.7707
  543MOL0     H73275   8.053   6.716   8.862  2.1025 -0.9814 -1.5170
  543MOL0     H73276   8.009   6.555   8.888 -1.1718 -0.2672  1.0873
  543MOL0     H73277   7.807   6.770   8.808 -2.8706 -0.6439 -0.3347
  543MOL0     H73278   7.770   6.599   8.866  3.2220 -2.6071 -2.4045
  543MOL0     H73279   7.924   6.807   9.020  0.3022 -0.2494  1.5118
  543MOL0     H73280   7.886   6.647   9.073  2.5684 -0.3186 -3.7346
  543MOL0     H73281   7.666   6.841   8.990 -1.9496 -3.1859 -1.3008
  543MOL0     H73282   7.641   6.697   9.076  0.3775  0.2643  1.8421
  543MOL0     H73283   7.802   6.918   9.206 -0.3196 -0.2964 -0.7873
  543MOL0     H73284   7.764   6.769   9.277  2.4469  0.8404  0.6565
  543MOL0     H73285   7.517   6.809   9.216  0.1038 -0.3298 -0.1715
  543MOL0     H73286   7.560   6.972   9.184 -2.9867 -1.1595 -0.7425
  543MOL0     H73287   8.469   6.624   8.763  0.3957  1.1187 -1.9330
  543MOL0     H73288   8.671   6.503   8.691 -0.0417 -0.8935 -0.9664
  543MOL0     H73289   8.812   6.107   8.567  0.2718 -1.7930 -1.3822
  543MOL0     H73290   9.011   5.990   8.566  3.7827 -0.5366 -0.3328
  543MOL0     H73291  10.971   6.293   8.390 -0.2521  1.3505  1.2819
  543MOL0     H73292  11.219   6.346   8.357 -0.0901  2.4687  0.6451
  543MOL0     H73293  11.515   6.804   8.205  0.6537  0.6814 -1.2750
  543MOL0     H73294  11.770   6.816   8.172  0.2115  0.6053  1.4397
  543MOL0     H73295  11.920   6.559   8.302 -2.8944 -0.3141 -1.7048
  543MOL0     H73296  11.970   6.435   8.178  0.2551  0.5805 -0.5647
  543MOL0     H73297  12.160   6.505   8.321 -3.0645  1.2266  0.6009
  543MOL0     H73298  12.138   6.664   8.261 -0.4811 -0.4836  0.9048
  543MOL0     H73299  12.203   6.607   8.040 -1.1098  0.1198  0.3143
  543MOL0     H73300  12.173   6.434   8.073 -1.3671 -0.6140  1.8436
  543MOL0     H73301  12.420   6.592   8.195  0.2792  0.2014  0.0346
  543MOL0     H73302  12.429   6.512   8.049 -0.4823 -0.9997 -0.0423
  543MOL0     H73303  12.377   6.181   8.319  1.9123  0.6163  0.4698
  543MOL0     H73304  11.773   6.407   8.042  0.1118  0.1219  0.8374
  543MOL0     H73305  11.515   6.401   8.071  0.8874 -0.7490 -0.7203
  544MOL0     O73306   6.801   4.939   9.990  0.1979  0.2029 -0.6751
  544MOL0     C73307   6.868   4.871   9.916 -0.3212 -0.1409 -0.1291
  544MOL0     O73308   6.848   4.859   9.783  0.2372 -0.1685  0.0215
  544MOL0     C73309   6.752   4.922   9.707  0.3225 -0.1990  0.2342
  544MOL0     C73310   6.744   4.887   9.570  0.5865 -0.4056 -0.9943
  544MOL0     C73311   6.652   4.928   9.483 -0.3019  0.4528  0.3707
  544MOL0     C73312   6.553   5.019   9.531 -0.9160  0.3146 -0.1762
  544MOL0     O73313   6.453   5.056   9.444 -0.5856 -0.1356 -0.0024
  544MOL0     C73314   6.319   5.090   9.487 -0.3270  1.0729  0.2979
  544MOL0     C73315   6.227   5.124   9.371 -0.1835 -0.4674  0.6829
  544MOL0     C73316   6.078   5.112   9.412  0.7022  0.1260 -0.5347
  544MOL0     C73317   5.969   5.144   9.304 -0.3938 -0.1857  0.6055
  544MOL0     C73318   5.838   5.150   9.365 -0.2077 -0.3949  0.2263
  544MOL0     C73319   5.729   5.172   9.269  0.3772 -0.4651  0.4620
  544MOL0     C73320   5.577   5.202   9.328 -0.4552 -0.0398  0.3255
  544MOL0     C73321   5.473   5.206   9.219 -0.0624  1.2048 -0.7185
  544MOL0     N73322   5.333   5.230   9.267 -0.0191  0.6620  0.0562
  544MOL0     C73323   5.292   5.327   9.351 -0.1436 -0.5694  0.8907
  544MOL0     C73324   5.161   5.306   9.374  0.2752  0.0598 -0.4003
  544MOL0     C73325   5.061   5.402   9.446 -0.4454  0.0378  0.7993
  544MOL0     C73326   4.963   5.465   9.351  0.1549  0.0758  0.7753
  544MOL0     C73327   4.859   5.562   9.425 -0.1277 -0.1950 -0.5952
  544MOL0     C73328   4.740   5.580   9.340  0.3562  0.0884  0.1329
  544MOL0     O73329   4.633   5.639   9.422  0.2217 -0.6784  0.2739
  544MOL0     C73330   4.509   5.632   9.366  0.2730 -0.4030 -0.2249
  544MOL0     C73331   4.442   5.509   9.348 -0.3004  0.1956 -0.1613
  544MOL0     C73332   4.322   5.501   9.278  0.4875 -0.8168 -0.2341
  544MOL0     C73333   4.272   5.354   9.258  0.0676 -0.0317  0.1418
  544MOL0     C73334   4.264   5.617   9.224  0.3226 -0.6784  0.2702
  544MOL0     C73335   4.137   5.620   9.141  0.4519  0.6190  0.0727
  544MOL0     O73336   4.085   5.745   9.110 -1.4019 -0.0897 -0.9097
  544MOL0     C73337   3.976   5.756   9.038  0.2699  0.0237  0.6215
  544MOL0     C73338   3.976   5.822   8.913  0.8750  0.5040  0.0997
  544MOL0     C73339   3.852   5.848   8.848 -0.3506  0.0015  0.4679
  544MOL0     C73340   3.728   5.807   8.903 -0.1684 -1.1819 -0.4391
  544MOL0     O73341   3.606   5.837   8.858  0.3289 -0.5153 -0.7326
  544MOL0     C73342   3.596   5.903   8.734  0.5106  0.2566  0.4221
  544MOL0     C73343   3.447   5.914   8.687  0.7431  1.3966  0.1283
  544MOL0     C73344   3.358   5.987   8.785 -0.8976 -0.5669 -0.4465
  544MOL0     C73345   3.219   5.998   8.720 -1.1427  0.5894 -0.5716
  544MOL0     C73346   3.112   6.052   8.806  0.7246  1.3017  0.1043
  544MOL0     C73347   2.981   6.036   8.732 -0.0557 -0.4204  0.1898
  544MOL0     C73348   2.859   6.054   8.827  0.4803 -0.8158 -0.0284
  544MOL0     C73349   2.770   5.935   8.797  0.8489 -0.3364  0.0149
  544MOL0    Cl73350   2.636   5.936   8.914  0.3000  0.0889  0.2219
  544MOL0     C73351   3.732   5.737   9.027  0.1881 -1.0358  0.1644
  544MOL0     C73352   3.857   5.708   9.089  0.8573 -0.8457 -0.3545
  544MOL0     O73353   4.094   5.511   9.096 -0.2894  0.0217  0.8430
  544MOL0     C73354   4.325   5.741   9.258  0.4407 -0.0400 -0.0562
  544MOL0     C73355   4.444   5.749   9.327 -0.3448 -0.0111  0.2288
  544MOL0     N73356   5.123   5.197   9.311  0.1451  0.4532 -1.0921
  544MOL0     N73357   5.226   5.150   9.246 -0.3593  0.2333  0.3359
  544MOL0     C73358   6.551   5.065   9.665  0.0340 -0.4363 -0.0564
  544MOL0     C73359   6.650   5.020   9.755 -0.7679 -0.4519 -0.5257
  544MOL0     C73360   6.979   4.793   9.974  0.5757 -0.0017 -0.6466
  544MOL0     C73361   7.066   4.714   9.890 -0.2671  0.2745  0.4073
  544MOL0     C73362   7.183   4.650   9.934 -0.2154 -0.1251  0.0793
  544MOL0     C73363   7.217   4.664  10.064 -0.8227  0.0068 -0.6074
  544MOL0     O73364   7.328   4.609  10.119 -0.2492  0.3751  0.4014
  544MOL0     C73365   7.407   4.522  10.031  0.6167  0.2748  0.1808
  544MOL0     C73366   7.533   4.458  10.097 -0.3524 -0.4442 -0.1968
  544MOL0     C73367   7.612   4.563  10.172 -0.4979 -1.3459  0.5326
  544MOL0     C73368   7.654   4.692  10.084  0.3796 -0.2831 -0.2328
  544MOL0     C73369   7.714   4.799  10.161 -0.1507 -0.2840  0.4010
  544MOL0     C73370   7.757   4.895  10.213  0.6271  0.5661 -0.8343
  544MOL0     C73371   7.132   4.728  10.154 -0.0548  0.4329 -0.4779
  544MOL0     C73372   7.016   4.802  10.107 -0.0104  0.1039 -0.3242
  544MOL0     H73373   6.816   4.813   9.536  0.0227 -1.0038 -0.8894
  544MOL0     H73374   6.663   4.882   9.385  0.7467  0.2146  0.5808
  544MOL0     H73375   6.284   5.002   9.542  1.1403  1.2364  1.5372
  544MOL0     H73376   6.323   5.167   9.564  1.9572  3.1318 -1.7131
  544MOL0     H73377   6.252   5.225   9.338  0.5233 -0.2848  1.7137
  544MOL0     H73378   6.240   5.050   9.291  0.1334 -1.5878  1.7330
  544MOL0     H73379   6.070   5.009   9.450 -1.3549  0.5875  0.4027
  544MOL0     H73380   6.063   5.186   9.491 -1.5813 -1.6878  0.8664
  544MOL0     H73381   5.990   5.244   9.265  1.0860  0.3226  2.5498
  544MOL0     H73382   5.969   5.070   9.224  1.6542 -1.0831  1.3641
  544MOL0     H73383   5.824   5.054   9.416 -1.4423 -0.8399 -0.8787
  544MOL0     H73384   5.836   5.228   9.441 -3.6135  0.2120 -0.3136
  544MOL0     H73385   5.757   5.259   9.209  1.4612 -0.8657  0.3674
  544MOL0     H73386   5.726   5.078   9.214  1.9814 -0.6637  0.6749
  544MOL0     H73387   5.556   5.127   9.404  1.9186 -1.5292 -0.3901
  544MOL0     H73388   5.582   5.299   9.379 -2.4147  0.3391 -0.1279
  544MOL0     H73389   5.473   5.106   9.174 -0.5946  1.3526 -1.0595
  544MOL0     H73390   5.492   5.283   9.144 -0.8907  2.4961  0.3500
  544MOL0     H73391   5.356   5.412   9.372  1.5099 -1.3589 -0.6903
  544MOL0     H73392   5.012   5.333   9.515  2.3536 -2.0331  0.9024
  544MOL0     H73393   5.115   5.487   9.489 -0.8331  0.5599  0.2629
  544MOL0     H73394   4.915   5.381   9.299  0.6616  0.8116 -0.9382
  544MOL0     H73395   5.020   5.522   9.278  1.3997 -1.2113  0.6897
  544MOL0     H73396   4.894   5.662   9.452 -1.3198 -0.6266  3.0486
  544MOL0     H73397   4.833   5.527   9.525 -3.9697  2.7535 -0.3354
  544MOL0     H73398   4.691   5.487   9.308 -0.0648  0.1076  0.6928
  544MOL0     H73399   4.768   5.645   9.257 -1.2421  1.5020  0.6521
  544MOL0     H73400   4.480   5.413   9.381 -0.3069  1.2080  3.1963
  544MOL0     H73401   4.291   5.333   9.153 -0.8021  2.3606 -0.5551
  544MOL0     H73402   4.337   5.287   9.315 -1.4467 -2.2002 -0.5877
  544MOL0     H73403   4.169   5.330   9.285  0.6200 -3.5155 -0.4320
  544MOL0     H73404   4.073   5.859   8.880  2.0565  0.2110  2.9831
  544MOL0     H73405   3.849   5.903   8.755 -0.3546 -1.7210 -0.6024
  544MOL0     H73406   3.631   6.006   8.747 -0.4558  0.4921  1.3525
  544MOL0     H73407   3.653   5.851   8.657 -0.1197 -0.4124  0.3975
  544MOL0     H73408   3.448   5.957   8.586 -0.3942  0.5524 -0.2604
  544MOL0     H73409   3.414   5.810   8.682  0.6261  1.4922 -1.5194
  544MOL0     H73410   3.397   6.087   8.808 -7.0674  2.5785 -1.5969
  544MOL0     H73411   3.357   5.927   8.876  1.3094 -0.2052 -0.1122
  544MOL0     H73412   3.233   6.065   8.635  1.1489  0.7709 -0.1176
  544MOL0     H73413   3.190   5.899   8.683  1.5008 -0.1776 -0.8141
  544MOL0     H73414   3.131   6.149   8.853  0.7578  2.0027 -1.2977
  544MOL0     H73415   3.104   5.980   8.888 -0.5569 -0.0977 -1.1943
  544MOL0     H73416   2.978   6.111   8.652 -0.0223  2.1800  2.4913
  544MOL0     H73417   2.981   5.943   8.674 -1.2324 -1.1583  1.3229
  544MOL0     H73418   2.810   6.151   8.814 -1.9138 -1.9417 -0.0180
  544MOL0     H73419   2.894   6.050   8.930 -1.6912 -1.2739  0.7459
  544MOL0     H73420   2.821   5.838   8.795 -0.6825 -1.2327  1.2737
  544MOL0     H73421   2.725   5.953   8.699 -2.2930 -2.0172  1.0126
  544MOL0     H73422   3.641   5.717   9.082 -0.1215  1.2013  0.5487
  544MOL0     H73423   3.851   5.669   9.191  0.0003  2.2177  0.9008
  544MOL0     H73424   4.272   5.833   9.234 -2.9574 -1.3229  1.8813
  544MOL0     H73425   4.486   5.848   9.343 -0.8683  0.0283  1.4086
  544MOL0     H73426   6.478   5.134   9.706  2.7576  1.8489  1.2605
  544MOL0     H73427   6.649   5.059   9.856  2.3262 -2.5678  0.4745
  544MOL0     H73428   7.041   4.723   9.784  0.2836  0.8427  0.3191
  544MOL0     H73429   7.235   4.585   9.864 -1.0582  0.2164 -0.8870
  544MOL0     H73430   7.343   4.440   9.996 -0.5709  0.5121  1.6980
  544MOL0     H73431   7.438   4.588   9.949  1.0894  1.0987  1.0110
  544MOL0     H73432   7.594   4.411  10.020 -0.6571  0.2400 -0.8645
  544MOL0     H73433   7.493   4.377  10.159 -2.9995 -1.7000 -3.2473
  544MOL0     H73434   7.704   4.528  10.219  1.0000  1.6183  0.0418
  544MOL0     H73435   7.544   4.596  10.251 -1.0326 -2.3550  0.5107
  544MOL0     H73436   7.575   4.736  10.022  0.2985 -0.6827 -0.4190
  544MOL0     H73437   7.728   4.654  10.012  1.4131 -1.1514  1.2374
  544MOL0     H73438   7.790   4.981  10.267 -1.1404  0.4871  0.4194
  544MOL0     H73439   7.165   4.715  10.256  0.8678 -1.1021 -0.9329
  544MOL0     H73440   6.952   4.851  10.180  1.7134 -1.6458  2.5323
  545MOL0     O73441   4.545   5.267   8.384  0.4944 -0.4687 -0.3212
  545MOL0     C73442   4.587   5.284   8.494 -0.3900  0.6984 -0.3158
  545MOL0     O73443   4.515   5.300   8.612  0.4803  0.1191  0.2553
  545MOL0     C73444   4.380   5.312   8.623  0.1947  0.1010 -0.2929
  545MOL0     C73445   4.333   5.301   8.760 -0.7188 -0.4183  0.8628
  545MOL0     C73446   4.198   5.307   8.789  0.4652  0.2741 -0.2402
  545MOL0     C73447   4.100   5.316   8.687 -0.4105  0.3022  0.5844
  545MOL0     O73448   3.963   5.330   8.695 -0.3913 -0.3626  0.1603
  545MOL0     C73449   3.902   5.288   8.816  0.2523  0.2530 -0.4584
  545MOL0     C73450   3.758   5.292   8.796  0.2450 -0.6613 -0.4907
  545MOL0     C73451   3.686   5.407   8.864  0.1094 -0.1903 -0.1465
  545MOL0     C73452   3.533   5.419   8.821 -0.4115  0.3637 -0.5774
  545MOL0     C73453   3.467   5.496   8.937  0.1171 -0.1028  0.9165
  545MOL0     C73454   3.319   5.521   8.906  0.8992  0.1681  0.9903
  545MOL0     C73455   3.256   5.608   9.017  0.7275  0.2074 -0.4950
  545MOL0     C73456   3.139   5.673   8.956 -0.4092  0.0680 -0.7023
  545MOL0     N73457   3.072   5.756   9.059 -0.3504 -0.3995 -0.6739
  545MOL0     C73458   3.120   5.864   9.126 -0.0156 -0.3423  1.0338
  545MOL0     C73459   3.023   5.903   9.216 -0.7054  0.1467 -1.0830
  545MOL0     C73460   3.032   6.034   9.288 -0.5072  0.6085 -0.4454
  545MOL0     C73461   2.954   6.145   9.224 -0.0812  0.4652  1.1099
  545MOL0     C73462   2.803   6.124   9.197  0.0832 -0.6030  0.8494
  545MOL0     C73463   2.730   6.072   9.319 -0.0899  0.5151  0.0560
  545MOL0     O73464   2.723   6.164   9.426  0.3396  0.3731  0.7280
  545MOL0     C73465   2.607   6.238   9.430 -0.3181 -0.5793 -0.2824
  545MOL0     C73466   2.588   6.345   9.346 -1.3287  0.1400 -0.5241
  545MOL0     C73467   2.475   6.423   9.335  0.6793  0.3116  0.6041
  545MOL0     C73468   2.484   6.529   9.231 -0.4888  0.1295  1.5850
  545MOL0     C73469   2.362   6.393   9.419  0.0733  0.3348 -0.4629
  545MOL0     C73470   2.243   6.473   9.401 -0.7594  0.9262 -0.9933
  545MOL0     O73471   2.236   6.597   9.465 -0.3424  0.7710  0.4706
  545MOL0     C73472   2.121   6.664   9.450 -0.1835 -0.2835  0.5107
  545MOL0     C73473   2.045   6.696   9.561  0.1512  0.8295  0.2836
  545MOL0     C73474   1.925   6.762   9.550  0.3015  0.0480  0.1059
  545MOL0     C73475   1.879   6.801   9.424 -0.1701 -0.3411 -0.4476
  545MOL0     O73476   1.749   6.866   9.425  0.4349  0.4754 -0.1290
  545MOL0     C73477   1.682   6.859   9.295  0.2199  0.2861 -0.1856
  545MOL0     C73478   1.529   6.875   9.317  0.1520 -0.1110 -0.2803
  545MOL0     C73479   1.491   7.026   9.351  0.3101  0.2778 -0.4080
  545MOL0     C73480   1.331   7.053   9.355  0.1594 -0.8217  0.5528
  545MOL0     C73481   1.294   7.202   9.403  0.7204  0.6976 -0.4649
  545MOL0     C73482   1.142   7.210   9.433 -0.0899  0.4626 -0.4334
  545MOL0     C73483   1.073   7.169   9.301  1.3594  0.3239 -0.5883
  545MOL0     C73484   0.940   7.242   9.272 -0.2683  0.6259  0.0499
  545MOL0    Cl73485   0.796   7.184   9.361  0.3236 -0.0056 -0.1481
  545MOL0     C73486   1.959   6.794   9.314 -0.1890  0.2846  0.0330
  545MOL0     C73487   2.082   6.723   9.322 -0.6906 -0.8616 -0.1434
  545MOL0     O73488   2.151   6.427   9.334  0.2273  0.0784  0.0902
  545MOL0     C73489   2.385   6.299   9.524 -0.0487 -0.9555  0.5564
  545MOL0     C73490   2.506   6.221   9.521  0.2263 -0.1448 -0.9887
  545MOL0     N73491   2.914   5.822   9.194  0.0666 -0.3501  0.7795
  545MOL0     N73492   2.945   5.733   9.095 -0.3953 -0.2153  0.7411
  545MOL0     C73493   4.155   5.324   8.559 -0.0375  0.9550  0.6785
  545MOL0     C73494   4.288   5.319   8.520  1.1414 -0.8040 -0.2687
  545MOL0     C73495   4.734   5.269   8.504  0.2371 -0.1491 -0.2302
  545MOL0     C73496   4.806   5.224   8.393 -0.2914  0.4925 -0.0846
  545MOL0     C73497   4.941   5.196   8.401 -0.0222  0.3535 -0.2891
  545MOL0     C73498   5.008   5.214   8.525  0.0810  0.5235  0.6735
  545MOL0     O73499   5.139   5.184   8.546  0.0742  0.4620 -0.3444
  545MOL0     C73500   5.211   5.095   8.459 -0.5187 -0.4332  0.8363
  545MOL0     C73501   5.350   5.060   8.514 -0.1237  0.1774 -0.5779
  545MOL0     C73502   5.413   4.966   8.419  0.0356 -0.1951  0.1030
  545MOL0     C73503   5.542   4.903   8.472 -0.3877 -0.2091 -0.0908
  545MOL0     C73504   5.657   4.993   8.488 -0.4012  0.5988 -0.1505
  545MOL0     C73505   5.755   5.072   8.512  0.0360 -0.3641  1.0162
  545MOL0     C73506   4.940   5.271   8.636  0.0755  0.5301  0.1954
  545MOL0     C73507   4.801   5.287   8.625 -0.4934  0.1935 -0.8151
  545MOL0     H73508   4.402   5.286   8.842  0.0685  1.6407  0.6405
  545MOL0     H73509   4.164   5.304   8.892 -2.3852 -1.9404 -1.1013
  545MOL0     H73510   3.921   5.182   8.837 -1.3688  0.2412  1.2238
  545MOL0     H73511   3.932   5.340   8.908  0.6447 -2.1376  0.8571
  545MOL0     H73512   3.726   5.285   8.692 -0.8699  0.6099 -0.2637
  545MOL0     H73513   3.718   5.207   8.852 -1.3513  1.0866  1.1522
  545MOL0     H73514   3.695   5.396   8.972  0.6164  0.7351 -0.0806
  545MOL0     H73515   3.733   5.502   8.838  0.6437 -0.5677 -0.6052
  545MOL0     H73516   3.524   5.475   8.728 -0.1654  0.8508 -0.3077
  545MOL0     H73517   3.489   5.319   8.826 -0.6618  0.5069  0.1239
  545MOL0     H73518   3.477   5.440   9.030  0.4614 -0.8217  0.4521
  545MOL0     H73519   3.515   5.595   8.940 -2.1034  1.0243  1.0565
  545MOL0     H73520   3.321   5.571   8.809  2.0909  0.2375  1.0436
  545MOL0     H73521   3.260   5.429   8.896  0.8367  0.3042  0.0166
  545MOL0     H73522   3.230   5.548   9.105  0.2312  1.0925 -0.0154
  545MOL0     H73523   3.330   5.680   9.056  2.6601 -0.8281 -2.0699
  545MOL0     H73524   3.072   5.602   8.906  1.2539 -0.0902 -2.8686
  545MOL0     H73525   3.175   5.747   8.883 -0.5627  0.7260 -0.1155
  545MOL0     H73526   3.206   5.931   9.118 -0.2510 -0.2822 -2.4032
  545MOL0     H73527   2.991   6.009   9.386 -1.1321 -1.2919 -1.1345
  545MOL0     H73528   3.135   6.072   9.294 -1.1433  2.2880  0.6898
  545MOL0     H73529   3.003   6.165   9.128  0.7575  0.0892  1.4485
  545MOL0     H73530   2.970   6.232   9.288 -1.6950  0.9125  0.9457
  545MOL0     H73531   2.793   6.039   9.128  0.7280  0.0681 -0.0986
  545MOL0     H73532   2.748   6.212   9.163  0.1205 -1.0026 -0.2745
  545MOL0     H73533   2.786   5.982   9.345 -2.9057 -2.0960 -2.1436
  545MOL0     H73534   2.635   6.041   9.275  0.5656  2.7975 -3.4166
  545MOL0     H73535   2.675   6.364   9.284 -1.1327 -3.6171 -1.6828
  545MOL0     H73536   2.453   6.483   9.137  2.2441  0.2719  0.5071
  545MOL0     H73537   2.412   6.610   9.248 -2.0089 -0.0607 -2.5978
  545MOL0     H73538   2.582   6.574   9.214 -0.2533 -1.2314 -1.1682
  545MOL0     H73539   2.084   6.661   9.656  1.9477 -3.7739 -1.8750
  545MOL0     H73540   1.867   6.766   9.641  0.6169  0.9340  0.2778
  545MOL0     H73541   1.722   6.945   9.241 -1.1601  1.2322  0.2538
  545MOL0     H73542   1.709   6.767   9.242  2.0067  0.1603  0.8477
  545MOL0     H73543   1.489   6.846   9.219 -1.3294 -0.8190  0.5104
  545MOL0     H73544   1.495   6.809   9.397  2.7084 -0.2785  0.7634
  545MOL0     H73545   1.534   7.096   9.278  1.8423  0.4009  0.5805
  545MOL0     H73546   1.526   7.060   9.449 -1.2315  2.1543 -0.4322
  545MOL0     H73547   1.290   7.026   9.257 -0.2330 -1.9292  1.0066
  545MOL0     H73548   1.277   6.986   9.422 -0.3915 -0.6444  0.2942
  545MOL0     H73549   1.313   7.271   9.320 -0.2371 -2.0699 -3.1668
  545MOL0     H73550   1.354   7.218   9.494 -1.5714 -1.1520  1.5235
  545MOL0     H73551   1.120   7.145   9.519  0.9653 -1.6835 -1.6910
  545MOL0     H73552   1.119   7.312   9.465 -1.4411 -0.9188  3.7937
  545MOL0     H73553   1.040   7.065   9.295 -2.5516  1.4522 -2.0340
  545MOL0     H73554   1.140   7.190   9.218  1.0409  0.3557 -0.8379
  545MOL0     H73555   0.908   7.224   9.169  0.6398 -1.6032  0.1112
  545MOL0     H73556   0.955   7.347   9.298  1.3646  0.0849  1.5012
  545MOL0     H73557   1.925   6.852   9.229  2.3075  3.4175  0.9641
  545MOL0     H73558   2.148   6.719   9.236 -2.3135  1.8423 -1.6831
  545MOL0     H73559   2.314   6.280   9.604 -0.9509 -1.0879 -0.2609
  545MOL0     H73560   2.511   6.154   9.607  2.3341  0.7835 -0.3234
  545MOL0     H73561   4.080   5.330   8.481 -1.2407  2.8127  1.9070
  545MOL0     H73562   4.320   5.316   8.416 -1.5035 -0.6291 -1.1770
  545MOL0     H73563   4.759   5.195   8.300  0.8358  0.0008 -0.5134
  545MOL0     H73564   4.993   5.150   8.317 -0.4616  1.2481 -1.0632
  545MOL0     H73565   5.163   4.997   8.446 -1.6216  0.2347 -0.3831
  545MOL0     H73566   5.225   5.145   8.363  0.2561 -0.3380  0.9978
  545MOL0     H73567   5.333   5.010   8.610 -1.4907  0.3212 -0.7191
  545MOL0     H73568   5.415   5.145   8.537  0.6459 -0.5958  0.1738
  545MOL0     H73569   5.420   5.020   8.324 -1.3113 -1.0825 -0.5400
  545MOL0     H73570   5.355   4.874   8.405  1.9197 -1.5472  0.7383
  545MOL0     H73571   5.578   4.829   8.401 -0.4363  0.7845 -1.1860
  545MOL0     H73572   5.522   4.853   8.567  3.1770  2.1544  2.1476
  545MOL0     H73573   5.821   5.154   8.534  1.1539  0.2456 -3.5692
  545MOL0     H73574   4.988   5.287   8.732 -2.5216 -0.1777  1.6861
  545MOL0     H73575   4.747   5.316   8.715 -0.2343 -0.0455 -0.5791
  546MOL0     O73576   1.773   8.387   5.531  0.3965  0.1791  0.4894
  546MOL0     C73577   1.775   8.495   5.478 -0.3402 -0.0596  0.0152
  546MOL0     O73578   1.674   8.562   5.429  0.5891  0.4172 -0.4378
  546MOL0     C73579   1.544   8.513   5.419 -0.7833  0.0981  0.5531
  546MOL0     C73580   1.495   8.386   5.427  0.4593 -1.1793  0.5992
  546MOL0     C73581   1.357   8.357   5.391 -0.0287  0.2456 -0.1899
  546MOL0     C73582   1.266   8.450   5.351 -0.1674  0.3840  0.9990
  546MOL0     O73583   1.143   8.414   5.288 -0.4039  0.1899 -0.0813
  546MOL0     C73584   1.068   8.501   5.209  0.5513  0.0381 -0.1713
  546MOL0     C73585   0.925   8.437   5.182 -0.8478 -0.5226  0.6777
  546MOL0     C73586   0.822   8.553   5.147 -0.5845  0.1476  0.2359
  546MOL0     C73587   0.698   8.486   5.090 -0.8535 -0.6416  0.3551
  546MOL0     C73588   0.595   8.590   5.042  0.4649 -0.7552  0.5505
  546MOL0     C73589   0.457   8.535   4.988  0.2874 -0.1278 -0.8417
  546MOL0     C73590   0.348   8.510   5.096  0.1489 -0.3725 -0.4481
  546MOL0     C73591   0.216   8.487   5.027  0.3666  0.7079 -0.3213
  546MOL0     N73592   0.169   8.614   4.977  0.1375 -0.1098 -0.1240
  546MOL0     C73593   0.115   8.621   4.846  0.5453 -0.1235  0.7046
  546MOL0     C73594   0.058   8.741   4.839  0.0711 -0.5026  0.0390
  546MOL0     C73595   0.003   8.813   4.707 -0.1027  1.2703 -0.7344
  546MOL0     C73596  -0.146   8.793   4.684  0.5715  0.5989 -0.0467
  546MOL0     C73597  -0.183   8.847   4.543 -0.4960  0.4863 -1.2192
  546MOL0     C73598  -0.326   8.866   4.545  0.6658  0.3421  0.6864
  546MOL0     O73599  -0.351   9.007   4.570 -0.1495 -0.3754 -0.0609
  546MOL0     C73600  -0.481   9.046   4.582  0.3266  0.4684 -0.0427
  546MOL0     C73601  -0.584   8.959   4.576  0.3608  0.8065  0.1511
  546MOL0     C73602  -0.716   8.992   4.607  0.7321  0.1952  0.2756
  546MOL0     C73603  -0.824   8.886   4.611  0.2370 -0.2820 -0.0024
  546MOL0     C73604  -0.741   9.122   4.643 -0.2226 -0.7060 -0.1510
  546MOL0     C73605  -0.878   9.176   4.683  0.1111  0.6118 -0.2948
  546MOL0     O73606  -0.900   9.306   4.671  0.4911 -0.0439  0.2685
  546MOL0     C73607  -1.023   9.353   4.694 -0.3701  0.5133 -0.4145
  546MOL0     C73608  -1.138   9.297   4.629 -0.1250  0.1665 -0.2145
  546MOL0     C73609  -1.259   9.341   4.653  0.0149  0.1340 -0.0571
  546MOL0     C73610  -1.272   9.466   4.716 -0.0544 -0.1384 -0.1410
  546MOL0     O73611  -1.396   9.530   4.721 -0.4811 -0.0503  0.1214
  546MOL0     C73612  -1.404   9.673   4.706 -0.1495  0.6060 -0.5428
  546MOL0     C73613  -1.538   9.707   4.642 -0.1220  0.1077 -0.6008
  546MOL0     C73614  -1.534   9.852   4.592 -0.5960  0.5197 -0.3750
  546MOL0     C73615  -1.683   9.894   4.572  0.4790  0.3833 -0.2008
  546MOL0     C73616  -1.704  10.036   4.509  0.9249  0.0253  0.3894
  546MOL0     C73617  -1.723  10.030   4.356 -0.1508 -0.0185  0.2593
  546MOL0     C73618  -1.780  10.169   4.308  1.7771 -0.2142  0.1433
  546MOL0     C73619  -1.795  10.168   4.162  0.5156 -0.0617 -0.1707
  546MOL0    Cl73620  -1.865  10.331   4.125 -0.0144  0.6032  0.2292
  546MOL0     C73621  -1.160   9.528   4.781 -0.0893 -0.1191 -0.4491
  546MOL0     C73622  -1.032   9.469   4.780  0.2552  0.6731  0.2120
  546MOL0     O73623  -0.959   9.097   4.732 -0.1428  0.8828  0.3526
  546MOL0     C73624  -0.636   9.217   4.659  0.2661  0.3604 -0.2473
  546MOL0     C73625  -0.513   9.181   4.612 -0.3269  1.0156 -0.2682
  546MOL0     N73626   0.069   8.806   4.959 -0.6130 -0.1722 -0.7422
  546MOL0     N73627   0.140   8.733   5.045  0.3098  0.2345 -0.0472
  546MOL0     C73628   1.327   8.583   5.334  0.4018  0.5750  0.2605
  546MOL0     C73629   1.461   8.610   5.358 -0.0402  0.1316 -0.3436
  546MOL0     C73630   1.913   8.543   5.453 -0.0839 -0.1075 -0.1229
  546MOL0     C73631   1.934   8.658   5.376  0.2546 -0.2464 -0.5785
  546MOL0     C73632   2.064   8.712   5.356 -0.3881  0.2471 -0.3228
  546MOL0     C73633   2.180   8.647   5.402  0.2927  0.6074  0.0172
  546MOL0     O73634   2.299   8.712   5.386  0.1807  0.4262 -0.2670
  546MOL0     C73635   2.409   8.629   5.397 -1.1500 -0.2659  0.2492
  546MOL0     C73636   2.491   8.649   5.526 -0.6401  0.3876 -0.4274
  546MOL0     C73637   2.512   8.796   5.570  0.2975  0.7056 -0.0020
  546MOL0     C73638   2.571   8.887   5.463 -0.1085  0.4682  0.0262
  546MOL0     C73639   2.706   8.828   5.424 -0.0390  0.3131  0.5293
  546MOL0     C73640   2.817   8.788   5.405 -0.3083 -0.7721 -0.1130
  546MOL0     C73641   2.158   8.537   5.490 -0.9244 -0.3249  0.0463
  546MOL0     C73642   2.030   8.485   5.505 -1.0802 -0.6009 -0.1538
  546MOL0     H73643   1.550   8.296   5.456 -1.1581 -1.7934  1.9713
  546MOL0     H73644   1.319   8.255   5.394 -5.8751  2.0751  0.0871
  546MOL0     H73645   1.068   8.599   5.257 -1.3973 -0.2506  0.4836
  546MOL0     H73646   1.114   8.513   5.111  0.8402 -3.6325 -0.6310
  546MOL0     H73647   0.930   8.356   5.108  2.1738 -0.6391  0.9208
  546MOL0     H73648   0.897   8.388   5.275  0.0809  1.9406  2.3438
  546MOL0     H73649   0.813   8.605   5.244  1.7379 -0.2042  0.6914
  546MOL0     H73650   0.851   8.619   5.065  0.0321 -0.5081 -0.0798
  546MOL0     H73651   0.722   8.419   5.007 -2.2249 -3.0901  1.8106
  546MOL0     H73652   0.655   8.418   5.165  2.1237 -0.7546  2.1163
  546MOL0     H73653   0.564   8.660   5.120  0.7041  0.0926 -0.1047
  546MOL0     H73654   0.651   8.627   4.956 -1.2158  0.6306 -0.0126
  546MOL0     H73655   0.421   8.608   4.915 -0.5028 -1.4762 -1.8690
  546MOL0     H73656   0.475   8.444   4.929 -1.1654 -1.3509  0.5022
  546MOL0     H73657   0.379   8.418   5.147 -0.3333  0.0428  0.6057
  546MOL0     H73658   0.345   8.591   5.169 -1.6718 -0.8428  0.0609
  546MOL0     H73659   0.141   8.444   5.094  1.0779  0.5592  0.4035
  546MOL0     H73660   0.222   8.412   4.948 -1.6133  1.7460 -1.5300
  546MOL0     H73661   0.135   8.555   4.762 -1.1085 -3.3657  2.6590
  546MOL0     H73662   0.028   8.919   4.720 -0.1790  0.8402  5.5758
  546MOL0     H73663   0.064   8.767   4.628  0.6483 -1.1377  1.1296
  546MOL0     H73664  -0.193   8.845   4.768  1.6407  0.7017  0.5003
  546MOL0     H73665  -0.159   8.684   4.684 -0.6162  0.7034  1.8927
  546MOL0     H73666  -0.162   8.772   4.467  0.3242 -1.1830  0.5811
  546MOL0     H73667  -0.135   8.943   4.522  0.5866  0.1644 -0.3306
  546MOL0     H73668  -0.374   8.799   4.617 -2.3950  0.4326 -1.0832
  546MOL0     H73669  -0.375   8.841   4.450  0.4039  1.6258  0.4623
  546MOL0     H73670  -0.565   8.865   4.526 -1.8195  0.8995 -0.9755
  546MOL0     H73671  -0.785   8.786   4.590  1.5679  0.4135 -1.0545
  546MOL0     H73672  -0.872   8.875   4.709  0.1039  0.3289  0.0059
  546MOL0     H73673  -0.898   8.921   4.539  0.4443 -0.3640 -0.2589
  546MOL0     H73674  -1.126   9.211   4.563 -1.5056  0.2924 -0.6594
  546MOL0     H73675  -1.347   9.292   4.613  0.3388 -2.0355  1.7266
  546MOL0     H73676  -1.393   9.726   4.801 -2.4897  0.3790 -0.0770
  546MOL0     H73677  -1.324   9.709   4.640  0.1304  2.9341  0.9526
  546MOL0     H73678  -1.550   9.639   4.557  0.9149  1.9126 -2.2743
  546MOL0     H73679  -1.620   9.685   4.711 -1.1013  0.5155 -1.6065
  546MOL0     H73680  -1.492   9.857   4.492  0.3173 -3.4624 -0.3888
  546MOL0     H73681  -1.479   9.915   4.663  1.6833 -0.6040 -1.0519
  546MOL0     H73682  -1.722   9.806   4.518  2.8729 -2.5481  2.4394
  546MOL0     H73683  -1.733   9.901   4.668  2.9145 -1.2231  1.3012
  546MOL0     H73684  -1.615  10.097   4.525  0.0777  1.7897 -1.2463
  546MOL0     H73685  -1.792  10.080   4.556  0.3593 -0.1165 -0.4981
  546MOL0     H73686  -1.626  10.009   4.309  1.2849  2.9460  1.6349
  546MOL0     H73687  -1.784   9.942   4.334  0.8113 -0.4271 -0.8873
  546MOL0     H73688  -1.710  10.248   4.337  1.1116  1.1921 -1.8407
  546MOL0     H73689  -1.873  10.197   4.359  1.6221 -1.4895  0.6007
  546MOL0     H73690  -1.855  10.081   4.133  0.5742  0.3098 -1.4299
  546MOL0     H73691  -1.700  10.148   4.112  1.6422 -2.3759  2.5657
  546MOL0     H73692  -1.169   9.623   4.832 -0.2058 -0.0821 -0.5371
  546MOL0     H73693  -0.948   9.528   4.813 -1.0113  2.2575  0.7111
  546MOL0     H73694  -0.657   9.317   4.695 -1.7407 -0.5036  1.1348
  546MOL0     H73695  -0.423   9.243   4.613 -0.8263  1.7677  1.1959
  546MOL0     H73696   1.269   8.664   5.292 -3.2740 -1.4897  0.9400
  546MOL0     H73697   1.501   8.709   5.339  1.4091  0.5197  3.7090
  546MOL0     H73698   1.849   8.716   5.340 -0.8796  0.0895  2.4062
  546MOL0     H73699   2.077   8.813   5.318 -2.6447  1.0296  0.7847
  546MOL0     H73700   2.374   8.528   5.375 -0.0908 -0.2614 -1.6130
  546MOL0     H73701   2.475   8.647   5.312 -2.6539  2.2797 -0.4870
  546MOL0     H73702   2.588   8.599   5.517 -1.3408 -1.4249  1.2565
  546MOL0     H73703   2.441   8.591   5.605  1.0148 -1.6072 -0.7561
  546MOL0     H73704   2.588   8.786   5.647  1.4046  0.4153 -1.1131
  546MOL0     H73705   2.426   8.845   5.616  1.3863  2.8516 -0.1263
  546MOL0     H73706   2.594   8.983   5.511 -0.7214  0.7885 -0.3072
  546MOL0     H73707   2.506   8.886   5.375 -1.1939  0.5711  0.8102
  546MOL0     H73708   2.919   8.756   5.392 -0.4714 -0.2166 -3.6380
  546MOL0     H73709   2.238   8.484   5.541 -0.5194  0.7335  0.5330
  546MOL0     H73710   2.030   8.404   5.576 -2.2815 -0.4974 -0.0165
  547MOL0     O73711   6.193   0.808   1.577 -0.3513  1.1062 -0.5132
  547MOL0     C73712   6.158   0.915   1.619  0.0165  0.1476  0.4263
  547MOL0     O73713   6.038   0.974   1.593  0.0107  0.3346  0.0528
  547MOL0     C73714   5.938   0.910   1.512  0.1063  0.6901 -0.6317
  547MOL0     C73715   5.808   0.909   1.555  0.1314 -0.6364  0.3168
  547MOL0     C73716   5.711   0.837   1.485  0.6130 -0.1965 -0.1622
  547MOL0     C73717   5.745   0.758   1.374  0.5686 -1.0648  0.6739
  547MOL0     O73718   5.649   0.709   1.286  0.4301  0.2679 -0.7412
  547MOL0     C73719   5.507   0.702   1.320  0.6429 -0.5771 -0.7258
  547MOL0     C73720   5.484   0.574   1.393 -0.5008 -0.3056  0.8614
  547MOL0     C73721   5.454   0.465   1.291 -0.4098  0.1112 -0.0994
  547MOL0     C73722   5.410   0.324   1.336 -0.6300  0.1459  0.7505
  547MOL0     C73723   5.268   0.319   1.411 -1.9334  0.5889  0.1508
  547MOL0     C73724   5.153   0.350   1.326 -0.1371  0.2908  0.2297
  547MOL0     C73725   5.025   0.374   1.412  0.1030 -0.7106 -1.0163
  547MOL0     C73726   4.913   0.422   1.323  0.6140 -0.7024 -0.7262
  547MOL0     N73727   4.782   0.413   1.396  0.8899  0.4051 -0.2130
  547MOL0     C73728   4.714   0.296   1.422 -1.1693 -0.2680  0.0885
  547MOL0     C73729   4.615   0.326   1.513 -0.6743  0.3650  1.0267
  547MOL0     C73730   4.513   0.246   1.574  0.5106  0.4989  0.7236
  547MOL0     C73731   4.406   0.188   1.466 -0.8005  0.5008 -0.3638
  547MOL0     C73732   4.267   0.169   1.533 -0.4046 -0.1434 -0.0863
  547MOL0     C73733   4.199   0.302   1.552 -0.3565  0.4689  0.1170
  547MOL0     O73734   4.075   0.268   1.611  0.0220 -0.2283 -0.4481
  547MOL0     C73735   3.976   0.365   1.605 -0.1543 -0.6352  0.9856
  547MOL0     C73736   3.985   0.501   1.630  0.5896 -0.1156 -0.5549
  547MOL0     C73737   3.882   0.593   1.621  0.3294 -0.1785 -0.0245
  547MOL0     C73738   3.899   0.744   1.660  0.5879  0.6771  0.0811
  547MOL0     C73739   3.753   0.544   1.595  0.2715  0.4019  0.2334
  547MOL0     C73740   3.628   0.621   1.585  0.2406 -0.6019 -0.1358
  547MOL0     O73741   3.512   0.563   1.625  0.4637 -0.5041 -0.6333
  547MOL0     C73742   3.397   0.629   1.633  0.4238 -1.1128 -0.2311
  547MOL0     C73743   3.282   0.555   1.617 -0.7175  0.5000 -1.0130
  547MOL0     C73744   3.152   0.610   1.620  0.0117 -0.2324  0.3556
  547MOL0     C73745   3.136   0.750   1.636  0.1475  0.2164  0.0723
  547MOL0     O73746   3.009   0.793   1.655  0.6042  0.3788  0.3308
  547MOL0     C73747   2.973   0.923   1.613 -0.3044  0.6661  0.7020
  547MOL0     C73748   2.816   0.935   1.614  0.3017 -0.6064  0.3209
  547MOL0     C73749   2.758   0.919   1.756 -0.4886 -0.3007  0.2543
  547MOL0     C73750   2.608   0.946   1.745 -0.2010 -0.3889 -0.2991
  547MOL0     C73751   2.563   1.090   1.784  0.3120  0.2266  0.3190
  547MOL0     C73752   2.406   1.107   1.785  0.1553 -0.3074  0.3324
  547MOL0     C73753   2.389   1.259   1.809 -0.0720  0.4357 -0.1995
  547MOL0     C73754   2.247   1.293   1.838  0.9100 -0.0545  0.6314
  547MOL0    Cl73755   2.173   1.339   1.677  0.2302 -0.3212  0.5994
  547MOL0     C73756   3.244   0.832   1.641  0.4576  0.7130 -0.9569
  547MOL0     C73757   3.372   0.770   1.637  0.0832 -0.1745  0.4797
  547MOL0     O73758   3.633   0.734   1.542  0.1747  0.2382 -0.1434
  547MOL0     C73759   3.731   0.404   1.600 -0.2242 -0.7262 -0.0411
  547MOL0     C73760   3.848   0.319   1.604  0.2233  0.8908 -0.8841
  547MOL0     N73761   4.636   0.457   1.538  0.2468 -0.1271 -0.5168
  547MOL0     N73762   4.731   0.511   1.470  1.0094 -0.3823 -0.8236
  547MOL0     C73763   5.872   0.762   1.328 -0.1437  0.1659 -0.6684
  547MOL0     C73764   5.971   0.832   1.404 -0.2408  0.8220  0.1458
  547MOL0     C73765   6.257   0.991   1.694  0.5204 -0.7013 -0.2307
  547MOL0     C73766   6.402   0.965   1.695 -0.0772 -1.1420  0.1071
  547MOL0     C73767   6.489   1.041   1.780  0.4124  0.1249  0.4479
  547MOL0     C73768   6.436   1.143   1.853  0.5866  0.4890  1.0589
  547MOL0     O73769   6.514   1.214   1.942 -0.7332  0.1510  0.0781
  547MOL0     C73770   6.491   1.181   2.081  0.1067 -0.2984 -0.3316
  547MOL0     C73771   6.610   1.236   2.167 -1.4061  1.1832  1.1943
  547MOL0     C73772   6.749   1.193   2.106  0.4829 -0.2148 -0.1688
  547MOL0     C73773   6.867   1.252   2.177 -0.5666 -0.5991 -0.1914
  547MOL0     C73774   6.985   1.171   2.143  0.4312 -0.6811  0.5413
  547MOL0     C73775   7.085   1.109   2.116 -0.2213  0.4667  0.3798
  547MOL0     C73776   6.305   1.177   1.842  0.4561 -0.3767 -0.4333
  547MOL0     C73777   6.214   1.101   1.776  0.2136 -0.3604 -0.0173
  547MOL0     H73778   5.792   0.967   1.645  2.8709 -1.7475  1.6367
  547MOL0     H73779   5.608   0.845   1.518  0.6528 -1.1923  0.2412
  547MOL0     H73780   5.476   0.784   1.386 -1.7233 -1.9645  0.0026
  547MOL0     H73781   5.440   0.713   1.235 -2.7595 -2.5790  1.4565
  547MOL0     H73782   5.580   0.557   1.443 -0.0012  2.1191  0.8201
  547MOL0     H73783   5.414   0.601   1.472 -0.1396 -0.6946  1.3197
  547MOL0     H73784   5.376   0.501   1.224 -2.4396 -0.9581  1.5588
  547MOL0     H73785   5.546   0.451   1.234  1.0590  0.7340  2.0207
  547MOL0     H73786   5.400   0.254   1.252 -0.6862  0.3010  0.6277
  547MOL0     H73787   5.485   0.290   1.407 -0.5110  0.6086  0.8477
  547MOL0     H73788   5.262   0.216   1.447 -0.4026 -0.1408 -1.5365
  547MOL0     H73789   5.271   0.391   1.493 -0.1265  0.8324 -0.0857
  547MOL0     H73790   5.172   0.447   1.279  1.4070 -0.2431 -0.2790
  547MOL0     H73791   5.139   0.275   1.248 -3.5180 -0.0203  0.9807
  547MOL0     H73792   4.994   0.286   1.470  0.8181  0.8000  1.8359
  547MOL0     H73793   5.056   0.449   1.485  0.5717 -1.4907 -0.3903
  547MOL0     H73794   4.904   0.367   1.229 -0.1482 -1.2464 -0.3460
  547MOL0     H73795   4.925   0.529   1.302 -2.0280 -0.4509 -1.2749
  547MOL0     H73796   4.725   0.197   1.380  1.5059  0.2692 -0.7117
  547MOL0     H73797   4.557   0.170   1.639  0.0759 -0.2956  0.1171
  547MOL0     H73798   4.457   0.311   1.641  0.1056 -1.9309  2.9361
  547MOL0     H73799   4.453   0.096   1.430 -1.0360  0.4773 -0.6144
  547MOL0     H73800   4.399   0.248   1.375  0.3891  1.7130  0.3033
  547MOL0     H73801   4.270   0.123   1.632 -1.2080  1.4962  0.7338
  547MOL0     H73802   4.208   0.103   1.468  0.8360 -1.6770  0.2946
  547MOL0     H73803   4.176   0.340   1.451 -0.1893 -1.1183 -0.5419
  547MOL0     H73804   4.261   0.373   1.608 -1.9916  2.8281 -0.8908
  547MOL0     H73805   4.081   0.546   1.653 -0.5314  0.8843  2.8508
  547MOL0     H73806   3.899   0.805   1.569  0.9450  2.6276  1.3301
  547MOL0     H73807   3.825   0.772   1.736  2.3049 -1.8490  2.8662
  547MOL0     H73808   3.994   0.755   1.713  2.0939 -0.2739 -2.2682
  547MOL0     H73809   3.289   0.447   1.610 -1.8371  0.4469 -1.5118
  547MOL0     H73810   3.066   0.544   1.622 -0.7361  0.7421  1.3070
  547MOL0     H73811   3.017   0.985   1.692  0.4827  1.5884 -0.4282
  547MOL0     H73812   3.024   0.940   1.518 -0.2130 -3.2088 -0.0947
  547MOL0     H73813   2.779   1.029   1.573 -4.8957 -2.0871  0.8408
  547MOL0     H73814   2.780   0.847   1.558 -0.1732 -0.0481 -0.2608
  547MOL0     H73815   2.795   0.982   1.837 -0.3308 -0.8534  0.6172
  547MOL0     H73816   2.786   0.817   1.783 -3.7461 -2.1213 -2.4089
  547MOL0     H73817   2.570   0.909   1.649 -1.3468 -1.8034  0.6583
  547MOL0     H73818   2.568   0.876   1.818 -1.7415 -1.9346 -2.5035
  547MOL0     H73819   2.614   1.153   1.710  2.8662 -1.8460  0.1411
  547MOL0     H73820   2.612   1.115   1.879  0.0067 -1.2758  0.8892
  547MOL0     H73821   2.373   1.083   1.684  0.4193  1.2244 -0.1344
  547MOL0     H73822   2.366   1.055   1.873 -0.9934  0.7290  0.4410
  547MOL0     H73823   2.429   1.319   1.726  0.6902 -0.4274 -0.4707
  547MOL0     H73824   2.445   1.281   1.900 -0.2770 -0.3367  0.1163
  547MOL0     H73825   2.248   1.387   1.895 -0.2316  1.5976 -1.8651
  547MOL0     H73826   2.194   1.209   1.883  1.7587 -2.4675 -2.5798
  547MOL0     H73827   3.240   0.940   1.650  0.7621  0.6531  0.0363
  547MOL0     H73828   3.458   0.836   1.645 -0.5375  0.6416  0.6515
  547MOL0     H73829   3.633   0.362   1.578 -2.0246  3.2518 -0.3835
  547MOL0     H73830   3.823   0.214   1.595  1.9086  0.5537 -2.2061
  547MOL0     H73831   5.911   0.720   1.235  0.7988 -2.0794  0.6460
  547MOL0     H73832   6.073   0.812   1.374 -0.6023  2.0401 -2.1370
  547MOL0     H73833   6.440   0.874   1.651 -1.6918 -1.5273 -0.5730
  547MOL0     H73834   6.596   1.021   1.780  0.2987 -0.6479 -1.0666
  547MOL0     H73835   6.398   1.225   2.117  0.1822  1.5474 -2.1720
  547MOL0     H73836   6.490   1.073   2.094  1.8223 -0.7944 -3.4256
  547MOL0     H73837   6.606   1.204   2.272  1.9099  0.6800  1.2555
  547MOL0     H73838   6.601   1.345   2.175 -1.6591  1.2631 -0.0632
  547MOL0     H73839   6.749   1.226   2.002 -0.8157  1.8245  0.4068
  547MOL0     H73840   6.774   1.087   2.108  1.0439 -0.0833  0.3243
  547MOL0     H73841   6.857   1.262   2.286 -0.2043 -0.6777 -0.1487
  547MOL0     H73842   6.880   1.355   2.141  3.1888 -0.5957  0.7412
  547MOL0     H73843   7.179   1.065   2.089 -0.3295  0.2180  0.4067
  547MOL0     H73844   6.275   1.262   1.902  2.2278 -0.2674  0.3485
  547MOL0     H73845   6.108   1.123   1.776  0.5806  1.6428  1.1851
  548MOL0     O73846  10.701   0.162  10.725 -0.0238 -0.3097  0.8033
  548MOL0     C73847  10.756   0.216  10.817  0.2805 -0.8544 -0.5476
  548MOL0     O73848  10.689   0.303  10.906 -0.3570 -0.8216  0.7926
  548MOL0     C73849  10.554   0.308  10.892  1.0839  0.0249 -0.7623
  548MOL0     C73850  10.488   0.341  10.780 -0.5681  0.0927 -0.9685
  548MOL0     C73851  10.351   0.337  10.771 -0.1010 -0.0371 -0.5537
  548MOL0     C73852  10.270   0.318  10.878  0.6090 -0.1679  0.0269
  548MOL0     O73853  10.132   0.326  10.861 -0.1608  0.3831 -0.3431
  548MOL0     C73854  10.074   0.198  10.856  0.1570 -0.6420 -0.4690
  548MOL0     C73855   9.931   0.232  10.877 -0.2505  0.2672  0.1901
  548MOL0     C73856   9.918   0.311  11.007 -0.3440  0.3865 -0.4469
  548MOL0     C73857   9.765   0.317  11.057 -0.2832 -0.1401 -0.2945
  548MOL0     C73858   9.760   0.355  11.203 -0.0138 -0.1255 -0.3875
  548MOL0     C73859   9.619   0.349  11.249 -0.3902  0.2842  0.3464
  548MOL0     C73860   9.620   0.321  11.406 -0.3628  0.4238 -0.0002
  548MOL0     C73861   9.477   0.322  11.458  0.8001 -0.0540 -0.5500
  548MOL0     N73862   9.416   0.460  11.469 -0.1742 -0.6259  0.3701
  548MOL0     C73863   9.330   0.492  11.577  0.3574 -0.1011 -0.1698
  548MOL0     C73864   9.309   0.624  11.571 -0.1699  0.1647 -0.0776
  548MOL0     C73865   9.216   0.702  11.660  0.0217 -0.9013 -0.3092
  548MOL0     C73866   9.067   0.724  11.616 -0.3790  0.6984  0.2564
  548MOL0     C73867   8.983   0.601  11.628  0.1029  0.3801  0.1787
  548MOL0     C73868   8.826   0.631  11.618 -0.5172 -0.2677  0.4607
  548MOL0     O73869   8.805   0.721  11.720 -0.7719 -0.0445 -0.4995
  548MOL0     C73870   8.678   0.769  11.739  1.0733 -0.6084 -0.2657
  548MOL0     C73871   8.654   0.844  11.852  0.4634 -0.9028  0.1660
  548MOL0     C73872   8.530   0.906  11.866  0.1001  0.4143 -0.5753
  548MOL0     C73873   8.509   0.972  11.996  0.0986  1.2405 -0.4953
  548MOL0     C73874   8.420   0.887  11.776  0.1382  0.3147 -0.1778
  548MOL0     C73875   8.292   0.952  11.789  0.3799 -0.8597  0.0865
  548MOL0     O73876   8.186   0.891  11.722 -0.1322  0.0407 -0.1299
  548MOL0     C73877   8.060   0.918  11.758 -0.1579 -0.6045 -0.5215
  548MOL0     C73878   7.963   0.915  11.666  0.3815 -0.2906 -0.2998
  548MOL0     C73879   7.827   0.925  11.702  1.3822  0.0316 -0.3592
  548MOL0     C73880   7.787   0.942  11.836 -0.2391  1.1424  0.0023
  548MOL0     O73881   7.656   0.925  11.884 -0.0147 -0.5120  0.2498
  548MOL0     C73882   7.569   0.834  11.818 -0.2901  0.2924 -0.3962
  548MOL0     C73883   7.428   0.868  11.863  0.0894  0.0955 -0.2471
  548MOL0     C73884   7.375   0.992  11.791 -0.6043 -0.1071 -1.0064
  548MOL0     C73885   7.259   1.070  11.872 -0.6695  1.2065 -0.1821
  548MOL0     C73886   7.217   1.199  11.797 -0.7291  0.2035  0.0792
  548MOL0     C73887   7.089   1.265  11.849 -1.5559 -0.2737  0.9094
  548MOL0     C73888   7.073   1.405  11.790  0.0900  0.8555  1.0835
  548MOL0     C73889   6.931   1.451  11.809 -0.1193 -0.3385 -0.8905
  548MOL0    Cl73890   6.816   1.361  11.706 -0.2073  0.2244  0.0822
  548MOL0     C73891   7.886   0.944  11.932 -0.4806  0.3680 -1.3380
  548MOL0     C73892   8.023   0.935  11.893  0.1828 -0.0917  0.0298
  548MOL0     O73893   8.283   1.061  11.848 -0.6807  0.4574  0.6212
  548MOL0     C73894   8.451   0.825  11.657 -0.5043  0.1011  0.2597
  548MOL0     C73895   8.573   0.765  11.641 -0.6228  0.3407  0.7373
  548MOL0     N73896   9.377   0.672  11.457  0.3491 -0.0834  0.3381
  548MOL0     N73897   9.442   0.580  11.404 -0.6292 -1.0158 -0.8544
  548MOL0     C73898  10.334   0.290  11.005  0.6949  0.4409  0.2436
  548MOL0     C73899  10.476   0.287  11.008 -0.1490  0.1275 -0.2595
  548MOL0     C73900  10.905   0.195  10.839  0.9139 -0.2960  0.7149
  548MOL0     C73901  10.985   0.151  10.734 -0.6065 -0.0433 -0.7976
  548MOL0     C73902  11.121   0.137  10.745 -0.2823 -0.4520 -0.2063
  548MOL0     C73903  11.185   0.170  10.870  0.5145  0.4361  0.5276
  548MOL0     O73904  11.322   0.172  10.902 -0.0348 -0.6440 -0.0657
  548MOL0     C73905  11.420   0.131  10.808  0.5591 -0.3487 -0.8006
  548MOL0     C73906  11.471  -0.014  10.847 -0.9102 -0.2606 -0.7591
  548MOL0     C73907  11.571  -0.069  10.739  0.6882  0.0594  0.7636
  548MOL0     C73908  11.696  -0.144  10.801 -0.0361  0.2717  0.0949
  548MOL0     C73909  11.782  -0.055  10.878 -0.1043 -0.1454 -0.1699
  548MOL0     C73910  11.856   0.024  10.935  0.6099 -0.7095 -0.0730
  548MOL0     C73911  11.104   0.203  10.982  0.1411 -0.2672  0.9877
  548MOL0     C73912  10.962   0.217  10.966 -0.0412 -0.1568 -0.1182
  548MOL0     H73913  10.547   0.364  10.692 -0.5658  0.3385 -0.9034
  548MOL0     H73914  10.315   0.351  10.670  0.6662 -0.6185 -0.9136
  548MOL0     H73915  10.084   0.137  10.766 -0.7733 -4.7151  1.9203
  548MOL0     H73916  10.120   0.139  10.936  2.0867 -0.2262 -1.2385
  548MOL0     H73917   9.906   0.293  10.790  3.1813 -0.7955 -1.7313
  548MOL0     H73918   9.865   0.145  10.880  0.2769 -0.1176  0.9996
  548MOL0     H73919   9.978   0.263  11.085  0.9096  0.8151 -1.1206
  548MOL0     H73920   9.947   0.417  11.001 -2.3411  1.1371  1.6571
  548MOL0     H73921   9.702   0.386  11.001 -1.4661 -0.3813  0.7083
  548MOL0     H73922   9.725   0.218  11.037  2.6787 -1.0088 -2.6938
  548MOL0     H73923   9.812   0.275  11.257  0.4042 -0.1708 -0.8440
  548MOL0     H73924   9.798   0.456  11.221 -0.6019  0.4381 -2.0602
  548MOL0     H73925   9.569   0.444  11.231 -0.2651 -0.0419 -1.9913
  548MOL0     H73926   9.574   0.264  11.198  3.8110 -3.0881  1.5891
  548MOL0     H73927   9.653   0.217  11.401 -0.5403  0.4118 -1.6537
  548MOL0     H73928   9.694   0.375  11.466  2.1551  0.8009 -3.1736
  548MOL0     H73929   9.476   0.274  11.556  0.8062 -1.4944 -1.2144
  548MOL0     H73930   9.412   0.270  11.387 -0.2765  2.5528 -1.6004
  548MOL0     H73931   9.279   0.435  11.654 -2.7940  3.7760  0.9395
  548MOL0     H73932   9.213   0.664  11.763 -1.7672  0.4843  0.2076
  548MOL0     H73933   9.262   0.801  11.656 -1.6490  0.0802  2.1020
  548MOL0     H73934   9.068   0.761  11.513 -2.0689 -3.7929 -1.6709
  548MOL0     H73935   9.018   0.803  11.674 -0.1204  1.3262 -0.3716
  548MOL0     H73936   9.009   0.560  11.727  0.1010  0.6507  0.2935
  548MOL0     H73937   9.012   0.533  11.548  0.5861  1.0415 -0.2173
  548MOL0     H73938   8.763   0.542  11.629 -1.9943  0.5827 -0.7720
  548MOL0     H73939   8.809   0.682  11.523 -0.4465 -2.2105 -0.6637
  548MOL0     H73940   8.733   0.848  11.926 -0.0514  0.1320  0.6730
  548MOL0     H73941   8.570   0.923  12.072  0.3687  1.7925 -0.3492
  548MOL0     H73942   8.541   1.076  11.997  0.5683  1.1188  1.8316
  548MOL0     H73943   8.405   0.955  12.026  0.6659  0.8160  1.3499
  548MOL0     H73944   7.984   0.910  11.560 -1.9001 -1.2480 -0.7401
  548MOL0     H73945   7.752   0.919  11.624 -0.9112 -1.3918  1.8180
  548MOL0     H73946   7.580   0.837  11.709  1.5920 -2.3927 -0.3915
  548MOL0     H73947   7.593   0.736  11.860 -1.9099  0.2818  0.5851
  548MOL0     H73948   7.357   0.789  11.837  0.1179 -0.0198  0.0184
  548MOL0     H73949   7.422   0.885  11.971 -0.8141  0.0901 -0.2949
  548MOL0     H73950   7.345   0.967  11.688 -1.5394  1.3219 -1.1130
  548MOL0     H73951   7.457   1.063  11.780 -0.9727  1.2718  3.3102
  548MOL0     H73952   7.173   1.003  11.872  0.9365 -0.9602  0.1422
  548MOL0     H73953   7.292   1.089  11.975  0.8313 -2.0713  0.0646
  548MOL0     H73954   7.209   1.177  11.691 -0.5871 -0.3587  0.1807
  548MOL0     H73955   7.298   1.271  11.815 -0.9378  0.5777 -0.4633
  548MOL0     H73956   7.024   1.183  11.817  0.5304 -1.4340 -0.6625
  548MOL0     H73957   7.093   1.264  11.959 -0.3365  1.1813  0.9067
  548MOL0     H73958   7.095   1.396  11.683  1.1113  1.1370  1.2626
  548MOL0     H73959   7.151   1.467  11.833  2.8945 -0.4180 -1.7563
  548MOL0     H73960   6.913   1.555  11.781 -1.1645 -0.5812 -1.1674
  548MOL0     H73961   6.907   1.440  11.915 -2.6157 -1.2581 -1.4778
  548MOL0     H73962   7.859   0.944  12.037  3.3370 -2.4650 -0.1340
  548MOL0     H73963   8.103   0.927  11.966  0.6723  2.2444 -0.1599
  548MOL0     H73964   8.373   0.817  11.582  1.0619  3.2649 -1.9557
  548MOL0     H73965   8.600   0.727  11.544 -1.2405  0.1108  0.6472
  548MOL0     H73966  10.279   0.257  11.092 -3.9543 -0.2809 -2.6791
  548MOL0     H73967  10.525   0.264  11.102  2.2645 -2.0614 -1.9083
  548MOL0     H73968  10.937   0.122  10.641 -0.1110 -2.8081 -0.2904
  548MOL0     H73969  11.162   0.101  10.651 -1.1615  0.1111 -0.8114
  548MOL0     H73970  11.391   0.145  10.703 -4.5911 -0.6771  0.3554
  548MOL0     H73971  11.510   0.190  10.831 -0.3124  1.0071 -0.7446
  548MOL0     H73972  11.384  -0.078  10.859  0.1003 -1.5877 -0.2620
  548MOL0     H73973  11.515  -0.012  10.947  2.3360 -1.8346 -2.0163
  548MOL0     H73974  11.616   0.009  10.677  1.3196 -1.6405 -1.0189
  548MOL0     H73975  11.513  -0.137  10.676  1.9311 -1.1664  0.8895
  548MOL0     H73976  11.766  -0.190  10.730 -0.0925  1.0515 -0.4822
  548MOL0     H73977  11.664  -0.229  10.862 -1.2453  1.7426  1.5829
  548MOL0     H73978  11.912   0.102  10.983 -0.3899  1.4556 -2.2230
  548MOL0     H73979  11.157   0.240  11.069  3.3411 -0.4894 -0.7154
  548MOL0     H73980  10.906   0.260  11.049 -0.2745 -2.9145  1.2771
  549MOL0     O73981   2.058   5.570  10.472  0.3836 -0.4227  0.2990
  549MOL0     C73982   2.087   5.489  10.557  0.3679  0.1616 -0.6533
  549MOL0     O73983   1.996   5.432  10.637 -0.4529  0.8456  0.8680
  549MOL0     C73984   1.868   5.460  10.610  0.1509  0.9970  1.0431
  549MOL0     C73985   1.805   5.559  10.684  0.6860 -0.2872  0.8236
  549MOL0     C73986   1.666   5.578  10.676  0.1199  0.0396 -0.1134
  549MOL0     C73987   1.588   5.490  10.600  0.1721  0.5599 -0.4509
  549MOL0     O73988   1.448   5.505  10.602  0.3773  0.1410  0.4334
  549MOL0     C73989   1.373   5.441  10.704  0.2704  0.0266  0.0824
  549MOL0     C73990   1.346   5.291  10.682 -0.3866 -0.4381  0.1173
  549MOL0     C73991   1.229   5.258  10.760  0.8528  0.3842 -0.4217
  549MOL0     C73992   1.179   5.121  10.724  0.1810  1.0558 -0.3796
  549MOL0     C73993   1.055   5.081  10.787 -0.4162 -0.2364  0.3252
  549MOL0     C73994   1.011   4.933  10.749  0.5691  0.4414 -0.9805
  549MOL0     C73995   1.105   4.825  10.795  0.0341 -0.7909 -0.2876
  549MOL0     C73996   1.091   4.680  10.729 -0.0800 -0.2384  0.6249
  549MOL0     N73997   0.948   4.628  10.731 -0.4066 -0.7317  0.3833
  549MOL0     C73998   0.889   4.555  10.829 -0.0915  0.2529 -0.0654
  549MOL0     C73999   0.762   4.523  10.778 -0.1853 -0.4494 -0.1916
  549MOL0     C74000   0.652   4.459  10.857  0.3021  0.8127 -0.2722
  549MOL0     C74001   0.565   4.372  10.775  0.5302 -0.0350 -0.2610
  549MOL0     C74002   0.466   4.297  10.871  0.3124  0.2509 -0.2048
  549MOL0     C74003   0.342   4.383  10.903 -0.0960  0.4722 -0.1430
  549MOL0     O74004   0.267   4.328  11.008 -0.5140 -0.5495 -0.3553
  549MOL0     C74005   0.137   4.363  11.018  0.2142 -0.8640 -1.1251
  549MOL0     C74006   0.094   4.338  11.150  0.6763  0.1146  0.9948
  549MOL0     C74007  -0.038   4.347  11.182  0.7036  0.6314  0.9363
  549MOL0     C74008  -0.063   4.292  11.318 -0.0695 -0.1064 -0.2977
  549MOL0     C74009  -0.135   4.402  11.094  0.7679 -0.1426 -0.4176
  549MOL0     C74010  -0.276   4.433  11.122  0.5061  0.0309  0.4480
  549MOL0     O74011  -0.370   4.380  11.040  0.5373  0.6276  0.0055
  549MOL0     C74012  -0.503   4.407  11.069  0.7922  0.5449  0.9262
  549MOL0     C74013  -0.578   4.492  10.983  0.4599 -0.1712 -0.1109
  549MOL0     C74014  -0.715   4.510  11.013  0.6030 -0.0295 -0.1708
  549MOL0     C74015  -0.782   4.442  11.114  0.2856 -0.4471 -0.1514
  549MOL0     O74016  -0.925   4.456  11.131  0.2475 -0.6532  0.6145
  549MOL0     C74017  -0.982   4.590  11.113 -0.4447  0.6094 -0.4364
  549MOL0     C74018  -1.001   4.659  11.252  0.1940 -0.2241  0.2096
  549MOL0     C74019  -1.109   4.597  11.336  0.4225 -0.4380  0.9364
  549MOL0     C74020  -1.099   4.663  11.473 -0.6535  0.6570  1.1000
  549MOL0     C74021  -1.217   4.623  11.571 -0.5919 -0.1186 -1.3072
  549MOL0     C74022  -1.174   4.633  11.715 -0.9148  0.8295 -1.1732
  549MOL0     C74023  -1.279   4.571  11.819  0.2217  0.4208  0.5874
  549MOL0     C74024  -1.207   4.514  11.940 -0.1220 -0.2496  0.1111
  549MOL0    Cl74025  -1.326   4.428  12.046 -0.1078  0.2289  0.1703
  549MOL0     C74026  -0.705   4.367  11.201  0.3983  0.4061 -0.2862
  549MOL0     C74027  -0.568   4.345  11.177 -0.2421 -0.1080 -0.3366
  549MOL0     O74028  -0.304   4.480  11.236  0.0835  0.2676 -0.2203
  549MOL0     C74029  -0.095   4.418  10.957 -0.8171  0.2544  0.4230
  549MOL0     C74030   0.039   4.391  10.921  0.6150  0.3600  0.0613
  549MOL0     N74031   0.749   4.591  10.654 -0.4470  1.0412 -0.2859
  549MOL0     N74032   0.866   4.649  10.628  0.4582  0.9902  0.8681
  549MOL0     C74033   1.648   5.379  10.538 -0.2729  0.4068 -0.0309
  549MOL0     C74034   1.787   5.363  10.544  0.7604  0.0361 -0.2549
  549MOL0     C74035   2.225   5.455  10.596  0.1486  0.8824  0.6651
  549MOL0     C74036   2.330   5.537  10.593  0.8137 -0.3324 -0.3738
  549MOL0     C74037   2.466   5.491  10.595 -0.3864  0.2177 -0.3226
  549MOL0     C74038   2.493   5.354  10.606  0.5137 -0.7038  0.0636
  549MOL0     O74039   2.624   5.321  10.588  0.2873  0.3215 -0.1565
  549MOL0     C74040   2.670   5.188  10.623 -0.6434  0.1082 -0.0697
  549MOL0     C74041   2.823   5.197  10.605 -0.1225  1.4664  0.8134
  549MOL0     C74042   2.900   5.068  10.641 -0.1136 -0.2502  0.5784
  549MOL0     C74043   3.052   5.079  10.642  0.5499 -0.3313 -0.8034
  549MOL0     C74044   3.113   5.161  10.541 -0.0487 -0.1114 -0.0828
  549MOL0     C74045   3.179   5.232  10.467 -0.2906  0.2773  0.7990
  549MOL0     C74046   2.380   5.274  10.629 -1.1540 -0.8489 -0.3175
  549MOL0     C74047   2.252   5.321  10.628  0.1597 -0.0233  0.3190
  549MOL0     H74048   1.870   5.619  10.748  1.1795 -0.9181  0.9289
  549MOL0     H74049   1.622   5.656  10.738  0.3813 -0.0960  0.2493
  549MOL0     H74050   1.420   5.455  10.801 -0.4851  0.6981  0.3668
  549MOL0     H74051   1.274   5.486  10.712 -0.0488 -0.3401 -1.3786
  549MOL0     H74052   1.339   5.271  10.575 -1.1484 -0.5479  0.1780
  549MOL0     H74053   1.433   5.235  10.717 -0.3575  0.3978  1.4783
  549MOL0     H74054   1.250   5.248  10.867  3.7529  2.1081 -0.7326
  549MOL0     H74055   1.149   5.324  10.726  1.0815  0.2511 -1.2326
  549MOL0     H74056   1.159   5.103  10.618 -1.5357 -2.2669  0.3814
  549MOL0     H74057   1.260   5.050  10.746 -1.1891 -0.3815  0.2105
  549MOL0     H74058   1.072   5.091  10.895  0.9619  0.6591  0.0506
  549MOL0     H74059   0.973   5.148  10.758 -1.2641 -0.7416  1.4675
  549MOL0     H74060   0.916   4.906  10.797  0.4321 -0.6054 -1.8054
  549MOL0     H74061   0.986   4.930  10.643 -1.1052 -0.7961 -0.6056
  549MOL0     H74062   1.211   4.847  10.777  0.2427 -2.2419 -1.0006
  549MOL0     H74063   1.085   4.815  10.902 -2.9446  0.8069 -0.6020
  549MOL0     H74064   1.161   4.616  10.783  1.0776  0.7887  0.3865
  549MOL0     H74065   1.125   4.675  10.625  1.2670 -0.3144  1.0439
  549MOL0     H74066   0.924   4.522  10.927 -1.4838 -2.3547 -0.3323
  549MOL0     H74067   0.710   4.395  10.924 -0.2607  0.6482  0.0640
  549MOL0     H74068   0.591   4.534  10.908  0.0494  2.0953 -2.3340
  549MOL0     H74069   0.629   4.300  10.722 -0.3805  0.9923 -2.9532
  549MOL0     H74070   0.524   4.417  10.683 -0.4603 -3.7632 -1.8231
  549MOL0     H74071   0.524   4.263  10.957 -0.1130 -0.0430 -0.0355
  549MOL0     H74072   0.435   4.203  10.824  1.8905 -0.3007 -0.2024
  549MOL0     H74073   0.283   4.388  10.811  0.2553  0.9243 -0.3444
  549MOL0     H74074   0.378   4.482  10.933  0.0173  0.1077  1.0090
  549MOL0     H74075   0.171   4.292  11.211  0.3127 -0.5741  0.9434
  549MOL0     H74076  -0.003   4.205  11.347 -3.0130 -2.5718 -0.9781
  549MOL0     H74077  -0.042   4.373  11.389  2.7058 -1.8776  1.0602
  549MOL0     H74078  -0.169   4.268  11.331 -0.3716  1.0754 -0.5081
  549MOL0     H74079  -0.532   4.547  10.901 -0.2305  2.5784  1.2623
  549MOL0     H74080  -0.770   4.565  10.938  2.7961 -0.1818 -2.0075
  549MOL0     H74081  -0.921   4.655  11.049  0.0651 -0.4210 -1.0222
  549MOL0     H74082  -1.082   4.588  11.069 -0.9815  0.7536  0.7365
  549MOL0     H74083  -0.905   4.667  11.303  0.6055  3.3189 -0.8173
  549MOL0     H74084  -1.028   4.764  11.239  1.1727 -0.1230 -1.2384
  549MOL0     H74085  -1.097   4.488  11.335  1.4391 -0.3470 -0.0762
  549MOL0     H74086  -1.203   4.608  11.281  3.4551 -0.6137 -5.1595
  549MOL0     H74087  -0.996   4.643  11.506  0.5285 -3.3675 -3.7689
  549MOL0     H74088  -1.117   4.769  11.454  1.1065  0.5162 -2.0231
  549MOL0     H74089  -1.252   4.519  11.568 -0.5677 -0.3280  1.8755
  549MOL0     H74090  -1.303   4.688  11.553 -2.1317 -1.9578 -0.9370
  549MOL0     H74091  -1.081   4.575  11.723 -1.0182  0.6044 -1.6362
  549MOL0     H74092  -1.158   4.741  11.730 -0.1747  0.6783 -0.7772
  549MOL0     H74093  -1.336   4.493  11.768 -0.0257  1.2209 -0.4035
  549MOL0     H74094  -1.354   4.646  11.844 -1.9774 -1.3469 -0.4120
  549MOL0     H74095  -1.156   4.586  12.005  4.0893 -2.6688 -0.1401
  549MOL0     H74096  -1.134   4.445  11.898  1.1555 -0.2518  2.1926
  549MOL0     H74097  -0.746   4.329  11.294  1.2099 -0.3482 -0.2176
  549MOL0     H74098  -0.502   4.275  11.227  2.4214  2.2926 -0.2292
  549MOL0     H74099  -0.165   4.463  10.887  0.1928 -0.0768 -0.8355
  549MOL0     H74100   0.072   4.387  10.817 -0.0919  1.8953 -0.2401
  549MOL0     H74101   1.591   5.298  10.494 -0.9169  1.6135 -1.4986
  549MOL0     H74102   1.815   5.274  10.488 -1.4341 -1.1617  0.4242
  549MOL0     H74103   2.311   5.642  10.574 -0.2567 -0.4903 -0.2459
  549MOL0     H74104   2.545   5.564  10.580  0.3201  0.1675  2.5864
  549MOL0     H74105   2.641   5.172  10.727 -1.4023  0.4303 -0.2283
  549MOL0     H74106   2.629   5.104  10.567 -2.3886  0.7103  0.2491
  549MOL0     H74107   2.872   5.278  10.658  0.6677 -0.0438  2.4825
  549MOL0     H74108   2.830   5.210  10.496  1.2576  0.9103  0.8178
  549MOL0     H74109   2.868   4.994  10.567  0.0403 -1.9760  2.1648
  549MOL0     H74110   2.857   5.035  10.736  0.2469  3.4493  2.1959
  549MOL0     H74111   3.087   4.976  10.650 -0.2383 -0.5976 -0.6108
  549MOL0     H74112   3.076   5.123  10.739  0.4995  0.7229 -1.2532
  549MOL0     H74113   3.236   5.301  10.408 -1.7520 -0.1360 -1.2216
  549MOL0     H74114   2.401   5.168  10.642  4.9318 -0.2763 -2.1526
  549MOL0     H74115   2.178   5.242  10.635 -0.2414  0.4323  1.4445
  550MOL0     O74116   4.396   4.048   8.127  0.6497  0.2643  0.3937
  550MOL0     C74117   4.388   4.014   8.011  0.0188  0.4345 -0.2299
  550MOL0     O74118   4.272   4.004   7.936  0.6636  0.0814 -0.9183
  550MOL0     C74119   4.168   4.073   7.990 -0.2052  0.2049  0.3914
  550MOL0     C74120   4.148   4.211   7.959  0.4664  0.4024  0.4027
  550MOL0     C74121   4.031   4.278   7.998 -0.5881 -0.6957  0.1686
  550MOL0     C74122   3.931   4.210   8.070  0.1300  0.1821  0.6016
  550MOL0     O74123   3.818   4.284   8.096 -0.3665 -1.1185 -0.1201
  550MOL0     C74124   3.739   4.245   8.204 -0.4354  0.0516 -0.4034
  550MOL0     C74125   3.609   4.335   8.203  0.1430 -0.2804  0.1828
  550MOL0     C74126   3.620   4.486   8.200  0.1745 -0.3670  0.2862
  550MOL0     C74127   3.704   4.540   8.314 -0.3521 -0.6176 -0.4491
  550MOL0     C74128   3.706   4.690   8.308  0.3800 -0.5860 -0.3394
  550MOL0     C74129   3.750   4.783   8.423 -1.5768 -0.3043 -1.2464
  550MOL0     C74130   3.764   4.938   8.397 -0.4202 -0.1852  0.0471
  550MOL0     C74131   3.833   4.990   8.521 -0.7529 -0.6596 -0.6790
  550MOL0     N74132   3.974   4.961   8.523 -0.2953  0.7215  0.4034
  550MOL0     C74133   4.065   5.015   8.433 -0.1196  0.3406  0.1866
  550MOL0     C74134   4.181   4.948   8.457  0.4835 -0.9430 -0.0627
  550MOL0     C74135   4.320   4.993   8.409  0.5733  0.0736 -1.1781
  550MOL0     C74136   4.424   4.885   8.437  0.1079 -0.1106  0.5055
  550MOL0     C74137   4.565   4.942   8.404  1.0191 -0.6826  0.5759
  550MOL0     C74138   4.658   4.830   8.369  0.5801 -0.0367  0.4661
  550MOL0     O74139   4.769   4.889   8.302  0.1869  0.1817 -0.9095
  550MOL0     C74140   4.883   4.821   8.298 -0.5396 -1.0385 -1.3646
  550MOL0     C74141   4.967   4.817   8.414 -0.2381  0.7871  0.0351
  550MOL0     C74142   5.081   4.732   8.421 -1.0304 -0.4457 -0.0252
  550MOL0     C74143   5.155   4.720   8.548  0.1131 -0.8020 -0.2444
  550MOL0     C74144   5.121   4.652   8.312 -0.2168  0.2790 -0.6374
  550MOL0     C74145   5.231   4.571   8.315 -0.5944 -0.5661  0.7538
  550MOL0     O74146   5.201   4.439   8.290 -0.8197 -0.0437 -0.3157
  550MOL0     C74147   5.302   4.338   8.290 -0.0173  0.6856 -0.4991
  550MOL0     C74148   5.437   4.364   8.293 -0.3795 -0.6908 -1.1676
  550MOL0     C74149   5.530   4.257   8.307  0.7693 -0.0502 -0.3466
  550MOL0     C74150   5.486   4.122   8.324  1.2062  0.5454  0.4881
  550MOL0     O74151   5.576   4.016   8.330  0.4341  0.3956 -0.2136
  550MOL0     C74152   5.714   4.025   8.302 -0.0182 -0.4277  0.6941
  550MOL0     C74153   5.774   3.879   8.287 -0.0421 -0.6138 -0.2988
  550MOL0     C74154   5.733   3.807   8.158  0.2474 -0.0736  0.1698
  550MOL0     C74155   5.791   3.662   8.149 -0.4497 -0.4838 -0.0833
  550MOL0     C74156   5.782   3.578   8.275 -0.3308  0.3006 -0.2287
  550MOL0     C74157   5.794   3.428   8.243 -0.1831  0.6376 -0.0952
  550MOL0     C74158   5.928   3.395   8.160  0.0910 -0.6244  0.6625
  550MOL0     C74159   5.954   3.247   8.132 -1.2771 -0.6738 -0.2631
  550MOL0    Cl74160   6.049   3.181   8.264 -0.1319  0.0028  0.1506
  550MOL0     C74161   5.349   4.100   8.312 -0.3400  0.7661  0.4109
  550MOL0     C74162   5.260   4.205   8.302 -0.6806  0.0475  0.1677
  550MOL0     O74163   5.343   4.618   8.338 -0.3654 -0.2873  0.2530
  550MOL0     C74164   5.048   4.670   8.194 -0.4145  0.5163 -0.7183
  550MOL0     C74165   4.923   4.747   8.184 -0.2232  0.0294 -0.8239
  550MOL0     N74166   4.152   4.840   8.544 -0.0957  0.2319 -0.7606
  550MOL0     N74167   4.025   4.852   8.585 -0.3733 -0.0871  0.1949
  550MOL0     C74168   3.963   4.077   8.117  0.3488 -0.5059 -0.4671
  550MOL0     C74169   4.075   4.011   8.076  1.0353  0.4216  0.1238
  550MOL0     C74170   4.504   3.940   7.953  0.6300 -0.0389 -0.2811
  550MOL0     C74171   4.624   3.910   8.030 -0.5666 -0.1013  0.6838
  550MOL0     C74172   4.733   3.849   7.964  0.4866 -0.5703  0.5539
  550MOL0     C74173   4.730   3.824   7.821 -0.3779  1.0462  0.3879
  550MOL0     O74174   4.832   3.776   7.744 -0.2997  0.1672 -0.2817
  550MOL0     C74175   4.967   3.769   7.789 -0.7512  0.3837 -0.8438
  550MOL0     C74176   5.010   3.653   7.880 -0.0008 -0.3370  0.7913
  550MOL0     C74177   5.081   3.698   8.010  0.1848 -0.3661  0.1493
  550MOL0     C74178   5.238   3.720   7.987 -0.5277  0.1845 -0.2977
  550MOL0     C74179   5.264   3.835   7.903 -0.2392  0.2807  0.4760
  550MOL0     C74180   5.292   3.903   7.807 -0.0925 -0.6515  0.0830
  550MOL0     C74181   4.612   3.855   7.763  0.2353 -0.6607 -0.1658
  550MOL0     C74182   4.501   3.919   7.820 -0.7066 -0.0747  0.0277
  550MOL0     H74183   4.231   4.249   7.901  1.3614 -2.3002 -0.2490
  550MOL0     H74184   4.019   4.373   7.948 -0.2136 -0.8216 -0.1720
  550MOL0     H74185   3.714   4.139   8.193  0.0130 -0.2985  1.6077
  550MOL0     H74186   3.801   4.257   8.293 -0.3714 -1.6860 -0.1920
  550MOL0     H74187   3.544   4.299   8.123  0.4009 -0.6425  0.1295
  550MOL0     H74188   3.559   4.303   8.295  1.1717 -1.5020  0.3555
  550MOL0     H74189   3.672   4.511   8.107  2.5226  1.3771  1.9466
  550MOL0     H74190   3.523   4.536   8.196  1.1265  1.5566 -0.2153
  550MOL0     H74191   3.669   4.511   8.414 -2.0427  1.2721 -0.4361
  550MOL0     H74192   3.802   4.493   8.299 -1.3102 -2.2033 -2.0660
  550MOL0     H74193   3.768   4.716   8.221 -0.5328 -0.1146 -0.8641
  550MOL0     H74194   3.602   4.713   8.284  0.9003  1.3810 -0.8707
  550MOL0     H74195   3.686   4.774   8.512 -0.4609 -0.2009 -0.4079
  550MOL0     H74196   3.850   4.743   8.442 -1.8352 -0.8454 -0.9750
  550MOL0     H74197   3.817   4.951   8.302 -3.7087 -0.9278 -2.0382
  550MOL0     H74198   3.668   4.989   8.385  0.4008  1.4748  0.1920
  550MOL0     H74199   3.793   4.961   8.618  0.6512 -1.1486 -0.2247
  550MOL0     H74200   3.815   5.098   8.513 -2.2659 -1.0156 -3.0969
  550MOL0     H74201   4.048   5.111   8.385 -2.0865  0.0607  0.2488
  550MOL0     H74202   4.334   5.022   8.305  3.8801 -1.2408 -1.2187
  550MOL0     H74203   4.350   5.084   8.462 -0.7449  0.4374 -1.0141
  550MOL0     H74204   4.394   4.788   8.396 -2.4001 -1.0666  4.1890
  550MOL0     H74205   4.416   4.863   8.544  0.2613 -0.5826  0.4247
  550MOL0     H74206   4.605   4.994   8.492  2.1334  2.3281 -1.5382
  550MOL0     H74207   4.565   5.018   8.325  1.3439 -0.5551  0.6951
  550MOL0     H74208   4.604   4.756   8.310 -0.2454 -1.8561  3.3019
  550MOL0     H74209   4.686   4.774   8.458  1.9636 -2.0703 -1.1595
  550MOL0     H74210   4.933   4.873   8.501 -3.2144  1.4651 -1.4181
  550MOL0     H74211   5.116   4.632   8.601 -1.7089 -0.0396 -0.2609
  550MOL0     H74212   5.265   4.715   8.547  0.2567 -0.1587 -4.3310
  550MOL0     H74213   5.143   4.809   8.610  2.2383 -1.7095  1.6232
  550MOL0     H74214   5.480   4.463   8.280 -1.3944 -0.4268 -2.7764
  550MOL0     H74215   5.636   4.281   8.308  0.3553  2.6527  3.1602
  550MOL0     H74216   5.744   4.093   8.222  2.3761 -1.4195  0.6595
  550MOL0     H74217   5.758   4.062   8.395  0.4158  0.4038  0.1634
  550MOL0     H74218   5.883   3.887   8.288 -0.0575 -0.3778 -0.5075
  550MOL0     H74219   5.750   3.817   8.374  0.5613 -1.6066 -0.8170
  550MOL0     H74220   5.764   3.863   8.069 -2.4394  0.7696 -0.3300
  550MOL0     H74221   5.625   3.788   8.154  0.0908  0.8765 -0.3279
  550MOL0     H74222   5.738   3.605   8.071  0.9565  0.4016 -1.7569
  550MOL0     H74223   5.896   3.668   8.122  0.1533  2.7550  2.3829
  550MOL0     H74224   5.696   3.603   8.337  1.6729  0.0606  2.9112
  550MOL0     H74225   5.865   3.605   8.341  0.1683 -0.1401 -0.6615
  550MOL0     H74226   5.786   3.368   8.333 -1.8170  0.6715 -0.1858
  550MOL0     H74227   5.705   3.409   8.182  0.9535  0.0303 -1.6222
  550MOL0     H74228   6.017   3.419   8.219  1.3299 -2.1262 -0.4948
  550MOL0     H74229   5.929   3.446   8.063 -2.6067 -3.5100 -1.0923
  550MOL0     H74230   6.005   3.245   8.036 -0.4654  0.3592  0.1139
  550MOL0     H74231   5.854   3.202   8.127 -2.5577  1.6687  1.5272
  550MOL0     H74232   5.313   3.997   8.320 -2.1795  1.3104 -0.2610
  550MOL0     H74233   5.152   4.194   8.296 -0.4212 -2.4605 -1.1154
  550MOL0     H74234   5.078   4.613   8.106  0.2005 -0.2544 -0.0299
  550MOL0     H74235   4.870   4.753   8.089 -0.6584 -0.5297 -0.6229
  550MOL0     H74236   3.895   4.033   8.189  2.0216 -0.9851  0.8995
  550MOL0     H74237   4.101   3.913   8.116 -0.0334  0.8257  1.8687
  550MOL0     H74238   4.636   3.923   8.137 -1.5547  0.5128  0.7417
  550MOL0     H74239   4.818   3.822   8.026 -0.4615 -1.3006  1.5717
  550MOL0     H74240   5.035   3.764   7.703  1.9453 -1.2234  1.2382
  550MOL0     H74241   4.987   3.864   7.838 -0.8529  0.5950 -1.2041
  550MOL0     H74242   5.067   3.580   7.822  1.8926  1.7478 -0.1106
  550MOL0     H74243   4.914   3.610   7.911  0.1856 -1.6029 -0.2587
  550MOL0     H74244   5.074   3.613   8.079  2.2871 -2.5052 -2.0584
  550MOL0     H74245   5.030   3.787   8.047 -1.3952 -2.4380  3.3661
  550MOL0     H74246   5.284   3.638   7.932 -1.2831  0.9822 -2.1934
  550MOL0     H74247   5.284   3.740   8.084  1.9230 -0.2339 -1.3137
  550MOL0     H74248   5.302   3.960   7.716 -0.6154  1.5516  1.3403
  550MOL0     H74249   4.604   3.836   7.657  0.7252 -0.3734 -0.2570
  550MOL0     H74250   4.429   3.959   7.750  1.2787  1.5617 -1.1751
  551MOL0     O74251   7.881   2.792   2.793 -0.2389 -0.2493 -0.9840
  551MOL0     C74252   7.846   2.685   2.833  0.0774  0.3738 -1.4496
  551MOL0     O74253   7.713   2.643   2.862  0.1058 -0.5010  0.3192
  551MOL0     C74254   7.614   2.744   2.879  0.0431 -0.2797 -0.5775
  551MOL0     C74255   7.634   2.881   2.901  0.3217  0.0000  0.7849
  551MOL0     C74256   7.527   2.965   2.926  0.4767 -0.1704 -0.4137
  551MOL0     C74257   7.391   2.925   2.919 -0.1997  0.2158  0.5587
  551MOL0     O74258   7.278   3.008   2.932  0.5103  1.1048  0.3451
  551MOL0     C74259   7.271   3.110   3.032 -0.0362  0.2170  0.0562
  551MOL0     C74260   7.294   3.054   3.175 -0.8104 -0.8689  0.6252
  551MOL0     C74261   7.168   2.972   3.223  0.1774 -0.1681  0.5091
  551MOL0     C74262   7.074   3.049   3.304 -0.5861  0.7945  0.3602
  551MOL0     C74263   6.957   2.952   3.320  0.2077  0.9415 -0.2745
  551MOL0     C74264   6.841   3.033   3.377  0.5513  0.5509 -0.2360
  551MOL0     C74265   6.712   2.941   3.350 -0.1655  0.3679  0.1112
  551MOL0     C74266   6.599   2.988   3.436 -0.7418  0.5146 -0.8653
  551MOL0     N74267   6.477   2.913   3.398 -0.2015  0.0780  0.3480
  551MOL0     C74268   6.399   2.959   3.293  0.1504  0.4761  0.1484
  551MOL0     C74269   6.296   2.872   3.279  0.4323 -0.1969 -0.9602
  551MOL0     C74270   6.181   2.882   3.179 -0.7377  0.1632 -0.3819
  551MOL0     C74271   6.039   2.894   3.236  0.0789  0.2773 -0.1137
  551MOL0     C74272   5.948   2.917   3.117  1.1869  0.4628 -0.4276
  551MOL0     C74273   5.799   2.906   3.150 -0.5792 -0.0747  0.0518
  551MOL0     O74274   5.774   3.018   3.224 -0.1246  0.0315 -0.3204
  551MOL0     C74275   5.645   3.059   3.233 -0.3239  0.1060  0.5419
  551MOL0     C74276   5.619   3.156   3.331 -0.0869  0.5394 -0.8942
  551MOL0     C74277   5.491   3.204   3.357 -0.0481 -0.6455  0.0329
  551MOL0     C74278   5.468   3.315   3.461 -0.3562 -0.4011 -0.7599
  551MOL0     C74279   5.377   3.153   3.282  0.0122  0.2520 -0.2126
  551MOL0     C74280   5.238   3.201   3.289 -0.4330 -0.2473 -0.2480
  551MOL0     O74281   5.179   3.226   3.417  0.5532  0.1370 -0.0539
  551MOL0     C74282   5.041   3.262   3.412  0.2899 -0.2157 -0.0728
  551MOL0     C74283   4.967   3.177   3.501  0.9623 -0.0264 -0.8933
  551MOL0     C74284   4.830   3.214   3.518 -0.1629  0.0609 -1.1520
  551MOL0     C74285   4.762   3.308   3.443  0.1852  0.4108  0.0668
  551MOL0     O74286   4.627   3.313   3.459 -0.2082  0.0868  0.3860
  551MOL0     C74287   4.544   3.257   3.353 -0.1100  0.7214 -0.4215
  551MOL0     C74288   4.417   3.335   3.347  0.0310  0.1197  0.1104
  551MOL0     C74289   4.315   3.268   3.253 -0.0247 -0.3042 -0.3659
  551MOL0     C74290   4.182   3.343   3.245  0.5354  1.0590 -0.4720
  551MOL0     C74291   4.089   3.313   3.361 -0.0511 -0.7371 -0.5249
  551MOL0     C74292   3.945   3.384   3.348 -0.1174 -0.0259  0.2273
  551MOL0     C74293   3.862   3.376   3.481  0.0023 -0.5547 -0.0288
  551MOL0     C74294   3.737   3.459   3.458  0.8002 -0.6211 -0.0144
  551MOL0    Cl74295   3.619   3.385   3.353 -0.1662  0.0478 -0.4278
  551MOL0     C74296   4.836   3.381   3.360 -0.1913 -0.5393 -1.2867
  551MOL0     C74297   4.975   3.366   3.344  0.9993  0.9424  0.2754
  551MOL0     O74298   5.175   3.195   3.185  0.5073 -0.6073 -0.1607
  551MOL0     C74299   5.405   3.057   3.176 -0.0054 -0.5366 -1.3755
  551MOL0     C74300   5.536   3.020   3.147  0.8364 -0.7628  0.8182
  551MOL0     N74301   6.305   2.775   3.371 -0.2924  0.6956  0.3658
  551MOL0     N74302   6.420   2.799   3.441 -0.5476  0.3091  0.5830
  551MOL0     C74303   7.372   2.789   2.895  0.6794 -0.1581  0.6656
  551MOL0     C74304   7.474   2.701   2.878  0.7853  0.1392 -0.2832
  551MOL0     C74305   7.956   2.594   2.850  0.8974 -0.0794  0.2485
  551MOL0     C74306   8.088   2.624   2.805 -0.3604  0.9612 -0.4504
  551MOL0     C74307   8.192   2.525   2.826  0.1491 -0.9298  0.3867
  551MOL0     C74308   8.167   2.410   2.892  0.3500  0.0818 -0.3659
  551MOL0     O74309   8.278   2.330   2.904  0.7405  0.2861  0.0758
  551MOL0     C74310   8.292   2.226   3.000 -0.1204  0.8406  0.4701
  551MOL0     C74311   8.423   2.146   2.949 -0.4305  0.6927 -0.0101
  551MOL0     C74312   8.457   2.033   3.045  0.6357 -0.2193  0.2299
  551MOL0     C74313   8.590   1.967   3.006  0.0251  0.3322  0.7341
  551MOL0     C74314   8.715   2.048   3.030 -0.0389 -0.0093 -0.8791
  551MOL0     C74315   8.822   2.099   3.041  0.0290  0.8340 -0.1651
  551MOL0     C74316   8.041   2.392   2.950 -0.6331  0.1846 -0.7558
  551MOL0     C74317   7.934   2.471   2.927  0.4808 -0.0495  0.5370
  551MOL0     H74318   7.734   2.920   2.920  1.6405 -3.0395  0.6915
  551MOL0     H74319   7.569   3.055   2.970  2.2746 -0.9699 -0.4100
  551MOL0     H74320   7.332   3.197   3.009 -0.2020 -0.2422 -2.3340
  551MOL0     H74321   7.170   3.147   3.015 -0.1327 -0.4004 -0.8235
  551MOL0     H74322   7.386   2.996   3.184 -0.8012 -0.6307  2.7540
  551MOL0     H74323   7.312   3.136   3.246  0.5096 -1.8926  1.5203
  551MOL0     H74324   7.121   2.930   3.133 -1.2645  0.4728  0.9355
  551MOL0     H74325   7.211   2.889   3.281  0.5024 -0.3764 -0.0179
  551MOL0     H74326   7.107   3.068   3.407  2.8237  0.7145 -0.6178
  551MOL0     H74327   7.049   3.135   3.241  1.0497  0.7962 -0.3300
  551MOL0     H74328   6.920   2.907   3.227  1.4926  0.5308 -0.6092
  551MOL0     H74329   6.985   2.866   3.381  1.5286  2.0159  0.6839
  551MOL0     H74330   6.849   3.049   3.484 -0.1899 -1.1598  0.1050
  551MOL0     H74331   6.840   3.135   3.336 -0.2374 -0.3048 -2.4920
  551MOL0     H74332   6.675   2.958   3.249  1.6879  1.7012 -0.3884
  551MOL0     H74333   6.733   2.834   3.364 -1.2162 -0.2539 -2.4537
  551MOL0     H74334   6.596   3.095   3.413  3.1608  0.6995 -1.0783
  551MOL0     H74335   6.615   2.984   3.544  0.6126  3.3923 -0.8752
  551MOL0     H74336   6.424   3.039   3.224  2.3779 -0.3657 -0.0934
  551MOL0     H74337   6.197   2.966   3.112 -1.7466  0.3535 -0.4060
  551MOL0     H74338   6.194   2.793   3.117  0.9582  1.3273 -1.7933
  551MOL0     H74339   6.021   2.972   3.311 -3.4696  0.2274 -0.7868
  551MOL0     H74340   6.011   2.800   3.283  0.5381 -0.4141 -1.1838
  551MOL0     H74341   5.969   2.838   3.044  0.2420  0.6465 -0.9094
  551MOL0     H74342   5.960   3.014   3.069 -2.0239  1.2359  0.1145
  551MOL0     H74343   5.776   2.828   3.224  0.1405  1.3970  1.8849
  551MOL0     H74344   5.745   2.904   3.055 -0.8361  0.2623  0.1907
  551MOL0     H74345   5.703   3.197   3.386 -0.1907 -0.0540 -0.2746
  551MOL0     H74346   5.383   3.292   3.526 -1.7087 -1.2637 -2.6918
  551MOL0     H74347   5.557   3.325   3.522  2.1093 -0.0998 -4.0975
  551MOL0     H74348   5.447   3.411   3.412  0.3585 -0.2716 -0.8197
  551MOL0     H74349   5.019   3.097   3.554 -0.3652 -1.2641 -1.3803
  551MOL0     H74350   4.768   3.157   3.586  0.0646 -1.8377 -2.4358
  551MOL0     H74351   4.603   3.267   3.261  1.2746 -0.5976  0.2833
  551MOL0     H74352   4.528   3.152   3.376  0.9351  0.6206 -0.0626
  551MOL0     H74353   4.369   3.336   3.445 -0.2612  0.4259 -0.0337
  551MOL0     H74354   4.438   3.438   3.316 -0.4139  0.3046  0.4259
  551MOL0     H74355   4.312   3.160   3.273 -3.5216 -0.4911 -1.2620
  551MOL0     H74356   4.349   3.277   3.149 -1.6305 -3.0670 -1.2460
  551MOL0     H74357   4.202   3.451   3.242 -0.8588  1.4235  1.5644
  551MOL0     H74358   4.136   3.306   3.153  1.2276  1.1453 -0.8652
  551MOL0     H74359   4.127   3.367   3.449 -2.9585 -1.4564  1.3217
  551MOL0     H74360   4.086   3.207   3.385 -2.0856 -0.4720  0.6488
  551MOL0     H74361   3.964   3.485   3.312  0.4384  0.0823  0.8017
  551MOL0     H74362   3.874   3.345   3.274 -0.2148  1.5039 -0.5102
  551MOL0     H74363   3.923   3.408   3.566  2.3605  0.4632 -1.9884
  551MOL0     H74364   3.833   3.271   3.495 -2.6199 -0.0060 -0.6904
  551MOL0     H74365   3.777   3.553   3.419 -3.0325  1.4300  0.5628
  551MOL0     H74366   3.673   3.490   3.542 -0.6912 -0.7828 -1.0566
  551MOL0     H74367   4.774   3.454   3.309 -0.5629 -1.1583 -1.7426
  551MOL0     H74368   5.036   3.419   3.271  0.3960  0.6722 -0.4337
  551MOL0     H74369   5.321   3.025   3.115 -2.3250  0.7634  0.9754
  551MOL0     H74370   5.544   2.955   3.061  2.6305 -0.7179  0.8989
  551MOL0     H74371   7.269   2.757   2.890  0.9859 -1.0518 -0.2637
  551MOL0     H74372   7.453   2.599   2.849  1.8541 -0.1505 -0.0931
  551MOL0     H74373   8.107   2.716   2.750 -2.4412  0.3535 -2.3304
  551MOL0     H74374   8.285   2.561   2.781 -1.2206  4.7620  1.2857
  551MOL0     H74375   8.307   2.278   3.095 -2.0217  0.3561  1.0737
  551MOL0     H74376   8.209   2.158   3.018 -0.0828  1.6466  4.6433
  551MOL0     H74377   8.508   2.214   2.942  1.7208 -1.9027 -0.9009
  551MOL0     H74378   8.402   2.104   2.850 -0.7601 -0.4191  0.5136
  551MOL0     H74379   8.380   1.954   3.048  2.1459 -1.7350  1.0169
  551MOL0     H74380   8.465   2.083   3.142  2.0025 -0.2208  0.1368
  551MOL0     H74381   8.581   1.952   2.899 -1.3272 -1.4533  1.0516
  551MOL0     H74382   8.600   1.867   3.050 -2.5307  0.3417  1.4961
  551MOL0     H74383   8.914   2.147   3.068  1.3400 -1.3562 -0.4460
  551MOL0     H74384   8.038   2.311   3.022 -1.5308  0.0179 -0.9779
  551MOL0     H74385   7.840   2.438   2.969  0.9354 -0.5418  1.2074
  552MOL0     O74386   9.767   1.566   3.045  0.0885  0.4038  0.4056
  552MOL0     C74387   9.732   1.544   3.156  0.4830 -0.2560 -0.4249
  552MOL0     O74388   9.790   1.587   3.271 -0.4100 -0.2371 -0.3762
  552MOL0     C74389   9.923   1.624   3.278 -0.2212  0.8864  0.0427
  552MOL0     C74390  10.026   1.581   3.194 -1.2043 -0.3942 -0.1268
  552MOL0     C74391  10.162   1.612   3.229 -0.1005  0.1897  1.0279
  552MOL0     C74392  10.192   1.655   3.364  0.4656 -0.0814  0.2601
  552MOL0     O74393  10.317   1.645   3.406 -0.3954 -0.0181 -0.1037
  552MOL0     C74394  10.338   1.685   3.544 -1.1536  0.0814 -0.0457
  552MOL0     C74395  10.496   1.656   3.573 -0.5972 -0.7964 -0.6356
  552MOL0     C74396  10.538   1.724   3.713 -0.3000  0.8428  0.7968
  552MOL0     C74397  10.500   1.872   3.736 -0.5649  0.3638 -0.0588
  552MOL0     C74398  10.534   1.908   3.874 -0.4808 -0.0194  0.5273
  552MOL0     C74399  10.679   1.943   3.884 -0.1856 -0.1775  0.5920
  552MOL0     C74400  10.700   1.998   4.025 -0.3157 -0.2359 -0.2175
  552MOL0     C74401  10.847   2.042   4.058 -0.7441 -0.0002 -0.1638
  552MOL0     N74402  10.848   2.102   4.194  0.7125 -0.3431 -0.0075
  552MOL0     C74403  10.803   2.227   4.222 -0.0642  0.1314  0.5557
  552MOL0     C74404  10.823   2.239   4.355  0.0715 -0.0926 -0.3021
  552MOL0     C74405  10.775   2.359   4.438  0.1093  1.0420 -0.7311
  552MOL0     C74406  10.719   2.475   4.363 -0.3789  0.9723  0.2058
  552MOL0     C74407  10.683   2.603   4.446  0.6491 -0.2316  0.7509
  552MOL0     C74408  10.803   2.678   4.485  0.0659  0.3911 -0.2701
  552MOL0     O74409  10.863   2.714   4.364  0.8076  0.0419 -0.8026
  552MOL0     C74410  10.974   2.790   4.381  0.0724 -0.0513 -0.1983
  552MOL0     C74411  11.054   2.791   4.496 -0.3928  0.2081  0.1173
  552MOL0     C74412  11.164   2.877   4.509  0.2820  0.1252 -0.0484
  552MOL0     C74413  11.242   2.884   4.645  0.5498 -0.1518 -0.2525
  552MOL0     C74414  11.202   2.958   4.396  0.1291 -0.1629 -0.1460
  552MOL0     C74415  11.325   3.044   4.395 -0.0648 -0.2768 -0.9388
  552MOL0     O74416  11.355   3.100   4.267  0.1277 -0.6911 -0.0378
  552MOL0     C74417  11.489   3.133   4.261 -0.3319 -1.2127 -0.5604
  552MOL0     C74418  11.514   3.260   4.227  0.0916 -0.2303  0.2628
  552MOL0     C74419  11.645   3.302   4.205 -0.0986  0.9127 -0.6814
  552MOL0     C74420  11.754   3.214   4.234  0.2214 -0.0826 -0.3732
  552MOL0     O74421  11.883   3.250   4.211 -0.5036  0.3149  0.2138
  552MOL0     C74422  11.920   3.387   4.207  0.2361 -0.7847 -0.4553
  552MOL0     C74423  12.072   3.414   4.224  0.3668 -0.1402  0.2869
  552MOL0     C74424  12.125   3.395   4.372 -0.2112  0.7837 -0.2829
  552MOL0     C74425  12.270   3.447   4.396  0.0946  0.5075 -0.6001
  552MOL0     C74426  12.317   3.413   4.540 -0.0814 -0.0189  0.0448
  552MOL0     C74427  12.470   3.456   4.552  0.2291  0.8519  0.1951
  552MOL0     C74428  12.490   3.609   4.526  0.1129 -0.1516  0.8736
  552MOL0     C74429  12.618   3.647   4.603  0.4441  0.4785  0.4767
  552MOL0    Cl74430  12.759   3.549   4.546 -0.0351 -0.1417  0.2459
  552MOL0     C74431  11.723   3.090   4.280 -0.9378  1.4581  0.0129
  552MOL0     C74432  11.591   3.047   4.295 -0.8437  0.9056 -1.1542
  552MOL0     O74433  11.389   3.059   4.500  0.0143 -0.8808  0.9290
  552MOL0     C74434  11.126   2.947   4.283 -0.2371  0.1968  0.3611
  552MOL0     C74435  11.016   2.867   4.278 -0.5391  0.2672  0.3753
  552MOL0     N74436  10.872   2.116   4.404 -0.2565  0.7206 -0.2720
  552MOL0     N74437  10.887   2.039   4.307 -0.0314  0.4788  0.2138
  552MOL0     C74438  10.084   1.705   3.437 -0.4230  0.7983  0.5147
  552MOL0     C74439   9.952   1.678   3.401  0.6738 -0.2198 -0.6417
  552MOL0     C74440   9.600   1.487   3.175  1.0252  0.3091 -0.4373
  552MOL0     C74441   9.508   1.449   3.075 -0.3623 -0.4558 -0.2565
  552MOL0     C74442   9.379   1.406   3.107 -0.1514 -0.1496 -0.2356
  552MOL0     C74443   9.327   1.397   3.240 -0.4915  0.7598  0.5506
  552MOL0     O74444   9.197   1.360   3.252  0.4388  0.3971  0.1476
  552MOL0     C74445   9.161   1.272   3.361 -1.0828 -0.8492 -0.1163
  552MOL0     C74446   9.044   1.186   3.326 -0.2939  0.1235 -0.0506
  552MOL0     C74447   8.909   1.260   3.367 -0.5312  0.5568  0.2572
  552MOL0     C74448   8.789   1.181   3.313 -0.7388 -0.1222 -0.1283
  552MOL0     C74449   8.788   1.173   3.166  0.7044 -0.2249 -0.1308
  552MOL0     C74450   8.780   1.134   3.050  1.0414 -1.1866  0.0171
  552MOL0     C74451   9.420   1.420   3.339  0.5413 -0.3286  0.2234
  552MOL0     C74452   9.552   1.457   3.311  0.4978 -0.1314  0.4001
  552MOL0     H74453  10.005   1.528   3.102 -1.7129 -0.1102 -0.1816
  552MOL0     H74454  10.244   1.582   3.164 -0.3854 -1.8796  1.5512
  552MOL0     H74455  10.312   1.791   3.553  1.3253  0.9641 -2.1486
  552MOL0     H74456  10.274   1.631   3.615 -0.0311 -0.0483  0.8838
  552MOL0     H74457  10.506   1.547   3.580 -1.5572 -1.0007 -2.1295
  552MOL0     H74458  10.559   1.699   3.494 -1.0155 -1.2459 -1.2207
  552MOL0     H74459  10.479   1.673   3.790  0.0797 -4.4693 -1.9551
  552MOL0     H74460  10.640   1.695   3.739 -0.9982 -0.5498  2.1660
  552MOL0     H74461  10.551   1.936   3.663 -1.9509  0.7524 -0.7329
  552MOL0     H74462  10.391   1.882   3.739 -0.4425  2.6124  3.8015
  552MOL0     H74463  10.480   1.999   3.903  2.3234  0.9592  3.1199
  552MOL0     H74464  10.510   1.825   3.940 -1.4497 -0.0199  0.1920
  552MOL0     H74465  10.735   1.850   3.870 -1.3661 -0.7495 -0.4491
  552MOL0     H74466  10.708   2.019   3.811 -0.7124 -0.3282  0.2234
  552MOL0     H74467  10.646   2.092   4.038  4.1631  2.5151  0.7809
  552MOL0     H74468  10.659   1.929   4.100 -3.1805  1.1539 -0.3736
  552MOL0     H74469  10.872   2.114   3.980  1.2453 -1.5796 -1.0796
  552MOL0     H74470  10.916   1.957   4.059 -1.2943 -0.4828  1.5747
  552MOL0     H74471  10.768   2.295   4.145  2.4159  0.0023 -0.8046
  552MOL0     H74472  10.706   2.325   4.517 -0.3383  3.3591 -0.0521
  552MOL0     H74473  10.855   2.395   4.503  1.0027 -3.5216  1.0707
  552MOL0     H74474  10.623   2.454   4.316 -0.9963  1.9632  0.9926
  552MOL0     H74475  10.788   2.492   4.280  0.6827 -3.3813 -0.0704
  552MOL0     H74476  10.622   2.574   4.533  0.6174 -0.1719  0.7485
  552MOL0     H74477  10.617   2.666   4.386  0.4676  1.9512  3.0711
  552MOL0     H74478  10.861   2.629   4.564 -1.3093 -0.1444  0.4467
  552MOL0     H74479  10.774   2.764   4.546 -1.4480 -0.4049  0.1753
  552MOL0     H74480  11.025   2.747   4.591 -0.6122  2.1258  0.9902
  552MOL0     H74481  11.194   2.822   4.721  1.1646 -2.8532 -1.8887
  552MOL0     H74482  11.345   2.847   4.640  0.9334  0.9406 -0.5246
  552MOL0     H74483  11.240   2.986   4.684 -1.2615  0.1196 -0.9743
  552MOL0     H74484  11.430   3.320   4.194  1.9678  1.2161 -2.2046
  552MOL0     H74485  11.657   3.399   4.156  1.2179  1.9831  1.5947
  552MOL0     H74486  11.890   3.433   4.112 -1.9220  0.8140  0.8942
  552MOL0     H74487  11.866   3.447   4.282 -0.9118 -1.5679 -0.6276
  552MOL0     H74488  12.136   3.343   4.170  0.6077  0.8207 -0.7316
  552MOL0     H74489  12.099   3.514   4.189 -0.1975 -0.3733 -0.8676
  552MOL0     H74490  12.127   3.288   4.395  0.6134  0.6735 -0.8461
  552MOL0     H74491  12.067   3.445   4.451 -0.3967  1.2117 -0.6896
  552MOL0     H74492  12.322   3.390   4.319 -0.2912 -2.7783  1.3703
  552MOL0     H74493  12.276   3.553   4.371 -0.7006  0.0469 -2.9456
  552MOL0     H74494  12.309   3.309   4.572 -0.5194  0.5864  2.0851
  552MOL0     H74495  12.260   3.475   4.610 -1.3135 -3.7069  2.6360
  552MOL0     H74496  12.499   3.424   4.652 -2.2970 -1.7398  0.2627
  552MOL0     H74497  12.528   3.404   4.475 -1.8401  0.8822 -1.4932
  552MOL0     H74498  12.406   3.664   4.569  1.3672  0.8653  2.1243
  552MOL0     H74499  12.509   3.643   4.424 -0.1319  2.1168  1.5322
  552MOL0     H74500  12.607   3.622   4.709 -1.6944 -0.1548  0.1426
  552MOL0     H74501  12.648   3.750   4.583  1.2791 -0.0615 -1.3083
  552MOL0     H74502  11.788   3.006   4.304 -3.8476 -0.9854 -0.1408
  552MOL0     H74503  11.567   2.943   4.315 -0.4307  1.3050  2.0011
  552MOL0     H74504  11.146   2.986   4.184 -2.2705 -0.0649 -0.1852
  552MOL0     H74505  10.956   2.872   4.188 -0.1043  0.6790  0.1011
  552MOL0     H74506  10.095   1.743   3.538  0.1212  1.3572  0.2546
  552MOL0     H74507   9.866   1.698   3.465  0.7855 -2.7705  0.4227
  552MOL0     H74508   9.536   1.476   2.973  2.0400 -1.0727  0.1865
  552MOL0     H74509   9.321   1.376   3.021 -0.7844  0.3437  0.0133
  552MOL0     H74510   9.249   1.213   3.389  0.4109  0.6220 -1.5107
  552MOL0     H74511   9.147   1.337   3.448 -0.5270 -0.4196 -0.3406
  552MOL0     H74512   9.054   1.089   3.375  0.3717  0.8502  1.3366
  552MOL0     H74513   9.044   1.172   3.218 -1.6416 -1.8899  0.1654
  552MOL0     H74514   8.895   1.361   3.327  0.2771  1.0053  1.0642
  552MOL0     H74515   8.900   1.264   3.476  1.8986  2.8022  0.4852
  552MOL0     H74516   8.698   1.237   3.335  0.1625  1.3633  0.0131
  552MOL0     H74517   8.780   1.081   3.356  1.6485 -0.1990  0.3543
  552MOL0     H74518   8.781   1.103   2.947  0.3103 -2.9391  0.4997
  552MOL0     H74519   9.378   1.416   3.439  0.6094  0.8925  0.3140
  552MOL0     H74520   9.621   1.477   3.392 -0.2105  0.8671  0.7675
  553MOL0     O74521   2.462   5.770   5.590 -0.1738  0.2132  0.2730
  553MOL0     C74522   2.547   5.851   5.568 -0.0666 -0.7483  0.5619
  553MOL0     O74523   2.521   5.982   5.519  0.4242 -0.1618 -0.4202
  553MOL0     C74524   2.399   6.017   5.462 -0.2682  0.4203 -0.0286
  553MOL0     C74525   2.302   5.915   5.413  0.1784  0.3247  0.1531
  553MOL0     C74526   2.194   5.959   5.334 -0.5340 -0.1160 -0.2652
  553MOL0     C74527   2.176   6.096   5.297  0.4698  0.6966 -0.6415
  553MOL0     O74528   2.064   6.128   5.226  0.2369  0.1286  0.2590
  553MOL0     C74529   2.030   6.266   5.196  0.1546 -0.7050  0.3149
  553MOL0     C74530   1.896   6.279   5.129  1.0405  0.0881 -0.2357
  553MOL0     C74531   1.789   6.176   5.191 -0.0221  0.0750 -0.0974
  553MOL0     C74532   1.645   6.227   5.159 -0.3434 -0.3537 -0.6511
  553MOL0     C74533   1.535   6.119   5.166  0.2467  0.5106 -0.7626
  553MOL0     C74534   1.408   6.201   5.180  0.5419  0.4099 -0.5516
  553MOL0     C74535   1.292   6.091   5.207 -0.6675 -0.2798 -0.3317
  553MOL0     C74536   1.279   6.049   5.362 -0.5265  0.5852 -0.7991
  553MOL0     N74537   1.172   5.960   5.392 -0.0332 -0.6843  0.5351
  553MOL0     C74538   1.052   5.948   5.328  0.4037 -0.5661  0.9129
  553MOL0     C74539   0.993   5.842   5.387  0.5258  0.6310 -0.1103
  553MOL0     C74540   0.858   5.786   5.355 -0.6763 -0.2664 -0.9467
  553MOL0     C74541   0.740   5.865   5.423  0.2489 -1.0644 -0.2834
  553MOL0     C74542   0.728   6.018   5.390 -0.1421 -0.9479 -0.5746
  553MOL0     C74543   0.599   6.074   5.462 -0.6372  0.0619  0.2127
  553MOL0     O74544   0.594   6.215   5.459  0.4377  0.1318  0.3811
  553MOL0     C74545   0.476   6.276   5.507  0.1250 -0.4457  0.4489
  553MOL0     C74546   0.470   6.403   5.460 -0.6545  0.2576  0.0291
  553MOL0     C74547   0.357   6.478   5.493  1.4281  0.0318 -0.6933
  553MOL0     C74548   0.344   6.612   5.423 -0.2965  0.1747 -0.8993
  553MOL0     C74549   0.253   6.425   5.570  0.3193  0.0917  0.0106
  553MOL0     C74550   0.127   6.499   5.600  0.9141  0.8466 -0.7856
  553MOL0     O74551   0.010   6.420   5.578 -0.0687  0.4540  0.2192
  553MOL0     C74552  -0.105   6.491   5.585 -0.1505  0.1964  0.0595
  553MOL0     C74553  -0.168   6.526   5.705  0.2962  0.2394 -0.7054
  553MOL0     C74554  -0.281   6.621   5.715  0.0852  0.1610  0.3026
  553MOL0     C74555  -0.330   6.667   5.594  0.3137 -0.5558 -0.1337
  553MOL0     O74556  -0.433   6.751   5.591 -0.5808  0.0213 -0.0889
  553MOL0     C74557  -0.526   6.749   5.701 -0.8012 -0.3793  0.2122
  553MOL0     C74558  -0.660   6.809   5.649  0.6536 -0.2097 -1.1601
  553MOL0     C74559  -0.768   6.841   5.762 -1.1827 -0.3572 -0.1613
  553MOL0     C74560  -0.881   6.749   5.749  1.0644  0.4480 -0.4043
  553MOL0     C74561  -0.965   6.794   5.623 -0.3006 -0.2346 -0.5155
  553MOL0     C74562  -1.112   6.768   5.675  0.9423 -0.2457  0.1020
  553MOL0     C74563  -1.217   6.843   5.588  0.3602  0.0937  0.7862
  553MOL0     C74564  -1.364   6.812   5.649  0.0519 -0.2743 -0.4084
  553MOL0    Cl74565  -1.363   6.856   5.820  0.1183  0.3100 -0.3073
  553MOL0     C74566  -0.275   6.630   5.476 -0.0585  0.0304  0.6307
  553MOL0     C74567  -0.158   6.551   5.470  0.1156  0.9697  0.5372
  553MOL0     O74568   0.134   6.598   5.665 -0.0968 -0.3538 -0.2075
  553MOL0     C74569   0.264   6.292   5.618 -0.2057  0.7231 -0.3735
  553MOL0     C74570   0.388   6.223   5.587  0.3494 -0.5537  0.9387
  553MOL0     N74571   1.072   5.795   5.488 -0.5777  0.0430 -0.6826
  553MOL0     N74572   1.177   5.869   5.493 -0.1604  0.6715 -0.4034
  553MOL0     C74573   2.280   6.183   5.327  0.0674  0.1608 -0.3331
  553MOL0     C74574   2.382   6.146   5.417 -0.0034 -0.7134 -0.6240
  553MOL0     C74575   2.694   5.827   5.592 -0.4246  0.1484 -0.5381
  553MOL0     C74576   2.750   5.700   5.608 -0.2995  0.4797 -0.2902
  553MOL0     C74577   2.887   5.675   5.629 -0.3195 -1.2977  0.1167
  553MOL0     C74578   2.977   5.788   5.627  0.0701 -0.5567  0.0076
  553MOL0     O74579   3.107   5.753   5.633  0.4890  0.3647  0.2099
  553MOL0     C74580   3.197   5.857   5.651  0.6620  0.3749  0.0265
  553MOL0     C74581   3.342   5.809   5.625  0.6456 -1.0865  0.1106
  553MOL0     C74582   3.450   5.914   5.582 -0.3634  1.0876 -0.0369
  553MOL0     C74583   3.584   5.840   5.579  0.3250 -0.6096  0.0459
  553MOL0     C74584   3.683   5.949   5.576 -0.8444  0.4139  0.1539
  553MOL0     C74585   3.762   6.038   5.571  0.1762 -0.6621  0.2275
  553MOL0     C74586   2.921   5.918   5.614 -0.2432  0.4871 -0.0370
  553MOL0     C74587   2.784   5.934   5.610  0.4406  0.0462  0.0480
  553MOL0     H74588   2.323   5.810   5.426 -0.7970  0.2000  0.8042
  553MOL0     H74589   2.109   5.898   5.302 -1.5457 -0.3457  2.5820
  553MOL0     H74590   2.033   6.333   5.283 -0.7024  1.8119 -1.4482
  553MOL0     H74591   2.102   6.319   5.133 -2.1443  0.6439 -1.3410
  553MOL0     H74592   1.848   6.377   5.133 -0.3224 -0.5429 -0.3705
  553MOL0     H74593   1.920   6.239   5.029 -0.8905 -0.5064 -0.5079
  553MOL0     H74594   1.801   6.071   5.160 -2.5631 -0.3970  0.2588
  553MOL0     H74595   1.795   6.179   5.300 -2.8324 -0.8544  0.1867
  553MOL0     H74596   1.629   6.301   5.237  2.8421  0.1234 -0.3151
  553MOL0     H74597   1.636   6.280   5.064  1.1336  1.5141  0.1844
  553MOL0     H74598   1.533   6.049   5.082 -1.9190 -0.6176  0.1307
  553MOL0     H74599   1.547   6.057   5.254  1.5350  1.2265 -0.4129
  553MOL0     H74600   1.419   6.266   5.268 -1.8911 -0.9268  0.8537
  553MOL0     H74601   1.386   6.262   5.092  0.0058 -0.0081 -0.7118
  553MOL0     H74602   1.195   6.138   5.187 -1.2523 -0.8109  1.1197
  553MOL0     H74603   1.310   6.009   5.137  2.8244  1.2044 -1.3983
  553MOL0     H74604   1.250   6.140   5.415  0.0505 -0.6648  1.8372
  553MOL0     H74605   1.376   6.017   5.400  0.1001  1.9662 -1.1516
  553MOL0     H74606   1.008   6.020   5.259 -1.2478 -0.3248  2.1651
  553MOL0     H74607   0.837   5.783   5.247 -2.1701  4.5604 -1.0644
  553MOL0     H74608   0.867   5.680   5.377  3.1729  0.0203 -0.5041
  553MOL0     H74609   0.766   5.855   5.529 -0.4492  0.0670  0.0115
  553MOL0     H74610   0.647   5.812   5.400  0.4996 -2.0493  0.8431
  553MOL0     H74611   0.719   6.040   5.283 -0.8985 -0.5318 -0.4303
  553MOL0     H74612   0.814   6.069   5.435 -0.4191 -2.3726  1.7032
  553MOL0     H74613   0.604   6.052   5.569 -2.1678  0.4474  0.3913
  553MOL0     H74614   0.512   6.028   5.414  1.3697 -1.8552 -1.8494
  553MOL0     H74615   0.545   6.433   5.388 -0.1224 -2.1167 -0.4772
  553MOL0     H74616   0.241   6.640   5.400 -0.0442 -0.7048 -3.3856
  553MOL0     H74617   0.386   6.684   5.494 -0.0179 -0.8517 -0.0020
  553MOL0     H74618   0.393   6.628   5.326  0.1170  0.8191 -0.5915
  553MOL0     H74619  -0.126   6.474   5.790  0.0031 -1.6423 -1.6482
  553MOL0     H74620  -0.301   6.660   5.814 -0.1979  0.5529  0.0908
  553MOL0     H74621  -0.542   6.645   5.733  1.5881 -1.4679 -1.8081
  553MOL0     H74622  -0.489   6.797   5.793 -2.2838 -2.1805  1.8501
  553MOL0     H74623  -0.628   6.902   5.601 -1.0925  0.0226 -1.9709
  553MOL0     H74624  -0.697   6.739   5.574  0.5707 -0.5919 -0.7680
  553MOL0     H74625  -0.801   6.943   5.737 -3.2261 -0.6465  1.1183
  553MOL0     H74626  -0.722   6.846   5.861 -0.9385  0.8407 -0.3234
  553MOL0     H74627  -0.852   6.644   5.759  0.8558  0.5835  2.7780
  553MOL0     H74628  -0.935   6.771   5.842 -1.4293  1.9764 -2.0983
  553MOL0     H74629  -0.943   6.732   5.536  1.7940 -1.9713  1.1475
  553MOL0     H74630  -0.950   6.898   5.595  2.0435 -0.8241 -1.6662
  553MOL0     H74631  -1.131   6.661   5.657  1.1215  0.0567 -2.2004
  553MOL0     H74632  -1.124   6.794   5.780 -1.5970 -3.3162  0.7327
  553MOL0     H74633  -1.203   6.815   5.483  0.6886  0.2532  0.7865
  553MOL0     H74634  -1.198   6.951   5.594 -0.9312  0.4018 -0.1680
  553MOL0     H74635  -1.375   6.704   5.639  2.7360 -0.8772  1.8515
  553MOL0     H74636  -1.448   6.862   5.600 -0.9028  0.6521  1.9960
  553MOL0     H74637  -0.317   6.663   5.382 -0.8403 -0.5523  0.7710
  553MOL0     H74638  -0.114   6.517   5.377 -1.5334 -0.6052  0.2929
  553MOL0     H74639   0.189   6.237   5.674 -2.5343  2.1284 -1.8966
  553MOL0     H74640   0.407   6.122   5.623  0.7134 -0.8379 -0.0185
  553MOL0     H74641   2.273   6.291   5.312  2.3838  0.3256 -0.7149
  553MOL0     H74642   2.456   6.219   5.448 -0.4706 -0.6593  0.4131
  553MOL0     H74643   2.682   5.615   5.612 -1.7007  1.6033  1.3096
  553MOL0     H74644   2.936   5.581   5.651 -0.5176 -1.3177  0.4736
  553MOL0     H74645   3.180   5.936   5.577 -0.0006  0.7942  0.6053
  553MOL0     H74646   3.188   5.910   5.746 -0.7674 -1.0559  0.7486
  553MOL0     H74647   3.350   5.736   5.544 -1.4038  0.3817 -1.5338
  553MOL0     H74648   3.376   5.758   5.716  3.0379  1.5411  0.8431
  553MOL0     H74649   3.451   6.005   5.644  1.2891  2.3051 -1.7125
  553MOL0     H74650   3.434   5.951   5.480  1.1324  1.8139 -0.0368
  553MOL0     H74651   3.595   5.772   5.494 -0.4317  0.7786 -1.2205
  553MOL0     H74652   3.597   5.782   5.670  0.5538  1.0214  1.0984
  553MOL0     H74653   3.838   6.113   5.580  0.8243 -1.2886  0.0652
  553MOL0     H74654   2.982   6.005   5.634 -0.5311  0.3741  1.4603
  553MOL0     H74655   2.740   6.032   5.596 -1.6344 -1.1742 -3.0929
  554MOL0     O74656   6.833  10.433   4.268  0.4798 -0.6847 -0.4877
  554MOL0     C74657   6.870  10.336   4.202  0.3073  0.1743 -0.3231
  554MOL0     O74658   6.792  10.267   4.121 -0.2638 -0.1001  0.7232
  554MOL0     C74659   6.664  10.320   4.094 -0.9249  0.1989  0.1293
  554MOL0     C74660   6.635  10.455   4.078  0.1201 -0.5134  0.3596
  554MOL0     C74661   6.513  10.488   4.013 -0.0246  0.4155 -0.6664
  554MOL0     C74662   6.415  10.392   3.990  0.1193 -0.4913  0.5655
  554MOL0     O74663   6.293  10.431   3.939  0.5002 -0.3521  0.2783
  554MOL0     C74664   6.190  10.326   3.912  0.0427 -0.6113 -0.2559
  554MOL0     C74665   6.065  10.391   3.847 -0.5769 -0.8938 -0.2421
  554MOL0     C74666   5.974  10.285   3.790 -0.1932 -0.3619  0.7438
  554MOL0     C74667   5.831  10.319   3.816 -0.4292  0.4950  0.6906
  554MOL0     C74668   5.729  10.208   3.778 -0.4171  0.3241 -0.1360
  554MOL0     C74669   5.721  10.189   3.626  0.7535 -0.3124 -0.0603
  554MOL0     C74670   5.591  10.107   3.591  0.0359  0.2174  0.3048
  554MOL0     C74671   5.565  10.132   3.440 -1.1901  0.4129  0.5196
  554MOL0     N74672   5.433  10.081   3.405 -0.8831 -0.2411  0.4839
  554MOL0     C74673   5.315  10.143   3.448  0.2435 -0.1565  0.0223
  554MOL0     C74674   5.217  10.072   3.389  0.1931  0.0725  0.0349
  554MOL0     C74675   5.069  10.109   3.378 -1.0254 -0.8905  0.0012
  554MOL0     C74676   5.040  10.212   3.269  0.6298  0.2960  0.1911
  554MOL0     C74677   5.035  10.168   3.119  0.0156 -1.0964 -0.8395
  554MOL0     C74678   5.020  10.297   3.033 -0.2073  0.8402 -0.0766
  554MOL0     O74679   4.921  10.391   3.085  0.1833 -0.1052 -0.4365
  554MOL0     C74680   4.789  10.372   3.048  0.7282 -0.1184 -0.1967
  554MOL0     C74681   4.714  10.484   3.074 -0.6174  0.8258  0.3371
  554MOL0     C74682   4.582  10.484   3.033  0.2517  0.7306 -0.0158
  554MOL0     C74683   4.519  10.626   3.057 -0.0222  0.6924  0.2978
  554MOL0     C74684   4.523  10.369   2.964  0.7641  0.3078  0.0575
  554MOL0     C74685   4.380  10.367   2.941  0.0785  0.0364  0.7542
  554MOL0     O74686   4.292  10.439   3.018  0.0069  0.7107 -0.1662
  554MOL0     C74687   4.161  10.410   3.012 -0.5972 -0.1734  0.2801
  554MOL0     C74688   4.108  10.357   3.126  0.0509 -0.2878 -0.3569
  554MOL0     C74689   3.979  10.301   3.137 -1.0605 -0.1935  0.3089
  554MOL0     C74690   3.902  10.291   3.017  0.6528 -0.0392 -0.7905
  554MOL0     O74691   3.771  10.237   3.009  0.0432 -0.7917 -0.2844
  554MOL0     C74692   3.729  10.155   3.115 -0.7039 -0.5836 -0.9753
  554MOL0     C74693   3.587  10.096   3.095  0.2618 -0.3960  0.2914
  554MOL0     C74694   3.563  10.008   2.979  0.1667  0.4393  0.2172
  554MOL0     C74695   3.439   9.936   2.993  0.8956 -0.0074 -0.4442
  554MOL0     C74696   3.422   9.837   2.872  0.3749  0.0295  0.0461
  554MOL0     C74697   3.282   9.769   2.878  0.7637  0.2864 -0.3484
  554MOL0     C74698   3.269   9.678   2.754 -0.4041  0.0834 -0.2816
  554MOL0     C74699   3.129   9.670   2.724  0.2774  0.4061  0.5350
  554MOL0    Cl74700   3.024   9.613   2.858  0.2975 -0.3420 -0.1809
  554MOL0     C74701   3.952  10.350   2.898  0.5093  0.0450 -0.6139
  554MOL0     C74702   4.073  10.414   2.902 -0.2604 -0.9470  0.6572
  554MOL0     O74703   4.347  10.296   2.844 -0.2087 -0.1915  0.1243
  554MOL0     C74704   4.610  10.261   2.942  0.7535 -0.0401 -0.4175
  554MOL0     C74705   4.736  10.256   2.988 -0.5985 -0.2697  0.1272
  554MOL0     N74706   5.275   9.977   3.308  0.4683  0.1048  0.0407
  554MOL0     N74707   5.402   9.988   3.310  0.7005 -1.1039  0.1668
  554MOL0     C74708   6.443  10.257   4.010  0.7070  0.2810 -0.9424
  554MOL0     C74709   6.577  10.226   4.052 -0.7079 -0.2467 -0.5256
  554MOL0     C74710   7.019  10.306   4.208 -0.1263 -0.4698 -0.6193
  554MOL0     C74711   7.078  10.212   4.124 -1.8409  0.3479 -0.5042
  554MOL0     C74712   7.220  10.196   4.130  0.7295 -0.0450  0.8861
  554MOL0     C74713   7.301  10.268   4.216  0.7644  0.1679  0.2162
  554MOL0     O74714   7.437  10.258   4.197 -0.3343 -0.1708 -0.3784
  554MOL0     C74715   7.529  10.316   4.289 -0.3573 -0.2928  0.6244
  554MOL0     C74716   7.676  10.289   4.257 -0.5421  1.2021  0.8028
  554MOL0     C74717   7.693  10.140   4.280  0.0024 -0.3661 -0.0433
  554MOL0     C74718   7.835  10.105   4.300 -0.2372  0.0214  0.2290
  554MOL0     C74719   7.921  10.117   4.179  0.0727 -0.4765  0.5065
  554MOL0     C74720   7.991  10.126   4.077 -0.5448 -0.2745 -0.8979
  554MOL0     C74721   7.242  10.363   4.294  1.2471 -0.2561 -0.6587
  554MOL0     C74722   7.105  10.387   4.292 -0.1748  0.1530 -0.2612
  554MOL0     H74723   6.710  10.532   4.094 -0.0371 -0.4722  0.9292
  554MOL0     H74724   6.482  10.589   3.989  0.5736  1.1232  1.4018
  554MOL0     H74725   6.227  10.255   3.837 -3.2646 -3.5144  0.5421
  554MOL0     H74726   6.155  10.273   4.002 -1.3801  0.2237 -0.2820
  554MOL0     H74727   6.018  10.459   3.918 -1.8532 -0.9082 -1.0585
  554MOL0     H74728   6.104  10.455   3.768  0.3176  0.2804  1.0915
  554MOL0     H74729   5.991  10.260   3.685  0.8938  1.4512  0.4312
  554MOL0     H74730   6.004  10.192   3.839 -0.9402  0.1437  2.2349
  554MOL0     H74731   5.810  10.346   3.920 -3.5548 -1.3180  0.6569
  554MOL0     H74732   5.820  10.411   3.757 -2.1043  0.2458  0.5547
  554MOL0     H74733   5.764  10.114   3.821 -0.0459  0.4509 -0.1537
  554MOL0     H74734   5.634  10.233   3.826  1.7243  0.5636  4.5251
  554MOL0     H74735   5.721  10.292   3.591 -0.7136  0.6804  2.5012
  554MOL0     H74736   5.804  10.132   3.585  0.4439  0.3449 -1.6494
  554MOL0     H74737   5.596  10.000   3.610 -1.3248  0.3007  1.3413
  554MOL0     H74738   5.502  10.150   3.639 -1.5983 -0.1973 -2.1715
  554MOL0     H74739   5.631  10.065   3.384 -4.1593 -2.3724  0.0797
  554MOL0     H74740   5.577  10.235   3.405 -1.0220  0.1707 -0.1459
  554MOL0     H74741   5.298  10.232   3.506  2.7104  0.3103  0.1329
  554MOL0     H74742   5.009  10.018   3.369 -1.0098 -0.8874 -0.1364
  554MOL0     H74743   5.041  10.152   3.475  1.6399  0.5749  0.2321
  554MOL0     H74744   5.106  10.298   3.278 -0.6869  1.4792 -1.0073
  554MOL0     H74745   4.938  10.248   3.289  0.8359  0.8220  0.2938
  554MOL0     H74746   4.950  10.101   3.103 -3.6176  3.0232 -0.7316
  554MOL0     H74747   5.128  10.120   3.086 -0.4884 -0.4734 -3.4284
  554MOL0     H74748   4.999  10.278   2.928  2.3600  2.1313 -0.9230
  554MOL0     H74749   5.110  10.359   3.042  1.3220 -1.1883 -0.5523
  554MOL0     H74750   4.770  10.565   3.121  0.3594  1.1627 -1.3380
  554MOL0     H74751   4.440  10.660   2.988 -0.4352  0.4694  0.6555
  554MOL0     H74752   4.489  10.630   3.162 -0.0653 -0.5837  0.3567
  554MOL0     H74753   4.588  10.710   3.050 -1.0407  2.0236  4.1165
  554MOL0     H74754   4.169  10.360   3.215 -1.2693  0.4357  0.5497
  554MOL0     H74755   3.935  10.251   3.223 -1.6215 -0.3585 -0.0637
  554MOL0     H74756   3.795  10.068   3.126 -0.7952 -0.6029 -0.5676
  554MOL0     H74757   3.726  10.213   3.207 -0.2566 -1.2244 -0.5433
  554MOL0     H74758   3.548  10.047   3.185  0.9412 -0.3484  0.6209
  554MOL0     H74759   3.517  10.176   3.067 -1.9312 -2.3720 -0.1336
  554MOL0     H74760   3.649   9.940   2.967 -0.4165 -0.7183  2.2524
  554MOL0     H74761   3.555  10.056   2.881 -1.8431 -1.0737 -0.4283
  554MOL0     H74762   3.432   9.884   3.090 -0.2747  1.9947  0.6074
  554MOL0     H74763   3.352  10.002   2.994  0.0321 -1.0614 -1.9639
  554MOL0     H74764   3.504   9.764   2.862 -1.4577 -2.0124 -0.9703
  554MOL0     H74765   3.425   9.904   2.785 -0.6779  1.9207  1.3969
  554MOL0     H74766   3.270   9.715   2.973 -3.1498  0.8688 -0.3401
  554MOL0     H74767   3.206   9.848   2.873 -0.6487 -1.0952 -1.5487
  554MOL0     H74768   3.321   9.585   2.781  2.5035  2.1778  2.0069
  554MOL0     H74769   3.324   9.716   2.668 -0.4184 -2.0093 -1.2837
  554MOL0     H74770   3.114   9.610   2.634  0.0233  1.0930  0.1061
  554MOL0     H74771   3.088   9.764   2.685 -0.5959 -0.6191 -1.1424
  554MOL0     H74772   3.907  10.348   2.799  2.0034  2.4094 -1.4334
  554MOL0     H74773   4.109  10.453   2.808  0.8821 -1.7527  0.7446
  554MOL0     H74774   4.558  10.178   2.895 -2.4221 -0.0844  2.7164
  554MOL0     H74775   4.790  10.166   2.961 -2.2862 -1.5909  0.9496
  554MOL0     H74776   6.369  10.183   3.982  0.2161  0.0451  0.8104
  554MOL0     H74777   6.604  10.121   4.050 -1.7478 -0.5328 -0.0789
  554MOL0     H74778   7.016  10.158   4.053 -5.2999  2.5132  0.6021
  554MOL0     H74779   7.266  10.127   4.060  1.1986  0.7017  0.4387
  554MOL0     H74780   7.510  10.424   4.296  1.1653  0.3320 -2.8391
  554MOL0     H74781   7.505  10.271   4.386 -2.4161 -0.7765 -0.0575
  554MOL0     H74782   7.734  10.364   4.311 -1.6205  2.3886  0.3741
  554MOL0     H74783   7.708  10.305   4.153 -1.5539 -0.4763  0.1931
  554MOL0     H74784   7.649  10.077   4.202  3.8157 -1.9850 -1.1184
  554MOL0     H74785   7.645  10.118   4.376 -1.8442 -1.9405 -1.2397
  554MOL0     H74786   7.817  10.002   4.333 -1.7931  0.4124  0.7152
  554MOL0     H74787   7.880  10.167   4.378 -1.3240  1.0000  0.1214
  554MOL0     H74788   8.065  10.119   4.001  2.0734 -2.8048  1.6221
  554MOL0     H74789   7.284  10.424   4.373 -0.6424 -0.5601  0.6497
  554MOL0     H74790   7.070  10.470   4.352  0.4077 -1.7995  3.0793
  555MOL0     O74791   5.516   8.368   1.650 -0.6054 -0.0581  0.5878
  555MOL0     C74792   5.570   8.439   1.562 -0.6818 -0.1483  0.6616
  555MOL0     O74793   5.520   8.467   1.437  0.0372 -0.3932 -0.3418
  555MOL0     C74794   5.399   8.417   1.401  1.1079 -0.0307  0.0367
  555MOL0     C74795   5.283   8.409   1.486 -0.6544  0.5390  0.0012
  555MOL0     C74796   5.163   8.355   1.437  0.2143 -0.3326  0.5562
  555MOL0     C74797   5.155   8.310   1.302  0.5065 -0.4840  0.6734
  555MOL0     O74798   5.029   8.270   1.254 -0.0543 -0.0209  0.2273
  555MOL0     C74799   5.036   8.128   1.214  0.4706 -0.4937 -0.1000
  555MOL0     C74800   5.057   8.032   1.337  0.6206 -0.7615  0.2031
  555MOL0     C74801   4.936   8.062   1.437 -0.1051 -0.7022  0.1490
  555MOL0     C74802   4.927   7.946   1.541  0.1988 -0.9803  0.0574
  555MOL0     C74803   4.816   7.970   1.649 -0.6496  0.1910 -0.4319
  555MOL0     C74804   4.683   7.914   1.599 -0.5276 -0.2740 -0.0856
  555MOL0     C74805   4.576   7.914   1.703  0.0775 -0.1842  0.4391
  555MOL0     C74806   4.459   7.827   1.674  0.3096 -0.3417  1.0901
  555MOL0     N74807   4.387   7.847   1.543 -0.0588 -0.5354  0.1674
  555MOL0     C74808   4.324   7.967   1.516  0.2633 -0.3450  0.1413
  555MOL0     C74809   4.245   7.936   1.402 -0.0144  0.0325 -0.7210
  555MOL0     C74810   4.151   8.031   1.328 -0.1845  0.0230  0.6903
  555MOL0     C74811   4.010   8.047   1.383  0.6014  0.6462  0.2910
  555MOL0     C74812   3.929   7.912   1.371  0.9661  0.0840 -0.7188
  555MOL0     C74813   3.870   7.884   1.231  0.0034  0.0877 -0.4680
  555MOL0     O74814   3.773   7.773   1.246 -0.3281 -0.7135  0.6573
  555MOL0     C74815   3.681   7.786   1.146 -0.4325 -0.0065  0.4753
  555MOL0     C74816   3.544   7.778   1.174 -0.2641  0.9744  0.4899
  555MOL0     C74817   3.452   7.750   1.070 -0.5795 -0.3615  0.3584
  555MOL0     C74818   3.306   7.740   1.098  0.3583  0.3730 -0.6648
  555MOL0     C74819   3.506   7.756   0.930 -0.2293 -0.4597 -0.6807
  555MOL0     C74820   3.418   7.738   0.811 -1.0092  0.0157 -0.5650
  555MOL0     O74821   3.463   7.811   0.709  1.2056  0.6069  0.4209
  555MOL0     C74822   3.389   7.818   0.592 -0.8308  0.2950  1.4409
  555MOL0     C74823   3.257   7.872   0.583 -1.0627  0.2581  0.5225
  555MOL0     C74824   3.188   7.879   0.464  0.3574 -0.4723 -0.3343
  555MOL0     C74825   3.246   7.839   0.343  0.6018  0.8531 -0.0745
  555MOL0     O74826   3.181   7.857   0.218 -0.2148 -0.4596 -0.8602
  555MOL0     C74827   3.066   7.941   0.213 -0.1255 -0.0631  0.3118
  555MOL0     C74828   3.015   7.972   0.068 -0.2110  0.7520  0.0747
  555MOL0     C74829   2.886   8.053   0.064  0.1887 -0.7574 -0.1167
  555MOL0     C74830   2.843   8.082  -0.079  0.9412 -0.2805  0.5513
  555MOL0     C74831   2.698   8.157  -0.078 -0.2622  0.3587  0.2583
  555MOL0     C74832   2.649   8.200  -0.216  0.3364  0.3793  0.3851
  555MOL0     C74833   2.513   8.271  -0.211 -0.0783  0.3622 -0.1530
  555MOL0     C74834   2.480   8.342  -0.350 -0.2442  0.9251 -0.0303
  555MOL0    Cl74835   2.620   8.437  -0.420  0.4106  0.5519 -0.2735
  555MOL0     C74836   3.379   7.777   0.346  0.4686 -0.2751 -0.5458
  555MOL0     C74837   3.441   7.771   0.475 -0.3672  0.4208  0.1704
  555MOL0     O74838   3.317   7.666   0.812 -0.1856 -0.5315 -0.3000
  555MOL0     C74839   3.643   7.765   0.907 -0.2970  0.1709  0.7475
  555MOL0     C74840   3.730   7.777   1.014 -0.1249 -0.2996 -0.2582
  555MOL0     N74841   4.260   7.809   1.368 -1.0959  0.3135  0.6112
  555MOL0     N74842   4.347   7.750   1.452 -0.2963 -0.0586  0.0718
  555MOL0     C74843   5.259   8.336   1.213 -0.1635  0.0963  1.2507
  555MOL0     C74844   5.380   8.384   1.262 -0.9215 -0.0279  0.0010
  555MOL0     C74845   5.708   8.482   1.603  0.1621  0.5660 -0.3541
  555MOL0     C74846   5.790   8.559   1.518  0.1449 -0.6519  0.2833
  555MOL0     C74847   5.915   8.600   1.560 -0.6235 -0.7500 -0.0847
  555MOL0     C74848   5.961   8.583   1.692  0.8457  0.6952 -0.7786
  555MOL0     O74849   6.089   8.618   1.732 -0.4846  0.2510 -0.2883
  555MOL0     C74850   6.190   8.557   1.648 -0.0810  0.4441  0.0373
  555MOL0     C74851   6.318   8.579   1.729 -1.6151 -1.1581  0.2368
  555MOL0     C74852   6.356   8.727   1.725  1.0098 -0.2272  0.6268
  555MOL0     C74853   6.493   8.771   1.773 -0.0444  0.6292 -0.0569
  555MOL0     C74854   6.533   8.908   1.772  0.2788  0.4141  1.0450
  555MOL0     C74855   6.585   9.016   1.775  0.6439  0.6737  0.6174
  555MOL0     C74856   5.882   8.522   1.780  0.0382  0.2872 -0.3885
  555MOL0     C74857   5.757   8.473   1.739  0.0399 -0.6304 -0.0757
  555MOL0     H74858   5.278   8.439   1.589  0.3732 -0.5226  0.3950
  555MOL0     H74859   5.073   8.354   1.498 -0.1967  0.7467 -0.0014
  555MOL0     H74860   4.935   8.103   1.182 -0.3733 -0.4133  2.3323
  555MOL0     H74861   5.118   8.114   1.143 -0.6395 -3.6388 -0.9082
  555MOL0     H74862   5.053   7.929   1.302 -1.2157  0.1205 -2.5191
  555MOL0     H74863   5.154   8.058   1.381  0.3275  0.9475 -0.0673
  555MOL0     H74864   4.949   8.150   1.500 -2.1639 -1.4074  1.6657
  555MOL0     H74865   4.844   8.085   1.384 -1.9350  0.6833  3.6335
  555MOL0     H74866   4.905   7.859   1.478  1.5853 -0.2076 -1.5745
  555MOL0     H74867   5.026   7.922   1.582  0.5694  0.1476 -0.1464
  555MOL0     H74868   4.857   7.924   1.740  1.2872  5.9820  2.0952
  555MOL0     H74869   4.799   8.073   1.682 -1.4927  0.7090 -2.3401
  555MOL0     H74870   4.652   7.964   1.507  2.8638 -0.4163 -1.4382
  555MOL0     H74871   4.698   7.813   1.560 -2.3447 -1.6946  2.6192
  555MOL0     H74872   4.618   7.878   1.797  0.8206  1.9610  0.9688
  555MOL0     H74873   4.525   8.011   1.698  2.2993  0.9808 -0.9282
  555MOL0     H74874   4.390   7.849   1.756  1.1516 -0.2171  1.7787
  555MOL0     H74875   4.491   7.722   1.668 -0.1014 -0.4834  1.2883
  555MOL0     H74876   4.336   8.064   1.563 -0.4774  1.4694 -3.1259
  555MOL0     H74877   4.200   8.129   1.339  0.3399 -0.4233  2.8395
  555MOL0     H74878   4.140   8.003   1.223  2.9040 -0.4130  0.4017
  555MOL0     H74879   3.952   8.120   1.326 -1.9269 -1.4016  0.0934
  555MOL0     H74880   4.009   8.072   1.490  0.4905 -2.5761  1.1412
  555MOL0     H74881   3.842   7.919   1.437  1.9141 -3.4752  1.2125
  555MOL0     H74882   3.991   7.836   1.419  1.6458  0.6694 -0.6589
  555MOL0     H74883   3.952   7.865   1.161  0.6674  1.9020 -0.2477
  555MOL0     H74884   3.821   7.978   1.205  1.4588  0.0791 -3.7083
  555MOL0     H74885   3.514   7.782   1.278  1.7561 -4.6515  1.6281
  555MOL0     H74886   3.284   7.637   1.125 -0.5078  1.3015  2.5952
  555MOL0     H74887   3.288   7.788   1.195  1.2121  0.6459 -0.6300
  555MOL0     H74888   3.235   7.780   1.026  0.5579  2.2353  0.1108
  555MOL0     H74889   3.203   7.911   0.668 -0.4708 -0.5220  1.2756
  555MOL0     H74890   3.090   7.925   0.476  1.0050  0.5822  1.1491
  555MOL0     H74891   2.984   7.888   0.262 -1.6379  2.7426  1.0420
  555MOL0     H74892   3.076   8.040   0.258 -0.2379  1.1094 -2.0727
  555MOL0     H74893   3.099   8.024   0.019  0.9221 -0.8221  0.2737
  555MOL0     H74894   3.003   7.878   0.013  1.1086  1.1256 -0.9161
  555MOL0     H74895   2.910   8.142   0.123  2.7490 -2.3151  1.3427
  555MOL0     H74896   2.809   7.985   0.100 -0.4482 -0.0057 -0.0291
  555MOL0     H74897   2.913   8.155  -0.120  0.7625  0.8614  2.1943
  555MOL0     H74898   2.831   7.993  -0.142 -2.0869  0.8078 -0.5612
  555MOL0     H74899   2.700   8.252  -0.024  0.6892  0.7777 -0.4975
  555MOL0     H74900   2.622   8.102  -0.021  1.8732  1.3997  4.4895
  555MOL0     H74901   2.724   8.270  -0.254  1.6243 -1.1293  0.0515
  555MOL0     H74902   2.659   8.117  -0.287  3.1299  2.2708 -1.7055
  555MOL0     H74903   2.532   8.353  -0.140 -1.0901 -0.2070  0.8086
  555MOL0     H74904   2.433   8.207  -0.174 -0.4009 -2.1029 -4.5283
  555MOL0     H74905   2.401   8.415  -0.331 -1.1300 -0.4857  2.0710
  555MOL0     H74906   2.450   8.258  -0.413  1.0670 -0.0334  0.5873
  555MOL0     H74907   3.429   7.741   0.257  0.0338 -1.1676 -0.4401
  555MOL0     H74908   3.541   7.730   0.487 -1.4800 -2.5338  0.2032
  555MOL0     H74909   3.684   7.755   0.807  3.8057  1.4588  2.0838
  555MOL0     H74910   3.834   7.786   0.986  0.2911 -2.0508  0.6173
  555MOL0     H74911   5.252   8.315   1.107  1.8894 -2.5130  1.5472
  555MOL0     H74912   5.463   8.396   1.194 -1.1911  0.7770 -0.1954
  555MOL0     H74913   5.774   8.576   1.412  1.3877  1.7658  0.4040
  555MOL0     H74914   5.986   8.654   1.498  0.9513 -0.8093  1.5894
  555MOL0     H74915   6.172   8.451   1.629 -0.1825  0.4549  0.0718
  555MOL0     H74916   6.203   8.618   1.558  2.8975  0.1258  0.1644
  555MOL0     H74917   6.401   8.516   1.693 -1.2584 -0.3820 -0.3166
  555MOL0     H74918   6.297   8.548   1.832 -2.4019  1.9187  1.0802
  555MOL0     H74919   6.290   8.781   1.795  3.0252 -1.0705  3.3757
  555MOL0     H74920   6.343   8.762   1.622  0.3878  0.3236  0.8795
  555MOL0     H74921   6.570   8.729   1.706  3.0233  3.6232  1.2684
  555MOL0     H74922   6.517   8.731   1.872  2.6956 -1.3425 -1.3514
  555MOL0     H74923   6.623   9.115   1.786 -1.1097  1.4687 -0.0129
  555MOL0     H74924   5.906   8.508   1.885 -1.0694 -0.4581 -0.2062
  555MOL0     H74925   5.694   8.429   1.815 -0.6580 -0.4882 -0.5667
  556MOL0     O74926   4.547   1.837   6.172 -0.3718  0.0191  0.4118
  556MOL0     C74927   4.509   1.899   6.272 -0.2372 -0.0858 -0.2081
  556MOL0     O74928   4.379   1.925   6.306  0.7831  0.0268 -0.4725
  556MOL0     C74929   4.276   1.889   6.227  0.9022  0.8730  0.4671
  556MOL0     C74930   4.267   1.766   6.170  1.0937  0.0265  0.1212
  556MOL0     C74931   4.156   1.733   6.088  0.4248  0.5026 -0.2658
  556MOL0     C74932   4.060   1.835   6.051  0.2221 -0.4570  0.1467
  556MOL0     O74933   3.951   1.828   5.970  0.2815  0.3058 -0.1338
  556MOL0     C74934   3.899   1.683   5.967  0.2274 -0.6167  0.1131
  556MOL0     C74935   3.751   1.697   5.927 -0.1731 -0.4349  0.0695
  556MOL0     C74936   3.699   1.574   5.856  0.4822 -0.0329 -0.4711
  556MOL0     C74937   3.551   1.602   5.813 -0.1045 -0.1220 -0.4364
  556MOL0     C74938   3.489   1.511   5.716  0.0300 -0.0472  0.7840
  556MOL0     C74939   3.335   1.518   5.698 -0.4827  0.8737  0.3175
  556MOL0     C74940   3.279   1.398   5.611  0.2195  0.2728  0.2634
  556MOL0     C74941   3.124   1.403   5.594  0.5942 -0.1365 -0.3424
  556MOL0     N74942   3.078   1.307   5.505  0.3372  0.3441  0.4715
  556MOL0     C74943   3.019   1.325   5.381  1.0738  0.1369 -0.7036
  556MOL0     C74944   3.002   1.202   5.328  0.3564 -0.2677 -0.1536
  556MOL0     C74945   2.941   1.159   5.202 -0.3102  0.2899  0.8110
  556MOL0     C74946   2.793   1.204   5.189  0.0467 -0.1611 -0.1133
  556MOL0     C74947   2.707   1.144   5.303  0.4069 -0.3129 -0.3688
  556MOL0     C74948   2.557   1.182   5.272 -0.1959  0.0573  0.1930
  556MOL0     O74949   2.518   1.097   5.167 -0.7597  0.0152  0.6949
  556MOL0     C74950   2.380   1.080   5.145 -0.2418 -0.4749  0.3858
  556MOL0     C74951   2.295   1.030   5.244 -0.1952  0.0172 -0.2437
  556MOL0     C74952   2.156   1.021   5.220 -1.0784 -0.1354  0.4042
  556MOL0     C74953   2.077   0.972   5.333 -0.0304  0.0709 -0.1497
  556MOL0     C74954   2.107   1.063   5.099 -0.0332 -0.3665  1.2163
  556MOL0     C74955   1.958   1.088   5.066  0.3005  0.1531  0.5931
  556MOL0     O74956   1.854   1.050   5.146 -0.1038 -0.7359  0.2451
  556MOL0     C74957   1.719   1.091   5.122 -0.2127 -0.0130  1.8404
  556MOL0     C74958   1.615   1.004   5.141 -0.5102  0.3450  0.1538
  556MOL0     C74959   1.483   1.047   5.122 -0.8880  0.2415  0.8271
  556MOL0     C74960   1.448   1.181   5.100 -0.6309  0.9575  0.4140
  556MOL0     O74961   1.318   1.209   5.092 -0.2611  0.2255  0.2384
  556MOL0     C74962   1.273   1.342   5.105 -0.6869  0.4681 -0.4573
  556MOL0     C74963   1.124   1.353   5.109 -0.5401 -0.7598  0.5166
  556MOL0     C74964   1.066   1.374   4.970  0.4498  0.6832 -0.2672
  556MOL0     C74965   0.917   1.372   4.971  0.3415  0.2456  0.6623
  556MOL0     C74966   0.876   1.370   4.822  0.8751 -0.5056  0.4429
  556MOL0     C74967   0.723   1.388   4.813 -0.7096  0.6077 -0.4838
  556MOL0     C74968   0.688   1.421   4.670  0.1614  0.5900  0.3977
  556MOL0     C74969   0.536   1.414   4.642 -0.5058 -0.0879 -0.2040
  556MOL0    Cl74970   0.435   1.521   4.724  0.2137  0.0171 -0.3414
  556MOL0     C74971   1.550   1.273   5.085 -0.0742  0.3077 -0.5156
  556MOL0     C74972   1.683   1.230   5.090 -0.2134 -0.5923 -0.3763
  556MOL0     O74973   1.933   1.143   4.958 -0.5333 -0.8483  0.7353
  556MOL0     C74974   2.195   1.118   5.004 -0.3017 -0.7099 -0.5838
  556MOL0     C74975   2.332   1.129   5.026 -0.1380  0.0403  0.2575
  556MOL0     N74976   3.039   1.104   5.421  0.0541 -0.7698  0.3726
  556MOL0     N74977   3.102   1.173   5.523 -0.3619 -0.4825 -0.3310
  556MOL0     C74978   4.071   1.959   6.105 -0.0626 -0.5483  0.5722
  556MOL0     C74979   4.172   1.983   6.201 -0.7873  0.7603  0.1330
  556MOL0     C74980   4.610   1.944   6.369  0.1518  0.5283 -0.1315
  556MOL0     C74981   4.739   1.981   6.319  0.0283 -0.5618  0.0259
  556MOL0     C74982   4.828   2.040   6.403  0.0265 -0.0143  0.9586
  556MOL0     C74983   4.809   2.044   6.543  0.8074 -0.0586  0.6686
  556MOL0     O74984   4.910   2.107   6.612 -0.6535 -0.3642  0.4830
  556MOL0     C74985   4.892   2.114   6.760  0.5118  0.3616  0.8711
  556MOL0     C74986   4.989   2.194   6.830  0.3199 -0.2950  0.6089
  556MOL0     C74987   4.941   2.249   6.955 -0.2994 -0.6287 -0.3432
  556MOL0     C74988   4.991   2.400   6.977  0.7148  0.5737  0.5022
  556MOL0     C74989   5.136   2.394   6.997  0.7466 -0.0662 -0.0237
  556MOL0     C74990   5.255   2.402   7.022 -1.2082  1.4048  0.1606
  556MOL0     C74991   4.696   1.990   6.594 -0.1572  0.8483 -0.1269
  556MOL0     C74992   4.593   1.947   6.507 -0.7596  0.6666 -0.5333
  556MOL0     H74993   4.351   1.700   6.188 -0.0613 -2.0332 -1.6364
  556MOL0     H74994   4.147   1.637   6.037 -0.3690  0.7849 -0.6616
  556MOL0     H74995   3.957   1.619   5.900  1.0925  2.1910 -2.0041
  556MOL0     H74996   3.915   1.645   6.068  2.6863  3.1144  1.3520
  556MOL0     H74997   3.706   1.723   6.023  0.1453 -2.2393  0.7429
  556MOL0     H74998   3.734   1.779   5.857 -0.9681 -2.0296 -1.6850
  556MOL0     H74999   3.751   1.562   5.761 -1.1286 -0.5430 -1.3248
  556MOL0     H75000   3.701   1.480   5.912 -3.5560 -0.3596 -0.5142
  556MOL0     H75001   3.483   1.606   5.898 -0.7231  1.5175 -0.9756
  556MOL0     H75002   3.554   1.705   5.776  1.0225  0.4464  1.1010
  556MOL0     H75003   3.539   1.545   5.624 -1.9324  1.9701  0.3860
  556MOL0     H75004   3.530   1.411   5.732  2.0443  0.8966  1.9671
  556MOL0     H75005   3.296   1.508   5.800  0.4295 -1.2841  0.5033
  556MOL0     H75006   3.316   1.616   5.652  0.1909 -0.5602 -3.3534
  556MOL0     H75007   3.324   1.401   5.511  0.5063 -0.9488  0.3362
  556MOL0     H75008   3.307   1.299   5.646 -1.7274 -0.4818 -0.1837
  556MOL0     H75009   3.092   1.504   5.569  5.9834  1.7210 -1.1634
  556MOL0     H75010   3.083   1.380   5.693 -4.7278  2.8462 -1.5059
  556MOL0     H75011   2.996   1.415   5.325 -2.2559 -0.4677 -0.5475
  556MOL0     H75012   3.001   1.216   5.131 -1.9520 -0.9431 -1.7220
  556MOL0     H75013   2.953   1.051   5.191 -2.2200  0.1667 -0.5757
  556MOL0     H75014   2.749   1.192   5.089 -0.0245 -1.9542  0.1058
  556MOL0     H75015   2.799   1.312   5.208  0.6246 -0.3115  0.5924
  556MOL0     H75016   2.729   1.186   5.401  0.9617  0.0281 -0.6319
  556MOL0     H75017   2.710   1.034   5.304 -1.7474 -0.4097  0.2421
  556MOL0     H75018   2.544   1.288   5.248 -1.8447 -0.2111 -0.2100
  556MOL0     H75019   2.494   1.169   5.360 -1.6024 -0.7940 -0.8935
  556MOL0     H75020   2.339   0.995   5.337 -1.1656 -0.2303  0.1336
  556MOL0     H75021   1.990   1.033   5.359  0.6832  0.4407  1.5454
  556MOL0     H75022   2.036   0.873   5.312 -1.8373  0.7640 -0.0605
  556MOL0     H75023   2.142   0.949   5.418 -0.2705  0.3364  0.1108
  556MOL0     H75024   1.640   0.901   5.168 -3.1105 -0.4692 -0.2470
  556MOL0     H75025   1.397   0.982   5.129 -0.8981  0.0792 -0.4972
  556MOL0     H75026   1.306   1.371   5.206  1.5886 -2.6848 -0.1440
  556MOL0     H75027   1.319   1.407   5.031 -2.7780  1.2815 -1.1238
  556MOL0     H75028   1.081   1.265   5.157 -0.1722 -0.0654  2.1864
  556MOL0     H75029   1.089   1.438   5.168 -0.1464  0.4671 -0.9390
  556MOL0     H75030   1.109   1.289   4.916  3.3823 -0.6689  3.6907
  556MOL0     H75031   1.101   1.468   4.927  0.4257  1.5347  1.4619
  556MOL0     H75032   0.883   1.277   5.012 -0.8523  1.2851  2.1860
  556MOL0     H75033   0.886   1.456   5.034  0.2004  0.2826  0.5450
  556MOL0     H75034   0.911   1.281   4.770  2.3222 -0.0196  0.5564
  556MOL0     H75035   0.929   1.456   4.779 -1.1462  1.7561  2.1176
  556MOL0     H75036   0.675   1.292   4.837 -0.0773  0.8616  2.0866
  556MOL0     H75037   0.688   1.471   4.876  1.1795  0.2917  1.0853
  556MOL0     H75038   0.725   1.332   4.618  1.8114  0.1120  2.2503
  556MOL0     H75039   0.729   1.513   4.627 -0.6434 -0.4001 -2.7563
  556MOL0     H75040   0.499   1.315   4.674 -0.7591  0.6414  1.9459
  556MOL0     H75041   0.526   1.419   4.534  0.5285  0.6054 -0.2784
  556MOL0     H75042   1.524   1.377   5.069 -0.6865  0.5964  1.9526
  556MOL0     H75043   1.749   1.313   5.066 -1.8233  0.1197 -2.6351
  556MOL0     H75044   2.155   1.164   4.914  1.3781  1.2338 -0.4251
  556MOL0     H75045   2.394   1.172   4.949  5.1296 -2.7659  2.4227
  556MOL0     H75046   4.009   2.047   6.087  0.6887 -0.1769 -0.2401
  556MOL0     H75047   4.172   2.078   6.253 -0.6690  1.4877 -1.1433
  556MOL0     H75048   4.759   1.978   6.213 -0.6125  1.0751 -0.1762
  556MOL0     H75049   4.928   2.057   6.364 -1.5749  2.1616 -2.6993
  556MOL0     H75050   4.793   2.158   6.777 -0.1557 -0.6007 -0.3659
  556MOL0     H75051   4.890   2.015   6.807  1.0507  0.2732  0.7081
  556MOL0     H75052   5.022   2.279   6.770  1.1756 -1.8494 -1.2162
  556MOL0     H75053   5.082   2.139   6.840  0.4148 -0.6024 -1.5353
  556MOL0     H75054   4.978   2.195   7.043  0.2303 -0.3317 -0.3736
  556MOL0     H75055   4.835   2.270   6.969  0.2620  0.8156  2.5565
  556MOL0     H75056   4.937   2.443   7.062 -0.5837  0.0799 -0.0474
  556MOL0     H75057   4.967   2.460   6.889  0.0614  0.0051  0.2829
  556MOL0     H75058   5.357   2.415   7.052 -1.5645 -1.5300  3.1906
  556MOL0     H75059   4.676   1.984   6.701  1.3428  3.9044  0.4471
  556MOL0     H75060   4.506   1.903   6.553 -0.6666  1.9139  0.9390
  557MOL0     O75061   4.322   6.580   8.693  0.8581  0.1264  0.0687
  557MOL0     C75062   4.344   6.698   8.674  0.1707 -0.1581  0.1843
  557MOL0     O75063   4.248   6.794   8.695  0.0391 -0.3514  0.0438
  557MOL0     C75064   4.115   6.769   8.707 -0.4710 -0.4602 -0.0809
  557MOL0     C75065   4.047   6.661   8.644  0.1017  0.4292 -1.1842
  557MOL0     C75066   3.912   6.637   8.663 -0.9883  0.0365 -0.5892
  557MOL0     C75067   3.829   6.729   8.722 -0.8971 -0.5980  0.7827
  557MOL0     O75068   3.698   6.700   8.721 -0.0412  0.7918 -0.5727
  557MOL0     C75069   3.623   6.738   8.842  0.1712  0.2405 -0.4023
  557MOL0     C75070   3.510   6.639   8.871 -0.0125  0.7971  0.0928
  557MOL0     C75071   3.457   6.660   9.011  0.1003 -0.5784  0.3258
  557MOL0     C75072   3.315   6.592   9.020 -0.4154  0.1886  0.0843
  557MOL0     C75073   3.259   6.636   9.154 -0.1145 -0.6054  0.7696
  557MOL0     C75074   3.126   6.564   9.175  0.4266  0.5061 -0.5041
  557MOL0     C75075   3.056   6.630   9.292 -0.6097  0.0779  0.0966
  557MOL0     C75076   2.914   6.552   9.315 -0.0035 -0.5509  0.7573
  557MOL0     N75077   2.840   6.631   9.410 -0.1245  0.0942 -0.4691
  557MOL0     C75078   2.777   6.751   9.385 -0.4327  0.1531 -0.1124
  557MOL0     C75079   2.714   6.784   9.494 -0.1132  0.9134  0.7926
  557MOL0     C75080   2.633   6.903   9.501 -0.8421 -0.0895 -0.1963
  557MOL0     C75081   2.487   6.885   9.468  0.0415  0.0722  0.5616
  557MOL0     C75082   2.424   7.025   9.446  0.0783  0.1514  0.3993
  557MOL0     C75083   2.412   7.116   9.567  1.0116 -0.0476 -0.1850
  557MOL0     O75084   2.319   7.054   9.660 -0.1455  0.4798  0.6254
  557MOL0     C75085   2.215   7.129   9.693  0.4589  0.1288 -0.7088
  557MOL0     C75086   2.105   7.127   9.611 -0.4079 -0.4362  0.4583
  557MOL0     C75087   1.989   7.190   9.644  0.3930 -0.0118 -0.1849
  557MOL0     C75088   1.881   7.193   9.539 -0.5612  0.2471  0.7702
  557MOL0     C75089   1.972   7.254   9.763 -0.2564  0.2405 -0.0854
  557MOL0     C75090   1.842   7.309   9.814  0.7846 -0.6533  0.9456
  557MOL0     O75091   1.728   7.252   9.762 -0.5882 -0.2556  0.3309
  557MOL0     C75092   1.607   7.315   9.767 -0.7805  0.4860 -0.0373
  557MOL0     C75093   1.499   7.232   9.729 -0.1822 -0.5414 -0.7272
  557MOL0     C75094   1.372   7.276   9.737  0.2298  0.4572  0.9843
  557MOL0     C75095   1.338   7.406   9.776 -0.3600  0.2151 -0.5911
  557MOL0     O75096   1.206   7.454   9.797 -0.3798  0.9088 -0.3749
  557MOL0     C75097   1.104   7.355   9.760 -0.0410  0.0393 -0.2142
  557MOL0     C75098   0.963   7.394   9.811 -1.0706 -0.2808  0.6127
  557MOL0     C75099   0.936   7.548   9.773 -1.0400 -0.4424  0.4007
  557MOL0     C75100   0.792   7.594   9.812  0.3588 -0.2073  0.2176
  557MOL0     C75101   0.691   7.507   9.740  0.0077 -0.7137 -1.4161
  557MOL0     C75102   0.584   7.591   9.683 -0.0258 -0.0888 -0.1694
  557MOL0     C75103   0.484   7.504   9.617  0.0884 -0.3246 -0.0865
  557MOL0     C75104   0.371   7.588   9.562 -0.0910  0.8274  0.3615
  557MOL0    Cl75105   0.287   7.702   9.681  0.1681  0.2892 -0.1634
  557MOL0     C75106   1.449   7.488   9.824  0.0388 -0.4927  0.8295
  557MOL0     C75107   1.574   7.445   9.805  0.1960  0.6698 -0.5975
  557MOL0     O75108   1.847   7.395   9.899 -0.3837 -0.5266  0.0458
  557MOL0     C75109   2.077   7.252   9.854 -0.0780  0.4361 -0.1373
  557MOL0     C75110   2.206   7.200   9.814  0.4868  0.1999 -0.2609
  557MOL0     N75111   2.739   6.686   9.589 -1.3418  0.2919 -0.2753
  557MOL0     N75112   2.799   6.586   9.537 -0.2998 -1.4708  0.0030
  557MOL0     C75113   3.894   6.846   8.772  0.0695  0.3560  0.5921
  557MOL0     C75114   4.031   6.868   8.760  0.2256  0.6678 -0.6276
  557MOL0     C75115   4.480   6.744   8.642 -0.5123  0.0109 -0.2092
  557MOL0     C75116   4.596   6.668   8.666  0.4370 -0.4666  0.9735
  557MOL0     C75117   4.719   6.720   8.629  0.2664  1.0494  0.0276
  557MOL0     C75118   4.742   6.843   8.565  0.0277 -0.0497  0.3644
  557MOL0     O75119   4.849   6.895   8.490 -0.1442 -0.3158  0.1848
  557MOL0     C75120   4.976   6.827   8.522  0.8737 -0.8454  0.0442
  557MOL0     C75121   5.087   6.895   8.451 -0.1702 -0.6590  0.8159
  557MOL0     C75122   5.227   6.829   8.456  0.0739  1.1208 -0.6877
  557MOL0     C75123   5.312   6.925   8.384 -0.4621 -0.7312 -0.2041
  557MOL0     C75124   5.449   6.888   8.376 -1.1204 -0.7117  0.0441
  557MOL0     C75125   5.569   6.857   8.362  0.4868 -0.4974 -0.0185
  557MOL0     C75126   4.634   6.924   8.552 -0.0985 -0.1854  0.0812
  557MOL0     C75127   4.504   6.876   8.588 -1.7106  0.5879  0.0197
  557MOL0     H75128   4.098   6.583   8.588 -2.8250  0.8580 -4.8389
  557MOL0     H75129   3.882   6.543   8.617  1.4903 -0.7716 -0.7087
  557MOL0     H75130   3.693   6.729   8.926  1.4208  0.4823 -1.3920
  557MOL0     H75131   3.585   6.841   8.840 -0.9323 -0.1536 -1.8133
  557MOL0     H75132   3.437   6.657   8.792 -2.2203 -1.0722  1.5703
  557MOL0     H75133   3.550   6.538   8.860 -0.7070  0.4380  0.7628
  557MOL0     H75134   3.516   6.605   9.084 -0.6614 -2.4115 -0.3704
  557MOL0     H75135   3.456   6.764   9.047 -0.2710 -1.2008  2.2243
  557MOL0     H75136   3.255   6.620   8.933  2.6415 -0.7294 -2.4990
  557MOL0     H75137   3.319   6.482   9.023 -2.5095  0.0924  1.5816
  557MOL0     H75138   3.331   6.609   9.232  0.4949  0.4634  0.5920
  557MOL0     H75139   3.242   6.744   9.155 -1.0823 -0.7469  0.7911
  557MOL0     H75140   3.056   6.571   9.091 -3.7828 -3.6497  2.1934
  557MOL0     H75141   3.142   6.456   9.183 -1.7457 -0.2450 -4.2237
  557MOL0     H75142   3.121   6.624   9.380  0.9100 -1.5670 -1.0686
  557MOL0     H75143   3.043   6.736   9.269 -1.9845  0.1104  0.9203
  557MOL0     H75144   2.931   6.448   9.344 -1.9220 -1.0248  0.3285
  557MOL0     H75145   2.859   6.561   9.220  0.8681 -0.0645  0.2858
  557MOL0     H75146   2.778   6.807   9.292  1.1374  1.2191  0.5076
  557MOL0     H75147   2.646   6.937   9.605 -0.4034  0.8474 -0.5437
  557MOL0     H75148   2.666   6.985   9.437 -2.0386 -0.3636 -1.2041
  557MOL0     H75149   2.434   6.830   9.547  1.5376 -0.7389  1.0315
  557MOL0     H75150   2.487   6.833   9.372  2.2046 -1.8632  1.5282
  557MOL0     H75151   2.323   7.008   9.407  0.1206  1.1684 -0.2021
  557MOL0     H75152   2.473   7.083   9.366 -1.1155  0.1157 -0.3874
  557MOL0     H75153   2.368   7.209   9.530 -1.3790 -1.2234 -0.4761
  557MOL0     H75154   2.507   7.138   9.618  0.4900 -0.2132  0.8710
  557MOL0     H75155   2.105   7.070   9.518 -0.3459 -1.3410  1.0037
  557MOL0     H75156   1.838   7.294   9.542 -1.4888 -0.1143 -0.0188
  557MOL0     H75157   1.905   7.146   9.444 -0.5848 -2.1646  1.8729
  557MOL0     H75158   1.792   7.133   9.561 -0.5363 -0.0071  0.1861
  557MOL0     H75159   1.510   7.132   9.689 -5.1444 -2.5799  2.0649
  557MOL0     H75160   1.304   7.198   9.708 -0.8319  1.4393  0.7513
  557MOL0     H75161   1.099   7.335   9.653  2.8751  0.8099 -0.5828
  557MOL0     H75162   1.132   7.260   9.806  0.7786 -0.0704 -0.9138
  557MOL0     H75163   0.900   7.326   9.753  1.4931 -2.3951  0.1347
  557MOL0     H75164   0.954   7.376   9.919  0.2744  2.3902  1.2502
  557MOL0     H75165   0.941   7.564   9.665  0.5141  1.5297  0.6816
  557MOL0     H75166   1.005   7.617   9.823 -0.8536 -0.5606  0.3065
  557MOL0     H75167   0.786   7.577   9.920  1.0770  1.6823  0.5853
  557MOL0     H75168   0.785   7.701   9.790 -0.6237  0.0101  1.4480
  557MOL0     H75169   0.648   7.433   9.808  1.2154  0.1432  0.3638
  557MOL0     H75170   0.737   7.454   9.656  1.0026 -0.5774 -0.9688
  557MOL0     H75171   0.535   7.657   9.755 -2.4838 -0.1915 -1.6348
  557MOL0     H75172   0.638   7.657   9.614  0.6030  1.3999  1.6427
  557MOL0     H75173   0.454   7.430   9.691 -1.3102  1.8791  1.6910
  557MOL0     H75174   0.534   7.455   9.533 -0.5058 -0.2172 -0.5099
  557MOL0     H75175   0.292   7.520   9.529  1.7238 -0.5276 -1.4277
  557MOL0     H75176   0.416   7.643   9.479  1.7592  0.3472  0.9922
  557MOL0     H75177   1.443   7.589   9.862 -1.1298 -0.5298  0.8075
  557MOL0     H75178   1.644   7.518   9.843 -0.7265  0.7521  1.0041
  557MOL0     H75179   2.064   7.290   9.955 -0.8679 -2.0130  0.7683
  557MOL0     H75180   2.284   7.200   9.890  0.0046 -2.0631  0.3179
  557MOL0     H75181   3.824   6.916   8.818 -1.1638 -0.1535 -0.4229
  557MOL0     H75182   4.066   6.963   8.797 -1.0865  0.7767  0.4123
  557MOL0     H75183   4.592   6.569   8.711  0.8334 -0.9918 -0.1249
  557MOL0     H75184   4.803   6.652   8.640  2.1888  3.1404 -0.8454
  557MOL0     H75185   4.991   6.826   8.630 -1.9294  0.9978  0.5763
  557MOL0     H75186   4.978   6.720   8.502  1.6251 -0.3942 -2.7062
  557MOL0     H75187   5.097   6.993   8.499 -0.6854  0.3907 -1.1107
  557MOL0     H75188   5.060   6.902   8.345  1.6114  0.1533  0.3765
  557MOL0     H75189   5.228   6.734   8.401  0.8150 -0.6113  2.0679
  557MOL0     H75190   5.263   6.835   8.559  1.6265  4.6614 -1.2921
  557MOL0     H75191   5.314   7.018   8.442 -2.7487 -0.4057 -0.5356
  557MOL0     H75192   5.270   6.928   8.282 -0.7190 -0.7456 -0.1002
  557MOL0     H75193   5.672   6.830   8.357  0.0922 -2.5345  1.5038
  557MOL0     H75194   4.658   7.022   8.513 -0.2225 -1.3643 -3.3624
  557MOL0     H75195   4.417   6.939   8.577 -1.2452  1.2411  0.0774
  558MOL0     O75196   2.217   2.248   0.147  0.0684 -0.5036  0.2999
  558MOL0     C75197   2.299   2.210   0.063  0.1483  0.3069 -0.1487
  558MOL0     O75198   2.273   2.205  -0.071 -0.9124 -0.6388  0.1162
  558MOL0     C75199   2.156   2.242  -0.130  0.2829 -0.9314 -0.3000
  558MOL0     C75200   2.174   2.336  -0.237 -0.1213 -0.2660 -0.4487
  558MOL0     C75201   2.065   2.365  -0.318  1.0375 -0.6225  0.0633
  558MOL0     C75202   1.941   2.303  -0.285  0.5127  0.1874  0.5528
  558MOL0     O75203   1.833   2.314  -0.376  0.8622 -0.8851 -0.4868
  558MOL0     C75204   1.693   2.276  -0.342  0.3919  0.4599 -0.8196
  558MOL0     C75205   1.597   2.304  -0.458 -0.0725  0.1345  1.5314
  558MOL0     C75206   1.449   2.266  -0.445  0.0531 -0.4902 -1.5100
  558MOL0     C75207   1.365   2.296  -0.574 -0.2143 -0.3782 -1.0045
  558MOL0     C75208   1.218   2.248  -0.572  0.9536  0.7662 -0.2294
  558MOL0     C75209   1.123   2.316  -0.672  0.4776 -0.1594  0.2944
  558MOL0     C75210   0.978   2.253  -0.666  0.4125 -0.1813 -0.0284
  558MOL0     C75211   0.963   2.114  -0.719 -0.4085 -0.1963  0.2912
  558MOL0     N75212   1.001   2.113  -0.866 -0.5682  0.2894  0.1315
  558MOL0     C75213   0.911   2.152  -0.958 -0.1735 -0.1747 -1.2672
  558MOL0     C75214   0.986   2.146  -1.080  0.8078 -0.1398 -0.0541
  558MOL0     C75215   0.945   2.160  -1.220  0.1322 -0.8454  0.9242
  558MOL0     C75216   0.878   2.029  -1.273 -0.8286 -0.1600 -0.2722
  558MOL0     C75217   0.976   1.907  -1.271  1.1591  0.4904  0.7536
  558MOL0     C75218   0.921   1.789  -1.370 -0.7790  0.1339 -0.8635
  558MOL0     O75219   0.957   1.807  -1.507 -0.0755 -0.7471  0.1989
  558MOL0     C75220   0.888   1.727  -1.600 -0.0153  0.3257  0.0834
  558MOL0     C75221   0.949   1.718  -1.727  0.7158 -0.8194 -0.0350
  558MOL0     C75222   0.880   1.669  -1.837 -0.2900  0.7084 -0.3688
  558MOL0     C75223   0.954   1.663  -1.974 -0.6044  0.4048  0.1665
  558MOL0     C75224   0.751   1.611  -1.820 -0.7417 -0.6235  0.6992
  558MOL0     C75225   0.658   1.574  -1.934 -0.0005  0.2187 -0.0927
  558MOL0     O75226   0.555   1.515  -1.885 -0.2790  0.4099  0.1480
  558MOL0     C75227   0.450   1.460  -1.957  0.3741  0.0817  0.7515
  558MOL0     C75228   0.354   1.390  -1.888  0.7037  0.2533  0.2794
  558MOL0     C75229   0.235   1.343  -1.944 -0.2555  0.0244 -0.2683
  558MOL0     C75230   0.213   1.366  -2.082  0.3015 -0.2205  0.0308
  558MOL0     O75231   0.090   1.322  -2.124  0.3579 -0.0522 -0.4703
  558MOL0     C75232   0.047   1.357  -2.252  1.1598  0.2733 -0.8741
  558MOL0     C75233  -0.099   1.345  -2.270  0.3985  0.3324 -0.3396
  558MOL0     C75234  -0.164   1.209  -2.223 -0.3357  0.1525  0.0298
  558MOL0     C75235  -0.317   1.208  -2.249 -0.2378  0.5364  1.0169
  558MOL0     C75236  -0.374   1.088  -2.187 -0.8681 -0.4973  0.2493
  558MOL0     C75237  -0.525   1.083  -2.192 -0.3869 -0.3165  0.0210
  558MOL0     C75238  -0.577   1.054  -2.341 -1.0668 -0.1555  0.3874
  558MOL0     C75239  -0.723   1.064  -2.361  0.2633  0.0315 -0.7240
  558MOL0    Cl75240  -0.816   0.966  -2.229 -0.0479  0.6447  0.1623
  558MOL0     C75241   0.312   1.438  -2.154  0.0015  0.2457  0.2902
  558MOL0     C75242   0.425   1.483  -2.094 -0.1364  0.4073  0.1451
  558MOL0     O75243   0.686   1.609  -2.052  0.0298 -0.2807 -1.0729
  558MOL0     C75244   0.706   1.590  -1.689 -0.4232  0.1075  0.0373
  558MOL0     C75245   0.768   1.660  -1.585 -0.5700  0.5933  0.6972
  558MOL0     N75246   1.115   2.111  -1.045 -0.1131 -0.1328 -0.1581
  558MOL0     N75247   1.123   2.099  -0.920 -0.9455  0.1890 -0.6178
  558MOL0     C75248   1.921   2.232  -0.165  0.9051  0.0764 -0.0513
  558MOL0     C75249   2.030   2.198  -0.087  0.5033 -0.0637  0.6932
  558MOL0     C75250   2.439   2.198   0.099  0.0160 -0.3268 -0.0907
  558MOL0     C75251   2.535   2.181   0.004 -0.5746  0.0200 -0.3526
  558MOL0     C75252   2.674   2.161   0.040 -0.9064 -0.3244  0.5725
  558MOL0     C75253   2.706   2.150   0.176 -0.7695  0.8133  0.0747
  558MOL0     O75254   2.833   2.122   0.224  0.1833  0.6541  0.1513
  558MOL0     C75255   2.942   2.143   0.135 -0.5526 -0.1718 -0.8574
  558MOL0     C75256   2.983   2.016   0.053  0.1605 -0.0861  0.2744
  558MOL0     C75257   3.061   2.048  -0.079  0.4509 -0.3060  0.8240
  558MOL0     C75258   3.107   1.919  -0.147 -0.5593 -0.3542  0.5581
  558MOL0     C75259   3.182   1.963  -0.269  0.0464 -0.4725  0.5347
  558MOL0     C75260   3.246   2.003  -0.367  0.0939  0.1843  0.7944
  558MOL0     C75261   2.608   2.167   0.270  0.0131  0.7290  0.4093
  558MOL0     C75262   2.477   2.188   0.233 -0.1933  0.2091 -0.8344
  558MOL0     H75263   2.270   2.386  -0.243 -1.8825  3.3080 -1.1506
  558MOL0     H75264   2.066   2.432  -0.404 -0.9381 -0.5972  0.0149
  558MOL0     H75265   1.686   2.169  -0.320  1.0747  0.3329 -1.1894
  558MOL0     H75266   1.650   2.328  -0.256  0.0617  0.7530 -1.1602
  558MOL0     H75267   1.613   2.408  -0.486  2.9738 -1.0593 -1.8719
  558MOL0     H75268   1.634   2.245  -0.542  1.9933  2.0645  1.0070
  558MOL0     H75269   1.436   2.164  -0.409 -1.1366  0.3814  0.7553
  558MOL0     H75270   1.407   2.331  -0.367  0.9046 -1.0382 -0.5675
  558MOL0     H75271   1.361   2.405  -0.579 -1.3376 -0.2233  1.6909
  558MOL0     H75272   1.422   2.260  -0.661  2.0773  0.2253  0.1901
  558MOL0     H75273   1.207   2.143  -0.600 -1.9806  1.8547 -3.9906
  558MOL0     H75274   1.166   2.262  -0.476 -0.2748  4.2040 -1.2722
  558MOL0     H75275   1.116   2.421  -0.644  0.1260  0.2501 -1.2223
  558MOL0     H75276   1.170   2.306  -0.771 -1.7815 -3.4057 -0.6135
  558MOL0     H75277   0.934   2.265  -0.566 -0.6163 -5.3063  0.4186
  558MOL0     H75278   0.930   2.329  -0.728  2.4437  0.8835 -0.3873
  558MOL0     H75279   0.857   2.091  -0.703 -0.6701  0.7359 -0.0230
  558MOL0     H75280   1.023   2.043  -0.662  0.1040  1.5809  2.1002
  558MOL0     H75281   0.810   2.181  -0.934  1.0228  0.8166  3.8812
  558MOL0     H75282   0.873   2.243  -1.224 -1.1131 -1.8995 -3.1767
  558MOL0     H75283   1.025   2.194  -1.286  0.3285 -0.8528  1.1590
  558MOL0     H75284   0.857   2.062  -1.376 -1.7503 -1.2634 -0.4519
  558MOL0     H75285   0.785   2.010  -1.218  0.3584 -1.2290  1.4570
  558MOL0     H75286   0.988   1.872  -1.168 -2.9992  0.0169  1.2466
  558MOL0     H75287   1.076   1.944  -1.299  2.3339 -2.1537  1.1551
  558MOL0     H75288   0.812   1.790  -1.371 -0.8090 -1.4272 -1.5837
  558MOL0     H75289   0.961   1.692  -1.341  1.8975  1.2293 -0.6015
  558MOL0     H75290   1.045   1.760  -1.755 -0.7590 -0.0036 -5.0239
  558MOL0     H75291   0.927   1.752  -2.031  0.9983  1.2283  0.6345
  558MOL0     H75292   1.062   1.664  -1.956 -0.3196  3.3812 -1.0960
  558MOL0     H75293   0.929   1.571  -2.028  0.4779 -0.4653  1.0983
  558MOL0     H75294   0.379   1.365  -1.785  3.6745  0.0571 -0.4093
  558MOL0     H75295   0.155   1.288  -1.896  0.4110 -2.4360 -1.8310
  558MOL0     H75296   0.087   1.455  -2.279 -2.9784  1.8953 -1.9535
  558MOL0     H75297   0.076   1.278  -2.321  0.0657  0.6486 -1.8001
  558MOL0     H75298  -0.148   1.429  -2.221  0.3666 -0.4923  1.1147
  558MOL0     H75299  -0.120   1.354  -2.377  1.5534 -0.0085 -0.6042
  558MOL0     H75300  -0.137   1.187  -2.119  0.2462  1.5250  0.1954
  558MOL0     H75301  -0.108   1.141  -2.288  0.0251  2.0944 -1.8085
  558MOL0     H75302  -0.373   1.287  -2.198 -0.3954  0.6970  0.5928
  558MOL0     H75303  -0.332   1.207  -2.357  2.0032  1.6370  0.6482
  558MOL0     H75304  -0.347   1.090  -2.081  1.0637 -0.4448 -0.2107
  558MOL0     H75305  -0.345   0.995  -2.238  0.3207  0.7554 -1.4750
  558MOL0     H75306  -0.560   0.999  -2.131 -0.1691  0.0622  0.6775
  558MOL0     H75307  -0.562   1.177  -2.149 -0.6360  0.3927 -1.6758
  558MOL0     H75308  -0.547   0.956  -2.380 -0.7911 -1.1453  2.8431
  558MOL0     H75309  -0.514   1.125  -2.396 -0.2149 -2.3648 -1.6673
  558MOL0     H75310  -0.762   1.017  -2.452 -0.3410 -0.0173 -0.4463
  558MOL0     H75311  -0.751   1.169  -2.370 -2.3178 -0.7149 -2.4399
  558MOL0     H75312   0.298   1.465  -2.258 -0.8114 -0.4500  0.2081
  558MOL0     H75313   0.492   1.542  -2.155 -2.7045  3.2952 -0.0936
  558MOL0     H75314   0.612   1.547  -1.655 -1.0420  3.2229  2.8320
  558MOL0     H75315   0.712   1.655  -1.492  1.8402 -1.4848  2.1606
  558MOL0     H75316   1.823   2.197  -0.135  0.0519  1.4160 -1.1175
  558MOL0     H75317   2.028   2.134   0.001 -0.8086 -2.6776 -1.1088
  558MOL0     H75318   2.511   2.175  -0.101 -1.3449  2.5016 -0.3689
  558MOL0     H75319   2.742   2.140  -0.043 -1.9787  0.1027 -0.4377
  558MOL0     H75320   2.927   2.227   0.066  0.0779  1.2205  0.6137
  558MOL0     H75321   3.031   2.175   0.190 -0.7643  2.2561 -1.8012
  558MOL0     H75322   2.892   1.963   0.026 -1.1247  0.3119  3.4145
  558MOL0     H75323   3.055   1.950   0.103  2.2431 -0.4115 -2.8792
  558MOL0     H75324   3.150   2.110  -0.062  1.1316 -0.5136 -1.6242
  558MOL0     H75325   2.993   2.098  -0.148 -2.1647 -3.2924  1.0125
  558MOL0     H75326   3.022   1.852  -0.157  0.6584 -2.0916  1.2362
  558MOL0     H75327   3.182   1.867  -0.085  0.5369 -1.5365 -1.6297
  558MOL0     H75328   3.325   2.031  -0.434  0.3844 -3.3697 -0.5406
  558MOL0     H75329   2.635   2.158   0.375  0.6082  1.3423  0.3131
  558MOL0     H75330   2.396   2.193   0.306  2.5882  2.0110  2.4408
  559MOL0     O75331   0.752   6.522   1.920 -0.9221  0.4916  0.4979
  559MOL0     C75332   0.757   6.420   1.990  0.0765  0.2225 -0.6053
  559MOL0     O75333   0.649   6.370   2.067 -0.5484  0.2271 -0.7290
  559MOL0     C75334   0.523   6.416   2.057  1.1946  0.1156  0.2915
  559MOL0     C75335   0.458   6.430   1.925 -0.1636  0.3331  0.0808
  559MOL0     C75336   0.325   6.476   1.910  0.5890 -0.6158 -1.0484
  559MOL0     C75337   0.250   6.504   2.035  0.0894 -0.3510  0.2544
  559MOL0     O75338   0.119   6.558   2.047 -0.0621 -0.0688 -0.7638
  559MOL0     C75339   0.056   6.591   1.932 -0.2098  0.8370 -0.5948
  559MOL0     C75340  -0.091   6.633   1.952  0.0805  0.3541  0.1826
  559MOL0     C75341  -0.100   6.732   2.066  0.9459 -0.0629 -0.6854
  559MOL0     C75342  -0.242   6.793   2.076  0.1147  1.5009  0.0543
  559MOL0     C75343  -0.335   6.723   2.174  0.5599  0.9769  0.2490
  559MOL0     C75344  -0.480   6.769   2.145  0.7912  0.1203  0.1283
  559MOL0     C75345  -0.579   6.692   2.228 -1.0600  0.0224 -0.4582
  559MOL0     C75346  -0.725   6.753   2.221 -0.3606  0.5312  0.7458
  559MOL0     N75347  -0.816   6.670   2.296 -0.5820  0.0675  0.5110
  559MOL0     C75348  -0.843   6.535   2.286 -0.5416 -0.3185  0.4462
  559MOL0     C75349  -0.951   6.509   2.368 -0.2207 -0.8376 -0.6691
  559MOL0     C75350  -1.030   6.379   2.387  0.9585  0.0519  0.2689
  559MOL0     C75351  -1.181   6.391   2.380  0.0377 -0.9352 -0.2074
  559MOL0     C75352  -1.225   6.472   2.249  0.2472  0.0335  0.4496
  559MOL0     C75353  -1.371   6.468   2.229 -0.6025  0.1898  0.4219
  559MOL0     O75354  -1.442   6.498   2.347  0.0028  0.0566 -0.3474
  559MOL0     C75355  -1.527   6.612   2.353 -0.0384 -0.0536 -0.4100
  559MOL0     C75356  -1.483   6.730   2.288 -0.3936 -0.3783 -0.1009
  559MOL0     C75357  -1.576   6.847   2.280 -0.2577  0.4056  0.1606
  559MOL0     C75358  -1.520   6.974   2.209 -0.5576  0.3192  0.3918
  559MOL0     C75359  -1.713   6.834   2.332 -0.1976  0.4678 -0.2906
  559MOL0     C75360  -1.817   6.935   2.315 -0.2291  0.9102 -0.7627
  559MOL0     O75361  -1.932   6.908   2.383  0.4297 -0.1202 -0.2575
  559MOL0     C75362  -2.039   6.990   2.354  0.2101  0.7844  0.1016
  559MOL0     C75363  -2.070   7.106   2.419  0.4168  0.4405 -0.7877
  559MOL0     C75364  -2.181   7.183   2.385  0.6835  0.6983  0.0400
  559MOL0     C75365  -2.275   7.143   2.296 -0.1439 -1.1025  0.6363
  559MOL0     O75366  -2.393   7.209   2.268  0.1106 -0.2098 -0.1969
  559MOL0     C75367  -2.449   7.297   2.368  0.4913  0.1767 -0.1858
  559MOL0     C75368  -2.597   7.310   2.352  0.4873 -0.1405 -1.6536
  559MOL0     C75369  -2.662   7.417   2.447 -0.2822 -0.9178  0.4517
  559MOL0     C75370  -2.659   7.368   2.597  0.1338  0.1785  0.5637
  559MOL0     C75371  -2.704   7.470   2.701  0.2593  0.0013 -0.2722
  559MOL0     C75372  -2.717   7.411   2.843  0.4271  0.3486 -0.6313
  559MOL0     C75373  -2.775   7.517   2.941 -0.1579 -0.2488 -0.6141
  559MOL0     C75374  -2.924   7.543   2.925  0.1763 -0.2955  0.8629
  559MOL0    Cl75375  -2.965   7.662   3.054 -0.4971  0.0254 -0.0005
  559MOL0     C75376  -2.240   7.030   2.220 -0.2026  0.1478 -0.1474
  559MOL0     C75377  -2.121   6.956   2.242 -0.1575  0.3135  0.1013
  559MOL0     O75378  -1.794   7.024   2.234 -0.0139  0.1924 -0.2661
  559MOL0     C75379  -1.743   6.711   2.390  0.5639 -0.0717 -0.5620
  559MOL0     C75380  -1.654   6.602   2.400  0.9135 -0.6458  0.3957
  559MOL0     N75381  -0.984   6.630   2.427 -0.0183  0.1342 -0.5086
  559MOL0     N75382  -0.911   6.720   2.377 -0.3966  0.4396  0.3365
  559MOL0     C75383   0.308   6.473   2.159  1.4624 -0.1518  0.4678
  559MOL0     C75384   0.438   6.430   2.168  0.2504  0.9255 -0.0673
  559MOL0     C75385   0.883   6.341   1.988 -1.0378 -0.0192 -0.4453
  559MOL0     C75386   0.890   6.229   2.072 -0.0265  0.2460  0.4690
  559MOL0     C75387   1.003   6.150   2.085 -0.2125  0.2821  0.0804
  559MOL0     C75388   1.121   6.200   2.026 -0.6236 -0.0377 -0.0980
  559MOL0     O75389   1.245   6.133   2.028 -0.6381 -0.4405 -0.7327
  559MOL0     C75390   1.254   6.033   2.134  0.0043 -0.5136  0.0543
  559MOL0     C75391   1.395   5.980   2.153 -0.7985 -0.7860  0.6544
  559MOL0     C75392   1.503   6.088   2.168  0.5874  0.5337 -0.4595
  559MOL0     C75393   1.635   6.035   2.236  0.2100 -0.7164  0.0798
  559MOL0     C75394   1.592   6.014   2.374 -0.0627 -0.1779  0.2407
  559MOL0     C75395   1.570   5.990   2.486 -0.7569  0.1820 -0.3034
  559MOL0     C75396   1.120   6.313   1.941  0.0295 -0.3772 -0.5773
  559MOL0     C75397   1.001   6.383   1.925  0.0222  0.0633 -0.2046
  559MOL0     H75398   0.510   6.397   1.836 -0.4224  1.9828 -0.7165
  559MOL0     H75399   0.271   6.469   1.816  0.1132  3.1600 -1.2249
  559MOL0     H75400   0.107   6.682   1.898 -1.2132  1.6754  0.0665
  559MOL0     H75401   0.061   6.504   1.866  1.7067 -0.3510  1.0326
  559MOL0     H75402  -0.132   6.673   1.859 -0.8996 -2.8813 -0.9134
  559MOL0     H75403  -0.142   6.545   1.992 -0.9648  0.8944  0.0573
  559MOL0     H75404  -0.071   6.677   2.156  4.0633  3.2716  0.5704
  559MOL0     H75405  -0.024   6.809   2.053  0.8471  0.1504  0.0154
  559MOL0     H75406  -0.222   6.894   2.113 -0.3842  1.2631  1.0118
  559MOL0     H75407  -0.289   6.798   1.977  1.7747  1.0833 -0.7806
  559MOL0     H75408  -0.330   6.615   2.155  1.2957  1.3596 -2.1075
  559MOL0     H75409  -0.311   6.729   2.281  1.6752  0.3321  0.0483
  559MOL0     H75410  -0.488   6.877   2.161 -0.1008  0.2556 -1.1642
  559MOL0     H75411  -0.500   6.738   2.042 -1.1387 -0.9325  0.7755
  559MOL0     H75412  -0.577   6.587   2.197  0.7824 -0.1301  0.0713
  559MOL0     H75413  -0.561   6.711   2.334  2.9059  2.7897 -1.4147
  559MOL0     H75414  -0.767   6.776   2.123 -2.0108  4.0218  2.1025
  559MOL0     H75415  -0.726   6.848   2.275  0.0051  0.2354  1.2760
  559MOL0     H75416  -0.801   6.458   2.222 -3.8338  0.0320 -2.3883
  559MOL0     H75417  -1.000   6.298   2.319 -3.7217 -1.6674 -0.0812
  559MOL0     H75418  -1.003   6.344   2.487  0.1580 -0.5105  0.2932
  559MOL0     H75419  -1.217   6.448   2.466 -1.7946  0.5970 -1.8849
  559MOL0     H75420  -1.235   6.296   2.374  3.0036 -2.6585 -1.1031
  559MOL0     H75421  -1.180   6.428   2.160  1.5438  0.3220  0.9385
  559MOL0     H75422  -1.203   6.579   2.263 -1.1298  0.1617  2.0211
  559MOL0     H75423  -1.400   6.366   2.201  0.5463 -0.2265  0.6697
  559MOL0     H75424  -1.398   6.540   2.151 -1.3817  0.4624  0.9307
  559MOL0     H75425  -1.386   6.736   2.241 -0.9856 -0.3423 -1.3618
  559MOL0     H75426  -1.416   6.964   2.176 -0.2324  5.3764 -0.9039
  559MOL0     H75427  -1.567   6.997   2.113  1.2802  2.3839 -0.1096
  559MOL0     H75428  -1.520   7.060   2.277 -0.9343  0.9700 -0.4156
  559MOL0     H75429  -2.006   7.140   2.500 -1.9873  0.5974  1.1678
  559MOL0     H75430  -2.201   7.281   2.428 -1.1346  0.4495 -0.1454
  559MOL0     H75431  -2.426   7.253   2.465 -0.0104 -2.1937 -1.0899
  559MOL0     H75432  -2.408   7.396   2.347  0.1479  1.2534  3.5380
  559MOL0     H75433  -2.607   7.345   2.249 -0.9410  1.5652 -0.9812
  559MOL0     H75434  -2.655   7.218   2.363  0.5439 -0.1175 -1.1591
  559MOL0     H75435  -2.770   7.427   2.432  0.0533 -1.5094 -3.1179
  559MOL0     H75436  -2.608   7.512   2.446  0.8383 -1.5329  0.6372
  559MOL0     H75437  -2.706   7.269   2.604  0.1688 -0.1170 -2.2076
  559MOL0     H75438  -2.556   7.339   2.618  1.2162  1.7995 -2.0050
  559MOL0     H75439  -2.800   7.512   2.669 -0.4775 -1.0829  0.4236
  559MOL0     H75440  -2.632   7.551   2.712  1.6009 -1.1160 -0.4539
  559MOL0     H75441  -2.773   7.317   2.846 -0.4125  0.8149 -1.3209
  559MOL0     H75442  -2.615   7.386   2.872  0.1592 -0.2280 -0.1454
  559MOL0     H75443  -2.729   7.616   2.928 -1.9137  0.4209 -2.2919
  559MOL0     H75444  -2.773   7.480   3.044  0.3323 -2.7181 -1.4473
  559MOL0     H75445  -2.997   7.462   2.931 -2.0072  1.3757 -0.9838
  559MOL0     H75446  -2.949   7.590   2.829  0.4082 -0.8853  0.5119
  559MOL0     H75447  -2.312   6.988   2.150 -2.1221  0.1116  1.7199
  559MOL0     H75448  -2.094   6.873   2.178 -0.6890  1.1740 -1.2796
  559MOL0     H75449  -1.843   6.704   2.431  0.9195  0.0523  0.3328
  559MOL0     H75450  -1.694   6.514   2.450 -0.1676  0.5498  1.7361
  559MOL0     H75451   0.245   6.483   2.247  0.4221 -0.2863 -0.2511
  559MOL0     H75452   0.480   6.409   2.266  0.0115 -1.0622 -0.3547
  559MOL0     H75453   0.802   6.198   2.127  0.6588  2.0843  2.7608
  559MOL0     H75454   0.989   6.057   2.139 -1.9513  0.4494 -0.0281
  559MOL0     H75455   1.229   6.076   2.231  3.4860  1.3074  0.3004
  559MOL0     H75456   1.198   5.942   2.110 -0.5493  0.5139 -2.9977
  559MOL0     H75457   1.418   5.934   2.056 -1.6570  0.2395 -0.0490
  559MOL0     H75458   1.395   5.910   2.237  2.8967 -0.0605  1.4409
  559MOL0     H75459   1.457   6.167   2.227  2.4052  0.3538  1.3310
  559MOL0     H75460   1.525   6.128   2.068  0.1820  0.3266 -0.6312
  559MOL0     H75461   1.704   6.119   2.230 -0.0461 -0.5883 -4.5105
  559MOL0     H75462   1.677   5.949   2.183 -0.1570 -1.3730  0.8220
  559MOL0     H75463   1.553   5.967   2.589  3.2519 -2.6566 -0.0320
  559MOL0     H75464   1.214   6.345   1.897 -2.2291  1.5334 -4.5474
  559MOL0     H75465   0.997   6.484   1.886  0.1948  0.4675  0.7882
  560MOL0     O75466   1.317   7.103   8.988 -0.2601  0.1342  0.7593
  560MOL0     C75467   1.322   6.988   8.951  0.6948  0.6214 -0.1828
  560MOL0     O75468   1.212   6.908   8.922  0.8221  0.5892 -0.2534
  560MOL0     C75469   1.089   6.964   8.932 -0.1358 -0.6427  0.0126
  560MOL0     C75470   1.024   6.943   9.048 -0.1653  0.0777  1.0081
  560MOL0     C75471   0.885   6.959   9.056  0.9707 -0.0980 -0.4756
  560MOL0     C75472   0.817   7.019   8.954 -0.7889 -0.1708 -0.2813
  560MOL0     O75473   0.683   7.050   8.956  0.5420  0.0134 -0.0073
  560MOL0     C75474   0.596   7.016   9.066 -0.5803 -0.4524  0.1333
  560MOL0     C75475   0.452   7.003   9.018 -0.4858 -0.4338 -0.1553
  560MOL0     C75476   0.359   6.966   9.126  0.6905 -0.2463  0.1163
  560MOL0     C75477   0.213   7.008   9.084 -0.5594  1.0153  0.8909
  560MOL0     C75478   0.127   6.998   9.209 -0.1532 -0.9225 -0.1360
  560MOL0     C75479  -0.018   7.032   9.170  0.2939 -0.0956  0.1002
  560MOL0     C75480  -0.120   6.999   9.276  0.6701 -0.3830  0.0858
  560MOL0     C75481  -0.162   6.844   9.290 -0.6938 -1.5132  0.4540
  560MOL0     N75482  -0.244   6.812   9.399  0.3700 -0.0905  0.8131
  560MOL0     C75483  -0.355   6.874   9.429 -0.0309 -1.3170  0.1324
  560MOL0     C75484  -0.408   6.816   9.539  1.3720 -0.1222  0.2301
  560MOL0     C75485  -0.539   6.852   9.596  1.2309  0.1864  0.0173
  560MOL0     C75486  -0.642   6.822   9.482 -0.2152 -0.1755 -0.2013
  560MOL0     C75487  -0.788   6.855   9.526  0.6264 -0.3539 -0.8314
  560MOL0     C75488  -0.884   6.847   9.402  0.1811 -0.0837  0.4751
  560MOL0     O75489  -1.017   6.880   9.453 -0.5575  0.7755 -0.0269
  560MOL0     C75490  -1.127   6.887   9.372  0.2681 -0.3458  0.6778
  560MOL0     C75491  -1.237   6.935   9.442 -0.2984 -0.2706  0.4793
  560MOL0     C75492  -1.366   6.935   9.385 -0.3820  0.1091 -0.2757
  560MOL0     C75493  -1.491   6.950   9.474 -0.5520 -0.4146  1.0627
  560MOL0     C75494  -1.377   6.910   9.241 -0.5733  0.1178  0.2290
  560MOL0     C75495  -1.507   6.902   9.164 -0.3570  0.7466  0.2345
  560MOL0     O75496  -1.608   6.957   9.222  0.9031  0.0187 -0.1830
  560MOL0     C75497  -1.735   6.967   9.166 -0.1373  0.2267 -0.8339
  560MOL0     C75498  -1.786   6.908   9.051 -0.0410 -0.6491  0.2722
  560MOL0     C75499  -1.915   6.941   9.000 -0.0317  0.3789 -0.2145
  560MOL0     C75500  -1.996   7.023   9.067 -0.1301 -0.1230 -0.5119
  560MOL0     O75501  -2.119   7.040   9.007 -0.5383  0.2637  0.2696
  560MOL0     C75502  -2.232   7.092   9.082  0.1416  0.3665 -0.3697
  560MOL0     C75503  -2.347   7.107   8.987  0.1722 -0.8272  0.8029
  560MOL0     C75504  -2.327   7.231   8.889 -0.0160 -1.1129  0.4413
  560MOL0     C75505  -2.374   7.206   8.753  0.1798 -0.4654  1.9076
  560MOL0     C75506  -2.359   7.307   8.649  0.1823  1.1161 -0.3223
  560MOL0     C75507  -2.444   7.277   8.527 -0.1432  0.1678 -0.6288
  560MOL0     C75508  -2.427   7.378   8.407 -0.6922 -0.1786 -0.5894
  560MOL0     C75509  -2.480   7.322   8.276  0.5352 -0.4723  1.0080
  560MOL0    Cl75510  -2.656   7.298   8.298  0.2315  0.2797  0.1627
  560MOL0     C75511  -1.964   7.067   9.196  0.2242 -1.1952 -0.2398
  560MOL0     C75512  -1.831   7.052   9.240  0.5457  0.7317  0.3921
  560MOL0     O75513  -1.509   6.836   9.062 -0.3704 -0.5678 -0.8917
  560MOL0     C75514  -1.262   6.872   9.177 -1.7760 -0.4321 -0.0971
  560MOL0     C75515  -1.134   6.864   9.238  0.0446  0.2512  0.5802
  560MOL0     N75516  -0.327   6.713   9.566 -0.0517 -0.1296 -0.8712
  560MOL0     N75517  -0.231   6.701   9.479 -0.4797 -0.6624  0.3709
  560MOL0     C75518   0.891   7.045   8.835  0.3048  1.0669 -0.1465
  560MOL0     C75519   1.026   7.016   8.815  0.5359 -0.0852 -0.0886
  560MOL0     C75520   1.453   6.924   8.939 -0.6041  0.3211  0.0065
  560MOL0     C75521   1.467   6.790   8.906 -0.6672 -0.0187 -0.3968
  560MOL0     C75522   1.592   6.727   8.896 -0.1733 -0.0658  0.8389
  560MOL0     C75523   1.706   6.808   8.915 -0.1411 -0.6615 -0.0281
  560MOL0     O75524   1.839   6.769   8.907 -0.0594  0.2105 -0.1567
  560MOL0     C75525   1.861   6.642   8.861  0.9116  0.4309 -0.9036
  560MOL0     C75526   2.008   6.605   8.848  0.3788 -0.6751 -0.1842
  560MOL0     C75527   2.087   6.632   8.974  0.9311  0.0866 -0.7582
  560MOL0     C75528   2.227   6.557   8.976 -0.3083 -0.5823 -0.1408
  560MOL0     C75529   2.304   6.608   8.863 -0.1949 -0.1396  0.0806
  560MOL0     C75530   2.378   6.635   8.768  0.4756  0.9488 -0.4171
  560MOL0     C75531   1.691   6.945   8.950  0.2899  0.5650 -0.1736
  560MOL0     C75532   1.570   7.002   8.959 -0.8879  0.7578  0.9103
  560MOL0     H75533   1.082   6.901   9.130 -0.2976  0.4816  1.3150
  560MOL0     H75534   0.836   6.945   9.151  1.9659 -0.7143 -0.0335
  560MOL0     H75535   0.606   6.918   9.115  0.5988  0.6955  2.3354
  560MOL0     H75536   0.616   7.091   9.143 -0.4641 -0.0853 -0.2488
  560MOL0     H75537   0.416   7.098   8.977 -1.2599  0.1530  1.7729
  560MOL0     H75538   0.439   6.938   8.931 -2.4955  2.4421 -2.2058
  560MOL0     H75539   0.357   6.858   9.143 -0.8579 -0.6478 -2.1733
  560MOL0     H75540   0.400   6.998   9.223  0.1212 -1.1745  0.6781
  560MOL0     H75541   0.214   7.111   9.048 -0.1711  0.4403 -0.8373
  560MOL0     H75542   0.178   6.932   9.013  2.7432  2.7665 -3.0653
  560MOL0     H75543   0.139   6.900   9.256  1.0033 -1.1167 -0.8003
  560MOL0     H75544   0.166   7.067   9.284 -1.9665  1.1471 -0.9879
  560MOL0     H75545  -0.027   7.139   9.149  0.4858 -0.3369 -1.2470
  560MOL0     H75546  -0.041   6.983   9.076  1.8789 -2.8539  1.0103
  560MOL0     H75547  -0.070   7.032   9.368  0.5105  1.9999 -0.5952
  560MOL0     H75548  -0.206   7.067   9.265  1.1131 -0.1967 -3.4158
  560MOL0     H75549  -0.074   6.779   9.288  0.3411 -0.1243 -0.7591
  560MOL0     H75550  -0.212   6.818   9.196 -0.0755 -0.5373 -0.1578
  560MOL0     H75551  -0.392   6.961   9.377  0.0646 -0.1703  1.9019
  560MOL0     H75552  -0.557   6.793   9.687  2.7257  2.6020  1.9899
  560MOL0     H75553  -0.558   6.954   9.628  0.5844  0.6133 -1.6109
  560MOL0     H75554  -0.632   6.719   9.446 -2.9333 -0.3081 -0.7874
  560MOL0     H75555  -0.620   6.886   9.396 -0.7270 -0.7777 -0.7929
  560MOL0     H75556  -0.792   6.960   9.555  0.4333  0.6438 -3.9988
  560MOL0     H75557  -0.824   6.792   9.607 -0.3658 -0.5448 -1.4046
  560MOL0     H75558  -0.894   6.749   9.355 -0.3087 -0.0809  0.5689
  560MOL0     H75559  -0.847   6.918   9.327 -1.8472  0.4027 -0.1178
  560MOL0     H75560  -1.222   6.974   9.542  0.6882  2.6647 -0.7123
  560MOL0     H75561  -1.540   7.040   9.437 -3.5653 -3.3079 -2.8409
  560MOL0     H75562  -1.560   6.867   9.458 -1.8259  0.3899  2.2175
  560MOL0     H75563  -1.478   6.956   9.583  2.6437  1.0110  0.7003
  560MOL0     H75564  -1.733   6.831   8.995 -0.4134 -1.2539  0.7364
  560MOL0     H75565  -1.955   6.892   8.912 -1.1126 -0.6666  0.8244
  560MOL0     H75566  -2.256   7.025   9.165  1.7579 -2.1152 -1.7904
  560MOL0     H75567  -2.208   7.188   9.130  0.7276 -0.0766  0.2397
  560MOL0     H75568  -2.353   7.012   8.934 -3.2154  0.1565 -0.9156
  560MOL0     H75569  -2.441   7.114   9.042  0.1823  2.7865  0.6394
  560MOL0     H75570  -2.220   7.252   8.879 -0.1152  0.0742  1.4922
  560MOL0     H75571  -2.366   7.329   8.921  3.7063  0.4664  0.6541
  560MOL0     H75572  -2.328   7.111   8.724  2.0753 -0.1442  3.6760
  560MOL0     H75573  -2.482   7.189   8.759 -0.1407  0.7963  0.4197
  560MOL0     H75574  -2.255   7.323   8.621  1.4530 -2.3626  1.8171
  560MOL0     H75575  -2.394   7.403   8.688  2.9910  0.9789  2.9850
  560MOL0     H75576  -2.413   7.175   8.501  1.2129 -0.6865  3.6251
  560MOL0     H75577  -2.551   7.277   8.552 -0.0181  1.8378 -0.0143
  560MOL0     H75578  -2.321   7.397   8.393 -0.1327 -0.1029  2.8522
  560MOL0     H75579  -2.465   7.481   8.418  0.9226  0.4084 -0.2963
  560MOL0     H75580  -2.438   7.225   8.250  1.9114 -0.3730  2.6987
  560MOL0     H75581  -2.458   7.379   8.185 -0.1607 -1.4519  0.2036
  560MOL0     H75582  -2.041   7.111   9.259 -1.1177 -2.5206 -0.9103
  560MOL0     H75583  -1.784   7.094   9.328  0.0864  1.0293  0.5011
  560MOL0     H75584  -1.255   6.849   9.071  2.0662  1.0155 -0.3125
  560MOL0     H75585  -1.042   6.830   9.192  0.1192 -2.7622  2.6067
  560MOL0     H75586   0.843   7.095   8.752  0.4568  2.0799  0.3506
  560MOL0     H75587   1.068   7.026   8.716 -1.7832 -1.6534 -1.3197
  560MOL0     H75588   1.378   6.729   8.913 -2.2179  2.2319  0.7919
  560MOL0     H75589   1.598   6.619   8.882  0.5645  0.1551 -0.7019
  560MOL0     H75590   1.815   6.585   8.942 -3.4798  2.2483 -1.8218
  560MOL0     H75591   1.799   6.617   8.774 -0.4778  2.9689 -0.7432
  560MOL0     H75592   2.041   6.678   8.774  0.0423 -1.9399 -1.6297
  560MOL0     H75593   2.022   6.503   8.809  1.3089 -0.5195 -0.2788
  560MOL0     H75594   2.037   6.601   9.066 -0.4333  1.9682 -0.8077
  560MOL0     H75595   2.093   6.739   8.997 -0.6012 -0.3736  2.3899
  560MOL0     H75596   2.221   6.450   8.954  3.4361 -0.6001 -1.7818
  560MOL0     H75597   2.280   6.579   9.068 -0.3861 -1.1998  0.0557
  560MOL0     H75598   2.420   6.661   8.673 -0.2103  1.1045 -0.6858
  560MOL0     H75599   1.779   7.004   8.971 -1.1505  2.1725  1.6702
  560MOL0     H75600   1.566   7.106   8.990 -2.2596  1.5409 -1.6493
  561MOL0     O75601   0.184   2.063   5.449  0.1023 -0.2636  0.5852
  561MOL0     C75602   0.271   2.116   5.524  0.2624 -0.1335  0.3638
  561MOL0     O75603   0.245   2.178   5.644  0.2149  0.5024 -0.6729
  561MOL0     C75604   0.122   2.190   5.704 -0.0180 -0.1727 -0.1273
  561MOL0     C75605   0.120   2.213   5.837  1.0916  0.3695  0.0959
  561MOL0     C75606   0.001   2.239   5.903  0.6528 -0.2809  0.0103
  561MOL0     C75607  -0.127   2.228   5.845  0.0693 -0.9971  0.2866
  561MOL0     O75608  -0.241   2.254   5.928 -0.9490 -0.3134  0.4430
  561MOL0     C75609  -0.360   2.234   5.851 -0.5477  0.6963 -0.9938
  561MOL0     C75610  -0.481   2.259   5.940 -0.0866 -0.3045 -0.1370
  561MOL0     C75611  -0.601   2.240   5.845  0.0413 -0.0203  0.6855
  561MOL0     C75612  -0.728   2.275   5.914  0.6696  0.0486  0.4400
  561MOL0     C75613  -0.861   2.217   5.838 -0.2235 -0.1542  0.4953
  561MOL0     C75614  -0.867   2.064   5.830  0.0674  1.0759 -0.2044
  561MOL0     C75615  -0.808   1.975   5.941  0.3880 -0.2540 -0.3347
  561MOL0     C75616  -0.899   1.980   6.069  0.2060  0.0109  0.2779
  561MOL0     N75617  -1.044   1.973   6.030  0.6032  0.4378 -0.2869
  561MOL0     C75618  -1.146   2.061   6.055  0.3812  0.6320  0.0881
  561MOL0     C75619  -1.256   1.998   6.016 -0.2575  0.1473 -0.4543
  561MOL0     C75620  -1.390   2.044   6.056  0.0890  0.1635  0.4689
  561MOL0     C75621  -1.489   2.024   5.945  0.6698  0.0391  0.3230
  561MOL0     C75622  -1.619   2.113   5.958 -0.6725  0.5095 -0.2345
  561MOL0     C75623  -1.747   2.072   5.876  0.1752 -0.3349  0.4586
  561MOL0     O75624  -1.789   1.936   5.894 -0.5089  0.1757  0.0544
  561MOL0     C75625  -1.901   1.924   5.980 -0.8995  0.3810 -0.0707
  561MOL0     C75626  -1.926   2.006   6.097  0.6453 -0.0541  0.0810
  561MOL0     C75627  -2.055   1.994   6.161 -0.1944  0.3012  0.3840
  561MOL0     C75628  -2.071   2.079   6.281  0.7654  0.3042 -0.7861
  561MOL0     C75629  -2.148   1.903   6.114  0.6857  0.0804 -0.1692
  561MOL0     C75630  -2.284   1.881   6.168 -0.8291  0.2241 -0.4717
  561MOL0     O75631  -2.346   1.764   6.137  0.1057  0.1209  0.6479
  561MOL0     C75632  -2.472   1.737   6.172  0.2037 -0.0718  0.9472
  561MOL0     C75633  -2.568   1.810   6.254  0.3878  0.0872 -0.7566
  561MOL0     C75634  -2.700   1.762   6.284 -0.0030  0.4738  0.5839
  561MOL0     C75635  -2.736   1.639   6.228  0.0916 -0.4511  0.9836
  561MOL0     O75636  -2.859   1.581   6.245  0.9330  0.1744  0.4902
  561MOL0     C75637  -2.952   1.632   6.340  0.7359 -0.7000 -0.6368
  561MOL0     C75638  -3.055   1.526   6.383  0.1997  0.2861 -0.0722
  561MOL0     C75639  -3.166   1.597   6.456  0.9342  0.4144  0.3149
  561MOL0     C75640  -3.282   1.497   6.476 -1.4178  0.2391 -0.0051
  561MOL0     C75641  -3.386   1.567   6.556  0.3443  0.4203 -0.0774
  561MOL0     C75642  -3.501   1.476   6.584 -0.2777 -0.0997 -0.4273
  561MOL0     C75643  -3.607   1.549   6.672  0.2041  0.2715  0.2114
  561MOL0     C75644  -3.745   1.484   6.672 -0.2726 -0.6800  0.3313
  561MOL0    Cl75645  -3.813   1.511   6.510 -0.2282 -0.0132 -0.1804
  561MOL0     C75646  -2.651   1.573   6.143 -0.7295 -0.7292 -0.2029
  561MOL0     C75647  -2.526   1.620   6.115 -0.3741 -0.1540  0.2631
  561MOL0     O75648  -2.328   1.964   6.245 -0.5103 -0.6451 -0.2227
  561MOL0     C75649  -2.111   1.815   6.009 -0.6318 -0.1772 -0.3976
  561MOL0     C75650  -1.985   1.828   5.944 -0.0363 -0.3467 -0.7119
  561MOL0     N75651  -1.221   1.878   5.953  0.0766  0.1806 -0.2840
  561MOL0     N75652  -1.096   1.866   5.961 -0.0766 -0.1224  0.1885
  561MOL0     C75653  -0.124   2.200   5.703  0.8517 -0.7042 -0.3325
  561MOL0     C75654  -0.002   2.198   5.636 -0.3827 -0.3123  0.8140
  561MOL0     C75655   0.395   2.144   5.455 -0.4464 -0.3938 -0.3473
  561MOL0     C75656   0.489   2.208   5.525 -0.1358  0.3001  0.1813
  561MOL0     C75657   0.614   2.249   5.464 -0.2770 -0.3906  0.4795
  561MOL0     C75658   0.625   2.226   5.328 -0.9125  1.2658  0.6015
  561MOL0     O75659   0.737   2.243   5.252  0.4976 -0.2443  0.4978
  561MOL0     C75660   0.809   2.366   5.271 -0.2452  0.3077 -0.0198
  561MOL0     C75661   0.741   2.483   5.207  0.0086  0.2178 -0.2189
  561MOL0     C75662   0.720   2.474   5.054  0.0804 -0.5455 -0.1062
  561MOL0     C75663   0.603   2.559   5.007  0.3710  0.4793 -0.6055
  561MOL0     C75664   0.473   2.539   5.074  0.0390  0.6752  0.1899
  561MOL0     C75665   0.379   2.488   5.126  0.5501  0.1163 -0.4332
  561MOL0     C75666   0.515   2.180   5.256  0.0752  1.1423  0.1071
  561MOL0     C75667   0.409   2.126   5.314 -0.1404  0.1140 -1.1008
  561MOL0     H75668   0.208   2.217   5.900  0.2738 -0.1677  1.3035
  561MOL0     H75669  -0.002   2.268   6.008 -0.7997 -0.7676  0.1132
  561MOL0     H75670  -0.360   2.315   5.779 -1.3284  0.9328 -0.7294
  561MOL0     H75671  -0.366   2.135   5.804 -0.1376 -0.2286  0.7932
  561MOL0     H75672  -0.496   2.186   6.020  1.0491 -1.1649 -0.6805
  561MOL0     H75673  -0.481   2.358   5.987  1.9925 -1.8913  3.6934
  561MOL0     H75674  -0.587   2.313   5.765 -1.4252  2.0960  2.2531
  561MOL0     H75675  -0.593   2.143   5.795  0.1333  0.5323 -0.4001
  561MOL0     H75676  -0.724   2.248   6.020 -0.3456  1.2483  0.8070
  561MOL0     H75677  -0.741   2.384   5.918 -4.8609 -0.3693  3.1570
  561MOL0     H75678  -0.941   2.255   5.902  1.6835  1.7221  1.9098
  561MOL0     H75679  -0.862   2.253   5.735  4.6749 -1.1881 -0.1214
  561MOL0     H75680  -0.970   2.035   5.811 -0.3379  1.6026  1.0819
  561MOL0     H75681  -0.804   2.041   5.743 -3.2821  1.3702 -2.9192
  561MOL0     H75682  -0.797   1.873   5.903  1.0863 -1.3638  2.5235
  561MOL0     H75683  -0.709   2.008   5.977  0.9744 -0.2164 -1.9219
  561MOL0     H75684  -0.875   2.068   6.130  1.8651 -0.7448  0.7576
  561MOL0     H75685  -0.874   1.894   6.132 -2.4963 -1.1538 -0.0623
  561MOL0     H75686  -1.139   2.156   6.108  0.8914  0.9317 -0.5054
  561MOL0     H75687  -1.416   1.995   6.151 -0.6328 -1.3584 -0.4797
  561MOL0     H75688  -1.377   2.153   6.060 -0.2393  0.3223 -1.6984
  561MOL0     H75689  -1.517   1.919   5.928 -0.7325  0.9206 -4.6110
  561MOL0     H75690  -1.432   2.058   5.858  0.0617 -2.1911 -1.0698
  561MOL0     H75691  -1.595   2.216   5.930 -1.8988  0.5673 -1.1365
  561MOL0     H75692  -1.643   2.111   6.065  1.0288  0.8042  0.1837
  561MOL0     H75693  -1.713   2.078   5.773  2.2435  0.7792  1.1530
  561MOL0     H75694  -1.830   2.143   5.887 -0.6456 -1.4417  1.8898
  561MOL0     H75695  -1.863   2.088   6.129  0.4700  0.5769 -1.1223
  561MOL0     H75696  -2.094   2.006   6.359  1.0473 -0.3572 -1.3118
  561MOL0     H75697  -1.980   2.125   6.320  0.7977 -0.9796  0.7379
  561MOL0     H75698  -2.143   2.161   6.274  0.9628  0.4023 -1.8670
  561MOL0     H75699  -2.539   1.904   6.298 -0.2494  0.1222 -0.4094
  561MOL0     H75700  -2.763   1.825   6.345 -2.9186 -0.4351 -1.2444
  561MOL0     H75701  -2.899   1.663   6.430 -1.2560 -4.5112  2.1108
  561MOL0     H75702  -3.009   1.713   6.294  1.5512 -0.7245 -1.7647
  561MOL0     H75703  -3.080   1.468   6.294  3.2514 -1.7497  0.2567
  561MOL0     H75704  -3.012   1.455   6.454  1.0626  1.2634  0.4304
  561MOL0     H75705  -3.220   1.664   6.389  0.3504 -0.5686 -0.2263
  561MOL0     H75706  -3.131   1.636   6.552  3.5745 -0.7323 -0.0691
  561MOL0     H75707  -3.327   1.470   6.380 -4.7498 -0.8199  1.6984
  561MOL0     H75708  -3.240   1.405   6.517 -2.2137 -0.5739 -0.9427
  561MOL0     H75709  -3.424   1.657   6.507  0.9879  1.0604  0.5625
  561MOL0     H75710  -3.356   1.610   6.652 -1.3268 -0.7217  1.0162
  561MOL0     H75711  -3.544   1.439   6.491  0.2619  0.2805 -0.8303
  561MOL0     H75712  -3.469   1.381   6.628  0.5167 -1.1091 -3.0350
  561MOL0     H75713  -3.613   1.650   6.631  0.7196 -0.1733 -1.0006
  561MOL0     H75714  -3.577   1.558   6.777 -0.0848  0.0416  0.3189
  561MOL0     H75715  -3.811   1.527   6.747 -1.6946 -2.8720  0.4474
  561MOL0     H75716  -3.737   1.378   6.699 -1.7067 -0.5475  1.3974
  561MOL0     H75717  -2.685   1.480   6.097 -0.2098 -1.4919  0.9160
  561MOL0     H75718  -2.467   1.573   6.037 -1.0254  0.6548 -0.7460
  561MOL0     H75719  -2.168   1.728   5.977 -0.9437 -0.7490  1.5496
  561MOL0     H75720  -1.955   1.759   5.865  0.0279 -1.4294  0.2170
  561MOL0     H75721  -0.217   2.187   5.649 -0.1994  2.7521  0.3993
  561MOL0     H75722   0.009   2.202   5.528  0.7102  2.3396  0.9371
  561MOL0     H75723   0.474   2.226   5.631  0.3230  2.4382 -0.0826
  561MOL0     H75724   0.697   2.277   5.529  1.2724 -0.5759 -1.3565
  561MOL0     H75725   0.819   2.386   5.378  1.6976 -0.8720  0.0594
  561MOL0     H75726   0.910   2.353   5.230  0.2361  1.6219  0.7055
  561MOL0     H75727   0.794   2.574   5.234  1.3149 -0.4461 -0.4428
  561MOL0     H75728   0.643   2.498   5.254 -0.0467  0.7079 -0.4885
  561MOL0     H75729   0.719   2.370   5.022  2.5292 -0.1652 -1.6576
  561MOL0     H75730   0.812   2.512   5.009  0.7071 -0.7148  0.9863
  561MOL0     H75731   0.593   2.548   4.898 -1.6817  0.1455 -0.4357
  561MOL0     H75732   0.630   2.664   5.023 -0.0894  0.8321 -2.0042
  561MOL0     H75733   0.303   2.436   5.181  2.1969 -0.0311  1.8515
  561MOL0     H75734   0.518   2.174   5.148 -0.5242 -1.6015  0.1610
  561MOL0     H75735   0.330   2.088   5.250 -1.7954  2.4686 -0.6191
  562MOL0     O75736   1.040  10.138   3.992  0.6975  0.8215 -0.5570
  562MOL0     C75737   1.072  10.022   4.011 -0.0139  0.3717  0.2704
  562MOL0     O75738   0.991   9.911   3.989  0.3002  0.1888  0.4024
  562MOL0     C75739   0.862   9.935   3.938 -0.2306  0.5275 -0.2914
  562MOL0     C75740   0.820   9.872   3.815  0.1910  0.0927 -0.5789
  562MOL0     C75741   0.693   9.896   3.766 -0.5981 -0.0479  0.8813
  562MOL0     C75742   0.600   9.985   3.835 -0.4046 -0.0639  0.5916
  562MOL0     O75743   0.482  10.018   3.771 -0.3429 -0.2546  0.2152
  562MOL0     C75744   0.408  10.134   3.802 -1.3103  0.0039  0.1840
  562MOL0     C75745   0.289  10.135   3.705  0.1136  0.3711  0.3759
  562MOL0     C75746   0.179  10.031   3.742  1.2814  0.3979  1.5016
  562MOL0     C75747   0.068  10.045   3.638  0.0613 -0.1577 -0.1041
  562MOL0     C75748  -0.046   9.955   3.680  0.0908 -1.5798 -0.3279
  562MOL0     C75749  -0.163   9.975   3.582 -0.2393  0.1413 -0.4845
  562MOL0     C75750  -0.130   9.897   3.453  0.0505  0.0774  0.4094
  562MOL0     C75751  -0.259   9.869   3.371 -0.2078  0.0929 -0.2211
  562MOL0     N75752  -0.287   9.989   3.285  0.2845 -0.3150 -0.2017
  562MOL0     C75753  -0.342  10.111   3.326 -0.0631 -0.2813  0.1446
  562MOL0     C75754  -0.317  10.194   3.222 -0.0409  0.2365  0.6364
  562MOL0     C75755  -0.354  10.336   3.209  0.5204 -0.3530 -1.1007
  562MOL0     C75756  -0.250  10.425   3.160  0.3258 -0.3406  0.2260
  562MOL0     C75757  -0.272  10.568   3.187 -0.1383 -0.7169 -0.0606
  562MOL0     C75758  -0.351  10.636   3.071 -0.0686  0.0312  0.2168
  562MOL0     O75759  -0.489  10.643   3.111 -0.1298  0.6479  0.5865
  562MOL0     C75760  -0.562  10.727   3.044 -0.0876  0.1954  0.1383
  562MOL0     C75761  -0.626  10.677   2.929 -0.5986  0.2195 -0.4314
  562MOL0     C75762  -0.716  10.757   2.856 -0.1157 -0.2299 -0.6162
  562MOL0     C75763  -0.780  10.696   2.738 -0.3666  0.0721 -0.4619
  562MOL0     C75764  -0.742  10.893   2.899 -1.4346  0.8260  0.3917
  562MOL0     C75765  -0.839  10.985   2.830 -1.0826 -0.3453 -0.7058
  562MOL0     O75766  -0.852  11.104   2.899  0.4913  0.3034 -0.5859
  562MOL0     C75767  -0.921  11.206   2.834 -0.1823 -0.0403  0.7633
  562MOL0     C75768  -1.061  11.211   2.861 -0.3999  0.9425  0.3426
  562MOL0     C75769  -1.134  11.313   2.808 -0.2860 -0.5326  0.2290
  562MOL0     C75770  -1.071  11.420   2.739 -0.6513 -0.0125 -0.3626
  562MOL0     O75771  -1.144  11.528   2.690  0.6305 -0.0002  0.6000
  562MOL0     C75772  -1.221  11.588   2.808 -0.2950 -0.4533  0.2174
  562MOL0     C75773  -1.357  11.642   2.758 -0.4242  0.4344 -1.2805
  562MOL0     C75774  -1.447  11.675   2.886  0.1247  0.4074  0.8239
  562MOL0     C75775  -1.407  11.814   2.948  1.0150 -0.0106  0.7301
  562MOL0     C75776  -1.472  11.830   3.089  0.7278  0.2670 -0.1119
  562MOL0     C75777  -1.630  11.850   3.097 -0.1712 -0.2903  0.4352
  562MOL0     C75778  -1.684  11.986   3.036 -0.0862 -0.3027 -0.7738
  562MOL0     C75779  -1.832  11.990   3.016  0.2382 -0.4301 -0.0116
  562MOL0    Cl75780  -1.934  11.932   3.145 -0.0534 -0.1405  0.0274
  562MOL0     C75781  -0.934  11.410   2.716  0.2998 -0.1414  0.4071
  562MOL0     C75782  -0.860  11.303   2.759 -0.3258  0.0415 -0.6891
  562MOL0     O75783  -0.892  10.960   2.729 -0.0321 -0.1403 -0.2188
  562MOL0     C75784  -0.688  10.935   3.024  0.2657 -0.6854 -0.6771
  562MOL0     C75785  -0.599  10.852   3.092  0.1600 -0.3466  0.4419
  562MOL0     N75786  -0.257  10.122   3.121  0.6322  0.6913  0.0457
  562MOL0     N75787  -0.239  10.000   3.164  0.4266 -0.3360  0.6556
  562MOL0     C75788   0.634  10.037   3.962  0.5520  0.2887 -0.0077
  562MOL0     C75789   0.765  10.015   4.013  0.3380  0.8195  0.4357
  562MOL0     C75790   1.217   9.997   4.044 -0.4114  0.4428  0.5149
  562MOL0     C75791   1.311  10.096   4.043  0.3972  0.0343  0.3042
  562MOL0     C75792   1.448  10.070   4.050  0.0379  0.9197  0.2612
  562MOL0     C75793   1.502   9.944   4.074  0.2611 -0.1089 -0.0088
  562MOL0     O75794   1.640   9.940   4.088 -0.2296  0.0107 -0.5732
  562MOL0     C75795   1.707   9.811   4.099  0.1326 -0.1479  0.2251
  562MOL0     C75796   1.723   9.743   3.962 -0.1387  0.8799 -0.0479
  562MOL0     C75797   1.784   9.835   3.854 -0.6236  0.1332 -1.0688
  562MOL0     C75798   1.925   9.889   3.881  0.2516 -0.1870  0.4885
  562MOL0     C75799   2.016   9.770   3.876  0.1433 -0.6168  1.2811
  562MOL0     C75800   2.064   9.659   3.878  0.5641  0.4294  0.3366
  562MOL0     C75801   1.403   9.834   4.091 -0.6838 -0.5258  0.0282
  562MOL0     C75802   1.265   9.863   4.067  0.3714 -0.0238  0.0552
  562MOL0     H75803   0.882   9.798   3.766  0.6738  0.8620 -1.1440
  562MOL0     H75804   0.653   9.857   3.673  0.2099  3.6339 -1.2055
  562MOL0     H75805   0.374  10.135   3.906  1.6415  2.8252  1.3154
  562MOL0     H75806   0.475  10.220   3.790 -1.4104  0.5743  3.0524
  562MOL0     H75807   0.248  10.236   3.696  0.0703  0.2849 -0.4704
  562MOL0     H75808   0.319  10.106   3.604  0.9275  0.0824  0.6880
  562MOL0     H75809   0.220   9.930   3.741 -1.5268 -0.8588  2.2658
  562MOL0     H75810   0.137  10.052   3.841  0.0277 -1.3375  1.3829
  562MOL0     H75811   0.030  10.147   3.630  0.3240 -0.1760 -2.0193
  562MOL0     H75812   0.096  10.000   3.542 -0.9305  0.4658 -0.7030
  562MOL0     H75813  -0.011   9.851   3.685 -1.0297 -1.9809 -0.4652
  562MOL0     H75814  -0.085   9.974   3.780 -0.5072  3.5290 -1.2876
  562MOL0     H75815  -0.253   9.927   3.620 -0.4748 -0.6231 -1.9232
  562MOL0     H75816  -0.176  10.082   3.566 -0.7903  0.0143 -0.9177
  562MOL0     H75817  -0.057   9.944   3.387 -2.5558  1.4796 -1.6154
  562MOL0     H75818  -0.100   9.796   3.483 -3.9352 -1.2953  0.3100
  562MOL0     H75819  -0.343   9.843   3.436  1.1395 -0.0022  1.5602
  562MOL0     H75820  -0.235   9.793   3.296 -1.3691  1.6698 -2.3335
  562MOL0     H75821  -0.388  10.137   3.420  1.0616  3.9369 -0.2651
  562MOL0     H75822  -0.438  10.333   3.139  0.5795  1.4837 -1.2914
  562MOL0     H75823  -0.398  10.369   3.304 -1.4371  1.1907 -2.4781
  562MOL0     H75824  -0.251  10.412   3.051 -1.2632 -1.4122  0.3428
  562MOL0     H75825  -0.152  10.397   3.200 -0.2871 -1.5829  0.9224
  562MOL0     H75826  -0.179  10.623   3.202 -0.3362 -0.5966  0.7831
  562MOL0     H75827  -0.314  10.578   3.287  0.9286  0.7026  0.2805
  562MOL0     H75828  -0.342  10.582   2.976  0.0595  1.1247 -0.4096
  562MOL0     H75829  -0.308  10.734   3.051  1.9854 -0.7252  0.6648
  562MOL0     H75830  -0.593  10.577   2.903  1.1023  0.7563 -0.4494
  562MOL0     H75831  -0.721  10.724   2.650  3.4770 -2.6000  1.0013
  562MOL0     H75832  -0.771  10.587   2.742  1.6059  0.2169  0.2671
  562MOL0     H75833  -0.884  10.725   2.720  0.2113  1.7978 -1.2981
  562MOL0     H75834  -1.107  11.134   2.921  0.9199 -0.4674 -0.3770
  562MOL0     H75835  -1.240  11.317   2.827  0.1605  1.7584  2.8730
  562MOL0     H75836  -1.248  11.512   2.881 -2.1191  0.6201  0.7108
  562MOL0     H75837  -1.155  11.668   2.844  0.7617 -1.4988  0.6988
  562MOL0     H75838  -1.333  11.737   2.710  1.7138 -0.7008 -2.6224
  562MOL0     H75839  -1.388  11.561   2.691  2.9851 -2.9892  0.8793
  562MOL0     H75840  -1.452  11.590   2.954  3.8597 -2.8106 -2.3992
  562MOL0     H75841  -1.548  11.690   2.846  0.1817 -1.8297 -0.3184
  562MOL0     H75842  -1.299  11.827   2.956  1.1375  0.9632 -1.6706
  562MOL0     H75843  -1.440  11.893   2.880  1.3714 -0.7744 -0.3629
  562MOL0     H75844  -1.416  11.908   3.140  0.8545  0.5389 -0.6671
  562MOL0     H75845  -1.440  11.742   3.146  2.5778  0.7124 -0.3852
  562MOL0     H75846  -1.671  11.770   3.035  2.8637 -0.5343 -1.4610
  562MOL0     H75847  -1.661  11.832   3.200  0.8788 -3.4079  0.3441
  562MOL0     H75848  -1.635  12.020   2.944  0.7551 -1.6031 -0.8408
  562MOL0     H75849  -1.665  12.056   3.117 -0.5166  0.4593 -1.3246
  562MOL0     H75850  -1.848  11.923   2.932 -2.1676  0.3436 -0.2340
  562MOL0     H75851  -1.871  12.090   2.996 -1.4484 -0.9571  0.4697
  562MOL0     H75852  -0.875  11.488   2.668 -1.8112  0.9792 -0.5017
  562MOL0     H75853  -0.753  11.303   2.738 -0.8136  0.8203 -3.6537
  562MOL0     H75854  -0.704  11.033   3.069  1.7668  0.0185 -1.5884
  562MOL0     H75855  -0.544  10.888   3.179  0.1524  0.1679  0.2394
  562MOL0     H75856   0.562  10.095   4.019 -1.6802 -1.7824 -0.5245
  562MOL0     H75857   0.799  10.064   4.103  0.3772  3.4618 -0.9117
  562MOL0     H75858   1.287  10.199   4.016  0.0156 -0.4931 -1.5150
  562MOL0     H75859   1.516  10.155   4.046 -0.6270  1.4815  0.6283
  562MOL0     H75860   1.810   9.812   4.136 -0.3254 -2.7597  1.7442
  562MOL0     H75861   1.657   9.743   4.168 -0.2768  0.6625  0.7388
  562MOL0     H75862   1.622   9.713   3.933  0.4993 -1.6112  0.0709
  562MOL0     H75863   1.780   9.649   3.962 -0.4951  0.5620 -3.1858
  562MOL0     H75864   1.718   9.923   3.846  0.8926  1.4349 -0.0401
  562MOL0     H75865   1.785   9.771   3.766 -1.0269 -0.3149 -0.7556
  562MOL0     H75866   1.928   9.958   3.965  3.0579  0.1631  0.1833
  562MOL0     H75867   1.954   9.951   3.795 -2.2975  0.5935  0.0749
  562MOL0     H75868   2.102   9.559   3.887 -2.0977 -0.5550  1.4241
  562MOL0     H75869   1.449   9.739   4.116  1.6742 -0.0676 -2.1151
  562MOL0     H75870   1.195   9.782   4.087 -0.3181  0.8622  1.4264
  563MOL0     O75871  10.370   8.000   2.601  0.8046 -0.1851  0.1244
  563MOL0     C75872  10.447   8.007   2.700 -0.5873 -0.4133 -0.2333
  563MOL0     O75873  10.407   8.007   2.833 -0.0243  0.0947  0.1212
  563MOL0     C75874  10.280   8.001   2.873  0.8838 -0.5271  0.2765
  563MOL0     C75875  10.261   7.948   3.005 -0.7246 -0.1434 -0.1418
  563MOL0     C75876  10.135   7.929   3.049 -0.2419  1.0715 -0.1360
  563MOL0     C75877  10.021   7.956   2.979  0.7607 -0.2502 -0.4604
  563MOL0     O75878   9.903   7.926   3.050  0.5728 -0.5640  0.1339
  563MOL0     C75879   9.789   7.906   2.958 -0.2317 -0.1688 -0.1817
  563MOL0     C75880   9.792   7.774   2.884 -0.2483  0.3303 -0.5383
  563MOL0     C75881   9.657   7.771   2.813  0.1906  0.2803 -0.0947
  563MOL0     C75882   9.636   7.889   2.716 -0.1789 -0.4697  0.3573
  563MOL0     C75883   9.529   7.854   2.616 -0.3920 -0.4609 -0.0665
  563MOL0     C75884   9.504   7.974   2.524  0.0764 -0.8758 -0.0051
  563MOL0     C75885   9.460   8.098   2.595 -0.5773 -0.0443  0.0618
  563MOL0     C75886   9.493   8.219   2.509 -0.1212 -0.5294 -0.2332
  563MOL0     N75887   9.409   8.207   2.389 -0.4553 -0.0534  0.4611
  563MOL0     C75888   9.273   8.212   2.373  0.7210 -0.2223 -0.3342
  563MOL0     C75889   9.253   8.181   2.250  0.3389  0.0013  0.7949
  563MOL0     C75890   9.118   8.179   2.186 -0.4612 -0.3642 -0.3503
  563MOL0     C75891   9.096   8.317   2.119 -0.2105  0.5280  0.8512
  563MOL0     C75892   8.969   8.328   2.035  0.3391  0.3637 -0.2290
  563MOL0     C75893   8.947   8.471   1.983  0.3046 -0.8354 -0.3545
  563MOL0     O75894   8.835   8.452   1.900  0.4061 -0.3631 -0.4472
  563MOL0     C75895   8.713   8.490   1.955 -0.1750  0.3164 -0.4391
  563MOL0     C75896   8.684   8.621   1.974 -0.3464  1.1436  0.3507
  563MOL0     C75897   8.566   8.656   2.035  0.5119 -0.0239 -0.4397
  563MOL0     C75898   8.545   8.808   2.058  0.3508 -0.0464 -0.4984
  563MOL0     C75899   8.467   8.558   2.070 -0.2178  0.2527 -0.2163
  563MOL0     C75900   8.329   8.595   2.131  0.3815  0.1020 -0.5592
  563MOL0     O75901   8.222   8.506   2.120  0.0592  0.1033 -0.1120
  563MOL0     C75902   8.099   8.553   2.159 -0.8414 -0.1210  0.0851
  563MOL0     C75903   8.065   8.545   2.295  0.6699 -0.4028 -0.3216
  563MOL0     C75904   7.927   8.572   2.335 -0.3311 -0.0638  0.0294
  563MOL0     C75905   7.838   8.622   2.228 -0.4375 -0.2792 -0.3281
  563MOL0     O75906   7.718   8.669   2.267  0.5191  0.1228  0.1060
  563MOL0     C75907   7.607   8.624   2.193  0.2145  0.5309  0.3829
  563MOL0     C75908   7.513   8.537   2.261 -0.2757  0.6530 -0.4144
  563MOL0     C75909   7.435   8.593   2.379  0.1136  0.0021  0.7206
  563MOL0     C75910   7.399   8.481   2.483  0.9070 -0.5103 -0.2092
  563MOL0     C75911   7.311   8.539   2.597  0.1591  0.4495 -0.4243
  563MOL0     C75912   7.399   8.578   2.717  0.3132 -0.1894  0.3190
  563MOL0     C75913   7.319   8.656   2.819  0.5366  0.6272 -1.3066
  563MOL0     C75914   7.384   8.792   2.855  0.3037  0.3529 -0.5627
  563MOL0    Cl75915   7.287   8.843   2.992 -0.0376  0.2334 -0.2266
  563MOL0     C75916   7.883   8.646   2.097  0.6261 -0.9765 -0.4982
  563MOL0     C75917   8.018   8.600   2.063  0.0793  0.0245 -0.1129
  563MOL0     O75918   8.326   8.699   2.195  0.7930 -0.8855  0.0314
  563MOL0     C75919   8.487   8.421   2.048 -0.0575 -0.9249  0.2649
  563MOL0     C75920   8.612   8.393   1.988 -0.1924  0.5066  0.1365
  563MOL0     N75921   9.369   8.162   2.184  0.1536 -0.0125 -0.4722
  563MOL0     N75922   9.465   8.165   2.270  0.3906 -0.5663 -0.1123
  563MOL0     C75923  10.033   8.017   2.855  1.1070  0.3185 -0.3508
  563MOL0     C75924  10.162   8.029   2.800 -0.0034 -0.2818  0.1744
  563MOL0     C75925  10.586   8.044   2.672 -0.8624  0.4854  0.1663
  563MOL0     C75926  10.628   8.051   2.533  0.0146  0.5729  0.3320
  563MOL0     C75927  10.761   8.069   2.501 -0.1988 -0.9918 -0.2481
  563MOL0     C75928  10.855   8.087   2.604  0.3391 -0.2920  1.4393
  563MOL0     O75929  10.987   8.117   2.578 -0.1520  0.4054 -0.6364
  563MOL0     C75930  11.039   8.026   2.477 -0.5547  0.2406  0.1524
  563MOL0     C75931  11.184   8.071   2.486  0.2062  0.7858  0.0145
  563MOL0     C75932  11.205   8.220   2.442 -0.1397  0.0653  0.0411
  563MOL0     C75933  11.355   8.252   2.410 -0.0327 -0.3545  0.9573
  563MOL0     C75934  11.376   8.400   2.409 -0.6592  0.2289  0.8229
  563MOL0     C75935  11.385   8.516   2.423  0.2410 -0.3101  0.0011
  563MOL0     C75936  10.812   8.093   2.741  0.5287  0.3529  0.0133
  563MOL0     C75937  10.679   8.066   2.772  0.8357 -0.2941 -0.8175
  563MOL0     H75938  10.345   7.919   3.067 -1.1102  0.1917  0.5515
  563MOL0     H75939  10.129   7.893   3.151  0.0370 -3.5598 -1.5385
  563MOL0     H75940   9.707   7.894   3.029  3.0396 -3.2190  3.5954
  563MOL0     H75941   9.780   7.990   2.888 -0.3224 -0.7791 -0.9076
  563MOL0     H75942   9.874   7.772   2.813 -0.8849 -0.1094 -1.2783
  563MOL0     H75943   9.800   7.685   2.947 -1.6009  0.2529 -0.4486
  563MOL0     H75944   9.679   7.681   2.754  0.4470 -1.5357  2.5847
  563MOL0     H75945   9.572   7.764   2.881 -0.1564 -1.6075 -0.6659
  563MOL0     H75946   9.605   7.970   2.783  2.1444  0.2413  0.6711
  563MOL0     H75947   9.732   7.911   2.668 -0.8208  2.6696  0.2805
  563MOL0     H75948   9.545   7.761   2.561 -3.8317 -3.0614  2.7867
  563MOL0     H75949   9.437   7.843   2.675  0.0056  1.4483  0.9734
  563MOL0     H75950   9.591   8.002   2.464  1.5095  1.4555  2.8804
  563MOL0     H75951   9.420   7.941   2.462  1.6665 -0.8480 -2.2892
  563MOL0     H75952   9.357   8.088   2.631  0.1150  0.6072  2.4214
  563MOL0     H75953   9.511   8.111   2.691 -0.1211 -2.0621  0.1398
  563MOL0     H75954   9.600   8.224   2.485  0.0676  2.6975  0.8685
  563MOL0     H75955   9.477   8.321   2.543  1.9714  0.1182 -1.0601
  563MOL0     H75956   9.202   8.219   2.455  0.7552  3.0183 -0.4301
  563MOL0     H75957   9.133   8.097   2.116  1.1548 -1.9584  1.7237
  563MOL0     H75958   9.037   8.164   2.257 -2.3938 -1.6369 -2.6744
  563MOL0     H75959   9.188   8.334   2.062 -1.1345 -0.6269 -1.1059
  563MOL0     H75960   9.088   8.399   2.190  0.1261  3.1227 -1.8925
  563MOL0     H75961   8.877   8.308   2.092 -1.0927  2.2445 -1.7246
  563MOL0     H75962   8.975   8.264   1.947  0.1469  3.0824 -2.3424
  563MOL0     H75963   9.029   8.500   1.918 -1.0567  3.8964 -0.3494
  563MOL0     H75964   8.932   8.552   2.055 -0.8427  1.9838 -3.5449
  563MOL0     H75965   8.737   8.704   1.928 -0.2442  0.9607  0.1320
  563MOL0     H75966   8.451   8.853   2.025  1.1196  4.1628  2.2609
  563MOL0     H75967   8.550   8.819   2.167 -1.5126  1.9944 -0.5419
  563MOL0     H75968   8.624   8.873   2.019  0.9309 -1.0554 -1.0307
  563MOL0     H75969   8.121   8.485   2.366 -0.1495  1.2925  1.8673
  563MOL0     H75970   7.898   8.564   2.439 -2.3055 -0.1638 -0.4917
  563MOL0     H75971   7.549   8.711   2.163 -0.1749  0.1373 -0.0316
  563MOL0     H75972   7.630   8.570   2.101  1.1749 -3.4844  2.6956
  563MOL0     H75973   7.445   8.499   2.184  1.8454  0.6579 -2.3817
  563MOL0     H75974   7.569   8.444   2.265  0.2632  0.8031 -2.9195
  563MOL0     H75975   7.348   8.642   2.335  1.7987  1.7730 -0.8309
  563MOL0     H75976   7.509   8.665   2.413  0.2171  0.9360 -1.3349
  563MOL0     H75977   7.346   8.403   2.427  1.6548 -0.4280 -1.0408
  563MOL0     H75978   7.492   8.447   2.528  2.5559  3.7162  0.0330
  563MOL0     H75979   7.240   8.463   2.632  1.3709 -0.3062  0.4961
  563MOL0     H75980   7.244   8.611   2.549 -0.6739 -2.0035 -3.3154
  563MOL0     H75981   7.446   8.492   2.766  1.7344  0.4794  0.1814
  563MOL0     H75982   7.477   8.649   2.689 -1.2742  2.2082  1.6421
  563MOL0     H75983   7.313   8.593   2.908 -2.6542  2.4697 -0.0228
  563MOL0     H75984   7.212   8.663   2.796  0.3782  0.4172 -0.6534
  563MOL0     H75985   7.372   8.868   2.776 -4.4490  1.2179  0.7048
  563MOL0     H75986   7.488   8.790   2.890 -0.0680  2.3296  0.7864
  563MOL0     H75987   7.813   8.699   2.033 -0.5861  0.6338  2.0036
  563MOL0     H75988   8.046   8.614   1.959 -2.2066 -0.4745 -0.8493
  563MOL0     H75989   8.424   8.338   2.078  0.5467 -0.9597  1.4988
  563MOL0     H75990   8.640   8.289   1.981 -3.7019 -0.4911 -0.8614
  563MOL0     H75991   9.956   8.053   2.788  1.2340  0.1318 -0.6008
  563MOL0     H75992  10.168   8.066   2.698  0.1076  0.6390  0.5056
  563MOL0     H75993  10.561   8.035   2.448  1.5664 -0.5402 -0.7362
  563MOL0     H75994  10.788   8.067   2.396  0.4435  1.3125 -0.1698
  563MOL0     H75995  11.028   7.919   2.498 -2.7944  0.3816 -0.0519
  563MOL0     H75996  11.005   8.050   2.376  1.2634 -0.2791 -0.6206
  563MOL0     H75997  11.242   8.005   2.422  0.6824 -2.2888  3.2800
  563MOL0     H75998  11.223   8.054   2.587  1.8268 -1.0427 -0.8502
  563MOL0     H75999  11.171   8.280   2.527 -0.7623 -0.7350  0.3709
  563MOL0     H76000  11.136   8.235   2.359 -2.1242 -4.4021  0.5794
  563MOL0     H76001  11.365   8.206   2.312  0.0934  0.4360  0.5899
  563MOL0     H76002  11.422   8.216   2.488  1.8834  5.2239  2.3527
  563MOL0     H76003  11.381   8.622   2.441 -0.4695  0.2235 -2.7980
  563MOL0     H76004  10.875   8.122   2.824  0.3562  1.8404 -0.3594
  563MOL0     H76005  10.658   8.079   2.878  1.4632 -1.1990 -0.5746
  564MOL0     O76006   8.827   5.086   3.602  0.0260  0.2716 -0.4624
  564MOL0     C76007   8.866   5.006   3.518  0.3146 -0.6970 -0.8480
  564MOL0     O76008   8.788   4.957   3.417 -0.0563 -0.4294  0.0336
  564MOL0     C76009   8.663   5.017   3.392  0.2037 -0.0726 -0.5230
  564MOL0     C76010   8.658   5.150   3.339  0.9901  1.0620  0.3800
  564MOL0     C76011   8.530   5.200   3.300  0.6701  0.4662 -0.9785
  564MOL0     C76012   8.411   5.132   3.322 -0.4069  0.7178 -0.1006
  564MOL0     O76013   8.288   5.200   3.286  0.0250  0.8049 -0.0317
  564MOL0     C76014   8.159   5.146   3.305 -0.3719  0.2767 -0.5852
  564MOL0     C76015   8.077   5.236   3.218  0.2735  0.5886 -0.6975
  564MOL0     C76016   7.939   5.252   3.293 -0.5792  0.1775 -0.1388
  564MOL0     C76017   7.854   5.361   3.222 -0.8058  1.0251 -0.4508
  564MOL0     C76018   7.756   5.427   3.314  0.0794  0.3418  0.3785
  564MOL0     C76019   7.640   5.331   3.371 -0.1628  0.1623  1.4639
  564MOL0     C76020   7.546   5.411   3.458  0.2325 -1.1665 -0.0562
  564MOL0     C76021   7.438   5.326   3.514 -0.2818 -0.3030  0.3028
  564MOL0     N76022   7.345   5.265   3.418 -0.7178 -0.2723  0.4112
  564MOL0     C76023   7.237   5.329   3.367  0.0470 -0.2480  0.3049
  564MOL0     C76024   7.200   5.249   3.260 -0.8841 -0.6059  0.1953
  564MOL0     C76025   7.089   5.260   3.154  0.2687 -0.2939 -0.6337
  564MOL0     C76026   7.036   5.401   3.139  0.4777 -0.5788  0.0992
  564MOL0     C76027   6.906   5.400   3.047  0.2513  0.0498 -0.4367
  564MOL0     C76028   6.865   5.546   3.006  0.6599  1.1955  0.5836
  564MOL0     O76029   6.742   5.533   2.929  0.1886 -0.9775 -0.2859
  564MOL0     C76030   6.624   5.588   2.987 -0.3523  1.0568 -1.1163
  564MOL0     C76031   6.616   5.691   3.082  0.5738  0.2257 -0.5200
  564MOL0     C76032   6.491   5.736   3.131  0.1718 -0.3541 -0.1283
  564MOL0     C76033   6.501   5.847   3.236 -0.4765 -1.0539  0.7761
  564MOL0     C76034   6.372   5.680   3.090  0.7003  0.9126 -0.5664
  564MOL0     C76035   6.225   5.730   3.126 -0.8090 -0.1764  0.2916
  564MOL0     O76036   6.129   5.663   3.059 -0.2515  0.6252  0.4590
  564MOL0     C76037   6.001   5.709   3.062  0.1438 -0.3926  0.1917
  564MOL0     C76038   5.934   5.725   2.940 -0.0323 -0.0063  0.4769
  564MOL0     C76039   5.789   5.764   2.943  0.8916  0.5775 -0.8730
  564MOL0     C76040   5.725   5.792   3.067  0.3970 -1.2477 -0.0675
  564MOL0     O76041   5.593   5.837   3.074 -0.6994 -0.5588  0.9072
  564MOL0     C76042   5.542   5.885   3.199  0.1604  0.1999  0.7072
  564MOL0     C76043   5.429   5.971   3.163 -0.6471  0.3380 -0.3727
  564MOL0     C76044   5.312   5.884   3.098  0.5905 -0.0098 -0.0031
  564MOL0     C76045   5.186   5.960   3.060  0.3408 -0.3984  1.1055
  564MOL0     C76046   5.074   5.875   2.981 -0.4345 -0.2320  0.4584
  564MOL0     C76047   5.115   5.847   2.833 -0.1318  0.4712  0.4906
  564MOL0     C76048   4.999   5.778   2.767 -0.4883  0.0486  0.1138
  564MOL0     C76049   5.045   5.749   2.629  0.7228  0.3068 -0.8625
  564MOL0    Cl76050   5.191   5.644   2.617 -0.0510  0.1446  0.0926
  564MOL0     C76051   5.797   5.764   3.181  0.2693  0.2833  0.4785
  564MOL0     C76052   5.927   5.731   3.180  0.0927 -0.3700  0.7550
  564MOL0     O76053   6.204   5.835   3.196 -0.0968 -0.3591 -0.2698
  564MOL0     C76054   6.382   5.571   3.001  0.0295  0.0166  0.4092
  564MOL0     C76055   6.502   5.521   2.957  0.1273 -0.2200 -0.2683
  564MOL0     N76056   7.283   5.133   3.255  0.8515  0.1318  0.2585
  564MOL0     N76057   7.367   5.144   3.353 -0.7492 -0.3411  0.5684
  564MOL0     C76058   8.423   5.000   3.371  1.0137 -0.5228 -0.5737
  564MOL0     C76059   8.547   4.946   3.406  0.1920  0.7729 -0.7837
  564MOL0     C76060   9.006   4.974   3.514 -0.7072  0.0788  0.6434
  564MOL0     C76061   9.066   4.919   3.404  0.7086  0.0323 -0.9050
  564MOL0     C76062   9.201   4.872   3.409  0.5416  0.1519  0.4292
  564MOL0     C76063   9.280   4.884   3.523  0.0268 -0.1916 -0.2280
  564MOL0     O76064   9.410   4.824   3.524 -0.4204 -0.2995 -0.4040
  564MOL0     C76065   9.494   4.869   3.630  0.0998 -0.2030 -0.6072
  564MOL0     C76066   9.638   4.837   3.593  0.4302 -0.3872  0.1252
  564MOL0     C76067   9.738   4.911   3.676 -0.2330 -0.4989 -0.3641
  564MOL0     C76068   9.881   4.908   3.622 -0.1110  0.5124 -0.3662
  564MOL0     C76069   9.943   4.773   3.615  0.4218  0.4749  0.2452
  564MOL0     C76070   9.967   4.652   3.603  0.0715 -0.6713 -1.0866
  564MOL0     C76071   9.221   4.940   3.640  0.2163 -0.2360  0.3539
  564MOL0     C76072   9.090   4.992   3.624  0.8244  0.1946  0.1253
  564MOL0     H76073   8.748   5.205   3.314  1.7231 -1.2318 -2.7671
  564MOL0     H76074   8.523   5.303   3.266 -4.8966  2.0489  3.4266
  564MOL0     H76075   8.156   5.038   3.289  1.1002 -0.1011  1.2912
  564MOL0     H76076   8.129   5.174   3.406 -1.2252  1.8740 -1.2402
  564MOL0     H76077   8.112   5.335   3.187 -1.1028  1.4338  0.3241
  564MOL0     H76078   8.073   5.175   3.127  1.4925 -3.8273  1.9009
  564MOL0     H76079   7.890   5.155   3.305  4.7956 -2.9851 -0.6742
  564MOL0     H76080   7.951   5.286   3.397 -2.3096  2.8257 -0.7028
  564MOL0     H76081   7.922   5.442   3.195 -0.5693  1.0776  0.2626
  564MOL0     H76082   7.802   5.317   3.137 -1.2067  0.6049  0.0043
  564MOL0     H76083   7.808   5.471   3.400  1.0463 -0.8094  0.3967
  564MOL0     H76084   7.704   5.500   3.251  2.3407  1.5462 -0.1909
  564MOL0     H76085   7.586   5.286   3.287 -0.4685  0.9518  1.2317
  564MOL0     H76086   7.694   5.253   3.426 -1.6604 -1.7203  0.3951
  564MOL0     H76087   7.604   5.464   3.534 -0.7238  0.8577 -0.6904
  564MOL0     H76088   7.497   5.489   3.399 -2.0361 -1.1117  1.7536
  564MOL0     H76089   7.381   5.390   3.583  1.8373  1.4333  0.5397
  564MOL0     H76090   7.479   5.246   3.577 -0.2741  0.3066  1.0959
  564MOL0     H76091   7.198   5.423   3.403 -1.0193  2.0797 -5.7847
  564MOL0     H76092   7.138   5.229   3.061 -3.0784 -3.0766 -1.6671
  564MOL0     H76093   7.014   5.181   3.166  0.7104 -0.5962  0.2676
  564MOL0     H76094   7.112   5.470   3.102  0.9653 -1.4157 -0.4970
  564MOL0     H76095   6.999   5.436   3.236 -0.8265  1.0937 -0.9343
  564MOL0     H76096   6.830   5.357   3.112  1.4425  0.4023  1.2390
  564MOL0     H76097   6.935   5.340   2.960  1.9256 -1.9250  1.3844
  564MOL0     H76098   6.946   5.586   2.944  0.2512  1.0322 -0.0717
  564MOL0     H76099   6.860   5.607   3.096  0.5077  1.8951  0.1070
  564MOL0     H76100   6.701   5.747   3.119  2.1667 -2.0096 -0.5763
  564MOL0     H76101   6.423   5.833   3.312  1.3896  3.0532  3.8343
  564MOL0     H76102   6.599   5.848   3.284  0.9969 -1.5270 -2.0351
  564MOL0     H76103   6.489   5.941   3.182 -0.7093 -0.2594  2.1598
  564MOL0     H76104   5.982   5.729   2.843 -0.4871  4.4923  0.1945
  564MOL0     H76105   5.727   5.786   2.857  0.2481  2.0532 -0.0667
  564MOL0     H76106   5.520   5.793   3.254  2.9017 -0.0987  1.4759
  564MOL0     H76107   5.608   5.957   3.249 -1.3620  2.4796 -0.4185
  564MOL0     H76108   5.392   6.024   3.252 -1.7917 -3.8069  1.8555
  564MOL0     H76109   5.467   6.048   3.095  1.1672 -0.8248 -0.7397
  564MOL0     H76110   5.273   5.811   3.170  0.9782  0.3081  0.5348
  564MOL0     H76111   5.354   5.828   3.014  2.3788 -0.2504  0.9902
  564MOL0     H76112   5.137   5.993   3.152 -0.6847  0.3834  0.2979
  564MOL0     H76113   5.213   6.053   3.009  0.1310 -0.6609  0.5213
  564MOL0     H76114   4.985   5.940   2.989 -0.6025 -0.2958 -0.7515
  564MOL0     H76115   5.058   5.777   3.026 -1.4075 -1.2180 -1.8755
  564MOL0     H76116   5.141   5.939   2.779 -0.4020 -0.2059 -0.8247
  564MOL0     H76117   5.203   5.783   2.830  1.2664  2.3471 -1.0461
  564MOL0     H76118   4.903   5.830   2.765 -0.8339 -0.5320  0.9032
  564MOL0     H76119   4.963   5.684   2.811  0.0424 -0.3750 -0.3427
  564MOL0     H76120   5.057   5.847   2.583  1.9640  1.7678  2.2876
  564MOL0     H76121   4.963   5.699   2.576 -1.0901  2.3228 -0.0526
  564MOL0     H76122   5.753   5.763   3.281  2.9518  0.5982  1.7417
  564MOL0     H76123   5.968   5.698   3.275  0.7720 -0.6719  0.3736
  564MOL0     H76124   6.290   5.524   2.965 -1.9939  2.5517  1.9171
  564MOL0     H76125   6.499   5.436   2.888  1.7342 -0.4005 -0.1551
  564MOL0     H76126   8.336   4.935   3.379  1.6388 -1.1719  1.7249
  564MOL0     H76127   8.558   4.841   3.434 -3.2911 -0.3695 -3.0669
  564MOL0     H76128   9.007   4.896   3.316  0.1523 -2.0273 -0.0476
  564MOL0     H76129   9.234   4.830   3.314  1.4307  2.5328 -0.3882
  564MOL0     H76130   9.489   4.977   3.645  0.2398  0.5075 -4.7030
  564MOL0     H76131   9.466   4.824   3.726  0.0870  0.0331 -0.4974
  564MOL0     H76132   9.642   4.857   3.486 -1.7642  1.2432  0.2796
  564MOL0     H76133   9.660   4.733   3.622 -1.0984 -0.2188  2.1699
  564MOL0     H76134   9.740   4.870   3.778  2.7407  2.3525  0.9034
  564MOL0     H76135   9.698   5.012   3.670 -0.3434 -0.6104 -1.7915
  564MOL0     H76136   9.947   4.960   3.692  0.5615 -3.0345  1.9127
  564MOL0     H76137   9.894   4.957   3.525 -0.4506  0.7414 -0.2985
  564MOL0     H76138   9.974   4.546   3.613  2.8540 -0.3501  2.2217
  564MOL0     H76139   9.271   4.953   3.736  0.7655 -2.4029  0.4166
  564MOL0     H76140   9.050   5.045   3.710 -1.1013  0.7763 -1.0688
  565MOL0     O76141   5.286   3.489   6.484  0.0999 -0.3898 -0.3852
  565MOL0     C76142   5.338   3.410   6.403  0.1932  0.4745 -0.2004
  565MOL0     O76143   5.279   3.377   6.284  0.0184 -0.3216  0.9668
  565MOL0     C76144   5.143   3.406   6.255  0.6205  0.3085 -0.1589
  565MOL0     C76145   5.105   3.437   6.129  0.1936 -0.6575  0.7874
  565MOL0     C76146   4.971   3.474   6.097 -0.2299  0.1644 -0.4337
  565MOL0     C76147   4.879   3.479   6.197 -0.9850 -0.3179  0.4072
  565MOL0     O76148   4.747   3.504   6.206 -0.5177 -0.0279  0.3681
  565MOL0     C76149   4.677   3.544   6.085 -0.0865 -0.7929 -0.3316
  565MOL0     C76150   4.537   3.628   6.107  0.1283 -0.2103 -0.9182
  565MOL0     C76151   4.424   3.538   6.152  0.0985  0.0486 -0.7962
  565MOL0     C76152   4.293   3.611   6.134  0.4428  0.1954  0.2002
  565MOL0     C76153   4.167   3.532   6.192 -0.3683 -0.6806  0.3872
  565MOL0     C76154   4.039   3.592   6.133  0.1838  0.2014  0.8704
  565MOL0     C76155   3.913   3.511   6.175  0.0866  0.0570 -0.5875
  565MOL0     C76156   3.801   3.593   6.111 -0.1344  0.0739 -0.5345
  565MOL0     N76157   3.668   3.538   6.154 -0.0442  0.4002  0.1926
  565MOL0     C76158   3.619   3.408   6.158 -0.0551 -0.4251 -0.1655
  565MOL0     C76159   3.515   3.411   6.246  0.5789 -0.3720 -0.3919
  565MOL0     C76160   3.449   3.293   6.301  0.4148  0.5717  0.1663
  565MOL0     C76161   3.294   3.291   6.279  0.4363  0.4935  0.2265
  565MOL0     C76162   3.216   3.410   6.350 -0.1840  0.5486  0.2111
  565MOL0     C76163   3.059   3.388   6.314  0.3685  0.1331 -0.3358
  565MOL0     O76164   2.975   3.452   6.412 -0.4878  1.2395  0.2458
  565MOL0     C76165   2.863   3.380   6.436 -0.3690 -0.1302 -0.0290
  565MOL0     C76166   2.871   3.272   6.521 -0.3823 -0.1907 -0.1947
  565MOL0     C76167   2.764   3.190   6.548 -0.2617 -0.6521  0.0523
  565MOL0     C76168   2.768   3.084   6.657  0.0314  0.2292 -0.1356
  565MOL0     C76169   2.641   3.216   6.483  0.1847 -0.7429  1.0632
  565MOL0     C76170   2.520   3.122   6.487  1.0494  0.0749  0.6293
  565MOL0     O76171   2.547   2.988   6.485  0.3115 -0.1002  0.3619
  565MOL0     C76172   2.452   2.905   6.436  0.8769 -0.2332 -0.1706
  565MOL0     C76173   2.506   2.829   6.332 -0.1163 -0.6157 -0.5404
  565MOL0     C76174   2.419   2.744   6.271  0.6130  1.6300 -0.5897
  565MOL0     C76175   2.297   2.717   6.334 -0.1463 -0.4467  0.3532
  565MOL0     O76176   2.200   2.642   6.276 -0.2410 -0.1653  0.6666
  565MOL0     C76177   2.213   2.587   6.140  0.0017  0.1506 -0.3454
  565MOL0     C76178   2.073   2.542   6.101  0.7834 -0.0825 -0.9945
  565MOL0     C76179   2.025   2.422   6.180 -0.0920  0.4823  0.8551
  565MOL0     C76180   1.902   2.355   6.118  0.5300  0.6625 -0.4201
  565MOL0     C76181   1.777   2.443   6.124  0.3601  0.1381 -0.1526
  565MOL0     C76182   1.748   2.496   6.261  0.2243 -0.3229 -0.0334
  565MOL0     C76183   1.626   2.582   6.278  1.1480  0.1396 -0.2536
  565MOL0     C76184   1.493   2.511   6.225 -0.3496  0.0279  0.2969
  565MOL0    Cl76185   1.355   2.609   6.283 -0.1782 -0.3635 -0.0500
  565MOL0     C76186   2.244   2.794   6.441  0.4677 -0.4882  0.8534
  565MOL0     C76187   2.323   2.896   6.490  0.1685  0.9412  0.2581
  565MOL0     O76188   2.407   3.176   6.491  0.6353 -0.0183  0.2390
  565MOL0     C76189   2.638   3.325   6.399 -0.0981  0.2460  0.3996
  565MOL0     C76190   2.751   3.401   6.368  0.5406 -0.7033  0.2816
  565MOL0     N76191   3.510   3.536   6.302  0.2851  0.1881 -0.5083
  565MOL0     N76192   3.587   3.613   6.232 -0.5798  0.0096 -0.2505
  565MOL0     C76193   4.917   3.433   6.331  0.3300 -0.7176  0.7508
  565MOL0     C76194   5.045   3.399   6.356 -0.2780 -0.0712  0.3564
  565MOL0     C76195   5.470   3.355   6.439  1.4724 -0.6409 -0.5676
  565MOL0     C76196   5.529   3.405   6.550  0.5147 -0.1780  0.3768
  565MOL0     C76197   5.657   3.363   6.587 -0.3006 -0.6139  0.3512
  565MOL0     C76198   5.720   3.267   6.512 -0.4083 -0.4646  0.3985
  565MOL0     O76199   5.842   3.221   6.534 -0.7160 -1.0543 -0.4052
  565MOL0     C76200   5.928   3.260   6.638 -0.1307  0.3433 -0.3384
  565MOL0     C76201   6.040   3.158   6.657 -0.1952  0.3672 -0.3768
  565MOL0     C76202   6.125   3.180   6.782  0.0323 -0.7337  0.4990
  565MOL0     C76203   6.249   3.089   6.780  0.3954  0.1652 -0.3195
  565MOL0     C76204   6.328   3.110   6.659 -0.3942 -0.2673  0.0890
  565MOL0     C76205   6.402   3.148   6.574 -0.3462  0.0778  0.5765
  565MOL0     C76206   5.655   3.217   6.401  0.5068  0.2921  0.4781
  565MOL0     C76207   5.530   3.259   6.366  0.0453  0.7343  0.0240
  565MOL0     H76208   5.184   3.443   6.055 -0.7858 -0.0129 -0.2349
  565MOL0     H76209   4.946   3.516   6.000 -1.1801  0.6724  0.0216
  565MOL0     H76210   4.753   3.601   6.029  0.2897  0.7367  1.6342
  565MOL0     H76211   4.663   3.454   6.024  1.1384 -0.2139 -1.5417
  565MOL0     H76212   4.549   3.715   6.171 -1.3327 -1.4393  1.1419
  565MOL0     H76213   4.514   3.669   6.008  0.6581  0.7620 -0.6393
  565MOL0     H76214   4.427   3.448   6.090  0.6043 -1.0273  0.7422
  565MOL0     H76215   4.440   3.513   6.257  0.0379  1.9830 -0.2856
  565MOL0     H76216   4.298   3.713   6.173 -0.8474 -0.1073  1.2235
  565MOL0     H76217   4.275   3.624   6.027 -0.6633 -0.2518  0.3213
  565MOL0     H76218   4.175   3.429   6.156 -0.6266  0.3612 -3.0114
  565MOL0     H76219   4.162   3.528   6.301 -0.7644  0.5666  0.4241
  565MOL0     H76220   4.032   3.690   6.181 -1.4039 -0.4528  2.0941
  565MOL0     H76221   4.045   3.603   6.025  0.2113 -0.7938  0.7586
  565MOL0     H76222   3.915   3.410   6.133 -1.9910 -0.3216  0.1154
  565MOL0     H76223   3.915   3.508   6.284  3.2996 -2.1356 -0.5582
  565MOL0     H76224   3.817   3.595   6.003  2.2102  0.7738 -0.2372
  565MOL0     H76225   3.802   3.696   6.147 -1.4637 -0.3824  0.9297
  565MOL0     H76226   3.667   3.320   6.118 -1.3214 -1.0010 -0.4810
  565MOL0     H76227   3.488   3.208   6.245  0.1437  0.9175 -0.5525
  565MOL0     H76228   3.476   3.285   6.407 -0.1371  1.4353  0.3806
  565MOL0     H76229   3.249   3.195   6.307  0.4686 -0.2015 -1.9185
  565MOL0     H76230   3.265   3.307   6.175  0.0737 -1.1309  0.0452
  565MOL0     H76231   3.254   3.509   6.322  1.0693  0.6235  1.9931
  565MOL0     H76232   3.222   3.393   6.458  0.6075 -3.3262 -0.2833
  565MOL0     H76233   3.040   3.280   6.312  1.5444 -0.1244 -2.9391
  565MOL0     H76234   3.036   3.420   6.211  1.1932  0.1241 -0.5280
  565MOL0     H76235   2.961   3.244   6.575 -0.5427  0.3704  0.3766
  565MOL0     H76236   2.693   3.100   6.736  1.7521 -0.2828  1.6814
  565MOL0     H76237   2.756   2.982   6.620 -2.8392  0.0459  1.0232
  565MOL0     H76238   2.866   3.090   6.705  0.7184 -0.4123 -1.3853
  565MOL0     H76239   2.607   2.841   6.295 -0.2521  0.9075 -0.4662
  565MOL0     H76240   2.441   2.682   6.185 -2.1270  0.5333 -0.6013
  565MOL0     H76241   2.253   2.653   6.063  0.2593 -1.5186 -1.6932
  565MOL0     H76242   2.282   2.504   6.153  0.2593  0.6721  2.0923
  565MOL0     H76243   2.006   2.629   6.104 -0.8134 -1.2714 -1.2750
  565MOL0     H76244   2.073   2.514   5.995 -0.1008 -0.0993 -0.9967
  565MOL0     H76245   2.002   2.446   6.284  0.5715 -0.5941  1.2739
  565MOL0     H76246   2.104   2.346   6.186  0.1984  0.7175  0.1624
  565MOL0     H76247   1.934   2.323   6.018  0.7104  1.4965 -0.6367
  565MOL0     H76248   1.880   2.258   6.162 -0.0726  1.6720  1.6155
  565MOL0     H76249   1.694   2.378   6.094  2.7213 -3.1788 -0.1128
  565MOL0     H76250   1.788   2.524   6.052 -3.2738 -1.0715 -2.3885
  565MOL0     H76251   1.746   2.412   6.332  2.0883  1.1149  1.8639
  565MOL0     H76252   1.828   2.562   6.295 -0.7052  1.0944 -0.5178
  565MOL0     H76253   1.638   2.675   6.221 -2.5130 -0.3802 -2.2212
  565MOL0     H76254   1.621   2.616   6.381 -2.7312  0.0524 -0.2558
  565MOL0     H76255   1.485   2.405   6.250  0.5566 -0.6344 -2.0008
  565MOL0     H76256   1.499   2.510   6.116  0.4067  2.2044  0.2649
  565MOL0     H76257   2.143   2.772   6.475 -0.5275  2.1143 -0.1638
  565MOL0     H76258   2.299   2.961   6.575  0.9662  1.2165  0.2775
  565MOL0     H76259   2.541   3.339   6.352 -0.6399 -2.3090  0.6030
  565MOL0     H76260   2.754   3.484   6.298  3.0239 -0.0070  1.1077
  565MOL0     H76261   4.843   3.454   6.408 -0.7752  1.2218 -0.7281
  565MOL0     H76262   5.064   3.387   6.462  0.2558 -2.7040  0.0490
  565MOL0     H76263   5.480   3.489   6.598 -0.0594  0.5931 -1.4718
  565MOL0     H76264   5.702   3.417   6.670  2.6412 -3.6794  0.9455
  565MOL0     H76265   5.975   3.357   6.615  0.2305 -0.2070 -2.1046
  565MOL0     H76266   5.874   3.259   6.733  1.1810 -1.8912  0.4609
  565MOL0     H76267   6.098   3.161   6.565 -3.7690 -1.9220 -2.9498
  565MOL0     H76268   5.995   3.059   6.672 -0.4448  0.7030  1.3308
  565MOL0     H76269   6.056   3.152   6.862  0.7354 -1.6787  0.8044
  565MOL0     H76270   6.158   3.284   6.790  2.1971 -1.0646 -2.3090
  565MOL0     H76271   6.213   2.987   6.793 -0.2980  0.4175 -0.1993
  565MOL0     H76272   6.314   3.112   6.866  0.2557 -0.9528  0.0971
  565MOL0     H76273   6.467   3.181   6.495  0.4078  2.4899  2.0901
  565MOL0     H76274   5.702   3.146   6.334 -0.7760  0.4642 -0.6519
  565MOL0     H76275   5.486   3.211   6.278  1.4563  0.2313 -0.4299
  566MOL0     O76276   9.335   2.071   0.931 -0.0342 -0.3218 -0.0656
  566MOL0     C76277   9.377   2.133   0.836  0.2266  0.2044  0.2826
  566MOL0     O76278   9.311   2.141   0.714  0.6185  0.3138 -0.4360
  566MOL0     C76279   9.185   2.096   0.710 -0.2920  0.8388 -0.3484
  566MOL0     C76280   9.140   2.012   0.612 -0.3039  0.3168 -0.3382
  566MOL0     C76281   9.017   1.955   0.607  1.0747 -1.1079 -0.0422
  566MOL0     C76282   8.919   1.995   0.707  0.5602 -0.1225  0.1176
  566MOL0     O76283   8.786   1.959   0.724 -0.1486 -1.1130  0.7810
  566MOL0     C76284   8.743   1.863   0.630 -0.3798  1.0327  0.0525
  566MOL0     C76285   8.600   1.814   0.644  0.0355 -0.0343 -0.6537
  566MOL0     C76286   8.489   1.911   0.590  0.8597  0.5701  0.1268
  566MOL0     C76287   8.356   1.835   0.587 -0.3155  0.7751  1.4730
  566MOL0     C76288   8.246   1.918   0.519  0.1885 -0.8036  0.0180
  566MOL0     C76289   8.102   1.867   0.553 -0.0337 -0.4830 -0.2222
  566MOL0     C76290   8.007   1.975   0.515  0.4597 -0.1472  0.2492
  566MOL0     C76291   7.870   1.944   0.576  0.6476  0.4111  0.1547
  566MOL0     N76292   7.809   1.822   0.519  0.1150  0.9458  0.2680
  566MOL0     C76293   7.848   1.687   0.534  0.1674 -0.9061 -0.5650
  566MOL0     C76294   7.794   1.622   0.429 -0.3102  0.3209 -0.2342
  566MOL0     C76295   7.812   1.481   0.400 -0.0855 -0.0139 -0.4035
  566MOL0     C76296   7.950   1.442   0.334  0.1054  1.0595 -0.5024
  566MOL0     C76297   7.957   1.292   0.298  0.2202 -0.1612  0.2439
  566MOL0     C76298   8.096   1.232   0.274  0.0206  0.4645  0.2713
  566MOL0     O76299   8.162   1.306   0.174 -0.3110  0.3290  0.4505
  566MOL0     C76300   8.282   1.256   0.118 -0.5891  0.7598 -0.3780
  566MOL0     C76301   8.345   1.331   0.015  0.2949  0.0161  0.2551
  566MOL0     C76302   8.463   1.288  -0.041  0.1154  0.0552 -0.6909
  566MOL0     C76303   8.520   1.372  -0.155  0.8880 -0.5093 -0.0072
  566MOL0     C76304   8.516   1.170   0.007 -0.2064 -0.5762  0.3938
  566MOL0     C76305   8.662   1.135  -0.017  0.7134 -1.1095 -0.4848
  566MOL0     O76306   8.705   1.007  -0.032  0.7083 -0.2555 -0.3990
  566MOL0     C76307   8.824   0.987  -0.091  0.1096  0.8117  0.3706
  566MOL0     C76308   8.922   0.924  -0.019  0.4792  0.3421  0.6098
  566MOL0     C76309   9.048   0.902  -0.076  0.0133 -0.8176 -0.8570
  566MOL0     C76310   9.068   0.930  -0.209  0.1937 -0.1089 -0.5571
  566MOL0     O76311   9.183   0.908  -0.273  0.5001  0.7161 -0.2638
  566MOL0     C76312   9.281   0.840  -0.194 -0.5352  0.4008  1.5656
  566MOL0     C76313   9.385   0.792  -0.301 -0.0328  0.1038  0.9166
  566MOL0     C76314   9.508   0.879  -0.302  0.2044 -0.2472  1.0445
  566MOL0     C76315   9.596   0.854  -0.424  0.3474 -0.7944  0.7319
  566MOL0     C76316   9.660   0.722  -0.434  0.1242 -0.3143  0.4857
  566MOL0     C76317   9.786   0.732  -0.514 -0.7788 -0.5845  0.6106
  566MOL0     C76318   9.884   0.614  -0.508  0.2483 -0.0996 -0.3531
  566MOL0     C76319   9.994   0.636  -0.608 -0.2653  0.1305  0.0786
  566MOL0    Cl76320   9.949   0.590  -0.773 -0.3895 -0.2391 -0.2497
  566MOL0     C76321   8.970   0.989  -0.282 -0.8977  0.5672  0.4032
  566MOL0     C76322   8.853   1.027  -0.222 -0.1392 -0.3360  0.8169
  566MOL0     O76323   8.733   1.236  -0.006 -0.8068 -0.5381 -0.0146
  566MOL0     C76324   8.456   1.091   0.103  0.0845  0.0520  0.6312
  566MOL0     C76325   8.329   1.127   0.155 -0.3808  0.0727  0.3708
  566MOL0     N76326   7.709   1.709   0.369  0.3041  0.0071 -0.4681
  566MOL0     N76327   7.726   1.828   0.419  0.1149 -0.0587 -0.2968
  566MOL0     C76328   8.952   2.096   0.791  0.2330 -0.3557 -0.2260
  566MOL0     C76329   9.093   2.143   0.806  0.8681 -0.3268  0.0632
  566MOL0     C76330   9.496   2.214   0.843 -0.4869  0.1134 -0.2993
  566MOL0     C76331   9.525   2.308   0.738 -0.5660 -0.1571  0.3951
  566MOL0     C76332   9.644   2.376   0.740  0.4761 -0.8395 -0.0951
  566MOL0     C76333   9.735   2.355   0.844 -1.0433 -0.4346  0.8498
  566MOL0     O76334   9.848   2.432   0.845 -0.0691 -0.0712 -0.2694
  566MOL0     C76335   9.972   2.355   0.867  0.1075 -0.8273  0.5036
  566MOL0     C76336  10.097   2.459   0.864 -0.1020 -0.3154 -0.5690
  566MOL0     C76337  10.215   2.392   0.937 -1.1604 -0.4246  0.1546
  566MOL0     C76338  10.259   2.256   0.881  0.2069  0.5992 -0.0945
  566MOL0     C76339  10.297   2.268   0.736  0.4362  0.9354 -0.2099
  566MOL0     C76340  10.329   2.273   0.619 -0.2811  0.3249  0.8999
  566MOL0     C76341   9.706   2.257   0.939  0.1324 -0.0254 -0.5215
  566MOL0     C76342   9.588   2.187   0.939 -0.1962  0.2979 -0.2420
  566MOL0     H76343   9.207   1.985   0.530 -0.3257 -0.3689 -0.1316
  566MOL0     H76344   8.991   1.899   0.518 -0.6519  1.9003 -1.5859
  566MOL0     H76345   8.751   1.902   0.528  0.5336 -1.0987 -0.7537
  566MOL0     H76346   8.808   1.775   0.641 -0.7678  0.5945 -1.0451
  566MOL0     H76347   8.587   1.724   0.583 -1.8479 -1.2479  1.3854
  566MOL0     H76348   8.575   1.779   0.745  0.5553  0.9684 -0.1498
  566MOL0     H76349   8.471   2.001   0.650 -1.8146  0.4428 -0.3573
  566MOL0     H76350   8.525   1.944   0.493  1.5952  1.0600  0.5587
  566MOL0     H76351   8.356   1.738   0.537 -0.8826  1.1562  0.7081
  566MOL0     H76352   8.327   1.820   0.691  0.5761 -1.9322  1.3990
  566MOL0     H76353   8.248   2.023   0.548 -0.6938 -0.2377 -1.8515
  566MOL0     H76354   8.259   1.919   0.411 -1.2050  0.0762 -0.1708
  566MOL0     H76355   8.083   1.772   0.501  0.6837  0.1070 -1.5997
  566MOL0     H76356   8.090   1.859   0.661 -1.3666  2.2720 -0.0849
  566MOL0     H76357   8.051   2.071   0.542 -0.7894  1.1163 -1.9656
  566MOL0     H76358   8.003   1.968   0.406  1.3374  1.0390  0.1263
  566MOL0     H76359   7.800   2.025   0.558  0.4404  0.4473  1.0488
  566MOL0     H76360   7.869   1.937   0.685 -1.1989 -0.8658  0.0914
  566MOL0     H76361   7.910   1.639   0.609 -0.7344  0.6159  1.2241
  566MOL0     H76362   7.798   1.429   0.496  1.0524  1.3927  0.5666
  566MOL0     H76363   7.740   1.444   0.327  0.9363  0.3262 -1.6055
  566MOL0     H76364   8.033   1.472   0.400  0.1147  3.8435 -1.6701
  566MOL0     H76365   7.961   1.497   0.241  0.1166  0.0889 -1.0896
  566MOL0     H76366   7.902   1.265   0.207 -0.7337  0.8539  0.5109
  566MOL0     H76367   7.905   1.229   0.371  0.1864 -0.6596 -0.2010
  566MOL0     H76368   8.084   1.125   0.256 -0.8900  0.5316  0.4086
  566MOL0     H76369   8.143   1.248   0.371 -0.6431  0.5146  0.5901
  566MOL0     H76370   8.291   1.418  -0.023 -1.2738 -1.9325 -2.3271
  566MOL0     H76371   8.557   1.467  -0.114  0.7326 -1.9703  3.8612
  566MOL0     H76372   8.605   1.328  -0.209  2.0532  0.0882  1.2704
  566MOL0     H76373   8.447   1.393  -0.234 -0.2415 -2.4664  0.4608
  566MOL0     H76374   8.915   0.888   0.083  1.5786 -1.6496  0.0331
  566MOL0     H76375   9.116   0.857  -0.005  3.0811 -1.8399 -4.1761
  566MOL0     H76376   9.327   0.904  -0.118 -1.9550  2.7142  0.5703
  566MOL0     H76377   9.240   0.750  -0.147  1.9906  0.2122  3.6559
  566MOL0     H76378   9.411   0.686  -0.288 -1.9850 -0.4437  0.6946
  566MOL0     H76379   9.350   0.803  -0.404  2.8841 -2.6444 -0.5393
  566MOL0     H76380   9.567   0.871  -0.210  2.4550 -0.2704 -0.3263
  566MOL0     H76381   9.478   0.985  -0.306 -0.3521 -0.4080 -2.0200
  566MOL0     H76382   9.542   0.880  -0.516  0.7961  2.3736  1.2514
  566MOL0     H76383   9.676   0.928  -0.420  0.3177 -0.3791 -2.7581
  566MOL0     H76384   9.586   0.653  -0.476  0.4843  0.0996 -0.8722
  566MOL0     H76385   9.690   0.676  -0.339 -2.2420  0.5541  1.7086
  566MOL0     H76386   9.765   0.745  -0.621 -1.0478 -0.5850  0.6647
  566MOL0     H76387   9.842   0.822  -0.486 -1.5077  0.9993 -2.5471
  566MOL0     H76388   9.825   0.522  -0.520 -3.0486  1.5320  1.8985
  566MOL0     H76389   9.938   0.615  -0.413 -0.3048  3.3354  0.0352
  566MOL0     H76390  10.076   0.567  -0.583 -0.1531 -0.6816 -2.3100
  566MOL0     H76391  10.037   0.734  -0.590 -1.8052  0.3692  3.1583
  566MOL0     H76392   8.992   1.000  -0.387 -1.0150  0.1539  0.3330
  566MOL0     H76393   8.770   1.071  -0.278 -0.7415  0.3242  2.1865
  566MOL0     H76394   8.497   0.999   0.140  1.6834 -0.0002 -1.1342
  566MOL0     H76395   8.270   1.068   0.225 -1.9206  2.0732  0.8581
  566MOL0     H76396   8.870   2.131   0.852  1.3942 -1.2712  1.9693
  566MOL0     H76397   9.124   2.208   0.888 -1.3720  1.8899 -0.7197
  566MOL0     H76398   9.450   2.329   0.662  0.9995 -2.0429 -1.7947
  566MOL0     H76399   9.670   2.449   0.665  2.6234 -1.0165  0.4068
  566MOL0     H76400   9.957   2.319   0.969 -3.1861 -1.2395 -0.0100
  566MOL0     H76401   9.980   2.268   0.802  4.1902 -0.7568  0.6866
  566MOL0     H76402  10.081   2.557   0.910  1.9851  0.5645 -1.5442
  566MOL0     H76403  10.120   2.481   0.759  0.9537 -1.0409 -0.5090
  566MOL0     H76404  10.188   2.376   1.042 -1.1030  0.9295  0.3970
  566MOL0     H76405  10.304   2.454   0.923 -2.6739  2.5201  2.2834
  566MOL0     H76406  10.180   2.183   0.901 -0.0136  1.3252  1.9967
  566MOL0     H76407  10.347   2.224   0.939 -0.7726 -2.3779 -0.1085
  566MOL0     H76408  10.375   2.275   0.523  0.4707 -1.8820  1.1664
  566MOL0     H76409   9.778   2.230   1.015 -1.5040  0.9463  1.4653
  566MOL0     H76410   9.577   2.112   1.017  0.3221  0.4757  0.0037
  567MOL0     O76411   5.325   4.802   1.908 -0.3533  0.4999  0.1563
  567MOL0     C76412   5.320   4.790   2.030 -0.6674 -0.2250  0.1535
  567MOL0     O76413   5.202   4.807   2.108  0.0140  0.5234  0.0024
  567MOL0     C76414   5.087   4.832   2.048  0.5299 -0.1039  0.4819
  567MOL0     C76415   5.071   4.929   1.947  0.6740 -0.1875  0.1736
  567MOL0     C76416   4.944   4.969   1.900 -0.3438 -0.3470  0.1266
  567MOL0     C76417   4.836   4.897   1.937  0.4871 -0.1794 -0.1842
  567MOL0     O76418   4.716   4.931   1.873  0.1767 -0.2538 -0.1372
  567MOL0     C76419   4.584   4.885   1.911 -0.3178 -0.8624 -0.6261
  567MOL0     C76420   4.479   4.959   1.824 -0.4422 -0.3217 -0.0158
  567MOL0     C76421   4.340   4.896   1.850 -0.1409 -0.4274 -0.7297
  567MOL0     C76422   4.255   4.890   1.728 -0.3387 -0.3007  0.1206
  567MOL0     C76423   4.215   5.027   1.679  0.6938  0.3988 -0.5794
  567MOL0     C76424   4.153   5.008   1.534 -0.3754 -0.3263 -0.0724
  567MOL0     C76425   4.021   4.933   1.535 -0.1245 -0.1710  0.1334
  567MOL0     C76426   3.955   4.932   1.404  0.2290 -0.0008  0.7002
  567MOL0     N76427   3.829   4.855   1.408 -0.4668 -0.1378 -0.0501
  567MOL0     C76428   3.814   4.722   1.396 -0.4042 -0.2027 -0.0072
  567MOL0     C76429   3.688   4.694   1.439  0.7047 -0.0575  0.5202
  567MOL0     C76430   3.623   4.563   1.422  0.4784  1.2106  0.4736
  567MOL0     C76431   3.529   4.563   1.298  0.2522 -0.0678  0.1994
  567MOL0     C76432   3.608   4.589   1.170  0.0349  0.0146 -0.3126
  567MOL0     C76433   3.519   4.629   1.056 -0.6278 -0.5739  0.0170
  567MOL0     O76434   3.400   4.556   1.045  0.4012 -0.3972  0.2608
  567MOL0     C76435   3.304   4.616   0.967  0.4663 -0.1641 -0.3187
  567MOL0     C76436   3.316   4.716   0.869  0.6513 -0.2623 -0.1964
  567MOL0     C76437   3.201   4.739   0.786 -0.5600 -0.0260  0.2804
  567MOL0     C76438   3.239   4.813   0.658 -0.7591 -0.7959  1.1912
  567MOL0     C76439   3.076   4.696   0.816 -0.2808  0.3664 -0.4588
  567MOL0     C76440   2.957   4.743   0.740 -0.0230  0.7685  0.1895
  567MOL0     O76441   2.958   4.859   0.664 -0.2323 -0.2803  0.4072
  567MOL0     C76442   2.844   4.924   0.615  0.0758  0.4177  0.8331
  567MOL0     C76443   2.708   4.896   0.654  0.2031  0.4756 -0.2348
  567MOL0     C76444   2.595   4.957   0.607  0.1822  0.0767  0.1139
  567MOL0     C76445   2.605   5.056   0.516 -0.4141  0.9210 -0.3951
  567MOL0     O76446   2.504   5.126   0.462  0.4656 -0.0732 -0.2551
  567MOL0     C76447   2.422   5.057   0.378  0.3796 -0.0558 -0.1093
  567MOL0     C76448   2.278   5.063   0.425 -0.4327  0.2632 -0.0408
  567MOL0     C76449   2.246   5.028   0.568  0.3324 -0.0908 -0.3020
  567MOL0     C76450   2.102   5.056   0.609 -0.4282  0.1097  0.5568
  567MOL0     C76451   2.086   5.006   0.748  0.1000  0.2628 -0.2813
  567MOL0     C76452   1.945   5.038   0.797 -0.4775  0.6537 -0.0808
  567MOL0     C76453   1.918   4.998   0.937  0.2313 -0.4952 -1.2687
  567MOL0     C76454   1.787   5.037   0.977  0.3512  0.1980  0.5357
  567MOL0    Cl76455   1.781   5.020   1.156  0.2017 -0.3212  0.4203
  567MOL0     C76456   2.730   5.089   0.472 -0.8526 -0.1995 -0.0091
  567MOL0     C76457   2.843   5.030   0.525 -0.7351  0.1261  0.3823
  567MOL0     O76458   2.860   4.673   0.758 -0.0622 -0.3327  0.4941
  567MOL0     C76459   3.062   4.603   0.915  0.4844  0.2541 -0.2235
  567MOL0     C76460   3.175   4.549   0.978 -0.1477 -0.5622 -0.3333
  567MOL0     N76461   3.626   4.808   1.493  0.4899  0.4845  0.1353
  567MOL0     N76462   3.709   4.903   1.468 -0.2570  0.6562 -0.6361
  567MOL0     C76463   4.840   4.804   2.039 -0.1468  0.1637  0.5942
  567MOL0     C76464   4.965   4.778   2.101 -0.2908 -1.4523 -0.2013
  567MOL0     C76465   5.445   4.786   2.109  0.3717  0.3646 -0.7322
  567MOL0     C76466   5.573   4.755   2.063  0.0857 -0.1100 -0.0277
  567MOL0     C76467   5.682   4.749   2.150 -0.8314 -0.1690  0.5999
  567MOL0     C76468   5.670   4.779   2.284  0.5818  0.6650 -0.4234
  567MOL0     O76469   5.779   4.789   2.367  0.3450 -0.1411  0.6482
  567MOL0     C76470   5.837   4.663   2.400 -0.2988  0.0660 -0.1296
  567MOL0     C76471   5.933   4.689   2.516  0.1486 -0.1562  0.4940
  567MOL0     C76472   6.065   4.746   2.470 -0.5336 -0.0272 -0.7219
  567MOL0     C76473   6.147   4.803   2.590 -0.0583  0.6555  0.1457
  567MOL0     C76474   6.085   4.925   2.638  0.6069 -0.0103  0.7659
  567MOL0     C76475   6.034   5.025   2.688  0.1985  0.8058 -0.0339
  567MOL0     C76476   5.553   4.832   2.330 -0.0926  0.0506 -0.1596
  567MOL0     C76477   5.443   4.832   2.243 -0.0209 -0.1058  0.0170
  567MOL0     H76478   5.154   4.998   1.931  1.0745 -0.4068  1.2614
  567MOL0     H76479   4.929   5.054   1.833 -0.0427 -1.2100 -1.0748
  567MOL0     H76480   4.583   4.775   1.906  2.7888 -1.2854  2.9713
  567MOL0     H76481   4.575   4.891   2.020 -2.8684  0.7256 -0.8571
  567MOL0     H76482   4.473   5.067   1.839  1.8647  0.1071 -1.5576
  567MOL0     H76483   4.505   4.939   1.720 -3.5674 -2.1398 -0.5722
  567MOL0     H76484   4.357   4.791   1.878  0.8535 -0.6078 -1.9159
  567MOL0     H76485   4.296   4.947   1.935 -0.0574  0.5009 -1.2308
  567MOL0     H76486   4.313   4.835   1.654 -1.1963 -1.2714  0.1497
  567MOL0     H76487   4.166   4.833   1.756 -0.8237 -0.2997 -1.3339
  567MOL0     H76488   4.146   5.076   1.749  2.6339  1.5237  0.6318
  567MOL0     H76489   4.300   5.096   1.676 -0.8670  2.5350  1.3322
  567MOL0     H76490   4.133   5.107   1.492 -0.8207  0.3268  1.5916
  567MOL0     H76491   4.227   4.959   1.470 -0.5046 -2.2027  1.1433
  567MOL0     H76492   4.034   4.830   1.570  0.0879  0.2650  1.4139
  567MOL0     H76493   3.950   4.994   1.591 -0.6168 -1.4112  0.9263
  567MOL0     H76494   4.016   4.890   1.323  0.0430  3.7218 -1.5960
  567MOL0     H76495   3.939   5.035   1.371 -0.5485 -0.2282  0.3247
  567MOL0     H76496   3.888   4.649   1.366  0.5911  1.5779 -2.1295
  567MOL0     H76497   3.703   4.489   1.412  1.3095  2.1579  0.0411
  567MOL0     H76498   3.563   4.531   1.508  1.2328  0.5152  0.7566
  567MOL0     H76499   3.447   4.634   1.315  0.8459  0.5435  0.5364
  567MOL0     H76500   3.474   4.469   1.292 -1.7197  1.0757 -0.5840
  567MOL0     H76501   3.652   4.493   1.141 -0.7616 -0.0319 -1.4651
  567MOL0     H76502   3.682   4.666   1.187  1.3534 -1.0322 -1.1194
  567MOL0     H76503   3.570   4.621   0.960 -1.7237 -1.1053 -0.5421
  567MOL0     H76504   3.483   4.731   1.075 -0.1191  0.0597 -2.1843
  567MOL0     H76505   3.408   4.762   0.835 -1.0334  2.1197 -1.7997
  567MOL0     H76506   3.209   4.917   0.647  3.5931  0.4444 -1.9460
  567MOL0     H76507   3.345   4.817   0.632 -1.5210  1.3935 -2.0910
  567MOL0     H76508   3.188   4.751   0.584  1.9763  0.1261 -1.6867
  567MOL0     H76509   2.682   4.839   0.742  0.3924  0.0482 -0.4519
  567MOL0     H76510   2.501   4.950   0.662 -0.2534  0.1971 -0.6000
  567MOL0     H76511   2.425   5.117   0.287 -0.4361  0.9140  0.4901
  567MOL0     H76512   2.441   4.952   0.354 -0.3940 -0.5020  1.1337
  567MOL0     H76513   2.237   5.161   0.397  1.5497  1.0319 -0.4050
  567MOL0     H76514   2.225   4.993   0.359  0.6310 -0.5115 -0.0935
  567MOL0     H76515   2.311   5.090   0.631 -0.8616  0.2285  0.6524
  567MOL0     H76516   2.273   4.924   0.585 -0.4325 -0.5944 -1.9285
  567MOL0     H76517   2.083   5.164   0.601  1.0615  0.5387  2.1858
  567MOL0     H76518   2.034   5.003   0.541  0.3748 -0.9228  0.5447
  567MOL0     H76519   2.155   5.051   0.820  2.7875  2.6084 -3.9156
  567MOL0     H76520   2.099   4.898   0.759  1.8807  0.6283  1.8931
  567MOL0     H76521   1.935   5.146   0.785  2.1623  0.9618 -0.0929
  567MOL0     H76522   1.877   4.993   0.724  1.8841 -1.0129 -1.4298
  567MOL0     H76523   1.990   5.029   1.013 -0.4724 -2.4139  0.2629
  567MOL0     H76524   1.929   4.889   0.938 -0.6498 -0.5895 -0.9118
  567MOL0     H76525   1.708   4.984   0.924  1.3981  1.4217 -2.4574
  567MOL0     H76526   1.772   5.144   0.960  0.3876  0.0609 -0.3756
  567MOL0     H76527   2.741   5.160   0.391  2.3897 -0.0935  0.4013
  567MOL0     H76528   2.936   5.074   0.491 -0.7080 -0.7291 -0.7184
  567MOL0     H76529   2.971   4.546   0.925  1.4942 -1.8330 -2.1599
  567MOL0     H76530   3.162   4.464   1.045  2.4748  0.4020  1.5741
  567MOL0     H76531   4.751   4.750   2.071  0.0209 -1.9769 -2.1115
  567MOL0     H76532   4.978   4.707   2.183 -0.1405 -2.6704 -1.2418
  567MOL0     H76533   5.583   4.738   1.956  0.2359 -0.6062  0.0670
  567MOL0     H76534   5.778   4.736   2.101 -0.6235 -1.3530  1.2857
  567MOL0     H76535   5.757   4.598   2.437 -2.4327  2.4146 -0.3381
  567MOL0     H76536   5.890   4.611   2.319 -0.7836  0.2952 -0.5984
  567MOL0     H76537   5.953   4.595   2.567  1.4394 -0.1032  0.1112
  567MOL0     H76538   5.876   4.753   2.584 -2.9111 -1.0012 -1.0652
  567MOL0     H76539   6.040   4.821   2.395 -1.1784  1.1984  0.6927
  567MOL0     H76540   6.115   4.655   2.434 -0.3326 -1.0582  1.9624
  567MOL0     H76541   6.250   4.813   2.555 -0.6140  1.9973 -1.2093
  567MOL0     H76542   6.138   4.727   2.667 -1.5644 -0.6455 -1.2409
  567MOL0     H76543   5.997   5.119   2.724 -2.6920 -0.7589  1.4335
  567MOL0     H76544   5.533   4.872   2.429 -1.3359  1.7485 -1.0243
  567MOL0     H76545   5.347   4.871   2.276  0.8779  0.8230  1.6461
  568MOL0     O76546   0.792   8.566   3.677  0.1260 -1.0981 -0.6539
  568MOL0     C76547   0.847   8.634   3.590  0.5692  0.2284  1.0306
  568MOL0     O76548   0.976   8.684   3.588  0.4744 -0.7670 -0.6051
  568MOL0     C76549   1.045   8.699   3.702  0.2461  0.4796 -0.3033
  568MOL0     C76550   1.188   8.692   3.692 -0.0438 -0.3472  0.1826
  568MOL0     C76551   1.271   8.712   3.799  0.2072 -0.2337  0.2138
  568MOL0     C76552   1.212   8.755   3.919 -0.8883  0.4588  0.4217
  568MOL0     O76553   1.299   8.798   4.026  0.1171 -0.2028  0.4495
  568MOL0     C76554   1.287   8.948   4.037 -0.8495  0.8883  0.5228
  568MOL0     C76555   1.383   9.004   4.148  0.2287  0.4021 -0.5364
  568MOL0     C76556   1.525   8.962   4.129 -0.1976 -0.1552  0.3536
  568MOL0     C76557   1.609   9.010   4.247 -0.6708  1.0572 -0.1188
  568MOL0     C76558   1.752   9.050   4.210 -0.3706  0.9442 -0.4967
  568MOL0     C76559   1.828   9.099   4.324  0.4474 -0.0141  0.3820
  568MOL0     C76560   1.964   9.150   4.284 -0.0485 -0.0544  0.2670
  568MOL0     C76561   2.045   9.208   4.399 -0.0362  0.0471 -0.0086
  568MOL0     N76562   2.028   9.121   4.524  0.2042 -0.4349 -0.5168
  568MOL0     C76563   1.941   9.154   4.628 -0.2176 -0.2136 -0.1067
  568MOL0     C76564   1.971   9.064   4.726  0.2577 -0.3987 -0.4817
  568MOL0     C76565   1.906   9.059   4.867 -0.0423  0.2790  0.6455
  568MOL0     C76566   2.027   9.014   4.961  0.0074  0.2337  0.4807
  568MOL0     C76567   1.994   9.020   5.108 -0.3180  0.1989  0.9867
  568MOL0     C76568   1.850   8.992   5.152 -0.0380 -0.1858  0.8748
  568MOL0     O76569   1.816   8.861   5.097 -0.4898 -0.0513  0.5868
  568MOL0     C76570   1.687   8.826   5.101  0.2724  1.1488  0.2981
  568MOL0     C76571   1.652   8.698   5.052 -0.4091 -0.2472 -0.7009
  568MOL0     C76572   1.523   8.665   5.021 -0.2241 -0.6939 -0.7037
  568MOL0     C76573   1.510   8.531   4.948 -0.2717 -0.4434  0.4118
  568MOL0     C76574   1.420   8.759   5.049  0.3962  0.5907  1.0711
  568MOL0     C76575   1.281   8.741   5.003 -0.3319 -0.2874  0.3422
  568MOL0     O76576   1.253   8.694   4.881 -0.0717 -0.5762 -0.5089
  568MOL0     C76577   1.123   8.681   4.839  0.6417 -0.3946 -0.0253
  568MOL0     C76578   1.072   8.554   4.802 -0.5123  0.1228  0.1415
  568MOL0     C76579   0.939   8.542   4.770  0.0785 -0.7477  1.0539
  568MOL0     C76580   0.850   8.651   4.755  0.5166  0.4407 -0.7084
  568MOL0     O76581   0.722   8.651   4.703 -0.1798  0.1016 -0.5463
  568MOL0     C76582   0.647   8.525   4.672 -0.0269 -0.2134 -0.4830
  568MOL0     C76583   0.504   8.563   4.650 -0.5880 -0.3112  0.3700
  568MOL0     C76584   0.474   8.617   4.506 -0.0746 -0.1306 -0.0823
  568MOL0     C76585   0.341   8.687   4.499 -0.3221 -0.2526  0.1294
  568MOL0     C76586   0.305   8.758   4.359 -0.6957 -0.3143 -0.7626
  568MOL0     C76587   0.408   8.873   4.322 -0.4427  0.1163  1.1711
  568MOL0     C76588   0.426   8.985   4.428  0.0198 -0.7980 -0.0879
  568MOL0     C76589   0.573   8.983   4.482 -0.5278 -0.0139  0.0830
  568MOL0    Cl76590   0.685   9.042   4.348 -0.5348 -0.3011  0.0760
  568MOL0     C76591   0.900   8.776   4.796 -0.5776 -0.3602  0.8327
  568MOL0     C76592   1.036   8.791   4.825 -0.7408  0.0114 -0.5994
  568MOL0     O76593   1.199   8.772   5.090 -0.1559 -0.7219  0.4528
  568MOL0     C76594   1.453   8.883   5.105  0.3451  0.4967  1.1033
  568MOL0     C76595   1.587   8.920   5.133  0.3872  1.0454  0.0681
  568MOL0     N76596   2.066   8.978   4.677  0.6641  0.3910 -0.2765
  568MOL0     N76597   2.105   9.018   4.566 -0.7036  0.3278 -0.0746
  568MOL0     C76598   1.072   8.753   3.932  0.1676 -0.1279 -0.1111
  568MOL0     C76599   0.988   8.719   3.829 -0.0041  1.3516 -0.6017
  568MOL0     C76600   0.773   8.646   3.455 -1.2623  0.7161 -0.2558
  568MOL0     C76601   0.666   8.554   3.435  0.3977 -0.5129  0.5871
  568MOL0     C76602   0.595   8.569   3.318  0.3238 -0.1997  0.2083
  568MOL0     C76603   0.622   8.658   3.216 -0.5786 -0.3210  0.1249
  568MOL0     O76604   0.555   8.646   3.098  0.8827 -0.4295  0.9450
  568MOL0     C76605   0.617   8.688   2.980  0.3473  0.9111  0.7198
  568MOL0     C76606   0.539   8.614   2.869 -0.0048  0.7050  0.1516
  568MOL0     C76607   0.566   8.458   2.870  0.6590 -0.1317  0.0412
  568MOL0     C76608   0.475   8.372   2.763 -1.0620 -0.2181 -0.5663
  568MOL0     C76609   0.338   8.346   2.797 -0.9936  0.2666  0.4248
  568MOL0     C76610   0.227   8.310   2.816  0.1809  0.2781 -0.3883
  568MOL0     C76611   0.716   8.757   3.239  0.0931  0.2699 -0.3627
  568MOL0     C76612   0.797   8.744   3.359 -0.1893 -0.2153 -0.0333
  568MOL0     H76613   1.236   8.666   3.598 -0.8849 -1.0988 -0.0548
  568MOL0     H76614   1.379   8.703   3.795  0.3037  0.7222  0.3354
  568MOL0     H76615   1.311   8.994   3.941  0.6434  0.3465  0.5943
  568MOL0     H76616   1.184   8.963   4.070 -0.6588 -0.1144  1.6810
  568MOL0     H76617   1.373   9.111   4.163  0.4815  0.1713  1.6380
  568MOL0     H76618   1.348   8.958   4.241  0.5166  1.1078 -0.0735
  568MOL0     H76619   1.535   8.855   4.111 -0.1426 -0.1064  0.1001
  568MOL0     H76620   1.560   9.015   4.040  2.7420  1.0312  2.0557
  568MOL0     H76621   1.574   9.098   4.301 -0.3313  1.8057 -1.0891
  568MOL0     H76622   1.614   8.926   4.318  1.1647  1.1569 -0.0799
  568MOL0     H76623   1.801   8.967   4.159 -3.3458  0.0631 -2.1448
  568MOL0     H76624   1.737   9.131   4.139  0.3084  0.0944 -1.6356
  568MOL0     H76625   1.765   9.170   4.377 -2.0442  1.2208 -3.7900
  568MOL0     H76626   1.843   9.014   4.392  1.9101  2.1096  2.9067
  568MOL0     H76627   2.016   9.067   4.238 -1.0380  0.7524 -2.4832
  568MOL0     H76628   1.954   9.235   4.216 -0.6013 -0.1469  0.2256
  568MOL0     H76629   2.013   9.312   4.414  2.6290  1.1460 -1.3210
  568MOL0     H76630   2.149   9.200   4.367 -0.7045 -2.3164 -1.9097
  568MOL0     H76631   1.874   9.238   4.648  4.4318  3.9318  0.0016
  568MOL0     H76632   1.868   9.157   4.899  1.8827  1.1169  0.5413
  568MOL0     H76633   1.822   8.990   4.858 -1.1514  1.8785 -5.4840
  568MOL0     H76634   2.123   9.057   4.931 -0.3853  1.4322  0.9028
  568MOL0     H76635   2.032   8.907   4.936 -2.5140  0.1798 -0.0389
  568MOL0     H76636   2.026   9.114   5.153  2.1638  0.8902 -1.9240
  568MOL0     H76637   2.059   8.947   5.159  1.0960  0.6656 -0.0895
  568MOL0     H76638   1.784   9.068   5.107 -1.1116 -1.8138 -0.4061
  568MOL0     H76639   1.845   8.986   5.261 -2.7032  2.0465  0.9983
  568MOL0     H76640   1.735   8.639   5.013 -2.1348 -2.0909 -1.7957
  568MOL0     H76641   1.410   8.489   4.961 -1.6580  2.1066 -1.2286
  568MOL0     H76642   1.544   8.548   4.846  0.0615  1.0898  0.7507
  568MOL0     H76643   1.566   8.453   5.000  1.6831  0.5728 -0.0931
  568MOL0     H76644   1.136   8.467   4.799 -1.2223 -0.5212  1.9419
  568MOL0     H76645   0.919   8.437   4.752 -0.0840 -0.7762  1.3999
  568MOL0     H76646   0.673   8.479   4.576  0.2812 -0.9959 -0.0291
  568MOL0     H76647   0.643   8.460   4.759  0.0668  0.3991 -0.0199
  568MOL0     H76648   0.439   8.476   4.662  1.4056 -1.9530 -0.0988
  568MOL0     H76649   0.479   8.640   4.724 -0.4353  0.4876 -0.3876
  568MOL0     H76650   0.463   8.532   4.438 -0.3608  2.3518 -3.3585
  568MOL0     H76651   0.561   8.661   4.456 -0.5660  0.3752 -0.4975
  568MOL0     H76652   0.264   8.616   4.533  1.1109 -2.4142 -0.9134
  568MOL0     H76653   0.337   8.767   4.573 -4.1954  2.0889 -2.2292
  568MOL0     H76654   0.204   8.799   4.369 -1.0144 -0.7839 -1.8540
  568MOL0     H76655   0.309   8.683   4.279  2.3954 -1.4408  0.3397
  568MOL0     H76656   0.506   8.826   4.311 -1.0563 -1.3240  1.7039
  568MOL0     H76657   0.374   8.917   4.228  0.9302  0.1180  0.6451
  568MOL0     H76658   0.364   8.980   4.518  1.4239  2.0454  1.1953
  568MOL0     H76659   0.394   9.083   4.389  2.2240 -0.6279 -1.6465
  568MOL0     H76660   0.592   8.883   4.520 -1.3556 -0.9877 -1.9188
  568MOL0     H76661   0.581   9.043   4.573 -1.9773  0.6297 -0.1874
  568MOL0     H76662   0.839   8.865   4.784 -1.2167 -0.6325  1.9545
  568MOL0     H76663   1.079   8.888   4.847 -0.3735 -0.4548  0.8224
  568MOL0     H76664   1.372   8.954   5.120 -0.1901 -0.1344  1.2717
  568MOL0     H76665   1.599   9.025   5.159 -1.0518  1.8673 -2.2455
  568MOL0     H76666   1.020   8.761   4.027  1.6949 -0.6781  0.8233
  568MOL0     H76667   0.881   8.708   3.843  0.2670 -1.2731 -0.0215
  568MOL0     H76668   0.639   8.482   3.512  0.1146 -1.9901 -0.8344
  568MOL0     H76669   0.508   8.505   3.305 -1.2572  2.1544 -1.6952
  568MOL0     H76670   0.603   8.796   2.969  1.1345  0.8860 -0.8767
  568MOL0     H76671   0.724   8.662   2.983 -0.3620 -2.7987 -0.5840
  568MOL0     H76672   0.576   8.639   2.769 -1.0703  1.1274 -0.1417
  568MOL0     H76673   0.434   8.643   2.868 -0.9084 -2.1940 -0.8684
  568MOL0     H76674   0.534   8.420   2.968  0.5011 -1.1177 -0.3733
  568MOL0     H76675   0.673   8.441   2.856  0.4369  0.2429 -2.6347
  568MOL0     H76676   0.521   8.274   2.744 -2.3601 -1.0005  0.1278
  568MOL0     H76677   0.477   8.425   2.668 -0.2210 -3.1103 -2.3019
  568MOL0     H76678   0.130   8.272   2.840  0.0837  0.0241 -1.1698
  568MOL0     H76679   0.739   8.840   3.173  3.4991 -0.2658 -0.0585
  568MOL0     H76680   0.875   8.817   3.379 -0.1874  0.6347 -2.7876
  569MOL0     O76681   3.290   1.201   5.161 -0.4320 -0.7506 -0.5281
  569MOL0     C76682   3.400   1.241   5.122 -0.2228 -0.6782  0.1502
  569MOL0     O76683   3.430   1.263   4.995  0.0807  0.7991  0.9812
  569MOL0     C76684   3.330   1.257   4.901  1.2960 -1.1589  0.8219
  569MOL0     C76685   3.294   1.380   4.834  0.8839  0.0138 -0.0788
  569MOL0     C76686   3.181   1.369   4.745  0.3449 -0.3720  0.1416
  569MOL0     C76687   3.109   1.245   4.721 -0.0226  0.8754 -0.0696
  569MOL0     O76688   3.010   1.217   4.628 -0.0680  0.0103  0.2354
  569MOL0     C76689   2.965   1.339   4.555  0.6178  1.3498  0.2326
  569MOL0     C76690   2.856   1.287   4.455 -0.6061 -0.3386 -0.0264
  569MOL0     C76691   2.782   1.394   4.380 -0.4411 -0.7199  0.0996
  569MOL0     C76692   2.681   1.329   4.288  0.2248 -0.3453  0.1344
  569MOL0     C76693   2.579   1.437   4.240 -0.4980  0.5680  0.7608
  569MOL0     C76694   2.480   1.374   4.138  0.7333 -0.6116  0.0469
  569MOL0     C76695   2.369   1.474   4.094  0.4453 -0.2890  0.1568
  569MOL0     C76696   2.243   1.464   4.193  0.4783 -0.0014  0.1119
  569MOL0     N76697   2.139   1.569   4.159 -0.4001 -0.3448  0.2313
  569MOL0     C76698   2.053   1.562   4.052 -0.6721  0.0064 -0.2452
  569MOL0     C76699   1.995   1.691   4.034 -0.2099 -0.5479 -0.3904
  569MOL0     C76700   1.908   1.738   3.922  0.1350 -0.4794  0.1018
  569MOL0     C76701   1.766   1.681   3.933 -0.5842 -0.4623 -0.5781
  569MOL0     C76702   1.703   1.701   4.073 -0.1475 -0.1768  0.3268
  569MOL0     C76703   1.699   1.842   4.124 -0.1229 -0.3860 -0.8775
  569MOL0     O76704   1.652   1.951   4.035 -0.1809  0.5689 -0.1550
  569MOL0     C76705   1.516   1.969   4.051  0.4211  0.0584 -0.3522
  569MOL0     C76706   1.466   2.075   4.126 -0.8407  0.0924  0.3230
  569MOL0     C76707   1.333   2.096   4.149 -0.4022  0.4311  0.4864
  569MOL0     C76708   1.288   2.201   4.245  0.5324  0.1155 -0.2462
  569MOL0     C76709   1.241   2.009   4.080  0.6487  0.2257 -0.1506
  569MOL0     C76710   1.093   2.017   4.102 -0.7165  0.3592  0.4861
  569MOL0     O76711   1.050   1.982   4.225 -0.0047 -0.2651 -0.8646
  569MOL0     C76712   0.922   1.999   4.265  1.0502  0.2004 -0.0709
  569MOL0     C76713   0.841   1.891   4.310 -0.3367  0.0569  0.1482
  569MOL0     C76714   0.711   1.904   4.360  0.8974 -0.4876  0.6437
  569MOL0     C76715   0.648   2.030   4.376 -0.2731  0.5930 -0.0817
  569MOL0     O76716   0.514   2.038   4.412  0.2726 -0.6749 -0.7750
  569MOL0     C76717   0.436   2.094   4.308 -0.6086  0.3354  0.5091
  569MOL0     C76718   0.330   2.196   4.364  0.0767 -0.1704 -0.0688
  569MOL0     C76719   0.252   2.271   4.250  0.3435 -0.3767 -0.6622
  569MOL0     C76720   0.107   2.308   4.291 -0.2478  0.2211 -0.3932
  569MOL0     C76721   0.035   2.403   4.207 -0.7367  0.1553  1.1174
  569MOL0     C76722  -0.120   2.394   4.227  0.2066 -0.0287 -0.3615
  569MOL0     C76723  -0.198   2.521   4.198 -0.1169 -0.4514  0.4566
  569MOL0     C76724  -0.194   2.558   4.042 -1.3040 -0.1651 -0.2260
  569MOL0    Cl76725  -0.281   2.704   3.981  0.1221 -0.8099  0.1018
  569MOL0     C76726   0.728   2.140   4.343 -0.0176  1.0314  0.0190
  569MOL0     C76727   0.859   2.128   4.285 -0.7613 -0.4989  0.2283
  569MOL0     O76728   1.019   2.055   4.011  0.3195 -0.1311  0.3257
  569MOL0     C76729   1.292   1.909   3.997 -0.1000  0.2442  0.5055
  569MOL0     C76730   1.425   1.880   3.991  0.7420  0.1249  0.4029
  569MOL0     N76731   2.047   1.769   4.144 -0.5840 -0.0128  0.4468
  569MOL0     N76732   2.133   1.698   4.207 -0.6822  0.4512  0.6460
  569MOL0     C76733   3.155   1.133   4.791  0.6164 -0.3276  0.0418
  569MOL0     C76734   3.258   1.140   4.888  0.5932 -0.0011  0.7958
  569MOL0     C76735   3.509   1.242   5.216 -0.1150 -0.3943 -0.7179
  569MOL0     C76736   3.638   1.267   5.178 -0.6408  0.0979  0.0505
  569MOL0     C76737   3.753   1.264   5.265  0.4149  0.2242  0.4134
  569MOL0     C76738   3.730   1.227   5.397 -0.1039  0.2060 -1.5843
  569MOL0     O76739   3.819   1.224   5.493 -0.8644 -0.4457  0.2545
  569MOL0     C76740   3.946   1.275   5.471  0.0655 -0.2484 -0.2811
  569MOL0     C76741   4.030   1.257   5.598 -0.0298  0.2166 -0.4473
  569MOL0     C76742   3.978   1.323   5.722 -0.4093  0.1140  0.4876
  569MOL0     C76743   4.045   1.255   5.842 -1.1593 -0.6299  0.0698
  569MOL0     C76744   3.980   1.306   5.968  0.3681 -0.4082  0.2560
  569MOL0     C76745   3.928   1.312   6.078 -0.2497  0.1741  0.7544
  569MOL0     C76746   3.601   1.210   5.448 -0.2468 -0.0430  0.4932
  569MOL0     C76747   3.494   1.221   5.358 -0.2322 -0.1194  0.3312
  569MOL0     H76748   3.335   1.479   4.849 -0.2479  0.8124 -1.8814
  569MOL0     H76749   3.173   1.458   4.684  1.0179  0.5418  1.3163
  569MOL0     H76750   2.914   1.414   4.616 -1.5399 -0.0302  0.2054
  569MOL0     H76751   3.043   1.374   4.487  0.0666 -1.8261 -2.2644
  569MOL0     H76752   2.900   1.223   4.377  2.9466 -1.3591  2.5554
  569MOL0     H76753   2.788   1.232   4.521  0.5741 -1.4959  0.2804
  569MOL0     H76754   2.739   1.459   4.457  2.6696  0.8519  0.6699
  569MOL0     H76755   2.844   1.466   4.325  0.4184  1.5931  3.6975
  569MOL0     H76756   2.729   1.292   4.197  0.6360  1.4106 -0.4080
  569MOL0     H76757   2.627   1.256   4.349 -1.5643  2.0782  1.6483
  569MOL0     H76758   2.533   1.481   4.330  0.4867  0.0453  1.5391
  569MOL0     H76759   2.627   1.523   4.193 -1.5084  0.2961 -0.8213
  569MOL0     H76760   2.539   1.358   4.048 -2.1908  0.4376 -2.2178
  569MOL0     H76761   2.431   1.282   4.170 -1.5199 -0.2806 -2.1581
  569MOL0     H76762   2.416   1.572   4.105 -0.3615  0.5588 -2.9196
  569MOL0     H76763   2.343   1.454   3.990 -0.0934  1.9470 -0.1953
  569MOL0     H76764   2.282   1.497   4.290  0.6869  0.6093 -0.1749
  569MOL0     H76765   2.187   1.370   4.198 -0.7264  0.4790 -2.5827
  569MOL0     H76766   2.036   1.478   3.985  2.4372 -1.1912  0.3146
  569MOL0     H76767   1.898   1.847   3.926  0.5819 -0.2117 -3.0743
  569MOL0     H76768   1.958   1.705   3.830 -0.6034 -2.3439  0.3254
  569MOL0     H76769   1.782   1.575   3.913 -3.0179 -0.6533 -1.9961
  569MOL0     H76770   1.696   1.725   3.862 -0.1401 -0.7014 -1.1700
  569MOL0     H76771   1.761   1.645   4.147  1.9943  0.7490 -0.5370
  569MOL0     H76772   1.600   1.666   4.066  0.0909 -0.9348  0.5415
  569MOL0     H76773   1.786   1.861   4.187 -1.3010 -2.6601  1.6396
  569MOL0     H76774   1.626   1.835   4.206  0.8164  0.2154  0.0298
  569MOL0     H76775   1.538   2.148   4.161  1.7024 -1.2914 -1.6688
  569MOL0     H76776   1.369   2.251   4.299  0.8235 -0.0976 -0.4834
  569MOL0     H76777   1.234   2.282   4.194 -0.1490 -0.2563 -0.1314
  569MOL0     H76778   1.210   2.157   4.308 -1.3431  2.1277 -1.0162
  569MOL0     H76779   0.892   1.796   4.295  1.4591  0.8156  1.2167
  569MOL0     H76780   0.652   1.814   4.373 -3.4437  2.3874  3.8226
  569MOL0     H76781   0.498   2.141   4.231  2.6351 -1.5388  1.8062
  569MOL0     H76782   0.389   2.011   4.254 -0.7227 -0.1936  1.4060
  569MOL0     H76783   0.272   2.144   4.441  0.8150 -0.8242  0.0647
  569MOL0     H76784   0.393   2.270   4.413  1.4960 -3.0014  2.7301
  569MOL0     H76785   0.248   2.197   4.169  0.3637 -2.0808  0.8287
  569MOL0     H76786   0.309   2.360   4.222 -0.9813  0.8168  0.3363
  569MOL0     H76787   0.049   2.216   4.274  1.4931 -0.5201 -2.9591
  569MOL0     H76788   0.100   2.339   4.395  1.4517  0.3845 -0.2980
  569MOL0     H76789   0.038   2.351   4.111  0.1402  1.3855  0.4487
  569MOL0     H76790   0.081   2.502   4.205  2.3164 -1.1046 -1.6827
  569MOL0     H76791  -0.156   2.310   4.167  1.4909 -1.8924  1.3207
  569MOL0     H76792  -0.146   2.355   4.326 -0.8432 -0.6450 -0.8616
  569MOL0     H76793  -0.162   2.598   4.267  0.1980  0.3949 -0.6339
  569MOL0     H76794  -0.305   2.511   4.220 -0.1303  1.3834  1.3923
  569MOL0     H76795  -0.232   2.469   3.992 -0.4672  0.2605 -1.7014
  569MOL0     H76796  -0.087   2.570   4.019 -0.3791 -2.1019  2.5353
  569MOL0     H76797   0.689   2.240   4.356 -1.3082  0.8056 -1.6619
  569MOL0     H76798   0.918   2.215   4.257 -2.0251  1.2113  2.4957
  569MOL0     H76799   1.223   1.857   3.931 -0.1440 -0.5668  1.1789
  569MOL0     H76800   1.448   1.794   3.929  0.4912  1.0774 -1.0360
  569MOL0     H76801   3.111   1.034   4.790 -0.7833  0.2648  0.6592
  569MOL0     H76802   3.285   1.058   4.954 -1.0497 -0.4209  0.9816
  569MOL0     H76803   3.666   1.272   5.073  3.4845  1.0928  1.0046
  569MOL0     H76804   3.852   1.284   5.226  0.0414 -2.8993 -2.7798
  569MOL0     H76805   4.000   1.209   5.403 -0.7715 -1.1275 -0.1159
  569MOL0     H76806   3.951   1.377   5.433 -3.8006 -1.3738 -4.7213
  569MOL0     H76807   4.131   1.294   5.576  0.0035 -0.2559 -1.1450
  569MOL0     H76808   4.037   1.150   5.617  3.4941 -0.0525 -2.3516
  569MOL0     H76809   3.870   1.307   5.717 -0.1407 -2.0318  0.6909
  569MOL0     H76810   3.999   1.431   5.717 -1.6755  0.3589  0.2995
  569MOL0     H76811   4.150   1.284   5.842 -1.5086  0.7203 -1.0963
  569MOL0     H76812   4.036   1.146   5.840 -0.7453 -0.6624 -2.2406
  569MOL0     H76813   3.899   1.323   6.181 -1.8120  0.6410  0.2910
  569MOL0     H76814   3.599   1.201   5.556  2.3566  0.7748  0.6736
  569MOL0     H76815   3.388   1.217   5.382 -1.1464  2.2819 -2.7043
  570MOL0     O76816   3.909  10.196   5.639 -0.3087 -0.2121  0.1974
  570MOL0     C76817   3.937  10.079   5.620  0.0813 -0.2044 -0.3219
  570MOL0     O76818   3.846   9.974   5.629  0.3522  0.1243 -0.1475
  570MOL0     C76819   3.715  10.009   5.635  0.1446 -0.6504  0.2203
  570MOL0     C76820   3.642  10.029   5.516 -0.2479 -0.5789 -0.3655
  570MOL0     C76821   3.511  10.063   5.518  0.2806 -1.1014 -0.4808
  570MOL0     C76822   3.445  10.092   5.638  0.2034 -0.2631  0.2607
  570MOL0     O76823   3.321  10.138   5.623  0.3105 -0.1935  1.0822
  570MOL0     C76824   3.242  10.163   5.738 -0.3237  0.6258 -0.1386
  570MOL0     C76825   3.103  10.196   5.703 -0.3644  0.2448 -0.2250
  570MOL0     C76826   3.086  10.319   5.620  1.1593  0.0309 -0.8220
  570MOL0     C76827   3.117  10.441   5.706  0.2950 -0.4524  0.8747
  570MOL0     C76828   3.117  10.567   5.620  0.2613 -0.4893  0.5795
  570MOL0     C76829   2.991  10.589   5.527 -0.2830  0.3111 -0.5528
  570MOL0     C76830   2.860  10.596   5.614  0.0628 -0.1110 -0.1107
  570MOL0     C76831   2.742  10.627   5.528 -0.5240 -0.5600  0.4557
  570MOL0     N76832   2.618  10.595   5.603  0.4694 -0.0944 -0.4808
  570MOL0     C76833   2.508  10.537   5.552  0.0876 -0.3579 -0.4308
  570MOL0     C76834   2.413  10.550   5.643  0.3143 -0.9051  0.2812
  570MOL0     C76835   2.275  10.496   5.625 -0.0010  0.0180 -0.3011
  570MOL0     C76836   2.164  10.606   5.648 -0.3137  0.8527  0.6940
  570MOL0     C76837   2.032  10.553   5.591  0.3674 -0.0514  0.3013
  570MOL0     C76838   1.912  10.640   5.630 -0.0730 -0.3570  0.1191
  570MOL0     O76839   1.797  10.560   5.614 -0.6743  0.1233 -0.8045
  570MOL0     C76840   1.676  10.621   5.616  0.1582 -0.5662  0.2421
  570MOL0     C76841   1.575  10.594   5.521 -0.5390  0.2034  0.1978
  570MOL0     C76842   1.457  10.654   5.509 -0.1920 -0.4788 -0.2986
  570MOL0     C76843   1.357  10.613   5.404 -0.0886  1.0406 -0.8018
  570MOL0     C76844   1.431  10.767   5.595  0.1967 -0.3805  0.1996
  570MOL0     C76845   1.308  10.849   5.592  0.1531  0.0017  1.1273
  570MOL0     O76846   1.262  10.886   5.710 -0.5184 -0.6390  0.1413
  570MOL0     C76847   1.149  10.971   5.721 -0.6244  0.3701  0.4344
  570MOL0     C76848   1.148  11.066   5.823 -0.0984 -0.2750 -0.0924
  570MOL0     C76849   1.034  11.154   5.832  0.3913 -0.8645  0.1113
  570MOL0     C76850   0.923  11.138   5.741  1.4004 -0.7847  0.1650
  570MOL0     O76851   0.810  11.225   5.752 -0.2719  0.1959 -0.1629
  570MOL0     C76852   0.726  11.227   5.635 -0.2265  0.4116  0.0770
  570MOL0     C76853   0.615  11.331   5.653 -0.5049  0.4500  0.1476
  570MOL0     C76854   0.547  11.324   5.792  0.2686  0.8496  0.4013
  570MOL0     C76855   0.427  11.431   5.796 -0.0615 -0.2005  0.5475
  570MOL0     C76856   0.408  11.458   5.942 -0.4831  0.3968 -0.1859
  570MOL0     C76857   0.334  11.333   6.008  0.2102 -0.1290  0.2356
  570MOL0     C76858   0.353  11.342   6.159 -0.7358  0.1003  0.2280
  570MOL0     C76859   0.259  11.248   6.232  0.0400  0.6282 -0.0736
  570MOL0    Cl76860   0.086  11.266   6.173 -0.1344 -0.3647  0.3439
  570MOL0     C76861   0.930  11.035   5.644 -0.3808  0.0685 -0.3980
  570MOL0     C76862   1.044  10.963   5.631 -0.0823 -0.4369 -0.7300
  570MOL0     O76863   1.257  10.874   5.481  0.2026  0.5048  0.4641
  570MOL0     C76864   1.533  10.791   5.691  0.0924 -0.1124 -0.5291
  570MOL0     C76865   1.652  10.723   5.702 -0.6291 -0.6914  0.1995
  570MOL0     N76866   2.470  10.623   5.754  0.5962  0.3374  0.4157
  570MOL0     N76867   2.588  10.653   5.728 -0.4567  0.0166  0.1079
  570MOL0     C76868   3.506  10.068   5.761  0.1490  0.0653  0.0516
  570MOL0     C76869   3.644  10.032   5.752 -0.9480 -0.1020 -0.5126
  570MOL0     C76870   4.080  10.047   5.586  0.4379 -0.4847 -0.0804
  570MOL0     C76871   4.115   9.919   5.609 -0.6503 -0.2353 -0.7857
  570MOL0     C76872   4.243   9.885   5.594 -0.0627 -0.4066  0.6103
  570MOL0     C76873   4.344   9.980   5.553  1.2061  0.0236  0.4175
  570MOL0     O76874   4.472   9.958   5.517 -0.7103 -0.0166  0.3314
  570MOL0     C76875   4.552   9.865   5.598 -0.7871  0.5681  0.4694
  570MOL0     C76876   4.617   9.939   5.722  0.3233 -0.0320 -0.0936
  570MOL0     C76877   4.725   9.850   5.778  1.3508  0.5945  0.3128
  570MOL0     C76878   4.806   9.896   5.900  0.3407 -0.6594  0.5870
  570MOL0     C76879   4.897   9.791   5.937  0.2508 -0.5727 -0.0535
  570MOL0     C76880   4.978   9.707   5.953  0.1061  0.6732  0.2359
  570MOL0     C76881   4.304  10.110   5.540 -0.8955 -0.5388 -0.3009
  570MOL0     C76882   4.173  10.141   5.547  0.2047  0.3961  0.1145
  570MOL0     H76883   3.689  10.007   5.421  2.6088 -0.3959  0.8951
  570MOL0     H76884   3.458  10.086   5.426  0.5128  2.6933  0.1694
  570MOL0     H76885   3.257  10.079   5.806  5.1684  0.5006 -1.0348
  570MOL0     H76886   3.288  10.240   5.801 -2.9475 -0.4819  3.5027
  570MOL0     H76887   3.061  10.110   5.650  0.4845  0.1670 -0.7823
  570MOL0     H76888   3.036  10.203   5.790  0.0953  3.7405 -0.0360
  570MOL0     H76889   3.149  10.325   5.530 -1.8525  1.6155 -3.0119
  570MOL0     H76890   2.987  10.322   5.574  0.1745 -2.6585  0.9014
  570MOL0     H76891   3.043  10.447   5.786 -0.8541 -0.1356 -0.1812
  570MOL0     H76892   3.219  10.437   5.745  0.9922 -2.4132 -0.8955
  570MOL0     H76893   3.122  10.652   5.690 -1.2249 -1.2177  1.6241
  570MOL0     H76894   3.202  10.576   5.552 -0.4038  1.6195 -0.0592
  570MOL0     H76895   3.013  10.687   5.483 -3.9533  1.2844 -0.5556
  570MOL0     H76896   2.983  10.519   5.443 -1.6373  0.7267 -0.7964
  570MOL0     H76897   2.847  10.496   5.658 -1.2624 -0.6072 -1.5362
  570MOL0     H76898   2.867  10.677   5.687 -1.6848  0.8149 -0.9121
  570MOL0     H76899   2.736  10.564   5.438 -1.2996 -0.9287  0.7531
  570MOL0     H76900   2.761  10.731   5.498  2.0703 -0.7841  1.1060
  570MOL0     H76901   2.525  10.491   5.454 -1.3013  2.0623 -1.9082
  570MOL0     H76902   2.263  10.452   5.525 -0.7006 -1.8760  0.5768
  570MOL0     H76903   2.253  10.414   5.693  1.3339 -0.4056 -0.3467
  570MOL0     H76904   2.191  10.694   5.590  1.3262 -0.3642 -0.4981
  570MOL0     H76905   2.154  10.630   5.754  1.6624  0.5850  0.9833
  570MOL0     H76906   2.019  10.455   5.636  0.3003 -0.1703  0.0218
  570MOL0     H76907   2.042  10.555   5.483 -0.0924  3.2070  0.1954
  570MOL0     H76908   1.914  10.729   5.566  0.6894 -1.3381 -1.2776
  570MOL0     H76909   1.914  10.672   5.734  1.8270  2.7444 -0.7208
  570MOL0     H76910   1.596  10.510   5.454 -1.1961  0.5527 -0.4663
  570MOL0     H76911   1.391  10.526   5.346 -1.9359 -1.2662  1.3437
  570MOL0     H76912   1.264  10.581   5.450  0.4843  0.5379  0.0340
  570MOL0     H76913   1.339  10.690   5.329  1.6989  1.0083 -1.3078
  570MOL0     H76914   1.236  11.079   5.885 -0.8186  0.4304  0.8073
  570MOL0     H76915   1.039  11.239   5.900 -1.0369  0.4458 -1.3302
  570MOL0     H76916   0.784  11.244   5.544  1.0988 -1.0402  0.6045
  570MOL0     H76917   0.682  11.127   5.633  3.8501 -1.6882  1.9799
  570MOL0     H76918   0.667  11.426   5.645  0.5770 -0.1334  0.1088
  570MOL0     H76919   0.538  11.311   5.578 -1.7214  0.7831  1.2562
  570MOL0     H76920   0.616  11.340   5.875  0.9147  1.2441 -0.2090
  570MOL0     H76921   0.522  11.220   5.814 -0.2645  0.9969  0.5087
  570MOL0     H76922   0.467  11.524   5.756  1.6412 -2.1982 -2.8441
  570MOL0     H76923   0.333  11.401   5.748 -0.3618  1.2763  0.1626
  570MOL0     H76924   0.355  11.551   5.962 -1.2506  0.2983 -1.6189
  570MOL0     H76925   0.508  11.470   5.985  0.8527  2.9231 -3.4836
  570MOL0     H76926   0.229  11.344   5.980  0.4099 -1.5850 -1.2467
  570MOL0     H76927   0.365  11.232   5.978 -1.3788 -1.1889  1.9366
  570MOL0     H76928   0.342  11.447   6.189 -1.4578  0.4048 -1.0001
  570MOL0     H76929   0.456  11.310   6.179 -0.0410  1.3488 -1.1154
  570MOL0     H76930   0.245  11.278   6.337 -4.2688 -0.4706 -0.1126
  570MOL0     H76931   0.300  11.149   6.209  1.0500  1.4333 -1.8723
  570MOL0     H76932   0.838  11.020   5.589  0.7039 -0.8065 -2.0801
  570MOL0     H76933   1.039  10.886   5.554 -5.1974  0.3688 -1.5830
  570MOL0     H76934   1.524  10.872   5.762  0.7315  0.0048 -0.5804
  570MOL0     H76935   1.712  10.749   5.788  0.2868  1.6526 -1.0700
  570MOL0     H76936   3.457  10.079   5.858  0.9094  0.3237  0.4088
  570MOL0     H76937   3.703  10.019   5.842  2.4352  0.6500 -2.4704
  570MOL0     H76938   4.045   9.845   5.649  1.0967 -0.8957  1.2942
  570MOL0     H76939   4.273   9.781   5.606 -0.5555 -0.6836 -0.4110
  570MOL0     H76940   4.492   9.778   5.627 -1.8866  0.4552 -1.8716
  570MOL0     H76941   4.630   9.821   5.535 -1.6723  0.1594 -0.3829
  570MOL0     H76942   4.530   9.952   5.788 -0.7233 -2.0134 -1.0166
  570MOL0     H76943   4.666  10.036   5.708  0.9456 -0.1061  1.3244
  570MOL0     H76944   4.796   9.835   5.696  0.9533 -1.7315  0.3019
  570MOL0     H76945   4.678   9.754   5.803 -0.8181  1.9642  1.7389
  570MOL0     H76946   4.748   9.933   5.985  1.5345  2.2798  0.2172
  570MOL0     H76947   4.862   9.985   5.871 -0.3049  0.0742  1.5267
  570MOL0     H76948   5.046   9.626   5.968  3.2634  3.2652  1.0221
  570MOL0     H76949   4.378  10.180   5.504  0.5824 -1.1845  1.3585
  570MOL0     H76950   4.128  10.239   5.534 -0.2642  0.0161 -1.3863
  571MOL0     O76951   6.781  10.288   6.070  0.3341  0.1438  0.8193
  571MOL0     C76952   6.753  10.357   5.967 -0.1748  0.1640  0.3151
  571MOL0     O76953   6.630  10.387   5.927 -0.0313 -0.2014  0.2842
  571MOL0     C76954   6.517  10.325   5.974 -0.1970  0.3933  0.5152
  571MOL0     C76955   6.519  10.182   5.991  0.6078 -0.1461 -0.2405
  571MOL0     C76956   6.411  10.121   6.048 -0.2134  1.2258  0.0263
  571MOL0     C76957   6.311  10.195   6.104  0.3930  0.3398  0.3296
  571MOL0     O76958   6.215  10.119   6.161  0.3345  0.0134  0.7060
  571MOL0     C76959   6.116  10.173   6.248 -0.3786 -0.1065  0.3658
  571MOL0     C76960   6.029  10.063   6.300 -0.0762  0.3553 -0.1985
  571MOL0     C76961   5.915  10.048   6.198  0.1976 -0.5408  0.4210
  571MOL0     C76962   5.823   9.952   6.252 -0.1196  0.2377  0.4499
  571MOL0     C76963   5.696   9.948   6.174 -0.3936  0.7495 -0.2516
  571MOL0     C76964   5.597   9.850   6.244 -0.0854 -0.4213  0.9895
  571MOL0     C76965   5.480   9.823   6.148 -0.7300 -0.4188  0.8847
  571MOL0     C76966   5.402   9.699   6.194 -0.1102 -0.5112  0.2426
  571MOL0     N76967   5.321   9.712   6.308  0.3270  0.5703 -0.3479
  571MOL0     C76968   5.189   9.686   6.300  0.9910 -0.2210  0.2207
  571MOL0     C76969   5.141   9.702   6.420  0.8663  0.3101 -0.5712
  571MOL0     C76970   5.002   9.682   6.469 -0.0740  0.6216  0.1009
  571MOL0     C76971   4.923   9.808   6.444  0.2235 -0.1716 -0.3807
  571MOL0     C76972   4.885   9.850   6.303  0.7198 -0.7597  0.3731
  571MOL0     C76973   4.769   9.947   6.311 -0.2813  0.2949  0.0108
  571MOL0     O76974   4.647   9.868   6.341  0.4380 -0.1078  0.2245
  571MOL0     C76975   4.524   9.930   6.365 -0.5869 -0.5295  0.7307
  571MOL0     C76976   4.422   9.860   6.429 -0.1139  0.6864  0.2855
  571MOL0     C76977   4.301   9.917   6.461  0.0480 -0.6280 -1.2763
  571MOL0     C76978   4.197   9.824   6.517  0.8494 -0.7538 -0.3587
  571MOL0     C76979   4.280  10.053   6.440  0.1866 -1.2239 -0.2419
  571MOL0     C76980   4.158  10.130   6.482  0.6672  0.6978 -0.0952
  571MOL0     O76981   4.135  10.245   6.422 -0.0784 -0.2558 -0.0219
  571MOL0     C76982   4.030  10.334   6.443 -0.9127  0.1485 -0.2263
  571MOL0     C76983   3.904  10.297   6.480  0.3069  0.2452  0.5604
  571MOL0     C76984   3.806  10.397   6.498 -0.4448 -0.0176 -0.3494
  571MOL0     C76985   3.829  10.521   6.440 -0.6564  0.3534 -0.2860
  571MOL0     O76986   3.726  10.610   6.418  0.2969  0.4936  0.2453
  571MOL0     C76987   3.588  10.575   6.417 -0.2733  0.1583 -0.1097
  571MOL0     C76988   3.502  10.694   6.378 -0.0570  0.5917  0.4104
  571MOL0     C76989   3.491  10.699   6.221  0.6862 -0.0304 -0.4984
  571MOL0     C76990   3.373  10.781   6.171 -0.2897  0.2386  0.0669
  571MOL0     C76991   3.378  10.929   6.200 -0.4331  0.3048 -0.0109
  571MOL0     C76992   3.248  11.002   6.140 -0.4984 -0.1991 -0.6552
  571MOL0     C76993   3.116  10.941   6.182  0.0367  0.8061  0.1418
  571MOL0     C76994   3.007  11.044   6.190 -0.0349 -0.0534 -0.9318
  571MOL0    Cl76995   2.963  11.103   6.016 -0.6740  0.5875 -0.0946
  571MOL0     C76996   3.957  10.562   6.397 -0.2526  0.4900 -0.5633
  571MOL0     C76997   4.060  10.464   6.399  0.3961  0.5702  0.3501
  571MOL0     O76998   4.093  10.082   6.576 -0.4429 -0.2655 -1.0033
  571MOL0     C76999   4.373  10.127   6.364  0.7758 -0.1755 -0.1457
  571MOL0     C77000   4.500  10.070   6.337  0.5900 -0.0750 -0.5631
  571MOL0     N77001   5.247   9.736   6.503  0.3457  0.2377 -0.1425
  571MOL0     N77002   5.359   9.726   6.434  0.4525  1.0498 -0.0690
  571MOL0     C77003   6.312  10.330   6.087 -0.5950  1.0564  0.5176
  571MOL0     C77004   6.412  10.396   6.022 -0.6232  0.6125  0.7825
  571MOL0     C77005   6.871  10.386   5.886 -0.2422 -0.5322 -0.1956
  571MOL0     C77006   7.007  10.364   5.932  0.7088  0.0690 -0.1281
  571MOL0     C77007   7.114  10.367   5.846 -0.3504  0.5156  0.6809
  571MOL0     C77008   7.103  10.393   5.705  0.3019  0.2956 -0.0103
  571MOL0     O77009   7.201  10.382   5.608  0.8118 -0.9391  0.4412
  571MOL0     C77010   7.331  10.332   5.662  0.3470  0.0257  0.1501
  571MOL0     C77011   7.439  10.435   5.698 -0.3931 -0.7082  0.6714
  571MOL0     C77012   7.399  10.541   5.795  0.0866  0.4478 -0.5510
  571MOL0     C77013   7.510  10.646   5.809  0.3569  0.6017  0.1264
  571MOL0     C77014   7.500  10.715   5.940  1.1027 -1.1436 -0.1432
  571MOL0     C77015   7.502  10.770   6.045 -0.2048 -0.5272 -0.7516
  571MOL0     C77016   6.976  10.431   5.663  0.0253 -0.1126 -0.5105
  571MOL0     C77017   6.861  10.428   5.751 -0.7167  0.0143 -0.0547
  571MOL0     H77018   6.596  10.115   5.954  0.4984 -0.2157 -0.3411
  571MOL0     H77019   6.408  10.013   6.053  1.0145  1.1871  0.4109
  571MOL0     H77020   6.163  10.211   6.339  0.7066 -2.0619  0.6719
  571MOL0     H77021   6.067  10.256   6.196  0.3732 -0.7493 -1.4626
  571MOL0     H77022   6.081   9.968   6.314 -1.1962 -0.3032 -0.3371
  571MOL0     H77023   5.985  10.092   6.396 -0.2968 -1.0134  0.1321
  571MOL0     H77024   5.855  10.138   6.187 -0.9974 -1.0086  2.5685
  571MOL0     H77025   5.954  10.009   6.103 -0.3816 -2.9365  1.1052
  571MOL0     H77026   5.873   9.855   6.261  0.3136  0.5114  1.0655
  571MOL0     H77027   5.786   9.994   6.346  0.1797  2.1867 -0.2578
  571MOL0     H77028   5.651  10.044   6.147 -0.9326  0.0579 -1.9691
  571MOL0     H77029   5.727   9.895   6.083  0.7019  0.7238  0.1331
  571MOL0     H77030   5.646   9.757   6.273  1.4560 -0.1824 -0.6501
  571MOL0     H77031   5.552   9.889   6.336  0.3113  2.4945  0.0426
  571MOL0     H77032   5.414   9.909   6.138 -0.1358  0.0765  1.1920
  571MOL0     H77033   5.512   9.817   6.044 -0.5384  1.1692  0.8400
  571MOL0     H77034   5.477   9.621   6.205 -0.4180 -1.0747 -1.4621
  571MOL0     H77035   5.338   9.669   6.110  3.4269  0.4069 -3.0390
  571MOL0     H77036   5.131   9.647   6.217  0.0077 -0.6487  1.0778
  571MOL0     H77037   4.955   9.597   6.420 -0.1674  2.2334 -2.8576
  571MOL0     H77038   4.998   9.668   6.577 -1.6574 -1.2829 -0.1449
  571MOL0     H77039   4.983   9.891   6.481  0.4502 -0.5323  0.0645
  571MOL0     H77040   4.833   9.804   6.506 -0.4173  3.4346 -0.8584
  571MOL0     H77041   4.855   9.766   6.240 -3.0593  0.5673  0.1630
  571MOL0     H77042   4.969   9.894   6.250  1.4394 -3.5482 -0.9666
  571MOL0     H77043   4.759  10.011   6.223  1.4326  0.9576  0.2616
  571MOL0     H77044   4.791  10.019   6.390 -0.2264 -1.6315  1.8294
  571MOL0     H77045   4.433   9.754   6.450 -3.1454  0.3003  0.4746
  571MOL0     H77046   4.094   9.833   6.480  1.3098  0.5846 -1.3901
  571MOL0     H77047   4.233   9.723   6.495  1.6581 -0.0825 -2.3996
  571MOL0     H77048   4.193   9.839   6.625 -1.3896  1.6805 -0.6677
  571MOL0     H77049   3.879  10.201   6.524 -5.1321  1.5565  1.1483
  571MOL0     H77050   3.711  10.361   6.536  1.1584 -2.8354  1.2982
  571MOL0     H77051   3.578  10.485   6.355  2.3863  0.4203 -1.0340
  571MOL0     H77052   3.570  10.539   6.519  0.1227 -0.0346 -0.1037
  571MOL0     H77053   3.403  10.680   6.423  0.8004 -2.0504  1.7092
  571MOL0     H77054   3.554  10.783   6.414  2.1710 -0.7022  0.5605
  571MOL0     H77055   3.486  10.600   6.175 -0.0473 -0.2790  0.1172
  571MOL0     H77056   3.582  10.749   6.184 -1.0702  2.0068 -2.3705
  571MOL0     H77057   3.371  10.770   6.062 -0.7278 -1.8630  0.2326
  571MOL0     H77058   3.282  10.741   6.216  0.4579 -2.1108 -0.3177
  571MOL0     H77059   3.467  10.968   6.151 -0.8457  0.6112 -0.5270
  571MOL0     H77060   3.401  10.952   6.305  0.0565  0.7885 -0.2230
  571MOL0     H77061   3.242  11.108   6.167  1.7775 -0.5982  1.8465
  571MOL0     H77062   3.248  11.004   6.031 -3.1713  1.8341 -0.7089
  571MOL0     H77063   3.123  10.893   6.280  6.5078  0.3716 -0.0848
  571MOL0     H77064   3.083  10.862   6.115  0.5917 -0.2132  1.0426
  571MOL0     H77065   3.037  11.134   6.244 -1.6254 -0.4726  0.7464
  571MOL0     H77066   2.925  10.997   6.245  0.5268 -2.3067 -1.9147
  571MOL0     H77067   3.965  10.653   6.339 -0.9741  0.9214 -0.0018
  571MOL0     H77068   4.160  10.492   6.368  0.6185 -0.5163  0.0612
  571MOL0     H77069   4.365  10.227   6.324 -1.1461  0.9109  2.5929
  571MOL0     H77070   4.578  10.130   6.290 -1.3693  1.5030 -1.9828
  571MOL0     H77071   6.230  10.385   6.132 -0.9227 -1.5884  3.5533
  571MOL0     H77072   6.423  10.504   6.016 -0.8864  0.5453 -2.4505
  571MOL0     H77073   7.023  10.342   6.038 -0.2218 -0.2654 -0.0502
  571MOL0     H77074   7.203  10.357   5.907 -0.2721  2.0203  0.8579
  571MOL0     H77075   7.308  10.263   5.744  1.0329  1.3083  1.4795
  571MOL0     H77076   7.369  10.268   5.582 -1.3422  1.5160 -1.9647
  571MOL0     H77077   7.465  10.492   5.608  2.3418 -0.4032  1.5586
  571MOL0     H77078   7.530  10.379   5.719  1.2984  0.4652 -2.7974
  571MOL0     H77079   7.386  10.488   5.890  1.0002 -0.9434 -1.1640
  571MOL0     H77080   7.308  10.592   5.763 -1.2669 -0.6171  1.3737
  571MOL0     H77081   7.516  10.719   5.727  2.7705  1.5425  1.0512
  571MOL0     H77082   7.608  10.597   5.805  0.6343  1.0311  1.1707
  571MOL0     H77083   7.513  10.818   6.140  0.6099  0.3343 -1.2617
  571MOL0     H77084   6.965  10.453   5.557 -1.8306  3.3334  0.2564
  571MOL0     H77085   6.764  10.449   5.708 -0.0777 -0.5096 -1.8501
  572MOL0     O77086   4.066   4.804   4.174  0.4733 -0.1354  0.5480
  572MOL0     C77087   4.066   4.731   4.072 -1.5042 -1.0835 -0.7323
  572MOL0     O77088   3.982   4.732   3.967  0.7659 -0.0394  0.0629
  572MOL0     C77089   3.874   4.820   3.950  0.6081 -0.0338 -1.0738
  572MOL0     C77090   3.840   4.833   3.812  0.4651  0.4036  0.1413
  572MOL0     C77091   3.724   4.897   3.777 -0.2568 -0.3238 -0.4722
  572MOL0     C77092   3.643   4.962   3.871 -1.0996  0.1109  0.2918
  572MOL0     O77093   3.532   5.028   3.834  0.6107  0.0379  0.0941
  572MOL0     C77094   3.418   4.990   3.919  0.4932  0.0171  1.3844
  572MOL0     C77095   3.292   5.028   3.845  0.0893  0.1093  0.3062
  572MOL0     C77096   3.289   5.176   3.812  0.7571 -0.2544 -0.1940
  572MOL0     C77097   3.157   5.204   3.734  0.0259 -0.2673 -0.3442
  572MOL0     C77098   3.180   5.326   3.647 -1.5688  0.3839  0.5186
  572MOL0     C77099   3.201   5.455   3.731  0.1391  0.1061 -0.1940
  572MOL0     C77100   3.070   5.491   3.805  0.5133  0.3218  0.2078
  572MOL0     C77101   3.073   5.634   3.856  0.5452 -0.3086 -0.6100
  572MOL0     N77102   3.001   5.737   3.776 -0.0364  0.2196 -0.4783
  572MOL0     C77103   2.866   5.734   3.754  0.1664 -0.0900 -0.6247
  572MOL0     C77104   2.843   5.823   3.654  1.0445 -0.1672  0.0713
  572MOL0     C77105   2.709   5.857   3.586  0.1702 -0.7767 -0.1314
  572MOL0     C77106   2.675   6.002   3.575  0.7240  0.2226 -0.5258
  572MOL0     C77107   2.639   6.071   3.709 -0.0670 -0.4432 -0.1832
  572MOL0     C77108   2.646   6.221   3.686  0.4930  0.3758  0.2154
  572MOL0     O77109   2.565   6.275   3.584  0.1069  0.6693 -0.2763
  572MOL0     C77110   2.431   6.280   3.587  0.2427 -0.0508  0.0803
  572MOL0     C77111   2.340   6.236   3.686 -0.0114  0.5167  0.0282
  572MOL0     C77112   2.203   6.259   3.678 -1.4838 -0.3564  0.0744
  572MOL0     C77113   2.120   6.196   3.788  0.4404 -0.1516 -0.9206
  572MOL0     C77114   2.155   6.324   3.559 -0.5070 -0.5375  0.5770
  572MOL0     C77115   2.008   6.356   3.543  0.0334  0.1507  0.4813
  572MOL0     O77116   1.971   6.450   3.461  0.2786 -0.3461  0.5515
  572MOL0     C77117   1.838   6.492   3.461  0.8517  0.0409 -0.4907
  572MOL0     C77118   1.804   6.624   3.487  0.1341  0.1342  0.0571
  572MOL0     C77119   1.667   6.661   3.472 -0.6124 -0.3270  0.8490
  572MOL0     C77120   1.557   6.586   3.434 -0.3736 -0.1360  0.0276
  572MOL0     O77121   1.437   6.648   3.405  0.1931  0.4019 -0.0960
  572MOL0     C77122   1.352   6.576   3.319 -0.1209  0.1320 -0.2977
  572MOL0     C77123   1.391   6.584   3.174  0.8238  0.1979  0.8761
  572MOL0     C77124   1.338   6.471   3.083 -0.0039 -0.2159  0.5470
  572MOL0     C77125   1.181   6.476   3.062  0.9165 -0.5964 -0.1640
  572MOL0     C77126   1.131   6.395   2.952  0.3679 -0.9215 -0.2508
  572MOL0     C77127   0.979   6.415   2.936 -0.8782 -0.1172  0.0107
  572MOL0     C77128   0.934   6.548   2.874 -0.9080  0.1708 -0.4205
  572MOL0     C77129   0.799   6.526   2.822 -0.2176 -0.3272  0.4260
  572MOL0    Cl77130   0.708   6.677   2.789  0.3181 -0.0716 -0.2186
  572MOL0     C77131   1.601   6.456   3.395  1.2147  0.4026 -0.4072
  572MOL0     C77132   1.735   6.406   3.411 -0.3641 -0.1161  0.4097
  572MOL0     O77133   1.939   6.277   3.602 -0.1510 -0.3918 -0.3050
  572MOL0     C77134   2.238   6.366   3.460 -0.3203  0.5519  0.7828
  572MOL0     C77135   2.377   6.341   3.469  0.1981 -0.0991  0.1256
  572MOL0     N77136   2.967   5.860   3.604  0.4397 -0.4573 -0.8800
  572MOL0     N77137   3.060   5.801   3.675  0.4663 -0.1904  0.1761
  572MOL0     C77138   3.681   4.960   4.011 -0.0733  0.0429  0.7312
  572MOL0     C77139   3.802   4.895   4.044 -0.3746 -0.1512 -0.7797
  572MOL0     C77140   4.168   4.632   4.068  0.3385  0.9011 -0.5301
  572MOL0     C77141   4.266   4.622   4.170 -0.2488  0.1185 -0.1015
  572MOL0     C77142   4.350   4.513   4.173 -0.2723  0.3358  0.1090
  572MOL0     C77143   4.350   4.414   4.074 -0.3104 -0.6579 -0.0831
  572MOL0     O77144   4.453   4.322   4.079  0.0110 -0.1783 -0.3868
  572MOL0     C77145   4.547   4.334   3.977 -0.2491 -0.0931 -0.9327
  572MOL0     C77146   4.664   4.238   4.004 -0.5892  0.4174  0.3037
  572MOL0     C77147   4.731   4.291   4.142 -0.2487 -0.5430 -0.6322
  572MOL0     C77148   4.853   4.204   4.193 -0.2481 -0.8200 -0.0909
  572MOL0     C77149   4.944   4.286   4.280 -0.3367  0.2267 -0.1317
  572MOL0     C77150   5.018   4.340   4.353 -0.1631  0.2268 -0.4921
  572MOL0     C77151   4.259   4.423   3.970  0.0678  0.5183  0.3771
  572MOL0     C77152   4.166   4.529   3.969 -0.1004  0.0157 -0.0688
  572MOL0     H77153   3.891   4.771   3.739  2.3632 -0.8559  2.3901
  572MOL0     H77154   3.701   4.911   3.672  0.5788  0.3087 -0.5828
  572MOL0     H77155   3.424   4.883   3.939  2.1588 -0.1898 -0.0028
  572MOL0     H77156   3.425   5.038   4.017  0.9981  1.3231  0.7386
  572MOL0     H77157   3.287   4.962   3.758  4.0955 -0.6070  0.4245
  572MOL0     H77158   3.208   5.000   3.909 -1.0306  1.6022 -0.4408
  572MOL0     H77159   3.295   5.240   3.901 -2.4735 -1.7684  1.2763
  572MOL0     H77160   3.376   5.194   3.748  0.2165 -0.1458 -0.9021
  572MOL0     H77161   3.142   5.116   3.671 -0.2914  0.5842 -1.4986
  572MOL0     H77162   3.075   5.221   3.803  0.8011  2.4197  0.0364
  572MOL0     H77163   3.267   5.312   3.583 -0.9282 -1.8989  1.7666
  572MOL0     H77164   3.097   5.337   3.577 -0.4294 -0.4814 -1.0305
  572MOL0     H77165   3.289   5.449   3.795  0.0107  1.4825  0.1325
  572MOL0     H77166   3.229   5.531   3.658  0.6566 -0.1517 -0.2667
  572MOL0     H77167   2.976   5.475   3.752  0.7394 -4.2532  0.7799
  572MOL0     H77168   3.066   5.415   3.884  2.3673  0.2932  0.3360
  572MOL0     H77169   3.179   5.663   3.860 -0.1089  2.1824  0.6722
  572MOL0     H77170   3.024   5.640   3.953  1.2368  2.0186 -0.3480
  572MOL0     H77171   2.791   5.673   3.805  1.0925 -1.1720 -0.5203
  572MOL0     H77172   2.706   5.806   3.489 -1.4720 -0.9344 -0.0311
  572MOL0     H77173   2.641   5.808   3.656  2.2552 -1.3748  1.5852
  572MOL0     H77174   2.593   6.003   3.503 -0.7553 -4.9511  0.6550
  572MOL0     H77175   2.762   6.049   3.528  1.1577  1.3369  1.2768
  572MOL0     H77176   2.710   6.047   3.789 -1.4781 -0.8875  0.9629
  572MOL0     H77177   2.546   6.033   3.752  1.6761 -2.1762  2.3188
  572MOL0     H77178   2.747   6.252   3.657  0.4023  1.4335  0.9718
  572MOL0     H77179   2.624   6.283   3.773 -0.1566 -1.4109  1.3887
  572MOL0     H77180   2.390   6.177   3.762 -0.2074  0.0605 -0.1928
  572MOL0     H77181   2.058   6.117   3.744  1.9429 -0.0718 -3.3306
  572MOL0     H77182   2.187   6.137   3.851  0.0979 -0.2227 -0.6158
  572MOL0     H77183   2.060   6.269   3.844 -0.3681 -0.8744 -0.8079
  572MOL0     H77184   1.887   6.694   3.498  0.4856 -0.0224 -1.4226
  572MOL0     H77185   1.635   6.763   3.491 -0.3974 -0.2837  0.9773
  572MOL0     H77186   1.335   6.472   3.350 -1.0652  1.1252  2.8986
  572MOL0     H77187   1.255   6.627   3.318  0.0214  0.4540  0.7560
  572MOL0     H77188   1.343   6.674   3.136 -0.3362 -1.0696 -0.7903
  572MOL0     H77189   1.499   6.583   3.155  0.2518 -2.1492 -3.9039
  572MOL0     H77190   1.375   6.375   3.122  1.3340 -1.1438 -2.6141
  572MOL0     H77191   1.386   6.494   2.987 -1.3361  4.0484  0.6966
  572MOL0     H77192   1.129   6.457   3.156  0.4433  3.4012  0.5898
  572MOL0     H77193   1.152   6.581   3.050 -2.6416 -1.4033  0.3881
  572MOL0     H77194   1.149   6.288   2.969 -0.5242 -1.1026 -0.3545
  572MOL0     H77195   1.179   6.420   2.857 -2.9951  2.0308 -1.4233
  572MOL0     H77196   0.935   6.330   2.882 -1.1280 -0.1168  0.2162
  572MOL0     H77197   0.945   6.420   3.039  0.1057 -0.2498  0.3547
  572MOL0     H77198   0.997   6.570   2.787 -2.2917  3.2007 -0.7995
  572MOL0     H77199   0.938   6.633   2.942 -0.5908 -1.4204  1.6369
  572MOL0     H77200   0.732   6.476   2.893 -6.4171  0.1777 -4.1223
  572MOL0     H77201   0.806   6.461   2.734 -1.5277 -1.1196  0.8774
  572MOL0     H77202   1.525   6.387   3.360  0.3295  1.0929  0.1199
  572MOL0     H77203   1.772   6.309   3.381  1.4065  0.0724  1.8341
  572MOL0     H77204   2.189   6.414   3.375 -3.5536 -0.3257  2.0035
  572MOL0     H77205   2.438   6.369   3.384  1.5929 -2.0193  0.4041
  572MOL0     H77206   3.638   5.012   4.096  0.5860  3.0367 -0.6405
  572MOL0     H77207   3.841   4.909   4.144 -0.3831  0.4098 -0.8468
  572MOL0     H77208   4.281   4.696   4.248 -0.1920 -0.4598  0.4449
  572MOL0     H77209   4.425   4.492   4.249 -1.4457 -2.4312  0.6235
  572MOL0     H77210   4.514   4.325   3.873  0.7700  3.0445 -1.6637
  572MOL0     H77211   4.589   4.435   3.973  0.5352 -0.4256 -1.4045
  572MOL0     H77212   4.730   4.251   3.918  0.5436  2.1618  1.3667
  572MOL0     H77213   4.625   4.136   4.012  1.2537 -0.4105 -0.8239
  572MOL0     H77214   4.658   4.298   4.223  1.1882 -0.9830  0.7558
  572MOL0     H77215   4.766   4.391   4.114 -1.1290 -0.7940 -2.7765
  572MOL0     H77216   4.916   4.175   4.109 -1.7459  1.9793 -2.3667
  572MOL0     H77217   4.819   4.118   4.251  0.3146  0.8795  3.0359
  572MOL0     H77218   5.081   4.403   4.411  1.8197 -1.9968 -0.0916
  572MOL0     H77219   4.260   4.344   3.896 -0.6266  1.4118 -0.6110
  572MOL0     H77220   4.087   4.531   3.894 -0.8863  2.0741  0.7485
  573MOL0     O77221   1.754   2.061   6.264 -0.4935  1.4111 -0.0845
  573MOL0     C77222   1.836   2.042   6.361  0.1138  0.8346 -0.0916
  573MOL0     O77223   1.803   2.055   6.495  0.8531 -0.4600 -0.4628
  573MOL0     C77224   1.666   2.068   6.520 -0.0674 -0.0551 -0.0421
  573MOL0     C77225   1.583   2.176   6.478 -0.5834 -0.3081  0.7214
  573MOL0     C77226   1.446   2.172   6.511 -0.2622 -1.0871 -0.5404
  573MOL0     C77227   1.398   2.067   6.599 -1.1216 -0.0823  0.0778
  573MOL0     O77228   1.266   2.042   6.639 -0.2357  0.9897 -0.4548
  573MOL0     C77229   1.171   2.099   6.552  0.7408  0.2353  0.0170
  573MOL0     C77230   1.030   2.050   6.579 -0.2291  0.2780 -0.0541
  573MOL0     C77231   0.968   2.117   6.699 -0.2594  0.7724 -0.2076
  573MOL0     C77232   0.940   2.271   6.698  0.1787  0.2006 -0.9985
  573MOL0     C77233   0.836   2.314   6.813  0.2058  0.2440  0.4324
  573MOL0     C77234   0.690   2.312   6.757 -0.6705  0.4692  0.3846
  573MOL0     C77235   0.595   2.388   6.846  0.5717  0.0740  0.0138
  573MOL0     C77236   0.619   2.542   6.839  0.1370 -0.0092  0.5006
  573MOL0     N77237   0.504   2.619   6.868 -0.1127 -0.3550  0.4012
  573MOL0     C77238   0.436   2.627   6.993  1.1526  0.2087  1.3772
  573MOL0     C77239   0.339   2.709   6.987  0.4444 -1.0048 -0.7533
  573MOL0     C77240   0.240   2.735   7.098  1.4703  0.0489 -0.0627
  573MOL0     C77241   0.315   2.832   7.187 -0.8333 -0.1391 -0.2301
  573MOL0     C77242   0.215   2.900   7.288  0.4317  0.6436 -0.5008
  573MOL0     C77243   0.278   3.021   7.359 -0.6722  0.9827 -0.1293
  573MOL0     O77244   0.184   3.101   7.428  0.6244  0.0319 -0.2226
  573MOL0     C77245   0.116   3.043   7.535 -0.2466 -0.1998 -0.4319
  573MOL0     C77246  -0.016   3.083   7.551 -0.1191  1.1767  0.0507
  573MOL0     C77247  -0.088   3.038   7.669 -0.6549 -0.4920 -0.2915
  573MOL0     C77248  -0.229   3.091   7.698  0.1870 -0.2400  0.1998
  573MOL0     C77249  -0.024   2.950   7.759  0.3486  0.2214 -0.0735
  573MOL0     C77250  -0.103   2.884   7.867 -0.3316  0.1865  0.0636
  573MOL0     O77251  -0.237   2.855   7.848  0.3930 -0.4903 -0.1849
  573MOL0     C77252  -0.298   2.744   7.898 -0.2268 -0.5051 -0.0664
  573MOL0     C77253  -0.237   2.623   7.931  0.1219  0.0296 -0.2462
  573MOL0     C77254  -0.309   2.510   7.978 -0.1629 -0.6505 -0.2955
  573MOL0     C77255  -0.449   2.520   8.000 -1.0752  0.6906 -0.7984
  573MOL0     O77256  -0.521   2.417   8.048  0.1168  0.0779 -0.3850
  573MOL0     C77257  -0.471   2.285   8.041  1.5202  0.6076  0.8052
  573MOL0     C77258  -0.573   2.200   8.125  0.1098  0.4572 -0.2629
  573MOL0     C77259  -0.702   2.160   8.047 -0.0031  0.3539 -0.0498
  573MOL0     C77260  -0.813   2.099   8.125 -0.9786 -0.4537 -0.3531
  573MOL0     C77261  -0.930   2.044   8.037  0.3293 -0.1412 -0.3623
  573MOL0     C77262  -1.037   1.993   8.124  0.2437 -0.0514  0.0292
  573MOL0     C77263  -1.135   1.899   8.050 -1.4595  0.0432  0.5729
  573MOL0     C77264  -1.233   1.972   7.957  0.7045  0.1273  0.1878
  573MOL0    Cl77265  -1.356   2.040   8.077 -0.3526 -0.4164  0.1272
  573MOL0     C77266  -0.503   2.646   7.985 -0.0140  0.8555 -0.0609
  573MOL0     C77267  -0.435   2.754   7.936  0.1410  0.5831  0.7480
  573MOL0     O77268  -0.035   2.843   7.958  0.7623  0.3868 -0.0287
  573MOL0     C77269   0.110   2.905   7.723  0.4464 -0.9182 -0.3295
  573MOL0     C77270   0.173   2.951   7.615  0.0792  0.5259 -0.4532
  573MOL0     N77271   0.348   2.774   6.865 -0.0812  0.2008 -0.3039
  573MOL0     N77272   0.448   2.721   6.800  0.4796  0.4299  0.2574
  573MOL0     C77273   1.482   1.969   6.639  0.0079 -0.2292  0.1344
  573MOL0     C77274   1.613   1.973   6.603 -0.6232 -0.2274 -0.6774
  573MOL0     C77275   1.974   2.019   6.329 -0.4996  0.3308  0.1949
  573MOL0     C77276   2.062   1.988   6.430  0.6648  0.0644 -0.1016
  573MOL0     C77277   2.200   1.964   6.412 -0.3848 -0.6874  0.8614
  573MOL0     C77278   2.244   1.975   6.282  0.6950  0.4185 -0.2331
  573MOL0     O77279   2.374   1.961   6.241  0.5532 -0.3298 -0.2197
  573MOL0     C77280   2.476   1.937   6.336 -0.3915 -0.8658  0.0096
  573MOL0     C77281   2.598   1.932   6.245 -0.6109 -0.5549  0.8601
  573MOL0     C77282   2.659   2.066   6.199  0.3723 -0.5118  0.7001
  573MOL0     C77283   2.784   2.044   6.114  0.7303  0.4715  0.0772
  573MOL0     C77284   2.848   2.173   6.068  0.0693 -0.2573  0.1422
  573MOL0     C77285   2.907   2.272   6.026 -0.4770  0.2828 -0.4085
  573MOL0     C77286   2.160   2.006   6.174  0.3507  0.3177 -0.0051
  573MOL0     C77287   2.026   2.036   6.202 -0.0681  0.0634 -0.3292
  573MOL0     H77288   1.638   2.246   6.417  0.3867 -3.6151 -2.5818
  573MOL0     H77289   1.377   2.245   6.471 -1.4936 -0.8823  1.7609
  573MOL0     H77290   1.177   2.208   6.564  1.2694  0.1701  0.3496
  573MOL0     H77291   1.200   2.066   6.452  0.4192 -0.1165  0.0353
  573MOL0     H77292   0.962   2.072   6.496 -1.3767 -0.9903  0.5046
  573MOL0     H77293   1.027   1.940   6.585 -1.1567  0.3115  0.4561
  573MOL0     H77294   0.880   2.055   6.723  0.5146 -0.2254  0.1146
  573MOL0     H77295   1.029   2.103   6.788  0.0535  1.0406 -0.3804
  573MOL0     H77296   1.028   2.329   6.728 -0.9231  1.1919  0.4422
  573MOL0     H77297   0.909   2.311   6.600 -0.1125  3.3255  0.2417
  573MOL0     H77298   0.839   2.248   6.901 -2.8202  1.5763  1.6458
  573MOL0     H77299   0.878   2.408   6.850  0.5581  0.7423 -1.1406
  573MOL0     H77300   0.691   2.356   6.657  0.0198  0.9687  0.6007
  573MOL0     H77301   0.649   2.213   6.737  0.0403  0.0898  0.7446
  573MOL0     H77302   0.496   2.375   6.802  0.2404  0.1263  0.7336
  573MOL0     H77303   0.595   2.358   6.951 -0.5229  0.9373  0.2740
  573MOL0     H77304   0.650   2.562   6.736  1.9424 -2.3231  0.5034
  573MOL0     H77305   0.701   2.573   6.904 -2.2836  1.3606  3.1323
  573MOL0     H77306   0.439   2.568   7.084  0.9552 -2.5018 -0.2340
  573MOL0     H77307   0.145   2.774   7.062  0.6162  0.0994  2.0664
  573MOL0     H77308   0.229   2.640   7.153  1.0676 -0.8477 -1.6367
  573MOL0     H77309   0.344   2.914   7.121 -4.1992  1.2401 -0.1912
  573MOL0     H77310   0.397   2.787   7.243 -2.6000 -1.4424  1.4468
  573MOL0     H77311   0.187   2.829   7.366  0.0861  2.0494  0.7068
  573MOL0     H77312   0.121   2.920   7.236  0.7681  0.4498 -1.1902
  573MOL0     H77313   0.303   3.084   7.273 -1.0022  1.7717  0.3388
  573MOL0     H77314   0.366   2.994   7.418 -0.9714  1.0393  0.3547
  573MOL0     H77315  -0.068   3.151   7.485 -0.2410  1.4291  0.4026
  573MOL0     H77316  -0.251   3.106   7.804  1.2395  2.2082  0.1202
  573MOL0     H77317  -0.251   3.192   7.664 -0.0464  0.0701  1.2451
  573MOL0     H77318  -0.302   3.019   7.659 -1.7921  1.5846  0.3055
  573MOL0     H77319  -0.130   2.615   7.919 -0.0770 -1.8778 -1.1459
  573MOL0     H77320  -0.252   2.420   8.000  0.8487  0.1601  0.5441
  573MOL0     H77321  -0.466   2.243   7.940 -1.1639  2.0463 -0.0407
  573MOL0     H77322  -0.372   2.282   8.086  3.5594 -2.3804 -3.2512
  573MOL0     H77323  -0.531   2.114   8.176 -3.3748 -1.4414 -0.2675
  573MOL0     H77324  -0.605   2.259   8.212 -0.0864 -0.2209  0.1281
  573MOL0     H77325  -0.670   2.090   7.969  1.9923  0.8399  0.2756
  573MOL0     H77326  -0.744   2.252   8.006  1.8459 -0.2981 -3.7446
  573MOL0     H77327  -0.774   2.016   8.186 -1.5365  0.0672  0.7494
  573MOL0     H77328  -0.845   2.169   8.203  4.3189 -0.5590  2.3868
  573MOL0     H77329  -0.907   1.961   7.970 -1.9904 -2.0454  1.0117
  573MOL0     H77330  -0.969   2.118   7.967 -0.6449 -2.4695 -2.4368
  573MOL0     H77331  -0.986   1.939   8.204  1.2168 -0.2739 -0.7282
  573MOL0     H77332  -1.095   2.078   8.163 -2.1999 -0.3900 -2.5248
  573MOL0     H77333  -1.196   1.845   8.124 -1.2531 -0.1530  0.5995
  573MOL0     H77334  -1.080   1.832   7.984 -0.4823  2.3561 -1.0929
  573MOL0     H77335  -1.275   1.912   7.876 -0.4416 -0.1781  0.9841
  573MOL0     H77336  -1.174   2.049   7.906 -1.9926  1.6810 -0.8086
  573MOL0     H77337  -0.611   2.648   7.995 -0.0385 -1.7264  0.8413
  573MOL0     H77338  -0.488   2.846   7.917  1.8756  1.4077 -0.3631
  573MOL0     H77339   0.172   2.834   7.777  1.2110  1.2984  1.9121
  573MOL0     H77340   0.275   2.914   7.601 -0.4965 -0.9506 -0.9772
  573MOL0     H77341   1.448   1.883   6.696  0.9220  0.2774  1.4949
  573MOL0     H77342   1.680   1.897   6.642 -1.2540  1.4512  4.5011
  573MOL0     H77343   2.022   1.991   6.531 -0.7054  1.4779 -0.6438
  573MOL0     H77344   2.268   1.933   6.491 -0.4053 -0.0512  1.1322
  573MOL0     H77345   2.482   2.029   6.396  0.6502  2.1865 -4.2844
  573MOL0     H77346   2.439   1.851   6.392 -1.7640  0.5232  1.3087
  573MOL0     H77347   2.580   1.862   6.163  2.6686 -0.1762 -0.3531
  573MOL0     H77348   2.674   1.886   6.308  3.5337  1.3314 -2.2072
  573MOL0     H77349   2.686   2.122   6.289  1.5130  0.7781 -0.3852
  573MOL0     H77350   2.581   2.118   6.142 -1.3275 -5.0070 -1.5291
  573MOL0     H77351   2.767   1.983   6.025 -2.1149 -1.0722  1.5178
  573MOL0     H77352   2.854   1.993   6.181  1.9649  0.8060 -0.9245
  573MOL0     H77353   2.944   2.371   6.006 -2.2226  0.4327 -3.6560
  573MOL0     H77354   2.198   2.014   6.073  0.2443 -0.3850 -0.1037
  573MOL0     H77355   1.957   2.066   6.124 -0.1808 -0.9805 -0.6466
  574MOL0     O77356   7.059   7.611   2.207 -0.2942 -0.3188 -0.4696
  574MOL0     C77357   7.113   7.511   2.254 -0.1621  0.0014 -0.6911
  574MOL0     O77358   7.051   7.417   2.336  0.2326  0.6111  0.1353
  574MOL0     C77359   6.914   7.409   2.352  0.9508 -0.2212  0.8667
  574MOL0     C77360   6.824   7.439   2.243 -0.3997  0.3031  0.1285
  574MOL0     C77361   6.685   7.435   2.249 -0.1293 -0.0876 -0.0867
  574MOL0     C77362   6.632   7.385   2.363 -0.5110 -0.0566 -0.3839
  574MOL0     O77363   6.491   7.380   2.371  0.0409  0.8260  0.0784
  574MOL0     C77364   6.429   7.319   2.482 -0.6642  1.1278 -1.1792
  574MOL0     C77365   6.413   7.420   2.587  0.1034 -0.2863 -0.4097
  574MOL0     C77366   6.289   7.513   2.568 -0.2608  0.1042 -0.3316
  574MOL0     C77367   6.259   7.597   2.697  0.0345  0.3202 -0.2563
  574MOL0     C77368   6.369   7.701   2.714 -0.1502 -0.8764 -0.8868
  574MOL0     C77369   6.355   7.754   2.853 -0.2515  0.2409 -0.5278
  574MOL0     C77370   6.429   7.668   2.953 -0.2800 -0.6033 -0.2674
  574MOL0     C77371   6.369   7.663   3.095 -0.3153  0.2852 -0.5644
  574MOL0     N77372   6.237   7.605   3.104 -0.1874  0.6350 -0.8316
  574MOL0     C77373   6.204   7.488   3.038  0.9001 -0.9204 -0.1705
  574MOL0     C77374   6.080   7.452   3.088  0.3768  1.5809 -1.0807
  574MOL0     C77375   6.000   7.329   3.071  0.1183  0.3032  1.2421
  574MOL0     C77376   5.994   7.304   2.925  0.3447  0.1472  0.1850
  574MOL0     C77377   5.912   7.180   2.900 -0.5197  0.1935 -0.1218
  574MOL0     C77378   5.837   7.187   2.770 -1.1389  0.8862  0.2394
  574MOL0     O77379   5.737   7.290   2.778 -0.1980  0.9305  0.4774
  574MOL0     C77380   5.608   7.249   2.758  0.0344  0.4444 -0.4643
  574MOL0     C77381   5.572   7.164   2.657 -0.8278 -0.3505 -0.7860
  574MOL0     C77382   5.437   7.135   2.621  0.2294 -0.2932 -0.7984
  574MOL0     C77383   5.401   7.066   2.498 -0.4560  0.0021 -0.8151
  574MOL0     C77384   5.341   7.166   2.721 -0.7005  0.1974 -0.1654
  574MOL0     C77385   5.194   7.134   2.715 -0.4882 -0.9279  0.5619
  574MOL0     O77386   5.112   7.216   2.798  0.5819  0.4700 -0.0592
  574MOL0     C77387   4.973   7.209   2.767 -0.3217 -0.3721 -0.1403
  574MOL0     C77388   4.895   7.110   2.831 -0.2705 -1.1995  0.8660
  574MOL0     C77389   4.759   7.098   2.801 -0.1226 -0.8557 -0.6942
  574MOL0     C77390   4.700   7.190   2.715 -0.3327 -0.2472  0.5373
  574MOL0     O77391   4.563   7.199   2.697  0.2764 -0.2992 -0.3448
  574MOL0     C77392   4.473   7.107   2.745  0.4378 -0.1486  0.5963
  574MOL0     C77393   4.327   7.157   2.710  0.6554 -0.2847 -0.4731
  574MOL0     C77394   4.227   7.076   2.792  0.3459 -0.2257 -0.0814
  574MOL0     C77395   4.199   6.942   2.727 -0.0360  0.4306  0.7925
  574MOL0     C77396   4.129   6.840   2.829  0.0644 -0.0209  0.3897
  574MOL0     C77397   3.985   6.886   2.858 -1.0028  0.0092  0.9514
  574MOL0     C77398   3.936   6.802   2.974 -0.3547 -0.3081  0.2955
  574MOL0     C77399   3.778   6.829   3.001 -0.3729  0.0952  0.0014
  574MOL0    Cl77400   3.708   6.742   3.128  0.4757  0.2758  0.0591
  574MOL0     C77401   4.777   7.293   2.665 -0.2713 -0.0071 -0.6167
  574MOL0     C77402   4.911   7.303   2.690  0.6921  0.3514  0.7448
  574MOL0     O77403   5.158   7.049   2.632 -0.0155 -0.1618  0.7121
  574MOL0     C77404   5.382   7.242   2.836 -0.5227  0.4852 -0.4563
  574MOL0     C77405   5.509   7.286   2.848 -0.4315  0.3276 -0.4954
  574MOL0     N77406   6.047   7.538   3.192 -0.3285 -0.4615  0.3146
  574MOL0     N77407   6.143   7.627   3.202  0.5620  0.1467  0.3563
  574MOL0     C77408   6.717   7.345   2.471  0.2168  0.0965 -0.2334
  574MOL0     C77409   6.857   7.351   2.469  0.9000  0.0682 -0.1957
  574MOL0     C77410   7.258   7.481   2.212 -0.2065 -0.0604 -0.1768
  574MOL0     C77411   7.326   7.362   2.246  0.2329 -0.0556  0.7231
  574MOL0     C77412   7.458   7.341   2.209 -0.1553  0.3395  0.0131
  574MOL0     C77413   7.531   7.438   2.130  0.6814 -0.3473  0.5254
  574MOL0     O77414   7.659   7.419   2.083  0.2131 -0.0809  0.1521
  574MOL0     C77415   7.683   7.395   1.945  0.6853 -0.3699  0.6499
  574MOL0     C77416   7.837   7.391   1.922  0.6641  0.4587  0.6328
  574MOL0     C77417   7.901   7.522   1.968  0.9533 -0.9151  0.9439
  574MOL0     C77418   8.048   7.499   1.955 -0.2889  0.1809  0.3723
  574MOL0     C77419   8.117   7.631   1.984  0.5577 -0.1254  0.4009
  574MOL0     C77420   8.161   7.741   2.018 -0.2632  0.2655  0.1880
  574MOL0     C77421   7.461   7.558   2.090 -0.3395  0.8245 -0.9409
  574MOL0     C77422   7.325   7.575   2.124  0.3146 -0.4151  0.4415
  574MOL0     H77423   6.866   7.478   2.150 -0.3859  0.4288  0.1880
  574MOL0     H77424   6.620   7.469   2.169 -1.3361  1.7117  1.5440
  574MOL0     H77425   6.330   7.279   2.455 -0.8043 -0.6659  1.6616
  574MOL0     H77426   6.483   7.233   2.523 -1.7579  2.0071  2.4793
  574MOL0     H77427   6.399   7.370   2.684  2.2085  1.5711  0.9763
  574MOL0     H77428   6.503   7.483   2.579 -1.1671  1.4164 -2.0018
  574MOL0     H77429   6.305   7.580   2.483 -1.7162 -1.1802 -1.7022
  574MOL0     H77430   6.202   7.452   2.540 -0.5083  2.0508 -4.5132
  574MOL0     H77431   6.159   7.638   2.683 -1.7863 -3.0601  1.6432
  574MOL0     H77432   6.247   7.524   2.778 -2.6093  1.7999  0.8229
  574MOL0     H77433   6.464   7.649   2.697  1.8092  1.0796  2.7164
  574MOL0     H77434   6.363   7.781   2.639 -1.0339  0.6642  0.7307
  574MOL0     H77435   6.404   7.852   2.860 -0.0944  0.0317  2.2753
  574MOL0     H77436   6.252   7.775   2.880 -0.7634 -1.6635 -0.8224
  574MOL0     H77437   6.452   7.568   2.914 -0.4016  0.6116 -3.9048
  574MOL0     H77438   6.529   7.708   2.973 -0.2519 -0.1140 -1.2723
  574MOL0     H77439   6.373   7.766   3.131  0.7128  1.0755 -2.7053
  574MOL0     H77440   6.438   7.603   3.154 -1.3210  0.4552  0.8303
  574MOL0     H77441   6.258   7.437   2.958 -0.5322 -3.2141  0.2273
  574MOL0     H77442   6.045   7.242   3.120  0.3289 -0.7373 -0.7067
  574MOL0     H77443   5.908   7.360   3.123 -1.0589 -0.9809  0.0151
  574MOL0     H77444   6.094   7.293   2.884 -0.0909  1.4242 -1.3438
  574MOL0     H77445   5.950   7.390   2.873 -1.9169 -0.6983  0.5619
  574MOL0     H77446   5.833   7.158   2.972 -2.8938  1.2063 -2.2797
  574MOL0     H77447   5.987   7.101   2.889  1.0737  1.7973 -1.1878
  574MOL0     H77448   5.804   7.083   2.763  0.9444  0.2275 -0.4282
  574MOL0     H77449   5.890   7.186   2.674 -4.8927 -4.0138 -2.2090
  574MOL0     H77450   5.650   7.134   2.588  0.0065 -0.7160  0.2744
  574MOL0     H77451   5.359   6.969   2.524 -2.7409  1.0595 -0.3149
  574MOL0     H77452   5.332   7.126   2.438  1.3144  1.6048 -1.3630
  574MOL0     H77453   5.493   7.055   2.440  0.7723 -0.2086  1.0697
  574MOL0     H77454   4.942   7.041   2.901 -2.0222  0.2495  3.6586
  574MOL0     H77455   4.712   7.012   2.849  1.4993  0.5025  3.8357
  574MOL0     H77456   4.502   7.017   2.691  1.5179  0.8871 -0.6298
  574MOL0     H77457   4.485   7.096   2.853 -1.7741  1.2592  1.0580
  574MOL0     H77458   4.312   7.264   2.729 -0.3695 -0.4710 -0.1854
  574MOL0     H77459   4.306   7.144   2.604 -2.7900  0.2421  0.0292
  574MOL0     H77460   4.132   7.130   2.800  0.1078 -0.6247 -0.1798
  574MOL0     H77461   4.270   7.052   2.889  2.3613 -0.1011 -0.8977
  574MOL0     H77462   4.135   6.951   2.639  2.2037 -1.4807 -1.1910
  574MOL0     H77463   4.289   6.888   2.695 -1.7943 -1.2146 -1.7268
  574MOL0     H77464   4.186   6.833   2.922 -0.5880 -1.8871  0.7056
  574MOL0     H77465   4.122   6.741   2.782  1.9671  0.3729 -0.8155
  574MOL0     H77466   3.992   6.994   2.876  2.1481  0.5928 -2.5073
  574MOL0     H77467   3.923   6.877   2.769 -1.9790 -0.1677  1.6389
  574MOL0     H77468   3.990   6.838   3.062  1.4534 -2.0013 -0.0642
  574MOL0     H77469   3.967   6.702   2.946  1.8000  1.1974 -3.3042
  574MOL0     H77470   3.729   6.794   2.909  0.8142 -3.2697  0.5287
  574MOL0     H77471   3.766   6.938   3.011  0.7324  0.4370 -1.9144
  574MOL0     H77472   4.723   7.362   2.600 -1.0167 -0.9914 -1.0624
  574MOL0     H77473   4.975   7.379   2.647 -0.3959  1.3685  0.8575
  574MOL0     H77474   5.314   7.286   2.908  1.2123 -1.2618  2.4615
  574MOL0     H77475   5.532   7.357   2.926  2.1435 -1.0749  0.1368
  574MOL0     H77476   6.671   7.298   2.557  1.2073  0.1774  0.3517
  574MOL0     H77477   6.924   7.324   2.550  4.1508  4.5640 -0.9856
  574MOL0     H77478   7.273   7.279   2.293  0.6898 -1.1103 -0.5655
  574MOL0     H77479   7.516   7.255   2.240 -2.4720 -2.3416 -2.5797
  574MOL0     H77480   7.638   7.300   1.915 -1.5688 -0.1487  3.0237
  574MOL0     H77481   7.648   7.473   1.876  1.4655 -0.5294  0.0545
  574MOL0     H77482   7.861   7.369   1.817  0.1946 -5.6377  1.4590
  574MOL0     H77483   7.876   7.309   1.983  0.1702  0.9904  1.6793
  574MOL0     H77484   7.891   7.545   2.075 -1.6733  0.5600  0.4776
  574MOL0     H77485   7.872   7.611   1.911 -0.0474  0.7208  3.7634
  574MOL0     H77486   8.072   7.465   1.854 -1.9712 -1.1303  0.3687
  574MOL0     H77487   8.076   7.421   2.026 -4.2170  0.4499  2.4964
  574MOL0     H77488   8.196   7.837   2.049 -0.8553 -0.7258  4.6366
  574MOL0     H77489   7.509   7.636   2.032 -0.9770  2.0716  0.1530
  574MOL0     H77490   7.272   7.663   2.088  1.2011  1.1486  2.7367
  575MOL0     O77491   5.634   4.350   7.270  0.2556  0.5100 -0.1015
  575MOL0     C77492   5.662   4.423   7.366  0.1977 -0.5194  0.5619
  575MOL0     O77493   5.569   4.492   7.447  0.2061 -0.1714 -0.1176
  575MOL0     C77494   5.435   4.502   7.410 -0.5666  0.0746  0.1433
  575MOL0     C77495   5.353   4.508   7.517  0.1309 -0.4820 -0.0719
  575MOL0     C77496   5.216   4.496   7.498 -0.9552  0.2316 -0.3182
  575MOL0     C77497   5.160   4.489   7.368  0.3639  0.6198  0.5704
  575MOL0     O77498   5.025   4.472   7.344  0.4522  0.6455 -0.5018
  575MOL0     C77499   4.932   4.574   7.389  0.1760  0.4612 -1.0143
  575MOL0     C77500   4.794   4.533   7.346  0.8239  0.5564 -0.2993
  575MOL0     C77501   4.695   4.615   7.417  1.3564  0.0222  0.5289
  575MOL0     C77502   4.559   4.624   7.341 -0.0135  0.4009 -0.1793
  575MOL0     C77503   4.462   4.722   7.413 -0.6641  0.4793 -0.7013
  575MOL0     C77504   4.323   4.715   7.351  0.1287  0.2334 -0.3242
  575MOL0     C77505   4.220   4.829   7.395 -0.7428 -0.0599 -0.1381
  575MOL0     C77506   4.080   4.806   7.358 -0.5736  0.0209  0.5106
  575MOL0     N77507   3.991   4.907   7.409 -0.2278  0.5498  0.0888
  575MOL0     C77508   3.961   5.030   7.362  0.1717  0.5700 -0.1917
  575MOL0     C77509   3.856   5.074   7.428  0.1520  0.7749  0.5826
  575MOL0     C77510   3.776   5.201   7.403 -0.4033  0.1207 -0.0416
  575MOL0     C77511   3.645   5.191   7.488 -0.5165  0.1980 -0.2871
  575MOL0     C77512   3.564   5.318   7.463 -0.3704  0.1574 -0.4029
  575MOL0     C77513   3.421   5.313   7.519  0.6626  0.5153 -0.7308
  575MOL0     O77514   3.357   5.430   7.486 -0.6291 -0.7523  0.1368
  575MOL0     C77515   3.223   5.442   7.500  0.0248  0.0291 -0.6950
  575MOL0     C77516   3.157   5.535   7.417  0.1655  0.5146  0.3738
  575MOL0     C77517   3.022   5.559   7.438  0.3514  0.8959 -0.0830
  575MOL0     C77518   2.952   5.662   7.351 -0.5866 -0.8098 -0.3696
  575MOL0     C77519   2.945   5.485   7.540  0.2577 -0.1538  0.5649
  575MOL0     C77520   2.801   5.496   7.580  0.1176 -0.5240  0.0927
  575MOL0     O77521   2.731   5.575   7.496 -0.7645  0.3080  0.4918
  575MOL0     C77522   2.607   5.600   7.548  0.6392 -0.0510 -0.2633
  575MOL0     C77523   2.493   5.559   7.483  0.1233 -0.0821 -0.3499
  575MOL0     C77524   2.368   5.617   7.508  0.3812 -0.1125  0.3406
  575MOL0     C77525   2.355   5.706   7.613 -0.4380  0.2561  0.3219
  575MOL0     O77526   2.235   5.755   7.654  0.0528 -0.8487  0.1181
  575MOL0     C77527   2.145   5.657   7.680  0.4967 -0.2586 -0.0535
  575MOL0     C77528   2.040   5.703   7.788  0.3993  0.2713  0.6993
  575MOL0     C77529   2.094   5.752   7.923  0.5903 -0.5187 -0.2438
  575MOL0     C77530   1.978   5.803   8.000  0.4533 -0.1729 -0.6172
  575MOL0     C77531   2.020   5.840   8.139 -0.2602 -0.4462 -0.4667
  575MOL0     C77532   1.886   5.888   8.217 -0.6106  0.5597 -0.1032
  575MOL0     C77533   1.932   5.937   8.354 -0.3818 -0.5088  0.3716
  575MOL0     C77534   1.828   6.032   8.405  0.4057  0.6245 -0.9831
  575MOL0    Cl77535   1.838   6.048   8.585 -0.3265  0.4555 -0.2626
  575MOL0     C77536   2.473   5.739   7.690 -0.1560 -0.0862 -0.0427
  575MOL0     C77537   2.599   5.696   7.649  1.2566  0.0354 -0.3249
  575MOL0     O77538   2.766   5.456   7.687  0.7469  0.2324  0.3383
  575MOL0     C77539   3.021   5.392   7.622  0.3429 -0.3210  0.3325
  575MOL0     C77540   3.154   5.378   7.604 -0.5930 -0.6994 -0.4255
  575MOL0     N77541   3.833   4.984   7.528 -0.4717  0.3702  0.0374
  575MOL0     N77542   3.907   4.884   7.512  0.4974  0.0455 -0.4893
  575MOL0     C77543   5.244   4.494   7.257 -0.4144 -0.5673  0.3065
  575MOL0     C77544   5.385   4.497   7.276  0.1238 -0.6692 -0.5517
  575MOL0     C77545   5.802   4.443   7.408  0.2824 -0.5083  0.7815
  575MOL0     C77546   5.894   4.350   7.360 -0.1370 -0.4236 -0.6249
  575MOL0     C77547   6.031   4.355   7.404 -0.5381  0.6067  0.5072
  575MOL0     C77548   6.076   4.447   7.491 -0.1249  0.1247  0.6568
  575MOL0     O77549   6.203   4.461   7.545  0.3938  0.8097 -0.5341
  575MOL0     C77550   6.315   4.453   7.453  0.4053 -0.4675  0.6931
  575MOL0     C77551   6.452   4.482   7.521 -0.0657  0.1038  0.0181
  575MOL0     C77552   6.563   4.491   7.402  0.3475 -0.1861 -0.7640
  575MOL0     C77553   6.707   4.486   7.461 -0.8237 -0.7275 -0.0385
  575MOL0     C77554   6.799   4.487   7.347  0.0857  0.1647 -0.2225
  575MOL0     C77555   6.869   4.489   7.247 -0.9287 -0.2003 -0.3838
  575MOL0     C77556   5.991   4.544   7.535 -0.4147 -0.0864 -0.5606
  575MOL0     C77557   5.857   4.545   7.495  0.7130 -0.1643  1.1330
  575MOL0     H77558   5.389   4.495   7.619 -0.6253  0.9387  0.4064
  575MOL0     H77559   5.157   4.491   7.589  0.2194 -0.3274  0.4311
  575MOL0     H77560   4.919   4.590   7.496  1.1034 -1.1425 -0.6264
  575MOL0     H77561   4.949   4.672   7.344 -3.4794  0.2729 -3.2784
  575MOL0     H77562   4.794   4.551   7.238 -0.3984 -0.4640 -0.5030
  575MOL0     H77563   4.772   4.427   7.362  2.8978 -0.3534 -2.7474
  575MOL0     H77564   4.687   4.574   7.518  1.1851 -0.0640  0.4803
  575MOL0     H77565   4.738   4.716   7.416  1.1776  0.0993 -1.2130
  575MOL0     H77566   4.565   4.650   7.235  0.1839 -1.0883 -0.5456
  575MOL0     H77567   4.512   4.525   7.344 -2.9036  1.6597  2.8336
  575MOL0     H77568   4.454   4.683   7.515 -0.6226 -0.4089 -1.0300
  575MOL0     H77569   4.486   4.828   7.399 -1.3466  0.5630 -1.3122
  575MOL0     H77570   4.333   4.727   7.243  0.5578  2.5477 -0.0895
  575MOL0     H77571   4.285   4.613   7.359  0.0642 -0.0185 -3.0228
  575MOL0     H77572   4.233   4.854   7.501  1.2835  1.9498 -0.7789
  575MOL0     H77573   4.266   4.906   7.333  1.2282 -0.9815  0.0922
  575MOL0     H77574   4.040   4.711   7.395 -2.6318  0.6914  0.1632
  575MOL0     H77575   4.073   4.809   7.249  0.6478  1.1474  0.4469
  575MOL0     H77576   4.008   5.071   7.273 -0.3162  0.4702 -0.4936
  575MOL0     H77577   3.833   5.286   7.442  0.1385  0.4663 -1.5226
  575MOL0     H77578   3.748   5.211   7.298 -1.3860  2.2330  0.3650
  575MOL0     H77579   3.681   5.186   7.591 -3.8316  0.6989  1.0192
  575MOL0     H77580   3.590   5.099   7.468  1.3246 -1.2469  0.9045
  575MOL0     H77581   3.562   5.338   7.355  1.6320 -0.9439 -0.6961
  575MOL0     H77582   3.604   5.410   7.507  1.0736 -0.8694  0.4994
  575MOL0     H77583   3.419   5.294   7.627 -1.7543  1.2927 -0.5747
  575MOL0     H77584   3.377   5.225   7.471 -1.6875  1.4697 -0.4264
  575MOL0     H77585   3.214   5.603   7.354  1.3040 -2.2805 -1.8179
  575MOL0     H77586   3.018   5.716   7.283 -0.5483 -1.0861 -0.5540
  575MOL0     H77587   2.875   5.613   7.291 -1.0800 -0.4722 -0.0251
  575MOL0     H77588   2.907   5.735   7.419  1.8758 -0.9144  1.5277
  575MOL0     H77589   2.503   5.487   7.402  1.5408 -2.4878  1.7893
  575MOL0     H77590   2.285   5.581   7.447  2.2876 -3.0365 -0.7236
  575MOL0     H77591   2.099   5.625   7.586 -2.3291 -1.0955  1.4817
  575MOL0     H77592   2.191   5.566   7.719  0.8753 -0.2393 -0.4498
  575MOL0     H77593   1.992   5.783   7.731  1.0733  0.2046  0.0214
  575MOL0     H77594   1.963   5.628   7.807  0.6466  0.6180  3.5643
  575MOL0     H77595   2.167   5.833   7.912 -0.6694  0.5545 -0.8340
  575MOL0     H77596   2.145   5.672   7.978 -1.8567 -0.8384  1.6828
  575MOL0     H77597   1.936   5.892   7.951  0.1405  2.1574  3.4816
  575MOL0     H77598   1.898   5.731   8.016  0.7037 -0.9273 -2.4625
  575MOL0     H77599   2.090   5.923   8.132  1.1847 -1.6982 -1.2714
  575MOL0     H77600   2.069   5.767   8.203 -2.0131 -1.6831 -0.4677
  575MOL0     H77601   1.825   5.962   8.165 -0.9672  0.7586  0.5857
  575MOL0     H77602   1.818   5.806   8.243 -0.5001  0.6894  0.5991
  575MOL0     H77603   2.019   6.003   8.341  0.2924 -1.8531 -3.0096
  575MOL0     H77604   1.965   5.852   8.415 -1.3804  0.6492  2.6346
  575MOL0     H77605   1.727   5.998   8.383  0.6881  1.1002 -3.2751
  575MOL0     H77606   1.826   6.127   8.351 -1.3424  0.6049 -1.0064
  575MOL0     H77607   2.465   5.795   7.783  0.2469 -0.0825 -0.0080
  575MOL0     H77608   2.689   5.726   7.701  1.4882 -3.3631  1.4662
  575MOL0     H77609   2.965   5.340   7.700 -0.7725 -1.3771 -1.0940
  575MOL0     H77610   3.202   5.306   7.670  0.2080  0.0875 -0.1307
  575MOL0     H77611   5.207   4.498   7.155  1.2524  0.6017 -0.2925
  575MOL0     H77612   5.446   4.510   7.188  0.4063 -0.0657 -0.2727
  575MOL0     H77613   5.870   4.280   7.280  3.6818  0.1860 -2.5319
  575MOL0     H77614   6.088   4.266   7.379  1.1597  1.8690 -0.3175
  575MOL0     H77615   6.307   4.357   7.401  0.7343  0.1860 -0.6080
  575MOL0     H77616   6.311   4.527   7.372  2.2001  1.7567  2.4863
  575MOL0     H77617   6.477   4.405   7.594  0.5029  0.4225  0.1675
  575MOL0     H77618   6.448   4.575   7.578  2.3601 -1.3702  2.8958
  575MOL0     H77619   6.545   4.579   7.339 -0.4255 -0.3958 -0.8398
  575MOL0     H77620   6.555   4.408   7.332 -0.3599 -0.3776 -0.4581
  575MOL0     H77621   6.714   4.394   7.521 -1.9354  0.4486  1.9812
  575MOL0     H77622   6.723   4.574   7.523 -2.9586 -0.8840  0.8167
  575MOL0     H77623   6.914   4.489   7.150 -0.9716  0.3547 -0.4051
  575MOL0     H77624   6.026   4.622   7.602  1.9820 -2.0984  0.6578
  575MOL0     H77625   5.789   4.622   7.530 -1.5691  0.4698 -3.7765
  576MOL0     O77626   1.240   2.284   5.064 -0.0092  0.4695 -0.1220
  576MOL0     C77627   1.307   2.250   4.965 -0.1413  0.1184 -0.4420
  576MOL0     O77628   1.259   2.215   4.844  1.0718  0.0609  0.0766
  576MOL0     C77629   1.122   2.228   4.822 -0.4809  1.1542 -0.3547
  576MOL0     C77630   1.079   2.279   4.699 -0.3018  0.8089  0.0953
  576MOL0     C77631   0.945   2.275   4.663  0.5776 -0.4361  0.0688
  576MOL0     C77632   0.845   2.216   4.746  0.1269  0.8958 -0.4023
  576MOL0     O77633   0.716   2.200   4.707 -0.1910  0.1462  0.4550
  576MOL0     C77634   0.611   2.219   4.799  0.6741  0.3679 -0.7782
  576MOL0     C77635   0.484   2.199   4.729 -0.3523  0.4593  0.8366
  576MOL0     C77636   0.376   2.222   4.828  0.2226 -0.1233 -0.0850
  576MOL0     C77637   0.234   2.215   4.760  0.0917  0.2255  0.4721
  576MOL0     C77638   0.121   2.236   4.859 -0.0838 -0.5440  0.2640
  576MOL0     C77639  -0.029   2.230   4.802  0.3175 -0.0690  0.2102
  576MOL0     C77640  -0.085   2.338   4.712 -0.1037  0.6335 -0.0712
  576MOL0     C77641  -0.225   2.306   4.654 -0.4739 -0.0648  0.3516
  576MOL0     N77642  -0.330   2.296   4.762 -0.4339  0.4306  0.1461
  576MOL0     C77643  -0.419   2.190   4.778 -0.1232 -0.4632  1.3347
  576MOL0     C77644  -0.515   2.234   4.860  0.6566 -0.1312 -0.0738
  576MOL0     C77645  -0.644   2.175   4.905 -0.1580  0.1415 -0.2082
  576MOL0     C77646  -0.762   2.251   4.850 -0.2677  0.7429  0.3402
  576MOL0     C77647  -0.892   2.212   4.928  0.3888 -0.1731  0.9295
  576MOL0     C77648  -1.013   2.231   4.843 -0.4436  0.6724  0.6667
  576MOL0     O77649  -1.123   2.171   4.921  0.0291 -0.4377  0.1408
  576MOL0     C77650  -1.258   2.190   4.889  0.2858 -0.2157 -0.2780
  576MOL0     C77651  -1.301   2.247   4.770  0.5234  0.4571 -0.4011
  576MOL0     C77652  -1.439   2.272   4.742  0.1636  0.4650  0.3985
  576MOL0     C77653  -1.470   2.344   4.609  0.2637 -0.3954 -0.1677
  576MOL0     C77654  -1.540   2.222   4.832  0.4039 -0.8873 -0.1346
  576MOL0     C77655  -1.682   2.207   4.799  0.7260  0.0708 -0.0641
  576MOL0     O77656  -1.727   2.254   4.677 -0.1202 -0.5327  0.4038
  576MOL0     C77657  -1.864   2.287   4.667  0.6191 -0.9255  0.1547
  576MOL0     C77658  -1.955   2.210   4.589 -0.6809 -1.2651  0.0435
  576MOL0     C77659  -2.090   2.240   4.582 -1.0660 -0.8041 -0.7237
  576MOL0     C77660  -2.128   2.358   4.646  0.4614  0.2048  0.1848
  576MOL0     O77661  -2.254   2.402   4.601  0.6156 -0.4571 -0.7186
  576MOL0     C77662  -2.353   2.415   4.712  0.1584 -1.0274 -0.4146
  576MOL0     C77663  -2.488   2.418   4.651 -0.1152  0.4045 -0.7005
  576MOL0     C77664  -2.594   2.422   4.754 -0.7282 -0.5212 -0.6288
  576MOL0     C77665  -2.732   2.387   4.707  0.4012 -0.2378  0.0838
  576MOL0     C77666  -2.807   2.491   4.615 -0.4445  0.4680  0.0515
  576MOL0     C77667  -2.940   2.428   4.565  0.9106 -0.1537  0.5467
  576MOL0     C77668  -3.051   2.460   4.668 -0.5385 -0.0857 -0.5275
  576MOL0     C77669  -3.177   2.374   4.662 -0.9584  0.2103  0.1187
  576MOL0    Cl77670  -3.239   2.373   4.482 -0.4622  0.4079  0.0743
  576MOL0     C77671  -2.045   2.440   4.719  0.7637  0.2393  1.1216
  576MOL0     C77672  -1.913   2.408   4.728 -0.4055  0.9082 -0.3391
  576MOL0     O77673  -1.753   2.167   4.888 -0.1914 -0.1437  0.6224
  576MOL0     C77674  -1.491   2.162   4.953 -0.3144 -0.4290  0.0816
  576MOL0     C77675  -1.359   2.155   4.987 -0.2098  0.8925 -0.7690
  576MOL0     N77676  -0.473   2.366   4.895  1.1673  0.5738 -1.1491
  576MOL0     N77677  -0.363   2.399   4.834  0.0776 -0.5935  0.1060
  576MOL0     C77678   0.890   2.157   4.865 -0.7140 -0.9298  0.2010
  576MOL0     C77679   1.024   2.165   4.900  0.3337 -0.1053 -0.2851
  576MOL0     C77680   1.464   2.250   4.988  0.9331  0.6438 -0.2408
  576MOL0     C77681   1.552   2.219   4.883  0.3206 -0.2397 -0.4041
  576MOL0     C77682   1.690   2.203   4.905 -0.5540 -0.3134 -0.3228
  576MOL0     C77683   1.739   2.207   5.037  0.1837 -0.6741  0.9222
  576MOL0     O77684   1.871   2.185   5.075 -0.5895 -0.0528  0.1689
  576MOL0     C77685   1.960   2.149   4.969 -0.5960 -0.4217 -0.0309
  576MOL0     C77686   2.109   2.162   4.999  0.1140  0.2731  0.2776
  576MOL0     C77687   2.191   2.061   4.917 -0.9415  0.1588  0.5525
  576MOL0     C77688   2.343   2.082   4.950 -0.3288  0.0559  0.5258
  576MOL0     C77689   2.402   2.192   4.886  0.0963 -0.1811  0.2290
  576MOL0     C77690   2.474   2.279   4.844  0.6504 -0.5493  0.1726
  576MOL0     C77691   1.655   2.248   5.135  0.4205  0.2386  1.2061
  576MOL0     C77692   1.520   2.277   5.102 -0.8389 -0.0870 -0.3071
  576MOL0     H77693   1.148   2.342   4.644  1.1387 -0.2882  0.5738
  576MOL0     H77694   0.914   2.317   4.568  0.0173  0.0360  0.4524
  576MOL0     H77695   0.614   2.172   4.898  0.4610  2.0684  0.0732
  576MOL0     H77696   0.612   2.325   4.827  0.6551  0.9399 -2.8350
  576MOL0     H77697   0.492   2.268   4.644  0.7043 -0.5414  0.0867
  576MOL0     H77698   0.474   2.096   4.692 -2.7349  0.2314  1.9054
  576MOL0     H77699   0.379   2.152   4.912  1.6558  0.1367  0.1066
  576MOL0     H77700   0.389   2.328   4.852 -0.0531  0.2980 -1.6779
  576MOL0     H77701   0.235   2.285   4.676 -1.3705 -0.4465 -0.1320
  576MOL0     H77702   0.206   2.123   4.708 -0.6825  1.9294 -2.3149
  576MOL0     H77703   0.134   2.157   4.934  1.8968 -0.7072 -0.1889
  576MOL0     H77704   0.137   2.332   4.908  2.1045  1.1866 -3.4034
  576MOL0     H77705  -0.035   2.133   4.752  0.1825 -0.2347  0.5474
  576MOL0     H77706  -0.092   2.240   4.890  2.4705  1.9708  1.6350
  576MOL0     H77707  -0.078   2.427   4.775  1.0803  0.6721 -0.2340
  576MOL0     H77708  -0.022   2.342   4.622 -0.9375 -1.4374 -0.8141
  576MOL0     H77709  -0.234   2.218   4.590 -3.2217  0.6386 -0.3682
  576MOL0     H77710  -0.227   2.390   4.584  1.8098 -1.3570 -1.3799
  576MOL0     H77711  -0.424   2.102   4.715  0.2286  1.4216 -1.5058
  576MOL0     H77712  -0.652   2.069   4.878  2.3429  0.3368 -2.1234
  576MOL0     H77713  -0.644   2.180   5.014  0.5840 -0.8029 -0.1573
  576MOL0     H77714  -0.758   2.236   4.741  3.6399  1.4535  0.2546
  576MOL0     H77715  -0.739   2.358   4.854  0.8714  0.5089  0.2541
  576MOL0     H77716  -0.899   2.275   5.017  1.9031  0.7119  0.4576
  576MOL0     H77717  -0.889   2.108   4.962  0.9350 -0.0775  1.1907
  576MOL0     H77718  -0.991   2.172   4.754  0.0032 -0.1720  1.3249
  576MOL0     H77719  -1.043   2.330   4.807 -4.5010 -0.9688 -0.9381
  576MOL0     H77720  -1.232   2.267   4.688 -0.5487 -1.8219 -1.9798
  576MOL0     H77721  -1.515   2.274   4.538 -3.4059 -0.1830  1.6466
  576MOL0     H77722  -1.547   2.419   4.631  0.7334 -0.1145  0.5534
  576MOL0     H77723  -1.377   2.388   4.575 -0.8920  2.0141 -0.4332
  576MOL0     H77724  -1.910   2.127   4.536 -0.4616 -0.7470 -0.5989
  576MOL0     H77725  -2.153   2.172   4.526  0.7631 -1.9616 -1.4615
  576MOL0     H77726  -2.345   2.325   4.774 -0.6335 -1.6003 -1.1215
  576MOL0     H77727  -2.329   2.509   4.763 -2.4806  1.3140 -3.0909
  576MOL0     H77728  -2.493   2.505   4.585 -0.6133  0.2234 -0.9077
  576MOL0     H77729  -2.498   2.326   4.594  0.8170 -0.8391  1.0465
  576MOL0     H77730  -2.607   2.526   4.788 -0.7541 -0.9468  0.7406
  576MOL0     H77731  -2.575   2.353   4.837 -1.3391  0.5962  0.4801
  576MOL0     H77732  -2.724   2.301   4.641 -1.7440  0.6612 -1.4617
  576MOL0     H77733  -2.809   2.358   4.779 -1.8024  0.5724 -1.8127
  576MOL0     H77734  -2.733   2.503   4.536 -0.3020  0.7796  0.2325
  576MOL0     H77735  -2.822   2.587   4.666  0.2452 -0.4318  2.0478
  576MOL0     H77736  -2.961   2.463   4.464  2.1773 -1.9061 -0.3960
  576MOL0     H77737  -2.941   2.320   4.547  0.3932 -0.0546 -0.0296
  576MOL0     H77738  -3.075   2.566   4.660  1.1204  0.4024  0.4271
  576MOL0     H77739  -3.024   2.452   4.774 -0.2245 -2.2969 -0.7198
  576MOL0     H77740  -3.255   2.406   4.732 -0.4903 -1.1445  1.3085
  576MOL0     H77741  -3.146   2.276   4.699  2.1934  1.0717  0.0455
  576MOL0     H77742  -2.083   2.532   4.763 -1.0226  1.6266 -2.8989
  576MOL0     H77743  -1.846   2.482   4.770  1.1548 -0.5337 -0.2124
  576MOL0     H77744  -1.567   2.126   5.021  0.3363 -2.9140 -0.3896
  576MOL0     H77745  -1.325   2.118   5.083  1.5224 -0.2954 -1.7872
  576MOL0     H77746   0.820   2.103   4.928  0.6256 -1.3603  1.3979
  576MOL0     H77747   1.045   2.109   4.991 -2.5351 -0.8488  0.0335
  576MOL0     H77748   1.519   2.197   4.782  2.6188 -0.6476 -1.1261
  576MOL0     H77749   1.756   2.178   4.822  3.8596  0.2308  2.7194
  576MOL0     H77750   1.941   2.045   4.941 -2.3410  0.6104 -3.2764
  576MOL0     H77751   1.945   2.214   4.882  1.8854  1.5918  0.9358
  576MOL0     H77752   2.115   2.139   5.106 -2.9591  1.2429  0.7636
  576MOL0     H77753   2.138   2.263   4.969  1.5092  0.2209  1.3794
  576MOL0     H77754   2.180   2.063   4.808  2.0322  1.3813  0.1670
  576MOL0     H77755   2.165   1.962   4.955  2.0895 -0.9559 -0.0283
  576MOL0     H77756   2.399   1.992   4.928  0.5266  0.9816 -1.2764
  576MOL0     H77757   2.359   2.097   5.057  3.3644 -1.0385  0.2463
  576MOL0     H77758   2.534   2.362   4.811 -0.7081 -0.0977 -1.2162
  576MOL0     H77759   1.684   2.278   5.235 -4.6451  2.4005  2.3657
  576MOL0     H77760   1.470   2.312   5.192  0.1173 -1.3562  0.7634
  577MOL0     O77761   0.696   6.212   4.419  0.5357  0.2520  0.6443
  577MOL0     C77762   0.698   6.107   4.366 -0.1497 -0.3818 -0.4226
  577MOL0     O77763   0.585   6.043   4.323  0.3599 -0.6241 -0.7222
  577MOL0     C77764   0.458   6.097   4.340  0.3078 -1.0110  0.0184
  577MOL0     C77765   0.419   6.235   4.318  0.3429  0.5107 -0.1804
  577MOL0     C77766   0.279   6.258   4.326 -0.8135 -0.1254  0.1392
  577MOL0     C77767   0.190   6.151   4.353  0.1615 -0.6875  0.0622
  577MOL0     O77768   0.059   6.190   4.360  0.4009 -0.0138 -0.0306
  577MOL0     C77769  -0.041   6.086   4.368 -0.1390 -0.0708  0.2632
  577MOL0     C77770  -0.175   6.155   4.340  0.5340 -0.2182  0.0492
  577MOL0     C77771  -0.279   6.052   4.373  0.5237 -0.5313 -0.2649
  577MOL0     C77772  -0.415   6.121   4.322  0.0965  0.5010  0.5130
  577MOL0     C77773  -0.530   6.017   4.327 -0.0523  0.0399  0.6618
  577MOL0     C77774  -0.669   6.079   4.299 -0.6886 -0.2285  0.2272
  577MOL0     C77775  -0.777   5.979   4.337 -0.0889  0.0618  0.4722
  577MOL0     C77776  -0.916   6.034   4.323 -0.3910  0.4051 -0.4032
  577MOL0     N77777  -1.017   5.946   4.371  0.4881 -0.4139 -0.0266
  577MOL0     C77778  -1.093   5.973   4.487  0.2897 -0.3621 -0.1703
  577MOL0     C77779  -1.154   5.863   4.515  0.2844  0.5916 -0.4506
  577MOL0     C77780  -1.236   5.821   4.643  0.4044  0.3893  0.3623
  577MOL0     C77781  -1.385   5.832   4.627  0.6288 -0.7050  0.8041
  577MOL0     C77782  -1.445   5.975   4.627 -0.4461 -0.5605 -0.8111
  577MOL0     C77783  -1.593   5.975   4.590 -0.3386  1.4209 -0.6489
  577MOL0     O77784  -1.661   6.066   4.663  0.1310  0.5917 -0.0954
  577MOL0     C77785  -1.792   6.091   4.604  0.3450  0.1580  0.3643
  577MOL0     C77786  -1.804   6.129   4.471  0.4727 -1.0780  0.0300
  577MOL0     C77787  -1.934   6.164   4.417  0.1886  0.1483  0.7350
  577MOL0     C77788  -1.934   6.214   4.274  0.4531 -0.1673  0.3383
  577MOL0     C77789  -2.056   6.150   4.488 -0.3927  0.4757 -0.7020
  577MOL0     C77790  -2.193   6.161   4.440  0.1933  0.1204  0.5180
  577MOL0     O77791  -2.295   6.128   4.523 -0.4669  0.1615  0.3415
  577MOL0     C77792  -2.430   6.142   4.490  0.2773  0.0629  0.7744
  577MOL0     C77793  -2.484   6.268   4.452 -0.1306  0.3340  0.0943
  577MOL0     C77794  -2.620   6.275   4.428  0.4495 -0.2797  0.5616
  577MOL0     C77795  -2.708   6.164   4.445  0.0457  0.2570  0.6020
  577MOL0     O77796  -2.836   6.187   4.411  0.7006 -0.2258 -0.2340
  577MOL0     C77797  -2.913   6.077   4.380  0.2784  0.2824  0.0389
  577MOL0     C77798  -3.047   6.135   4.316 -0.5730  0.6578  0.2086
  577MOL0     C77799  -3.123   6.208   4.423  0.2600  0.4327  0.5858
  577MOL0     C77800  -3.238   6.286   4.370  0.0101  0.1054 -0.5511
  577MOL0     C77801  -3.317   6.343   4.486  0.3831 -1.0046  0.4605
  577MOL0     C77802  -3.431   6.446   4.455  0.0694 -0.2079 -0.5191
  577MOL0     C77803  -3.377   6.547   4.358  0.1175 -0.0295  0.4013
  577MOL0     C77804  -3.463   6.670   4.345 -0.2167 -0.2304 -0.1855
  577MOL0    Cl77805  -3.608   6.615   4.254  0.4837  0.0066 -0.2595
  577MOL0     C77806  -2.654   6.039   4.487 -0.6113  0.0381  0.5096
  577MOL0     C77807  -2.517   6.034   4.506  0.0404  0.7519 -0.3391
  577MOL0     O77808  -2.205   6.209   4.332 -0.3007 -0.2176  0.6982
  577MOL0     C77809  -2.039   6.100   4.624 -0.3923 -0.1575  0.6116
  577MOL0     C77810  -1.909   6.070   4.678  1.0420 -1.1666 -0.3598
  577MOL0     N77811  -1.130   5.775   4.410 -0.0920 -0.0351  0.8372
  577MOL0     N77812  -1.031   5.816   4.343  0.5756  0.5410  1.2319
  577MOL0     C77813   0.232   6.024   4.378 -0.0049  0.3782  0.0243
  577MOL0     C77814   0.365   5.999   4.369 -0.4442  0.1768  0.8952
  577MOL0     C77815   0.833   6.035   4.357 -0.2707  0.4076  0.1974
  577MOL0     C77816   0.950   6.098   4.406 -0.3336 -0.2032 -0.1890
  577MOL0     C77817   1.069   6.035   4.406 -0.5385 -0.0941  0.4192
  577MOL0     C77818   1.073   5.899   4.358  0.1278 -0.2086 -0.7792
  577MOL0     O77819   1.191   5.827   4.352  0.1433 -0.0389 -0.0751
  577MOL0     C77820   1.212   5.756   4.473  0.1270 -0.6990  0.6271
  577MOL0     C77821   1.351   5.683   4.471  0.1175  0.2856  0.4528
  577MOL0     C77822   1.459   5.793   4.442 -0.6606  0.4820  0.5627
  577MOL0     C77823   1.593   5.742   4.487  0.4775 -0.2988 -0.7898
  577MOL0     C77824   1.704   5.836   4.479  0.1864 -0.3804  0.6729
  577MOL0     C77825   1.797   5.911   4.476 -1.1328  0.0476 -0.5172
  577MOL0     C77826   0.961   5.844   4.293 -0.3781 -0.4708 -0.0406
  577MOL0     C77827   0.843   5.913   4.297 -0.0289 -0.2434 -0.2509
  577MOL0     H77828   0.484   6.313   4.280 -0.1011  0.1468 -1.7474
  577MOL0     H77829   0.246   6.357   4.299 -2.6343  0.1448  2.9598
  577MOL0     H77830  -0.019   6.015   4.288  2.6493  0.8897  0.0893
  577MOL0     H77831  -0.034   6.047   4.470  2.1257  0.0658  0.2010
  577MOL0     H77832  -0.186   6.239   4.410 -0.5197 -1.0957  0.9655
  577MOL0     H77833  -0.173   6.196   4.239  2.1836 -1.3374 -0.4191
  577MOL0     H77834  -0.267   5.961   4.314 -1.8520 -1.6166  0.8054
  577MOL0     H77835  -0.287   6.030   4.480 -1.9350  0.8654 -0.0939
  577MOL0     H77836  -0.449   6.205   4.382  0.2477  0.8099  0.1687
  577MOL0     H77837  -0.403   6.164   4.222  0.1964 -1.6869 -0.4930
  577MOL0     H77838  -0.517   5.935   4.256 -0.0427  0.7085 -0.1362
  577MOL0     H77839  -0.535   5.986   4.431  0.8321  0.0851  0.7314
  577MOL0     H77840  -0.679   6.167   4.362 -1.1296 -1.2089  1.5788
  577MOL0     H77841  -0.666   6.117   4.196  3.9981  1.3895  0.7221
  577MOL0     H77842  -0.772   5.891   4.272 -1.0907 -0.1007  0.5988
  577MOL0     H77843  -0.763   5.936   4.437  0.4318 -0.9906 -0.0355
  577MOL0     H77844  -0.941   6.046   4.217  1.2241 -1.4197 -1.0433
  577MOL0     H77845  -0.908   6.134   4.368  1.2878  0.5250 -0.8844
  577MOL0     H77846  -1.084   6.058   4.554 -3.2084  0.0264  0.0019
  577MOL0     H77847  -1.214   5.721   4.680 -0.7634 -0.6079 -1.4738
  577MOL0     H77848  -1.199   5.886   4.723 -0.9820  1.6378  0.0242
  577MOL0     H77849  -1.439   5.770   4.699 -1.2850  0.8393  0.7648
  577MOL0     H77850  -1.412   5.781   4.534 -0.9324 -2.8386  2.3377
  577MOL0     H77851  -1.385   6.046   4.568  1.2955 -0.7005  0.7162
  577MOL0     H77852  -1.433   6.001   4.732 -0.8547 -3.1449 -0.0662
  577MOL0     H77853  -1.623   5.871   4.609  2.3824  0.4226 -1.3300
  577MOL0     H77854  -1.598   5.990   4.481 -1.3698 -1.8569 -1.1619
  577MOL0     H77855  -1.708   6.152   4.426  0.1475 -0.5322 -0.4024
  577MOL0     H77856  -1.831   6.238   4.245  0.7596  0.5925  1.9629
  577MOL0     H77857  -1.986   6.147   4.204 -0.1596  0.4778  0.1635
  577MOL0     H77858  -1.989   6.308   4.264  2.2167  0.7421 -1.4373
  577MOL0     H77859  -2.412   6.349   4.446  1.9777 -1.0008  4.0534
  577MOL0     H77860  -2.659   6.368   4.388 -1.1321 -1.5852 -1.0937
  577MOL0     H77861  -2.859   6.022   4.302 -0.0374 -0.2985  0.2222
  577MOL0     H77862  -2.943   6.011   4.463  0.5287  0.6843  0.4561
  577MOL0     H77863  -3.016   6.197   4.232  2.6806  2.9415  2.8174
  577MOL0     H77864  -3.110   6.048   4.295 -0.4972  0.8385 -0.7922
  577MOL0     H77865  -3.051   6.283   4.458  0.0901  0.3534  1.1146
  577MOL0     H77866  -3.157   6.143   4.504  0.8002  1.2660  1.5134
  577MOL0     H77867  -3.212   6.367   4.301 -0.1764 -0.8769 -1.8130
  577MOL0     H77868  -3.293   6.220   4.302  2.0910 -1.9707 -0.3275
  577MOL0     H77869  -3.251   6.388   4.560  0.0014  1.9800 -0.8669
  577MOL0     H77870  -3.354   6.250   4.531  1.7200 -2.0949 -0.6004
  577MOL0     H77871  -3.523   6.408   4.409  0.9590 -0.3626 -2.2570
  577MOL0     H77872  -3.457   6.505   4.543 -1.4744  2.5839 -2.7066
  577MOL0     H77873  -3.362   6.506   4.257  2.6299 -0.4977  0.9096
  577MOL0     H77874  -3.279   6.578   4.395  0.4599 -0.4906 -0.1106
  577MOL0     H77875  -3.405   6.745   4.290  1.0070 -2.8434 -2.7326
  577MOL0     H77876  -3.506   6.704   4.440 -0.2747 -0.7374 -0.0259
  577MOL0     H77877  -2.713   5.949   4.496 -0.8681 -0.1265 -2.0804
  577MOL0     H77878  -2.485   5.935   4.537 -1.8588 -0.0944 -0.8722
  577MOL0     H77879  -2.129   6.099   4.685  0.1484 -0.7574  1.4241
  577MOL0     H77880  -1.905   6.042   4.782 -1.6435  1.5874  0.6228
  577MOL0     H77881   0.164   5.944   4.405 -0.3032 -0.5009 -3.0018
  577MOL0     H77882   0.400   5.897   4.376  0.8004  0.4632 -0.7451
  577MOL0     H77883   0.942   6.189   4.464 -0.9483 -0.5567  0.2888
  577MOL0     H77884   1.157   6.076   4.453 -1.4295 -1.4158  3.4915
  577MOL0     H77885   1.205   5.823   4.559  2.4673  0.4194  0.0418
  577MOL0     H77886   1.128   5.686   4.475 -0.3563 -0.3114 -1.9913
  577MOL0     H77887   1.368   5.597   4.405 -1.3812 -1.4483  2.2183
  577MOL0     H77888   1.372   5.655   4.575  0.2051  1.9257  0.9140
  577MOL0     H77889   1.446   5.883   4.503  0.1081  0.2949  1.0274
  577MOL0     H77890   1.459   5.835   4.341 -2.0765 -1.1166 -0.1332
  577MOL0     H77891   1.614   5.649   4.434  1.2613 -1.1137  0.8587
  577MOL0     H77892   1.586   5.721   4.594 -1.1378  1.5119 -0.4774
  577MOL0     H77893   1.887   5.969   4.473 -0.2838 -1.1023  0.9022
  577MOL0     H77894   0.960   5.752   4.234  0.5380  0.7593 -2.0905
  577MOL0     H77895   0.756   5.864   4.255  0.5023 -1.4271 -0.0246
  578MOL0     O77896   3.781   9.310   6.395  0.6316  0.0291 -0.4027
  578MOL0     C77897   3.779   9.186   6.395 -0.2357  0.2132  0.5627
  578MOL0     O77898   3.683   9.108   6.443  0.1550  0.6828  0.1440
  578MOL0     C77899   3.589   9.172   6.521 -0.2601 -0.8053  0.1472
  578MOL0     C77900   3.458   9.168   6.476 -0.4227 -0.1318 -0.3720
  578MOL0     C77901   3.352   9.204   6.554 -0.2855 -0.5663 -0.1786
  578MOL0     C77902   3.383   9.259   6.680  1.0271  0.5304  0.0260
  578MOL0     O77903   3.284   9.308   6.757 -0.0876  0.5995 -0.4398
  578MOL0     C77904   3.142   9.284   6.734  0.2662 -0.8546  0.2697
  578MOL0     C77905   3.081   9.275   6.868  0.6142 -0.1206  0.3405
  578MOL0     C77906   2.935   9.240   6.877 -0.1185 -0.1096  0.0864
  578MOL0     C77907   2.883   9.099   6.820  0.4939 -0.2423 -0.1902
  578MOL0     C77908   2.730   9.073   6.842 -0.6282 -0.2003  0.4873
  578MOL0     C77909   2.645   9.179   6.769  0.0397 -0.4157  0.2706
  578MOL0     C77910   2.492   9.140   6.768 -0.8861  0.2451 -0.3091
  578MOL0     C77911   2.422   9.240   6.670  0.4542  0.5292  0.3540
  578MOL0     N77912   2.284   9.204   6.650  0.4514 -0.8302  0.1646
  578MOL0     C77913   2.188   9.207   6.744  0.1091 -0.7180  0.2275
  578MOL0     C77914   2.088   9.137   6.688  0.1668  0.4948  1.1546
  578MOL0     C77915   1.956   9.112   6.759  0.1913  0.4340 -0.5419
  578MOL0     C77916   1.843   9.172   6.674 -0.3822  0.9636  0.0948
  578MOL0     C77917   1.717   9.180   6.761  0.7368 -0.4252 -0.0851
  578MOL0     C77918   1.599   9.261   6.690  0.0927  0.5548  0.2240
  578MOL0     O77919   1.583   9.208   6.560  0.0676  0.0826  0.6944
  578MOL0     C77920   1.456   9.221   6.503  0.2560 -0.1027 -0.1193
  578MOL0     C77921   1.367   9.333   6.523 -0.4130 -0.4812 -0.5828
  578MOL0     C77922   1.237   9.325   6.466 -0.1809 -0.7706  0.6124
  578MOL0     C77923   1.138   9.431   6.496  0.0862  0.2109  0.1818
  578MOL0     C77924   1.208   9.220   6.372 -0.0803 -0.2802 -0.0867
  578MOL0     C77925   1.079   9.195   6.302  0.8838  0.0320  0.2790
  578MOL0     O77926   1.009   9.296   6.255  0.3180 -0.6749  0.3422
  578MOL0     C77927   0.875   9.289   6.251  0.0921 -0.0862  0.0471
  578MOL0     C77928   0.814   9.412   6.248  0.2841 -0.3602 -0.5113
  578MOL0     C77929   0.678   9.430   6.218 -0.6401 -0.1544 -0.2507
  578MOL0     C77930   0.595   9.323   6.209 -0.1569  0.7046 -0.2878
  578MOL0     O77931   0.457   9.347   6.193  0.0236  0.7455  0.2729
  578MOL0     C77932   0.363   9.245   6.214 -0.0691  0.1696 -0.4621
  578MOL0     C77933   0.229   9.281   6.178 -0.0107  0.5347  0.3185
  578MOL0     C77934   0.133   9.162   6.213 -0.4880  0.2308 -0.5403
  578MOL0     C77935   0.154   9.086   6.341 -0.5059  0.6477 -0.0820
  578MOL0     C77936   0.034   8.994   6.379 -0.3861 -0.1216  0.2011
  578MOL0     C77937   0.078   8.898   6.489  0.6493 -0.1268 -0.1261
  578MOL0     C77938  -0.027   8.795   6.537 -0.5945 -0.4113  0.6327
  578MOL0     C77939   0.017   8.673   6.623 -0.7531  0.0910  0.2713
  578MOL0    Cl77940   0.098   8.746   6.771  0.0542  0.1337 -0.4768
  578MOL0     C77941   0.646   9.194   6.227 -0.2552 -0.4784 -0.4458
  578MOL0     C77942   0.785   9.177   6.239  0.1073  0.0453 -0.1792
  578MOL0     O77943   1.035   9.077   6.310  0.0620 -0.6815 -0.3567
  578MOL0     C77944   1.299   9.118   6.356  0.0246 -0.5104  0.0872
  578MOL0     C77945   1.416   9.114   6.426 -0.3499 -0.6833 -0.4041
  578MOL0     N77946   2.124   9.100   6.560  1.0655  0.6142 -0.3226
  578MOL0     N77947   2.238   9.145   6.538  0.3368  0.2076  0.3635
  578MOL0     C77948   3.514   9.271   6.728  0.2439 -0.0637  0.2511
  578MOL0     C77949   3.619   9.222   6.645 -0.1171 -0.2013 -0.8554
  578MOL0     C77950   3.900   9.128   6.331  0.4012  0.4749  0.9232
  578MOL0     C77951   3.948   9.183   6.208 -0.9147 -0.6722  0.7326
  578MOL0     C77952   4.067   9.139   6.153 -0.5561 -0.8734 -0.2732
  578MOL0     C77953   4.129   9.026   6.202  0.3944 -0.3180 -0.0453
  578MOL0     O77954   4.244   8.976   6.149  0.2589 -0.3878  0.5709
  578MOL0     C77955   4.286   9.018   6.019 -1.2469 -0.2102 -0.3018
  578MOL0     C77956   4.422   8.949   5.993  0.3571  0.4803 -0.6798
  578MOL0     C77957   4.525   9.001   6.092 -0.0646  0.0561  0.0890
  578MOL0     C77958   4.668   9.029   6.039 -0.0396  0.1978 -0.4324
  578MOL0     C77959   4.726   8.923   5.951 -0.6293 -0.7313 -0.0733
  578MOL0     C77960   4.790   8.843   5.886 -0.2215 -0.7498 -0.0074
  578MOL0     C77961   4.078   8.966   6.315 -0.0619  1.1452  0.3306
  578MOL0     C77962   3.964   9.012   6.386 -0.3125 -0.5770  0.3478
  578MOL0     H77963   3.448   9.123   6.378  1.3482 -0.4231 -0.4362
  578MOL0     H77964   3.253   9.209   6.511 -0.0761  2.1777 -0.4703
  578MOL0     H77965   3.109   9.374   6.681  1.1546 -0.3185  0.5897
  578MOL0     H77966   3.127   9.193   6.676  0.3644 -1.1729  0.7401
  578MOL0     H77967   3.130   9.206   6.937  1.6026  1.5280  1.3594
  578MOL0     H77968   3.096   9.373   6.914  0.5987 -0.2435  0.6070
  578MOL0     H77969   2.913   9.238   6.984  0.3325 -3.1506  0.2299
  578MOL0     H77970   2.879   9.322   6.832 -3.1534 -1.5983  0.8580
  578MOL0     H77971   2.905   9.085   6.713  0.7525  1.4593 -0.3849
  578MOL0     H77972   2.929   9.011   6.867  0.2115 -0.1349  0.2862
  578MOL0     H77973   2.703   8.976   6.800 -3.7699  1.1272 -0.8892
  578MOL0     H77974   2.712   9.068   6.949  0.0531 -1.2234  0.5607
  578MOL0     H77975   2.657   9.277   6.818  0.3960 -0.6019  0.5622
  578MOL0     H77976   2.691   9.192   6.670  0.3957 -2.4664  0.1241
  578MOL0     H77977   2.472   9.040   6.728 -1.6070  0.1559  0.2500
  578MOL0     H77978   2.449   9.154   6.867  2.0974 -0.0290  1.0969
  578MOL0     H77979   2.486   9.230   6.582  2.4624  1.3417  1.6501
  578MOL0     H77980   2.427   9.342   6.710 -2.3897  1.3224 -1.0515
  578MOL0     H77981   2.198   9.257   6.840  0.6416  1.0255 -0.6812
  578MOL0     H77982   1.939   9.005   6.776 -0.6353  0.5798 -0.3996
  578MOL0     H77983   1.955   9.162   6.856  2.0273 -1.4676  0.5331
  578MOL0     H77984   1.827   9.095   6.598  0.2227 -1.9153  2.6754
  578MOL0     H77985   1.882   9.262   6.626  1.7912 -0.4107 -0.8855
  578MOL0     H77986   1.738   9.231   6.855  0.9872  2.5404 -1.6223
  578MOL0     H77987   1.686   9.076   6.777 -0.1378 -0.2298 -0.4740
  578MOL0     H77988   1.626   9.365   6.668 -0.5790  0.1615 -2.9155
  578MOL0     H77989   1.506   9.253   6.748 -0.6153  3.0855 -0.4266
  578MOL0     H77990   1.394   9.416   6.587 -0.1168 -2.6999  2.3623
  578MOL0     H77991   1.043   9.384   6.524  0.4870 -1.8610 -1.6233
  578MOL0     H77992   1.178   9.491   6.578  0.1056 -3.2986  2.9974
  578MOL0     H77993   1.124   9.497   6.409  1.0795  0.8403  0.4861
  578MOL0     H77994   0.873   9.502   6.247 -3.0648  2.0182 -1.7294
  578MOL0     H77995   0.631   9.527   6.209  1.3108  1.2309  2.8126
  578MOL0     H77996   0.390   9.155   6.158 -2.5482 -0.1215 -1.3310
  578MOL0     H77997   0.368   9.219   6.320  0.2669 -1.2751 -0.8123
  578MOL0     H77998   0.208   9.371   6.236  0.7767  3.0779 -2.9665
  578MOL0     H77999   0.224   9.301   6.070  1.7169 -3.0523 -0.5810
  578MOL0     H78000   0.133   9.090   6.130 -2.1394 -3.5487  2.3901
  578MOL0     H78001   0.034   9.207   6.222  0.3767  1.8746  1.5415
  578MOL0     H78002   0.242   9.020   6.336 -0.7580  0.3894 -1.8263
  578MOL0     H78003   0.180   9.149   6.426 -0.6401  1.5124 -0.6723
  578MOL0     H78004  -0.000   8.950   6.285  0.9499 -0.2044 -0.2693
  578MOL0     H78005  -0.047   9.057   6.418 -0.0553  1.7455 -1.8829
  578MOL0     H78006   0.180   8.866   6.464  1.0938  1.9730 -1.2307
  578MOL0     H78007   0.093   8.963   6.575 -1.8353  0.1047  0.2022
  578MOL0     H78008  -0.083   8.769   6.447  0.9063  2.4314 -1.2676
  578MOL0     H78009  -0.100   8.853   6.594 -0.7312 -0.2611  0.3083
  578MOL0     H78010   0.090   8.613   6.568  1.2661  2.7507 -0.1761
  578MOL0     H78011  -0.070   8.615   6.654  0.1702 -0.0741  2.7120
  578MOL0     H78012   0.587   9.104   6.214  1.8471 -1.4907 -5.6972
  578MOL0     H78013   0.812   9.071   6.236 -0.0887  0.0167 -1.6508
  578MOL0     H78014   1.278   9.041   6.282 -2.1188 -0.0834  0.1867
  578MOL0     H78015   1.482   9.030   6.408 -0.6437 -1.2189  0.8693
  578MOL0     H78016   3.538   9.282   6.833 -0.9007  2.1842  0.3402
  578MOL0     H78017   3.717   9.205   6.689 -0.8081 -1.2654  0.3774
  578MOL0     H78018   3.898   9.267   6.161  1.0724  0.0719 -0.1300
  578MOL0     H78019   4.100   9.191   6.064 -0.5490 -0.6771 -0.1560
  578MOL0     H78020   4.207   8.995   5.947 -2.5135  0.2613  0.8827
  578MOL0     H78021   4.298   9.127   6.026  2.3100 -0.5312  0.0617
  578MOL0     H78022   4.463   8.969   5.894  1.9035 -3.7186 -1.0850
  578MOL0     H78023   4.408   8.841   5.998  2.1474  0.2323 -0.0954
  578MOL0     H78024   4.545   8.917   6.160 -0.9364  0.7985  1.2915
  578MOL0     H78025   4.502   9.095   6.142  0.4635  0.0470  0.3505
  578MOL0     H78026   4.733   9.046   6.126  0.4073  1.9679 -1.0584
  578MOL0     H78027   4.657   9.127   5.992 -1.7859 -1.3087 -3.3928
  578MOL0     H78028   4.817   8.760   5.825  1.0303 -1.8735  1.9554
  578MOL0     H78029   4.134   8.881   6.352  0.1706  1.3885  0.5373
  578MOL0     H78030   3.924   8.976   6.480  1.0269  0.6793  1.4407
  579MOL0     O78031   1.320   9.896   5.096  0.1560 -0.1350  0.4189
  579MOL0     C78032   1.375   9.940   5.197 -0.1028 -0.1571 -0.3598
  579MOL0     O78033   1.326  10.038   5.274 -0.0508 -0.3111  0.0756
  579MOL0     C78034   1.217  10.109   5.237 -0.0581 -0.2672 -0.0238
  579MOL0     C78035   1.193  10.148   5.100  0.3618 -0.5150  0.0005
  579MOL0     C78036   1.079  10.222   5.072  0.6901  0.0341  0.0751
  579MOL0     C78037   0.996  10.278   5.166  0.6669 -0.4429  0.5479
  579MOL0     O78038   0.893  10.365   5.137  0.4978  0.5449  0.0391
  579MOL0     C78039   0.846  10.397   5.003 -0.1329 -0.6372 -0.2517
  579MOL0     C78040   0.732  10.501   5.009  0.5234  0.5617 -0.5977
  579MOL0     C78041   0.609  10.419   5.067  0.2353  0.6343  1.0094
  579MOL0     C78042   0.496  10.510   5.086 -0.4267 -0.4434  0.6754
  579MOL0     C78043   0.503  10.600   5.206 -0.5007 -0.0276  0.1309
  579MOL0     C78044   0.378  10.683   5.232  0.2824  0.4309  0.2385
  579MOL0     C78045   0.382  10.745   5.369  0.4598 -0.1143 -0.6246
  579MOL0     C78046   0.266  10.846   5.392  0.2570  1.0798 -0.0808
  579MOL0     N78047   0.126  10.798   5.383 -0.7578  0.1014  0.1569
  579MOL0     C78048   0.066  10.694   5.451  0.4861 -0.2853  0.0503
  579MOL0     C78049  -0.065  10.702   5.436  0.1511  0.0102 -0.0589
  579MOL0     C78050  -0.159  10.616   5.504  1.7247  0.3528  0.1531
  579MOL0     C78051  -0.236  10.706   5.605  0.0183  0.3910  0.1462
  579MOL0     C78052  -0.344  10.620   5.689 -1.3744  0.6945  0.1026
  579MOL0     C78053  -0.431  10.700   5.777 -0.9795  0.7143  0.7808
  579MOL0     O78054  -0.526  10.606   5.828 -0.3558 -0.1486 -0.5180
  579MOL0     C78055  -0.591  10.647   5.938  0.1256 -0.5237 -0.3734
  579MOL0     C78056  -0.587  10.772   6.000 -0.1127 -0.0591 -0.6148
  579MOL0     C78057  -0.647  10.793   6.122 -0.1336 -0.8435 -0.7502
  579MOL0     C78058  -0.620  10.932   6.167 -0.3579 -0.8775  0.1024
  579MOL0     C78059  -0.735  10.702   6.181  0.5884  1.0748  0.1575
  579MOL0     C78060  -0.824  10.715   6.301 -0.2944 -0.3746 -0.6612
  579MOL0     O78061  -0.894  10.607   6.341 -0.0013  0.4725 -0.2092
  579MOL0     C78062  -0.991  10.604   6.444  0.4601  0.0951 -0.0468
  579MOL0     C78063  -1.074  10.711   6.473  0.3084 -0.6734  0.2725
  579MOL0     C78064  -1.185  10.698   6.549 -0.0987  0.2578 -0.0990
  579MOL0     C78065  -1.216  10.577   6.614  0.3595 -0.6333  0.1420
  579MOL0     O78066  -1.323  10.595   6.695  0.1972  0.3774  0.4521
  579MOL0     C78067  -1.297  10.541   6.822  0.5737  0.9395  0.7444
  579MOL0     C78068  -1.408  10.581   6.922  0.0295  0.2156  0.1354
  579MOL0     C78069  -1.548  10.559   6.864 -1.5790 -0.2190 -0.6328
  579MOL0     C78070  -1.649  10.528   6.981  0.2042 -0.3814  0.3965
  579MOL0     C78071  -1.764  10.629   6.979 -0.1548  0.7258  0.3466
  579MOL0     C78072  -1.858  10.599   7.100 -0.2131 -0.7332  1.1049
  579MOL0     C78073  -1.984  10.684   7.106  0.2717  0.0090  0.9231
  579MOL0     C78074  -2.106  10.629   7.030 -0.2718  0.7927  1.2016
  579MOL0    Cl78075  -2.259  10.742   7.030 -0.3661 -0.1277 -0.7323
  579MOL0     C78076  -1.143  10.462   6.581 -0.4289  0.3875 -0.1120
  579MOL0     C78077  -1.033  10.479   6.500  0.1665 -0.9640  0.7724
  579MOL0     O78078  -0.830  10.825   6.357  0.1434 -0.0301  0.0706
  579MOL0     C78079  -0.751  10.579   6.111  0.1081 -0.2713 -0.5634
  579MOL0     C78080  -0.674  10.553   6.000  0.6191 -0.0203 -0.0384
  579MOL0     N78081  -0.079  10.820   5.356  0.6434 -1.0630 -0.5721
  579MOL0     N78082   0.036  10.878   5.333  0.1446  0.2920 -0.4784
  579MOL0     C78083   1.019  10.245   5.297 -0.2064  0.1104 -0.3419
  579MOL0     C78084   1.122  10.161   5.336 -0.0666  0.0179  0.4027
  579MOL0     C78085   1.489   9.870   5.262  0.0771  0.0669 -0.4885
  579MOL0     C78086   1.556   9.777   5.178  1.3003 -1.0756  0.0504
  579MOL0     C78087   1.679   9.718   5.217  0.0821 -0.2050 -0.2499
  579MOL0     C78088   1.739   9.757   5.340 -0.3681  0.0017 -1.1246
  579MOL0     O78089   1.847   9.682   5.370 -0.2879  0.1241  0.3837
  579MOL0     C78090   1.931   9.719   5.479  0.2177  0.9778  0.0556
  579MOL0     C78091   2.064   9.627   5.503  0.5223 -0.4002  0.0264
  579MOL0     C78092   2.134   9.609   5.374 -1.0917  0.1827  0.0811
  579MOL0     C78093   2.249   9.513   5.383  0.1817  0.5300 -0.3969
  579MOL0     C78094   2.315   9.497   5.256 -0.6259  0.6911  0.0790
  579MOL0     C78095   2.396   9.471   5.165  0.2758  0.3619 -0.8038
  579MOL0     C78096   1.667   9.836   5.428  0.3272 -0.4235  0.6307
  579MOL0     C78097   1.543   9.893   5.390  0.2121  0.1763 -0.0867
  579MOL0     H78098   1.249  10.119   5.012 -2.3457  0.5543 -2.2238
  579MOL0     H78099   1.061  10.251   4.969 -0.1272  1.8976  0.6978
  579MOL0     H78100   0.940  10.436   4.961 -0.0852 -2.5285 -2.0320
  579MOL0     H78101   0.819  10.307   4.947 -0.9285 -0.5916  0.0414
  579MOL0     H78102   0.758  10.579   5.081 -1.3859  1.5698 -0.9275
  579MOL0     H78103   0.705  10.548   4.914 -0.7391  0.3707 -0.3534
  579MOL0     H78104   0.577  10.338   5.001 -0.4076  1.0469  0.8125
  579MOL0     H78105   0.630  10.377   5.166 -2.1529 -0.5585  1.0751
  579MOL0     H78106   0.490  10.565   4.991 -0.7462  1.1893  1.5986
  579MOL0     H78107   0.403  10.452   5.093 -2.6109  2.1228 -3.1184
  579MOL0     H78108   0.521  10.543   5.297  0.2123  0.9756  0.6441
  579MOL0     H78109   0.590  10.666   5.193  0.7870 -1.9769 -2.0977
  579MOL0     H78110   0.380  10.758   5.153  3.3143  1.7611  1.3937
  579MOL0     H78111   0.288  10.621   5.222  0.0263  0.9597 -0.9455
  579MOL0     H78112   0.388  10.665   5.443 -3.6433  0.0830  0.1647
  579MOL0     H78113   0.475  10.803   5.368  0.4135 -0.0066  0.2922
  579MOL0     H78114   0.285  10.915   5.309 -0.4023  4.0416  2.0610
  579MOL0     H78115   0.291  10.887   5.490  1.8361  2.3052 -0.9430
  579MOL0     H78116   0.110  10.615   5.511 -1.2869 -0.7108  0.8659
  579MOL0     H78117  -0.232  10.588   5.427  1.1220  0.3335  0.7259
  579MOL0     H78118  -0.128  10.522   5.551  0.5496  0.7094  1.7315
  579MOL0     H78119  -0.290  10.783   5.549 -2.0210 -1.2813 -0.2855
  579MOL0     H78120  -0.164  10.742   5.679 -1.1467  0.2043  1.4205
  579MOL0     H78121  -0.272  10.558   5.743 -1.1416 -0.2386 -1.2082
  579MOL0     H78122  -0.401  10.556   5.621  0.9434  0.1816 -1.4768
  579MOL0     H78123  -0.479  10.779   5.719 -0.0581 -1.6438 -3.6773
  579MOL0     H78124  -0.365  10.749   5.849 -0.9887  0.8870  0.6735
  579MOL0     H78125  -0.535  10.856   5.955 -0.9324  0.0535 -1.3982
  579MOL0     H78126  -0.549  10.929   6.250 -1.0038 -1.1210  0.6573
  579MOL0     H78127  -0.578  11.003   6.094  2.2578  0.8410  3.0142
  579MOL0     H78128  -0.715  10.974   6.203  0.4641 -0.6522  2.1346
  579MOL0     H78129  -1.070  10.812   6.433  4.3899 -0.8384 -0.0945
  579MOL0     H78130  -1.245  10.784   6.577  1.8317  1.4043  0.7693
  579MOL0     H78131  -1.293  10.432   6.819 -1.5464  0.8384 -0.1780
  579MOL0     H78132  -1.201  10.579   6.858  1.7461  0.8244 -1.9993
  579MOL0     H78133  -1.387  10.526   7.014  0.4251  2.5848  1.5466
  579MOL0     H78134  -1.407  10.686   6.951 -1.5222 -0.1983  1.8678
  579MOL0     H78135  -1.545  10.484   6.784 -0.3387 -0.6368 -0.2196
  579MOL0     H78136  -1.569  10.653   6.812 -2.0426 -0.8009 -1.5122
  579MOL0     H78137  -1.682  10.425   6.967  0.5414 -0.6270  1.3544
  579MOL0     H78138  -1.608  10.540   7.081 -0.2966 -1.1934  0.7098
  579MOL0     H78139  -1.820  10.634   6.886  0.3129  3.6835  0.1304
  579MOL0     H78140  -1.722  10.729   6.990 -0.0661  0.8625 -1.1639
  579MOL0     H78141  -1.895  10.496   7.108  0.5853 -0.9611  1.8837
  579MOL0     H78142  -1.801  10.617   7.191 -1.2975 -0.1041  1.6889
  579MOL0     H78143  -1.959  10.782   7.064 -1.3284  0.7983  1.7482
  579MOL0     H78144  -2.019  10.703   7.208 -0.8656 -0.1895  0.5828
  579MOL0     H78145  -2.129  10.532   7.074  2.6888 -0.3489  0.5089
  579MOL0     H78146  -2.067  10.620   6.928 -0.7560 -1.4867  1.1869
  579MOL0     H78147  -1.166  10.368   6.631 -2.8693  2.4032  2.9809
  579MOL0     H78148  -0.975  10.390   6.478  0.5633 -0.1509 -1.8545
  579MOL0     H78149  -0.825  10.505   6.141 -1.6613  2.4445  2.4319
  579MOL0     H78150  -0.669  10.453   5.958  2.0690 -1.1216  2.5241
  579MOL0     H78151   0.951  10.291   5.369 -2.8127  0.2432 -2.7101
  579MOL0     H78152   1.144  10.130   5.438  3.2999  2.5184  0.6177
  579MOL0     H78153   1.511   9.762   5.080 -1.8581  3.0091  0.5711
  579MOL0     H78154   1.715   9.647   5.144  2.9158  2.9043 -2.1365
  579MOL0     H78155   1.962   9.824   5.473  0.2114  0.9814  0.0930
  579MOL0     H78156   1.869   9.708   5.569  0.2081 -2.3148 -0.2235
  579MOL0     H78157   2.009   9.542   5.545 -0.1446 -1.6904 -3.1758
  579MOL0     H78158   2.126   9.669   5.582  1.1973 -0.3979 -0.4985
  579MOL0     H78159   2.155   9.709   5.337 -2.8925  1.4508  2.2165
  579MOL0     H78160   2.063   9.572   5.300 -0.7556  3.1167 -1.8451
  579MOL0     H78161   2.214   9.414   5.415  0.3691  1.4314  2.9595
  579MOL0     H78162   2.323   9.548   5.455  1.1010 -2.6124  0.3389
  579MOL0     H78163   2.459   9.419   5.095 -0.2921 -1.0591 -0.3071
  579MOL0     H78164   1.710   9.869   5.522 -2.9225  4.1336  0.8941
  579MOL0     H78165   1.492   9.958   5.461  0.1155 -0.4315  0.4123
  580MOL0     O78166   8.440   1.198   2.605 -0.2409 -0.1707 -0.0326
  580MOL0     C78167   8.475   1.232   2.495  0.4125 -0.3663 -0.2387
  580MOL0     O78168   8.402   1.215   2.385  0.2684  0.3289  1.0595
  580MOL0     C78169   8.283   1.129   2.391 -0.7648 -0.1164 -0.4009
  580MOL0     C78170   8.180   1.154   2.488 -0.4293  0.4368 -0.0307
  580MOL0     C78171   8.060   1.075   2.479 -1.0311  0.0533 -0.1777
  580MOL0     C78172   8.057   0.964   2.405  0.1294  0.4957 -0.0253
  580MOL0     O78173   7.953   0.870   2.413 -0.7828  0.3622  0.3864
  580MOL0     C78174   7.948   0.793   2.536  0.3198 -0.2427 -0.8650
  580MOL0     C78175   7.845   0.682   2.512  0.8979 -0.6255 -0.1002
  580MOL0     C78176   7.863   0.569   2.610  0.1579 -0.4501 -0.3658
  580MOL0     C78177   7.771   0.449   2.599 -0.0923 -0.6683 -0.0304
  580MOL0     C78178   7.834   0.308   2.638  0.1084  0.4950  0.6005
  580MOL0     C78179   7.711   0.215   2.662  0.9485 -0.0667 -0.4201
  580MOL0     C78180   7.755   0.078   2.718 -0.5953  0.5323  0.1017
  580MOL0     C78181   7.635  -0.008   2.760  0.2258  0.2867  0.1886
  580MOL0     N78182   7.540  -0.031   2.652 -0.6276 -0.0261  0.6370
  580MOL0     C78183   7.397  -0.049   2.659  0.4291 -0.2477  0.2151
  580MOL0     C78184   7.357  -0.086   2.538 -0.4872  0.0550  0.2272
  580MOL0     C78185   7.216  -0.124   2.487  0.0204 -0.2833  1.2554
  580MOL0     C78186   7.212  -0.189   2.345 -0.2231 -0.3430  0.2001
  580MOL0     C78187   7.070  -0.206   2.289 -0.4915 -0.5681 -0.4862
  580MOL0     C78188   7.000  -0.072   2.259  0.2030  0.8219  0.7264
  580MOL0     O78189   6.889  -0.039   2.340 -1.0774 -0.0365 -0.1956
  580MOL0     C78190   6.762  -0.088   2.337 -0.4033 -0.1240 -0.0205
  580MOL0     C78191   6.672  -0.037   2.425 -0.1140  0.0407 -0.4996
  580MOL0     C78192   6.530  -0.074   2.418  0.5404  0.6763 -0.0728
  580MOL0     C78193   6.433  -0.008   2.518  0.0232 -0.5087 -0.1426
  580MOL0     C78194   6.487  -0.169   2.315  0.1633 -0.7809 -0.6265
  580MOL0     C78195   6.345  -0.195   2.279  0.2201  0.3881 -0.1587
  580MOL0     O78196   6.252  -0.120   2.340  0.4164 -0.1935  0.3943
  580MOL0     C78197   6.106  -0.141   2.332 -0.2389  0.3882 -0.2550
  580MOL0     C78198   6.021  -0.059   2.410  0.1057 -0.1769  0.4632
  580MOL0     C78199   5.882  -0.080   2.403 -0.8636  0.2543 -0.1942
  580MOL0     C78200   5.824  -0.180   2.325  0.7343 -0.7761 -0.0650
  580MOL0     O78201   5.690  -0.220   2.335 -0.1026  0.0780  0.0039
  580MOL0     C78202   5.600  -0.144   2.409  0.2781 -0.6493  0.2052
  580MOL0     C78203   5.471  -0.216   2.394  0.1270 -0.1325  0.0842
  580MOL0     C78204   5.355  -0.141   2.458  0.6604  0.1535  0.0068
  580MOL0     C78205   5.224  -0.153   2.376 -0.3801  0.0763  0.2952
  580MOL0     C78206   5.131  -0.037   2.412 -0.2503 -0.5783 -0.2254
  580MOL0     C78207   5.002  -0.037   2.328 -0.3145 -0.1441 -0.3207
  580MOL0     C78208   4.882   0.013   2.412  0.2929 -0.7148  0.1291
  580MOL0     C78209   4.758   0.006   2.331  0.7052 -0.2343 -0.0916
  580MOL0    Cl78210   4.761   0.120   2.195 -0.0291 -0.1022  0.0068
  580MOL0     C78211   5.906  -0.260   2.249 -0.0347 -1.0093  0.1565
  580MOL0     C78212   6.047  -0.238   2.250  0.0995 -0.0235  0.5498
  580MOL0     O78213   6.328  -0.293   2.204 -0.3632  0.4860  0.2235
  580MOL0     C78214   6.591  -0.225   2.239  0.1652  0.2209 -0.0389
  580MOL0     C78215   6.727  -0.191   2.250 -0.2247 -0.1488 -0.2805
  580MOL0     N78216   7.471  -0.082   2.457  0.0067  0.6861 -0.1337
  580MOL0     N78217   7.580  -0.057   2.526 -0.0694  0.3918 -0.0008
  580MOL0     C78218   8.162   0.935   2.315 -1.0163 -0.2538  0.1989
  580MOL0     C78219   8.271   1.024   2.293  0.1017  0.3981 -0.5052
  580MOL0     C78220   8.605   1.299   2.497  0.3696 -0.0061  0.6038
  580MOL0     C78221   8.643   1.367   2.376  0.1911 -0.4162  0.2254
  580MOL0     C78222   8.768   1.439   2.362 -0.2033  0.2001 -0.0298
  580MOL0     C78223   8.851   1.448   2.470 -0.0718 -0.8374 -0.2854
  580MOL0     O78224   8.951   1.537   2.462 -0.0230  0.4888  0.1100
  580MOL0     C78225   9.063   1.522   2.544  1.0131 -1.1992 -0.4639
  580MOL0     C78226   9.185   1.608   2.511  0.3167  0.6347  0.0076
  580MOL0     C78227   9.306   1.555   2.581  0.2793  0.8609  0.4877
  580MOL0     C78228   9.431   1.631   2.549 -0.3541  0.3112 -0.0766
  580MOL0     C78229   9.542   1.601   2.639 -0.9562 -0.3849  0.1313
  580MOL0     C78230   9.635   1.571   2.711 -0.7159  0.4815 -0.6879
  580MOL0     C78231   8.813   1.378   2.592 -0.4466  0.6748  0.1742
  580MOL0     C78232   8.689   1.312   2.604 -0.0351 -0.2250  0.7903
  580MOL0     H78233   8.194   1.232   2.562  0.6308  0.5988 -0.3803
  580MOL0     H78234   7.988   1.098   2.557  1.6851 -1.4683  3.0686
  580MOL0     H78235   8.042   0.748   2.568 -0.1102 -1.6163 -1.4295
  580MOL0     H78236   7.918   0.843   2.628  1.4089 -3.5636  1.4594
  580MOL0     H78237   7.741   0.714   2.519  0.4507 -1.9246 -0.4725
  580MOL0     H78238   7.856   0.646   2.409 -1.1862 -0.8846 -0.2714
  580MOL0     H78239   7.966   0.539   2.586  1.0107  0.6287  1.6517
  580MOL0     H78240   7.865   0.609   2.712  0.0430 -1.0465 -0.1300
  580MOL0     H78241   7.693   0.474   2.671  0.5438  4.0600 -0.6393
  580MOL0     H78242   7.718   0.448   2.503 -2.9655  3.3485  1.2249
  580MOL0     H78243   7.905   0.271   2.564  3.3119  2.9362  2.2003
  580MOL0     H78244   7.900   0.331   2.722 -0.1264 -2.0324  1.5591
  580MOL0     H78245   7.647   0.268   2.733  2.8694  2.2369 -0.2696
  580MOL0     H78246   7.657   0.221   2.567  2.0561  0.6815 -1.0263
  580MOL0     H78247   7.811   0.029   2.637  2.7462 -0.7707  2.9168
  580MOL0     H78248   7.824   0.078   2.803  0.5729 -1.7000 -0.7538
  580MOL0     H78249   7.577   0.048   2.834  1.6157  2.1593 -0.0511
  580MOL0     H78250   7.682  -0.099   2.799  1.3148  0.9116  0.3781
  580MOL0     H78251   7.342  -0.044   2.752  1.6203 -3.5694  1.2114
  580MOL0     H78252   7.175  -0.198   2.557 -0.0574  0.0192  1.5350
  580MOL0     H78253   7.156  -0.033   2.484 -0.4310 -0.5871 -1.5941
  580MOL0     H78254   7.255  -0.289   2.358 -0.1333 -0.4049 -0.5448
  580MOL0     H78255   7.267  -0.130   2.271 -1.5856  0.7960  0.0642
  580MOL0     H78256   7.008  -0.248   2.369 -1.8306 -2.1255 -2.2310
  580MOL0     H78257   7.089  -0.276   2.207 -1.5870 -0.8580 -0.5128
  580MOL0     H78258   6.971  -0.071   2.153  1.7580 -0.1720  0.2645
  580MOL0     H78259   7.079   0.002   2.247  1.4241 -0.4786  0.5467
  580MOL0     H78260   6.699   0.042   2.494 -2.1347 -1.1684  1.8555
  580MOL0     H78261   6.352   0.049   2.471  0.2802 -1.3811 -1.6962
  580MOL0     H78262   6.384  -0.085   2.577  2.8973 -0.9796  1.8373
  580MOL0     H78263   6.482   0.064   2.585 -1.9338  1.8381 -1.0824
  580MOL0     H78264   6.059   0.022   2.471  0.0293  0.4233 -0.2682
  580MOL0     H78265   5.816  -0.021   2.466 -1.7500 -2.1477  1.2461
  580MOL0     H78266   5.624  -0.150   2.516 -0.4690 -3.5556  0.2740
  580MOL0     H78267   5.589  -0.038   2.382 -2.0508 -1.6411 -3.1783
  580MOL0     H78268   5.447  -0.241   2.291  0.1571  3.8553 -1.0426
  580MOL0     H78269   5.483  -0.313   2.445 -0.5958 -0.4124 -0.2671
  580MOL0     H78270   5.378  -0.035   2.469 -2.6979  0.9401  0.4267
  580MOL0     H78271   5.340  -0.174   2.562  0.7823  1.8660  0.6084
  580MOL0     H78272   5.240  -0.148   2.268 -4.2100  0.3965 -0.4062
  580MOL0     H78273   5.186  -0.253   2.398  1.1166 -1.1818 -2.3541
  580MOL0     H78274   5.187   0.056   2.400  0.2421 -0.5572  1.8948
  580MOL0     H78275   5.111  -0.052   2.518  1.5937 -1.1435  0.0906
  580MOL0     H78276   5.029   0.007   2.232 -0.9325 -1.1331 -0.9780
  580MOL0     H78277   4.976  -0.142   2.306 -3.5973  0.4969 -0.0474
  580MOL0     H78278   4.895   0.117   2.442 -2.1081 -0.1823 -0.5269
  580MOL0     H78279   4.879  -0.057   2.496  0.1998 -1.1910 -0.2602
  580MOL0     H78280   4.673   0.022   2.397  1.9480  0.9633  1.3020
  580MOL0     H78281   4.746  -0.094   2.289 -1.2362 -0.3455  0.6582
  580MOL0     H78282   5.860  -0.328   2.178  1.5477 -1.4511 -0.4881
  580MOL0     H78283   6.105  -0.296   2.179 -1.7188  0.1681 -1.1876
  580MOL0     H78284   6.571  -0.292   2.156 -1.1649  1.5816 -0.8596
  580MOL0     H78285   6.802  -0.236   2.186  1.5719  1.0256  0.9180
  580MOL0     H78286   8.156   0.853   2.244  3.3978 -0.4636 -0.1916
  580MOL0     H78287   8.347   1.002   2.220 -0.4326 -5.3478  0.1330
  580MOL0     H78288   8.577   1.388   2.292  1.2278  3.2411  0.1575
  580MOL0     H78289   8.785   1.516   2.287  1.8579  1.7275  1.8725
  580MOL0     H78290   9.036   1.530   2.650 -1.3533 -0.0411 -1.0834
  580MOL0     H78291   9.098   1.420   2.530  2.5442 -0.9105  0.9191
  580MOL0     H78292   9.169   1.712   2.539 -3.5153  0.4695 -1.0641
  580MOL0     H78293   9.204   1.606   2.403 -1.7175 -0.0245 -0.3776
  580MOL0     H78294   9.319   1.450   2.554 -0.4199  0.5968  1.1251
  580MOL0     H78295   9.292   1.555   2.689  1.9783 -2.6795  0.8293
  580MOL0     H78296   9.407   1.738   2.553 -0.9695  0.1530  0.9697
  580MOL0     H78297   9.470   1.608   2.450  2.0629 -0.1387  0.9089
  580MOL0     H78298   9.715   1.556   2.780  1.6724  2.9700 -2.6795
  580MOL0     H78299   8.883   1.374   2.674 -0.0368 -0.3731 -0.2136
  580MOL0     H78300   8.667   1.269   2.702 -0.1217 -0.0680  0.8392
  581MOL0     O78301  10.090   6.789   8.469  0.4074 -0.3215 -0.5959
  581MOL0     C78302  10.207   6.789   8.498  0.1059 -0.4031 -0.1110
  581MOL0     O78303  10.249   6.818   8.624  0.9893  0.3544 -0.2526
  581MOL0     C78304  10.172   6.903   8.697  0.4484 -0.0474 -0.7060
  581MOL0     C78305  10.042   6.876   8.735  0.3402 -0.3829  0.1194
  581MOL0     C78306   9.965   6.972   8.807 -0.6857  0.7589 -0.1059
  581MOL0     C78307  10.009   7.096   8.841 -0.4114  0.2795 -0.1890
  581MOL0     O78308   9.952   7.206   8.898  0.3011  0.6116  0.3195
  581MOL0     C78309   9.811   7.212   8.890 -0.9814  0.3695 -0.2008
  581MOL0     C78310   9.755   7.348   8.933 -0.7813  0.6800 -0.0795
  581MOL0     C78311   9.719   7.366   9.077 -0.3925 -0.1617  0.0086
  581MOL0     C78312   9.842   7.391   9.172  0.3025  1.0223  0.3423
  581MOL0     C78313   9.910   7.262   9.213 -0.3986  1.0869 -0.2966
  581MOL0     C78314  10.004   7.274   9.331  0.1640  0.7657  0.4337
  581MOL0     C78315   9.945   7.333   9.463 -0.9505 -0.0847  0.4782
  581MOL0     C78316  10.036   7.315   9.589  0.0208  0.1026 -0.0253
  581MOL0     N78317   9.942   7.321   9.699  0.2529  0.3770  1.0650
  581MOL0     C78318   9.869   7.437   9.726  0.1049  0.2429 -0.6440
  581MOL0     C78319   9.794   7.405   9.837 -0.0843  0.0929  1.0740
  581MOL0     C78320   9.702   7.496   9.914 -1.3051 -0.1835 -0.8809
  581MOL0     C78321   9.554   7.507   9.870 -0.3619  0.3694  0.5899
  581MOL0     C78322   9.492   7.599   9.977  0.4109 -0.0708 -1.2292
  581MOL0     C78323   9.340   7.610   9.969 -0.5866  0.3320 -0.1555
  581MOL0     O78324   9.283   7.635   9.840  0.5132  0.3728  0.0608
  581MOL0     C78325   9.146   7.655   9.833  0.3653  0.4910  0.0978
  581MOL0     C78326   9.087   7.729   9.727 -0.1480  1.1697 -0.2030
  581MOL0     C78327   8.953   7.760   9.734 -0.0521 -0.2135  0.1225
  581MOL0     C78328   8.917   7.869   9.635 -0.4576  0.4144  0.4345
  581MOL0     C78329   8.859   7.709   9.831  0.2399 -0.9495  0.4857
  581MOL0     C78330   8.714   7.740   9.831 -0.0297 -0.4226  0.0710
  581MOL0     O78331   8.644   7.732   9.946  0.0117 -0.0071  0.1340
  581MOL0     C78332   8.510   7.751   9.964  0.1829  0.0962 -0.2776
  581MOL0     C78333   8.417   7.723   9.861 -0.6964 -0.1783 -0.9295
  581MOL0     C78334   8.285   7.717   9.894 -0.8521 -0.3446  0.6110
  581MOL0     C78335   8.240   7.753  10.022  0.2655 -0.1501 -0.6102
  581MOL0     O78336   8.108   7.756  10.058 -0.3941  0.1957  0.0924
  581MOL0     C78337   8.007   7.736   9.960 -0.0938 -0.1892 -1.0029
  581MOL0     C78338   7.869   7.707  10.031 -0.0219  0.0254 -0.3086
  581MOL0     C78339   7.801   7.842  10.069 -0.0425  0.0351 -0.5787
  581MOL0     C78340   7.652   7.810  10.111 -0.6123 -0.2734  0.0187
  581MOL0     C78341   7.577   7.942  10.149 -1.1717  0.1405 -0.6178
  581MOL0     C78342   7.430   7.925  10.126 -0.5539  0.1740  0.8802
  581MOL0     C78343   7.363   8.049  10.190  0.6246 -0.6713 -0.3722
  581MOL0     C78344   7.208   8.056  10.150 -0.7560 -0.3314  0.1740
  581MOL0    Cl78345   7.121   8.163  10.254  0.5904  0.2473  0.5937
  581MOL0     C78346   8.335   7.795  10.121  0.0967  0.3815  0.2940
  581MOL0     C78347   8.463   7.778  10.094 -0.2634 -0.1687 -0.3697
  581MOL0     O78348   8.668   7.756   9.721  0.0935  0.0985  0.2563
  581MOL0     C78349   8.919   7.626   9.927 -0.1030  0.7401 -0.0663
  581MOL0     C78350   9.061   7.607   9.932  0.5023 -0.3888 -0.6163
  581MOL0     N78351   9.824   7.273   9.871  0.3258  0.0180  0.0866
  581MOL0     N78352   9.912   7.223   9.786  0.5884  0.8847 -0.9389
  581MOL0     C78353  10.142   7.126   8.798 -0.0119  0.0396 -0.2171
  581MOL0     C78354  10.220   7.030   8.732 -0.7215  0.2057  0.1430
  581MOL0     C78355  10.305   6.748   8.394 -0.0499  0.1575  0.2019
  581MOL0     C78356  10.266   6.714   8.268  0.0378 -0.6619  0.9422
  581MOL0     C78357  10.353   6.684   8.166 -0.2892  0.7592 -0.2403
  581MOL0     C78358  10.489   6.691   8.193  0.6540 -0.6382  0.2094
  581MOL0     O78359  10.587   6.672   8.099 -0.0039 -0.0236 -0.0791
  581MOL0     C78360  10.541   6.652   7.961  0.7855  0.3517 -0.5848
  581MOL0     C78361  10.514   6.497   7.941  0.3248 -0.2851 -0.0993
  581MOL0     C78362  10.441   6.474   7.807  0.0823 -0.4376  0.6537
  581MOL0     C78363  10.290   6.484   7.805  0.0047 -0.5699 -0.0676
  581MOL0     C78364  10.245   6.628   7.808 -0.0100  0.6055  0.1489
  581MOL0     C78365  10.215   6.748   7.806  0.0804  0.2900  0.4731
  581MOL0     C78366  10.543   6.733   8.315  0.5175  0.1686 -0.6512
  581MOL0     C78367  10.444   6.757   8.418 -0.5215 -0.4300 -0.3323
  581MOL0     H78368  10.002   6.776   8.720 -0.7141 -0.7125  4.0303
  581MOL0     H78369   9.865   6.940   8.833  0.0174 -0.1453  1.6164
  581MOL0     H78370   9.783   7.207   8.784 -1.8394  0.8570 -0.0035
  581MOL0     H78371   9.762   7.123   8.931 -1.2603  0.8785  0.5904
  581MOL0     H78372   9.836   7.413   8.900 -1.1117 -0.3978 -3.4263
  581MOL0     H78373   9.673   7.384   8.869  0.0043  0.3662 -1.2912
  581MOL0     H78374   9.661   7.460   9.079 -1.2745 -0.6850 -0.3956
  581MOL0     H78375   9.669   7.279   9.119  1.8404  0.0143  3.4210
  581MOL0     H78376   9.921   7.459   9.139  0.0387  0.2086 -2.2031
  581MOL0     H78377   9.798   7.443   9.258 -0.4119  1.4883 -0.2874
  581MOL0     H78378   9.828   7.192   9.234  1.0477  0.3163  3.8837
  581MOL0     H78379   9.966   7.223   9.128 -1.9210 -3.0201  0.3388
  581MOL0     H78380  10.037   7.174   9.357 -1.6351 -0.3332 -1.2068
  581MOL0     H78381  10.087   7.339   9.305  0.6428 -0.7022 -1.9782
  581MOL0     H78382   9.925   7.440   9.447 -1.1797 -0.0418  1.0307
  581MOL0     H78383   9.852   7.279   9.483 -0.4346 -1.2999 -0.2910
  581MOL0     H78384  10.110   7.395   9.598  1.9684 -1.4181 -1.5503
  581MOL0     H78385  10.079   7.215   9.576 -3.2834 -1.7702  1.8801
  581MOL0     H78386   9.871   7.527   9.666  1.5981 -0.4162 -1.6134
  581MOL0     H78387   9.707   7.456  10.016  0.7298 -1.7688 -1.5314
  581MOL0     H78388   9.753   7.592   9.910 -1.3298 -0.1415 -0.2509
  581MOL0     H78389   9.512   7.406   9.867  4.8923 -2.1592 -0.3262
  581MOL0     H78390   9.551   7.551   9.770  2.7188 -0.9878 -0.2271
  581MOL0     H78391   9.528   7.702   9.979  1.2171 -0.3555  0.5898
  581MOL0     H78392   9.514   7.564  10.078  2.4945  1.8798 -0.9361
  581MOL0     H78393   9.312   7.694  10.033 -1.1813 -0.0532  0.0924
  581MOL0     H78394   9.304   7.515  10.009  1.7540 -0.7745 -0.4685
  581MOL0     H78395   9.166   7.757   9.659  1.9887 -2.1373  0.6612
  581MOL0     H78396   8.886   7.960   9.687  0.6183 -0.0446  1.9408
  581MOL0     H78397   9.007   7.888   9.576 -1.7529  0.1612 -1.7376
  581MOL0     H78398   8.841   7.844   9.560 -1.7839  3.5483  0.5794
  581MOL0     H78399   8.450   7.685   9.765  2.0754 -1.4091  0.4041
  581MOL0     H78400   8.220   7.693   9.810 -2.5922  0.7805  1.5662
  581MOL0     H78401   8.001   7.829   9.903  1.0031  0.8152  0.4470
  581MOL0     H78402   8.032   7.657   9.888 -0.4094 -0.0266 -1.2920
  581MOL0     H78403   7.806   7.656   9.959 -0.0008 -3.7740  2.0840
  581MOL0     H78404   7.889   7.638  10.114  1.7100  0.7582 -0.0541
  581MOL0     H78405   7.791   7.913   9.987 -0.7110 -1.7914 -2.1336
  581MOL0     H78406   7.863   7.875  10.153  0.0484 -3.8160  1.0848
  581MOL0     H78407   7.603   7.761  10.027 -1.2944  2.1855 -1.0815
  581MOL0     H78408   7.655   7.737  10.193 -1.0786 -0.7958 -0.4196
  581MOL0     H78409   7.612   8.014  10.075  2.3543 -2.2131 -1.4837
  581MOL0     H78410   7.594   7.970  10.253  0.4427  1.5255 -1.2278
  581MOL0     H78411   7.409   7.919  10.019 -1.1785  0.7605  0.9656
  581MOL0     H78412   7.389   7.829  10.157  0.1255 -1.0454 -1.6752
  581MOL0     H78413   7.418   8.141  10.170 -1.3775  1.1863  2.0366
  581MOL0     H78414   7.375   8.031  10.297 -1.3764 -0.4009 -0.0620
  581MOL0     H78415   7.166   7.958  10.172  1.9447 -1.2366  1.7718
  581MOL0     H78416   7.197   8.090  10.046 -1.4055  2.0019  0.9469
  581MOL0     H78417   8.301   7.837  10.215 -0.3138  1.7245 -0.4248
  581MOL0     H78418   8.535   7.805  10.171  0.1952  0.7801 -1.1161
  581MOL0     H78419   8.869   7.577  10.010  3.0542  3.0824  3.5713
  581MOL0     H78420   9.090   7.560  10.025  2.6711  4.0512  1.2768
  581MOL0     H78421  10.187   7.222   8.820  1.5873 -0.4673 -1.1466
  581MOL0     H78422  10.323   7.061   8.713 -0.0751  0.4489  3.4286
  581MOL0     H78423  10.159   6.711   8.249 -0.1758  0.7263  1.7665
  581MOL0     H78424  10.315   6.677   8.065  1.5879 -1.8413 -0.8850
  581MOL0     H78425  10.463   6.724   7.934  1.5785  2.2075  1.7096
  581MOL0     H78426  10.629   6.687   7.905  0.6767  1.1898 -0.2561
  581MOL0     H78427  10.459   6.449   8.023 -0.7249 -0.4319 -0.8776
  581MOL0     H78428  10.612   6.451   7.925 -0.2036 -0.8437 -1.8746
  581MOL0     H78429  10.446   6.371   7.771 -3.7322 -0.2839 -0.8145
  581MOL0     H78430  10.488   6.535   7.729 -0.5214  1.2981  1.5931
  581MOL0     H78431  10.246   6.448   7.898 -1.6695  0.7675 -0.3026
  581MOL0     H78432  10.256   6.441   7.711  1.1402 -0.7442 -0.4231
  581MOL0     H78433  10.191   6.852   7.814 -1.9383  0.0933 -1.7897
  581MOL0     H78434  10.650   6.750   8.318  0.8015 -1.4596 -0.8827
  581MOL0     H78435  10.481   6.798   8.512  1.5015 -1.1286 -0.7669
  582MOL0     O78436   2.873   1.269   9.991  0.1882  0.6723  0.3340
  582MOL0     C78437   2.830   1.386  10.009 -0.0054 -0.7613  0.7262
  582MOL0     O78438   2.698   1.424  10.020  0.6538  0.3385 -0.4885
  582MOL0     C78439   2.604   1.325  10.020 -0.7876  0.0450  0.8089
  582MOL0     C78440   2.595   1.236  10.127 -0.5788  0.6107 -0.4769
  582MOL0     C78441   2.497   1.143  10.145 -0.0696  0.6594  0.1222
  582MOL0     C78442   2.400   1.137  10.048  0.3685 -0.1661 -0.2516
  582MOL0     O78443   2.297   1.047  10.044  0.2038 -0.0914 -0.4740
  582MOL0     C78444   2.278   0.955  10.154  0.0628  0.5572  0.4266
  582MOL0     C78445   2.159   0.869  10.113  0.0285  0.2895 -0.2019
  582MOL0     C78446   2.024   0.941  10.142  0.0926  0.5692  0.2352
  582MOL0     C78447   1.904   0.870  10.079  0.0087 -0.4203  0.7383
  582MOL0     C78448   1.770   0.923  10.129 -0.2983  0.3786 -0.9656
  582MOL0     C78449   1.656   0.874  10.054  0.2617  0.5799  0.5045
  582MOL0     C78450   1.600   0.745  10.115 -0.1862 -0.0907  0.0432
  582MOL0     C78451   1.489   0.699  10.013  0.5911 -0.9879 -0.3265
  582MOL0     N78452   1.442   0.559  10.034  0.5927 -0.8072  0.3263
  582MOL0     C78453   1.345   0.525  10.129  0.7949 -0.2710 -0.1017
  582MOL0     C78454   1.340   0.388  10.115  0.0210  0.6570 -0.1584
  582MOL0     C78455   1.250   0.286  10.188  0.1011 -1.1695 -0.4692
  582MOL0     C78456   1.129   0.264  10.089 -0.3270 -0.1126  0.4351
  582MOL0     C78457   0.998   0.211  10.153 -0.5616 -0.4277 -0.1026
  582MOL0     C78458   0.923   0.333  10.209  0.7082  0.0480 -0.1693
  582MOL0     O78459   0.856   0.405  10.089  0.1499  0.1703 -0.0568
  582MOL0     C78460   0.731   0.374  10.061  0.1991 -0.3776  0.0600
  582MOL0     C78461   0.695   0.393   9.921 -0.3116  0.1470  0.7752
  582MOL0     C78462   0.564   0.384   9.885 -0.5748 -0.0505  0.1542
  582MOL0     C78463   0.534   0.402   9.739  1.8814  0.0272  0.3668
  582MOL0     C78464   0.463   0.344   9.976  0.5465 -0.1858 -0.4860
  582MOL0     C78465   0.315   0.327   9.943 -0.4927  0.3330  0.0478
  582MOL0     O78466   0.253   0.261  10.044  0.0483  0.1112 -0.2321
  582MOL0     C78467   0.120   0.223  10.026 -0.3752  0.6656 -0.0304
  582MOL0     C78468   0.078   0.093   9.977  0.0312 -0.4423 -0.2700
  582MOL0     C78469  -0.062   0.066   9.963 -0.9116  0.3876 -0.4963
  582MOL0     C78470  -0.148   0.168   9.997  0.3830  0.1731  0.0149
  582MOL0     O78471  -0.281   0.145   9.970 -0.0420 -0.2579  0.0173
  582MOL0     C78472  -0.356   0.250   9.920  0.2587  0.1412  0.5023
  582MOL0     C78473  -0.498   0.200   9.894 -0.1504  0.1731  0.2149
  582MOL0     C78474  -0.570   0.145  10.019  0.3785 -0.6383 -0.5025
  582MOL0     C78475  -0.719   0.119   9.989  0.4496 -0.5089 -0.1861
  582MOL0     C78476  -0.788   0.256   9.989  0.0618 -0.4073  0.2899
  582MOL0     C78477  -0.799   0.322  10.127 -0.2174  0.5236  0.1952
  582MOL0     C78478  -0.860   0.470  10.104 -0.2497  0.7266  0.6615
  582MOL0     C78479  -0.747   0.573  10.094 -0.0893 -0.0520  0.0520
  582MOL0    Cl78480  -0.610   0.540   9.976  0.0909  0.1739  0.0760
  582MOL0     C78481  -0.107   0.296  10.038 -0.8257 -0.3188 -0.6410
  582MOL0     C78482   0.030   0.322  10.054 -0.2629  0.2620  0.2394
  582MOL0     O78483   0.262   0.369   9.848  0.6007  0.5364 -0.0148
  582MOL0     C78484   0.500   0.330  10.118  0.0242  0.0483 -0.2054
  582MOL0     C78485   0.637   0.340  10.162  0.2374 -0.5477 -0.2668
  582MOL0     N78486   1.418   0.353  10.002  0.7614  0.7314 -0.6298
  582MOL0     N78487   1.476   0.454   9.954  0.1267  0.0307  0.2298
  582MOL0     C78488   2.407   1.230   9.939  0.3268  0.4810 -0.5712
  582MOL0     C78489   2.507   1.326   9.927  0.7776  0.2752  0.0402
  582MOL0     C78490   2.927   1.501  10.026  0.1801 -0.4023  0.0411
  582MOL0     C78491   3.054   1.490  10.084 -0.0825 -0.3421 -0.4890
  582MOL0     C78492   3.133   1.601  10.119  1.3200 -0.5019  0.4163
  582MOL0     C78493   3.090   1.729  10.097 -0.3498  0.9766 -1.1879
  582MOL0     O78494   3.155   1.838  10.144 -0.1027 -0.2157  0.3461
  582MOL0     C78495   3.279   1.824  10.207 -0.1829  0.6249  0.3932
  582MOL0     C78496   3.368   1.961  10.219 -0.6398 -0.4319 -1.0389
  582MOL0     C78497   3.435   1.999  10.088  0.2896 -0.1248  0.0252
  582MOL0     C78498   3.532   2.109  10.115  0.1356 -0.1595 -0.3379
  582MOL0     C78499   3.640   2.078  10.207  0.2710 -0.5370  0.0751
  582MOL0     C78500   3.738   2.068  10.276  0.3879 -0.1874  0.7787
  582MOL0     C78501   2.961   1.745  10.038 -0.7104 -0.0181 -0.0900
  582MOL0     C78502   2.890   1.633   9.990  0.6025 -0.1331  0.1266
  582MOL0     H78503   2.668   1.236  10.207 -1.5660 -1.8201  0.5171
  582MOL0     H78504   2.506   1.066  10.221 -0.2809 -0.1602 -0.6609
  582MOL0     H78505   2.368   0.896  10.170 -0.0617  0.6831  1.6284
  582MOL0     H78506   2.250   0.995  10.252 -1.3867  0.9612 -0.1268
  582MOL0     H78507   2.175   0.849  10.007  2.3130 -4.5604  0.7785
  582MOL0     H78508   2.166   0.770  10.161 -0.9262 -0.0581 -0.7704
  582MOL0     H78509   2.006   0.935  10.250  0.9582  2.4987  0.5095
  582MOL0     H78510   2.028   1.044  10.106  1.1510  0.6313  0.5036
  582MOL0     H78511   1.913   0.888   9.971 -2.7301  1.1201  0.6576
  582MOL0     H78512   1.915   0.765  10.105  0.1765 -0.6824 -0.3266
  582MOL0     H78513   1.765   0.894  10.235 -2.2905 -1.2071 -1.4410
  582MOL0     H78514   1.767   1.033  10.126  0.5715  0.3741 -3.2750
  582MOL0     H78515   1.583   0.955  10.059  2.6156  2.7807  2.7819
  582MOL0     H78516   1.695   0.861   9.953  0.4469  1.5169  0.4449
  582MOL0     H78517   1.671   0.662  10.118 -3.2784 -3.0190 -1.4567
  582MOL0     H78518   1.568   0.763  10.218  2.5162 -0.1535  0.9662
  582MOL0     H78519   1.537   0.704   9.915  0.7308  0.3419 -0.2088
  582MOL0     H78520   1.403   0.766  10.017  1.0024 -0.5142  1.6349
  582MOL0     H78521   1.307   0.590  10.207 -0.9200 -1.2099 -0.1130
  582MOL0     H78522   1.305   0.192  10.201  2.1909 -0.1061 -1.1379
  582MOL0     H78523   1.211   0.321  10.284  0.9348  0.1418 -0.5884
  582MOL0     H78524   1.159   0.192  10.013  1.0145 -1.3577  2.0532
  582MOL0     H78525   1.104   0.362  10.047  0.1303 -0.1295  0.1195
  582MOL0     H78526   1.016   0.133  10.227  1.9574  1.1691  1.1033
  582MOL0     H78527   0.931   0.161  10.082  0.9705  0.1393 -2.0311
  582MOL0     H78528   0.999   0.397  10.253  2.6847 -2.6869  0.6529
  582MOL0     H78529   0.864   0.303  10.296  2.0334  1.2865  1.2153
  582MOL0     H78530   0.775   0.424   9.855  2.2526 -2.2749  2.4950
  582MOL0     H78531   0.463   0.482   9.718  2.0529  0.1400  0.2053
  582MOL0     H78532   0.623   0.434   9.683  1.6744  1.1081  0.6419
  582MOL0     H78533   0.494   0.316   9.684  0.5760 -0.2569  1.7106
  582MOL0     H78534   0.158   0.022   9.959  0.0602 -1.1852  2.3120
  582MOL0     H78535  -0.084  -0.030   9.917  0.6138 -1.1504  1.7640
  582MOL0     H78536  -0.366   0.335   9.989  1.0368  1.3575 -0.8291
  582MOL0     H78537  -0.315   0.284   9.825 -0.4817 -1.0451 -0.2649
  582MOL0     H78538  -0.557   0.279   9.846 -2.4896 -1.7743 -0.2967
  582MOL0     H78539  -0.484   0.119   9.821  0.0169  0.3823  0.0110
  582MOL0     H78540  -0.547   0.203  10.109  0.0794  0.4521 -1.1066
  582MOL0     H78541  -0.522   0.047  10.027  0.7369 -0.3323  1.5886
  582MOL0     H78542  -0.729   0.074   9.889 -2.8800 -0.8149  0.1878
  582MOL0     H78543  -0.762   0.046  10.058 -2.1273  0.3949 -0.7344
  582MOL0     H78544  -0.894   0.246   9.961  0.1973  0.7263 -0.7004
  582MOL0     H78545  -0.736   0.317   9.915 -2.2175  0.8837 -0.3360
  582MOL0     H78546  -0.865   0.266  10.193  2.5205 -0.9229  1.9209
  582MOL0     H78547  -0.704   0.332  10.180 -0.2584 -0.4629  0.4698
  582MOL0     H78548  -0.935   0.490  10.182 -2.4775 -0.9078 -0.9375
  582MOL0     H78549  -0.931   0.470  10.021 -0.4302 -0.6976  0.7938
  582MOL0     H78550  -0.697   0.588  10.189 -0.0252  2.0219 -0.2526
  582MOL0     H78551  -0.801   0.665  10.067 -1.8872 -1.2023 -0.4285
  582MOL0     H78552  -0.178   0.375  10.059  0.7250  0.9322  0.1671
  582MOL0     H78553   0.071   0.417  10.085  0.9963 -0.8477  2.1716
  582MOL0     H78554   0.435   0.304  10.201 -1.0308  2.1611 -0.2967
  582MOL0     H78555   0.654   0.334  10.269 -1.8808 -2.2420  0.0434
  582MOL0     H78556   2.325   1.217   9.869  2.1009 -2.7454 -2.2959
  582MOL0     H78557   2.491   1.399   9.849 -5.6414 -1.2055 -0.5919
  582MOL0     H78558   3.103   1.405  10.133  1.4899  0.0346 -1.3305
  582MOL0     H78559   3.224   1.572  10.171  1.4907  0.6939  0.8104
  582MOL0     H78560   3.261   1.787  10.308  0.7839  1.4713  0.8821
  582MOL0     H78561   3.347   1.756  10.154  1.1140  3.3194 -1.6294
  582MOL0     H78562   3.443   1.953  10.298 -0.4827  3.3425 -0.6232
  582MOL0     H78563   3.307   2.048  10.246  1.5326 -0.0488  3.4641
  582MOL0     H78564   3.367   2.042  10.014  1.1833 -0.6747 -1.1555
  582MOL0     H78565   3.479   1.913  10.035  2.6329  0.9241  0.1584
  582MOL0     H78566   3.480   2.186  10.173  2.1563  0.4259  0.7830
  582MOL0     H78567   3.570   2.156  10.024  0.6750  1.6104  0.7453
  582MOL0     H78568   3.814   2.056  10.351  0.8646 -0.9606  0.1844
  582MOL0     H78569   2.932   1.848  10.020 -2.8995 -1.0090 -2.9813
  582MOL0     H78570   2.796   1.656   9.941 -0.7474 -1.8781  1.7094
  583MOL0     O78571   9.726  11.054   4.053 -0.1498 -0.6321  0.5119
  583MOL0     C78572   9.665  10.950   4.024  0.7335 -0.3967  0.2044
  583MOL0     O78573   9.539  10.952   3.987 -0.3915 -0.1824 -0.6065
  583MOL0     C78574   9.461  11.061   3.970 -1.1648 -0.7929  0.1592
  583MOL0     C78575   9.326  11.022   3.949  0.5140  0.3640  0.4552
  583MOL0     C78576   9.233  11.121   3.948 -0.0794  0.5595  0.3956
  583MOL0     C78577   9.271  11.250   3.926 -0.2625 -0.8580  0.5948
  583MOL0     O78578   9.186  11.347   3.902 -0.1884  0.6142 -0.6063
  583MOL0     C78579   9.144  11.413   4.023  0.4188  0.1421  0.2153
  583MOL0     C78580   9.119  11.557   4.000  0.2338  0.0732 -0.2594
  583MOL0     C78581   9.071  11.621   4.139 -0.2876  0.1968  0.2731
  583MOL0     C78582   9.003  11.756   4.125  0.0322 -0.5612 -0.0501
  583MOL0     C78583   8.965  11.817   4.260 -0.4993  0.4924 -0.2107
  583MOL0     C78584   8.884  11.950   4.251 -0.2075 -0.1222 -0.1868
  583MOL0     C78585   8.875  12.003   4.399  0.0920 -0.0414  0.4848
  583MOL0     C78586   8.833  12.147   4.399  0.1157 -0.0791  0.7278
  583MOL0     N78587   8.771  12.197   4.522  0.4239  0.2061  0.0070
  583MOL0     C78588   8.678  12.134   4.593  0.5797  0.9128 -0.1489
  583MOL0     C78589   8.644  12.218   4.699  0.7676  0.0463  0.3935
  583MOL0     C78590   8.529  12.171   4.779  0.7442 -0.6485  0.5406
  583MOL0     C78591   8.454  12.279   4.859  0.1375 -0.3321  0.2148
  583MOL0     C78592   8.358  12.360   4.782 -0.3134  0.0371 -0.6670
  583MOL0     C78593   8.242  12.418   4.869 -0.0243  0.5690  0.1600
  583MOL0     O78594   8.141  12.477   4.787  1.1590 -0.5319 -0.4843
  583MOL0     C78595   8.012  12.500   4.841 -0.2899  0.1465  0.4751
  583MOL0     C78596   7.979  12.486   4.976  0.4463  0.2102  0.6465
  583MOL0     C78597   7.841  12.514   5.023 -0.2915  0.0347 -0.0948
  583MOL0     C78598   7.813  12.479   5.160  0.1097 -0.6634 -0.1605
  583MOL0     C78599   7.742  12.553   4.934 -0.0626  0.4591 -0.0906
  583MOL0     C78600   7.595  12.581   4.966 -0.4648  1.1476  0.5834
  583MOL0     O78601   7.544  12.573   5.094 -0.3872  0.3541 -0.1757
  583MOL0     C78602   7.409  12.556   5.107  0.1896  0.6947  0.5347
  583MOL0     C78603   7.359  12.432   5.079  0.0589 -0.3904  0.0789
  583MOL0     C78604   7.229  12.399   5.106 -0.6011 -0.4242  0.4334
  583MOL0     C78605   7.147  12.497   5.153 -0.3898  1.2772 -0.2187
  583MOL0     O78606   7.015  12.458   5.163  0.8441  0.2214 -0.3550
  583MOL0     C78607   6.915  12.566   5.172 -0.1838  1.0899 -0.6026
  583MOL0     C78608   6.784  12.494   5.191 -1.0727 -0.1000 -0.3349
  583MOL0     C78609   6.669  12.602   5.194  0.0693  0.1626 -0.2426
  583MOL0     C78610   6.548  12.520   5.232 -0.1230 -0.2410  0.3966
  583MOL0     C78611   6.423  12.599   5.282  0.0521 -0.6894  1.0392
  583MOL0     C78612   6.295  12.506   5.290 -0.2000 -0.4992  0.8063
  583MOL0     C78613   6.243  12.465   5.154 -0.2363  0.5748  0.3216
  583MOL0     C78614   6.169  12.335   5.161  0.1113  0.0791 -0.5221
  583MOL0    Cl78615   6.047  12.326   5.294  0.0264 -0.2951 -0.0609
  583MOL0     C78616   7.197  12.629   5.172  0.4503  0.1791 -0.1769
  583MOL0     C78617   7.331  12.654   5.150 -0.1988 -0.1726 -0.1092
  583MOL0     O78618   7.537  12.609   4.865  0.3011 -0.5291 -0.2763
  583MOL0     C78619   7.785  12.565   4.796  0.5474 -0.3384 -0.0308
  583MOL0     C78620   7.915  12.546   4.752 -0.1431  0.5554  1.0983
  583MOL0     N78621   8.736  12.321   4.704 -0.4245  0.4181  0.5373
  583MOL0     N78622   8.795  12.311   4.590 -0.3836 -0.0984  0.0358
  583MOL0     C78623   9.403  11.283   3.921  0.2440  0.6430 -0.3161
  583MOL0     C78624   9.506  11.192   3.950 -0.5968 -0.3072  0.1186
  583MOL0     C78625   9.738  10.822   4.042 -0.3026  0.3716  0.5591
  583MOL0     C78626   9.868  10.810   4.107 -0.2812  0.0035 -0.1401
  583MOL0     C78627   9.925  10.678   4.121 -1.1022  0.0238 -0.0289
  583MOL0     C78628   9.865  10.564   4.065 -1.2108 -0.3248  0.5493
  583MOL0     O78629   9.927  10.440   4.093  0.1866  0.2787  0.0801
  583MOL0     C78630   9.896  10.324   4.008 -0.4074  0.2503 -0.7897
  583MOL0     C78631   9.947  10.205   4.085 -0.0730  0.9796  0.4957
  583MOL0     C78632   9.901  10.078   4.020 -0.2434  0.0216  0.5910
  583MOL0     C78633  10.010   9.974   4.049 -0.3389  0.3408 -0.0604
  583MOL0     C78634  10.027   9.960   4.195  1.4810  0.0331 -0.2961
  583MOL0     C78635  10.021   9.950   4.311  0.8857 -1.0541 -0.2412
  583MOL0     C78636   9.748  10.578   3.997  0.0430 -0.3295  0.9911
  583MOL0     C78637   9.682  10.707   3.983  0.1550  0.2252 -0.4352
  583MOL0     H78638   9.283  10.923   3.964  1.0214 -0.1464 -1.2461
  583MOL0     H78639   9.132  11.090   3.975  0.1922 -0.1463  0.6227
  583MOL0     H78640   9.051  11.369   4.059  0.5206 -3.0773 -2.8798
  583MOL0     H78641   9.223  11.403   4.099  1.5520 -0.1341 -0.9682
  583MOL0     H78642   9.207  11.611   3.963 -1.7472  3.0687 -0.9163
  583MOL0     H78643   9.041  11.584   3.928  0.2659 -0.1214 -0.3681
  583MOL0     H78644   8.990  11.559   4.178 -0.5800  0.3976 -0.0054
  583MOL0     H78645   9.158  11.623   4.205  1.1757 -0.9178 -1.5075
  583MOL0     H78646   9.065  11.826   4.069  2.8454 -2.1815  0.8348
  583MOL0     H78647   8.920  11.734   4.056  1.4612  1.4358 -2.6048
  583MOL0     H78648   8.904  11.747   4.319  1.8683  0.5864  2.6091
  583MOL0     H78649   9.051  11.843   4.322 -0.4058  3.3453 -1.3940
  583MOL0     H78650   8.950  12.015   4.193  1.1495 -1.7995 -0.6211
  583MOL0     H78651   8.782  11.947   4.211 -1.5680 -0.9515  3.0057
  583MOL0     H78652   8.805  11.951   4.465  1.0790 -0.8659  0.9106
  583MOL0     H78653   8.968  11.994   4.456 -0.7672 -0.3331  1.8952
  583MOL0     H78654   8.760  12.166   4.320 -0.8503 -4.4378  0.3002
  583MOL0     H78655   8.922  12.207   4.384  2.0804 -2.6712  1.1727
  583MOL0     H78656   8.631  12.037   4.583 -0.7378  1.6960 -1.9644
  583MOL0     H78657   8.455  12.121   4.716  1.6800  0.2438 -1.3406
  583MOL0     H78658   8.576  12.097   4.844  2.6797  0.4576  0.4752
  583MOL0     H78659   8.533  12.334   4.911  1.8886 -0.9209 -1.6556
  583MOL0     H78660   8.404  12.232   4.945 -0.8413 -1.6187 -1.0048
  583MOL0     H78661   8.323  12.294   4.702 -0.4536 -1.2675  0.4434
  583MOL0     H78662   8.423  12.435   4.736  1.7020 -0.5531  1.0579
  583MOL0     H78663   8.279  12.479   4.952  0.0707 -0.4142  0.8619
  583MOL0     H78664   8.193  12.336   4.923  2.0554 -0.8514  0.0100
  583MOL0     H78665   8.047  12.465   5.058 -0.0809 -1.4507  0.6984
  583MOL0     H78666   7.897  12.441   5.218 -0.4107  1.5954  2.3125
  583MOL0     H78667   7.786  12.571   5.213  1.8699  0.1739 -0.6466
  583MOL0     H78668   7.729  12.410   5.171 -0.2691  0.0265  1.7226
  583MOL0     H78669   7.419  12.352   5.038  1.7583 -0.3545  2.3409
  583MOL0     H78670   7.193  12.300   5.080  3.3298 -1.5111 -1.5788
  583MOL0     H78671   6.934  12.635   5.254 -1.4653  1.3110 -0.4809
  583MOL0     H78672   6.918  12.616   5.075 -0.2867  3.4774  0.5740
  583MOL0     H78673   6.760  12.419   5.115 -2.8996 -0.1952  0.2871
  583MOL0     H78674   6.791  12.446   5.289  0.1992 -0.4425 -0.5702
  583MOL0     H78675   6.663  12.647   5.095  1.6193 -0.7616 -0.7857
  583MOL0     H78676   6.693  12.679   5.268  0.1661 -1.2027  1.2187
  583MOL0     H78677   6.533  12.446   5.152 -1.6759 -2.1724  2.3515
  583MOL0     H78678   6.577  12.466   5.322 -1.4399  0.6430  1.3808
  583MOL0     H78679   6.393  12.668   5.204 -1.6294 -2.5358 -0.0568
  583MOL0     H78680   6.437  12.654   5.375  1.3522  0.2322  0.3213
  583MOL0     H78681   6.311  12.424   5.361 -0.2931 -0.6676  0.6308
  583MOL0     H78682   6.212  12.565   5.330 -0.3524  1.4260 -2.0605
  583MOL0     H78683   6.318  12.476   5.075 -0.8095  1.1176 -0.1596
  583MOL0     H78684   6.167  12.538   5.124  0.1814  1.1494  0.6402
  583MOL0     H78685   6.243  12.254   5.166  0.0810  0.1087  1.1268
  583MOL0     H78686   6.115  12.324   5.067  1.2341  1.4307 -1.3609
  583MOL0     H78687   7.126  12.709   5.193  0.4023 -0.0527  0.5645
  583MOL0     H78688   7.371  12.754   5.160  0.0072 -0.3067  0.4291
  583MOL0     H78689   7.720  12.595   4.714 -0.8232 -0.7069  0.8818
  583MOL0     H78690   7.935  12.566   4.647 -0.4679 -0.5716  0.8012
  583MOL0     H78691   9.430  11.387   3.904 -1.3436  0.5605 -4.6445
  583MOL0     H78692   9.607  11.227   3.934 -0.2423 -1.9606 -1.5653
  583MOL0     H78693   9.907  10.898   4.156 -0.8451  1.7989 -2.7263
  583MOL0     H78694  10.020  10.666   4.172 -0.4731 -2.2222 -1.5856
  583MOL0     H78695   9.787  10.316   3.998 -0.6149 -3.0008  2.1170
  583MOL0     H78696   9.941  10.333   3.909  2.8951  0.1608  0.5807
  583MOL0     H78697   9.913  10.212   4.189 -1.1164  1.5718  0.1293
  583MOL0     H78698  10.056  10.208   4.086  0.0147 -0.6568  1.8899
  583MOL0     H78699   9.886  10.083   3.911 -2.0359  0.3009  0.8257
  583MOL0     H78700   9.806  10.056   4.070 -0.4134  2.6842  1.5981
  583MOL0     H78701  10.104   9.989   3.995  0.4262 -1.8003  0.5883
  583MOL0     H78702   9.983   9.874   4.013 -0.0317 -1.0060  3.0767
  583MOL0     H78703  10.017   9.945   4.418 -0.0900  1.3802 -0.0845
  583MOL0     H78704   9.687  10.494   3.962 -0.1271 -0.4605  1.6020
  583MOL0     H78705   9.587  10.715   3.931 -1.5431 -1.2430  2.2023
  584MOL0     O78706   2.650   1.275   6.349 -0.3365 -0.9764  0.1455
  584MOL0     C78707   2.617   1.362   6.432 -0.4773 -1.0138 -0.1726
  584MOL0     O78708   2.515   1.349   6.526 -0.3453 -0.8267  0.3388
  584MOL0     C78709   2.445   1.231   6.532 -1.3264 -0.3496  0.6242
  584MOL0     C78710   2.306   1.230   6.517  0.2149  0.6220  0.0014
  584MOL0     C78711   2.235   1.108   6.534  0.2408  0.3318 -0.0350
  584MOL0     C78712   2.304   0.985   6.557 -0.4354  0.0044 -0.4680
  584MOL0     O78713   2.236   0.872   6.561 -0.0088 -0.3191  0.5672
  584MOL0     C78714   2.290   0.762   6.639 -1.1792  0.4449 -0.2598
  584MOL0     C78715   2.205   0.634   6.639  0.3336 -0.4846 -0.9084
  584MOL0     C78716   2.077   0.650   6.723 -0.6109  0.5512 -0.0313
  584MOL0     C78717   1.977   0.743   6.668  0.1926  0.4433 -0.3522
  584MOL0     C78718   1.848   0.742   6.762 -0.2644 -0.6316 -0.2963
  584MOL0     C78719   1.748   0.855   6.724 -0.4690  0.3877 -0.4509
  584MOL0     C78720   1.615   0.847   6.797 -0.0961 -0.8532  0.1841
  584MOL0     C78721   1.520   0.734   6.755  0.2590 -0.3478 -0.9205
  584MOL0     N78722   1.386   0.753   6.812  0.3633 -0.2396 -0.9872
  584MOL0     C78723   1.325   0.694   6.929 -0.9340 -0.9820  0.8755
  584MOL0     C78724   1.207   0.763   6.939 -0.5520 -0.3087  0.5560
  584MOL0     C78725   1.101   0.756   7.039  0.1243  0.3430 -0.3399
  584MOL0     C78726   1.030   0.623   7.036 -0.6758 -0.3123  0.7997
  584MOL0     C78727   0.941   0.590   7.156  0.8495  0.6864  0.3504
  584MOL0     C78728   0.813   0.502   7.113  0.1599 -0.3027  0.1971
  584MOL0     O78729   0.735   0.488   7.238  0.0972  0.5221  0.0803
  584MOL0     C78730   0.611   0.557   7.225  0.1002  0.8485 -0.0351
  584MOL0     C78731   0.619   0.686   7.265 -0.3150 -0.0791  0.8704
  584MOL0     C78732   0.502   0.766   7.283  0.9565 -0.2015 -0.9701
  584MOL0     C78733   0.536   0.906   7.317  0.3263  0.1494  0.1154
  584MOL0     C78734   0.379   0.704   7.257  0.0346 -0.3905  0.1777
  584MOL0     C78735   0.256   0.773   7.272 -0.0930 -0.5114  0.5886
  584MOL0     O78736   0.161   0.693   7.323  0.1859 -0.9351 -0.0422
  584MOL0     C78737   0.031   0.733   7.338 -0.5070  0.4993  0.3150
  584MOL0     C78738  -0.061   0.627   7.345  0.5182 -0.0265  0.0056
  584MOL0     C78739  -0.191   0.642   7.360  0.0232 -0.2205  0.6236
  584MOL0     C78740  -0.248   0.768   7.376  0.6206  0.0963 -0.0527
  584MOL0     O78741  -0.389   0.790   7.380  0.2728 -0.0795  0.0156
  584MOL0     C78742  -0.443   0.902   7.302  0.2749  0.1055  0.3874
  584MOL0     C78743  -0.599   0.897   7.310 -0.2003  0.5795 -0.4194
  584MOL0     C78744  -0.673   0.781   7.256 -0.4186 -0.1717  0.5185
  584MOL0     C78745  -0.825   0.815   7.268  1.0295  0.7054 -0.0122
  584MOL0     C78746  -0.901   0.682   7.256  0.2501 -0.3255  0.5769
  584MOL0     C78747  -1.059   0.706   7.253 -0.3234  0.7470  0.1928
  584MOL0     C78748  -1.118   0.769   7.120  0.3708  0.1118 -0.8030
  584MOL0     C78749  -1.110   0.690   6.988 -0.1982 -0.3340  0.4371
  584MOL0    Cl78750  -1.162   0.519   6.995 -0.1138  0.0336 -0.3436
  584MOL0     C78751  -0.156   0.881   7.372 -0.2608  0.2287  0.6788
  584MOL0     C78752  -0.017   0.866   7.351  0.3176 -0.0292 -0.1239
  584MOL0     O78753   0.247   0.894   7.262 -0.2699  0.4818 -0.2736
  584MOL0     C78754   0.372   0.571   7.220  0.3564 -0.0740  0.2728
  584MOL0     C78755   0.486   0.490   7.203 -0.4509  0.9554 -0.3567
  584MOL0     N78756   1.193   0.857   6.837 -0.4144  0.5802  0.3314
  584MOL0     N78757   1.298   0.841   6.761  0.2215 -0.1557  0.2771
  584MOL0     C78758   2.444   0.986   6.584 -0.9688 -0.8086  0.3746
  584MOL0     C78759   2.508   1.108   6.567  0.1710 -0.0228 -0.0304
  584MOL0     C78760   2.701   1.480   6.444 -0.2010  0.2946  0.4287
  584MOL0     C78761   2.659   1.586   6.528  0.1566  0.0425  0.7633
  584MOL0     C78762   2.732   1.706   6.532 -0.5616  0.7024  0.3121
  584MOL0     C78763   2.852   1.717   6.460 -0.2106 -0.4071  0.1972
  584MOL0     O78764   2.925   1.839   6.467  0.4228 -0.2412 -0.3644
  584MOL0     C78765   2.973   1.879   6.597 -0.4789  0.5187 -0.2013
  584MOL0     C78766   3.084   1.980   6.597 -0.7682  0.2768  0.6271
  584MOL0     C78767   3.203   1.958   6.502 -0.1506  0.5047  0.6588
  584MOL0     C78768   3.251   1.809   6.488 -0.2755  0.1326  0.2693
  584MOL0     C78769   3.372   1.781   6.568 -0.1047  0.1614  0.0099
  584MOL0     C78770   3.462   1.731   6.632  0.2140 -0.2548  0.9007
  584MOL0     C78771   2.899   1.612   6.376  0.8321 -0.0246 -1.0986
  584MOL0     C78772   2.820   1.494   6.371 -0.2026 -0.5126 -0.7004
  584MOL0     H78773   2.246   1.320   6.505  0.7095  1.0121  0.3729
  584MOL0     H78774   2.128   1.104   6.519 -0.5406 -0.7229  4.4709
  584MOL0     H78775   2.385   0.736   6.591 -0.4498 -2.2450  2.3267
  584MOL0     H78776   2.315   0.781   6.744 -1.1558 -2.3468  0.3218
  584MOL0     H78777   2.186   0.590   6.540  3.4621 -2.0062 -0.9501
  584MOL0     H78778   2.254   0.552   6.693 -0.8453 -0.3849  0.3645
  584MOL0     H78779   2.029   0.552   6.732  2.8637 -1.3348 -0.4118
  584MOL0     H78780   2.112   0.687   6.820  0.3339  2.3911 -1.0104
  584MOL0     H78781   2.027   0.841   6.671 -0.7253  0.9897 -1.7445
  584MOL0     H78782   1.956   0.731   6.561 -2.8019  1.5047  0.0192
  584MOL0     H78783   1.799   0.646   6.745 -0.2600 -0.9085  1.1519
  584MOL0     H78784   1.874   0.759   6.867 -0.7993 -1.2523 -0.0570
  584MOL0     H78785   1.809   0.945   6.729  2.9336 -1.7085 -1.2372
  584MOL0     H78786   1.727   0.828   6.620  0.9125 -2.6411 -0.0551
  584MOL0     H78787   1.638   0.838   6.904  0.2549 -0.5355  0.1370
  584MOL0     H78788   1.561   0.940   6.776  2.4316  0.1583 -2.4888
  584MOL0     H78789   1.560   0.645   6.804 -3.9641 -1.3106  1.1652
  584MOL0     H78790   1.509   0.720   6.647 -0.3202 -0.4041 -0.8546
  584MOL0     H78791   1.385   0.624   6.987  2.8632 -0.7547 -2.2889
  584MOL0     H78792   1.136   0.774   7.141 -0.2886  1.7848 -0.4306
  584MOL0     H78793   1.019   0.826   7.019  0.6399  0.9970 -0.1656
  584MOL0     H78794   1.109   0.552   7.011 -0.4982 -1.1714  3.4965
  584MOL0     H78795   0.962   0.627   6.951  2.3342 -0.5204 -1.7722
  584MOL0     H78796   0.901   0.686   7.190  0.5527  0.1221  1.6715
  584MOL0     H78797   0.996   0.542   7.238  0.3358  0.4435  0.5548
  584MOL0     H78798   0.839   0.405   7.069  0.1025  1.1627 -3.4063
  584MOL0     H78799   0.768   0.563   7.034  1.4513  3.4883  2.1222
  584MOL0     H78800   0.719   0.722   7.287 -0.7830  3.2547 -1.6054
  584MOL0     H78801   0.461   0.956   7.380  1.3437  1.7799  0.0987
  584MOL0     H78802   0.631   0.904   7.371  0.1236  0.5103  0.4982
  584MOL0     H78803   0.542   0.969   7.227 -1.9474  0.5044  0.1450
  584MOL0     H78804  -0.031   0.523   7.345 -0.0801 -0.2187 -1.1412
  584MOL0     H78805  -0.263   0.560   7.359 -0.0069 -0.1955  0.8187
  584MOL0     H78806  -0.405   0.994   7.346 -1.1741  1.0024 -0.1604
  584MOL0     H78807  -0.411   0.910   7.198 -1.2423 -0.2892 -0.1403
  584MOL0     H78808  -0.622   0.921   7.414  2.3590 -0.1584  0.3871
  584MOL0     H78809  -0.627   0.986   7.253  1.9917  2.2730  0.9994
  584MOL0     H78810  -0.647   0.694   7.316  0.7859 -1.2745 -1.4794
  584MOL0     H78811  -0.657   0.750   7.152  0.0079 -0.1827  0.5867
  584MOL0     H78812  -0.849   0.844   7.370 -1.3240  1.0513 -0.6264
  584MOL0     H78813  -0.861   0.893   7.200 -0.0248  0.1157 -0.1431
  584MOL0     H78814  -0.883   0.613   7.338  0.8287 -3.4300 -1.9620
  584MOL0     H78815  -0.868   0.634   7.163 -2.6720  0.2045 -0.8678
  584MOL0     H78816  -1.094   0.606   7.280 -2.8431  0.3435 -3.7646
  584MOL0     H78817  -1.078   0.771   7.339 -1.0736 -0.5817  1.0493
  584MOL0     H78818  -1.070   0.867   7.110  2.6288 -0.9303 -0.9146
  584MOL0     H78819  -1.223   0.785   7.148 -0.1748 -1.1881 -2.0409
  584MOL0     H78820  -1.005   0.697   6.958 -0.4525 -0.4518 -0.5045
  584MOL0     H78821  -1.176   0.728   6.909  1.1135 -2.0798 -1.6070
  584MOL0     H78822  -0.198   0.980   7.387  2.5089  1.3505  1.5780
  584MOL0     H78823   0.038   0.959   7.343  0.1516  0.3152  2.2076
  584MOL0     H78824   0.277   0.519   7.213  1.6982 -2.7519  0.6022
  584MOL0     H78825   0.478   0.383   7.186 -0.1877  0.3730  2.6086
  584MOL0     H78826   2.502   0.898   6.611 -0.3750 -0.3941  0.4712
  584MOL0     H78827   2.615   1.121   6.582 -0.0218  2.0157 -0.1263
  584MOL0     H78828   2.563   1.575   6.578 -2.0831  2.3000 -2.5772
  584MOL0     H78829   2.687   1.793   6.578 -1.6808  0.6703 -0.6553
  584MOL0     H78830   2.890   1.924   6.652 -0.8581  0.8588 -1.0436
  584MOL0     H78831   3.006   1.796   6.661  1.9848  0.4364 -1.4379
  584MOL0     H78832   3.125   1.980   6.698 -1.9986  1.2528  1.1521
  584MOL0     H78833   3.054   2.081   6.567  2.2580  1.6252  1.7414
  584MOL0     H78834   3.286   2.025   6.523  2.0229 -1.4504 -1.1332
  584MOL0     H78835   3.171   1.991   6.402 -2.2893 -0.8999  0.7950
  584MOL0     H78836   3.277   1.783   6.385 -0.8756 -0.9246  0.3679
  584MOL0     H78837   3.176   1.739   6.524  2.6889 -1.8027  3.3292
  584MOL0     H78838   3.540   1.701   6.699  0.9877 -0.8482 -0.2296
  584MOL0     H78839   2.994   1.616   6.323  1.5430 -2.3464 -0.1182
  584MOL0     H78840   2.857   1.409   6.315 -0.8023 -0.9840 -0.4040
  585MOL0     O78841  10.089   9.512   6.834 -0.2247  0.2155  0.0996
  585MOL0     C78842  10.157   9.613   6.816 -0.3498 -0.1419 -0.0824
  585MOL0     O78843  10.132   9.731   6.879  0.3579 -0.2221  0.5338
  585MOL0     C78844  10.008   9.744   6.936  0.0966  0.2448  0.6580
  585MOL0     C78845   9.909   9.769   6.843  0.1738  0.1708  0.4900
  585MOL0     C78846   9.773   9.760   6.897 -0.2155  0.6960  0.4947
  585MOL0     C78847   9.748   9.743   7.033  1.2432  0.0854 -0.4129
  585MOL0     O78848   9.612   9.738   7.066  0.0234 -0.0850 -0.1352
  585MOL0     C78849   9.582   9.772   7.204 -0.3824  0.3133  0.5287
  585MOL0     C78850   9.432   9.797   7.222 -1.0385  1.1313  0.0201
  585MOL0     C78851   9.393   9.817   7.365  0.4159  1.4287  0.4498
  585MOL0     C78852   9.243   9.860   7.381  0.1529 -1.1146 -0.2810
  585MOL0     C78853   9.137   9.761   7.338  0.2495 -0.0394 -0.4123
  585MOL0     C78854   8.994   9.809   7.364  0.0961  0.4436 -0.0118
  585MOL0     C78855   8.887   9.704   7.325  0.2508 -0.0033  0.6168
  585MOL0     C78856   8.752   9.773   7.301  0.3735  0.3156  0.0699
  585MOL0     N78857   8.646   9.677   7.256 -0.0083 -0.3594  0.0039
  585MOL0     C78858   8.657   9.602   7.148 -0.5764 -0.1108 -0.4250
  585MOL0     C78859   8.543   9.527   7.144 -1.4234  0.1806  0.5556
  585MOL0     C78860   8.508   9.431   7.037 -0.4799  0.2945 -0.2353
  585MOL0     C78861   8.430   9.305   7.084  0.9502  0.3518 -0.5024
  585MOL0     C78862   8.284   9.326   7.121 -0.1870  0.5178 -0.3919
  585MOL0     C78863   8.202   9.354   6.988  0.2422  0.4688 -0.9547
  585MOL0     O78864   8.064   9.393   7.015  0.0174 -0.7335  0.0315
  585MOL0     C78865   7.969   9.300   7.053  0.1629 -0.3532  0.6714
  585MOL0     C78866   7.997   9.163   7.058  0.1395 -0.3527 -0.4735
  585MOL0     C78867   7.886   9.076   7.075 -0.0211 -1.0472  0.2905
  585MOL0     C78868   7.902   8.933   7.061 -0.5816 -0.0602 -0.3236
  585MOL0     C78869   7.754   9.131   7.102  0.7248 -0.0423  0.7915
  585MOL0     C78870   7.629   9.054   7.088  0.1500  0.0580  0.0338
  585MOL0     O78871   7.624   8.932   7.023 -0.2058 -0.3009  0.2294
  585MOL0     C78872   7.504   8.878   7.002  1.4349  0.5931 -0.3010
  585MOL0     C78873   7.472   8.767   7.075 -0.6013  0.5840  1.1055
  585MOL0     C78874   7.344   8.709   7.057 -0.2304 -0.4311 -0.6453
  585MOL0     C78875   7.248   8.762   6.976 -0.1521 -0.5437  0.2593
  585MOL0     O78876   7.126   8.702   6.974 -0.1466 -0.3483 -0.1122
  585MOL0     C78877   7.019   8.766   6.901 -0.5805  0.6960  0.1892
  585MOL0     C78878   7.024   8.725   6.754  0.0707  1.3272 -0.1619
  585MOL0     C78879   6.885   8.718   6.695 -0.0698  0.0591 -0.1597
  585MOL0     C78880   6.914   8.709   6.543  0.1645  0.6085  1.0028
  585MOL0     C78881   6.795   8.709   6.447  0.7949 -0.1470  0.0304
  585MOL0     C78882   6.727   8.570   6.455  1.0006 -0.0392 -0.3808
  585MOL0     C78883   6.610   8.562   6.359 -0.0696  0.5732 -0.5218
  585MOL0     C78884   6.556   8.423   6.346 -0.0595 -0.4895  0.4568
  585MOL0    Cl78885   6.390   8.435   6.278  0.1852  0.4732 -0.1672
  585MOL0     C78886   7.284   8.872   6.897 -0.7011  0.2334  0.0906
  585MOL0     C78887   7.412   8.926   6.912  0.9225 -0.5290  0.3653
  585MOL0     O78888   7.529   9.110   7.123 -0.1989 -0.1212  0.2478
  585MOL0     C78889   7.743   9.268   7.122  0.1373 -0.3842 -0.1022
  585MOL0     C78890   7.853   9.352   7.097  0.0299  0.6572  0.0668
  585MOL0     N78891   8.469   9.564   7.250  0.4265  0.4851  0.4299
  585MOL0     N78892   8.536   9.646   7.328  0.7541  0.2629  0.2711
  585MOL0     C78893   9.858   9.718   7.116 -0.0696 -1.2688 -0.7093
  585MOL0     C78894   9.986   9.719   7.072  0.7604  0.3142 -0.1411
  585MOL0     C78895  10.276   9.606   6.732  0.2492  0.1147  0.6093
  585MOL0     C78896  10.361   9.712   6.709 -0.6788 -0.0618  0.1529
  585MOL0     C78897  10.478   9.696   6.619 -0.7501  0.5538  0.2002
  585MOL0     C78898  10.528   9.570   6.577 -0.9151  0.1087 -1.7724
  585MOL0     O78899  10.644   9.539   6.509 -0.2596 -0.0285 -1.3848
  585MOL0     C78900  10.736   9.651   6.493  0.0905  0.9810 -0.1100
  585MOL0     C78901  10.878   9.603   6.463 -0.3515  0.3763 -0.0823
  585MOL0     C78902  10.941   9.511   6.569  0.1571  0.4655 -0.3030
  585MOL0     C78903  10.963   9.585   6.695 -0.7086 -0.3662 -1.0084
  585MOL0     C78904  10.854   9.588   6.789 -0.4564  0.1726 -1.0578
  585MOL0     C78905  10.771   9.597   6.881  0.6253 -0.4035 -0.3805
  585MOL0     C78906  10.453   9.460   6.613 -0.0514 -0.9349 -1.2633
  585MOL0     C78907  10.331   9.476   6.686  0.4003  0.0458  0.2671
  585MOL0     H78908   9.927   9.785   6.737  2.3106  2.6098  1.1294
  585MOL0     H78909   9.689   9.780   6.832 -0.8598 -0.5620  0.9170
  585MOL0     H78910   9.612   9.695   7.277 -1.2688  1.5032  2.2147
  585MOL0     H78911   9.636   9.863   7.231  1.0444 -0.6220  0.9365
  585MOL0     H78912   9.411   9.892   7.171  0.5705  2.7696  2.2102
  585MOL0     H78913   9.377   9.710   7.185  0.2601  0.2257  0.1432
  585MOL0     H78914   9.400   9.716   7.405 -1.7608  1.2669  0.5347
  585MOL0     H78915   9.456   9.888   7.419  3.2008  1.4520 -2.5503
  585MOL0     H78916   9.235   9.886   7.486 -1.1774  1.9010 -1.0210
  585MOL0     H78917   9.223   9.947   7.317  0.1998 -0.9942 -0.1322
  585MOL0     H78918   9.147   9.742   7.231 -2.9892  1.6190 -1.1304
  585MOL0     H78919   9.150   9.666   7.391 -1.1971 -0.5893 -0.9941
  585MOL0     H78920   8.988   9.818   7.473  0.5329  1.0464 -0.0363
  585MOL0     H78921   8.962   9.901   7.314  0.7170 -1.0939 -3.5119
  585MOL0     H78922   8.920   9.650   7.236 -0.8800 -0.9579  0.7566
  585MOL0     H78923   8.871   9.631   7.405 -0.4459 -0.1541  0.3380
  585MOL0     H78924   8.769   9.857   7.234  0.8728  0.0012 -0.2050
  585MOL0     H78925   8.721   9.812   7.399 -0.4909 -0.2586  0.0443
  585MOL0     H78926   8.738   9.610   7.077  1.0940  2.3823  1.6048
  585MOL0     H78927   8.468   9.483   6.950 -0.6830 -0.6974 -0.7556
  585MOL0     H78928   8.605   9.404   6.995 -0.0962  0.9590  0.2094
  585MOL0     H78929   8.468   9.263   7.177 -3.3450 -0.2329  1.2443
  585MOL0     H78930   8.428   9.232   7.003  2.9088 -1.2046  0.7629
  585MOL0     H78931   8.276   9.414   7.185 -1.3804 -1.0536  1.7380
  585MOL0     H78932   8.250   9.236   7.174 -0.5320  0.3223 -0.9363
  585MOL0     H78933   8.211   9.286   6.903 -0.3395  0.3953 -0.9584
  585MOL0     H78934   8.247   9.448   6.953 -2.3361  2.2530  0.1766
  585MOL0     H78935   8.093   9.115   7.039  1.0660  1.3176 -0.1855
  585MOL0     H78936   8.008   8.911   7.072 -0.9680 -1.0419  2.1365
  585MOL0     H78937   7.853   8.886   7.147 -2.3675 -0.5539 -1.5546
  585MOL0     H78938   7.864   8.896   6.965  2.8584  0.6715 -2.1145
  585MOL0     H78939   7.542   8.731   7.150  0.4276 -0.5480 -0.3601
  585MOL0     H78940   7.313   8.621   7.112  0.8407 -0.5917 -0.2755
  585MOL0     H78941   6.925   8.731   6.944 -0.1572 -0.8739 -0.0862
  585MOL0     H78942   7.017   8.875   6.909 -2.1250  1.0954 -3.4707
  585MOL0     H78943   7.080   8.791   6.688 -0.6955  1.1519 -1.0203
  585MOL0     H78944   7.064   8.623   6.747 -2.2990  0.3506 -0.6046
  585MOL0     H78945   6.826   8.809   6.709  0.0493  0.4273 -1.8936
  585MOL0     H78946   6.826   8.633   6.731 -3.0878  2.0643 -0.0142
  585MOL0     H78947   6.973   8.797   6.514  0.0014 -0.2266 -2.2525
  585MOL0     H78948   6.973   8.622   6.511 -0.2387  0.6491  0.1155
  585MOL0     H78949   6.833   8.733   6.347  3.0772  3.5830  1.5846
  585MOL0     H78950   6.727   8.795   6.457 -1.3565 -1.3933 -2.4796
  585MOL0     H78951   6.801   8.493   6.433  2.1610  0.5776  1.2535
  585MOL0     H78952   6.685   8.551   6.554 -1.0981  4.1460 -0.2237
  585MOL0     H78953   6.641   8.613   6.267 -2.3241  2.9912 -0.0611
  585MOL0     H78954   6.521   8.611   6.399 -0.0305 -0.0979  0.4171
  585MOL0     H78955   6.542   8.368   6.439  1.3632 -2.6033 -0.5128
  585MOL0     H78956   6.616   8.370   6.272  1.2159  1.0823  0.3021
  585MOL0     H78957   7.226   8.919   6.818  0.4779  1.6992  0.0535
  585MOL0     H78958   7.448   9.012   6.857  0.2689  0.5876  1.6560
  585MOL0     H78959   7.645   9.314   7.130  0.4137 -0.0388  1.6678
  585MOL0     H78960   7.846   9.460   7.102  3.6328  0.9456  1.8477
  585MOL0     H78961   9.849   9.697   7.222 -1.2812 -0.5938 -0.6610
  585MOL0     H78962  10.073   9.709   7.136  1.2318 -0.1524 -0.8503
  585MOL0     H78963  10.339   9.809   6.751  0.5198  1.3727 -2.3058
  585MOL0     H78964  10.537   9.782   6.592  2.6920 -1.3236  1.1174
  585MOL0     H78965  10.691   9.716   6.417  0.4245  1.6155  0.2242
  585MOL0     H78966  10.745   9.710   6.585 -0.4943 -1.0964  1.3546
  585MOL0     H78967  10.940   9.686   6.430 -1.5882  0.3541 -2.7367
  585MOL0     H78968  10.849   9.543   6.376 -2.8391 -1.0497  1.5924
  585MOL0     H78969  11.039   9.489   6.527  0.2570  2.7479 -1.4457
  585MOL0     H78970  10.881   9.420   6.571  0.7877  0.0494 -0.0915
  585MOL0     H78971  10.996   9.689   6.686 -0.5271 -0.3273 -0.0102
  585MOL0     H78972  11.046   9.536   6.747 -2.0919 -1.9738 -0.2210
  585MOL0     H78973  10.709   9.596   6.969 -0.8307 -2.3445 -1.3460
  585MOL0     H78974  10.494   9.364   6.584 -2.0869 -1.9626 -0.9174
  585MOL0     H78975  10.280   9.388   6.725 -1.9208  0.2911 -1.9533
  586MOL0     O78976   8.186   9.838   5.858 -0.0879  0.0697 -0.5809
  586MOL0     C78977   8.272   9.754   5.828  0.1597 -0.3103  0.9662
  586MOL0     O78978   8.243   9.638   5.753  0.2213 -0.8683 -0.2842
  586MOL0     C78979   8.116   9.600   5.708 -0.4765 -0.4736 -0.3836
  586MOL0     C78980   8.000   9.687   5.716  0.8477  1.0561  1.0701
  586MOL0     C78981   7.873   9.649   5.665  1.1485 -1.0798 -0.2732
  586MOL0     C78982   7.865   9.530   5.602  0.2323 -0.8950  0.7324
  586MOL0     O78983   7.749   9.489   5.545 -0.3943  0.3521 -0.4249
  586MOL0     C78984   7.708   9.354   5.563 -0.1717  0.6871 -0.0816
  586MOL0     C78985   7.553   9.358   5.578  0.4083 -0.0253 -0.1152
  586MOL0     C78986   7.464   9.385   5.450 -0.0870  1.0085 -0.4471
  586MOL0     C78987   7.318   9.328   5.475  0.4349  0.7819  0.0043
  586MOL0     C78988   7.248   9.424   5.563  0.6744  0.4456 -0.3058
  586MOL0     C78989   7.101   9.382   5.588  0.4961  0.1519 -0.8021
  586MOL0     C78990   7.050   9.460   5.710 -0.6958  0.4788 -0.2255
  586MOL0     C78991   6.900   9.419   5.736 -0.4446  0.1769 -0.6780
  586MOL0     N78992   6.842   9.496   5.842 -0.0669 -0.1511 -0.3216
  586MOL0     C78993   6.848   9.627   5.863 -0.0778  0.4241 -0.0594
  586MOL0     C78994   6.750   9.656   5.957 -0.6525 -0.2315  0.2257
  586MOL0     C78995   6.727   9.788   6.022  1.0273  0.0741 -1.0046
  586MOL0     C78996   6.860   9.833   6.102  0.0452 -0.0531 -0.6249
  586MOL0     C78997   6.855   9.986   6.152 -0.2100 -0.7147 -0.0567
  586MOL0     C78998   6.738  10.026   6.246 -0.0021  0.3619  0.1248
  586MOL0     O78999   6.727   9.925   6.344  0.2809  0.7585  0.4535
  586MOL0     C79000   6.602   9.865   6.366  0.0192  0.6230 -0.1585
  586MOL0     C79001   6.593   9.733   6.369  0.2885  0.7014  1.1532
  586MOL0     C79002   6.471   9.666   6.386  0.4522  0.7695 -0.6356
  586MOL0     C79003   6.480   9.515   6.371  0.3800 -0.6022 -0.6758
  586MOL0     C79004   6.358   9.738   6.431 -0.6004 -0.5450 -0.6336
  586MOL0     C79005   6.221   9.682   6.460 -0.4341  0.2883  0.1579
  586MOL0     O79006   6.186   9.565   6.402 -0.6133  0.2230  0.5390
  586MOL0     C79007   6.061   9.517   6.437  0.0344 -0.0868  0.3016
  586MOL0     C79008   6.055   9.384   6.481 -0.0595 -0.1957  0.4364
  586MOL0     C79009   5.932   9.331   6.512 -0.4319 -0.0778  0.6481
  586MOL0     C79010   5.812   9.399   6.498  0.7246  0.0924 -0.3814
  586MOL0     O79011   5.693   9.335   6.528 -0.0811  0.1052 -0.9133
  586MOL0     C79012   5.570   9.408   6.534  0.3249 -0.2406  0.3410
  586MOL0     C79013   5.454   9.318   6.572 -0.9312 -0.0616  0.1557
  586MOL0     C79014   5.314   9.362   6.513  0.0549 -0.6705 -0.0571
  586MOL0     C79015   5.210   9.272   6.578  0.1421  0.2185  0.2690
  586MOL0     C79016   5.061   9.309   6.546 -0.1584  0.2645 -0.6676
  586MOL0     C79017   4.966   9.235   6.638 -0.4827  0.2552  0.5608
  586MOL0     C79018   4.827   9.304   6.635 -0.4737 -0.0609  0.6155
  586MOL0     C79019   4.748   9.252   6.752 -1.1298 -0.6094  0.6970
  586MOL0    Cl79020   4.600   9.331   6.748 -0.1525 -0.4381  0.3364
  586MOL0     C79021   5.816   9.526   6.444 -0.0744 -0.3684 -0.1497
  586MOL0     C79022   5.941   9.585   6.416  0.2772 -0.7511  0.0555
  586MOL0     O79023   6.154   9.742   6.550 -0.1703  0.2724  0.6141
  586MOL0     C79024   6.375   9.875   6.444 -0.3940 -0.0757  0.3500
  586MOL0     C79025   6.491   9.936   6.404 -0.4807  0.7001  0.4898
  586MOL0     N79026   6.678   9.540   5.973 -0.7541  0.1900 -0.0001
  586MOL0     N79027   6.741   9.449   5.911  0.9287 -0.2584  0.7697
  586MOL0     C79028   7.977   9.442   5.594 -0.4106  0.0488  1.1124
  586MOL0     C79029   8.100   9.477   5.645  1.4950 -0.3097  0.5587
  586MOL0     C79030   8.409   9.777   5.866  0.3835 -0.2030 -0.1192
  586MOL0     C79031   8.434   9.872   5.957  0.7147 -1.9652 -0.6070
  586MOL0     C79032   8.559   9.890   6.011 -1.0374  0.2398 -0.4434
  586MOL0     C79033   8.672   9.828   5.957  0.4376 -0.2204 -0.4971
  586MOL0     O79034   8.800   9.856   5.996 -0.3559  0.3078 -0.2967
  586MOL0     C79035   8.828   9.973   6.067 -0.0889  0.3272 -0.2957
  586MOL0     C79036   8.978   9.986   6.085 -0.4768  1.0332 -0.1958
  586MOL0     C79037   9.033   9.888   6.191  0.2231  0.0398  0.0787
  586MOL0     C79038   9.173   9.929   6.225 -0.4727  1.2435 -0.0283
  586MOL0     C79039   9.251   9.946   6.098  0.7696  0.0853 -0.7516
  586MOL0     C79040   9.325   9.949   6.002  0.0053 -0.6661  0.4394
  586MOL0     C79041   8.653   9.724   5.868 -0.4875  0.5932 -0.8731
  586MOL0     C79042   8.518   9.696   5.827 -0.6634  0.0695 -0.1837
  586MOL0     H79043   7.999   9.790   5.748  2.1033  1.4269  0.0002
  586MOL0     H79044   7.777   9.700   5.665  1.8687  0.3171  0.2513
  586MOL0     H79045   7.744   9.288   5.483  0.6363 -1.2162  1.7412
  586MOL0     H79046   7.735   9.312   5.660 -1.0942 -1.8576 -0.8381
  586MOL0     H79047   7.522   9.257   5.605 -1.1196  0.0466 -1.4046
  586MOL0     H79048   7.529   9.425   5.662 -0.8818 -0.9327  0.2851
  586MOL0     H79049   7.469   9.489   5.419  0.6256  0.7986 -1.0858
  586MOL0     H79050   7.510   9.324   5.372 -1.0128  2.0894 -1.8942
  586MOL0     H79051   7.274   9.318   5.375  1.1444  1.4834 -0.3835
  586MOL0     H79052   7.321   9.230   5.524  0.8793  0.7096 -0.1590
  586MOL0     H79053   7.301   9.440   5.657  2.2248  0.7978 -1.2090
  586MOL0     H79054   7.255   9.524   5.520  0.5623 -0.9414 -3.8769
  586MOL0     H79055   7.034   9.396   5.502  0.7454 -0.9035 -1.1892
  586MOL0     H79056   7.104   9.275   5.609  2.1975  0.6556  1.9506
  586MOL0     H79057   7.105   9.433   5.800  0.6657 -0.1206 -1.2085
  586MOL0     H79058   7.063   9.566   5.690  0.2412  0.4807  0.3510
  586MOL0     H79059   6.899   9.313   5.763 -1.3855 -0.1373 -1.8493
  586MOL0     H79060   6.849   9.430   5.640  4.0486  0.5204 -3.2948
  586MOL0     H79061   6.920   9.698   5.821  0.8435 -0.7754 -0.5681
  586MOL0     H79062   6.710   9.852   5.935  3.8607 -0.2409 -1.9132
  586MOL0     H79063   6.642   9.783   6.090  1.4143  1.2791 -0.4146
  586MOL0     H79064   6.952   9.824   6.043 -0.2010  0.2104 -1.0569
  586MOL0     H79065   6.871   9.777   6.195 -1.2908  0.5366 -0.0893
  586MOL0     H79066   6.852  10.055   6.067 -0.0556 -1.9964 -1.1297
  586MOL0     H79067   6.942  10.010   6.213 -1.1170  0.7846  0.7034
  586MOL0     H79068   6.647  10.018   6.185  0.2263  0.6615 -0.2532
  586MOL0     H79069   6.738  10.128   6.284 -0.3291 -0.6855  3.2475
  586MOL0     H79070   6.688   9.687   6.342  0.4009  2.2269 -1.4354
  586MOL0     H79071   6.581   9.482   6.348  1.3909  1.2360  0.8362
  586MOL0     H79072   6.454   9.471   6.467 -1.0072 -0.5711 -1.0075
  586MOL0     H79073   6.406   9.479   6.298 -0.6789 -0.2792  0.2159
  586MOL0     H79074   6.143   9.322   6.494 -2.0187 -2.7543  2.5796
  586MOL0     H79075   5.925   9.226   6.541 -1.3987 -0.2230 -0.0644
  586MOL0     H79076   5.575   9.489   6.608  0.3066 -0.4342  0.5549
  586MOL0     H79077   5.544   9.437   6.432 -0.2082  1.1839  0.8476
  586MOL0     H79078   5.477   9.214   6.547  0.0908  0.4243 -1.0206
  586MOL0     H79079   5.445   9.329   6.680 -0.9970 -0.5913  0.2073
  586MOL0     H79080   5.320   9.346   6.405  0.0776 -1.4827  0.0614
  586MOL0     H79081   5.284   9.466   6.532 -1.9859 -1.4260  1.1820
  586MOL0     H79082   5.236   9.169   6.553  2.2367  1.2749 -2.3626
  586MOL0     H79083   5.220   9.277   6.687 -3.1001  0.6192  0.6264
  586MOL0     H79084   5.042   9.286   6.441 -2.8393 -0.5479 -0.0860
  586MOL0     H79085   5.043   9.417   6.550  0.4745  0.3788 -0.8314
  586MOL0     H79086   4.955   9.128   6.617 -2.2646  0.4989  0.0826
  586MOL0     H79087   4.999   9.247   6.742  0.9596 -0.1069  0.1632
  586MOL0     H79088   4.771   9.274   6.547  0.3467 -1.9075  0.6700
  586MOL0     H79089   4.837   9.411   6.652  2.8462 -0.0665 -0.4477
  586MOL0     H79090   4.797   9.279   6.846  0.5609 -0.0430 -0.3011
  586MOL0     H79091   4.733   9.146   6.732  5.2898 -1.8505  0.6138
  586MOL0     H79092   5.725   9.584   6.434 -1.5367 -1.8660  3.0291
  586MOL0     H79093   5.945   9.688   6.381  0.6773 -0.0345  2.1160
  586MOL0     H79094   6.294   9.937   6.481 -2.2400 -2.0729 -0.1967
  586MOL0     H79095   6.497  10.043   6.418  2.3815  0.6155  0.6173
  586MOL0     H79096   7.981   9.350   5.536 -1.2580  1.1943 -0.8872
  586MOL0     H79097   8.191   9.422   5.624  1.5025  0.5514 -1.9990
  586MOL0     H79098   8.350   9.929   5.996  0.4082 -0.7392 -2.8916
  586MOL0     H79099   8.572   9.973   6.080  2.9278  2.1887 -3.1768
  586MOL0     H79100   8.800  10.055   6.000  3.5274  0.6183 -1.6938
  586MOL0     H79101   8.786   9.987   6.167  1.7019 -1.2540  0.7523
  586MOL0     H79102   9.000  10.087   6.119  1.5445  0.4788  0.2529
  586MOL0     H79103   9.028   9.961   5.990  1.6438  0.1613  1.0796
  586MOL0     H79104   9.037   9.791   6.140  1.3650 -0.0941  0.3901
  586MOL0     H79105   8.964   9.879   6.275  0.8509 -0.7854  0.5283
  586MOL0     H79106   9.221   9.861   6.297 -1.1960 -0.0460 -0.7288
  586MOL0     H79107   9.167  10.026   6.276  1.2570  1.9856 -1.1226
  586MOL0     H79108   9.398   9.951   5.923  3.0985  0.2282  3.1120
  586MOL0     H79109   8.737   9.669   5.828 -2.6620 -2.6721 -1.4031
  586MOL0     H79110   8.509   9.618   5.751  1.9246  0.8061 -1.3604
  587MOL0     O79111  10.726   5.225   8.513  0.1531 -0.6243 -0.2245
  587MOL0     C79112  10.821   5.153   8.545  0.5386  0.2842  0.9036
  587MOL0     O79113  10.808   5.025   8.607  0.3308 -0.6110  0.0271
  587MOL0     C79114  10.689   4.969   8.636 -0.2263 -0.0061  0.5062
  587MOL0     C79115  10.595   4.918   8.549 -0.5124 -0.2520  0.8154
  587MOL0     C79116  10.488   4.833   8.588 -0.3807  0.2360 -0.0431
  587MOL0     C79117  10.484   4.802   8.725  0.0719 -0.3208 -0.4496
  587MOL0     O79118  10.381   4.725   8.775 -0.2808 -0.3201 -0.7180
  587MOL0     C79119  10.249   4.773   8.763  1.2021 -0.3560  0.0558
  587MOL0     C79120  10.199   4.764   8.912 -0.5622  0.2076 -0.0353
  587MOL0     C79121  10.060   4.824   8.926 -0.0358  0.4298  1.0214
  587MOL0     C79122   9.945   4.732   8.867 -0.2917 -0.0320 -0.9546
  587MOL0     C79123   9.808   4.775   8.927  0.1081 -0.3643 -0.2340
  587MOL0     C79124   9.687   4.751   8.834 -0.1664  0.6454  0.2312
  587MOL0     C79125   9.561   4.826   8.881 -0.6239 -0.6514 -0.2460
  587MOL0     C79126   9.517   4.793   9.021  0.6039  0.0112  0.5411
  587MOL0     N79127   9.370   4.807   9.026  0.5853 -0.1511  0.0103
  587MOL0     C79128   9.293   4.923   9.028 -0.3947 -0.0987 -0.4041
  587MOL0     C79129   9.179   4.886   8.970 -0.0231  0.1701  0.1181
  587MOL0     C79130   9.051   4.972   8.953 -0.4388 -0.7211 -0.0934
  587MOL0     C79131   8.909   4.905   8.981 -1.1041  0.4471  0.0215
  587MOL0     C79132   8.897   4.887   9.139  0.0715  0.0745 -0.2262
  587MOL0     C79133   8.743   4.879   9.174  0.0957 -0.9660  0.2526
  587MOL0     O79134   8.680   4.770   9.095  0.2262 -0.0782 -0.3125
  587MOL0     C79135   8.543   4.755   9.093 -0.6071 -0.0504  0.6367
  587MOL0     C79136   8.474   4.690   8.994  0.5621 -0.4028 -0.3338
  587MOL0     C79137   8.334   4.683   8.988 -0.4206 -0.9629 -1.4010
  587MOL0     C79138   8.272   4.618   8.872  0.5732 -0.2753  0.3386
  587MOL0     C79139   8.257   4.733   9.099  0.7850  0.5885 -0.3682
  587MOL0     C79140   8.102   4.723   9.112 -0.1168 -0.1829 -0.5073
  587MOL0     O79141   8.022   4.751   9.001 -0.8340  0.4257 -0.6959
  587MOL0     C79142   7.886   4.755   9.033  0.4646 -0.8145  0.0601
  587MOL0     C79143   7.836   4.883   9.074 -0.0778  0.8404 -0.9037
  587MOL0     C79144   7.704   4.906   9.104 -0.2685  0.2750 -0.6660
  587MOL0     C79145   7.608   4.807   9.099  0.2002 -0.2157  0.3229
  587MOL0     O79146   7.475   4.820   9.134 -0.7687 -0.6382 -0.2443
  587MOL0     C79147   7.423   4.956   9.145 -0.9285  0.3219 -1.1023
  587MOL0     C79148   7.273   4.955   9.127 -0.5645  0.3655 -0.3697
  587MOL0     C79149   7.206   4.913   9.250  1.0479  0.3993  0.0969
  587MOL0     C79150   7.069   4.978   9.262 -0.3909  0.7351  0.2447
  587MOL0     C79151   6.970   4.952   9.151 -0.0645  0.8325 -0.5069
  587MOL0     C79152   6.864   5.063   9.149 -0.1929 -0.5912 -0.1377
  587MOL0     C79153   6.773   5.042   9.030  0.1541 -0.6801  0.3570
  587MOL0     C79154   6.669   5.161   9.020 -0.4059  0.6276  0.0253
  587MOL0    Cl79155   6.542   5.137   9.142  0.3224 -0.2447 -0.2730
  587MOL0     C79156   7.650   4.680   9.053 -0.0525 -0.5626 -0.5578
  587MOL0     C79157   7.792   4.649   9.023  0.1683  0.3538 -0.1483
  587MOL0     O79158   8.058   4.708   9.230 -0.3432 -0.3785 -0.2428
  587MOL0     C79159   8.329   4.782   9.203  0.4211  0.1118  0.7698
  587MOL0     C79160   8.471   4.803   9.197  0.2761 -0.5257  0.0097
  587MOL0     N79161   9.182   4.748   8.938 -0.0154 -0.5904  0.1533
  587MOL0     N79162   9.293   4.707   8.981  0.8932 -0.1694 -0.0974
  587MOL0     C79163  10.571   4.857   8.816  0.0934 -0.8526 -0.2976
  587MOL0     C79164  10.682   4.938   8.774 -0.0034  1.0179  0.0077
  587MOL0     C79165  10.964   5.192   8.518  0.2113 -0.1612  0.4315
  587MOL0     C79166  10.999   5.321   8.512 -0.4965 -0.0036  0.3074
  587MOL0     C79167  11.137   5.357   8.505 -0.2636  0.3637  0.3270
  587MOL0     C79168  11.232   5.253   8.498  0.8035 -0.4025  0.0682
  587MOL0     O79169  11.366   5.276   8.499  0.1024 -0.1749  0.6103
  587MOL0     C79170  11.399   5.387   8.408 -0.5027  0.8108 -0.1141
  587MOL0     C79171  11.468   5.498   8.482  0.2131 -0.3768  0.0071
  587MOL0     C79172  11.606   5.463   8.548 -0.4026 -0.2892 -0.7242
  587MOL0     C79173  11.715   5.398   8.472  0.2685 -0.0796  1.1737
  587MOL0     C79174  11.748   5.477   8.353  0.0822 -1.9486 -0.8613
  587MOL0     C79175  11.779   5.564   8.271  0.0046 -0.7366  0.2536
  587MOL0     C79176  11.193   5.120   8.486  0.3138  0.1890 -0.1512
  587MOL0     C79177  11.056   5.093   8.490  0.4573 -0.1449  0.0461
  587MOL0     H79178  10.607   4.956   8.448 -1.4499  0.6912  1.0411
  587MOL0     H79179  10.418   4.781   8.523 -0.0578  1.8163 -1.7435
  587MOL0     H79180  10.239   4.875   8.725  0.6636 -1.2153 -2.2789
  587MOL0     H79181  10.197   4.707   8.692  0.1922  2.1756 -1.6983
  587MOL0     H79182  10.190   4.658   8.937 -2.6690  0.7742  1.8933
  587MOL0     H79183  10.262   4.818   8.984 -1.3469 -0.0813  0.8875
  587MOL0     H79184  10.037   4.836   9.032  0.3987  1.1378  1.0379
  587MOL0     H79185  10.055   4.926   8.887 -0.7650  0.7320  1.8788
  587MOL0     H79186   9.949   4.751   8.759  0.0851 -0.1918 -0.9696
  587MOL0     H79187   9.964   4.629   8.898  2.0505  1.3823  2.9509
  587MOL0     H79188   9.783   4.735   9.026 -0.6158 -0.8285 -0.5886
  587MOL0     H79189   9.825   4.881   8.947  0.3433 -0.7468  1.7723
  587MOL0     H79190   9.710   4.784   8.732 -2.7657 -2.4895 -1.5441
  587MOL0     H79191   9.660   4.645   8.837 -2.3580  1.1233 -0.8997
  587MOL0     H79192   9.591   4.931   8.879 -1.5619 -0.3841 -0.8059
  587MOL0     H79193   9.477   4.817   8.812 -1.6221 -2.1589  1.1053
  587MOL0     H79194   9.575   4.843   9.099 -0.8124  0.5945  1.2608
  587MOL0     H79195   9.540   4.690   9.049  1.4463  0.9513  3.6685
  587MOL0     H79196   9.323   5.024   9.052 -0.5410 -0.0389 -0.4736
  587MOL0     H79197   9.053   5.066   9.008 -0.8646 -1.7664  1.8241
  587MOL0     H79198   9.048   5.005   8.849 -0.3605 -0.9225 -0.1613
  587MOL0     H79199   8.902   4.810   8.927 -1.6319 -0.0129  0.8719
  587MOL0     H79200   8.825   4.965   8.946  1.7773  2.7586 -3.7020
  587MOL0     H79201   8.950   4.971   9.185  1.4266  0.6686 -2.6557
  587MOL0     H79202   8.936   4.789   9.169 -1.7730 -0.4243  0.6535
  587MOL0     H79203   8.688   4.968   9.144 -0.1996 -0.9833  0.7278
  587MOL0     H79204   8.721   4.867   9.280  0.8449  2.4572  0.8898
  587MOL0     H79205   8.537   4.654   8.913  0.7552  1.7356 -1.1969
  587MOL0     H79206   8.170   4.584   8.894  0.7093  0.5366  2.4503
  587MOL0     H79207   8.264   4.688   8.788  3.0204 -2.5584 -1.9714
  587MOL0     H79208   8.328   4.536   8.826 -0.6043 -1.2447  0.5782
  587MOL0     H79209   7.902   4.968   9.065  0.3229  0.8562  1.4992
  587MOL0     H79210   7.673   5.008   9.125 -0.9021 -0.2774  1.3071
  587MOL0     H79211   7.458   5.005   9.237  1.1475 -2.5364 -0.2152
  587MOL0     H79212   7.475   5.004   9.061  0.7694  1.9032  0.7347
  587MOL0     H79213   7.242   5.056   9.096  1.7661  0.6078 -2.1411
  587MOL0     H79214   7.263   4.881   9.047 -1.4651 -1.8791  1.7125
  587MOL0     H79215   7.262   4.949   9.337 -0.5699  0.1947  1.2738
  587MOL0     H79216   7.189   4.805   9.258 -0.7142  0.6810  0.6631
  587MOL0     H79217   7.042   4.928   9.355  2.0926 -4.6752 -1.5448
  587MOL0     H79218   7.091   5.084   9.276 -0.1928  0.6477  0.5968
  587MOL0     H79219   6.931   4.850   9.157 -0.2502  0.9447  0.5367
  587MOL0     H79220   7.014   4.966   9.052  0.8240  0.6336 -0.1514
  587MOL0     H79221   6.803   5.060   9.240  0.8980 -1.0929  0.5959
  587MOL0     H79222   6.911   5.161   9.145  0.5689 -0.8485  1.5715
  587MOL0     H79223   6.712   4.951   9.042 -1.3967  0.2895  0.0448
  587MOL0     H79224   6.836   5.040   8.940  0.6449 -1.2217  0.7039
  587MOL0     H79225   6.624   5.152   8.920  1.5464  0.3483 -0.8607
  587MOL0     H79226   6.723   5.255   9.030  3.5370 -1.6592  3.1408
  587MOL0     H79227   7.586   4.593   9.042 -1.2262 -0.2883  2.8441
  587MOL0     H79228   7.826   4.556   8.977  1.0632  0.7141 -0.2311
  587MOL0     H79229   8.276   4.811   9.294  1.3514 -0.2789  1.4439
  587MOL0     H79230   8.521   4.845   9.284  2.1154 -0.5155 -0.9932
  587MOL0     H79231  10.564   4.829   8.921  1.6081  0.7067  0.2848
  587MOL0     H79232  10.761   4.967   8.842  0.6574  1.0624 -0.7666
  587MOL0     H79233  10.920   5.394   8.521 -2.3868 -1.7966 -0.7373
  587MOL0     H79234  11.162   5.460   8.531 -2.8637  0.7746  1.4937
  587MOL0     H79235  11.471   5.355   8.331  2.5719  1.8776  2.1045
  587MOL0     H79236  11.316   5.441   8.361 -1.6211 -1.1158 -0.4457
  587MOL0     H79237  11.401   5.526   8.565 -1.1850  0.0088 -1.2090
  587MOL0     H79238  11.470   5.589   8.421 -0.3705  0.1018  0.6683
  587MOL0     H79239  11.588   5.392   8.630  3.6394 -1.6473 -0.7959
  587MOL0     H79240  11.640   5.554   8.597 -0.1029  0.5056 -2.3404
  587MOL0     H79241  11.684   5.300   8.435  0.4323  0.0994  0.5505
  587MOL0     H79242  11.809   5.378   8.525  1.2108 -2.6525 -1.2023
  587MOL0     H79243  11.819   5.628   8.194 -2.2500  0.1942 -0.2319
  587MOL0     H79244  11.271   5.049   8.463  1.9889  1.0202  2.5720
  587MOL0     H79245  11.032   4.987   8.491  0.2835 -0.1155 -0.4950
  588MOL0     O79246   2.585   4.598   9.898 -0.0206  0.1855  0.0422
  588MOL0     C79247   2.652   4.580   9.797 -0.0173  0.0263  0.4527
  588MOL0     O79248   2.608   4.573   9.668 -0.0125 -0.6529  0.5551
  588MOL0     C79249   2.473   4.581   9.644  0.5857  0.3982 -0.0353
  588MOL0     C79250   2.418   4.481   9.568 -0.1475  0.0723 -0.3157
  588MOL0     C79251   2.288   4.494   9.524  0.7960  0.0266 -0.3237
  588MOL0     C79252   2.207   4.604   9.573  0.3728  0.0528 -0.1797
  588MOL0     O79253   2.078   4.610   9.532 -0.1788 -0.4127 -0.3862
  588MOL0     C79254   2.022   4.745   9.526  0.5062  0.4951  0.9504
  588MOL0     C79255   1.933   4.748   9.402 -0.0682 -0.9898 -0.0792
  588MOL0     C79256   1.787   4.749   9.430  0.9580  0.3558 -0.2178
  588MOL0     C79257   1.704   4.723   9.302  0.8131 -0.2794 -0.0674
  588MOL0     C79258   1.559   4.729   9.353  0.9845 -0.4962 -1.1953
  588MOL0     C79259   1.452   4.732   9.242  0.2770  0.2428  0.1060
  588MOL0     C79260   1.312   4.755   9.309  1.0336 -0.7994 -0.3628
  588MOL0     C79261   1.197   4.762   9.200 -0.2145  0.1215 -0.1565
  588MOL0     N79262   1.058   4.770   9.253  0.1669 -0.0752 -0.7388
  588MOL0     C79263   0.994   4.887   9.272 -0.7139 -0.5495 -0.7297
  588MOL0     C79264   0.867   4.854   9.300  0.1925  0.3326 -0.1325
  588MOL0     C79265   0.746   4.947   9.340  0.4558  0.5016  1.1589
  588MOL0     C79266   0.751   4.977   9.498 -0.0201  0.5351 -0.5536
  588MOL0     C79267   0.676   5.106   9.540 -0.0423  0.3731  0.6473
  588MOL0     C79268   0.525   5.075   9.550 -0.2724  0.2133 -0.5558
  588MOL0     O79269   0.501   4.984   9.656  0.1879  0.0007 -0.1843
  588MOL0     C79270   0.370   4.980   9.704  0.4831  1.1317  0.2856
  588MOL0     C79271   0.345   4.936   9.838 -0.5350 -0.3330  0.3259
  588MOL0     C79272   0.218   4.925   9.897  0.2893 -0.7217 -0.2227
  588MOL0     C79273   0.203   4.888  10.041  0.4207 -0.3683 -0.4651
  588MOL0     C79274   0.110   4.960   9.812 -0.2097 -0.1631 -0.3313
  588MOL0     C79275  -0.029   4.966   9.857 -0.2187 -0.4357  0.4694
  588MOL0     O79276  -0.104   5.074   9.817 -0.3084  0.3004  0.2986
  588MOL0     C79277  -0.237   5.043   9.822  0.7658 -0.7005 -0.5115
  588MOL0     C79278  -0.329   5.110   9.909 -0.1522  0.5333 -0.2521
  588MOL0     C79279  -0.465   5.078   9.919 -0.4501 -0.8378  0.8453
  588MOL0     C79280  -0.526   4.987   9.826  0.0066 -0.1534  0.4417
  588MOL0     O79281  -0.661   4.941   9.825 -0.1927  0.3554 -0.3358
  588MOL0     C79282  -0.754   5.014   9.909  0.1566  0.7216  0.1427
  588MOL0     C79283  -0.864   4.906   9.946 -0.3668  0.1782  0.6978
  588MOL0     C79284  -0.970   4.965  10.032  0.4478  0.4435  0.4310
  588MOL0     C79285  -1.066   4.862  10.086  0.3508 -0.6412 -0.5589
  588MOL0     C79286  -1.174   4.918  10.172 -0.3635 -0.8206 -0.0097
  588MOL0     C79287  -1.205   4.815  10.282  0.5527 -0.7632 -0.0955
  588MOL0     C79288  -1.300   4.869  10.391  0.2798 -0.5127 -0.3056
  588MOL0     C79289  -1.343   4.766  10.493 -0.1096 -0.3061  0.1327
  588MOL0    Cl79290  -1.463   4.844  10.601  0.0307 -0.1966  0.0276
  588MOL0     C79291  -0.443   4.931   9.724 -0.5446  0.4589  0.1797
  588MOL0     C79292  -0.306   4.959   9.727  0.0639 -0.7302 -0.3172
  588MOL0     O79293  -0.074   4.867   9.913 -0.7807 -0.4470 -0.2704
  588MOL0     C79294   0.132   4.985   9.675  0.3878 -0.4315 -0.1747
  588MOL0     C79295   0.259   4.997   9.621 -0.5013 -0.0901  0.5537
  588MOL0     N79296   0.853   4.716   9.309 -0.3632  0.3067 -0.3549
  588MOL0     N79297   0.971   4.666   9.275 -0.0829  0.6277  0.1844
  588MOL0     C79298   2.259   4.696   9.661 -0.2058 -0.2652 -0.2028
  588MOL0     C79299   2.396   4.692   9.694 -0.1877  0.9268 -0.7011
  588MOL0     C79300   2.797   4.571   9.809  1.4197  0.4355  0.5530
  588MOL0     C79301   2.877   4.527   9.695  0.3111 -1.1541 -0.1641
  588MOL0     C79302   3.024   4.520   9.715  0.0419  0.1069  1.2826
  588MOL0     C79303   3.090   4.554   9.834 -0.5969 -1.2345  0.4422
  588MOL0     O79304   3.225   4.555   9.856 -0.6821 -1.2472  0.9019
  588MOL0     C79305   3.321   4.552   9.747  0.8692 -0.6189  0.1682
  588MOL0     C79306   3.466   4.578   9.787  0.0504 -0.0771  0.6915
  588MOL0     C79307   3.481   4.725   9.834 -0.4593 -0.6398  0.0676
  588MOL0     C79308   3.606   4.742   9.930 -0.3548  0.0261  0.6889
  588MOL0     C79309   3.733   4.717   9.868  0.6135 -0.6386  0.0436
  588MOL0     C79310   3.832   4.686   9.808 -0.2743  0.5532  0.1150
  588MOL0     C79311   3.013   4.573   9.943 -0.4161 -0.4361  1.1812
  588MOL0     C79312   2.873   4.592   9.931 -0.2438 -0.4791  0.1845
  588MOL0     H79313   2.479   4.392   9.562 -1.2579 -0.9227  1.8831
  588MOL0     H79314   2.251   4.416   9.459 -1.8187  1.2172 -0.3915
  588MOL0     H79315   1.954   4.759   9.611 -3.1414 -0.7110 -1.4977
  588MOL0     H79316   2.092   4.827   9.513 -0.4751  1.6221  2.3880
  588MOL0     H79317   1.958   4.844   9.356  0.5318 -0.9095  0.3913
  588MOL0     H79318   1.967   4.678   9.325  1.3228 -2.6805  1.9577
  588MOL0     H79319   1.751   4.677   9.505 -2.8648  0.0511 -2.0751
  588MOL0     H79320   1.765   4.850   9.466 -1.4527 -0.2040  0.0835
  588MOL0     H79321   1.733   4.797   9.227  3.1414 -0.1497  0.8892
  588MOL0     H79322   1.715   4.622   9.262 -0.6568  0.1881 -1.7843
  588MOL0     H79323   1.528   4.642   9.412 -1.1581  0.2832 -1.0856
  588MOL0     H79324   1.555   4.812   9.424  3.2409 -1.4415  0.1271
  588MOL0     H79325   1.482   4.811   9.173 -0.7838 -0.2263 -0.9345
  588MOL0     H79326   1.441   4.639   9.185  1.3904  0.0461  0.1938
  588MOL0     H79327   1.292   4.672   9.377 -0.7824 -1.2140 -1.3511
  588MOL0     H79328   1.321   4.842   9.375 -2.8672  0.6858 -1.5277
  588MOL0     H79329   1.211   4.680   9.128  0.6793 -0.2948  0.4721
  588MOL0     H79330   1.231   4.847   9.140 -0.4141 -0.3779 -0.9954
  588MOL0     H79331   1.038   4.985   9.262  1.4937 -1.5406 -1.3418
  588MOL0     H79332   0.766   5.040   9.285  0.2245 -1.1520 -1.9302
  588MOL0     H79333   0.650   4.902   9.312  0.9824 -0.3898  0.7800
  588MOL0     H79334   0.856   4.987   9.525 -0.2275 -0.3243  0.6405
  588MOL0     H79335   0.720   4.889   9.554  0.5172  0.3373 -0.5649
  588MOL0     H79336   0.686   5.189   9.470 -0.4031 -0.0870  0.0351
  588MOL0     H79337   0.711   5.136   9.639 -1.2593  0.6898  0.9908
  588MOL0     H79338   0.511   5.028   9.452  1.6070 -1.4033 -0.1196
  588MOL0     H79339   0.450   5.154   9.553 -1.2814 -0.6870 -1.1911
  588MOL0     H79340   0.436   4.915   9.893 -0.8142 -2.4000  0.0792
  588MOL0     H79341   0.146   4.970  10.087  1.4432  0.1283 -0.0398
  588MOL0     H79342   0.157   4.790  10.050  0.1698 -0.1470  0.8954
  588MOL0     H79343   0.303   4.886  10.086  2.0420  1.2386 -3.6377
  588MOL0     H79344  -0.271   5.180   9.968  1.1335  0.5102 -1.4614
  588MOL0     H79345  -0.526   5.130   9.992 -2.5139  0.5920 -1.7448
  588MOL0     H79346  -0.718   5.064   9.999  0.2696  4.0585 -1.5988
  588MOL0     H79347  -0.801   5.089   9.845 -1.2443 -0.5784 -0.4132
  588MOL0     H79348  -0.909   4.883   9.849  2.5670  0.6168 -0.8771
  588MOL0     H79349  -0.820   4.818   9.992  1.0056 -2.3287 -4.5811
  588MOL0     H79350  -1.033   5.037   9.979 -2.3951  0.6178  3.7163
  588MOL0     H79351  -0.915   5.027  10.102  3.9155 -0.7825 -1.0047
  588MOL0     H79352  -1.119   4.817  10.001 -0.6783 -0.4018 -0.0691
  588MOL0     H79353  -1.008   4.788  10.141  0.1747  2.7739  4.9850
  588MOL0     H79354  -1.267   4.934  10.117  0.2613  3.0950 -0.2184
  588MOL0     H79355  -1.139   5.012  10.216  2.1593 -0.2853 -2.7984
  588MOL0     H79356  -1.252   4.730  10.230  1.7116  0.0826 -2.6872
  588MOL0     H79357  -1.114   4.777  10.330 -1.3407 -2.8914  2.0583
  588MOL0     H79358  -1.386   4.905  10.333  1.7882  0.0648 -2.2816
  588MOL0     H79359  -1.260   4.952  10.450  1.5097 -1.2878 -0.0122
  588MOL0     H79360  -1.247   4.738  10.536  1.0028 -0.6602 -2.3816
  588MOL0     H79361  -1.379   4.680  10.435 -1.0306  0.4865 -0.4981
  588MOL0     H79362  -0.495   4.874   9.648 -0.7477 -0.3086  0.8799
  588MOL0     H79363  -0.244   4.922   9.646  1.0685  1.8069 -0.7828
  588MOL0     H79364   0.047   5.000   9.608  1.4825  0.2521 -1.4638
  588MOL0     H79365   0.266   5.015   9.514 -0.5152 -2.5744  0.0740
  588MOL0     H79366   2.207   4.787   9.688 -2.2659 -1.6895  0.8666
  588MOL0     H79367   2.434   4.774   9.755 -0.1759 -0.6310  1.5238
  588MOL0     H79368   2.845   4.495   9.596  3.0719 -2.7422 -0.6588
  588MOL0     H79369   3.083   4.488   9.630 -1.3900 -0.8186  0.5989
  588MOL0     H79370   3.319   4.458   9.693  4.2408 -1.0914  0.6658
  588MOL0     H79371   3.293   4.630   9.676 -1.0812 -0.8089  0.6767
  588MOL0     H79372   3.537   4.558   9.706 -0.1563 -0.7941  0.6792
  588MOL0     H79373   3.492   4.503   9.862  3.3802  0.4471  0.2186
  588MOL0     H79374   3.388   4.759   9.880  0.0663  2.5807 -0.9477
  588MOL0     H79375   3.494   4.787   9.744 -3.5360 -0.6857 -0.5063
  588MOL0     H79376   3.594   4.667  10.009 -3.3255 -0.9273 -0.5558
  588MOL0     H79377   3.620   4.841   9.973  0.0531  0.2159  0.1357
  588MOL0     H79378   3.924   4.664   9.758 -1.0489 -1.1812 -0.6245
  588MOL0     H79379   3.052   4.592  10.042 -1.3569 -1.5016  1.7759
  588MOL0     H79380   2.819   4.624  10.019  0.6583 -1.2048  1.0144
  589MOL0     O79381   8.016   7.720   5.775 -0.1485  0.0773  0.1897
  589MOL0     C79382   8.041   7.727   5.896  0.7020  0.3923  0.1293
  589MOL0     O79383   7.957   7.684   6.001 -0.5959  0.4016  0.4239
  589MOL0     C79384   7.850   7.607   5.985  0.1635  0.1620 -0.0036
  589MOL0     C79385   7.842   7.507   5.881  0.0200 -0.7520  0.4392
  589MOL0     C79386   7.730   7.413   5.888 -0.0647  1.0307  0.1133
  589MOL0     C79387   7.634   7.425   5.986  0.2169  1.0132  0.9993
  589MOL0     O79388   7.528   7.338   5.975 -0.2410 -0.0135  0.6953
  589MOL0     C79389   7.406   7.402   5.979  1.1297  0.5028 -0.1985
  589MOL0     C79390   7.313   7.290   5.936  0.3792 -0.5446  0.3045
  589MOL0     C79391   7.180   7.337   5.881  0.3116  0.8256 -0.1259
  589MOL0     C79392   7.091   7.202   5.863 -0.0692 -0.8684  0.8818
  589MOL0     C79393   6.946   7.225   5.823 -0.9665 -0.0245 -0.9158
  589MOL0     C79394   6.869   7.088   5.802  0.2728 -0.3009  0.5821
  589MOL0     C79395   6.727   7.112   5.749  0.0646 -0.5068  0.0315
  589MOL0     C79396   6.639   7.178   5.850 -0.4233 -0.1761  0.1999
  589MOL0     N79397   6.500   7.182   5.811  0.7129  0.4707  0.4351
  589MOL0     C79398   6.396   7.110   5.859 -0.6823 -0.6866 -0.7277
  589MOL0     C79399   6.287   7.163   5.822  0.3955 -0.1409 -0.4225
  589MOL0     C79400   6.147   7.131   5.878 -0.9278  0.0649  0.1969
  589MOL0     C79401   6.020   7.199   5.826  0.4574  0.4565 -0.0147
  589MOL0     C79402   6.014   7.178   5.673 -0.0241  0.2169  0.7935
  589MOL0     C79403   5.871   7.195   5.620 -0.4911 -0.0997 -0.4319
  589MOL0     O79404   5.837   7.337   5.627 -1.5525  0.7932 -0.3472
  589MOL0     C79405   5.707   7.381   5.605 -0.5817 -0.8330  0.9730
  589MOL0     C79406   5.697   7.522   5.610  1.1466  0.8677  0.6478
  589MOL0     C79407   5.567   7.577   5.594 -0.1885  0.4107 -0.1694
  589MOL0     C79408   5.555   7.729   5.596 -0.3496  0.4046  0.2536
  589MOL0     C79409   5.455   7.495   5.590 -0.5226 -0.2077  0.3068
  589MOL0     C79410   5.312   7.544   5.573 -0.0373 -0.1198  0.0131
  589MOL0     O79411   5.222   7.457   5.621  0.4684  0.1715 -0.3339
  589MOL0     C79412   5.089   7.475   5.590 -0.6133 -0.0625  0.3005
  589MOL0     C79413   4.997   7.482   5.689  0.5642  0.2605 -0.1459
  589MOL0     C79414   4.857   7.491   5.657 -0.5313  0.3746 -0.2206
  589MOL0     C79415   4.813   7.477   5.532 -0.8784  0.3991  0.3281
  589MOL0     O79416   4.677   7.480   5.499 -0.6449  0.3463 -0.5996
  589MOL0     C79417   4.628   7.345   5.460 -1.6054  0.6193 -1.4296
  589MOL0     C79418   4.624   7.253   5.582  0.2863  0.3045  0.3367
  589MOL0     C79419   4.517   7.306   5.685 -0.2062 -0.8532 -0.0334
  589MOL0     C79420   4.524   7.232   5.819  0.6113 -0.2013  0.1617
  589MOL0     C79421   4.644   7.258   5.905  0.0093 -0.4853  0.3799
  589MOL0     C79422   4.640   7.409   5.961  0.6237  0.0258  0.2555
  589MOL0     C79423   4.772   7.452   6.031  1.4286 -0.5990 -0.0417
  589MOL0     C79424   4.768   7.599   6.054  0.0646 -0.0131  0.5169
  589MOL0    Cl79425   4.915   7.642   6.151  0.2760 -0.2466 -0.1700
  589MOL0     C79426   4.909   7.467   5.426 -0.1962 -0.2747  0.3378
  589MOL0     C79427   5.054   7.466   5.451  0.1407 -0.3959  0.6594
  589MOL0     O79428   5.286   7.657   5.523  0.6588 -0.1623  0.1262
  589MOL0     C79429   5.472   7.360   5.608  0.1506 -0.4105 -0.5536
  589MOL0     C79430   5.596   7.301   5.608 -0.2802 -0.7275  0.8996
  589MOL0     N79431   6.317   7.273   5.743 -0.0317  0.7833 -0.5940
  589MOL0     N79432   6.438   7.275   5.731  0.2427  0.0423  0.7752
  589MOL0     C79433   7.645   7.518   6.085  0.3276  0.1489 -0.8502
  589MOL0     C79434   7.755   7.607   6.082 -0.3552 -0.1775  0.3322
  589MOL0     C79435   8.165   7.795   5.932  0.3577  0.9513  0.4956
  589MOL0     C79436   8.248   7.838   5.834  0.2376 -0.0418  0.1247
  589MOL0     C79437   8.367   7.899   5.876 -0.4770  0.6354 -0.9860
  589MOL0     C79438   8.404   7.923   6.011  0.2488 -0.8168  0.2337
  589MOL0     O79439   8.517   7.976   6.062  0.3558  0.3609  1.0872
  589MOL0     C79440   8.595   8.051   5.964 -0.2925  0.4222 -0.2706
  589MOL0     C79441   8.727   8.103   6.031  0.0211  0.3337  0.0372
  589MOL0     C79442   8.704   8.193   6.157  0.6061  0.8717  0.2970
  589MOL0     C79443   8.667   8.343   6.123  0.0017  0.0874 -0.2843
  589MOL0     C79444   8.535   8.378   6.078 -0.4559  0.8450 -0.6405
  589MOL0     C79445   8.424   8.419   6.046 -0.3364 -0.3838  0.1793
  589MOL0     C79446   8.315   7.882   6.102  1.0608 -0.1591 -0.6311
  589MOL0     C79447   8.195   7.814   6.068 -0.8435 -0.3084 -0.6188
  589MOL0     H79448   7.924   7.496   5.811 -0.1253 -0.1864  0.1723
  589MOL0     H79449   7.726   7.330   5.817  2.5927 -2.0486  3.1648
  589MOL0     H79450   7.384   7.446   6.077  0.0129  2.3818 -1.2185
  589MOL0     H79451   7.404   7.483   5.905  2.4665 -1.2706 -2.2769
  589MOL0     H79452   7.362   7.225   5.863 -0.4235 -1.0236  0.1780
  589MOL0     H79453   7.288   7.221   6.018 -0.0533 -0.8893 -0.1101
  589MOL0     H79454   7.134   7.396   5.961  0.1692  0.0127  0.4063
  589MOL0     H79455   7.181   7.403   5.794 -3.5001  3.6919  1.7360
  589MOL0     H79456   7.134   7.128   5.796 -1.9074 -1.6155  0.4727
  589MOL0     H79457   7.097   7.149   5.959  2.5461 -1.9270  0.2071
  589MOL0     H79458   6.892   7.282   5.900  2.3983  0.8393  0.9943
  589MOL0     H79459   6.944   7.280   5.728  1.0678 -0.7451 -1.4150
  589MOL0     H79460   6.923   7.032   5.724 -0.9231 -1.3627  0.4957
  589MOL0     H79461   6.872   7.031   5.895  2.0330 -1.5222 -0.1512
  589MOL0     H79462   6.735   7.171   5.657  3.1678 -0.9327 -0.0726
  589MOL0     H79463   6.681   7.016   5.722 -1.7293 -0.0787  1.3471
  589MOL0     H79464   6.671   7.280   5.874 -4.9264  1.3820  0.4723
  589MOL0     H79465   6.636   7.116   5.940 -1.2659 -1.4994 -0.7154
  589MOL0     H79466   6.397   7.021   5.922 -0.0907 -0.8049 -0.8958
  589MOL0     H79467   6.135   7.022   5.876 -1.7525  0.1488 -1.8148
  589MOL0     H79468   6.161   7.164   5.982 -1.6772 -0.2334  0.3929
  589MOL0     H79469   6.020   7.304   5.858  0.7294  0.1555  0.9879
  589MOL0     H79470   5.935   7.143   5.867  1.4604 -0.2413  1.1763
  589MOL0     H79471   6.047   7.076   5.650  0.6367  0.0830  2.1935
  589MOL0     H79472   6.066   7.252   5.611 -2.9106  2.9784  1.4115
  589MOL0     H79473   5.803   7.142   5.687 -2.1869  2.1653 -0.2337
  589MOL0     H79474   5.851   7.157   5.520 -0.6438 -0.6691 -0.1867
  589MOL0     H79475   5.784   7.587   5.614  1.5583  0.2440  3.3285
  589MOL0     H79476   5.655   7.772   5.581  0.5230 -2.4091 -3.3899
  589MOL0     H79477   5.481   7.771   5.527 -1.6303 -1.8951  0.1396
  589MOL0     H79478   5.521   7.756   5.697 -1.0342  0.5068  0.0014
  589MOL0     H79479   5.032   7.492   5.792  1.4160  0.9657 -0.4911
  589MOL0     H79480   4.793   7.486   5.744  2.0620  0.9141  1.8310
  589MOL0     H79481   4.528   7.356   5.417 -0.9756  1.4665 -2.7391
  589MOL0     H79482   4.697   7.308   5.385  1.1253  0.6593  0.8990
  589MOL0     H79483   4.595   7.153   5.547  2.0671  0.2647 -1.2127
  589MOL0     H79484   4.724   7.234   5.623  0.2445 -3.1328 -0.8314
  589MOL0     H79485   4.415   7.289   5.648  0.1913 -2.5373 -0.4292
  589MOL0     H79486   4.537   7.413   5.694  0.6108 -0.9945 -0.1687
  589MOL0     H79487   4.434   7.261   5.873  2.4812  3.5303  1.6249
  589MOL0     H79488   4.529   7.123   5.808  1.9877 -0.6517  3.9203
  589MOL0     H79489   4.733   7.230   5.848 -0.2780 -2.1056  0.6887
  589MOL0     H79490   4.644   7.191   5.991 -1.5875  1.4745  2.0109
  589MOL0     H79491   4.628   7.477   5.876 -0.7443  0.5738  0.8599
  589MOL0     H79492   4.559   7.419   6.034 -0.2722  1.1200 -0.8453
  589MOL0     H79493   4.849   7.433   5.956 -0.2074 -0.9665 -1.7004
  589MOL0     H79494   4.785   7.405   6.130  0.0329  1.4074  1.1613
  589MOL0     H79495   4.675   7.626   6.104 -1.0342  0.3572 -1.6158
  589MOL0     H79496   4.765   7.650   5.957 -2.3618  0.1767  0.6373
  589MOL0     H79497   4.864   7.465   5.327  3.5954  0.6341 -1.6283
  589MOL0     H79498   5.122   7.447   5.369 -1.7357 -2.4574 -0.5264
  589MOL0     H79499   5.394   7.284   5.609  0.6467 -0.9281 -0.5186
  589MOL0     H79500   5.598   7.193   5.611 -0.2799 -0.9490 -2.6712
  589MOL0     H79501   7.575   7.518   6.168  0.6954 -0.4540 -0.5370
  589MOL0     H79502   7.774   7.684   6.157  0.6356  0.7831 -0.8638
  589MOL0     H79503   8.222   7.845   5.729 -2.2961  1.7316  0.7845
  589MOL0     H79504   8.428   7.935   5.794 -0.8214  0.3968 -1.3522
  589MOL0     H79505   8.622   7.998   5.872 -0.8428  2.0442 -1.4198
  589MOL0     H79506   8.548   8.143   5.928  0.0940  1.4487  1.7346
  589MOL0     H79507   8.779   8.172   5.964 -0.5364  0.2017 -0.5432
  589MOL0     H79508   8.792   8.016   6.042 -2.5861 -1.9305 -1.0342
  589MOL0     H79509   8.799   8.202   6.210  2.9228  1.1198 -3.5427
  589MOL0     H79510   8.628   8.161   6.230  3.6167 -1.3882  2.7253
  589MOL0     H79511   8.739   8.389   6.055 -1.0069 -0.7017 -1.9187
  589MOL0     H79512   8.662   8.398   6.218 -3.9533 -3.1808  1.7334
  589MOL0     H79513   8.324   8.452   6.032 -0.3307  0.5683  2.1079
  589MOL0     H79514   8.333   7.891   6.209  1.1672  0.8833 -0.7248
  589MOL0     H79515   8.128   7.790   6.150 -0.3140  1.0389  0.2351
  590MOL0     O79516   0.287  10.064  11.117 -0.1882 -0.0293  0.3520
  590MOL0     C79517   0.340  10.048  11.226  0.1457 -0.0098 -0.3771
  590MOL0     O79518   0.310  10.120  11.339 -0.7418  0.0147  0.1742
  590MOL0     C79519   0.215  10.214  11.307 -0.2925 -0.1805 -0.1430
  590MOL0     C79520   0.079  10.186  11.340  0.2118 -0.8140  0.5828
  590MOL0     C79521  -0.019  10.280  11.304 -0.1728  0.1438 -0.7157
  590MOL0     C79522   0.013  10.404  11.246  0.3015  0.7659 -0.5435
  590MOL0     O79523  -0.084  10.502  11.234  0.7683  0.8821  0.1707
  590MOL0     C79524  -0.095  10.559  11.107  0.4109 -1.0710  0.1899
  590MOL0     C79525  -0.218  10.654  11.119  0.0042  0.2737  1.2405
  590MOL0     C79526  -0.356  10.581  11.130  0.1106  0.5191 -0.3731
  590MOL0     C79527  -0.468  10.676  11.107  0.1660 -0.0031 -0.4804
  590MOL0     C79528  -0.589  10.595  11.047 -0.3324 -0.5082 -0.7262
  590MOL0     C79529  -0.705  10.683  10.995 -0.2242 -0.3386 -1.0001
  590MOL0     C79530  -0.826  10.586  10.976 -0.3150  0.3140  0.4116
  590MOL0     C79531  -0.938  10.636  10.892 -0.7004  0.3292  1.5040
  590MOL0     N79532  -0.894  10.672  10.757  0.4884 -0.6540  0.8273
  590MOL0     C79533  -0.873  10.588  10.650 -0.2281 -0.2531  0.1024
  590MOL0     C79534  -0.828  10.660  10.547  0.0533 -0.2597 -1.3250
  590MOL0     C79535  -0.809  10.605  10.416 -0.3492 -0.7449  0.5400
  590MOL0     C79536  -0.950  10.609  10.345  1.5092 -0.0187 -0.3782
  590MOL0     C79537  -0.962  10.741  10.269 -0.5787  0.0560 -0.0037
  590MOL0     C79538  -1.090  10.738  10.182  0.4167  0.7151 -0.2993
  590MOL0     O79539  -1.209  10.752  10.270 -0.6547 -0.3153 -0.0988
  590MOL0     C79540  -1.320  10.803  10.218  0.2270 -0.5216  0.0794
  590MOL0     C79541  -1.440  10.771  10.280 -0.1806 -0.7607  0.2856
  590MOL0     C79542  -1.561  10.826  10.240 -0.4460 -0.6951  0.1975
  590MOL0     C79543  -1.680  10.761  10.315  0.0321  0.0914 -0.3379
  590MOL0     C79544  -1.565  10.922  10.139 -0.4443  0.8737  0.5029
  590MOL0     C79545  -1.689  11.006  10.099  0.5714 -0.2090  0.6672
  590MOL0     O79546  -1.812  10.966  10.155  1.4146  0.4449 -0.3872
  590MOL0     C79547  -1.929  11.031  10.133 -0.1451  0.2861 -0.0696
  590MOL0     C79548  -2.032  10.999  10.225 -0.4651  0.4914 -0.1344
  590MOL0     C79549  -2.164  11.033  10.209 -0.2725  0.1429 -0.1242
  590MOL0     C79550  -2.192  11.117  10.101  0.4012  0.2553 -0.5865
  590MOL0     O79551  -2.316  11.160  10.066 -0.1215  0.1076  0.6427
  590MOL0     C79552  -2.411  11.199  10.173  1.0422  0.3591 -0.4475
  590MOL0     C79553  -2.538  11.256  10.117  0.1630  0.0841 -1.0318
  590MOL0     C79554  -2.637  11.296  10.224 -0.3719  0.2824 -0.3086
  590MOL0     C79555  -2.749  11.198  10.249  0.0971  0.1916  0.0575
  590MOL0     C79556  -2.861  11.264  10.331 -0.2058 -0.0309 -0.6774
  590MOL0     C79557  -2.982  11.166  10.345 -0.4193 -0.1087  0.3130
  590MOL0     C79558  -3.065  11.232  10.458 -0.3373 -0.6123  0.0162
  590MOL0     C79559  -3.187  11.136  10.496 -0.2740  0.3902 -0.4251
  590MOL0    Cl79560  -3.246  11.183  10.657  0.4498  0.0091  0.2837
  590MOL0     C79561  -2.092  11.160  10.017  0.6968  0.8256  0.3593
  590MOL0     C79562  -1.961  11.117  10.032 -1.1000 -0.0829 -0.3192
  590MOL0     O79563  -1.673  11.110  10.040 -0.3367  0.3733 -0.3656
  590MOL0     C79564  -1.446  10.954  10.075 -0.1855  0.2553 -0.1907
  590MOL0     C79565  -1.328  10.899  10.113 -0.6723  0.0593 -0.2526
  590MOL0     N79566  -0.828  10.791  10.589  0.2378 -1.4593  0.0401
  590MOL0     N79567  -0.870  10.796  10.709  0.2327  0.0966 -0.2122
  590MOL0     C79568   0.149  10.434  11.242 -0.9341 -0.6385  1.1928
  590MOL0     C79569   0.248  10.344  11.271 -0.2865 -1.0273 -0.1527
  590MOL0     C79570   0.444   9.947  11.233  0.3600  0.2904  0.0466
  590MOL0     C79571   0.536   9.956  11.342 -0.8587  0.4826  0.2082
  590MOL0     C79572   0.646   9.867  11.335 -0.0227 -0.6970 -0.7123
  590MOL0     C79573   0.661   9.774  11.235  0.4006  0.0062  0.2068
  590MOL0     O79574   0.775   9.697  11.240 -0.3104  0.0219 -0.2110
  590MOL0     C79575   0.762   9.565  11.296  0.1210  0.0662 -1.0599
  590MOL0     C79576   0.736   9.453  11.200  0.1456  0.3141  0.3486
  590MOL0     C79577   0.752   9.314  11.260 -0.8805  0.4108  0.6175
  590MOL0     C79578   0.725   9.210  11.142  0.0117  0.2667  0.0312
  590MOL0     C79579   0.582   9.197  11.110 -0.3928 -0.0437 -0.1179
  590MOL0     C79580   0.466   9.210  11.087 -0.5841 -0.2712  0.7538
  590MOL0     C79581   0.562   9.765  11.136  0.0060  0.3337 -0.5913
  590MOL0     C79582   0.451   9.853  11.130  0.0941 -0.0417 -0.2968
  590MOL0     H79583   0.043  10.096  11.390  0.8599 -1.8817 -0.7968
  590MOL0     H79584  -0.118  10.246  11.336  1.7709 -2.1952  3.7216
  590MOL0     H79585  -0.012  10.622  11.075 -0.8669  0.9650  0.7243
  590MOL0     H79586  -0.123  10.483  11.033  0.8546 -0.4559 -0.6238
  590MOL0     H79587  -0.202  10.729  11.197 -0.8838  1.7819  0.0312
  590MOL0     H79588  -0.224  10.711  11.025  1.2250  0.7638  1.4482
  590MOL0     H79589  -0.363  10.503  11.054 -0.9522 -0.8860  1.0841
  590MOL0     H79590  -0.366  10.529  11.226  0.0074  0.0014 -0.6645
  590MOL0     H79591  -0.502  10.710  11.206 -1.8914  1.2907 -1.5592
  590MOL0     H79592  -0.448  10.760  11.040  0.0651  0.0189 -0.4832
  590MOL0     H79593  -0.545  10.540  10.963  1.3705 -1.7952  0.9147
  590MOL0     H79594  -0.624  10.522  11.119  0.8488  2.6525  3.4551
  590MOL0     H79595  -0.730  10.745  11.082 -0.3594 -1.7623  0.0214
  590MOL0     H79596  -0.682  10.752  10.914 -2.0009 -0.6139 -1.7791
  590MOL0     H79597  -0.799  10.500  10.915  0.8168  0.5346  0.5678
  590MOL0     H79598  -0.854  10.558  11.078 -0.1438 -2.7768 -0.2965
  590MOL0     H79599  -0.976  10.722  10.948 -0.2790  2.1610 -0.8512
  590MOL0     H79600  -1.017  10.562  10.884  0.2518 -0.5901  0.2257
  590MOL0     H79601  -0.897  10.482  10.648 -1.2578 -0.0640  1.4339
  590MOL0     H79602  -0.738  10.669  10.364 -1.5361  0.9366  0.8919
  590MOL0     H79603  -0.761  10.506  10.415 -0.9114 -1.0871  2.6822
  590MOL0     H79604  -1.028  10.606  10.422  0.0236 -0.9729 -1.8494
  590MOL0     H79605  -0.954  10.523  10.277  1.7073 -2.7185  2.7975
  590MOL0     H79606  -0.873  10.747  10.205  0.0641  0.7390  0.9169
  590MOL0     H79607  -0.974  10.817  10.348 -3.6547 -0.2737 -0.0541
  590MOL0     H79608  -1.094  10.639  10.135  2.4564 -0.4916  1.8969
  590MOL0     H79609  -1.082  10.816  10.106  1.3096  1.0744  0.1471
  590MOL0     H79610  -1.432  10.698  10.359  1.8600 -1.5042 -0.5299
  590MOL0     H79611  -1.741  10.721  10.233  1.1718  1.3331 -1.8731
  590MOL0     H79612  -1.652  10.670  10.368  0.5027  0.8506  0.7518
  590MOL0     H79613  -1.741  10.825  10.379  0.4703 -0.7232  0.9303
  590MOL0     H79614  -2.013  10.934  10.310 -1.3586 -1.6481 -1.4964
  590MOL0     H79615  -2.242  11.009  10.281  3.1927  1.5178  4.6236
  590MOL0     H79616  -2.435  11.111  10.233 -2.2389 -0.8301 -3.1232
  590MOL0     H79617  -2.353  11.269  10.233  2.7837 -0.2726 -1.3131
  590MOL0     H79618  -2.515  11.350  10.066 -1.7775 -0.6546 -3.4285
  590MOL0     H79619  -2.571  11.181  10.045 -0.6758 -0.1484 -0.4123
  590MOL0     H79620  -2.682  11.389  10.186 -0.9451 -0.8106 -2.4699
  590MOL0     H79621  -2.583  11.312  10.317 -1.0823 -2.1577  0.5921
  590MOL0     H79622  -2.784  11.158  10.153  0.9253 -0.5111  0.0271
  590MOL0     H79623  -2.701  11.116  10.303  1.0281  2.0672  2.2774
  590MOL0     H79624  -2.881  11.361  10.283  0.7300  0.9312  0.7921
  590MOL0     H79625  -2.834  11.300  10.430  0.9644  1.0330 -1.3424
  590MOL0     H79626  -3.037  11.159  10.251  0.5394 -0.9729 -0.1964
  590MOL0     H79627  -2.938  11.071  10.374  4.1508  1.5129 -0.4706
  590MOL0     H79628  -3.102  11.330  10.427 -2.2230 -1.4357 -0.4941
  590MOL0     H79629  -3.013  11.256  10.551 -0.6510  1.4662 -0.3044
  590MOL0     H79630  -3.147  11.034  10.503 -2.7498 -0.5765  0.7382
  590MOL0     H79631  -3.267  11.147  10.422 -2.1316  0.2096  1.4475
  590MOL0     H79632  -2.131  11.217   9.933 -0.8453  0.1396  0.5802
  590MOL0     H79633  -1.883  11.141   9.960 -0.1673 -0.2696  0.6071
  590MOL0     H79634  -1.457  11.028   9.996  2.4545  0.1516 -0.7556
  590MOL0     H79635  -1.235  10.933  10.069  0.1229  1.1652  2.1064
  590MOL0     H79636   0.194  10.520  11.192 -3.4855 -0.9184 -1.9611
  590MOL0     H79637   0.351  10.376  11.258 -0.3619 -0.4651  0.5455
  590MOL0     H79638   0.534  10.043  11.407  1.5026  1.5172 -0.9821
  590MOL0     H79639   0.724   9.883  11.410 -2.0449  1.0153  1.1621
  590MOL0     H79640   0.855   9.550  11.352  0.4646  2.0694 -1.0323
  590MOL0     H79641   0.687   9.569  11.376  1.3791  3.9739  0.1192
  590MOL0     H79642   0.810   9.471  11.121 -0.9886  0.8525 -0.6417
  590MOL0     H79643   0.636   9.462  11.156 -0.2915 -2.5378  0.5750
  590MOL0     H79644   0.681   9.302  11.343 -1.2392  0.1356  0.2757
  590MOL0     H79645   0.856   9.312  11.292 -1.0045 -1.6475  0.9938
  590MOL0     H79646   0.758   9.113  11.179  4.2005  1.2789 -0.5175
  590MOL0     H79647   0.782   9.231  11.051 -1.5147  0.4355 -0.9310
  590MOL0     H79648   0.361   9.204  11.064 -0.0490 -1.1200 -1.8121
  590MOL0     H79649   0.579   9.690  11.060 -0.3797 -0.3387 -0.0190
  590MOL0     H79650   0.388   9.859  11.042 -1.1822  1.2083  0.6537
  591MOL0     O79651   4.483   3.349   6.444  0.1801 -0.4502  0.8144
  591MOL0     C79652   4.450   3.234   6.468 -0.0025  0.1709  0.1667
  591MOL0     O79653   4.323   3.180   6.480  0.8718  0.4533  0.2785
  591MOL0     C79654   4.222   3.270   6.501 -0.2382  0.1552 -1.1528
  591MOL0     C79655   4.232   3.372   6.599  0.2260  0.2572 -0.3791
  591MOL0     C79656   4.126   3.457   6.635  0.6233  0.1713  0.2372
  591MOL0     C79657   4.007   3.447   6.566 -0.5892 -0.3240 -0.9768
  591MOL0     O79658   3.902   3.525   6.605  0.2553  0.9795  0.6805
  591MOL0     C79659   3.793   3.467   6.683 -0.1225  0.0011  0.0652
  591MOL0     C79660   3.738   3.573   6.781  0.0610 -0.0255  0.5027
  591MOL0     C79661   3.640   3.512   6.870  0.8405  0.0498  0.1466
  591MOL0     C79662   3.500   3.473   6.814 -0.4262 -0.0692 -0.6771
  591MOL0     C79663   3.435   3.604   6.767 -0.2516  0.1645  0.2602
  591MOL0     C79664   3.303   3.568   6.688 -0.2428  0.1319 -1.0854
  591MOL0     C79665   3.237   3.686   6.620 -0.5002  0.1285  0.4711
  591MOL0     C79666   3.160   3.791   6.705 -0.3527  0.0879  1.0422
  591MOL0     N79667   3.047   3.733   6.774 -1.2246 -0.3775  0.4469
  591MOL0     C79668   2.939   3.699   6.691 -0.5034  0.1648 -0.3730
  591MOL0     C79669   2.845   3.644   6.785 -1.1029 -1.2614 -0.3498
  591MOL0     C79670   2.710   3.581   6.769 -0.3731 -0.1383 -0.3222
  591MOL0     C79671   2.595   3.678   6.779  0.0649  0.1546 -0.0672
  591MOL0     C79672   2.577   3.771   6.660  1.8344  0.8135  1.3407
  591MOL0     C79673   2.526   3.695   6.535 -0.0800  0.2048 -0.1367
  591MOL0     O79674   2.408   3.610   6.563 -0.4741 -0.4193 -0.0080
  591MOL0     C79675   2.285   3.662   6.595 -0.2419 -0.7084 -1.0823
  591MOL0     C79676   2.244   3.803   6.602  0.7353  0.0273  0.1421
  591MOL0     C79677   2.107   3.840   6.629 -0.6735 -0.2721  0.1986
  591MOL0     C79678   2.075   3.987   6.625 -0.3252 -0.1815 -0.0157
  591MOL0     C79679   2.021   3.742   6.666 -0.2963  0.1007 -0.1532
  591MOL0     C79680   1.879   3.765   6.716 -0.2846 -0.1274 -0.1335
  591MOL0     O79681   1.793   3.657   6.715  0.2363  0.6492 -0.1204
  591MOL0     C79682   1.656   3.668   6.744  0.1079  0.1247  0.0252
  591MOL0     C79683   1.585   3.773   6.801  0.1107  0.1578 -0.4822
  591MOL0     C79684   1.452   3.767   6.832 -0.3022  0.1417 -0.5287
  591MOL0     C79685   1.370   3.662   6.786 -0.1617  0.9454  0.4883
  591MOL0     O79686   1.231   3.658   6.803  0.0132 -0.4366  0.7240
  591MOL0     C79687   1.202   3.557   6.906 -0.1897  0.1728  0.8606
  591MOL0     C79688   1.062   3.582   6.946 -0.7252  0.3118 -0.2110
  591MOL0     C79689   0.994   3.456   7.013  0.0529 -0.3029  0.9485
  591MOL0     C79690   1.051   3.420   7.150  0.0631 -0.2586 -0.4294
  591MOL0     C79691   0.995   3.282   7.210  0.1210  0.0573 -0.4283
  591MOL0     C79692   0.845   3.307   7.233  0.3137  0.3824  0.3416
  591MOL0     C79693   0.781   3.206   7.323  0.2768  0.7396 -0.2546
  591MOL0     C79694   0.624   3.240   7.341 -0.7417  0.6003 -0.5939
  591MOL0    Cl79695   0.555   3.222   7.185 -0.3705  0.1316  0.0963
  591MOL0     C79696   1.445   3.558   6.738 -0.4666 -0.4858  0.0703
  591MOL0     C79697   1.580   3.558   6.717 -0.3116  0.1172 -0.2726
  591MOL0     O79698   1.847   3.875   6.747  0.1958 -0.8262 -0.0906
  591MOL0     C79699   2.061   3.605   6.671  0.0180 -0.3440  0.4451
  591MOL0     C79700   2.187   3.568   6.630 -0.7219 -0.6466  0.1822
  591MOL0     N79701   2.908   3.653   6.907 -0.0780 -0.3601 -0.0896
  591MOL0     N79702   3.022   3.714   6.902  0.0764  0.5547  0.0248
  591MOL0     C79703   3.998   3.339   6.470 -0.0515 -0.2052 -0.5235
  591MOL0     C79704   4.104   3.259   6.430  0.7657 -0.8176  0.1687
  591MOL0     C79705   4.560   3.140   6.473 -0.1072 -0.1480  0.4828
  591MOL0     C79706   4.541   3.030   6.559  0.1786 -0.5962 -0.4920
  591MOL0     C79707   4.651   2.949   6.588  0.5979 -0.2216  0.6335
  591MOL0     C79708   4.775   2.965   6.519  0.0539 -0.0518 -0.4980
  591MOL0     O79709   4.884   2.883   6.536 -0.7786 -0.7575  0.9153
  591MOL0     C79710   4.881   2.758   6.599 -0.0079  0.0769 -0.5119
  591MOL0     C79711   5.005   2.687   6.653 -0.5018 -0.8619  0.4707
  591MOL0     C79712   5.073   2.775   6.759  0.5943 -0.0862 -0.1790
  591MOL0     C79713   5.185   2.705   6.829 -1.0961 -0.0054  0.0706
  591MOL0     C79714   5.230   2.798   6.941 -1.2454 -0.0189 -0.3039
  591MOL0     C79715   5.245   2.874   7.039  0.0934 -0.3397  0.6480
  591MOL0     C79716   4.785   3.078   6.433  0.6563 -0.1545  0.6757
  591MOL0     C79717   4.683   3.164   6.408  0.0500 -0.3230  0.8648
  591MOL0     H79718   4.332   3.378   6.642  0.4834 -2.1864 -0.5180
  591MOL0     H79719   4.137   3.520   6.722  0.1681 -0.9571  1.1322
  591MOL0     H79720   3.711   3.441   6.614  1.5221 -1.9155 -1.2568
  591MOL0     H79721   3.828   3.373   6.726 -1.2108 -0.7045 -0.5110
  591MOL0     H79722   3.813   3.624   6.842 -0.3373  0.5410  0.5307
  591MOL0     H79723   3.701   3.660   6.726  1.1629 -0.3246 -0.7740
  591MOL0     H79724   3.687   3.418   6.901  1.4708 -0.3901 -1.9769
  591MOL0     H79725   3.633   3.567   6.965  2.8595 -0.4166  0.6155
  591MOL0     H79726   3.505   3.404   6.729  2.4108  1.8020 -2.1945
  591MOL0     H79727   3.440   3.433   6.896  1.9347  0.6822  1.5658
  591MOL0     H79728   3.415   3.662   6.858 -1.7171 -0.3742  0.3129
  591MOL0     H79729   3.501   3.653   6.695 -0.0542  1.7127  1.4359
  591MOL0     H79730   3.321   3.485   6.619 -2.7159 -1.1717 -0.3000
  591MOL0     H79731   3.237   3.519   6.760  3.6380 -0.5686  2.3843
  591MOL0     H79732   3.309   3.738   6.556  0.2514  0.7211  1.7740
  591MOL0     H79733   3.172   3.637   6.546  0.1316  0.5569 -0.3779
  591MOL0     H79734   3.135   3.864   6.627 -0.6036 -0.3128  0.7428
  591MOL0     H79735   3.222   3.831   6.786 -1.7289 -0.3622  2.3606
  591MOL0     H79736   2.933   3.700   6.583 -2.1562 -2.4406 -0.3842
  591MOL0     H79737   2.703   3.530   6.673  2.3951  1.5437 -1.5521
  591MOL0     H79738   2.697   3.505   6.847 -0.1250 -0.9070 -1.0202
  591MOL0     H79739   2.621   3.731   6.870  1.8290  0.0087 -0.4346
  591MOL0     H79740   2.512   3.615   6.811  1.4582 -2.6396 -1.4790
  591MOL0     H79741   2.672   3.821   6.636  2.1638  0.7128  2.3670
  591MOL0     H79742   2.508   3.852   6.684 -0.5109  0.1898 -2.5275
  591MOL0     H79743   2.611   3.635   6.501  1.0699  1.5949  0.1940
  591MOL0     H79744   2.504   3.771   6.459 -1.1462  1.6154  1.5237
  591MOL0     H79745   2.316   3.882   6.581 -0.1618  0.1534 -2.8663
  591MOL0     H79746   2.162   4.050   6.606 -0.7643  0.2912 -0.4869
  591MOL0     H79747   2.003   4.013   6.547 -0.8557  1.1307  0.8823
  591MOL0     H79748   2.027   4.036   6.710 -0.0135  1.5004 -0.7676
  591MOL0     H79749   1.631   3.864   6.839  0.9287 -0.7394  0.7674
  591MOL0     H79750   1.399   3.837   6.896 -0.9333 -1.1122  0.3522
  591MOL0     H79751   1.209   3.456   6.863  0.1412  0.8017 -0.6181
  591MOL0     H79752   1.278   3.566   6.983  2.8805  1.0773 -2.0571
  591MOL0     H79753   1.074   3.664   7.019  0.7308  1.0486 -1.2218
  591MOL0     H79754   1.006   3.607   6.856  1.4082 -2.7165 -2.5597
  591MOL0     H79755   1.011   3.366   6.953  0.1593 -0.2914  0.9630
  591MOL0     H79756   0.887   3.478   7.024  0.3342  0.4240  2.3946
  591MOL0     H79757   1.160   3.415   7.162  0.0470 -2.5338 -0.8210
  591MOL0     H79758   1.019   3.501   7.217 -0.9916 -1.0161 -0.0039
  591MOL0     H79759   1.051   3.260   7.302  0.9552  1.0388 -0.6873
  591MOL0     H79760   1.015   3.198   7.144  0.5734 -0.5590  0.4733
  591MOL0     H79761   0.834   3.409   7.272  1.5133 -0.2280  2.4538
  591MOL0     H79762   0.790   3.302   7.139  0.7451 -0.5748  0.1319
  591MOL0     H79763   0.822   3.210   7.424 -1.5159  1.3435  0.4835
  591MOL0     H79764   0.798   3.105   7.284 -1.2581 -0.3668  1.7567
  591MOL0     H79765   0.608   3.343   7.376  1.1465  0.5390  0.6295
  591MOL0     H79766   0.578   3.168   7.409  1.5934 -0.4310  0.0013
  591MOL0     H79767   1.385   3.472   6.709 -1.8238  0.9439 -1.5889
  591MOL0     H79768   1.634   3.471   6.683 -0.3636 -0.2683  0.6051
  591MOL0     H79769   1.985   3.529   6.691 -0.8424 -0.0079 -1.3562
  591MOL0     H79770   2.223   3.467   6.616  0.4931 -0.5928  2.4201
  591MOL0     H79771   3.907   3.335   6.412 -0.0227  0.4500 -0.6304
  591MOL0     H79772   4.074   3.182   6.360 -1.4182  1.0494 -1.1045
  591MOL0     H79773   4.454   3.018   6.622  1.0662  3.9145  2.0425
  591MOL0     H79774   4.638   2.866   6.658 -0.3755 -0.0287  0.6951
  591MOL0     H79775   4.822   2.769   6.690  1.0214 -0.5646  0.2512
  591MOL0     H79776   4.817   2.692   6.540 -2.3138 -0.5747  2.4817
  591MOL0     H79777   5.074   2.665   6.571  1.5778 -0.8951  2.1410
  591MOL0     H79778   4.973   2.589   6.688  1.1599 -1.7226 -0.2995
  591MOL0     H79779   5.004   2.811   6.836 -0.1717  0.3364 -1.0467
  591MOL0     H79780   5.107   2.863   6.703 -0.9517  0.5314 -0.1982
  591MOL0     H79781   5.278   2.681   6.777  0.0805  0.8253  1.6821
  591MOL0     H79782   5.146   2.615   6.877 -3.4319  1.1124  0.4067
  591MOL0     H79783   5.253   2.933   7.129 -0.5457  1.6724 -0.5366
  591MOL0     H79784   4.877   3.103   6.382 -0.9685  1.2031 -1.8371
  591MOL0     H79785   4.684   3.240   6.330 -2.9091  0.4945  1.4677
  592MOL0     O79786   3.465   3.524   4.037  0.0922  0.7280  0.5002
  592MOL0     C79787   3.556   3.473   3.969 -0.1843  0.6328  0.0973
  592MOL0     O79788   3.541   3.403   3.845  0.0422  0.3485 -0.1620
  592MOL0     C79789   3.410   3.378   3.804  0.3627  0.4154 -0.7930
  592MOL0     C79790   3.314   3.303   3.889  0.8095 -0.3879  0.5762
  592MOL0     C79791   3.174   3.297   3.839 -0.4585  0.0500 -0.2876
  592MOL0     C79792   3.135   3.356   3.726 -0.0819  0.8301  0.3771
  592MOL0     O79793   3.001   3.335   3.700 -0.4588  0.9548  0.7187
  592MOL0     C79794   2.965   3.312   3.565  0.0177 -0.3884  1.2771
  592MOL0     C79795   2.845   3.216   3.573 -0.4607 -0.0442  0.1622
  592MOL0     C79796   2.766   3.204   3.443 -0.6192 -0.1582  0.1098
  592MOL0     C79797   2.623   3.157   3.445  0.8753 -0.1483  0.3780
  592MOL0     C79798   2.551   3.183   3.308  0.5912 -0.2254  0.5997
  592MOL0     C79799   2.408   3.127   3.316  0.3753 -0.6054 -0.2053
  592MOL0     C79800   2.335   3.132   3.184  0.4448 -0.4574  0.3581
  592MOL0     C79801   2.210   3.042   3.174  0.7557  1.0792  0.1096
  592MOL0     N79802   2.085   3.117   3.195  0.2157 -0.0459 -0.4279
  592MOL0     C79803   2.043   3.160   3.321  0.5739 -0.1528 -0.6694
  592MOL0     C79804   1.935   3.244   3.292 -0.2038  0.0405  0.1321
  592MOL0     C79805   1.845   3.316   3.396  0.8911 -1.2284 -0.0866
  592MOL0     C79806   1.911   3.362   3.523  0.5837  0.1109 -0.7405
  592MOL0     C79807   1.995   3.493   3.513 -0.6581 -0.3911 -0.9458
  592MOL0     C79808   1.910   3.619   3.541 -0.3110  0.2886  0.1330
  592MOL0     O79809   1.889   3.627   3.683  0.0363 -0.7194  0.2590
  592MOL0     C79810   1.828   3.744   3.721 -0.2071 -0.7746 -0.1338
  592MOL0     C79811   1.688   3.738   3.740  0.1712 -0.2609 -0.5034
  592MOL0     C79812   1.612   3.852   3.752 -0.3097  0.8749 -0.6861
  592MOL0     C79813   1.466   3.830   3.766 -0.7911 -0.6390 -0.2352
  592MOL0     C79814   1.680   3.980   3.759  0.5893 -0.3525  0.2112
  592MOL0     C79815   1.613   4.113   3.775 -0.1295 -0.7954 -0.2449
  592MOL0     O79816   1.492   4.100   3.842 -0.0906 -0.7262  0.3109
  592MOL0     C79817   1.420   4.211   3.885  0.2330  0.1683 -0.0157
  592MOL0     C79818   1.480   4.321   3.938  0.6261 -0.2891 -0.0932
  592MOL0     C79819   1.400   4.432   3.973 -0.8080  0.4639  0.6785
  592MOL0     C79820   1.268   4.436   3.954 -0.0210  0.1962 -0.6786
  592MOL0     O79821   1.189   4.534   4.002 -0.4174  0.5471 -0.1773
  592MOL0     C79822   1.254   4.666   4.012  0.1177  1.1101 -0.1708
  592MOL0     C79823   1.155   4.776   4.030  0.0757 -0.3440  0.8651
  592MOL0     C79824   1.036   4.780   3.923  0.1105 -0.1259 -0.2622
  592MOL0     C79825   0.945   4.906   3.949 -0.2336  0.0573 -0.9667
  592MOL0     C79826   0.830   4.903   3.853 -0.0989 -0.5351  0.2711
  592MOL0     C79827   0.751   5.033   3.837 -0.0589  0.0286 -0.3194
  592MOL0     C79828   0.823   5.140   3.763 -1.5074 -0.0572  0.0282
  592MOL0     C79829   0.726   5.251   3.734 -0.2617 -0.4369  0.3599
  592MOL0    Cl79830   0.597   5.223   3.609 -0.3611  0.0047 -0.3095
  592MOL0     C79831   1.201   4.319   3.904  1.2004 -0.0844 -0.0240
  592MOL0     C79832   1.278   4.207   3.872 -0.1221 -0.4449  0.0380
  592MOL0     O79833   1.665   4.226   3.736 -0.2774  0.4814  0.1451
  592MOL0     C79834   1.823   3.976   3.745  0.5088 -0.5372 -0.9187
  592MOL0     C79835   1.897   3.864   3.724 -1.2258  0.3430  0.1902
  592MOL0     N79836   1.929   3.249   3.154 -0.3095  1.0198  0.4770
  592MOL0     N79837   2.012   3.173   3.106 -0.7416  0.2453  0.5975
  592MOL0     C79838   3.238   3.418   3.645  0.1124 -0.1544 -0.1647
  592MOL0     C79839   3.368   3.432   3.685 -0.2804 -0.5277 -0.1345
  592MOL0     C79840   3.691   3.456   4.027 -0.6043 -0.8680 -0.5145
  592MOL0     C79841   3.725   3.520   4.146  0.2343 -0.1077 -0.3244
  592MOL0     C79842   3.850   3.503   4.212 -0.2800 -0.1550  0.6366
  592MOL0     C79843   3.943   3.419   4.153 -0.4847  0.9870  0.3740
  592MOL0     O79844   4.063   3.387   4.223 -0.1090  0.8042  0.3033
  592MOL0     C79845   4.052   3.394   4.365  0.3415 -0.0258 -0.7618
  592MOL0     C79846   4.142   3.305   4.437  0.1640 -0.1463  0.5163
  592MOL0     C79847   4.288   3.355   4.417  0.2755 -0.1254  0.5321
  592MOL0     C79848   4.384   3.252   4.486 -0.8435  0.1908 -0.1118
  592MOL0     C79849   4.467   3.195   4.376  0.5188  0.1162 -0.1107
  592MOL0     C79850   4.530   3.159   4.283  0.1462  1.0094 -0.8034
  592MOL0     C79851   3.907   3.345   4.036 -0.2501  0.5822 -0.2733
  592MOL0     C79852   3.787   3.367   3.974  0.7310 -0.2307 -0.0271
  592MOL0     H79853   3.346   3.266   3.985  1.8506 -0.8083  0.0851
  592MOL0     H79854   3.105   3.239   3.899 -1.5951  0.9588 -0.6739
  592MOL0     H79855   2.932   3.408   3.524  2.2459  0.2958  0.9574
  592MOL0     H79856   3.052   3.280   3.507  1.3910  3.2970  1.0853
  592MOL0     H79857   2.885   3.119   3.606  0.8319  0.0370 -1.0871
  592MOL0     H79858   2.777   3.248   3.653 -1.6863 -0.5612 -0.6406
  592MOL0     H79859   2.772   3.299   3.388  1.0358  0.8210  1.8743
  592MOL0     H79860   2.822   3.141   3.373 -1.8235 -0.1961 -0.8670
  592MOL0     H79861   2.627   3.051   3.470  1.7927 -0.5895 -1.4603
  592MOL0     H79862   2.576   3.212   3.527  1.5814  1.2989 -0.1495
  592MOL0     H79863   2.546   3.288   3.277 -3.8948 -1.0199 -2.3008
  592MOL0     H79864   2.618   3.124   3.245  1.7891  0.5313  1.1396
  592MOL0     H79865   2.429   3.024   3.347  1.4023 -0.1267  0.7657
  592MOL0     H79866   2.355   3.186   3.390  0.4922 -0.3200 -0.3476
  592MOL0     H79867   2.311   3.237   3.166 -0.1858 -0.4013  1.4452
  592MOL0     H79868   2.400   3.092   3.105  0.8675 -0.9308  0.9260
  592MOL0     H79869   2.213   2.950   3.233 -2.2528  0.7394 -0.0987
  592MOL0     H79870   2.203   3.007   3.071 -1.0127 -2.2717  1.2020
  592MOL0     H79871   2.086   3.156   3.420  0.3499 -0.6694 -0.5893
  592MOL0     H79872   1.794   3.402   3.351  0.3746 -1.1691  0.5896
  592MOL0     H79873   1.759   3.249   3.406 -0.6178  0.3457 -1.8492
  592MOL0     H79874   1.962   3.274   3.564 -0.5534  0.3492  1.3398
  592MOL0     H79875   1.822   3.375   3.585 -0.5647  2.0563 -2.6739
  592MOL0     H79876   2.050   3.501   3.419 -0.2566  0.7039 -0.6276
  592MOL0     H79877   2.073   3.498   3.589  0.0293 -2.9329 -1.3802
  592MOL0     H79878   1.822   3.622   3.475  0.7927  0.7512 -1.3824
  592MOL0     H79879   1.961   3.710   3.510 -1.1753  1.0621  0.9309
  592MOL0     H79880   1.636   3.643   3.752  1.3104 -0.7657  0.7342
  592MOL0     H79881   1.436   3.845   3.870  0.5648 -0.5989  0.1643
  592MOL0     H79882   1.419   3.903   3.699  0.5739  0.4592 -0.0356
  592MOL0     H79883   1.437   3.730   3.733 -3.0966  0.0120 -0.4007
  592MOL0     H79884   1.588   4.330   3.947  0.8245 -2.2095 -0.1020
  592MOL0     H79885   1.461   4.508   4.020  1.0270  0.1571 -1.0878
  592MOL0     H79886   1.313   4.659   4.104 -1.1565 -0.9495  0.5615
  592MOL0     H79887   1.318   4.684   3.926  1.6331 -1.2987  0.3637
  592MOL0     H79888   1.113   4.768   4.130 -2.2314 -0.5229 -0.0489
  592MOL0     H79889   1.206   4.871   4.014  0.4030 -0.7254 -0.5127
  592MOL0     H79890   0.974   4.690   3.923 -0.0288 -0.1097  2.3118
  592MOL0     H79891   1.079   4.803   3.825  0.7367  1.3347  0.3265
  592MOL0     H79892   0.917   4.909   4.054  0.3083 -0.8906 -0.7884
  592MOL0     H79893   1.000   4.999   3.931  0.4665 -0.0783  0.3778
  592MOL0     H79894   0.763   4.825   3.890 -1.3591 -0.4128 -1.6220
  592MOL0     H79895   0.858   4.876   3.751 -1.0193 -2.2360  0.4407
  592MOL0     H79896   0.651   5.007   3.802 -0.9829  3.2609 -0.3694
  592MOL0     H79897   0.735   5.084   3.932  0.4978 -0.5198  0.0747
  592MOL0     H79898   0.857   5.113   3.662  1.3808  2.2326  0.2377
  592MOL0     H79899   0.915   5.167   3.817 -1.1455 -0.3321 -0.4428
  592MOL0     H79900   0.781   5.337   3.695  0.1021 -1.7221 -2.1916
  592MOL0     H79901   0.670   5.278   3.824 -3.2312  0.2743 -1.5503
  592MOL0     H79902   1.093   4.326   3.902  0.9141 -1.3672  3.3675
  592MOL0     H79903   1.235   4.124   3.816 -1.6677  1.4510 -1.7592
  592MOL0     H79904   1.877   4.070   3.754  0.5736 -0.7618  1.7641
  592MOL0     H79905   2.003   3.856   3.704 -1.4815 -0.8335 -0.7802
  592MOL0     H79906   3.213   3.439   3.542 -0.8611 -0.9287 -0.1056
  592MOL0     H79907   3.441   3.495   3.634 -2.4534  0.6675 -1.9488
  592MOL0     H79908   3.649   3.581   4.194  0.9376 -0.4787  1.3515
  592MOL0     H79909   3.855   3.560   4.304 -0.9776 -0.5878  0.9562
  592MOL0     H79910   4.071   3.497   4.397 -2.1127  1.3881 -3.3312
  592MOL0     H79911   3.952   3.363   4.397  0.1098  1.7422  0.3824
  592MOL0     H79912   4.140   3.203   4.398  0.1481  0.6506 -1.6655
  592MOL0     H79913   4.117   3.300   4.544  2.1865 -3.2924  0.9657
  592MOL0     H79914   4.300   3.453   4.465  0.2644  0.3828 -0.4703
  592MOL0     H79915   4.297   3.352   4.308 -0.4480 -4.1539  0.4494
  592MOL0     H79916   4.333   3.174   4.544 -1.0756  0.7700  0.4694
  592MOL0     H79917   4.453   3.294   4.559  0.4779 -2.5937  0.4065
  592MOL0     H79918   4.594   3.128   4.203  0.9148  0.5876 -0.0396
  592MOL0     H79919   3.985   3.286   3.989 -0.5382  0.2876 -0.3889
  592MOL0     H79920   3.763   3.320   3.879 -1.7228  2.5560 -0.9458
  593MOL0     O79921  10.257   3.251   8.234  0.4169 -0.5227 -0.2507
  593MOL0     C79922  10.202   3.171   8.154 -0.5180 -0.1105 -0.2531
  593MOL0     O79923  10.069   3.172   8.119 -0.6241 -0.1155  0.0845
  593MOL0     C79924   9.979   3.248   8.185 -0.3463 -0.0455  0.2418
  593MOL0     C79925   9.886   3.323   8.111 -1.0170  0.2367 -0.1058
  593MOL0     C79926   9.791   3.403   8.176  0.7417  0.3495  0.2801
  593MOL0     C79927   9.766   3.384   8.312 -0.2008  0.4686  0.0549
  593MOL0     O79928   9.677   3.445   8.388  0.1875  0.1580 -0.2193
  593MOL0     C79929   9.557   3.510   8.332 -1.1450  0.1513  0.1255
  593MOL0     C79930   9.428   3.505   8.410 -0.4785  1.1497  1.2729
  593MOL0     C79931   9.324   3.576   8.317  0.2367  1.3876  0.1629
  593MOL0     C79932   9.199   3.608   8.404 -0.6180  0.6734  0.2953
  593MOL0     C79933   9.095   3.689   8.319 -0.4200  0.2389 -0.6842
  593MOL0     C79934   9.021   3.594   8.218  0.2364 -0.3162  0.3172
  593MOL0     C79935   8.898   3.670   8.186  0.3302 -0.1861  0.3356
  593MOL0     C79936   8.813   3.595   8.086 -0.2186 -0.2852  0.0993
  593MOL0     N79937   8.681   3.656   8.089 -0.1355  0.5881  0.0389
  593MOL0     C79938   8.630   3.730   7.983  0.7080 -0.4210  0.2840
  593MOL0     C79939   8.495   3.742   8.001 -0.3933 -0.2843  0.0194
  593MOL0     C79940   8.379   3.789   7.921  0.7148  0.3447 -0.9821
  593MOL0     C79941   8.307   3.673   7.846  0.0741  0.6310  0.4369
  593MOL0     C79942   8.193   3.730   7.753  0.4418  0.1587 -0.4264
  593MOL0     C79943   8.071   3.769   7.846 -1.4086  0.1517  0.8691
  593MOL0     O79944   8.009   3.655   7.901 -0.1269 -0.1683  0.0697
  593MOL0     C79945   7.882   3.673   7.952  0.1784  0.0448  0.3933
  593MOL0     C79946   7.810   3.558   7.996  0.5528 -0.6814 -0.5284
  593MOL0     C79947   7.682   3.558   8.050  0.1377 -0.0779 -0.5260
  593MOL0     C79948   7.611   3.426   8.096  0.0173  0.0840 -0.4891
  593MOL0     C79949   7.616   3.689   8.052 -0.1407 -0.2909 -0.1250
  593MOL0     C79950   7.475   3.720   8.096  0.0367  1.0188  0.1588
  593MOL0     O79951   7.415   3.842   8.076 -0.2947  0.1386 -0.5540
  593MOL0     C79952   7.292   3.871   8.126 -0.2519  0.3036 -0.0494
  593MOL0     C79953   7.200   3.930   8.050  0.4654 -0.7888 -0.3016
  593MOL0     C79954   7.080   3.988   8.097  0.4579  0.3236 -0.6231
  593MOL0     C79955   7.046   3.963   8.239 -0.6225 -0.3748 -0.5807
  593MOL0     O79956   6.938   3.999   8.305  0.4439 -0.3247 -0.4252
  593MOL0     C79957   6.835   4.073   8.245 -0.2533 -0.0366  0.4567
  593MOL0     C79958   6.721   4.082   8.346 -0.4228  0.0282  0.6923
  593MOL0     C79959   6.660   3.941   8.371 -0.0509 -0.3612  0.4134
  593MOL0     C79960   6.538   3.945   8.464  0.0594 -0.6973  1.6919
  593MOL0     C79961   6.474   3.808   8.485 -0.0502 -0.0396  0.4567
  593MOL0     C79962   6.357   3.821   8.581 -0.3430 -0.6111 -0.1710
  593MOL0     C79963   6.301   3.682   8.623  0.0739  0.3867  0.5080
  593MOL0     C79964   6.207   3.635   8.517  0.3960 -0.4886  0.5072
  593MOL0    Cl79965   6.031   3.660   8.553 -0.1348 -0.6425  0.0749
  593MOL0     C79966   7.139   3.898   8.318 -0.2256 -0.6291 -0.2528
  593MOL0     C79967   7.260   3.851   8.264 -1.1268  0.0120  0.1319
  593MOL0     O79968   7.423   3.625   8.158 -0.0491 -0.2980  0.3419
  593MOL0     C79969   7.687   3.799   8.005  0.0108  0.0437  0.2475
  593MOL0     C79970   7.821   3.795   7.960 -0.6660  0.5062 -0.1538
  593MOL0     N79971   8.473   3.677   8.121  0.0064 -0.6494 -0.5118
  593MOL0     N79972   8.578   3.626   8.174  0.0308  0.4831  0.0245
  593MOL0     C79973   9.837   3.285   8.383  0.0854  0.7925  0.6488
  593MOL0     C79974   9.947   3.226   8.319 -0.6150 -0.2101 -1.7216
  593MOL0     C79975  10.291   3.089   8.073 -0.6171 -0.5088 -0.0593
  593MOL0     C79976  10.429   3.103   8.087 -0.3832  0.2871 -0.0919
  593MOL0     C79977  10.516   3.042   7.995 -0.3644  0.4445  0.8632
  593MOL0     C79978  10.482   2.958   7.901 -0.3870  0.0147  0.4338
  593MOL0     O79979  10.586   2.918   7.826  0.0551  0.4459 -0.6708
  593MOL0     C79980  10.562   2.837   7.712 -0.5076  0.2307 -0.2598
  593MOL0     C79981  10.683   2.799   7.630  0.7729  0.2209 -0.1053
  593MOL0     C79982  10.751   2.927   7.583 -0.1642  0.1353 -0.0136
  593MOL0     C79983  10.698   2.983   7.460 -0.1867  0.3134  0.3153
  593MOL0     C79984  10.784   3.056   7.378 -0.0875 -0.1597  0.4842
  593MOL0     C79985  10.861   3.117   7.310  0.9971  0.3467 -0.7926
  593MOL0     C79986  10.339   2.927   7.901  0.0792 -0.3583 -0.2430
  593MOL0     C79987  10.246   2.994   7.987  0.5170  0.2757  0.7920
  593MOL0     H79988   9.908   3.316   8.005 -1.2835  0.2396 -0.1624
  593MOL0     H79989   9.723   3.465   8.120 -2.4230 -1.7304  1.5096
  593MOL0     H79990   9.581   3.615   8.314 -3.0789  0.6573  0.3365
  593MOL0     H79991   9.535   3.467   8.234 -1.6258  1.6162 -0.4276
  593MOL0     H79992   9.409   3.397   8.416  1.7760  0.3050 -2.9293
  593MOL0     H79993   9.443   3.557   8.505 -2.2493  1.9548  1.1485
  593MOL0     H79994   9.367   3.667   8.273  0.5074  1.4030  0.4546
  593MOL0     H79995   9.281   3.514   8.237 -3.0612  3.1181  0.4172
  593MOL0     H79996   9.166   3.509   8.438 -0.0844  0.1295 -0.7107
  593MOL0     H79997   9.223   3.657   8.499  0.8063 -0.0297  0.3282
  593MOL0     H79998   9.024   3.742   8.384 -0.1002  0.5298 -0.5679
  593MOL0     H79999   9.138   3.768   8.257 -0.1800  2.0220  1.6000
  593MOL0     H80000   9.090   3.575   8.136 -0.7033 -2.7205 -0.0302
  593MOL0     H80001   8.987   3.495   8.251 -2.1289 -0.2216 -1.5618
  593MOL0     H80002   8.844   3.681   8.280  0.3463 -0.3699  0.3675
  593MOL0     H80003   8.923   3.770   8.151  0.2300  0.9553  3.2752
  593MOL0     H80004   8.807   3.488   8.110 -0.4527 -0.2707  0.1069
  593MOL0     H80005   8.872   3.599   7.994  0.1833 -3.5043  0.0978
  593MOL0     H80006   8.680   3.764   7.893  0.1417 -3.4783 -1.3338
  593MOL0     H80007   8.314   3.834   7.996 -0.4756  0.1903 -1.8892
  593MOL0     H80008   8.409   3.859   7.842  0.2423 -1.1826 -2.5762
  593MOL0     H80009   8.281   3.585   7.904 -0.5032  0.1850 -0.4724
  593MOL0     H80010   8.381   3.639   7.773 -1.0090 -0.6523 -0.1003
  593MOL0     H80011   8.159   3.651   7.685  0.6252  1.8844 -2.6540
  593MOL0     H80012   8.226   3.815   7.694  0.9087  0.3644  0.1269
  593MOL0     H80013   8.002   3.824   7.780 -0.2345  0.8953  0.2274
  593MOL0     H80014   8.111   3.834   7.925  1.6515  1.9742 -1.8978
  593MOL0     H80015   7.863   3.464   7.984  2.9118  0.4854  0.0892
  593MOL0     H80016   7.697   3.358   8.098 -1.1419 -1.4142  0.1078
  593MOL0     H80017   7.574   3.444   8.197 -0.9225  2.8454 -1.2570
  593MOL0     H80018   7.539   3.383   8.026  0.0917  0.9089 -1.0910
  593MOL0     H80019   7.231   3.934   7.946  1.1103  0.6989 -0.0789
  593MOL0     H80020   7.010   4.044   8.036 -0.1859  2.0706  1.5828
  593MOL0     H80021   6.871   4.174   8.225  1.9645 -0.8677 -0.0104
  593MOL0     H80022   6.809   4.016   8.155  1.9593 -1.8599  0.8871
  593MOL0     H80023   6.771   4.118   8.437 -1.3918 -0.7572  1.5591
  593MOL0     H80024   6.643   4.147   8.306  0.2852  1.2084  1.1616
  593MOL0     H80025   6.734   3.881   8.426  1.6150  0.2068 -1.1154
  593MOL0     H80026   6.637   3.889   8.277  0.2322 -0.0172  0.1551
  593MOL0     H80027   6.572   3.984   8.560  1.7285 -2.4430  1.8674
  593MOL0     H80028   6.467   4.020   8.427  0.6310 -0.2422  1.5053
  593MOL0     H80029   6.556   3.748   8.525  2.0220  3.0394  1.1768
  593MOL0     H80030   6.435   3.770   8.390  1.5765 -0.7599  0.0409
  593MOL0     H80031   6.382   3.874   8.673 -0.9277 -0.7579  0.0738
  593MOL0     H80032   6.282   3.879   8.527  0.4294  3.6231  2.8105
  593MOL0     H80033   6.239   3.700   8.711 -0.3421  0.1850  0.2604
  593MOL0     H80034   6.380   3.609   8.641 -1.3412 -0.9183  1.7443
  593MOL0     H80035   6.236   3.529   8.509 -1.3303 -0.9030 -0.8495
  593MOL0     H80036   6.231   3.670   8.416  1.5885 -2.1136  0.1732
  593MOL0     H80037   7.117   3.890   8.424 -0.2442  5.3316  0.5776
  593MOL0     H80038   7.332   3.801   8.329 -1.0868 -1.5435 -1.0645
  593MOL0     H80039   7.638   3.895   7.988  0.6293  0.2524 -0.3879
  593MOL0     H80040   7.866   3.886   7.921  2.1710  0.7506  3.2097
  593MOL0     H80041   9.805   3.264   8.484 -0.7992 -0.5631  0.1182
  593MOL0     H80042  10.021   3.169   8.374  0.0401  0.9488 -1.3584
  593MOL0     H80043  10.470   3.145   8.178 -1.9857 -2.3094  1.9451
  593MOL0     H80044  10.622   3.063   8.009  0.1740 -1.2387 -0.3482
  593MOL0     H80045  10.523   2.740   7.742 -0.9623 -0.1607 -2.0045
  593MOL0     H80046  10.492   2.890   7.646 -2.3448 -3.1874 -1.2853
  593MOL0     H80047  10.654   2.728   7.551 -0.8919  2.2451 -1.4216
  593MOL0     H80048  10.742   2.751   7.708  0.4341  0.3689  0.2482
  593MOL0     H80049  10.851   2.896   7.553  0.1061  1.9504 -1.0600
  593MOL0     H80050  10.755   3.005   7.660  1.0365 -0.0845  0.1558
  593MOL0     H80051  10.622   3.057   7.485  1.2188  0.9846  2.9585
  593MOL0     H80052  10.657   2.899   7.402 -2.4470 -1.6190  4.3100
  593MOL0     H80053  10.931   3.187   7.268 -1.0825  2.2927 -1.2415
  593MOL0     H80054  10.295   2.866   7.823  0.1637  0.2849 -0.8046
  593MOL0     H80055  10.140   2.968   7.982 -0.0195  2.4882 -0.6356
  594MOL0     O80056   7.894   4.816   0.377  0.7938 -0.1055 -0.6874
  594MOL0     C80057   7.949   4.723   0.445 -0.2958 -0.0413  0.2389
  594MOL0     O80058   7.893   4.666   0.547 -0.0097 -0.0375 -0.1431
  594MOL0     C80059   7.754   4.664   0.548  0.8531  0.1042 -1.0602
  594MOL0     C80060   7.692   4.751   0.637  0.7158  0.3192  0.7113
  594MOL0     C80061   7.553   4.737   0.659  0.4186 -0.4593 -0.3078
  594MOL0     C80062   7.478   4.643   0.586  0.6851 -0.0387 -0.0071
  594MOL0     O80063   7.344   4.623   0.613  1.0613 -0.1380  0.1622
  594MOL0     C80064   7.260   4.733   0.646 -0.3278 -0.5470 -0.3984
  594MOL0     C80065   7.245   4.834   0.536 -0.1545  1.0030  0.5721
  594MOL0     C80066   7.114   4.914   0.566 -0.0059 -0.6110  0.3120
  594MOL0     C80067   7.097   5.031   0.468  0.6784  0.5607 -0.3060
  594MOL0     C80068   6.964   5.096   0.498 -0.2723  0.2340  0.1885
  594MOL0     C80069   6.992   5.251   0.508 -0.4229  0.1378 -0.6479
  594MOL0     C80070   6.874   5.327   0.568 -0.3940 -0.4897  0.5671
  594MOL0     C80071   6.742   5.291   0.490  0.1295  0.6524 -0.2228
  594MOL0     N80072   6.646   5.403   0.476  0.1096  0.3909 -0.1756
  594MOL0     C80073   6.606   5.501   0.560 -0.5209  0.4455  0.1949
  594MOL0     C80074   6.506   5.567   0.493 -0.1422 -0.9014  0.1757
  594MOL0     C80075   6.422   5.690   0.532  0.5053  0.9410 -0.1544
  594MOL0     C80076   6.277   5.654   0.552  0.6924  0.5016  0.0073
  594MOL0     C80077   6.187   5.781   0.563  0.2750 -0.5287  0.1764
  594MOL0     C80078   6.048   5.738   0.534  0.1417 -0.7827  0.2278
  594MOL0     O80079   5.997   5.642   0.622 -0.3037 -0.1665 -0.1392
  594MOL0     C80080   5.865   5.601   0.602  0.4410  0.1008 -0.1045
  594MOL0     C80081   5.778   5.579   0.713  0.3658  0.3627  0.0943
  594MOL0     C80082   5.640   5.534   0.697 -0.5418  0.6511 -0.6878
  594MOL0     C80083   5.552   5.504   0.816 -0.3906  0.2804 -0.0682
  594MOL0     C80084   5.595   5.520   0.567 -0.7713 -0.2812  0.1255
  594MOL0     C80085   5.458   5.476   0.529 -0.4581 -0.5256  0.3348
  594MOL0     O80086   5.385   5.570   0.462 -0.0545  0.0400 -0.0094
  594MOL0     C80087   5.249   5.553   0.448 -1.5131  0.6258  0.2377
  594MOL0     C80088   5.197   5.582   0.329 -0.3035 -0.8070  0.4013
  594MOL0     C80089   5.053   5.577   0.302  0.3005 -0.0642  0.1718
  594MOL0     C80090   4.969   5.541   0.409 -0.3420 -0.7385 -0.1427
  594MOL0     O80091   4.832   5.546   0.410 -0.0650  1.0546  0.6014
  594MOL0     C80092   4.763   5.577   0.292 -0.7525 -0.6348 -0.4466
  594MOL0     C80093   4.609   5.577   0.321  0.1465  0.7660  0.0584
  594MOL0     C80094   4.520   5.555   0.195 -0.5993  0.0837  0.3334
  594MOL0     C80095   4.368   5.565   0.226  0.4101 -0.3617  0.0656
  594MOL0     C80096   4.278   5.535   0.104  0.3325  0.1536  0.1354
  594MOL0     C80097   4.129   5.553   0.131  0.3626 -0.7795  0.3095
  594MOL0     C80098   4.104   5.709   0.125 -0.4807  0.0167 -0.4399
  594MOL0     C80099   3.968   5.745   0.150  1.2033 -0.2938 -0.1549
  594MOL0    Cl80100   3.883   5.678   0.008  0.4345 -0.0540 -0.1818
  594MOL0     C80101   5.024   5.495   0.526  0.0676 -0.4136  0.6143
  594MOL0     C80102   5.166   5.510   0.547 -0.8202  0.1403 -0.4330
  594MOL0     O80103   5.417   5.366   0.567  0.1979 -0.3544 -0.4122
  594MOL0     C80104   5.676   5.547   0.463 -0.2273  0.6172  0.4849
  594MOL0     C80105   5.804   5.589   0.480  0.6007 -0.2275  0.5382
  594MOL0     N80106   6.486   5.505   0.373  0.1144 -0.1996  1.0308
  594MOL0     N80107   6.572   5.410   0.363 -0.8951  0.6798 -0.3273
  594MOL0     C80108   7.545   4.559   0.501  1.3992 -0.4444  0.0627
  594MOL0     C80109   7.684   4.567   0.485 -0.1904  0.4224 -1.1178
  594MOL0     C80110   8.087   4.683   0.410 -0.3657 -0.3368 -0.4484
  594MOL0     C80111   8.157   4.721   0.297 -0.9136 -0.5594  0.2833
  594MOL0     C80112   8.299   4.710   0.284  0.2170  0.4948 -0.6954
  594MOL0     C80113   8.372   4.654   0.392 -0.8132  0.3958 -0.2818
  594MOL0     O80114   8.506   4.617   0.389  0.1157 -0.4797 -0.7063
  594MOL0     C80115   8.601   4.689   0.314  0.3592  0.2152 -0.1259
  594MOL0     C80116   8.739   4.632   0.342  1.1959 -0.3111 -0.1573
  594MOL0     C80117   8.846   4.720   0.273  1.2991 -0.0285 -0.5429
  594MOL0     C80118   8.993   4.677   0.310  0.1858  0.5384  0.2981
  594MOL0     C80119   9.040   4.581   0.206 -0.1775  0.4554  0.0604
  594MOL0     C80120   9.059   4.501   0.118 -0.3559 -0.0291  0.6186
  594MOL0     C80121   8.299   4.608   0.504 -0.9350 -1.5614 -0.7958
  594MOL0     C80122   8.158   4.612   0.508 -0.4451 -0.2040  0.4473
  594MOL0     H80123   7.740   4.823   0.703  0.4142  2.4940 -1.3037
  594MOL0     H80124   7.504   4.813   0.720 -1.6084 -2.1428  0.3024
  594MOL0     H80125   7.169   4.678   0.672  0.2754 -0.2020  2.8585
  594MOL0     H80126   7.298   4.788   0.733  3.3954 -2.0269 -0.8926
  594MOL0     H80127   7.332   4.899   0.521 -0.5155  0.8863 -2.8502
  594MOL0     H80128   7.229   4.779   0.444 -1.3065  2.9633 -0.4750
  594MOL0     H80129   7.034   4.841   0.560 -1.6807  1.2626 -1.9618
  594MOL0     H80130   7.119   4.962   0.665  1.3197 -0.9848  0.4497
  594MOL0     H80131   7.178   5.105   0.462 -1.0672  2.5550 -0.2533
  594MOL0     H80132   7.084   4.975   0.375 -3.5898 -0.4910  0.7284
  594MOL0     H80133   6.887   5.088   0.421  0.5224  0.8733 -0.7033
  594MOL0     H80134   6.924   5.062   0.594  0.3363  1.6355  0.9688
  594MOL0     H80135   7.080   5.269   0.570  0.7216  0.1664 -2.2160
  594MOL0     H80136   7.020   5.307   0.418  1.1315  1.0394  0.3340
  594MOL0     H80137   6.867   5.304   0.674  1.5989  1.3911  1.1583
  594MOL0     H80138   6.901   5.432   0.558  1.2512 -0.8661  0.8379
  594MOL0     H80139   6.697   5.205   0.539  0.8069 -0.3340 -1.2979
  594MOL0     H80140   6.759   5.257   0.387  0.8024  0.4426 -0.0426
  594MOL0     H80141   6.649   5.513   0.659  4.3170 -1.3081 -1.4120
  594MOL0     H80142   6.472   5.729   0.621 -0.5869  1.0864  0.4105
  594MOL0     H80143   6.426   5.767   0.455  0.4261  0.1858 -0.9276
  594MOL0     H80144   6.255   5.595   0.642  2.6930  0.1849  0.3435
  594MOL0     H80145   6.241   5.589   0.471 -4.3323  0.6877  1.7557
  594MOL0     H80146   6.217   5.844   0.479 -1.2936 -1.4316 -1.1239
  594MOL0     H80147   6.202   5.832   0.659  0.3939  0.6296 -0.4368
  594MOL0     H80148   6.045   5.698   0.432  0.3800 -2.5040  0.8618
  594MOL0     H80149   5.977   5.821   0.542 -0.1331 -0.7290 -1.9714
  594MOL0     H80150   5.819   5.588   0.813 -0.1687 -1.5118  0.5383
  594MOL0     H80151   5.453   5.547   0.796 -0.0482  0.4502 -1.4541
  594MOL0     H80152   5.545   5.395   0.825  2.8504 -0.3668 -3.1423
  594MOL0     H80153   5.598   5.542   0.908 -2.0888  1.3009  0.4163
  594MOL0     H80154   5.265   5.605   0.248  0.7105  0.2517  1.5087
  594MOL0     H80155   5.022   5.613   0.205  2.6882  1.2238 -0.1892
  594MOL0     H80156   4.796   5.664   0.236  1.8417  1.0412  3.2501
  594MOL0     H80157   4.787   5.492   0.227  2.1351 -1.8589  1.9564
  594MOL0     H80158   4.595   5.495   0.392  0.5123 -0.4129 -1.1832
  594MOL0     H80159   4.573   5.669   0.368 -0.2822  1.2228 -1.1378
  594MOL0     H80160   4.544   5.457   0.154  0.0469 -1.4168  3.9137
  594MOL0     H80161   4.541   5.634   0.122 -0.0523  0.7925  1.2289
  594MOL0     H80162   4.339   5.490   0.300 -2.7821 -0.2481 -0.9430
  594MOL0     H80163   4.331   5.661   0.265 -1.2900 -1.4273  1.2093
  594MOL0     H80164   4.295   5.431   0.073  0.8889  0.3821 -0.3449
  594MOL0     H80165   4.303   5.593   0.014  1.5295 -0.9051 -0.2413
  594MOL0     H80166   4.063   5.495   0.065 -0.4612 -0.4392  0.8160
  594MOL0     H80167   4.100   5.517   0.230  0.2794  1.1393  1.0380
  594MOL0     H80168   4.147   5.757   0.036 -0.0261  0.1016 -0.1798
  594MOL0     H80169   4.156   5.753   0.211  1.5326  0.5168 -1.8306
  594MOL0     H80170   3.973   5.854   0.143 -0.5050 -0.2501 -1.7530
  594MOL0     H80171   3.939   5.706   0.248  1.9873 -2.1328 -0.6083
  594MOL0     H80172   4.965   5.461   0.610 -0.9896 -1.7255 -0.6096
  594MOL0     H80173   5.198   5.471   0.644  0.5333 -0.3559 -1.0583
  594MOL0     H80174   5.637   5.550   0.362 -1.2612  0.5856  0.8713
  594MOL0     H80175   5.853   5.619   0.388 -1.2146 -1.6519 -0.9896
  594MOL0     H80176   7.480   4.492   0.446  0.7135 -0.8246  1.2977
  594MOL0     H80177   7.730   4.488   0.427  2.0689  0.5967  0.3170
  594MOL0     H80178   8.111   4.762   0.208  0.8007  2.2398  0.5801
  594MOL0     H80179   8.345   4.740   0.191 -1.0168 -0.4176 -1.6419
  594MOL0     H80180   8.581   4.687   0.206 -1.2522  0.7258  0.1398
  594MOL0     H80181   8.597   4.794   0.345  1.0046  0.7512 -1.7599
  594MOL0     H80182   8.738   4.527   0.309  0.5840 -0.1118 -0.8038
  594MOL0     H80183   8.761   4.635   0.449  1.7909 -3.4819 -0.0975
  594MOL0     H80184   8.833   4.825   0.302  0.2300  0.1167 -1.4599
  594MOL0     H80185   8.820   4.707   0.168  0.4193 -1.5551 -0.1606
  594MOL0     H80186   9.002   4.623   0.404  2.7911 -2.2007 -1.3545
  594MOL0     H80187   9.049   4.769   0.329 -1.5738  1.1605  3.0413
  594MOL0     H80188   9.058   4.439   0.031  0.6860  0.6106  0.1359
  594MOL0     H80189   8.354   4.566   0.589  0.7412 -0.7722 -1.4418
  594MOL0     H80190   8.112   4.590   0.604 -1.0670 -0.1270  0.1690
  595MOL0     O80191   3.800   3.309   5.910  0.5706 -0.1633  0.0326
  595MOL0     C80192   3.848   3.203   5.865  0.3041 -0.2075  0.2934
  595MOL0     O80193   3.779   3.095   5.820 -0.6742 -0.4957 -0.0914
  595MOL0     C80194   3.648   3.087   5.839  0.2502 -0.3148  0.0988
  595MOL0     C80195   3.556   3.198   5.820 -0.5802 -0.2496  0.6696
  595MOL0     C80196   3.420   3.173   5.832  0.3850 -1.1538  0.5309
  595MOL0     C80197   3.369   3.044   5.846  0.1114 -0.2194 -0.4538
  595MOL0     O80198   3.227   3.033   5.843  0.3789  0.1241 -0.4566
  595MOL0     C80199   3.175   2.899   5.847  0.6345 -0.5729  0.1268
  595MOL0     C80200   3.026   2.897   5.860  0.3823 -0.2313  0.3793
  595MOL0     C80201   2.966   2.757   5.878 -0.7487 -0.1307  0.1228
  595MOL0     C80202   2.834   2.755   5.935  0.1689 -0.6996 -0.3377
  595MOL0     C80203   2.786   2.608   5.969  0.0501  0.6546  0.3185
  595MOL0     C80204   2.648   2.603   6.021 -0.4695 -0.0276  0.0123
  595MOL0     C80205   2.583   2.467   6.019 -0.2679 -0.0127 -0.0645
  595MOL0     C80206   2.568   2.407   5.882  0.1967 -0.8251 -0.8581
  595MOL0     N80207   2.439   2.343   5.861  0.0298 -0.1152  0.2000
  595MOL0     C80208   2.358   2.364   5.756 -0.4074 -0.9892 -0.3372
  595MOL0     C80209   2.258   2.272   5.767  0.3765 -0.0261 -0.5059
  595MOL0     C80210   2.138   2.245   5.683  0.7658 -0.4872 -0.2464
  595MOL0     C80211   2.001   2.279   5.748  0.2324  0.2974 -0.2849
  595MOL0     C80212   1.892   2.293   5.630 -0.2864  0.5073 -1.1577
  595MOL0     C80213   1.762   2.342   5.693 -0.4781 -0.6713  0.4046
  595MOL0     O80214   1.702   2.241   5.777  0.1479 -0.1389  0.5736
  595MOL0     C80215   1.573   2.252   5.826 -0.1904  0.5715 -0.6033
  595MOL0     C80216   1.562   2.186   5.949 -1.0543 -0.1288 -0.1189
  595MOL0     C80217   1.445   2.189   6.018  0.0445 -0.0366  0.9760
  595MOL0     C80218   1.436   2.093   6.140  0.5574  0.4091 -0.1678
  595MOL0     C80219   1.345   2.279   5.984 -0.2508 -0.0115  0.0872
  595MOL0     C80220   1.215   2.306   6.054  0.1168  1.0036  0.2007
  595MOL0     O80221   1.187   2.239   6.168 -0.6501 -0.0571 -0.4062
  595MOL0     C80222   1.066   2.269   6.223  0.6058 -0.6809  0.4894
  595MOL0     C80223   1.058   2.373   6.312 -0.8892  0.3758 -0.8499
  595MOL0     C80224   0.940   2.399   6.375  0.9354 -0.4234  0.1599
  595MOL0     C80225   0.818   2.348   6.325 -0.3008 -0.1013  0.0626
  595MOL0     O80226   0.699   2.362   6.386 -0.1004  0.2578  0.0482
  595MOL0     C80227   0.664   2.499   6.413 -0.1385 -0.3282  0.0845
  595MOL0     C80228   0.516   2.507   6.420  0.2074  0.1594 -0.1228
  595MOL0     C80229   0.460   2.642   6.449 -0.3874  0.0514 -0.8135
  595MOL0     C80230   0.309   2.637   6.481 -0.2489 -0.2492 -0.0295
  595MOL0     C80231   0.255   2.773   6.534 -0.5817 -0.2467 -0.4838
  595MOL0     C80232   0.111   2.772   6.596  1.4563 -0.0259 -0.2548
  595MOL0     C80233   0.038   2.907   6.595  0.4733  0.7160 -0.3612
  595MOL0     C80234  -0.085   2.890   6.685 -0.3266  0.9277 -0.7239
  595MOL0    Cl80235  -0.198   2.783   6.581  0.2578  0.4824  0.2287
  595MOL0     C80236   0.827   2.257   6.225  0.4267  0.0803  0.3458
  595MOL0     C80237   0.948   2.213   6.178  0.0239  0.2394  1.0519
  595MOL0     O80238   1.142   2.380   5.991  0.3156  0.6466  0.0258
  595MOL0     C80239   1.362   2.353   5.868 -0.0060 -1.2280  0.5745
  595MOL0     C80240   1.467   2.323   5.784  0.4077  0.0737  0.0069
  595MOL0     N80241   2.277   2.199   5.879 -0.2062  0.7527 -0.5333
  595MOL0     N80242   2.384   2.246   5.939 -0.0776  0.0721  0.5592
  595MOL0     C80243   3.454   2.936   5.856 -0.1984  0.2246  0.0925
  595MOL0     C80244   3.596   2.952   5.849  0.0737 -0.3276  0.5527
  595MOL0     C80245   3.997   3.188   5.860  0.1131 -0.7785 -0.0290
  595MOL0     C80246   4.057   3.066   5.843  0.4339 -0.0478  0.2064
  595MOL0     C80247   4.191   3.029   5.871  0.2171 -0.2505  1.1141
  595MOL0     C80248   4.275   3.123   5.928  0.0946  0.1188 -0.8823
  595MOL0     O80249   4.403   3.100   5.970 -0.0330 -0.3094  0.0715
  595MOL0     C80250   4.465   2.966   5.966  1.3638 -0.2484  0.8781
  595MOL0     C80251   4.602   2.960   6.037 -0.1023 -0.3016  0.7669
  595MOL0     C80252   4.696   3.086   6.018  0.5026  0.3376 -0.0364
  595MOL0     C80253   4.710   3.151   5.876  0.9480  0.0823  0.7465
  595MOL0     C80254   4.828   3.225   5.842  0.2472  0.3695 -0.0085
  595MOL0     C80255   4.932   3.288   5.837  0.0796 -1.0193 -0.4049
  595MOL0     C80256   4.225   3.251   5.946 -0.3311 -0.2134  0.0347
  595MOL0     C80257   4.087   3.282   5.924 -0.2909  0.2694  0.1502
  595MOL0     H80258   3.591   3.300   5.810  0.4933 -0.7372 -0.8844
  595MOL0     H80259   3.357   3.261   5.824  2.2456  0.0699 -4.1240
  595MOL0     H80260   3.202   2.851   5.753  3.3903 -3.4459  2.1480
  595MOL0     H80261   3.222   2.841   5.927  1.6460 -4.8605 -3.1940
  595MOL0     H80262   2.993   2.960   5.943  1.6996 -1.1052  1.6149
  595MOL0     H80263   2.986   2.946   5.771 -1.3699  2.1588  2.3445
  595MOL0     H80264   2.960   2.712   5.778  1.1286 -0.6167  0.1898
  595MOL0     H80265   3.037   2.691   5.928 -0.9710 -1.3420 -1.0998
  595MOL0     H80266   2.819   2.821   6.021  1.1247  0.5694 -1.1323
  595MOL0     H80267   2.775   2.802   5.856  3.1659  0.5336 -2.0019
  595MOL0     H80268   2.794   2.550   5.877 -2.7992  0.2000  0.2823
  595MOL0     H80269   2.857   2.557   6.035 -1.8219  1.6386  3.3148
  595MOL0     H80270   2.645   2.633   6.126 -0.7007  2.5831 -0.6750
  595MOL0     H80271   2.589   2.685   5.978 -2.1113 -0.6308  1.0364
  595MOL0     H80272   2.640   2.397   6.081 -0.3872  0.5603  0.7141
  595MOL0     H80273   2.492   2.482   6.079  0.7398  2.3997  0.9939
  595MOL0     H80274   2.647   2.336   5.857  0.9305 -0.9497  1.5133
  595MOL0     H80275   2.565   2.491   5.812 -2.3927  1.7672  2.0354
  595MOL0     H80276   2.379   2.449   5.692  0.3701 -0.5524  0.4778
  595MOL0     H80277   2.149   2.314   5.599 -0.8720  0.1086 -0.0022
  595MOL0     H80278   2.131   2.143   5.645 -0.8912 -1.5270  2.5740
  595MOL0     H80279   2.010   2.377   5.797 -1.4615 -1.4060  3.8255
  595MOL0     H80280   1.976   2.204   5.824  1.2081  1.4343  1.2195
  595MOL0     H80281   1.885   2.198   5.577  2.1532 -0.3943 -0.0292
  595MOL0     H80282   1.930   2.366   5.558  2.5730  0.0049 -0.2904
  595MOL0     H80283   1.693   2.371   5.613  0.8151 -3.3595 -1.8873
  595MOL0     H80284   1.779   2.431   5.754 -1.1027  0.1612 -0.5833
  595MOL0     H80285   1.647   2.134   5.991  0.7473  3.2634  0.8039
  595MOL0     H80286   1.337   2.046   6.144  1.0287 -0.6269 -0.1921
  595MOL0     H80287   1.501   2.006   6.132  0.0120  0.0395 -0.7485
  595MOL0     H80288   1.450   2.147   6.233 -4.4804  1.3702  0.3423
  595MOL0     H80289   1.151   2.420   6.344 -1.2866  2.1245 -2.1552
  595MOL0     H80290   0.942   2.462   6.463  5.1322 -0.6208  0.3854
  595MOL0     H80291   0.699   2.525   6.513 -0.0550 -1.5213  0.3824
  595MOL0     H80292   0.705   2.568   6.339  3.1333 -2.6186 -0.4446
  595MOL0     H80293   0.486   2.473   6.321  0.7795 -0.3090 -0.1387
  595MOL0     H80294   0.476   2.437   6.493  0.5755 -0.2415 -0.3017
  595MOL0     H80295   0.468   2.709   6.363 -0.0575 -0.0391 -0.8543
  595MOL0     H80296   0.513   2.679   6.537  0.8677  0.8214 -1.8614
  595MOL0     H80297   0.245   2.609   6.398 -0.9267 -1.5290  0.8822
  595MOL0     H80298   0.303   2.573   6.570  0.2532  0.4149  0.4903
  595MOL0     H80299   0.260   2.840   6.448  0.2652  1.0840  0.5481
  595MOL0     H80300   0.325   2.817   6.607 -1.0722 -1.3134  0.6679
  595MOL0     H80301   0.053   2.713   6.525  1.0194  2.1623 -1.8138
  595MOL0     H80302   0.113   2.729   6.697  3.0824 -1.4324 -0.8526
  595MOL0     H80303   0.011   2.922   6.491 -1.2106 -0.9200 -0.2029
  595MOL0     H80304   0.109   2.986   6.623  1.0448  0.6627 -1.5905
  595MOL0     H80305  -0.141   2.980   6.712 -0.1320  1.3719 -1.7395
  595MOL0     H80306  -0.049   2.845   6.778 -3.7152 -2.1111 -0.6415
  595MOL0     H80307   0.740   2.205   6.187 -0.3376  0.4472  1.5379
  595MOL0     H80308   0.947   2.133   6.105 -0.7634  1.1410  0.0287
  595MOL0     H80309   1.289   2.422   5.827 -0.6630 -1.4677  1.3198
  595MOL0     H80310   1.481   2.372   5.689  0.1551  1.6974  0.7755
  595MOL0     H80311   3.417   2.834   5.870 -1.1173  0.6293  0.7064
  595MOL0     H80312   3.669   2.871   5.849  1.5433  0.9396  1.7789
  595MOL0     H80313   3.994   2.997   5.789 -0.1751  1.1612 -0.6660
  595MOL0     H80314   4.233   2.934   5.840  1.7590  1.3307 -2.1900
  595MOL0     H80315   4.401   2.893   6.017  0.7731 -0.0928  0.3603
  595MOL0     H80316   4.485   2.931   5.865  1.8800  0.0609  0.8684
  595MOL0     H80317   4.651   2.868   6.004  1.1529  0.6530 -0.0971
  595MOL0     H80318   4.596   2.948   6.146 -1.8879 -0.3291  0.7092
  595MOL0     H80319   4.793   3.064   6.064 -0.8979  0.0289  2.9920
  595MOL0     H80320   4.650   3.160   6.084 -0.1523  1.6325 -1.8748
  595MOL0     H80321   4.629   3.223   5.861  2.4836  2.1324  1.7244
  595MOL0     H80322   4.698   3.072   5.802  2.7571 -0.4363  0.9513
  595MOL0     H80323   5.028   3.331   5.821 -0.8233  0.9711 -0.8212
  595MOL0     H80324   4.287   3.330   5.984 -2.0112  1.5508 -0.7052
  595MOL0     H80325   4.062   3.373   5.977  0.4024  0.1946  0.6217
  596MOL0     O80326   0.743   1.574   7.780  0.2744  0.1355 -0.1261
  596MOL0     C80327   0.692   1.678   7.824  0.4919  0.9046 -0.4302
  596MOL0     O80328   0.754   1.784   7.879  0.2053 -0.3236  0.2494
  596MOL0     C80329   0.891   1.781   7.894  0.0052  0.3745  0.3884
  596MOL0     C80330   0.976   1.808   7.790 -0.3184 -0.2877  0.2333
  596MOL0     C80331   1.113   1.838   7.812 -0.3541 -0.4153  0.1868
  596MOL0     C80332   1.164   1.838   7.941  0.1020  0.4810 -0.3347
  596MOL0     O80333   1.288   1.881   7.983  0.1536  0.3954  0.8787
  596MOL0     C80334   1.395   1.886   7.888 -0.3354  0.1362  0.2260
  596MOL0     C80335   1.531   1.884   7.953 -0.1773  0.2286 -0.1907
  596MOL0     C80336   1.540   2.014   8.030  0.6687  0.0630  0.4996
  596MOL0     C80337   1.678   2.051   8.019 -0.2475 -0.5057 -0.3480
  596MOL0     C80338   1.724   2.168   8.108  0.1331 -0.4381  0.6258
  596MOL0     C80339   1.737   2.120   8.256  0.2508 -0.4060  0.5909
  596MOL0     C80340   1.818   2.222   8.331  0.0109  0.3609  1.1391
  596MOL0     C80341   1.811   2.183   8.480  1.5688 -0.5588  0.6561
  596MOL0     N80342   1.678   2.185   8.548  0.4385  0.3008 -0.3510
  596MOL0     C80343   1.628   2.302   8.593  1.0073  0.4189 -0.6951
  596MOL0     C80344   1.530   2.268   8.686  0.0067 -0.0532 -0.2647
  596MOL0     C80345   1.442   2.359   8.758 -0.0269  0.2359 -0.2055
  596MOL0     C80346   1.496   2.370   8.895  0.1154  0.3869 -0.3578
  596MOL0     C80347   1.390   2.444   8.978 -0.4913  0.7035 -1.0569
  596MOL0     C80348   1.425   2.443   9.130  0.2262  0.2024 -0.8527
  596MOL0     O80349   1.330   2.516   9.203 -0.5014 -1.2726  0.0443
  596MOL0     C80350   1.203   2.479   9.235  1.0458 -0.2363  0.2473
  596MOL0     C80351   1.128   2.570   9.310 -0.5847  0.0443  0.3277
  596MOL0     C80352   0.994   2.554   9.334 -0.3054 -0.2549  0.4797
  596MOL0     C80353   0.931   2.661   9.411 -0.2191 -0.0896 -0.3941
  596MOL0     C80354   0.927   2.433   9.284 -0.0608 -0.5170  0.3639
  596MOL0     C80355   0.786   2.412   9.285 -1.3134 -0.1780 -0.7442
  596MOL0     O80356   0.742   2.284   9.294  0.1355  0.8311  0.2056
  596MOL0     C80357   0.609   2.264   9.288 -0.4503  0.0545 -0.2526
  596MOL0     C80358   0.540   2.280   9.406  0.5443 -0.7368 -0.4476
  596MOL0     C80359   0.404   2.283   9.418  0.6831 -0.0520 -0.2879
  596MOL0     C80360   0.330   2.235   9.308 -0.3433 -0.8577 -0.2328
  596MOL0     O80361   0.190   2.227   9.303 -0.4656 -0.8712  0.1317
  596MOL0     C80362   0.132   2.167   9.424  0.6121 -1.1690  0.6620
  596MOL0     C80363   0.015   2.082   9.371  0.1473 -0.9924  0.6704
  596MOL0     C80364  -0.116   2.167   9.356  0.6432  1.0021 -0.4178
  596MOL0     C80365  -0.232   2.071   9.348  0.5007  0.4455  0.2728
  596MOL0     C80366  -0.370   2.140   9.351 -0.3967  0.2048 -0.5628
  596MOL0     C80367  -0.484   2.046   9.326  0.4189  0.4831 -0.3324
  596MOL0     C80368  -0.616   2.127   9.335 -0.8345 -0.5982  0.2459
  596MOL0     C80369  -0.740   2.038   9.317 -1.2259  0.1101  0.1804
  596MOL0    Cl80370  -0.746   1.940   9.162 -0.0555 -0.4980 -0.0054
  596MOL0     C80371   0.400   2.210   9.182 -0.2403  0.0781  0.4479
  596MOL0     C80372   0.539   2.221   9.175 -0.1498 -0.2094 -0.4605
  596MOL0     O80373   0.714   2.513   9.281  0.1035  0.3601  0.0806
  596MOL0     C80374   1.011   2.336   9.209 -0.2225 -0.2259 -0.9739
  596MOL0     C80375   1.144   2.363   9.178 -0.3465 -0.6675 -0.1850
  596MOL0     N80376   1.528   2.131   8.695  0.3491  0.0209  0.4553
  596MOL0     N80377   1.611   2.081   8.606  0.1692  0.6544  0.3119
  596MOL0     C80378   1.081   1.799   8.048 -0.7911 -0.3703 -0.4740
  596MOL0     C80379   0.944   1.773   8.024  0.2789  0.2365  0.1032
  596MOL0     C80380   0.550   1.678   7.817  0.4699  0.6561  0.5305
  596MOL0     C80381   0.478   1.613   7.714  0.1396 -0.0478 -0.3034
  596MOL0     C80382   0.340   1.623   7.708  0.3290  0.1808 -0.1849
  596MOL0     C80383   0.274   1.691   7.810  0.5706  0.3286 -0.0095
  596MOL0     O80384   0.138   1.710   7.819 -0.3902  0.6120 -0.4601
  596MOL0     C80385   0.048   1.646   7.719 -0.3612 -0.1539 -0.3511
  596MOL0     C80386  -0.100   1.667   7.754 -0.6519 -0.1998 -0.7315
  596MOL0     C80387  -0.141   1.591   7.880 -0.1162  0.3434  0.5987
  596MOL0     C80388  -0.164   1.443   7.861 -0.9713  0.5468  0.0040
  596MOL0     C80389  -0.218   1.371   7.979  1.0085 -0.1585  0.3026
  596MOL0     C80390  -0.256   1.334   8.088 -0.7221  0.0906 -0.3772
  596MOL0     C80391   0.334   1.754   7.915  0.1793 -0.5661  0.6341
  596MOL0     C80392   0.476   1.751   7.916 -0.6645 -0.7354 -0.0417
  596MOL0     H80393   0.930   1.811   7.692 -0.4814 -0.9012  0.2872
  596MOL0     H80394   1.163   1.891   7.731  0.1309  0.4641  1.0358
  596MOL0     H80395   1.387   1.804   7.816  1.7812  0.4608 -0.4371
  596MOL0     H80396   1.381   1.981   7.834 -1.1881 -0.3589 -0.4617
  596MOL0     H80397   1.542   1.800   8.022 -0.9193 -1.7517 -2.3246
  596MOL0     H80398   1.614   1.879   7.882  3.2687 -1.9863  3.5978
  596MOL0     H80399   1.477   2.093   7.988 -0.5284 -2.3088 -2.5006
  596MOL0     H80400   1.511   2.011   8.135  2.1193  1.6446  0.9892
  596MOL0     H80401   1.738   1.966   8.053 -0.9373  0.4604  3.7957
  596MOL0     H80402   1.702   2.078   7.916 -2.8093  2.6808 -0.3019
  596MOL0     H80403   1.819   2.215   8.081 -0.4573  0.7828  0.6235
  596MOL0     H80404   1.647   2.246   8.116 -0.6570 -0.9968 -1.0915
  596MOL0     H80405   1.637   2.109   8.299 -0.9805  1.3498 -1.5335
  596MOL0     H80406   1.790   2.030   8.285  1.4709  0.5234  1.3096
  596MOL0     H80407   1.923   2.214   8.302 -0.7219  0.3295 -1.7530
  596MOL0     H80408   1.771   2.319   8.312 -0.4338 -0.2202 -0.9764
  596MOL0     H80409   1.877   2.250   8.535  1.9076  1.0521 -1.5590
  596MOL0     H80410   1.848   2.081   8.489  0.4267 -1.0563  0.0489
  596MOL0     H80411   1.650   2.407   8.577 -1.2133  1.2918  1.2294
  596MOL0     H80412   1.443   2.461   8.717  2.1647  0.7832  1.0302
  596MOL0     H80413   1.338   2.324   8.762 -0.5711  1.6745 -1.0950
  596MOL0     H80414   1.592   2.424   8.894  0.6968 -0.5763  0.7801
  596MOL0     H80415   1.514   2.268   8.929 -3.4284 -1.2976 -2.8749
  596MOL0     H80416   1.289   2.409   8.956 -0.6717  0.9543 -0.6464
  596MOL0     H80417   1.393   2.546   8.937 -0.1653  0.0150 -2.8544
  596MOL0     H80418   1.528   2.471   9.156  0.2045  1.8288 -2.2859
  596MOL0     H80419   1.409   2.341   9.165 -3.2489  1.5998  2.3317
  596MOL0     H80420   1.175   2.660   9.349  0.1987 -0.6970  1.1101
  596MOL0     H80421   0.999   2.715   9.477  0.1584  0.7546 -1.4483
  596MOL0     H80422   0.888   2.738   9.346 -0.7561  1.1471  1.3482
  596MOL0     H80423   0.854   2.615   9.474  0.2616 -1.7658 -0.9705
  596MOL0     H80424   0.603   2.309   9.490 -1.2627 -0.1820  0.7871
  596MOL0     H80425   0.369   2.316   9.516  1.6069  1.9209 -0.5812
  596MOL0     H80426   0.205   2.102   9.473  0.9821 -1.0263  0.3139
  596MOL0     H80427   0.101   2.247   9.493 -2.2935 -0.8487 -0.8602
  596MOL0     H80428   0.041   2.034   9.276  0.3810  1.1790 -0.4294
  596MOL0     H80429  -0.009   2.008   9.448 -4.6920 -0.2060  0.2702
  596MOL0     H80430  -0.115   2.237   9.271 -3.4794  0.7719 -0.8702
  596MOL0     H80431  -0.117   2.221   9.451  3.0327  1.9768 -0.8601
  596MOL0     H80432  -0.221   2.025   9.250 -3.6743 -1.3999  0.4464
  596MOL0     H80433  -0.227   1.992   9.423  1.5724  1.2872  1.1331
  596MOL0     H80434  -0.367   2.223   9.279  0.8472 -1.1320 -2.1363
  596MOL0     H80435  -0.379   2.184   9.450  1.9921 -0.5991  0.0723
  596MOL0     H80436  -0.471   2.001   9.226  1.2728  0.1494 -0.0816
  596MOL0     H80437  -0.488   1.961   9.394  0.4821  1.4359  0.8836
  596MOL0     H80438  -0.618   2.210   9.264  2.0808  0.3670  1.1600
  596MOL0     H80439  -0.603   2.171   9.434  1.4740 -0.3857 -0.0969
  596MOL0     H80440  -0.829   2.100   9.322 -0.4155  1.4735 -1.2587
  596MOL0     H80441  -0.734   1.966   9.399  2.9303 -1.2157 -1.0321
  596MOL0     H80442   0.341   2.163   9.104 -0.7978 -1.3083  1.6492
  596MOL0     H80443   0.596   2.200   9.085  0.4187  1.2601 -0.4651
  596MOL0     H80444   0.964   2.246   9.170  0.2385 -1.1842  0.5934
  596MOL0     H80445   1.193   2.284   9.121 -0.8468 -0.1300 -1.3739
  596MOL0     H80446   1.123   1.787   8.148 -0.5246 -1.4078 -0.6933
  596MOL0     H80447   0.877   1.769   8.110 -0.5890  5.4685  0.0503
  596MOL0     H80448   0.525   1.559   7.632  3.4042  0.7587  0.8697
  596MOL0     H80449   0.285   1.587   7.622 -0.4512 -0.0760  0.4140
  596MOL0     H80450   0.079   1.690   7.624 -2.2535  0.2540 -0.8123
  596MOL0     H80451   0.068   1.540   7.700  1.3665 -0.2783  1.7389
  596MOL0     H80452  -0.163   1.638   7.670 -1.6963  1.4771 -0.5799
  596MOL0     H80453  -0.110   1.776   7.763 -1.7521 -0.2322 -1.4216
  596MOL0     H80454  -0.239   1.624   7.915 -0.0407  1.6874 -0.3603
  596MOL0     H80455  -0.076   1.615   7.965  1.8876  0.3414 -0.8531
  596MOL0     H80456  -0.066   1.399   7.840 -2.1342 -0.7860 -3.2629
  596MOL0     H80457  -0.228   1.429   7.773 -0.8533  0.9325 -0.1491
  596MOL0     H80458  -0.285   1.292   8.182 -1.3128  1.7363  0.2056
  596MOL0     H80459   0.290   1.817   7.991  0.9313  2.2193 -1.0603
  596MOL0     H80460   0.512   1.815   7.996 -0.8018 -0.7143  0.0033
  597MOL0     O80461   7.273   0.767   7.779 -0.0300  0.2770  0.2665
  597MOL0     C80462   7.288   0.850   7.867  0.4178 -0.2465  0.2477
  597MOL0     O80463   7.191   0.889   7.954  0.1949  0.0538  0.4848
  597MOL0     C80464   7.064   0.842   7.931  0.6163  0.0764  0.1610
  597MOL0     C80465   7.034   0.708   7.961 -0.2166  0.4420  0.4878
  597MOL0     C80466   6.918   0.643   7.917 -0.7643 -0.1652  0.1317
  597MOL0     C80467   6.820   0.713   7.844 -0.6847  0.3296 -0.1640
  597MOL0     O80468   6.709   0.632   7.810  0.4355 -0.4541  0.5076
  597MOL0     C80469   6.586   0.700   7.774 -0.7981 -0.4658  0.3049
  597MOL0     C80470   6.523   0.762   7.902  0.2670  0.2706 -0.0451
  597MOL0     C80471   6.383   0.813   7.877  0.0121  0.1353 -1.0678
  597MOL0     C80472   6.326   0.884   8.004 -0.3488 -0.0622 -0.0858
  597MOL0     C80473   6.172   0.909   7.998 -0.8175  0.1957  0.2376
  597MOL0     C80474   6.134   1.025   7.899  1.0240 -0.2871  0.7405
  597MOL0     C80475   5.982   1.039   7.920 -0.7288 -0.3234  0.4744
  597MOL0     C80476   5.916   1.142   7.830  0.2020 -0.8175 -0.1587
  597MOL0     N80477   5.771   1.133   7.850 -0.2129  0.1402  0.8490
  597MOL0     C80478   5.697   1.023   7.830  0.0965  0.4476  0.0772
  597MOL0     C80479   5.567   1.079   7.834 -0.0413  0.2078  0.2107
  597MOL0     C80480   5.430   1.001   7.828  1.4161 -0.2299  1.1728
  597MOL0     C80481   5.311   1.095   7.815 -0.0175 -1.0375 -0.7008
  597MOL0     C80482   5.182   1.023   7.765 -0.3066 -0.4475 -1.0085
  597MOL0     C80483   5.068   1.130   7.762  0.8001  0.0025  0.6170
  597MOL0     O80484   4.942   1.084   7.713 -0.3237 -0.0382 -0.3883
  597MOL0     C80485   4.845   1.173   7.680  0.5796 -0.2716  0.4086
  597MOL0     C80486   4.839   1.312   7.711  0.0199 -0.9752 -0.3184
  597MOL0     C80487   4.733   1.392   7.672 -0.2025  0.2601 -0.4596
  597MOL0     C80488   4.733   1.538   7.726 -0.2185  0.3363 -0.6715
  597MOL0     C80489   4.615   1.330   7.614  0.1079 -0.8546 -0.7966
  597MOL0     C80490   4.484   1.396   7.588 -0.2683 -0.4726  0.1615
  597MOL0     O80491   4.367   1.327   7.595  0.4249 -0.6455  0.2694
  597MOL0     C80492   4.250   1.385   7.550 -0.7729  0.3971 -0.5566
  597MOL0     C80493   4.210   1.516   7.592 -0.4355 -0.0530 -0.5426
  597MOL0     C80494   4.091   1.570   7.561 -0.0274 -0.9130  0.4432
  597MOL0     C80495   3.998   1.493   7.487  1.0661 -0.1506 -0.0260
  597MOL0     O80496   3.876   1.554   7.467  0.0400  0.3907  0.3532
  597MOL0     C80497   3.867   1.589   7.324 -1.0453 -0.5660  0.2357
  597MOL0     C80498   3.726   1.644   7.292 -0.0498  0.2177  0.0560
  597MOL0     C80499   3.617   1.561   7.358 -0.9791  0.1541  0.5103
  597MOL0     C80500   3.478   1.619   7.345  0.1393 -0.5503 -0.4252
  597MOL0     C80501   3.371   1.515   7.367 -0.2492  0.3418  0.2519
  597MOL0     C80502   3.226   1.561   7.325 -0.2340  0.2134 -0.8605
  597MOL0     C80503   3.126   1.444   7.383  0.0047  0.4817 -0.2536
  597MOL0     C80504   2.979   1.473   7.328 -0.0042  0.4319  0.3744
  597MOL0    Cl80505   2.944   1.650   7.352 -0.0962 -0.1027 -0.2385
  597MOL0     C80506   4.031   1.357   7.453  0.5604  0.0389  0.4676
  597MOL0     C80507   4.156   1.310   7.491  0.6905  0.6045  0.4726
  597MOL0     O80508   4.490   1.518   7.559 -0.5120  0.0164  0.2562
  597MOL0     C80509   4.621   1.195   7.587  0.6659 -0.0929 -0.3091
  597MOL0     C80510   4.731   1.121   7.617 -0.1602 -0.3035  0.7510
  597MOL0     N80511   5.576   1.213   7.854 -0.1115 -0.0710  0.2524
  597MOL0     N80512   5.691   1.242   7.855 -0.7117  0.3118 -0.3314
  597MOL0     C80513   6.840   0.846   7.816  0.4294 -0.3844 -0.2497
  597MOL0     C80514   6.959   0.911   7.872 -0.1257 -0.5214 -0.2844
  597MOL0     C80515   7.422   0.907   7.894  0.5827  1.4930 -0.1679
  597MOL0     C80516   7.438   1.027   7.952  0.5105  0.3564 -0.4428
  597MOL0     C80517   7.564   1.078   7.978  0.0208 -0.3305  0.6044
  597MOL0     C80518   7.684   0.995   7.947  0.3807 -0.3978  0.0045
  597MOL0     O80519   7.800   1.050   7.986 -0.2295 -0.0957  0.0658
  597MOL0     C80520   7.920   0.970   7.973  0.0799  0.0745  0.2039
  597MOL0     C80521   8.037   1.034   8.047  0.0293  0.0156  0.4366
  597MOL0     C80522   8.084   1.168   7.998  0.0127 -1.3028  0.0090
  597MOL0     C80523   8.182   1.164   7.876 -0.0462 -0.1305 -0.8656
  597MOL0     C80524   8.308   1.090   7.902  0.0440  0.8927  1.0523
  597MOL0     C80525   8.392   1.018   7.937 -0.8357 -0.9140  0.7662
  597MOL0     C80526   7.662   0.879   7.879  0.4966 -0.3402  0.0236
  597MOL0     C80527   7.533   0.829   7.852 -0.6337 -0.1275 -0.2188
  597MOL0     H80528   7.107   0.663   8.029 -2.6398 -0.2362  2.8219
  597MOL0     H80529   6.898   0.541   7.947  2.4448  0.3497  5.2081
  597MOL0     H80530   6.605   0.779   7.701  3.9016 -0.7778  0.8750
  597MOL0     H80531   6.521   0.625   7.727 -0.0178 -0.2223 -1.2237
  597MOL0     H80532   6.526   0.685   7.979 -0.0372  1.8904  1.6552
  597MOL0     H80533   6.586   0.848   7.929 -1.9527  2.6370 -1.7753
  597MOL0     H80534   6.373   0.888   7.798  0.7440  0.4090 -0.9129
  597MOL0     H80535   6.320   0.725   7.859 -1.1518 -0.3996  3.9404
  597MOL0     H80536   6.358   0.828   8.093 -0.8010 -0.1957 -0.0029
  597MOL0     H80537   6.367   0.985   8.009  3.1342 -1.3916  1.3536
  597MOL0     H80538   6.122   0.815   7.977  1.2882 -1.5985  2.6173
  597MOL0     H80539   6.153   0.945   8.100  2.1681  1.5985  0.4380
  597MOL0     H80540   6.181   1.123   7.914 -1.3197  1.2850 -1.4353
  597MOL0     H80541   6.156   0.999   7.795 -1.6622 -0.2857  0.1049
  597MOL0     H80542   5.931   0.944   7.901  0.5985 -1.4004  2.0921
  597MOL0     H80543   5.968   1.065   8.025  3.4114 -2.5915  1.8102
  597MOL0     H80544   5.942   1.119   7.727  1.3168 -0.0679 -0.0569
  597MOL0     H80545   5.948   1.244   7.849  0.6944 -1.0639  0.3629
  597MOL0     H80546   5.725   0.919   7.817 -1.2734  0.1607 -0.7419
  597MOL0     H80547   5.429   0.929   7.745 -1.0220 -1.5732  2.2562
  597MOL0     H80548   5.403   0.936   7.911 -4.4711  1.5789  1.1365
  597MOL0     H80549   5.331   1.174   7.741  1.3702  0.3074  1.0241
  597MOL0     H80550   5.300   1.139   7.914 -0.7228  0.8343 -1.5567
  597MOL0     H80551   5.153   0.942   7.833 -0.3665  0.8372  0.5424
  597MOL0     H80552   5.197   0.979   7.666 -1.0506 -0.4561 -1.1197
  597MOL0     H80553   5.103   1.216   7.705 -1.2015 -0.5488 -1.5952
  597MOL0     H80554   5.045   1.148   7.867  1.1549  2.9026  0.2597
  597MOL0     H80555   4.920   1.370   7.754 -0.6495  2.1498 -2.9034
  597MOL0     H80556   4.750   1.527   7.834  2.1734  1.6373 -0.8573
  597MOL0     H80557   4.820   1.597   7.699 -0.3299  0.7527 -0.1341
  597MOL0     H80558   4.641   1.597   7.724 -0.6379 -0.1973  0.8861
  597MOL0     H80559   4.280   1.581   7.643 -0.3925 -0.7688  0.3268
  597MOL0     H80560   4.072   1.677   7.565  1.2016 -0.6856  4.1015
  597MOL0     H80561   3.946   1.662   7.307 -0.7394 -0.4126  2.0968
  597MOL0     H80562   3.874   1.491   7.275  0.1223 -1.3669  1.8692
  597MOL0     H80563   3.717   1.746   7.330 -0.9086 -0.3479  1.4286
  597MOL0     H80564   3.716   1.648   7.183  3.8501 -1.4624 -0.5235
  597MOL0     H80565   3.641   1.547   7.464  1.6391  0.1320 -0.0131
  597MOL0     H80566   3.627   1.461   7.315  1.4270  0.1092  0.9891
  597MOL0     H80567   3.467   1.704   7.413  2.7585 -0.4510 -0.0143
  597MOL0     H80568   3.471   1.657   7.243  0.7223  2.1844  0.4612
  597MOL0     H80569   3.379   1.493   7.474 -3.0999 -1.3207  0.2063
  597MOL0     H80570   3.394   1.426   7.308 -0.6513  0.7666 -0.5608
  597MOL0     H80571   3.218   1.656   7.377 -0.0873 -0.8151  1.1184
  597MOL0     H80572   3.209   1.590   7.221 -0.9398  1.6511 -0.3598
  597MOL0     H80573   3.129   1.442   7.493 -1.1498  2.0025 -0.1663
  597MOL0     H80574   3.152   1.350   7.335  3.8624  1.4698 -0.4676
  597MOL0     H80575   2.906   1.411   7.381  0.4125  0.7352  1.3223
  597MOL0     H80576   2.962   1.457   7.221  0.5934 -1.4557  0.5188
  597MOL0     H80577   3.957   1.289   7.413  0.4663 -0.0660  0.8149
  597MOL0     H80578   4.178   1.205   7.472 -1.4785  0.1164  0.3991
  597MOL0     H80579   4.534   1.159   7.532 -0.6678 -0.0538  1.6973
  597MOL0     H80580   4.723   1.015   7.595  0.9978 -0.1272 -0.7178
  597MOL0     H80581   6.771   0.908   7.760  0.3762 -0.1019  0.1214
  597MOL0     H80582   6.987   1.014   7.851 -0.5473 -0.3610 -0.0817
  597MOL0     H80583   7.351   1.081   7.986 -0.1589 -0.1361 -1.3429
  597MOL0     H80584   7.572   1.174   8.027  1.1807  2.0983 -3.8018
  597MOL0     H80585   7.910   0.871   8.020 -1.9338 -0.0670 -0.4386
  597MOL0     H80586   7.933   0.958   7.865 -3.2772  1.4240 -0.4650
  597MOL0     H80587   8.114   0.957   8.035 -0.3705 -0.0661 -2.2745
  597MOL0     H80588   8.012   1.035   8.154  0.3750  2.3947  0.5356
  597MOL0     H80589   8.138   1.220   8.078 -1.8871 -1.0108  1.1539
  597MOL0     H80590   8.003   1.234   7.964  2.0254  1.7038  0.5850
  597MOL0     H80591   8.214   1.267   7.855 -0.6520  0.0349 -1.0060
  597MOL0     H80592   8.131   1.128   7.787  1.7663  2.0229 -2.9012
  597MOL0     H80593   8.468   0.951   7.972  0.2260 -1.6896 -2.6739
  597MOL0     H80594   7.740   0.812   7.844 -0.0009 -0.4610 -0.8880
  597MOL0     H80595   7.520   0.737   7.797 -1.5941  1.7674 -3.4911
  598MOL0     O80596   2.555   8.746   7.387  0.0002 -0.2032 -0.1735
  598MOL0     C80597   2.602   8.851   7.357  0.2332  0.3923 -0.2315
  598MOL0     O80598   2.545   8.934   7.270 -0.2728  0.3228 -1.0181
  598MOL0     C80599   2.411   8.929   7.234 -0.2043 -0.2237 -0.3044
  598MOL0     C80600   2.382   9.001   7.119 -0.2404 -0.1667 -0.9294
  598MOL0     C80601   2.245   9.029   7.097  0.0360 -0.4573  0.3531
  598MOL0     C80602   2.147   8.968   7.165 -0.3816 -0.5689 -0.0555
  598MOL0     O80603   2.013   9.015   7.136 -0.8224 -0.2454  0.1984
  598MOL0     C80604   1.901   8.943   7.170  0.3991  0.5507  0.0038
  598MOL0     C80605   1.804   8.968   7.062 -0.0773  0.1288  0.1158
  598MOL0     C80606   1.653   8.919   7.085 -0.4250 -0.8026 -0.4880
  598MOL0     C80607   1.585   8.975   7.200  0.0944 -0.0280 -0.4290
  598MOL0     C80608   1.445   8.911   7.224 -0.4997 -0.3322  0.6455
  598MOL0     C80609   1.333   8.958   7.125 -0.2721 -0.5663  0.5752
  598MOL0     C80610   1.208   8.979   7.203 -0.5723 -0.5331 -0.0835
  598MOL0     C80611   1.089   8.987   7.116 -0.4220 -0.5252  0.1789
  598MOL0     N80612   0.962   8.990   7.170  1.3782  0.4496  0.2438
  598MOL0     C80613   0.865   8.900   7.138 -0.2565 -0.3087 -0.1723
  598MOL0     C80614   0.761   8.959   7.195  0.1195  0.9320  0.4829
  598MOL0     C80615   0.638   8.886   7.229 -0.8444  1.1282 -0.2957
  598MOL0     C80616   0.552   8.839   7.111  0.2672  0.2803 -0.0450
  598MOL0     C80617   0.449   8.724   7.159 -0.0236 -0.0863 -0.2159
  598MOL0     C80618   0.343   8.788   7.257  0.5931 -0.0351  0.1296
  598MOL0     O80619   0.247   8.683   7.283  0.5800  0.1851 -0.4256
  598MOL0     C80620   0.120   8.727   7.276  0.8436  0.8716  0.1452
  598MOL0     C80621   0.042   8.642   7.197 -0.3568  0.1590  0.8455
  598MOL0     C80622  -0.086   8.673   7.169  1.7498  0.5188  0.1153
  598MOL0     C80623  -0.150   8.592   7.063  0.1387 -0.2454 -0.6184
  598MOL0     C80624  -0.155   8.784   7.230  0.0529  0.2435  0.4648
  598MOL0     C80625  -0.304   8.827   7.203  0.0991  0.3870  0.1164
  598MOL0     O80626  -0.395   8.744   7.141 -0.9977 -0.3474 -0.3354
  598MOL0     C80627  -0.525   8.791   7.139  0.7159 -0.1820 -0.6121
  598MOL0     C80628  -0.588   8.816   7.016 -0.5644 -0.3060 -0.4313
  598MOL0     C80629  -0.724   8.845   7.002 -0.1885 -0.0389 -0.3688
  598MOL0     C80630  -0.810   8.846   7.114 -1.1889 -0.0984  0.2282
  598MOL0     O80631  -0.938   8.867   7.090  0.3871 -0.1583  0.9799
  598MOL0     C80632  -1.032   8.869   7.188 -0.7512 -0.1008  0.1967
  598MOL0     C80633  -1.159   8.938   7.150  0.8074  0.8055 -0.3979
  598MOL0     C80634  -1.259   8.860   7.057 -0.0141  0.5360  0.4624
  598MOL0     C80635  -1.311   8.731   7.130 -0.1885 -0.1859 -0.2503
  598MOL0     C80636  -1.440   8.685   7.060  0.3012  0.2282  0.5853
  598MOL0     C80637  -1.491   8.563   7.135  0.0330 -0.0847 -0.2332
  598MOL0     C80638  -1.617   8.514   7.072  0.2433  0.2096 -0.6887
  598MOL0     C80639  -1.655   8.390   7.156  0.8849  1.2898  0.4603
  598MOL0    Cl80640  -1.558   8.247   7.101 -0.1433 -0.3470  0.3027
  598MOL0     C80641  -0.745   8.828   7.241 -0.3334 -0.6270 -0.7660
  598MOL0     C80642  -0.604   8.802   7.253  1.5536  0.1164  0.5320
  598MOL0     O80643  -0.321   8.946   7.229 -0.7308  0.6125  0.1081
  598MOL0     C80644  -0.073   8.870   7.311  1.0102 -0.2781 -0.2817
  598MOL0     C80645   0.064   8.842   7.328 -0.0146 -1.2122  0.2755
  598MOL0     N80646   0.805   9.074   7.259 -0.1225  0.0589  0.2850
  598MOL0     N80647   0.924   9.095   7.240 -0.4317 -0.2688  0.5494
  598MOL0     C80648   2.170   8.896   7.282 -0.7613 -0.8969 -0.1976
  598MOL0     C80649   2.304   8.873   7.313  0.1541 -0.1246  0.1163
  598MOL0     C80650   2.739   8.893   7.414  0.1104 -0.3584  0.0350
  598MOL0     C80651   2.793   9.010   7.373 -0.5228 -0.2475  0.1088
  598MOL0     C80652   2.914   9.057   7.429 -0.2651 -0.6845 -0.6089
  598MOL0     C80653   2.987   8.973   7.518  0.2358 -0.4182 -0.2478
  598MOL0     O80654   3.107   9.009   7.580  0.4534 -0.5007  0.6959
  598MOL0     C80655   3.125   9.153   7.591  1.2588  0.0136 -0.1603
  598MOL0     C80656   3.227   9.194   7.706  0.0620 -0.2860 -0.0905
  598MOL0     C80657   3.362   9.130   7.669  0.2060 -0.2119  0.2853
  598MOL0     C80658   3.479   9.185   7.754  0.0905  0.5506  0.8045
  598MOL0     C80659   3.590   9.091   7.784 -0.0894 -0.3652  0.9216
  598MOL0     C80660   3.669   9.000   7.775 -0.3867  0.3210 -1.3214
  598MOL0     C80661   2.931   8.852   7.557 -0.4610 -0.8830 -1.0169
  598MOL0     C80662   2.805   8.811   7.512  0.3531 -0.1607 -0.5828
  598MOL0     H80663   2.463   9.061   7.079 -1.1951  2.2497  0.5037
  598MOL0     H80664   2.212   9.092   7.015 -2.9594 -2.3579 -0.0447
  598MOL0     H80665   1.920   8.835   7.166 -0.3651  0.3325  1.4377
  598MOL0     H80666   1.859   8.957   7.270 -0.4879 -2.2171  0.0956
  598MOL0     H80667   1.816   9.071   7.026  0.8795 -0.0194 -0.0233
  598MOL0     H80668   1.830   8.909   6.974  0.4822 -1.1059  1.0842
  598MOL0     H80669   1.594   8.944   6.997 -3.0305  3.0464  2.0588
  598MOL0     H80670   1.661   8.812   7.103 -0.3551 -0.8729 -0.9360
  598MOL0     H80671   1.641   8.956   7.291 -1.8596 -1.1623  0.5988
  598MOL0     H80672   1.585   9.084   7.191  3.3397  0.0644 -0.3778
  598MOL0     H80673   1.457   8.803   7.210  0.8458 -0.2337  0.8819
  598MOL0     H80674   1.427   8.936   7.329  0.8614  1.9279  0.4208
  598MOL0     H80675   1.359   9.040   7.058  1.3721 -2.3706 -1.0914
  598MOL0     H80676   1.310   8.878   7.055 -1.9599 -0.6774  1.2188
  598MOL0     H80677   1.185   8.904   7.279 -2.2344  0.9008  0.9044
  598MOL0     H80678   1.217   9.076   7.253 -2.2543 -0.3066 -0.1520
  598MOL0     H80679   1.098   8.894   7.058  0.3858 -1.2415  1.3910
  598MOL0     H80680   1.101   9.070   7.047 -0.0829 -1.8990 -1.4921
  598MOL0     H80681   0.873   8.807   7.082  2.3339  0.9518 -2.1273
  598MOL0     H80682   0.652   8.811   7.307 -0.7235  1.2350 -0.2145
  598MOL0     H80683   0.583   8.958   7.289 -2.3930  1.7474 -2.3548
  598MOL0     H80684   0.621   8.809   7.032  3.3907  1.3038  2.1018
  598MOL0     H80685   0.494   8.920   7.065 -3.0857 -1.0907  1.4294
  598MOL0     H80686   0.492   8.639   7.213 -1.2298 -0.1028  0.7701
  598MOL0     H80687   0.389   8.693   7.073 -0.8048  0.8539 -0.0403
  598MOL0     H80688   0.305   8.872   7.198  0.1455 -0.5610 -0.3466
  598MOL0     H80689   0.395   8.825   7.345  1.6800 -1.2947  0.0510
  598MOL0     H80690   0.097   8.551   7.173  1.1421  1.4713 -1.0256
  598MOL0     H80691  -0.196   8.665   6.996  0.8606  1.5900  0.8317
  598MOL0     H80692  -0.080   8.530   7.005  0.6336 -0.8831  0.6243
  598MOL0     H80693  -0.216   8.515   7.104 -0.2550  0.2356 -0.3412
  598MOL0     H80694  -0.523   8.807   6.930 -1.2212  4.3635 -1.7221
  598MOL0     H80695  -0.769   8.849   6.903 -1.3452  1.7322  0.1774
  598MOL0     H80696  -1.046   8.762   7.209 -1.4813 -1.1239 -4.3962
  598MOL0     H80697  -0.982   8.923   7.268  0.4218  0.8449 -1.1118
  598MOL0     H80698  -1.218   8.955   7.241  0.0340  0.3908 -0.8172
  598MOL0     H80699  -1.148   9.040   7.112 -1.6195  1.6758  1.0449
  598MOL0     H80700  -1.221   8.829   6.960 -0.3816  0.3400  0.3797
  598MOL0     H80701  -1.342   8.929   7.041  2.3433  2.9529 -2.4044
  598MOL0     H80702  -1.234   8.654   7.127 -1.8523 -1.9676  0.4636
  598MOL0     H80703  -1.331   8.768   7.231 -1.6148  0.6675 -0.8084
  598MOL0     H80704  -1.419   8.651   6.958  2.3515 -1.8427  1.6002
  598MOL0     H80705  -1.515   8.765   7.057 -1.7496 -1.5999 -1.0915
  598MOL0     H80706  -1.416   8.484   7.130  0.3845  0.2149  0.2935
  598MOL0     H80707  -1.500   8.595   7.239  1.5651  1.5352 -0.5635
  598MOL0     H80708  -1.599   8.493   6.966 -0.8062  0.6506 -0.9581
  598MOL0     H80709  -1.695   8.590   7.080 -1.0485 -1.1093 -0.2682
  598MOL0     H80710  -1.760   8.364   7.137  0.9769 -1.1940  2.7393
  598MOL0     H80711  -1.635   8.410   7.261 -0.9174 -0.0592  1.1264
  598MOL0     H80712  -0.788   8.839   7.340  3.2098 -2.4902  1.1786
  598MOL0     H80713  -0.560   8.783   7.351  4.2830  3.7218  0.2123
  598MOL0     H80714  -0.109   8.958   7.362  1.9571 -0.6314  1.0425
  598MOL0     H80715   0.129   8.905   7.387 -2.8851  2.3568 -0.0349
  598MOL0     H80716   2.091   8.860   7.347 -1.1769  1.2442  0.5542
  598MOL0     H80717   2.322   8.818   7.405 -2.3589 -0.7952  0.2732
  598MOL0     H80718   2.733   9.075   7.310 -1.7198 -0.9266  0.5126
  598MOL0     H80719   2.937   9.160   7.403  0.4673 -0.3682  1.1587
  598MOL0     H80720   3.155   9.200   7.497  3.2045  1.7966  1.2609
  598MOL0     H80721   3.028   9.194   7.619  1.6328  0.0471  1.1371
  598MOL0     H80722   3.181   9.146   7.793  1.6379 -2.6139 -0.4430
  598MOL0     H80723   3.239   9.302   7.719  0.2440 -0.5598  2.4059
  598MOL0     H80724   3.389   9.152   7.565  0.3871  0.1104  0.3987
  598MOL0     H80725   3.350   9.022   7.676  0.2252 -0.2346 -0.0185
  598MOL0     H80726   3.434   9.230   7.844 -0.0494 -1.2354  1.6668
  598MOL0     H80727   3.527   9.268   7.702  2.0563  0.1179  1.8326
  598MOL0     H80728   3.725   8.909   7.773  1.1071  1.2213 -1.6825
  598MOL0     H80729   2.970   8.793   7.640 -1.8571 -0.8284 -0.2914
  598MOL0     H80730   2.752   8.724   7.547  1.2083  0.2089  1.8303
  599MOL0     O80731  10.159   8.884  10.334 -0.7883 -0.2900 -0.1224
  599MOL0     C80732  10.124   8.923  10.225 -0.2277  0.2892 -0.9121
  599MOL0     O80733   9.996   8.936  10.187 -0.1744  0.0297  0.0505
  599MOL0     C80734   9.894   8.921  10.277 -0.2998 -0.4067 -0.0917
  599MOL0     C80735   9.874   8.823  10.376  0.5009 -0.0522  0.4745
  599MOL0     C80736   9.757   8.806  10.453  0.3648  0.4137 -0.6829
  599MOL0     C80737   9.641   8.879  10.414  0.4150 -0.8794  1.3636
  599MOL0     O80738   9.511   8.857  10.465  0.8310 -0.2215  0.8291
  599MOL0     C80739   9.500   8.774  10.576  0.1358  0.3272 -0.3505
  599MOL0     C80740   9.352   8.754  10.606  0.3603  0.4522 -0.2854
  599MOL0     C80741   9.282   8.889  10.641  0.7591  0.1517 -0.6323
  599MOL0     C80742   9.135   8.850  10.679 -1.1239 -0.3569  0.2290
  599MOL0     C80743   9.067   8.983  10.729  0.1580  0.7714 -0.5705
  599MOL0     C80744   8.957   8.966  10.833 -0.1018 -0.0421  0.1487
  599MOL0     C80745   8.896   9.093  10.890 -0.7359  1.0927 -0.4010
  599MOL0     C80746   8.773   9.136  10.809 -0.4851 -0.2977  0.5931
  599MOL0     N80747   8.736   9.271  10.837 -0.0748  0.6384 -0.2729
  599MOL0     C80748   8.761   9.377  10.753 -0.6385 -0.0178 -0.9726
  599MOL0     C80749   8.699   9.481  10.820 -0.3653 -0.4014  0.4812
  599MOL0     C80750   8.680   9.618  10.771  0.1489  0.1520 -0.1423
  599MOL0     C80751   8.777   9.707  10.846  0.2648  0.8229 -0.1913
  599MOL0     C80752   8.748   9.854  10.813 -0.0158 -0.0494  0.6406
  599MOL0     C80753   8.637   9.910  10.889  0.6285 -0.5258  0.4292
  599MOL0     O80754   8.616  10.049  10.857  0.8007  0.0009  0.3839
  599MOL0     C80755   8.526  10.131  10.929 -0.2978  0.9799 -0.4828
  599MOL0     C80756   8.440  10.080  11.031 -0.1704 -0.2549  0.3597
  599MOL0     C80757   8.343  10.167  11.087  0.2837 -0.3581 -0.1487
  599MOL0     C80758   8.257  10.097  11.196  0.1618 -0.3406  0.7928
  599MOL0     C80759   8.343  10.308  11.046 -0.4482  0.2860 -0.9344
  599MOL0     C80760   8.233  10.401  11.090  0.4197 -0.6053 -0.3110
  599MOL0     O80761   8.130  10.354  11.170 -0.4819 -0.2915  0.1655
  599MOL0     C80762   8.030  10.435  11.181  0.8530 -0.3768  0.1524
  599MOL0     C80763   7.935  10.458  11.088  1.3038 -0.0788  0.0915
  599MOL0     C80764   7.816  10.539  11.113 -1.0384  0.0514  1.1933
  599MOL0     C80765   7.800  10.591  11.237 -0.6568  0.9062  1.2546
  599MOL0     O80766   7.683  10.656  11.252  0.0395  0.0700  0.6336
  599MOL0     C80767   7.664  10.756  11.357  0.8181  0.2868 -0.2699
  599MOL0     C80768   7.533  10.837  11.351  1.1756 -0.0748  1.1160
  599MOL0     C80769   7.516  10.911  11.215  0.1099 -0.4442 -0.3339
  599MOL0     C80770   7.384  10.985  11.196  0.4636  0.2114  0.5410
  599MOL0     C80771   7.358  11.109  11.284 -0.2755  0.9085 -0.3868
  599MOL0     C80772   7.229  11.186  11.241 -0.8882 -0.1394 -0.3361
  599MOL0     C80773   7.156  11.246  11.358 -0.0450 -1.0132  0.4989
  599MOL0     C80774   7.102  11.139  11.457  0.0473  0.1214  0.1557
  599MOL0    Cl80775   7.013  11.016  11.378 -0.2397  0.5974  0.1583
  599MOL0     C80776   7.895  10.561  11.342 -0.4326 -0.5794 -0.7174
  599MOL0     C80777   8.008  10.488  11.306 -0.6550 -0.3847  0.1471
  599MOL0     O80778   8.245  10.519  11.046 -0.2171  0.5610  0.4118
  599MOL0     C80779   8.436  10.361  10.956 -0.6885  0.2307 -0.0838
  599MOL0     C80780   8.532  10.267  10.899  0.7543 -0.4590  0.1159
  599MOL0     N80781   8.646   9.436  10.942 -0.4444 -0.0220 -0.6871
  599MOL0     N80782   8.662   9.307  10.948  0.9902 -0.1021 -0.0294
  599MOL0     C80783   9.657   8.987  10.319 -0.3588 -1.0843  0.7476
  599MOL0     C80784   9.775   9.005  10.250 -0.1406  0.4127 -0.7349
  599MOL0     C80785  10.237   8.957  10.130  1.1009 -0.0835 -0.1346
  599MOL0     C80786  10.215   9.003  10.001  0.1826  0.4694  0.1499
  599MOL0     C80787  10.321   9.035   9.914 -0.0734 -0.1830 -0.0461
  599MOL0     C80788  10.455   9.010   9.962  0.0184  0.3660  0.7123
  599MOL0     O80789  10.556   9.045   9.871 -0.1826  0.5546  0.2568
  599MOL0     C80790  10.693   9.041   9.917  0.4563  0.0161 -0.3678
  599MOL0     C80791  10.778   9.132   9.839  0.8253 -0.7565 -0.0457
  599MOL0     C80792  10.738   9.280   9.862 -0.3852 -0.2619 -0.1320
  599MOL0     C80793  10.831   9.365   9.773 -0.9525 -0.7770  0.1517
  599MOL0     C80794  10.967   9.393   9.825  0.5591 -0.0535 -0.2542
  599MOL0     C80795  11.082   9.413   9.865 -0.8143  0.2145 -0.6308
  599MOL0     C80796  10.475   8.949  10.090  0.2400  0.0792 -0.1595
  599MOL0     C80797  10.363   8.919  10.170 -0.5639  0.2472 -0.1396
  599MOL0     H80798   9.957   8.757  10.397  0.7601  0.3319  0.6832
  599MOL0     H80799   9.756   8.724  10.524  2.2402  1.7773  1.0295
  599MOL0     H80800   9.546   8.675  10.562  0.8313  0.3248  1.6009
  599MOL0     H80801   9.551   8.829  10.655  0.5707 -0.4033 -0.1163
  599MOL0     H80802   9.306   8.706  10.519  3.0132 -0.2894 -1.3692
  599MOL0     H80803   9.335   8.690  10.693  0.5077 -0.2711 -0.7798
  599MOL0     H80804   9.321   8.955  10.719  0.8268  0.6773 -1.1044
  599MOL0     H80805   9.274   8.959  10.557 -0.5774  1.5534  0.5988
  599MOL0     H80806   9.099   8.815  10.582  1.4562  4.1447 -2.7202
  599MOL0     H80807   9.113   8.763  10.741 -0.3683  0.1076  1.1783
  599MOL0     H80808   9.139   9.050  10.777 -0.1001  1.4949 -1.1812
  599MOL0     H80809   9.030   9.039  10.643  0.3141  4.5397  1.6141
  599MOL0     H80810   8.886   8.896  10.788  1.6412 -1.0582 -1.1631
  599MOL0     H80811   8.996   8.906  10.917 -1.2715  0.9941  1.4713
  599MOL0     H80812   8.861   9.068  10.990  1.2966 -1.1613 -0.1617
  599MOL0     H80813   8.976   9.168  10.893  3.6727 -3.0399  3.5120
  599MOL0     H80814   8.690   9.080  10.853 -1.3639  1.5531  1.3956
  599MOL0     H80815   8.785   9.119  10.702  0.2152  0.5292  0.5304
  599MOL0     H80816   8.808   9.383  10.656  1.7173  1.9299  0.1740
  599MOL0     H80817   8.684   9.630  10.662  1.8014 -1.5919 -0.3241
  599MOL0     H80818   8.575   9.643  10.788  0.1826  0.0548  0.2173
  599MOL0     H80819   8.876   9.678  10.809  0.1404 -0.0719  0.1452
  599MOL0     H80820   8.778   9.690  10.954  0.7172 -0.6063 -0.3970
  599MOL0     H80821   8.739   9.876  10.706  1.7715 -0.7879  0.2972
  599MOL0     H80822   8.840   9.906  10.841  1.1334 -1.4924 -0.2550
  599MOL0     H80823   8.676   9.903  10.991  0.4995  1.5519  0.6557
  599MOL0     H80824   8.545   9.852  10.884  0.9357 -1.1602  1.7869
  599MOL0     H80825   8.461   9.979  11.064 -0.5379 -0.0846  1.1116
  599MOL0     H80826   8.276   9.989  11.199  0.5736 -0.3056 -0.0613
  599MOL0     H80827   8.271  10.151  11.290  1.4383  1.6789 -0.4668
  599MOL0     H80828   8.151  10.103  11.169  0.4751 -1.3060 -0.7851
  599MOL0     H80829   7.947  10.403  10.995 -0.9406  0.1604 -0.4000
  599MOL0     H80830   7.742  10.555  11.035  1.4103 -2.4104 -1.9157
  599MOL0     H80831   7.681  10.708  11.454 -1.8925 -1.9825 -0.7748
  599MOL0     H80832   7.744  10.829  11.348  0.5384  0.4665 -1.6350
  599MOL0     H80833   7.443  10.774  11.356 -0.2741  1.5708 -1.6186
  599MOL0     H80834   7.535  10.906  11.436  0.8927 -1.1404  2.0121
  599MOL0     H80835   7.523  10.831  11.140  1.8467  0.4641 -1.2151
  599MOL0     H80836   7.592  10.989  11.201 -0.2196  0.1016  0.8068
  599MOL0     H80837   7.384  11.014  11.091  0.0484  1.1864  0.7899
  599MOL0     H80838   7.302  10.915  11.216 -0.1258  0.3380 -1.2275
  599MOL0     H80839   7.443  11.176  11.300 -1.0069  1.6236  0.5965
  599MOL0     H80840   7.335  11.057  11.377 -0.6638  0.3193 -0.8076
  599MOL0     H80841   7.255  11.266  11.171  0.6782 -0.2522  0.0864
  599MOL0     H80842   7.169  11.109  11.192  1.1928  0.1010 -3.5066
  599MOL0     H80843   7.072  11.315  11.342  1.8722  1.8823  2.1091
  599MOL0     H80844   7.229  11.317  11.400 -0.2785  0.1405 -0.9678
  599MOL0     H80845   7.038  11.195  11.525 -0.2012  0.3184 -0.2362
  599MOL0     H80846   7.179  11.093  11.519  0.7855  0.5506 -0.4183
  599MOL0     H80847   7.879  10.582  11.447 -0.7099  1.4106 -1.1113
  599MOL0     H80848   8.070  10.454  11.389 -0.6419  2.1008  1.2304
  599MOL0     H80849   8.455  10.464  10.927  0.9822 -0.2772 -0.8842
  599MOL0     H80850   8.606  10.300  10.827  1.2677 -2.6724 -0.4581
  599MOL0     H80851   9.583   9.064  10.299  1.2530  0.7514  1.4665
  599MOL0     H80852   9.782   9.096  10.192  0.2839  1.2310  0.5493
  599MOL0     H80853  10.112   9.001   9.968 -0.3293  0.3205  1.6793
  599MOL0     H80854  10.298   9.075   9.815  2.0077 -1.4685 -1.1226
  599MOL0     H80855  10.709   9.051  10.025 -1.0342 -0.6555 -0.0579
  599MOL0     H80856  10.735   8.942   9.898 -2.5168 -1.0471 -2.0094
  599MOL0     H80857  10.759   9.098   9.737 -1.7767  0.9304 -0.2057
  599MOL0     H80858  10.883   9.120   9.867  1.7928  2.4061 -1.7540
  599MOL0     H80859  10.754   9.299   9.968  3.1395 -1.1168 -0.3569
  599MOL0     H80860  10.642   9.318   9.826 -1.1728  2.2246  3.9973
  599MOL0     H80861  10.790   9.464   9.751 -1.2111 -0.2504  2.6900
  599MOL0     H80862  10.848   9.312   9.679 -1.6471 -0.4658 -0.1593
  599MOL0     H80863  11.178   9.427   9.910 -0.7556 -0.4704 -0.5370
  599MOL0     H80864  10.575   8.933  10.128  1.0307  3.2346 -0.7064
  599MOL0     H80865  10.380   8.882  10.270  0.7549 -2.5204 -1.2861
  600MOL0     O80866   0.067   1.091   4.248  0.3470 -0.5004 -0.7531
  600MOL0     C80867   0.111   0.983   4.209  0.7505  0.3182  0.1308
  600MOL0     O80868   0.049   0.900   4.126 -0.2364 -0.8386 -0.6030
  600MOL0     C80869  -0.070   0.927   4.066 -0.9510 -0.5790  0.4555
  600MOL0     C80870  -0.124   0.816   4.011 -0.4772  0.8276  0.0783
  600MOL0     C80871  -0.238   0.816   3.941  0.6189  0.0490 -0.9600
  600MOL0     C80872  -0.319   0.927   3.936  0.3991 -0.1000 -0.5987
  600MOL0     O80873  -0.446   0.915   3.889 -0.0682 -0.7152 -0.8278
  600MOL0     C80874  -0.544   1.011   3.923  0.1218  0.4541  0.4499
  600MOL0     C80875  -0.597   1.001   4.061 -0.1938  0.4280 -0.6920
  600MOL0     C80876  -0.698   0.887   4.079  0.3983 -0.2252 -0.2262
  600MOL0     C80877  -0.747   0.875   4.220  0.7362  0.4515 -1.4796
  600MOL0     C80878  -0.805   0.732   4.228 -0.1769 -0.1291 -0.3627
  600MOL0     C80879  -0.863   0.701   4.359  0.0862 -0.7929  0.3263
  600MOL0     C80880  -0.755   0.686   4.475 -0.4027  0.4584  0.2980
  600MOL0     C80881  -0.820   0.608   4.595 -0.1735 -0.3788 -0.5932
  600MOL0     N80882  -0.899   0.691   4.689  0.1406  0.0370  0.5611
  600MOL0     C80883  -0.877   0.830   4.709 -0.1033 -0.4997  0.4645
  600MOL0     C80884  -0.991   0.874   4.762  0.4434 -0.6433 -0.4835
  600MOL0     C80885  -1.024   1.000   4.824  0.0670 -0.9217  0.1599
  600MOL0     C80886  -1.172   1.043   4.836 -0.0468  0.0146 -0.0247
  600MOL0     C80887  -1.204   1.181   4.892  0.0100 -0.1355 -0.8583
  600MOL0     C80888  -1.340   1.229   4.863 -0.6432  0.0581  0.9291
  600MOL0     O80889  -1.434   1.134   4.909  0.0040 -0.7045  0.7148
  600MOL0     C80890  -1.565   1.169   4.912  0.2057  0.1618  0.7038
  600MOL0     C80891  -1.623   1.285   4.869  0.4878  0.2292 -0.8004
  600MOL0     C80892  -1.758   1.310   4.877 -0.4321 -0.0731 -0.1318
  600MOL0     C80893  -1.797   1.424   4.787  0.3257  0.2424 -0.2747
  600MOL0     C80894  -1.845   1.220   4.943 -0.5476 -0.0321 -0.3400
  600MOL0     C80895  -1.988   1.244   4.959  0.9189  0.6240 -0.8688
  600MOL0     O80896  -2.047   1.351   4.924 -0.7753  0.6149 -0.1429
  600MOL0     C80897  -2.185   1.349   4.932 -0.3744  0.9002  0.8971
  600MOL0     C80898  -2.275   1.300   4.830 -0.5196 -0.1324  0.5422
  600MOL0     C80899  -2.415   1.305   4.842 -0.0949 -0.3532 -0.4922
  600MOL0     C80900  -2.471   1.352   4.960  0.2903  0.4952 -0.4788
  600MOL0     O80901  -2.603   1.356   4.994 -0.7025  0.1449  0.4743
  600MOL0     C80902  -2.697   1.367   4.893 -0.0154 -0.1212 -0.2467
  600MOL0     C80903  -2.834   1.413   4.948 -0.2508  0.5348  1.5789
  600MOL0     C80904  -2.831   1.564   4.976  0.1455  0.1741 -0.5223
  600MOL0     C80905  -2.952   1.599   5.063  0.0950  0.8744  0.1262
  600MOL0     C80906  -3.035   1.702   4.990  0.2536 -0.8952  0.0709
  600MOL0     C80907  -3.187   1.682   5.010  0.0820  0.8554  0.1990
  600MOL0     C80908  -3.248   1.590   4.902 -0.1102 -0.9306 -0.0511
  600MOL0     C80909  -3.393   1.612   4.875 -0.6749 -0.8896  0.1691
  600MOL0    Cl80910  -3.488   1.637   5.024  0.1371 -0.4364 -0.4293
  600MOL0     C80911  -2.380   1.389   5.066  0.1767  0.2512  0.0258
  600MOL0     C80912  -2.238   1.400   5.045  1.5381  0.9617 -0.1079
  600MOL0     O80913  -2.045   1.148   5.018 -0.6833 -0.0776  0.9881
  600MOL0     C80914  -1.786   1.096   4.978 -0.0441 -0.8150  0.5758
  600MOL0     C80915  -1.651   1.073   4.968 -0.9490 -0.5748  0.4809
  600MOL0     N80916  -1.078   0.772   4.779  0.0279  0.4405  0.0597
  600MOL0     N80917  -1.019   0.655   4.741  0.6992 -0.0055  0.2707
  600MOL0     C80918  -0.262   1.045   3.990 -0.2210 -0.6834 -0.3544
  600MOL0     C80919  -0.134   1.051   4.045 -0.8674  0.1007 -0.4057
  600MOL0     C80920   0.249   0.941   4.258 -0.3036 -0.5746 -0.4379
  600MOL0     C80921   0.297   0.806   4.249 -0.0687 -0.1298  1.4405
  600MOL0     C80922   0.428   0.784   4.297 -0.4318  0.3928  0.5915
  600MOL0     C80923   0.507   0.885   4.354 -0.4895  0.7020  0.2804
  600MOL0     O80924   0.640   0.860   4.385 -0.1017  0.1118  0.7137
  600MOL0     C80925   0.697   0.727   4.410 -0.1631  0.4276  0.1128
  600MOL0     C80926   0.739   0.677   4.273  0.1011  0.0319 -0.9270
  600MOL0     C80927   0.840   0.569   4.290  0.3428  0.8300 -0.3997
  600MOL0     C80928   0.915   0.519   4.166 -0.0750 -0.5786  0.4073
  600MOL0     C80929   1.050   0.461   4.197 -0.7228  0.3455 -0.7819
  600MOL0     C80930   1.147   0.408   4.237 -0.2924 -0.1811 -0.5522
  600MOL0     C80931   0.465   1.014   4.343  1.1878  0.0100 -0.3688
  600MOL0     C80932   0.335   1.043   4.299 -0.2709 -0.4166  0.2951
  600MOL0     H80933  -0.081   0.722   4.043  0.5158  1.9078  2.1503
  600MOL0     H80934  -0.283   0.726   3.899 -1.1575  0.3675  0.1406
  600MOL0     H80935  -0.516   1.116   3.908 -0.0986  0.5721  0.8522
  600MOL0     H80936  -0.629   1.013   3.854  1.9169  2.5638 -1.8692
  600MOL0     H80937  -0.520   0.985   4.137 -0.5124 -0.8735 -0.6104
  600MOL0     H80938  -0.652   1.091   4.089  1.2715  1.2324 -0.2777
  600MOL0     H80939  -0.777   0.885   4.003  0.6549 -2.7874 -0.5128
  600MOL0     H80940  -0.641   0.798   4.052  0.2567 -0.9127  1.6622
  600MOL0     H80941  -0.673   0.886   4.300 -2.5438  2.5095  1.5183
  600MOL0     H80942  -0.820   0.949   4.253  3.6126  2.1748  1.6422
  600MOL0     H80943  -0.886   0.729   4.155 -1.3934 -0.9193  0.9427
  600MOL0     H80944  -0.727   0.656   4.217  2.3470  2.1322  0.7502
  600MOL0     H80945  -0.938   0.777   4.379  0.8134 -0.0579  0.3229
  600MOL0     H80946  -0.913   0.605   4.348 -2.4269  0.5484 -0.7259
  600MOL0     H80947  -0.673   0.623   4.440 -1.5698  0.1696 -2.0968
  600MOL0     H80948  -0.717   0.781   4.514 -0.5594  0.6714 -0.0616
  600MOL0     H80949  -0.746   0.549   4.650  1.4300  2.1482  0.1479
  600MOL0     H80950  -0.898   0.547   4.549 -0.6471 -2.1730  2.3161
  600MOL0     H80951  -0.781   0.877   4.690  0.2520 -0.5376  1.9840
  600MOL0     H80952  -0.969   1.001   4.918  0.8514  0.0272 -0.2878
  600MOL0     H80953  -0.981   1.074   4.755  0.1641 -1.0629  0.0692
  600MOL0     H80954  -1.211   0.963   4.900  1.6041  0.5429  1.7446
  600MOL0     H80955  -1.213   1.045   4.734 -2.1338  0.7112  0.7630
  600MOL0     H80956  -1.139   1.251   4.840 -0.9781  1.9343  0.5672
  600MOL0     H80957  -1.180   1.186   4.999 -2.2975 -0.6424 -0.2346
  600MOL0     H80958  -1.354   1.230   4.754  0.7064 -0.7243  0.7218
  600MOL0     H80959  -1.350   1.328   4.908  2.0979  1.7142 -1.7179
  600MOL0     H80960  -1.565   1.354   4.809 -1.2601  0.1017 -2.7413
  600MOL0     H80961  -1.885   1.386   4.734 -0.7484  2.9546 -0.5578
  600MOL0     H80962  -1.813   1.507   4.856  0.2879  0.1468 -0.1667
  600MOL0     H80963  -1.726   1.454   4.710 -0.8079 -1.8356 -2.2725
  600MOL0     H80964  -2.227   1.273   4.736 -0.1026  1.1563  0.3674
  600MOL0     H80965  -2.482   1.278   4.762  2.5749 -1.1700 -2.5925
  600MOL0     H80966  -2.662   1.451   4.832 -1.5054 -1.0277 -2.4485
  600MOL0     H80967  -2.696   1.269   4.845 -0.7105 -0.8114  1.0941
  600MOL0     H80968  -2.917   1.397   4.879 -0.8050  0.9703  2.1340
  600MOL0     H80969  -2.851   1.366   5.046  1.9848  0.5980  2.0515
  600MOL0     H80970  -2.831   1.611   4.878  2.1090  1.4952  0.0481
  600MOL0     H80971  -2.740   1.577   5.035  0.5466  1.1695 -1.3336
  600MOL0     H80972  -3.009   1.507   5.070  2.3277 -0.6779 -0.8764
  600MOL0     H80973  -2.921   1.632   5.163  2.2871 -1.7905  0.4512
  600MOL0     H80974  -3.010   1.711   4.884  0.2289 -1.1497  0.0426
  600MOL0     H80975  -3.005   1.799   5.032 -0.9553  0.2366 -1.5598
  600MOL0     H80976  -3.221   1.660   5.112 -3.1527 -1.1142 -1.1222
  600MOL0     H80977  -3.233   1.780   4.992 -0.2888  0.8184  0.8879
  600MOL0     H80978  -3.230   1.483   4.916  1.8529 -0.6904 -0.5071
  600MOL0     H80979  -3.199   1.631   4.813 -1.5317 -0.5409 -0.6834
  600MOL0     H80980  -3.430   1.525   4.819  0.0744 -0.1823 -1.4994
  600MOL0     H80981  -3.414   1.691   4.802 -4.8461 -1.1716  0.7788
  600MOL0     H80982  -2.411   1.424   5.163  0.3841 -1.0044  0.5651
  600MOL0     H80983  -2.186   1.443   5.130  0.9336  2.5274 -0.4979
  600MOL0     H80984  -1.840   1.012   5.020  0.2406 -0.8994  0.7782
  600MOL0     H80985  -1.599   0.982   4.995  0.1351 -0.8149 -2.0749
  600MOL0     H80986  -0.319   1.137   3.994 -2.7280 -2.1848  1.0388
  600MOL0     H80987  -0.108   1.146   4.091  0.5928 -0.7992  0.7253
  600MOL0     H80988   0.230   0.726   4.219  0.7238 -1.2281  2.5123
  600MOL0     H80989   0.461   0.680   4.300  3.6860  1.4046 -1.7174
  600MOL0     H80990   0.783   0.732   4.477  2.0188  0.3916 -2.5169
  600MOL0     H80991   0.624   0.660   4.457 -0.3605 -0.8049 -1.8147
  600MOL0     H80992   0.789   0.756   4.216  1.7574 -0.5197 -0.3126
  600MOL0     H80993   0.659   0.634   4.212  1.0191 -0.7264 -1.6463
  600MOL0     H80994   0.783   0.479   4.316  0.9840 -0.2025 -2.4389
  600MOL0     H80995   0.911   0.589   4.371 -1.2400 -0.3213  1.3728
  600MOL0     H80996   0.927   0.603   4.096  1.3410  1.7908  3.3031
  600MOL0     H80997   0.870   0.433   4.115  2.5493 -1.6715 -0.2286
  600MOL0     H80998   1.230   0.353   4.277  0.9168  1.0735 -1.2198
  600MOL0     H80999   0.518   1.105   4.368 -0.3728  0.7780  0.2973
  600MOL0     H81000   0.306   1.147   4.298 -0.8177 -0.5656  0.4572
  601MOL0     O81001   6.298   4.140   0.195  0.3146  0.7406 -0.5954
  601MOL0     C81002   6.400   4.211   0.188 -0.3796  0.4703  0.0792
  601MOL0     O81003   6.410   4.349   0.207  0.0236  0.5615 -0.0822
  601MOL0     C81004   6.294   4.418   0.207 -0.8582 -0.3441  0.2694
  601MOL0     C81005   6.220   4.446   0.093 -0.0439  0.8226  0.0690
  601MOL0     C81006   6.096   4.509   0.113 -0.1265  0.6491  0.0768
  601MOL0     C81007   6.063   4.566   0.238 -1.3711  0.0253 -0.4609
  601MOL0     O81008   5.947   4.636   0.237 -0.1832  0.3366  0.3895
  601MOL0     C81009   5.854   4.603   0.333  1.3132 -1.0934  0.4475
  601MOL0     C81010   5.795   4.469   0.300  0.8667  0.4399  0.2663
  601MOL0     C81011   5.726   4.463   0.163  1.5041 -0.2430  0.3392
  601MOL0     C81012   5.627   4.339   0.162  0.4820 -0.3903  0.3256
  601MOL0     C81013   5.478   4.378   0.176  0.1548 -0.0754  0.0913
  601MOL0     C81014   5.431   4.439   0.308  0.6505  0.4832  0.2985
  601MOL0     C81015   5.285   4.494   0.286  0.4093 -0.4841  0.0939
  601MOL0     C81016   5.282   4.625   0.230 -0.0015  0.0528 -0.4053
  601MOL0     N81017   5.153   4.661   0.196 -0.8862 -0.1247  1.2933
  601MOL0     C81018   5.063   4.733   0.266  0.6095  0.3655 -0.5247
  601MOL0     C81019   4.958   4.754   0.179  1.0223  0.9308 -0.5434
  601MOL0     C81020   4.826   4.821   0.225  0.3577  0.3775  0.0900
  601MOL0     C81021   4.718   4.714   0.227 -0.4923 -0.0821  1.2130
  601MOL0     C81022   4.600   4.773   0.297  1.0359  0.3522 -0.1968
  601MOL0     C81023   4.490   4.665   0.292  0.9988  0.1074 -0.2192
  601MOL0     O81024   4.369   4.711   0.363  0.6292 -0.3017 -0.1097
  601MOL0     C81025   4.253   4.645   0.355  0.1307  0.4370 -0.4691
  601MOL0     C81026   4.256   4.508   0.320 -0.3821 -0.6059 -0.0340
  601MOL0     C81027   4.135   4.435   0.338 -0.5968  0.3646 -0.4672
  601MOL0     C81028   4.150   4.295   0.314  0.0115 -0.0602  0.0205
  601MOL0     C81029   4.014   4.493   0.385  0.6400  0.0109  0.5726
  601MOL0     C81030   3.883   4.422   0.403  1.0711  0.1618  1.3137
  601MOL0     O81031   3.798   4.467   0.498 -0.0526 -0.1475 -0.1944
  601MOL0     C81032   3.661   4.433   0.506 -1.0994 -0.4196  0.3726
  601MOL0     C81033   3.596   4.370   0.405  1.0425  0.5411  0.2090
  601MOL0     C81034   3.463   4.330   0.421 -0.4918  0.0561 -1.0143
  601MOL0     C81035   3.391   4.372   0.540 -0.1104  1.2161  1.2917
  601MOL0     O81036   3.261   4.336   0.541 -0.1696 -0.5782 -0.5156
  601MOL0     C81037   3.195   4.363   0.665 -0.4382  0.3074  0.1302
  601MOL0     C81038   3.059   4.283   0.660  0.0798 -0.1684  0.5703
  601MOL0     C81039   2.940   4.356   0.606  0.0989 -0.2976 -0.3976
  601MOL0     C81040   2.822   4.250   0.600  0.9479 -0.8124  0.0246
  601MOL0     C81041   2.705   4.314   0.527 -0.1817  0.5033 -0.0929
  601MOL0     C81042   2.596   4.208   0.489 -0.2096 -0.6849  0.3229
  601MOL0     C81043   2.484   4.188   0.587 -0.5107  0.0316  0.4903
  601MOL0     C81044   2.397   4.309   0.600  0.5345 -0.1241 -0.1274
  601MOL0    Cl81045   2.246   4.257   0.676  0.2831  0.1338 -0.0727
  601MOL0     C81046   3.458   4.442   0.638  1.6360 -0.1568  0.0783
  601MOL0     C81047   3.591   4.471   0.616  0.8624 -0.4228  0.6014
  601MOL0     O81048   3.859   4.320   0.334  0.1931  0.0381  0.1882
  601MOL0     C81049   4.020   4.626   0.437  0.0576 -0.3229  0.1483
  601MOL0     C81050   4.140   4.699   0.422 -0.5625  0.1327  0.2342
  601MOL0     N81051   4.984   4.683   0.059  0.4033  0.1020 -0.3498
  601MOL0     N81052   5.103   4.638   0.071  0.4988  0.1524 -0.0130
  601MOL0     C81053   6.138   4.540   0.353  0.2516 -0.0079  0.5410
  601MOL0     C81054   6.250   4.464   0.333 -0.8159  0.4798 -0.5082
  601MOL0     C81055   6.532   4.140   0.168  0.7308  0.7275 -0.7441
  601MOL0     C81056   6.646   4.217   0.167  0.3943  0.1963 -0.1449
  601MOL0     C81057   6.759   4.161   0.135  0.3581 -0.6044  0.2747
  601MOL0     C81058   6.771   4.024   0.122  0.6503  0.5595 -0.1314
  601MOL0     O81059   6.905   3.977   0.130 -0.4040  0.1384 -0.1877
  601MOL0     C81060   6.938   3.843   0.173 -0.0647 -0.2840 -0.6287
  601MOL0     C81061   7.086   3.806   0.130  0.0574  0.2539  0.0159
  601MOL0     C81062   7.188   3.905   0.197 -0.2332  0.0231  0.2035
  601MOL0     C81063   7.199   4.037   0.120 -0.3750  0.7968 -0.2148
  601MOL0     C81064   7.330   4.101   0.146  0.7082  0.3498 -0.1138
  601MOL0     C81065   7.446   4.135   0.164 -0.3942 -0.0929  0.0705
  601MOL0     C81066   6.659   3.939   0.138  0.8326 -0.7694 -0.4558
  601MOL0     C81067   6.533   3.999   0.147  0.0247  0.2215 -0.0823
  601MOL0     H81068   6.257   4.414  -0.004 -2.3222  2.0208 -1.2636
  601MOL0     H81069   6.029   4.550   0.037 -0.3646  1.5735  0.7626
  601MOL0     H81070   5.893   4.607   0.435  0.4223 -0.3126  0.7688
  601MOL0     H81071   5.778   4.681   0.325  1.0035 -1.2481  1.6291
  601MOL0     H81072   5.873   4.393   0.293 -0.3101 -0.9423  1.4054
  601MOL0     H81073   5.725   4.452   0.382 -2.0972  1.0457 -1.9694
  601MOL0     H81074   5.681   4.558   0.135  2.9158 -0.1224 -1.7938
  601MOL0     H81075   5.797   4.442   0.083  1.1036  3.0049 -0.9912
  601MOL0     H81076   5.632   4.293   0.063  0.4099 -1.4353  0.7917
  601MOL0     H81077   5.652   4.251   0.223 -2.7239 -1.1999  0.6752
  601MOL0     H81078   5.463   4.442   0.089  1.0483  1.0784  0.7561
  601MOL0     H81079   5.418   4.290   0.154 -0.1119  0.1693 -0.1640
  601MOL0     H81080   5.423   4.363   0.385  0.2737  1.7110  1.5207
  601MOL0     H81081   5.502   4.516   0.339  0.4762  0.1223  1.6372
  601MOL0     H81082   5.235   4.430   0.213 -1.0051  1.1297 -0.3969
  601MOL0     H81083   5.228   4.487   0.379 -3.9286 -0.4636 -2.3152
  601MOL0     H81084   5.341   4.622   0.138  0.6601 -2.2776  0.0320
  601MOL0     H81085   5.317   4.693   0.308 -2.3068  0.6184  0.2122
  601MOL0     H81086   5.071   4.762   0.371 -5.1692  2.3167 -0.2684
  601MOL0     H81087   4.844   4.866   0.323 -0.8373 -0.7811  0.8661
  601MOL0     H81088   4.800   4.901   0.154  1.2161 -0.7029 -1.5077
  601MOL0     H81089   4.745   4.621   0.277 -1.6951 -1.1791 -0.1023
  601MOL0     H81090   4.704   4.690   0.121  4.2957  1.3520  0.0465
  601MOL0     H81091   4.562   4.860   0.242 -0.1331 -1.0974 -1.7887
  601MOL0     H81092   4.631   4.806   0.397 -0.8752  1.0574  0.1974
  601MOL0     H81093   4.539   4.576   0.332  0.4313 -0.3640 -0.5469
  601MOL0     H81094   4.461   4.642   0.189 -1.3413  1.5234  0.0435
  601MOL0     H81095   4.344   4.468   0.272  1.2491  1.8937  0.7026
  601MOL0     H81096   4.091   4.261   0.400 -1.5774  1.2918 -0.4833
  601MOL0     H81097   4.094   4.271   0.223 -0.0975 -1.4533  0.4219
  601MOL0     H81098   4.247   4.245   0.324 -0.8391 -1.6876  0.5374
  601MOL0     H81099   3.638   4.328   0.313  2.5012 -2.5759  2.1102
  601MOL0     H81100   3.412   4.258   0.357 -2.4101 -1.1979  1.6970
  601MOL0     H81101   3.252   4.322   0.749 -1.2146  2.1366  1.6371
  601MOL0     H81102   3.186   4.470   0.688  0.2821  0.3739  0.1036
  601MOL0     H81103   3.072   4.194   0.598 -0.6901  1.6916 -2.4758
  601MOL0     H81104   3.029   4.247   0.759 -0.3600 -1.4331  0.0043
  601MOL0     H81105   2.972   4.402   0.512  0.6511  1.9109  0.7893
  601MOL0     H81106   2.902   4.434   0.673  1.7769 -0.8497  1.2886
  601MOL0     H81107   2.845   4.157   0.549  0.3804 -1.8637  1.6122
  601MOL0     H81108   2.798   4.217   0.701  1.0573  0.3467  0.4445
  601MOL0     H81109   2.735   4.356   0.431  0.0463 -2.2188 -1.2971
  601MOL0     H81110   2.662   4.397   0.585 -0.2093  1.0402 -0.8700
  601MOL0     H81111   2.561   4.234   0.389  2.3754  2.0284 -0.0105
  601MOL0     H81112   2.643   4.110   0.475  0.0825 -0.3722 -0.9782
  601MOL0     H81113   2.528   4.160   0.683  1.2277  3.2058  0.7635
  601MOL0     H81114   2.429   4.099   0.557  0.6710 -1.4810  2.5532
  601MOL0     H81115   2.366   4.341   0.500 -0.5709 -0.8044 -0.0199
  601MOL0     H81116   2.448   4.387   0.657  1.1336  1.9363 -3.2127
  601MOL0     H81117   3.406   4.494   0.717  1.9436 -0.8876  0.7696
  601MOL0     H81118   3.640   4.531   0.693  4.1748 -2.1201  0.0111
  601MOL0     H81119   3.929   4.677   0.468  0.2599 -1.8201  3.6828
  601MOL0     H81120   4.150   4.802   0.456 -0.5074  0.1243  0.2441
  601MOL0     H81121   6.113   4.582   0.449  0.0830  1.2113 -0.0147
  601MOL0     H81122   6.324   4.458   0.412 -1.0078 -1.2637 -0.4259
  601MOL0     H81123   6.653   4.325   0.175 -2.0305  0.4079 -0.0058
  601MOL0     H81124   6.848   4.216   0.108 -0.0875  1.8182  3.2779
  601MOL0     H81125   6.921   3.833   0.281 -1.9949  0.2010 -0.8474
  601MOL0     H81126   6.878   3.775   0.113 -0.3560  0.5431 -1.2932
  601MOL0     H81127   7.104   3.818   0.023  2.3474  0.4216  0.3740
  601MOL0     H81128   7.106   3.703   0.160  0.5314  0.0215 -1.0559
  601MOL0     H81129   7.285   3.855   0.202 -0.0008  0.5869  3.6296
  601MOL0     H81130   7.138   3.918   0.293 -0.1067 -0.4400  0.3344
  601MOL0     H81131   7.119   4.105   0.153 -0.3629  1.5720 -1.7107
  601MOL0     H81132   7.191   4.008   0.015  3.1281 -4.3192  0.5820
  601MOL0     H81133   7.543   4.181   0.166 -1.4455  2.2442  1.2044
  601MOL0     H81134   6.664   3.831   0.124 -1.7312 -0.7656 -2.0238
  601MOL0     H81135   6.440   3.943   0.151  1.6192 -2.5888  2.3376
  602MOL0     O81136   0.061   5.502  10.045 -0.4005  0.6530 -0.5004
  602MOL0     C81137   0.135   5.412  10.019 -0.2877  0.6965  0.0077
  602MOL0     O81138   0.191   5.386   9.890 -0.5039  0.1317 -0.9843
  602MOL0     C81139   0.141   5.460   9.785 -0.2928 -0.0795  0.4861
  602MOL0     C81140   0.202   5.582   9.753 -0.4148 -0.2690 -0.3625
  602MOL0     C81141   0.156   5.667   9.654 -0.5821  0.5380 -0.0192
  602MOL0     C81142   0.038   5.632   9.584 -0.5214  0.0715  0.8049
  602MOL0     O81143  -0.006   5.692   9.469  0.3474  0.0505  0.1500
  602MOL0     C81144   0.089   5.744   9.370  0.3263 -1.0119 -0.6213
  602MOL0     C81145   0.022   5.830   9.259 -0.4146 -0.7581  0.1847
  602MOL0     C81146   0.127   5.887   9.160  0.6450 -0.3499  1.0903
  602MOL0     C81147   0.123   6.036   9.159  0.8368 -0.2796 -0.1890
  602MOL0     C81148   0.212   6.101   9.057 -0.5101 -0.5839  0.1980
  602MOL0     C81149   0.361   6.073   9.073  0.5890  0.8673 -0.4392
  602MOL0     C81150   0.414   6.081   9.224  0.2024  0.8451  0.2106
  602MOL0     C81151   0.568   6.101   9.240 -0.0685 -0.7025 -0.1910
  602MOL0     N81152   0.615   6.208   9.159  0.2784  0.5180  0.6714
  602MOL0     C81153   0.590   6.344   9.166 -0.0499 -0.5053  0.3551
  602MOL0     C81154   0.652   6.397   9.052 -0.4023  0.0588  0.1633
  602MOL0     C81155   0.640   6.539   9.009 -0.9219 -0.4123  0.5479
  602MOL0     C81156   0.503   6.597   9.009  0.8758 -0.3543 -0.8810
  602MOL0     C81157   0.395   6.543   8.909  0.1808 -0.1895  0.0809
  602MOL0     C81158   0.253   6.582   8.924 -0.5240  0.0361 -0.2834
  602MOL0     O81159   0.185   6.515   9.024 -0.3429 -0.4726 -0.2570
  602MOL0     C81160   0.051   6.539   9.032  0.7182  0.1658 -0.2740
  602MOL0     C81161  -0.023   6.626   8.958  1.0740 -0.9658  0.3276
  602MOL0     C81162  -0.158   6.636   8.973  0.2722  0.5553 -0.5872
  602MOL0     C81163  -0.227   6.729   8.878 -0.1671 -0.3160 -0.1102
  602MOL0     C81164  -0.227   6.582   9.079  0.0831  0.7529  0.4157
  602MOL0     C81165  -0.368   6.593   9.118  0.6020 -0.2656  0.1525
  602MOL0     O81166  -0.425   6.508   9.216 -0.2582  0.6218  0.3839
  602MOL0     C81167  -0.555   6.499   9.260 -0.9715  0.5730 -0.5344
  602MOL0     C81168  -0.580   6.417   9.374 -0.6993  0.2914  0.2286
  602MOL0     C81169  -0.711   6.395   9.425 -0.3624  0.3162 -0.0136
  602MOL0     C81170  -0.821   6.453   9.376 -0.2391  0.1711  1.5030
  602MOL0     O81171  -0.946   6.424   9.437  0.0766  0.1510  0.4140
  602MOL0     C81172  -1.062   6.446   9.360  0.0648  0.2780  0.2228
  602MOL0     C81173  -1.169   6.481   9.457 -0.4815 -0.1962 -1.0077
  602MOL0     C81174  -1.311   6.501   9.381  1.1030 -0.1793  0.0795
  602MOL0     C81175  -1.411   6.548   9.492  0.8503  0.6273  0.6809
  602MOL0     C81176  -1.554   6.564   9.438 -0.0151 -0.4826  0.3488
  602MOL0     C81177  -1.666   6.599   9.551 -0.6542  0.0758  0.2177
  602MOL0     C81178  -1.808   6.584   9.496  0.2695 -0.8954  1.1123
  602MOL0     C81179  -1.837   6.680   9.369 -0.5205  0.3713 -0.2625
  602MOL0    Cl81180  -2.018   6.679   9.322  0.2048  0.1866 -0.3064
  602MOL0     C81181  -0.799   6.526   9.255 -0.4951  0.0657  0.2425
  602MOL0     C81182  -0.670   6.552   9.203 -0.9854  0.4897  0.5297
  602MOL0     O81183  -0.429   6.690   9.073 -0.3744 -0.2895  0.2072
  602MOL0     C81184  -0.154   6.497   9.154 -0.5640 -0.2243 -0.2347
  602MOL0     C81185  -0.015   6.469   9.139  0.2923 -0.6683  0.9839
  602MOL0     N81186   0.703   6.297   8.979 -0.3512 -0.1146 -0.4973
  602MOL0     N81187   0.695   6.182   9.051  1.3158 -0.2508  0.0099
  602MOL0     C81188  -0.027   5.510   9.614 -0.2008 -0.6294 -0.1271
  602MOL0     C81189   0.027   5.419   9.712  0.2619 -0.4464 -0.1202
  602MOL0     C81190   0.181   5.322  10.117 -0.4505  0.1536  0.5944
  602MOL0     C81191   0.137   5.344  10.252  0.3324 -0.5603 -0.3888
  602MOL0     C81192   0.200   5.266  10.354  0.2945  0.0807 -0.0791
  602MOL0     C81193   0.293   5.164  10.327 -1.1041 -0.8994 -0.3623
  602MOL0     O81194   0.320   5.076  10.429  0.4878  0.1202 -0.5196
  602MOL0     C81195   0.415   4.969  10.409 -0.6746  0.3563 -0.7198
  602MOL0     C81196   0.445   4.890  10.547  0.5010 -0.4396  0.8352
  602MOL0     C81197   0.502   4.981  10.661  1.0263  0.7568 -0.3433
  602MOL0     C81198   0.644   5.024  10.642 -0.0604  0.9646 -0.4529
  602MOL0     C81199   0.650   5.135  10.554  0.0806  1.0880  0.4308
  602MOL0     C81200   0.658   5.212  10.464 -0.6959 -0.0830  0.5216
  602MOL0     C81201   0.336   5.145  10.197 -0.4761 -0.2830 -0.1497
  602MOL0     C81202   0.273   5.218  10.094  0.0776 -0.1522  0.9605
  602MOL0     H81203   0.281   5.621   9.816 -2.8351  1.0318  2.1003
  602MOL0     H81204   0.209   5.760   9.636 -2.3405  1.5554 -0.1507
  602MOL0     H81205   0.164   5.794   9.432  0.5207 -1.2584 -0.6573
  602MOL0     H81206   0.139   5.659   9.323  0.6918 -0.2407 -1.6657
  602MOL0     H81207  -0.057   5.779   9.202 -2.0925  0.0595  1.6716
  602MOL0     H81208  -0.023   5.921   9.300 -0.4368 -0.1047 -1.2472
  602MOL0     H81209   0.226   5.843   9.176  1.3997  0.2099 -1.5213
  602MOL0     H81210   0.085   5.859   9.063 -3.3757  1.3434  2.1448
  602MOL0     H81211   0.021   6.069   9.137  0.0389 -1.7160  1.1259
  602MOL0     H81212   0.153   6.072   9.258 -1.6001  1.6764 -0.0557
  602MOL0     H81213   0.185   6.068   8.956  2.0099 -0.7139 -0.4910
  602MOL0     H81214   0.197   6.209   9.060  0.1587 -0.4454 -0.8846
  602MOL0     H81215   0.386   5.973   9.036 -1.7415  0.0317  0.0544
  602MOL0     H81216   0.416   6.145   9.012  1.1205 -0.6071 -1.7758
  602MOL0     H81217   0.370   6.170   9.268  1.0192  1.1199  0.4953
  602MOL0     H81218   0.386   5.986   9.271  0.4740  1.3776  1.5088
  602MOL0     H81219   0.619   6.006   9.222  2.6004  0.8992 -1.7472
  602MOL0     H81220   0.583   6.118   9.347  0.7057 -0.8213 -0.2757
  602MOL0     H81221   0.532   6.401   9.238 -1.3257  0.2587 -1.2302
  602MOL0     H81222   0.718   6.597   9.060 -1.0396  0.7321 -0.5171
  602MOL0     H81223   0.666   6.546   8.903  1.8882 -0.4849  1.1580
  602MOL0     H81224   0.512   6.702   8.979  0.0253 -0.7321 -2.6443
  602MOL0     H81225   0.464   6.601   9.111  3.2707  0.6292  0.0685
  602MOL0     H81226   0.411   6.435   8.905  2.3126  0.1062 -1.4272
  602MOL0     H81227   0.423   6.572   8.808 -3.4806 -1.0337 -1.3181
  602MOL0     H81228   0.207   6.550   8.829 -0.6242  1.8664 -0.8883
  602MOL0     H81229   0.243   6.691   8.920  0.0456  0.1137  0.2170
  602MOL0     H81230   0.023   6.693   8.885  0.5863  0.1713  1.0407
  602MOL0     H81231  -0.258   6.818   8.933  2.2799  0.4351  0.1962
  602MOL0     H81232  -0.156   6.758   8.800  2.4034  0.0481  2.1817
  602MOL0     H81233  -0.315   6.681   8.834 -0.1989  0.0823 -0.4778
  602MOL0     H81234  -0.492   6.367   9.412  0.3965  0.3747 -1.9901
  602MOL0     H81235  -0.725   6.323   9.505 -0.4841 -0.3973 -0.6635
  602MOL0     H81236  -1.061   6.540   9.304  2.2732  0.0146 -0.2748
  602MOL0     H81237  -1.084   6.358   9.299 -0.7948  1.1777 -0.7993
  602MOL0     H81238  -1.174   6.396   9.525  1.0790  2.6580  3.0930
  602MOL0     H81239  -1.133   6.567   9.514  1.9671 -0.6728 -1.7280
  602MOL0     H81240  -1.346   6.405   9.341 -2.3540  1.3476 -0.8733
  602MOL0     H81241  -1.308   6.582   9.308 -0.7974  0.1313  0.2872
  602MOL0     H81242  -1.400   6.466   9.563  2.1883 -1.1052 -1.4039
  602MOL0     H81243  -1.385   6.638   9.548 -3.5597  1.8290  1.1205
  602MOL0     H81244  -1.596   6.474   9.392 -1.5478  1.0548 -1.4833
  602MOL0     H81245  -1.560   6.637   9.357  0.0510 -1.0828 -0.2091
  602MOL0     H81246  -1.647   6.538   9.640 -0.0504  0.4750  0.3672
  602MOL0     H81247  -1.657   6.701   9.590  0.5586 -0.0560  0.3163
  602MOL0     H81248  -1.875   6.615   9.577  2.8212  2.3055  2.1713
  602MOL0     H81249  -1.830   6.482   9.461 -1.8065 -0.3707  0.7505
  602MOL0     H81250  -1.784   6.640   9.282  0.0314 -3.1693  1.5332
  602MOL0     H81251  -1.812   6.784   9.391 -3.7666  1.2355 -0.0731
  602MOL0     H81252  -0.874   6.577   9.196  0.2116  2.4656  1.2555
  602MOL0     H81253  -0.658   6.613   9.114  1.2348  1.3359  1.3335
  602MOL0     H81254  -0.206   6.442   9.231  0.9593 -0.5986  0.5583
  602MOL0     H81255   0.038   6.398   9.202  2.5962 -1.5332 -1.7098
  602MOL0     H81256  -0.115   5.481   9.557  0.1631 -0.1071 -0.9668
  602MOL0     H81257  -0.020   5.325   9.738  2.6801 -1.3086  1.5468
  602MOL0     H81258   0.072   5.428  10.276  1.0193  0.1679 -0.9998
  602MOL0     H81259   0.186   5.290  10.459  4.3575  0.0228  0.6367
  602MOL0     H81260   0.369   4.906  10.332  0.0298  0.4967 -1.2662
  602MOL0     H81261   0.509   5.001  10.364 -0.3596 -0.6781 -0.8271
  602MOL0     H81262   0.512   4.808  10.522  1.4596  0.4866  0.2568
  602MOL0     H81263   0.347   4.850  10.576 -0.4182  0.7526 -0.4980
  602MOL0     H81264   0.502   4.924  10.755  1.9297 -1.0431 -1.3845
  602MOL0     H81265   0.444   5.073  10.676 -0.5178 -0.0012 -1.4696
  602MOL0     H81266   0.692   4.938  10.594  0.7725  1.8253 -1.2110
  602MOL0     H81267   0.697   5.054  10.733  2.0696  1.0105 -1.6243
  602MOL0     H81268   0.664   5.283  10.384 -0.2419 -0.7991 -0.0902
  602MOL0     H81269   0.422   5.086  10.169 -0.6257  0.2262 -1.8014
  602MOL0     H81270   0.309   5.200   9.994 -0.3793 -1.0246  0.9474
  603MOL0     O81271   7.700  10.298   1.613  0.0894  0.8049 -0.0110
  603MOL0     C81272   7.792  10.213   1.631  0.7401 -0.1830 -0.1454
  603MOL0     O81273   7.785  10.107   1.716  0.3449  0.3889  0.2258
  603MOL0     C81274   7.668  10.092   1.792 -0.0663 -0.6861  0.5251
  603MOL0     C81275   7.672  10.092   1.932 -0.0100  0.2725 -0.1687
  603MOL0     C81276   7.558  10.068   2.010  0.4845  0.3667  0.5795
  603MOL0     C81277   7.438  10.042   1.955 -0.5345  0.5416  0.4534
  603MOL0     O81278   7.327  10.025   2.042 -0.2309  0.1727 -0.1385
  603MOL0     C81279   7.209   9.979   1.977  0.7817 -0.0632 -0.2133
  603MOL0     C81280   7.102   9.946   2.081  0.0875 -0.4070 -0.1612
  603MOL0     C81281   6.968   9.977   2.031  0.0815  0.2853 -0.3121
  603MOL0     C81282   6.852   9.944   2.128 -0.1989 -0.3637 -0.1667
  603MOL0     C81283   6.710   9.948   2.083  0.1352  0.0274  0.6496
  603MOL0     C81284   6.616   9.943   2.203 -0.7258  0.1846 -0.3138
  603MOL0     C81285   6.470   9.932   2.176 -0.1918  0.0648 -0.8001
  603MOL0     C81286   6.424  10.048   2.093  0.4551  0.3345  0.7985
  603MOL0     N81287   6.285  10.043   2.038 -0.0357 -0.2615 -0.2340
  603MOL0     C81288   6.241  10.123   1.933  1.2050 -0.6773 -0.4512
  603MOL0     C81289   6.121  10.067   1.903  0.3574  0.4029 -0.6587
  603MOL0     C81290   6.028  10.133   1.803  0.1915 -0.0682 -0.0302
  603MOL0     C81291   5.887  10.065   1.799 -0.1084 -0.4614 -0.3669
  603MOL0     C81292   5.796  10.164   1.724 -0.2828 -0.5126 -0.5052
  603MOL0     C81293   5.656  10.111   1.726 -0.2106  0.6094 -1.1711
  603MOL0     O81294   5.569  10.220   1.687  0.3814  0.1602 -0.2311
  603MOL0     C81295   5.436  10.189   1.677  0.4365 -0.0002  1.1772
  603MOL0     C81296   5.374  10.181   1.549 -0.0466  0.6397  0.6582
  603MOL0     C81297   5.234  10.152   1.535 -0.6275 -0.0278 -0.2730
  603MOL0     C81298   5.195  10.145   1.392 -0.3052  0.0357 -0.1507
  603MOL0     C81299   5.158  10.150   1.649 -0.2232  1.1681 -1.4867
  603MOL0     C81300   5.016  10.101   1.655 -0.4762  0.3572 -0.0246
  603MOL0     O81301   4.945  10.119   1.769  0.1934 -0.2171 -0.2776
  603MOL0     C81302   4.806  10.092   1.768  0.0018 -0.2148 -0.0327
  603MOL0     C81303   4.744   9.991   1.844  0.1680  0.7547 -0.9858
  603MOL0     C81304   4.608   9.962   1.838  0.6032  0.3339  0.5364
  603MOL0     C81305   4.522  10.058   1.784 -0.1698 -0.2856  0.0744
  603MOL0     O81306   4.383  10.049   1.782 -0.1891 -0.7541 -0.4340
  603MOL0     C81307   4.333   9.924   1.726 -0.1956 -0.1060 -0.8468
  603MOL0     C81308   4.186   9.944   1.704 -0.6809 -0.6971  0.2187
  603MOL0     C81309   4.120   9.833   1.619 -0.2756  0.7423  0.0189
  603MOL0     C81310   3.961   9.848   1.632 -0.3656 -0.8295  0.3795
  603MOL0     C81311   3.888   9.754   1.537  0.4319  0.9790  0.2490
  603MOL0     C81312   3.737   9.753   1.558  0.3736  0.0043 -0.0272
  603MOL0     C81313   3.678   9.663   1.455  0.3853 -1.0455 -0.2379
  603MOL0     C81314   3.662   9.515   1.495  0.1685  0.2807 -0.2499
  603MOL0    Cl81315   3.628   9.431   1.341 -0.0307 -0.7233 -0.2011
  603MOL0     C81316   4.578  10.165   1.719 -0.5956 -0.0780 -0.2818
  603MOL0     C81317   4.718  10.182   1.698  0.2990 -0.5408 -0.7843
  603MOL0     O81318   4.971  10.050   1.549 -0.4198  0.3562 -0.0511
  603MOL0     C81319   5.216  10.176   1.775 -1.0831  0.2614  0.0287
  603MOL0     C81320   5.355  10.192   1.788 -0.1502  0.0476 -0.1077
  603MOL0     N81321   6.103   9.952   1.969  0.7938  0.1658 -1.0767
  603MOL0     N81322   6.205   9.938   2.047 -0.7538 -0.1121 -0.4003
  603MOL0     C81323   7.424  10.030   1.815  0.0869 -0.5842  0.5329
  603MOL0     C81324   7.543  10.052   1.735 -0.0567  0.1399  0.0711
  603MOL0     C81325   7.919  10.228   1.564 -0.2825  0.0631  0.4538
  603MOL0     C81326   8.041  10.197   1.628 -0.3657 -0.1966 -0.6897
  603MOL0     C81327   8.161  10.218   1.579 -0.1338 -0.8018  0.6898
  603MOL0     C81328   8.182  10.281   1.454  0.4557  0.1858  0.7872
  603MOL0     O81329   8.310  10.295   1.408  0.0945  0.1832  0.0194
  603MOL0     C81330   8.338  10.373   1.301  0.1580  0.1503  0.3176
  603MOL0     C81331   8.487  10.426   1.305  0.1930 -0.0450 -0.2168
  603MOL0     C81332   8.589  10.313   1.277  0.7876 -0.0646 -0.2532
  603MOL0     C81333   8.733  10.360   1.262  0.3063  0.1368  0.0464
  603MOL0     C81334   8.819  10.258   1.325  0.2680 -0.5187 -0.2275
  603MOL0     C81335   8.880  10.172   1.383  0.1927 -0.2358  0.8257
  603MOL0     C81336   8.062  10.319   1.390  0.2104 -0.4958  0.6949
  603MOL0     C81337   7.936  10.303   1.446 -0.4381  0.0202  0.3708
  603MOL0     H81338   7.767  10.125   1.972 -0.9696  2.6919  0.2804
  603MOL0     H81339   7.552  10.061   2.118  0.2418 -2.1647  0.4559
  603MOL0     H81340   7.178  10.072   1.929 -2.8877 -0.7504  0.5142
  603MOL0     H81341   7.230   9.892   1.913 -2.0747 -1.0764  0.0876
  603MOL0     H81342   7.116   9.841   2.110  1.0780 -0.1793  0.2261
  603MOL0     H81343   7.111  10.009   2.170 -3.3421 -0.5962  0.4877
  603MOL0     H81344   6.957  10.083   2.007 -0.1155  0.4975  0.6675
  603MOL0     H81345   6.959   9.919   1.939  0.1699 -1.1905  0.5829
  603MOL0     H81346   6.882   9.848   2.171  4.0281 -0.4018 -2.6402
  603MOL0     H81347   6.869  10.023   2.203  0.2896  0.0284 -0.6828
  603MOL0     H81348   6.677  10.042   2.037 -2.4542 -1.7762 -1.4641
  603MOL0     H81349   6.698   9.864   2.015  2.6981 -0.4348  0.6719
  603MOL0     H81350   6.651   9.874   2.280 -0.5774  2.5666  1.8823
  603MOL0     H81351   6.627  10.037   2.257  0.9557 -1.3221  2.1771
  603MOL0     H81352   6.458   9.832   2.134  0.1509 -1.1005  1.7036
  603MOL0     H81353   6.425   9.938   2.276  2.0162 -4.1783  0.6893
  603MOL0     H81354   6.491  10.058   2.007  1.5418  1.5742  1.7401
  603MOL0     H81355   6.431  10.150   2.132 -2.7658  1.0052 -0.0308
  603MOL0     H81356   6.263  10.224   1.901 -2.9811 -0.0785 -2.0691
  603MOL0     H81357   6.012  10.240   1.824  1.5529  0.1485 -0.0027
  603MOL0     H81358   6.078  10.119   1.707  1.6648  1.8195  0.3980
  603MOL0     H81359   5.855  10.060   1.903  0.0887  1.9171 -0.1237
  603MOL0     H81360   5.885   9.969   1.747  0.7601 -0.0555 -1.1741
  603MOL0     H81361   5.817  10.178   1.617  0.7433  1.0484 -0.1278
  603MOL0     H81362   5.798  10.263   1.770 -1.1729 -0.6021 -0.2556
  603MOL0     H81363   5.631  10.067   1.823 -2.1053  0.4099 -1.7019
  603MOL0     H81364   5.650  10.021   1.664 -0.7698 -1.5555  1.8077
  603MOL0     H81365   5.444  10.177   1.465  0.0522 -0.5329  0.7794
  603MOL0     H81366   5.126  10.225   1.364  0.1500  0.6932  0.5718
  603MOL0     H81367   5.279  10.148   1.323 -0.2536 -0.0360 -0.0918
  603MOL0     H81368   5.149  10.047   1.376  1.4658 -0.8045 -0.2545
  603MOL0     H81369   4.804   9.917   1.897  1.1776  2.8712  0.9946
  603MOL0     H81370   4.561   9.890   1.906 -0.3183  1.3526  1.0204
  603MOL0     H81371   4.385   9.911   1.631  1.2326  3.1126 -0.6381
  603MOL0     H81372   4.357   9.851   1.805  0.0312  0.9908  0.1192
  603MOL0     H81373   4.146   9.945   1.805 -3.3708 -2.4187 -0.7256
  603MOL0     H81374   4.166  10.036   1.649  2.3821 -1.6912 -2.9768
  603MOL0     H81375   4.145   9.729   1.645  0.1774  0.2795 -2.0466
  603MOL0     H81376   4.152   9.822   1.515  0.6739  0.5895  0.3199
  603MOL0     H81377   3.937   9.833   1.738  3.1124 -1.3687  1.2287
  603MOL0     H81378   3.932   9.948   1.602  0.6135 -0.6904 -0.1534
  603MOL0     H81379   3.929   9.653   1.554 -1.7835 -0.2607 -1.2486
  603MOL0     H81380   3.909   9.773   1.431 -3.3026 -0.5766 -0.9207
  603MOL0     H81381   3.718   9.712   1.658 -0.2358 -0.5473 -0.3601
  603MOL0     H81382   3.686   9.849   1.544  0.7732  0.4406  1.3170
  603MOL0     H81383   3.737   9.669   1.363  1.3846 -2.2646  0.2761
  603MOL0     H81384   3.578   9.699   1.432 -0.1730 -0.8759  2.1218
  603MOL0     H81385   3.585   9.503   1.572  0.7691 -0.2873  0.2708
  603MOL0     H81386   3.750   9.463   1.535 -0.1732  2.1758  3.3723
  603MOL0     H81387   4.514  10.237   1.671 -1.4808 -1.9961 -2.1626
  603MOL0     H81388   4.758  10.272   1.652  0.2133 -0.5436 -0.8652
  603MOL0     H81389   5.154  10.164   1.863 -0.0040 -1.5021  0.6200
  603MOL0     H81390   5.386  10.201   1.891 -2.1210  2.3667  0.3615
  603MOL0     H81391   7.328  10.023   1.765 -0.2814 -0.1786  1.1678
  603MOL0     H81392   7.533  10.046   1.627 -1.9318  2.1767  0.0769
  603MOL0     H81393   8.025  10.155   1.727  0.2656  0.3635 -0.3441
  603MOL0     H81394   8.240  10.179   1.642 -0.3933 -2.1673  0.1973
  603MOL0     H81395   8.314  10.318   1.209  2.0341 -2.1891  1.1458
  603MOL0     H81396   8.275  10.461   1.316  0.2953  0.0226  1.7644
  603MOL0     H81397   8.497  10.470   1.405 -2.0316 -2.6602  1.3057
  603MOL0     H81398   8.507  10.510   1.238 -1.8321  0.8954  0.2842
  603MOL0     H81399   8.562  10.277   1.178  1.6513 -1.9123  0.1313
  603MOL0     H81400   8.579  10.237   1.354 -3.3899 -2.6453 -2.9748
  603MOL0     H81401   8.754  10.460   1.300  3.1382 -0.1633 -0.5026
  603MOL0     H81402   8.767  10.370   1.158  1.3069  2.7374  0.5423
  603MOL0     H81403   8.924  10.092   1.439 -1.7217 -1.9078  0.0748
  603MOL0     H81404   8.059  10.365   1.292 -1.2321 -1.8586  0.0604
  603MOL0     H81405   7.842  10.325   1.396  1.2487 -0.0816 -3.1402
  604MOL0     O81406   2.416   8.248   2.975  0.2917 -0.1281  0.4334
  604MOL0     C81407   2.453   8.363   2.936  0.3630 -0.0972 -0.4421
  604MOL0     O81408   2.383   8.465   2.870 -0.3340 -0.0090 -0.2206
  604MOL0     C81409   2.255   8.438   2.815  0.7838 -0.8286  0.1862
  604MOL0     C81410   2.187   8.316   2.800 -1.0115 -0.4036  0.5850
  604MOL0     C81411   2.080   8.298   2.716  1.2212  1.3915  0.0248
  604MOL0     C81412   2.014   8.404   2.664 -0.0690 -0.4819 -0.7115
  604MOL0     O81413   1.890   8.398   2.598  0.5338  0.7406  0.2771
  604MOL0     C81414   1.798   8.291   2.631  0.1477  0.6256  0.0473
  604MOL0     C81415   1.656   8.315   2.580  1.1173 -0.1121  0.7561
  604MOL0     C81416   1.573   8.419   2.646 -0.0170 -0.3416  0.2129
  604MOL0     C81417   1.423   8.404   2.606 -0.0724  0.3304 -0.0814
  604MOL0     C81418   1.323   8.501   2.684 -0.5263  0.6509  0.4351
  604MOL0     C81419   1.320   8.490   2.840 -0.2068 -0.1842 -0.1543
  604MOL0     C81420   1.238   8.612   2.891  0.1910 -0.6003  0.1888
  604MOL0     C81421   1.090   8.631   2.838 -0.2727 -0.0818 -0.8057
  604MOL0     N81422   1.044   8.767   2.877  0.8548 -0.5663 -0.4361
  604MOL0     C81423   1.050   8.887   2.806 -0.1704  0.2180  0.7406
  604MOL0     C81424   1.010   8.980   2.890 -0.5390 -0.5953  0.4905
  604MOL0     C81425   1.002   9.135   2.852  0.3932  1.1190  0.6022
  604MOL0     C81426   0.936   9.164   2.716 -0.2704  0.0561  0.5549
  604MOL0     C81427   0.941   9.307   2.674  0.5833 -0.3174  0.8006
  604MOL0     C81428   0.868   9.336   2.542 -0.2396 -0.3888 -0.5723
  604MOL0     O81429   0.852   9.478   2.533 -0.3061 -0.2142  0.0303
  604MOL0     C81430   0.730   9.527   2.557 -0.2433  0.0530  0.4602
  604MOL0     C81431   0.621   9.494   2.465  0.2682  0.4650 -0.2684
  604MOL0     C81432   0.494   9.542   2.495  0.9570 -0.1862 -0.2196
  604MOL0     C81433   0.374   9.486   2.425  0.5936  0.1346  0.1959
  604MOL0     C81434   0.475   9.634   2.593  1.0169  0.1561  0.3399
  604MOL0     C81435   0.343   9.700   2.614  0.4664 -0.1444  0.3740
  604MOL0     O81436   0.251   9.643   2.707 -0.5427  0.6623 -0.0446
  604MOL0     C81437   0.136   9.709   2.709  0.6617 -0.5293  0.1265
  604MOL0     C81438   0.035   9.677   2.616  1.2513  0.3821  0.4161
  604MOL0     C81439  -0.084   9.748   2.600 -0.8977  0.5096 -0.1810
  604MOL0     C81440  -0.119   9.838   2.699  0.5257 -0.4739 -0.5898
  604MOL0     O81441  -0.245   9.899   2.681  0.0586 -0.8555  0.0635
  604MOL0     C81442  -0.258  10.021   2.751 -0.2805 -0.0808 -0.5981
  604MOL0     C81443  -0.381  10.094   2.694  1.2389 -0.1602 -0.9357
  604MOL0     C81444  -0.411  10.228   2.758 -0.2892 -0.0400  0.4928
  604MOL0     C81445  -0.488  10.318   2.659  0.3936 -0.4531  0.4062
  604MOL0     C81446  -0.631  10.276   2.632 -0.3560  0.0973  0.4984
  604MOL0     C81447  -0.718  10.263   2.771  0.3310 -0.3869  0.5509
  604MOL0     C81448  -0.864  10.308   2.754  0.1344  0.0862  0.3831
  604MOL0     C81449  -0.931  10.289   2.895  0.0324 -0.2125 -0.6997
  604MOL0    Cl81450  -0.889  10.423   3.008 -0.0302 -0.1426 -0.1425
  604MOL0     C81451  -0.033   9.850   2.809  0.7122 -0.4732  0.9695
  604MOL0     C81452   0.096   9.805   2.817 -0.4763  0.7468  0.2422
  604MOL0     O81453   0.336   9.816   2.567  0.4797 -0.2504 -0.2927
  604MOL0     C81454   0.590   9.679   2.669 -0.1130 -0.3728  0.3123
  604MOL0     C81455   0.711   9.616   2.659 -0.1777  0.2782 -1.1606
  604MOL0     N81456   0.981   8.923   3.013  0.6470 -0.3011  0.5593
  604MOL0     N81457   0.994   8.801   3.001 -0.3894  0.1072  0.1098
  604MOL0     C81458   2.068   8.527   2.688  0.7108 -0.3194 -0.2538
  604MOL0     C81459   2.189   8.545   2.756  0.5780  0.0838 -0.4936
  604MOL0     C81460   2.596   8.388   2.958 -0.5114 -0.0086 -0.1630
  604MOL0     C81461   2.673   8.330   3.053  0.7396 -0.1945  0.0970
  604MOL0     C81462   2.808   8.372   3.086  0.7597 -0.1473  0.1098
  604MOL0     C81463   2.866   8.484   3.013 -0.4865  0.4568 -0.2246
  604MOL0     O81464   2.998   8.522   3.043 -0.0230 -0.1858  0.9324
  604MOL0     C81465   3.017   8.659   3.039  0.6949 -0.1602 -1.5159
  604MOL0     C81466   3.151   8.694   3.094  0.6476  0.8752 -0.6594
  604MOL0     C81467   3.261   8.635   3.011 -0.4095 -0.5443  0.3628
  604MOL0     C81468   3.393   8.708   3.033 -0.6720  0.0714  0.4509
  604MOL0     C81469   3.502   8.660   2.940  1.0897  0.3128  0.0654
  604MOL0     C81470   3.595   8.616   2.866  0.6404 -0.4381  0.5992
  604MOL0     C81471   2.781   8.548   2.916  0.1296  0.4165  0.2913
  604MOL0     C81472   2.661   8.498   2.891  0.2436  0.5191  0.7862
  604MOL0     H81473   2.222   8.224   2.846  2.2768  0.4304 -0.0466
  604MOL0     H81474   2.034   8.200   2.709 -0.5213  2.1487  0.1843
  604MOL0     H81475   1.824   8.200   2.576 -0.1495 -0.2494  1.3119
  604MOL0     H81476   1.799   8.269   2.738 -0.0290 -0.2133 -0.1217
  604MOL0     H81477   1.674   8.346   2.477  0.4678 -0.3800  0.5567
  604MOL0     H81478   1.606   8.218   2.585  1.2852 -0.3467 -1.1576
  604MOL0     H81479   1.582   8.397   2.753 -1.5804 -1.0538  0.2263
  604MOL0     H81480   1.602   8.521   2.617 -0.2075 -0.2535  0.3285
  604MOL0     H81481   1.402   8.403   2.499 -1.5024 -1.0063  0.1762
  604MOL0     H81482   1.397   8.305   2.645 -0.7521  0.7977  0.7029
  604MOL0     H81483   1.361   8.601   2.663  2.4566 -0.4447  0.2573
  604MOL0     H81484   1.228   8.480   2.633  1.1871 -1.0299 -2.3262
  604MOL0     H81485   1.279   8.394   2.873  2.9430 -1.7397 -0.4568
  604MOL0     H81486   1.421   8.492   2.880 -0.7781  0.8937  1.3391
  604MOL0     H81487   1.245   8.600   3.000  0.1421  0.2673  0.3010
  604MOL0     H81488   1.288   8.707   2.868  1.0148 -1.1482 -0.3199
  604MOL0     H81489   1.017   8.560   2.877 -0.6595  0.0201 -1.3308
  604MOL0     H81490   1.079   8.609   2.731 -0.6892 -1.0323 -0.5766
  604MOL0     H81491   1.091   8.910   2.709 -1.3717 -0.2712  0.0929
  604MOL0     H81492   0.952   9.195   2.928 -2.0411 -1.2456  0.9970
  604MOL0     H81493   1.108   9.162   2.849  0.2209  2.0341  1.9820
  604MOL0     H81494   0.830   9.137   2.723 -0.8209  0.5877 -3.5420
  604MOL0     H81495   0.986   9.106   2.638 -1.6827 -2.1983  1.2229
  604MOL0     H81496   1.047   9.324   2.651  1.0787 -1.6569  1.9093
  604MOL0     H81497   0.919   9.379   2.753  0.1541  2.3184 -1.5978
  604MOL0     H81498   0.779   9.275   2.558  0.6638 -1.9287 -1.2208
  604MOL0     H81499   0.915   9.300   2.450  0.1848  1.2347 -1.0219
  604MOL0     H81500   0.638   9.419   2.389  2.1579 -0.7774  1.2843
  604MOL0     H81501   0.314   9.569   2.387 -2.4165 -1.2763  1.4545
  604MOL0     H81502   0.392   9.417   2.343 -3.2549  1.7868 -2.3002
  604MOL0     H81503   0.300   9.438   2.490 -2.5206  3.0329 -0.8997
  604MOL0     H81504   0.059   9.596   2.548  1.5850  1.3870 -0.6876
  604MOL0     H81505  -0.159   9.716   2.528 -0.8083  0.9053 -0.4531
  604MOL0     H81506  -0.285  10.000   2.855 -0.8295  3.3279  0.0838
  604MOL0     H81507  -0.167  10.080   2.737 -1.3720  1.5068 -1.3044
  604MOL0     H81508  -0.363  10.110   2.587  0.6152  0.2859 -0.9738
  604MOL0     H81509  -0.463  10.024   2.714  0.8330  0.5416 -0.0648
  604MOL0     H81510  -0.321  10.285   2.784 -0.9629  0.6776  1.3155
  604MOL0     H81511  -0.471  10.216   2.848 -0.0698 -0.0180  0.6430
  604MOL0     H81512  -0.493  10.420   2.698 -0.4789 -0.7140  1.0013
  604MOL0     H81513  -0.425  10.323   2.569  1.5408  0.5409  1.2297
  604MOL0     H81514  -0.637  10.175   2.591  0.6441  0.5474 -0.8306
  604MOL0     H81515  -0.678  10.348   2.564  0.9986  0.2621 -0.2984
  604MOL0     H81516  -0.713  10.168   2.824 -0.6164  1.7967  4.9918
  604MOL0     H81517  -0.665  10.336   2.834 -0.0174  0.0782  0.3114
  604MOL0     H81518  -0.917  10.235   2.692 -0.0174  1.3528 -1.0532
  604MOL0     H81519  -0.874  10.394   2.687  0.1580 -0.0339  0.2228
  604MOL0     H81520  -0.899  10.193   2.936 -1.8595 -0.6061 -0.0082
  604MOL0     H81521  -1.039  10.274   2.884  0.0446  0.0213 -1.1435
  604MOL0     H81522  -0.052   9.916   2.893  4.4707  0.8961  0.9309
  604MOL0     H81523   0.160   9.817   2.904 -0.5641 -2.5894  0.9095
  604MOL0     H81524   0.589   9.769   2.729  4.0072 -0.3906  0.6596
  604MOL0     H81525   0.795   9.649   2.720 -0.1662 -1.3278 -0.2536
  604MOL0     H81526   2.009   8.613   2.658  0.6350  0.0593  0.9047
  604MOL0     H81527   2.240   8.640   2.770  1.3080 -0.2195 -1.0700
  604MOL0     H81528   2.633   8.246   3.108 -0.4341 -0.8878 -1.7080
  604MOL0     H81529   2.860   8.313   3.162 -2.2698 -1.4848  1.2881
  604MOL0     H81530   2.998   8.697   2.938 -1.9274  2.4802 -0.1852
  604MOL0     H81531   2.949   8.720   3.099  0.1562  1.1535 -3.3618
  604MOL0     H81532   3.162   8.655   3.195  4.7080 -1.3624 -1.7584
  604MOL0     H81533   3.156   8.803   3.095  0.5594  0.8780  0.2030
  604MOL0     H81534   3.238   8.652   2.905 -0.1865  1.5589  0.6060
  604MOL0     H81535   3.265   8.529   3.035  0.6516 -0.9396 -1.3699
  604MOL0     H81536   3.413   8.688   3.139 -2.3770  0.7707  0.9363
  604MOL0     H81537   3.381   8.816   3.026 -0.1975  0.2518  1.9403
  604MOL0     H81538   3.677   8.583   2.806  0.5806  0.6015 -0.0637
  604MOL0     H81539   2.811   8.635   2.857 -0.0088  0.1482 -0.1832
  604MOL0     H81540   2.614   8.544   2.805 -0.0952 -1.5828 -0.2310
  605MOL0     O81541   1.920  10.871   8.702 -0.2713  0.3562  0.2113
  605MOL0     C81542   1.994  10.823   8.621 -0.0174 -0.0759  0.6164
  605MOL0     O81543   1.984  10.701   8.566 -0.1158  0.6422 -0.6489
  605MOL0     C81544   1.862  10.632   8.584  0.4669  0.9076 -0.6820
  605MOL0     C81545   1.884  10.494   8.603 -0.3523 -0.0985 -0.0610
  605MOL0     C81546   1.776  10.408   8.613  0.8742  0.4180 -0.9242
  605MOL0     C81547   1.643  10.452   8.602 -0.5909 -0.0995  0.7913
  605MOL0     O81548   1.535  10.375   8.596  0.4730  0.4749 -0.1755
  605MOL0     C81549   1.551  10.241   8.610 -0.2720  0.3972  0.6187
  605MOL0     C81550   1.561  10.186   8.755  0.1088 -0.1390  0.7584
  605MOL0     C81551   1.423  10.158   8.812 -0.2353  0.2270 -0.0618
  605MOL0     C81552   1.427  10.065   8.932  0.0501  0.6787  0.0949
  605MOL0     C81553   1.290  10.041   9.000 -0.2586  0.2073  0.4043
  605MOL0     C81554   1.311   9.947   9.125 -0.0163 -0.4103  0.8234
  605MOL0     C81555   1.180   9.927   9.209 -0.1464  0.5142  0.4122
  605MOL0     C81556   1.112  10.063   9.263  0.3714 -0.1202  1.1585
  605MOL0     N81557   1.003  10.047   9.365  0.3658  0.3315 -0.0007
  605MOL0     C81558   0.927  10.145   9.401  0.1435 -0.2124 -1.0589
  605MOL0     C81559   0.821  10.092   9.474  0.1241  0.1279  0.5017
  605MOL0     C81560   0.706  10.162   9.524 -0.4170 -1.0919  0.2047
  605MOL0     C81561   0.617  10.201   9.409 -0.2695 -0.5585 -0.4475
  605MOL0     C81562   0.490  10.284   9.453  0.2931  0.2140  0.5029
  605MOL0     C81563   0.362  10.223   9.403  0.6399 -0.0278  1.5889
  605MOL0     O81564   0.334  10.111   9.488 -0.8913 -0.1551  0.2288
  605MOL0     C81565   0.205  10.077   9.498 -0.3161  0.5417  0.8111
  605MOL0     C81566   0.159  10.050   9.627 -0.2440  0.3632  0.2089
  605MOL0     C81567   0.024  10.026   9.660  0.0953  0.1411 -0.2438
  605MOL0     C81568  -0.019  10.022   9.815  0.4639  0.4136 -0.5854
  605MOL0     C81569  -0.067   9.996   9.547  0.1648 -0.4193  1.2151
  605MOL0     C81570  -0.214   9.954   9.560 -0.5311 -0.8228  0.2798
  605MOL0     O81571  -0.264   9.974   9.686 -0.2071 -0.4328  0.2642
  605MOL0     C81572  -0.393   9.927   9.706 -0.4621 -0.3715  0.0513
  605MOL0     C81573  -0.502  10.006   9.670  0.4359 -0.1882  0.2851
  605MOL0     C81574  -0.630   9.951   9.684  0.1586  0.1019 -0.7756
  605MOL0     C81575  -0.646   9.833   9.759 -0.4268  0.5897 -0.5125
  605MOL0     O81576  -0.763   9.774   9.782  0.6107 -0.0160  0.0059
  605MOL0     C81577  -0.871   9.846   9.823 -0.2218  0.2220 -0.3896
  605MOL0     C81578  -0.993   9.819   9.743  0.3515 -0.0555 -0.1241
  605MOL0     C81579  -1.070   9.686   9.733 -0.6220  0.4758 -0.1504
  605MOL0     C81580  -1.220   9.699   9.711  0.0549 -0.0120  0.4964
  605MOL0     C81581  -1.289   9.565   9.717 -0.0355 -0.0076  0.1914
  605MOL0     C81582  -1.438   9.590   9.721 -0.7588  0.5643  0.1952
  605MOL0     C81583  -1.495   9.641   9.588  0.3087 -0.3057  0.5754
  605MOL0     C81584  -1.641   9.621   9.593  0.1692  0.1695 -0.5485
  605MOL0    Cl81585  -1.712   9.735   9.710 -0.2850  0.1649  0.5126
  605MOL0     C81586  -0.535   9.757   9.799 -0.7355 -0.2347 -0.4465
  605MOL0     C81587  -0.407   9.802   9.771 -0.1837 -0.6864  0.6034
  605MOL0     O81588  -0.277   9.920   9.461  0.1675  0.6821  0.0583
  605MOL0     C81589  -0.015  10.006   9.411 -0.3582  0.3559 -0.5287
  605MOL0     C81590   0.116  10.058   9.391  0.5311  0.3340 -0.1778
  605MOL0     N81591   0.854   9.954   9.472 -0.1207  0.6911  0.3621
  605MOL0     N81592   0.953   9.928   9.394 -0.4960  0.2306 -0.0064
  605MOL0     C81593   1.627  10.589   8.585  0.6229 -0.1289 -0.5278
  605MOL0     C81594   1.735  10.675   8.582  0.7494 -0.0861 -0.4064
  605MOL0     C81595   2.109  10.898   8.573  1.1037  0.4268 -0.2806
  605MOL0     C81596   2.125  11.035   8.596  0.0930 -0.8703 -0.4244
  605MOL0     C81597   2.244  11.099   8.570  0.2409  0.0285 -0.1317
  605MOL0     C81598   2.350  11.036   8.494  0.0898  0.1796  0.4549
  605MOL0     O81599   2.450  11.122   8.458 -0.5667 -0.0222  0.4907
  605MOL0     C81600   2.565  11.088   8.388  0.2682  0.1108  0.6126
  605MOL0     C81601   2.589  11.195   8.282 -0.6452  0.0290  1.0048
  605MOL0     C81602   2.639  11.325   8.350  0.4801 -0.9062 -0.1570
  605MOL0     C81603   2.632  11.441   8.248 -0.0879  0.2585  0.9231
  605MOL0     C81604   2.672  11.572   8.308  0.6682  0.6514 -0.2060
  605MOL0     C81605   2.720  11.675   8.352  0.0585 -0.2808 -0.4757
  605MOL0     C81606   2.333  10.899   8.476  0.4512  0.3265  0.7521
  605MOL0     C81607   2.217  10.834   8.514  0.3461  0.2644 -0.5657
  605MOL0     H81608   1.987  10.460   8.598 -0.9146 -1.7323 -1.7001
  605MOL0     H81609   1.793  10.301   8.620 -0.3949  0.2942  1.2104
  605MOL0     H81610   1.460  10.200   8.565 -0.0488  1.9058 -1.3806
  605MOL0     H81611   1.636  10.210   8.549 -0.3934  2.2964 -0.6159
  605MOL0     H81612   1.616  10.092   8.759 -3.3035 -2.3162 -0.0033
  605MOL0     H81613   1.606  10.260   8.823  0.3758 -1.3298  1.9218
  605MOL0     H81614   1.372  10.249   8.845 -0.6133 -1.2003  3.8267
  605MOL0     H81615   1.360  10.108   8.738  0.2920 -1.6615  0.6815
  605MOL0     H81616   1.458   9.967   8.894 -0.3096 -0.4959  2.5965
  605MOL0     H81617   1.505  10.102   9.001  0.4893 -1.4406  0.8118
  605MOL0     H81618   1.243  10.135   9.030 -1.3562  0.2493 -1.3229
  605MOL0     H81619   1.240   9.973   8.930  1.7072  0.0350 -0.9369
  605MOL0     H81620   1.339   9.846   9.093  1.1212  0.6858 -1.9120
  605MOL0     H81621   1.391   9.987   9.189  2.0862 -0.8659 -1.3680
  605MOL0     H81622   1.108   9.875   9.146  0.9389 -2.6061  1.5047
  605MOL0     H81623   1.197   9.858   9.293 -0.3971  0.8267  0.7223
  605MOL0     H81624   1.058  10.109   9.179 -3.2038 -3.1609  1.5044
  605MOL0     H81625   1.192  10.121   9.308  0.5871  0.0744  0.5399
  605MOL0     H81626   0.940  10.252   9.383  1.8494  0.5260  3.2547
  605MOL0     H81627   0.655  10.096   9.595 -0.8452 -0.0604  0.8848
  605MOL0     H81628   0.724  10.256   9.577  0.1170  1.1232 -3.5638
  605MOL0     H81629   0.585  10.111   9.355 -0.9053 -2.2023  2.4577
  605MOL0     H81630   0.676  10.257   9.336 -0.4441 -0.9783 -0.9237
  605MOL0     H81631   0.493  10.388   9.421  0.5711  0.3936  1.0935
  605MOL0     H81632   0.490  10.286   9.563 -0.0737 -1.0400  0.5449
  605MOL0     H81633   0.372  10.200   9.296 -0.0003 -1.0790  1.7457
  605MOL0     H81634   0.286  10.299   9.425  1.2844  1.4003 -0.7559
  605MOL0     H81635   0.234  10.048   9.706 -1.6859 -3.2444  1.6724
  605MOL0     H81636   0.064  10.070   9.868  1.4759 -3.1504  1.3438
  605MOL0     H81637  -0.107  10.085   9.833 -0.0312 -0.4364 -0.0230
  605MOL0     H81638  -0.035   9.918   9.843  0.3820  1.3874  3.5921
  605MOL0     H81639  -0.470  10.101   9.629  0.8894 -1.5142 -2.7123
  605MOL0     H81640  -0.721  10.005   9.659 -0.2906  0.2197  1.0024
  605MOL0     H81641  -0.894   9.814   9.925 -1.6801  1.7297 -0.1877
  605MOL0     H81642  -0.852   9.952   9.844 -2.3563  0.3670  1.1887
  605MOL0     H81643  -1.063   9.893   9.782 -0.8171 -2.1155  1.8608
  605MOL0     H81644  -0.970   9.852   9.641 -0.8579 -0.0150 -0.3940
  605MOL0     H81645  -1.046   9.629   9.823  0.4848 -3.5211 -2.7272
  605MOL0     H81646  -1.036   9.621   9.652 -1.8858 -0.6900  0.2232
  605MOL0     H81647  -1.257   9.765   9.790  2.6589 -0.2719  2.0103
  605MOL0     H81648  -1.231   9.736   9.608 -0.2591 -1.4209 -0.0025
  605MOL0     H81649  -1.273   9.504   9.806 -2.2339 -0.4479  0.3472
  605MOL0     H81650  -1.258   9.499   9.635 -0.8980 -1.3803  0.9270
  605MOL0     H81651  -1.485   9.494   9.745  1.1138 -0.5431 -0.3390
  605MOL0     H81652  -1.456   9.653   9.809 -0.1936  1.9051 -0.6212
  605MOL0     H81653  -1.448   9.583   9.508 -1.4127  0.4648 -1.0704
  605MOL0     H81654  -1.462   9.739   9.555 -1.0920 -0.0517 -0.1502
  605MOL0     H81655  -1.665   9.517   9.618 -0.6695  0.8109  1.5927
  605MOL0     H81656  -1.688   9.637   9.496 -1.6544  0.3872  0.3343
  605MOL0     H81657  -0.541   9.658   9.843 -0.6596  0.8442  2.1699
  605MOL0     H81658  -0.327   9.733   9.797  1.2884 -0.1116 -2.0581
  605MOL0     H81659  -0.068   9.964   9.326 -0.3682 -0.6685 -0.0229
  605MOL0     H81660   0.150  10.073   9.289  0.1470  0.1744 -0.3307
  605MOL0     H81661   1.530  10.635   8.601  0.0165 -1.5984  0.1748
  605MOL0     H81662   1.734  10.783   8.579 -0.3804 -0.0796 -0.3613
  605MOL0     H81663   2.041  11.091   8.635 -0.8533 -1.6481 -1.2812
  605MOL0     H81664   2.243  11.205   8.591 -1.5058 -0.4402  2.7317
  605MOL0     H81665   2.658  11.082   8.445 -0.5815 -1.1279  1.9361
  605MOL0     H81666   2.568  10.993   8.333  0.3495  0.0992  0.6370
  605MOL0     H81667   2.500  11.210   8.220  0.3253  0.9596 -0.2366
  605MOL0     H81668   2.661  11.157   8.208  0.4386 -0.1804  2.1318
  605MOL0     H81669   2.747  11.312   8.363  0.7234 -0.1758 -1.2896
  605MOL0     H81670   2.585  11.337   8.444 -0.1185  0.5175 -0.6549
  605MOL0     H81671   2.530  11.464   8.216  0.3950  5.0630  2.1362
  605MOL0     H81672   2.701  11.418   8.166  0.5578  1.9646  0.9643
  605MOL0     H81673   2.755  11.772   8.382 -0.9652  0.7121 -2.3075
  605MOL0     H81674   2.415  10.853   8.422 -0.4802 -2.6962  1.6974
  605MOL0     H81675   2.206  10.728   8.492  0.0558  0.3633 -0.9121
  606MOL0     O81676   3.747   0.613   6.458 -0.6352 -0.2394  0.4003
  606MOL0     C81677   3.713   0.500   6.483  0.1542 -0.6418 -0.0473
  606MOL0     O81678   3.587   0.445   6.468  0.3952  0.1467 -0.4108
  606MOL0     C81679   3.482   0.514   6.400 -0.5714 -0.8001 -0.1715
  606MOL0     C81680   3.357   0.539   6.469  1.0521 -0.2236 -0.0820
  606MOL0     C81681   3.260   0.616   6.399 -0.2960  0.1159  0.3427
  606MOL0     C81682   3.285   0.663   6.268 -0.0475  1.0036 -0.3103
  606MOL0     O81683   3.181   0.723   6.206  0.1396 -0.1499 -0.3098
  606MOL0     C81684   3.187   0.772   6.071  0.1457  0.5902 -0.3079
  606MOL0     C81685   3.059   0.833   6.024 -0.1362 -0.7175  0.0091
  606MOL0     C81686   2.946   0.731   6.038 -0.6807  0.1059  1.0278
  606MOL0     C81687   2.820   0.769   5.962 -0.9279  0.3639 -0.4363
  606MOL0     C81688   2.703   0.671   5.978  0.5489  0.9482  0.2601
  606MOL0     C81689   2.575   0.723   5.899 -0.0895 -0.2796  0.2333
  606MOL0     C81690   2.469   0.621   5.908 -0.2189  0.0528  0.0871
  606MOL0     C81691   2.353   0.658   5.817  0.1012 -0.3071 -0.1147
  606MOL0     N81692   2.363   0.636   5.667  0.3665  0.3372 -0.2510
  606MOL0     C81693   2.409   0.718   5.568  0.0363  0.1428  0.3016
  606MOL0     C81694   2.441   0.634   5.463 -0.3101  0.9873  0.0210
  606MOL0     C81695   2.522   0.657   5.345  0.4134  0.7731  0.4064
  606MOL0     C81696   2.651   0.725   5.387  0.6496  0.2594 -0.1435
  606MOL0     C81697   2.733   0.641   5.480  0.6307  0.5028 -0.6515
  606MOL0     C81698   2.867   0.710   5.512 -0.6913  0.2729 -0.0668
  606MOL0     O81699   2.939   0.613   5.580  0.0271 -0.1338 -0.1704
  606MOL0     C81700   3.068   0.642   5.615 -0.2550 -0.3053 -0.3056
  606MOL0     C81701   3.134   0.772   5.605  0.2250  0.4365  0.0092
  606MOL0     C81702   3.256   0.801   5.661 -0.1146  0.6297  0.6755
  606MOL0     C81703   3.315   0.939   5.629  0.2179  0.4780 -0.1718
  606MOL0     C81704   3.322   0.703   5.740 -0.4326 -0.2884  0.3640
  606MOL0     C81705   3.454   0.728   5.799  0.2012 -0.2979  0.0648
  606MOL0     O81706   3.557   0.652   5.754  0.3842  1.1422 -0.0486
  606MOL0     C81707   3.678   0.675   5.815  0.0331  0.4231 -0.4318
  606MOL0     C81708   3.767   0.778   5.784 -0.9454 -0.2767 -0.3557
  606MOL0     C81709   3.892   0.793   5.837 -0.4973 -0.7196 -0.4559
  606MOL0     C81710   3.937   0.705   5.934 -0.4441 -0.2975  0.7338
  606MOL0     O81711   4.063   0.690   5.977 -0.3173  0.4783 -0.6459
  606MOL0     C81712   4.163   0.759   5.898 -1.3518 -0.2574  0.0611
  606MOL0     C81713   4.294   0.691   5.939  0.1201  0.4559 -0.6186
  606MOL0     C81714   4.432   0.764   5.928 -0.1448 -1.5263 -0.0977
  606MOL0     C81715   4.539   0.675   5.982  0.3021  0.2232  0.4396
  606MOL0     C81716   4.674   0.738   5.947 -0.5227  0.3883 -0.0533
  606MOL0     C81717   4.801   0.655   5.986  0.1401 -0.2095 -0.2980
  606MOL0     C81718   4.795   0.517   5.925  0.5858  0.0458 -0.0109
  606MOL0     C81719   4.941   0.466   5.911 -0.4069  0.9625 -0.9660
  606MOL0    Cl81720   5.042   0.481   6.060  0.2747  0.0177 -0.6732
  606MOL0     C81721   3.854   0.595   5.966  0.2499 -0.4497 -0.4440
  606MOL0     C81722   3.727   0.584   5.908  0.4755  0.4376 -0.5618
  606MOL0     O81723   3.456   0.810   5.895  0.2507  1.0044  0.3464
  606MOL0     C81724   3.265   0.575   5.744 -0.1538  0.0084 -0.2814
  606MOL0     C81725   3.144   0.544   5.681  0.1302  0.0159 -0.2380
  606MOL0     N81726   2.399   0.507   5.495  0.9411  0.0022 -0.1370
  606MOL0     N81727   2.352   0.507   5.618  0.3408  0.5022 -0.0021
  606MOL0     C81728   3.409   0.637   6.209 -0.1540  0.7966 -0.3460
  606MOL0     C81729   3.503   0.560   6.272 -0.1674 -0.7012  0.2973
  606MOL0     C81730   3.817   0.410   6.543  0.0591 -0.4749  0.3216
  606MOL0     C81731   3.949   0.446   6.566 -0.8089 -1.3077  1.3143
  606MOL0     C81732   4.044   0.362   6.626 -0.6173 -0.6514  0.5634
  606MOL0     C81733   4.000   0.257   6.703  0.0276  0.1535  0.0266
  606MOL0     O81734   4.075   0.182   6.795 -0.2006 -0.4462  0.5524
  606MOL0     C81735   4.187   0.246   6.848 -0.6021  0.9718 -0.4874
  606MOL0     C81736   4.311   0.222   6.770 -0.2778  0.5781 -0.0285
  606MOL0     C81737   4.357   0.079   6.790 -0.0820 -0.5893  0.2581
  606MOL0     C81738   4.494   0.062   6.726  0.1080  0.3217  0.1411
  606MOL0     C81739   4.605   0.114   6.806  0.4619 -0.0186  0.2248
  606MOL0     C81740   4.700   0.140   6.880 -0.3847 -0.6200  0.1018
  606MOL0     C81741   3.875   0.220   6.679 -0.2232 -0.0804  0.0472
  606MOL0     C81742   3.787   0.286   6.597  0.2191  0.4391 -0.9107
  606MOL0     H81743   3.333   0.512   6.571  1.3325 -0.2131 -0.0114
  606MOL0     H81744   3.166   0.641   6.445 -0.7897 -1.7893  0.4637
  606MOL0     H81745   3.263   0.850   6.060  2.1559 -1.4138 -1.4547
  606MOL0     H81746   3.209   0.691   6.001 -2.3213  1.0009 -1.7077
  606MOL0     H81747   3.037   0.921   6.086  0.3758 -2.0247  2.1564
  606MOL0     H81748   3.079   0.859   5.920 -0.1548 -1.3032 -0.1414
  606MOL0     H81749   2.988   0.638   6.000  1.2619  0.7253  1.5318
  606MOL0     H81750   2.920   0.717   6.144  1.4949 -0.1904  1.5705
  606MOL0     H81751   2.777   0.860   6.006 -1.3829  1.2609 -2.5775
  606MOL0     H81752   2.830   0.781   5.854 -2.2429 -1.3943 -0.7924
  606MOL0     H81753   2.729   0.577   5.930  0.9888  1.2324 -0.0584
  606MOL0     H81754   2.674   0.644   6.080  0.0917  1.2798  0.2225
  606MOL0     H81755   2.542   0.817   5.943 -0.4624 -1.0516  1.6692
  606MOL0     H81756   2.604   0.742   5.795 -0.9410 -0.5655 -0.0651
  606MOL0     H81757   2.509   0.523   5.882 -1.2798 -0.2855 -0.3584
  606MOL0     H81758   2.436   0.617   6.012  0.6864  1.0960  0.4383
  606MOL0     H81759   2.326   0.763   5.825 -2.2530 -0.9962  2.3469
  606MOL0     H81760   2.260   0.611   5.849 -0.9154  1.7898  0.1279
  606MOL0     H81761   2.440   0.821   5.585  1.1796 -0.5362  2.8636
  606MOL0     H81762   2.552   0.559   5.304 -1.4944 -0.7956  2.5204
  606MOL0     H81763   2.468   0.725   5.279  0.1488  1.3236  1.1936
  606MOL0     H81764   2.635   0.819   5.440  1.8813 -0.9917  2.6282
  606MOL0     H81765   2.707   0.743   5.294 -0.1559 -0.7682 -0.8438
  606MOL0     H81766   2.746   0.551   5.420 -1.5902  1.7430 -3.2160
  606MOL0     H81767   2.685   0.611   5.573  2.0025 -2.6962 -0.8412
  606MOL0     H81768   2.852   0.798   5.575 -1.8542 -0.5061  0.7975
  606MOL0     H81769   2.907   0.727   5.412 -0.3236 -5.3456 -1.1910
  606MOL0     H81770   3.095   0.855   5.547 -1.8714 -0.6698 -0.2579
  606MOL0     H81771   3.336   0.942   5.521 -1.0838 -3.4145 -0.6743
  606MOL0     H81772   3.242   1.007   5.675 -0.4253  0.4987 -1.1724
  606MOL0     H81773   3.399   0.959   5.695  0.3207  1.9012 -0.6848
  606MOL0     H81774   3.732   0.850   5.710 -1.4853  0.0824  0.2322
  606MOL0     H81775   3.958   0.870   5.799  2.8534 -1.9034  2.5251
  606MOL0     H81776   4.147   0.753   5.790 -1.1439  0.2036 -0.0001
  606MOL0     H81777   4.178   0.861   5.934 -2.1715  0.1457 -0.6759
  606MOL0     H81778   4.289   0.674   6.047  0.6423  3.0917 -0.1199
  606MOL0     H81779   4.307   0.599   5.881  2.4368 -0.2504  0.8950
  606MOL0     H81780   4.429   0.860   5.981 -0.4993 -2.3161  1.3631
  606MOL0     H81781   4.460   0.788   5.824  0.7606  1.4564  0.7389
  606MOL0     H81782   4.523   0.653   6.088 -1.9353  4.2707  1.1716
  606MOL0     H81783   4.538   0.583   5.924  1.3624  0.3145  0.2530
  606MOL0     H81784   4.679   0.836   5.995  0.2224  1.0566 -1.4602
  606MOL0     H81785   4.685   0.760   5.841 -1.1047 -0.7043 -0.3585
  606MOL0     H81786   4.893   0.704   5.952  1.5323 -0.3283  2.9457
  606MOL0     H81787   4.806   0.647   6.095 -0.3499  2.2230 -0.0309
  606MOL0     H81788   4.755   0.523   5.823 -1.5881 -1.5381  0.6829
  606MOL0     H81789   4.727   0.448   5.976 -1.8585  0.4240 -2.5032
  606MOL0     H81790   4.998   0.521   5.836  1.5315 -0.3681 -0.5388
  606MOL0     H81791   4.948   0.363   5.876 -2.7721  1.0195 -1.8289
  606MOL0     H81792   3.900   0.536   6.045  0.2511 -2.2117 -1.7100
  606MOL0     H81793   3.663   0.501   5.936 -1.9002  2.2344 -0.3449
  606MOL0     H81794   3.314   0.493   5.796 -0.2378  0.5594  0.6967
  606MOL0     H81795   3.105   0.444   5.695 -0.5378  0.6016  2.6547
  606MOL0     H81796   3.433   0.669   6.109 -1.3929  2.0775 -0.2691
  606MOL0     H81797   3.600   0.540   6.228  0.3860 -0.5943  1.4317
  606MOL0     H81798   3.979   0.532   6.507  1.2546 -5.0282 -3.9312
  606MOL0     H81799   4.146   0.398   6.616 -1.0304  1.4308  2.8007
  606MOL0     H81800   4.168   0.354   6.858 -0.0332  1.0564 -0.2840
  606MOL0     H81801   4.205   0.212   6.950  1.7945  3.9035  0.2294
  606MOL0     H81802   4.390   0.291   6.801 -1.1338  1.0515  1.1532
  606MOL0     H81803   4.304   0.245   6.663  0.2692 -1.0964 -0.4611
  606MOL0     H81804   4.278   0.016   6.747 -2.1344  1.5002  0.7557
  606MOL0     H81805   4.371   0.045   6.893  2.6780  0.8597  0.4503
  606MOL0     H81806   4.503   0.089   6.620  0.9934 -1.0766 -0.1597
  606MOL0     H81807   4.515  -0.045   6.728  0.5495  0.3395 -1.6913
  606MOL0     H81808   4.777   0.186   6.939 -0.3123 -1.6035  0.7967
  606MOL0     H81809   3.850   0.125   6.726  2.6227 -1.9390 -1.8487
  606MOL0     H81810   3.683   0.263   6.577  0.3447 -1.3133  0.1680
  607MOL0     O81811  11.215   2.952   1.557  0.4006 -0.0764  0.8443
  607MOL0     C81812  11.253   2.955   1.673 -0.2147  0.2082  0.5816
  607MOL0     O81813  11.180   2.937   1.783 -0.7418 -0.5143  0.3674
  607MOL0     C81814  11.068   2.862   1.780 -0.1554 -0.2932  1.2653
  607MOL0     C81815  10.958   2.896   1.853  0.7213 -0.1270 -0.0217
  607MOL0     C81816  10.838   2.823   1.849 -0.1081  0.5918  0.5383
  607MOL0     C81817  10.842   2.698   1.782 -0.3812 -1.3445 -0.4760
  607MOL0     O81818  10.727   2.627   1.780  0.4149 -0.5640 -0.3431
  607MOL0     C81819  10.630   2.693   1.694  0.4695 -0.5106  1.0036
  607MOL0     C81820  10.503   2.603   1.685 -0.0736 -0.5943 -0.3063
  607MOL0     C81821  10.526   2.460   1.639 -0.4154 -0.2646  0.8183
  607MOL0     C81822  10.405   2.404   1.579  0.0456 -0.0584 -0.2187
  607MOL0     C81823  10.405   2.249   1.573 -0.0076 -0.5039 -0.0631
  607MOL0     C81824  10.337   2.205   1.435 -0.0717  0.2765  0.1294
  607MOL0     C81825  10.350   2.065   1.393  0.3951 -0.1968  0.0155
  607MOL0     C81826  10.323   1.969   1.513 -0.6433  0.1316  1.0193
  607MOL0     N81827  10.190   1.993   1.571 -0.6406  0.2445 -0.3868
  607MOL0     C81828  10.157   1.977   1.705  0.6565  0.1976 -0.8256
  607MOL0     C81829  10.031   2.024   1.717 -0.6245 -0.2583  0.5884
  607MOL0     C81830   9.952   2.030   1.845 -0.2263 -0.9786 -0.1403
  607MOL0     C81831   9.801   2.063   1.819 -0.9964 -0.3386 -0.3208
  607MOL0     C81832   9.734   2.146   1.935  0.5445  0.5689 -0.0336
  607MOL0     C81833   9.582   2.153   1.925 -0.9322 -0.0233  0.2607
  607MOL0     O81834   9.527   2.210   2.051  0.1710 -0.3692  0.0545
  607MOL0     C81835   9.393   2.222   2.067  0.2255 -0.2395  0.4789
  607MOL0     C81836   9.332   2.271   2.184 -0.6924  0.4538  0.4432
  607MOL0     C81837   9.192   2.294   2.207 -0.7596 -0.5205  0.4350
  607MOL0     C81838   9.163   2.363   2.336  0.1443  0.8789 -1.8793
  607MOL0     C81839   9.102   2.262   2.105  0.0074  0.5607 -0.0483
  607MOL0     C81840   8.955   2.292   2.109  0.5554 -0.1790 -0.2523
  607MOL0     O81841   8.881   2.206   2.043 -0.7538 -0.2884 -0.1153
  607MOL0     C81842   8.747   2.212   2.056 -0.3889 -0.4629  0.6441
  607MOL0     C81843   8.666   2.238   1.947 -0.2705  0.5401 -0.6237
  607MOL0     C81844   8.523   2.220   1.955 -0.2476 -0.6588  0.2617
  607MOL0     C81845   8.466   2.193   2.073  0.5899  1.1224  0.0901
  607MOL0     O81846   8.329   2.172   2.060  0.7257  0.0143 -0.1625
  607MOL0     C81847   8.254   2.120   2.171  0.1353 -0.3114  0.3263
  607MOL0     C81848   8.112   2.088   2.138 -1.0399 -0.3295  0.7014
  607MOL0     C81849   8.044   2.032   2.251  0.2675  0.5317 -0.1698
  607MOL0     C81850   7.900   2.007   2.207 -0.1873 -0.8657  0.0735
  607MOL0     C81851   7.800   1.988   2.325  0.5295  0.3587 -0.2166
  607MOL0     C81852   7.648   2.000   2.278 -1.0150 -0.1706  0.6008
  607MOL0     C81853   7.555   1.986   2.394  0.1515 -0.0279 -0.3051
  607MOL0     C81854   7.412   2.053   2.372  0.2565 -0.1131 -0.1313
  607MOL0    Cl81855   7.303   1.949   2.280 -0.0461  0.2441  0.4793
  607MOL0     C81856   8.541   2.190   2.191 -0.0014  0.0728 -0.8097
  607MOL0     C81857   8.682   2.192   2.176  0.4755 -0.2945 -0.0997
  607MOL0     O81858   8.915   2.402   2.165 -0.4001  0.2225 -0.1549
  607MOL0     C81859   9.156   2.203   1.990 -0.5589 -0.3841 -0.3210
  607MOL0     C81860   9.293   2.190   1.973  0.0395 -0.0069  0.4056
  607MOL0     N81861   9.979   2.044   1.590 -0.5060 -0.3935 -0.6179
  607MOL0     N81862  10.074   2.035   1.508 -0.1772  1.2813 -0.6274
  607MOL0     C81863  10.953   2.653   1.719  0.1845 -0.4708  0.5027
  607MOL0     C81864  11.071   2.730   1.718  0.3040  0.0430  0.2055
  607MOL0     C81865  11.404   2.941   1.678  0.1838  0.6584  0.8679
  607MOL0     C81866  11.488   2.894   1.570  0.4091 -0.1063  0.5376
  607MOL0     C81867  11.624   2.874   1.586  0.0101 -0.4987  0.6260
  607MOL0     C81868  11.680   2.913   1.706  0.5892 -0.1678 -0.1785
  607MOL0     O81869  11.808   2.891   1.722 -0.1003  0.1245  0.4458
  607MOL0     C81870  11.888   2.983   1.805  0.1129 -0.1504 -1.2111
  607MOL0     C81871  12.039   2.949   1.793 -1.2492 -0.4026  0.2018
  607MOL0     C81872  12.126   3.080   1.829  0.5657  0.4815  0.4099
  607MOL0     C81873  12.265   3.060   1.812  0.2007  0.1234  0.0541
  607MOL0     C81874  12.310   3.073   1.666  1.0836  0.4916 -0.7282
  607MOL0     C81875  12.326   3.079   1.548  0.0279  0.2372  0.2553
  607MOL0     C81876  11.601   2.948   1.813 -0.1792 -0.6367  0.3206
  607MOL0     C81877  11.462   2.960   1.800  0.3135 -0.0158  0.7001
  607MOL0     H81878  10.963   2.987   1.912  1.4820  0.1239 -0.4588
  607MOL0     H81879  10.748   2.847   1.905 -0.3956 -0.7679  0.7024
  607MOL0     H81880  10.600   2.788   1.738 -0.3023 -0.8179  1.1635
  607MOL0     H81881  10.672   2.702   1.593 -0.7775 -0.2057  0.4892
  607MOL0     H81882  10.461   2.598   1.786  2.7467  0.0115  1.0038
  607MOL0     H81883  10.434   2.655   1.619 -3.8784 -1.4835  2.5937
  607MOL0     H81884  10.605   2.466   1.564 -0.1571  0.1584  1.1178
  607MOL0     H81885  10.568   2.386   1.708  1.8667 -1.6753 -1.8957
  607MOL0     H81886  10.308   2.439   1.614  1.3101  2.5330  0.9617
  607MOL0     H81887  10.409   2.433   1.473 -1.9371 -0.8803 -0.5597
  607MOL0     H81888  10.507   2.212   1.580  0.8634  0.9146 -3.4215
  607MOL0     H81889  10.347   2.215   1.660 -1.5007 -0.1817 -0.9006
  607MOL0     H81890  10.233   2.223   1.462  0.3803  0.1750  2.0816
  607MOL0     H81891  10.363   2.275   1.355  0.7905 -0.4662 -0.2616
  607MOL0     H81892  10.268   2.043   1.323 -1.7776  1.5506  1.8406
  607MOL0     H81893  10.445   2.053   1.341  0.0149  1.1955 -1.0571
  607MOL0     H81894  10.403   1.976   1.587  3.0996  2.8336 -2.8166
  607MOL0     H81895  10.324   1.865   1.478 -1.3880 -0.3634  2.3892
  607MOL0     H81896  10.219   1.940   1.786  0.7105  0.4198 -0.7647
  607MOL0     H81897   9.961   1.936   1.900 -0.1319 -0.5910  0.5179
  607MOL0     H81898   9.997   2.120   1.888 -1.9909 -0.9858  1.8866
  607MOL0     H81899   9.736   1.977   1.801 -0.5557 -1.1216  1.5480
  607MOL0     H81900   9.799   2.120   1.726  1.1945 -3.1350 -2.2742
  607MOL0     H81901   9.773   2.248   1.933  1.7984  0.0978 -0.2048
  607MOL0     H81902   9.755   2.095   2.028 -1.7425 -1.2218 -0.3964
  607MOL0     H81903   9.549   2.049   1.925  0.7997 -0.6162 -0.6675
  607MOL0     H81904   9.549   2.203   1.834  0.4181  1.6403  0.6301
  607MOL0     H81905   9.413   2.291   2.254  3.9488 -2.9088 -3.2920
  607MOL0     H81906   9.224   2.454   2.344  1.6741 -0.2345  0.4161
  607MOL0     H81907   9.061   2.398   2.354  1.2486  2.7332  1.7106
  607MOL0     H81908   9.202   2.305   2.420  1.4328  0.1056 -2.9710
  607MOL0     H81909   8.713   2.261   1.852  0.6956 -0.4151 -0.3933
  607MOL0     H81910   8.475   2.234   1.858  1.4018  2.9339 -0.2195
  607MOL0     H81911   8.312   2.033   2.204  3.3779  2.1983  1.7116
  607MOL0     H81912   8.258   2.192   2.254  1.9428  1.6284 -1.3514
  607MOL0     H81913   8.060   2.178   2.102  2.0854  1.7210  0.9776
  607MOL0     H81914   8.114   2.026   2.048  3.8868 -0.4064  0.6178
  607MOL0     H81915   8.044   2.105   2.333  1.6091 -1.4995  1.7351
  607MOL0     H81916   8.086   1.937   2.284  3.6457  0.0270 -4.8978
  607MOL0     H81917   7.856   2.078   2.137  0.9073 -0.7250 -0.4843
  607MOL0     H81918   7.905   1.921   2.140  0.9239  0.7335 -1.9920
  607MOL0     H81919   7.826   2.071   2.391  3.0422  3.1764 -4.2773
  607MOL0     H81920   7.825   1.893   2.374  0.5070  1.0351  1.1532
  607MOL0     H81921   7.642   2.103   2.240 -0.9822  0.1454  1.4256
  607MOL0     H81922   7.618   1.927   2.202 -2.2244 -1.8814  2.6291
  607MOL0     H81923   7.598   2.029   2.485 -0.3544 -1.1351  0.4887
  607MOL0     H81924   7.539   1.878   2.402 -2.4992  0.3576  0.8001
  607MOL0     H81925   7.424   2.148   2.319  2.5650 -1.6344 -2.6343
  607MOL0     H81926   7.364   2.065   2.469  1.2030  1.1187  0.2076
  607MOL0     H81927   8.478   2.161   2.275 -1.3972 -2.1130 -2.4705
  607MOL0     H81928   8.734   2.167   2.268 -1.7302 -4.0932  0.3275
  607MOL0     H81929   9.088   2.192   1.907 -1.5432 -0.2769  0.4448
  607MOL0     H81930   9.326   2.148   1.878  1.5182  1.7134  0.1074
  607MOL0     H81931  10.945   2.557   1.669 -2.8456  0.8587 -1.8723
  607MOL0     H81932  11.152   2.688   1.660 -0.0823 -0.1085 -0.2301
  607MOL0     H81933  11.443   2.871   1.474 -0.3775  1.2554  0.5512
  607MOL0     H81934  11.686   2.846   1.501  0.2865 -3.7178  1.7435
  607MOL0     H81935  11.870   3.089   1.785 -0.4100 -0.0939 -0.4946
  607MOL0     H81936  11.866   2.967   1.911 -0.6907  1.8444 -1.0378
  607MOL0     H81937  12.053   2.940   1.685 -1.1263  1.3141  0.0413
  607MOL0     H81938  12.080   2.864   1.849  1.3688 -0.1410 -1.1214
  607MOL0     H81939  12.111   3.103   1.935  1.0230  1.4698  0.2715
  607MOL0     H81940  12.089   3.165   1.770  0.3281 -0.3958 -0.7396
  607MOL0     H81941  12.288   2.958   1.845  0.8457  0.0128 -0.7051
  607MOL0     H81942  12.325   3.127   1.875 -0.0707  1.5399 -1.1373
  607MOL0     H81943  12.341   3.105   1.445 -1.1219  0.3505  0.1089
  607MOL0     H81944  11.645   2.969   1.910  0.8100  0.5044 -0.3373
  607MOL0     H81945  11.404   2.986   1.887 -1.4463  0.0122 -0.4391
  608MOL0     O81946  10.779   0.526   5.353  0.4698  0.2188  0.1104
  608MOL0     C81947  10.807   0.462   5.454  0.2695  0.2925  0.6589
  608MOL0     O81948  10.746   0.347   5.502 -0.6655 -0.6292  0.7648
  608MOL0     C81949  10.663   0.267   5.435  0.8271 -0.3203  0.0484
  608MOL0     C81950  10.632   0.277   5.298 -0.1909 -0.6855 -0.3958
  608MOL0     C81951  10.545   0.185   5.236  0.8581  1.2508 -0.0819
  608MOL0     C81952  10.486   0.072   5.308  0.4493 -0.6137  0.1063
  608MOL0     O81953  10.398  -0.019   5.249  0.2452 -0.2557  0.2447
  608MOL0     C81954  10.299   0.046   5.163  0.2923 -0.7886 -0.4129
  608MOL0     C81955  10.196  -0.059   5.102  0.5757  0.2505 -0.7279
  608MOL0     C81956  10.075  -0.004   5.033 -0.4076  0.4980  0.3111
  608MOL0     C81957   9.966  -0.105   4.998  0.6259  0.7339  0.2377
  608MOL0     C81958   9.851  -0.052   4.910  0.0100 -0.2116 -0.3840
  608MOL0     C81959   9.752  -0.157   4.864 -0.2180 -0.5809  1.0317
  608MOL0     C81960   9.622  -0.093   4.803  0.3561 -0.5349  0.0568
  608MOL0     C81961   9.541  -0.202   4.745  0.1079  0.8841 -0.3677
  608MOL0     N81962   9.590  -0.246   4.607  0.0649 -0.1035 -1.0177
  608MOL0     C81963   9.644  -0.370   4.576  0.5693 -0.3690  1.0865
  608MOL0     C81964   9.620  -0.379   4.440 -0.2595  0.7033  0.1666
  608MOL0     C81965   9.644  -0.506   4.352 -0.0194 -0.6148 -0.0446
  608MOL0     C81966   9.618  -0.632   4.430 -0.0649 -0.6437  0.7080
  608MOL0     C81967   9.468  -0.656   4.437  0.5209 -0.0893 -0.0796
  608MOL0     C81968   9.393  -0.559   4.522  0.3346  0.0393  0.3394
  608MOL0     O81969   9.262  -0.616   4.547  0.0630 -0.7575 -0.2150
  608MOL0     C81970   9.160  -0.535   4.580 -1.0114 -0.1084 -0.1599
  608MOL0     C81971   9.032  -0.589   4.602  0.1295  0.9720 -0.0495
  608MOL0     C81972   8.937  -0.500   4.656  0.1028  0.5901  0.5078
  608MOL0     C81973   8.813  -0.571   4.699  1.3205 -0.1999 -0.0193
  608MOL0     C81974   8.961  -0.363   4.675  1.0202 -0.7958 -0.2143
  608MOL0     C81975   8.860  -0.262   4.724 -0.5959  0.4669  0.0213
  608MOL0     O81976   8.727  -0.284   4.695 -0.5807  0.0333  0.0298
  608MOL0     C81977   8.641  -0.191   4.749  0.1409 -0.2921  0.2364
  608MOL0     C81978   8.540  -0.239   4.840 -0.2464 -0.4065 -0.2960
  608MOL0     C81979   8.439  -0.154   4.889  0.1810 -0.4516 -0.3353
  608MOL0     C81980   8.427  -0.019   4.837  0.5400  0.5591 -0.6465
  608MOL0     O81981   8.330   0.072   4.878 -0.1540 -0.3122  0.6665
  608MOL0     C81982   8.241   0.110   4.774 -0.0934 -0.4160 -0.0343
  608MOL0     C81983   8.148   0.209   4.841 -0.1485 -0.2295 -0.3955
  608MOL0     C81984   8.042   0.154   4.931 -0.2895 -0.3371 -0.2834
  608MOL0     C81985   7.970   0.275   4.986 -0.7382  0.9178  1.1982
  608MOL0     C81986   7.904   0.235   5.121  0.5657  0.1715 -0.4135
  608MOL0     C81987   7.793   0.337   5.160 -0.0281  0.5765 -0.4432
  608MOL0     C81988   7.739   0.309   5.298 -0.2437 -0.6778  0.4482
  608MOL0     C81989   7.618   0.393   5.332 -0.1646 -0.2112 -1.2199
  608MOL0    Cl81990   7.504   0.385   5.205 -0.4373 -0.2503 -0.0186
  608MOL0     C81991   8.528   0.030   4.747  0.4571 -0.5620 -0.3397
  608MOL0     C81992   8.632  -0.054   4.699  0.0004  0.1954  0.4099
  608MOL0     O81993   8.905  -0.170   4.784 -0.4114  0.7636  0.5263
  608MOL0     C81994   9.093  -0.311   4.654 -1.2308  0.6727 -0.1468
  608MOL0     C81995   9.190  -0.402   4.617  0.4915 -0.5973 -0.4689
  608MOL0     N81996   9.550  -0.269   4.395 -0.3391 -0.1256  0.0966
  608MOL0     N81997   9.542  -0.188   4.499  0.4779  0.4058 -0.2427
  608MOL0     C81998  10.528   0.048   5.438 -0.4571  1.0484 -0.1124
  608MOL0     C81999  10.607   0.151   5.498  0.9322 -0.2699  0.4175
  608MOL0     C82000  10.923   0.534   5.521 -0.2267  0.5247 -1.0651
  608MOL0     C82001  10.961   0.499   5.657 -0.5932 -0.1167  0.6979
  608MOL0     C82002  11.050   0.578   5.730 -0.2958  0.4075 -0.6989
  608MOL0     C82003  11.105   0.692   5.675 -0.4248 -0.1451 -0.4389
  608MOL0     O82004  11.182   0.780   5.751 -0.9538  0.4003 -0.0904
  608MOL0     C82005  11.261   0.892   5.686 -0.4771 -0.4867 -0.1975
  608MOL0     C82006  11.345   0.939   5.799  0.6862  0.1019 -0.0442
  608MOL0     C82007  11.451   1.037   5.762 -0.2622 -0.7317  0.0047
  608MOL0     C82008  11.572   1.052   5.858  0.5280 -0.3841 -1.2583
  608MOL0     C82009  11.687   1.108   5.776 -0.6817  0.5757 -0.1811
  608MOL0     C82010  11.773   1.164   5.714 -0.0159 -0.1851  0.0056
  608MOL0     C82011  11.074   0.721   5.534 -1.0221 -0.0636 -0.2827
  608MOL0     C82012  10.983   0.645   5.457 -1.4917  0.3655 -0.8457
  608MOL0     H82013  10.662   0.361   5.236 -1.7122  0.5879  0.5301
  608MOL0     H82014  10.530   0.202   5.131 -2.1633 -1.4628 -0.2430
  608MOL0     H82015  10.248   0.122   5.223 -0.1373 -0.1018 -1.6025
  608MOL0     H82016  10.339   0.113   5.086  0.8591 -0.3831  0.2316
  608MOL0     H82017  10.251  -0.127   5.036  0.5707 -1.9309  1.4101
  608MOL0     H82018  10.150  -0.123   5.178 -0.9205  0.5579 -1.3379
  608MOL0     H82019  10.024   0.069   5.096 -2.7791 -1.5216  0.8525
  608MOL0     H82020  10.099   0.048   4.939 -0.6697 -1.6637 -1.0066
  608MOL0     H82021  10.017  -0.185   4.942 -0.3744  0.7090 -0.6789
  608MOL0     H82022   9.921  -0.156   5.084 -4.2047  3.2513 -0.4575
  608MOL0     H82023   9.794   0.017   4.972  0.5287  0.2307 -0.3890
  608MOL0     H82024   9.889  -0.005   4.819 -1.2285  1.3703 -0.1261
  608MOL0     H82025   9.811  -0.219   4.795  2.5325  0.1762  2.5429
  608MOL0     H82026   9.725  -0.216   4.952  0.4513 -4.1178 -0.9366
  608MOL0     H82027   9.567  -0.044   4.884  0.1563 -1.6698  0.6202
  608MOL0     H82028   9.650  -0.019   4.727  0.9389 -0.2362  0.5535
  608MOL0     H82029   9.438  -0.166   4.731 -0.6228 -0.5586  0.9430
  608MOL0     H82030   9.537  -0.288   4.812  1.6285  0.6686 -0.5162
  608MOL0     H82031   9.682  -0.454   4.633  3.5886  0.8005  1.0253
  608MOL0     H82032   9.572  -0.506   4.269  2.2651  0.5337 -2.1837
  608MOL0     H82033   9.747  -0.513   4.314  0.5014 -2.1685  1.5241
  608MOL0     H82034   9.676  -0.633   4.523  1.7933  1.0951 -0.3308
  608MOL0     H82035   9.669  -0.710   4.374  0.1612  1.4777 -2.2825
  608MOL0     H82036   9.442  -0.757   4.472  0.8682 -0.8006 -1.7414
  608MOL0     H82037   9.421  -0.648   4.338  1.2610 -1.0054 -0.5177
  608MOL0     H82038   9.385  -0.467   4.464  2.1157 -1.9380 -3.3170
  608MOL0     H82039   9.447  -0.541   4.615 -2.1474  0.2394  1.8547
  608MOL0     H82040   9.033  -0.698   4.603  2.5120  0.9492 -0.1419
  608MOL0     H82041   8.731  -0.550   4.629 -0.7038 -3.0720  1.2669
  608MOL0     H82042   8.815  -0.680   4.708 -1.0851 -0.1305  5.2645
  608MOL0     H82043   8.778  -0.550   4.800 -0.5083 -0.7861 -0.4811
  608MOL0     H82044   8.539  -0.340   4.880 -1.7154 -0.0426  0.6934
  608MOL0     H82045   8.374  -0.191   4.968  1.4647 -0.7556  0.6015
  608MOL0     H82046   8.288   0.157   4.687  0.1605 -0.0371  0.3017
  608MOL0     H82047   8.185   0.020   4.748 -2.2797  0.4383  1.3986
  608MOL0     H82048   8.218   0.277   4.892 -0.4058  2.3677 -3.2577
  608MOL0     H82049   8.101   0.273   4.766  0.9487  2.1801  0.8562
  608MOL0     H82050   8.093   0.096   5.008 -2.7552 -0.0152  1.7169
  608MOL0     H82051   7.968   0.091   4.881 -2.5184  1.6579  0.2664
  608MOL0     H82052   8.037   0.360   4.999  2.3453 -0.6208 -2.5571
  608MOL0     H82053   7.898   0.322   4.918 -1.0373  1.6786  2.0285
  608MOL0     H82054   7.982   0.237   5.198  1.8209 -1.9969 -1.5401
  608MOL0     H82055   7.860   0.135   5.118  1.5087 -0.2348 -1.9867
  608MOL0     H82056   7.839   0.434   5.178  1.9732 -0.6745  1.8200
  608MOL0     H82057   7.731   0.340   5.070  1.1100 -1.0291 -1.3412
  608MOL0     H82058   7.813   0.337   5.374 -2.1489  5.1431  0.6584
  608MOL0     H82059   7.716   0.203   5.312  3.1788 -2.0008 -2.3470
  608MOL0     H82060   7.632   0.500   5.349 -0.4722 -0.4100  0.4349
  608MOL0     H82061   7.573   0.348   5.421  2.5433 -4.5520 -1.7059
  608MOL0     H82062   8.520   0.135   4.721  0.6761 -0.1329  1.2305
  608MOL0     H82063   8.699  -0.005   4.630  2.6037 -2.4302  0.8528
  608MOL0     H82064   9.128  -0.211   4.676  1.4868 -0.1012 -0.5577
  608MOL0     H82065   9.289  -0.361   4.607  0.2140  0.1980 -0.0842
  608MOL0     H82066  10.492  -0.037   5.495  0.3750  2.4412  2.6773
  608MOL0     H82067  10.625   0.148   5.605  0.4875  2.9913  0.6934
  608MOL0     H82068  10.930   0.406   5.702 -1.0223  0.1431  0.9458
  608MOL0     H82069  11.065   0.536   5.829 -0.2918 -3.4671 -2.1471
  608MOL0     H82070  11.311   0.851   5.598 -1.0097  4.0411 -2.9770
  608MOL0     H82071  11.190   0.965   5.646 -0.7160 -0.6973 -0.1589
  608MOL0     H82072  11.395   0.849   5.838 -0.7781 -0.7244 -0.0004
  608MOL0     H82073  11.289   0.984   5.881 -2.3786 -0.7255 -1.5233
  608MOL0     H82074  11.405   1.132   5.733 -1.1519 -1.2181 -0.2009
  608MOL0     H82075  11.487   0.999   5.666 -1.7828 -0.0477 -0.8723
  608MOL0     H82076  11.616   0.958   5.891 -0.0440 -0.3706 -0.4331
  608MOL0     H82077  11.553   1.118   5.943  3.4783  0.9908 -1.5566
  608MOL0     H82078  11.845   1.211   5.650 -0.5767 -1.5697 -1.7367
  608MOL0     H82079  11.127   0.796   5.476  1.4121 -1.7016 -0.3156
  608MOL0     H82080  10.972   0.664   5.351  0.1947  2.3047 -0.7302
  609MOL0     O82081   6.109   2.013   4.598 -0.3304 -0.5674 -0.5109
  609MOL0     C82082   6.125   2.124   4.542 -0.5986  0.0383  0.9636
  609MOL0     O82083   6.024   2.197   4.482 -1.2553 -0.6749 -0.2822
  609MOL0     C82084   5.898   2.183   4.528  0.0436  1.1891 -0.3084
  609MOL0     C82085   5.825   2.080   4.469 -0.4545 -1.0366  1.1351
  609MOL0     C82086   5.691   2.068   4.494  0.5201 -0.4393 -0.2086
  609MOL0     C82087   5.630   2.154   4.583 -1.2756  1.1314  0.4010
  609MOL0     O82088   5.501   2.120   4.612  0.1551  0.5528 -0.2161
  609MOL0     C82089   5.422   2.232   4.652  0.2226  0.8219  0.0540
  609MOL0     C82090   5.276   2.190   4.656  0.5162  0.3830  0.2923
  609MOL0     C82091   5.192   2.271   4.758  0.8823 -0.3325 -0.2942
  609MOL0     C82092   5.061   2.194   4.785  0.3666 -0.2021  0.5486
  609MOL0     C82093   4.958   2.270   4.881  0.0417 -0.5327  0.4258
  609MOL0     C82094   4.872   2.183   4.967  0.0050  0.0616  0.8048
  609MOL0     C82095   4.778   2.266   5.056  0.4349  0.2660  1.1330
  609MOL0     C82096   4.703   2.182   5.160 -0.1229  0.1827  0.4712
  609MOL0     N82097   4.611   2.077   5.109 -0.6337  0.1851  0.2727
  609MOL0     C82098   4.485   2.113   5.067  0.3789  0.1170 -0.6367
  609MOL0     C82099   4.425   1.995   5.025 -0.2558 -0.7375 -0.0077
  609MOL0     C82100   4.284   1.975   4.979  0.3871  0.5189  0.0066
  609MOL0     C82101   4.193   2.045   5.080  1.3895 -0.3254  0.2060
  609MOL0     C82102   4.056   1.984   5.073  0.0688 -0.0391  0.0093
  609MOL0     C82103   3.978   2.004   4.948  0.0507 -0.5379 -0.1373
  609MOL0     O82104   3.847   1.953   4.969 -0.5436  0.3738 -0.3982
  609MOL0     C82105   3.763   1.959   4.858 -0.1031 -0.1701  0.2249
  609MOL0     C82106   3.793   2.023   4.736 -0.0959 -1.0772 -0.3228
  609MOL0     C82107   3.692   2.027   4.630  0.6155 -0.1882 -0.0432
  609MOL0     C82108   3.722   2.108   4.506 -0.2045  0.2901 -1.1182
  609MOL0     C82109   3.574   1.951   4.656 -0.3425  0.4484 -0.5554
  609MOL0     C82110   3.458   1.946   4.561  0.0989  0.2365  0.5696
  609MOL0     O82111   3.382   1.837   4.559 -0.5909 -0.6280  0.1012
  609MOL0     C82112   3.273   1.825   4.472 -0.0137 -0.8112 -0.5013
  609MOL0     C82113   3.151   1.798   4.533  0.5251  0.3202  0.2785
  609MOL0     C82114   3.033   1.778   4.458 -0.4213 -0.6020  0.1376
  609MOL0     C82115   3.034   1.784   4.322 -0.2662 -0.1089  0.4564
  609MOL0     O82116   2.923   1.738   4.262  0.3925  0.2132  0.4605
  609MOL0     C82117   2.905   1.765   4.122 -0.4279 -0.0477 -0.3716
  609MOL0     C82118   2.987   1.649   4.046  0.4153 -1.2793  0.1536
  609MOL0     C82119   3.019   1.682   3.897 -0.7210 -0.2677 -0.3565
  609MOL0     C82120   3.139   1.600   3.857  0.6479  0.1163 -0.2669
  609MOL0     C82121   3.194   1.655   3.730 -0.3771 -0.4400  0.3967
  609MOL0     C82122   3.317   1.574   3.694  0.6151 -0.6086 -0.3105
  609MOL0     C82123   3.395   1.639   3.580 -0.0981 -0.5075  0.1649
  609MOL0     C82124   3.522   1.556   3.559  0.3111 -0.3086 -0.0010
  609MOL0    Cl82125   3.473   1.389   3.537  0.1280 -0.2721 -0.0065
  609MOL0     C82126   3.165   1.818   4.263  0.4683  0.0131  0.0372
  609MOL0     C82127   3.283   1.839   4.333  0.2983 -0.2132  0.0952
  609MOL0     O82128   3.435   2.043   4.492  0.0521  0.7257 -0.2042
  609MOL0     C82129   3.548   1.883   4.778  0.1578  0.3173 -0.1293
  609MOL0     C82130   3.645   1.891   4.878  0.0602 -0.9316 -0.0190
  609MOL0     N82131   4.519   1.893   5.052 -0.3094 -0.1382  0.6643
  609MOL0     N82132   4.629   1.946   5.095 -0.5213  0.4136 -0.3239
  609MOL0     C82133   5.697   2.264   4.637  0.4972  0.6937 -0.3841
  609MOL0     C82134   5.829   2.278   4.603 -0.0045  0.5646  0.5171
  609MOL0     C82135   6.255   2.198   4.555  0.1535  0.1961  0.1634
  609MOL0     C82136   6.283   2.293   4.458 -0.9631 -0.1067 -0.9597
  609MOL0     C82137   6.411   2.360   4.473  0.1785  0.2738 -0.7136
  609MOL0     C82138   6.504   2.334   4.580 -0.5166 -0.0515  0.0934
  609MOL0     O82139   6.632   2.396   4.571  0.0790  0.5887  0.4366
  609MOL0     C82140   6.738   2.359   4.660 -0.1000 -0.3676 -0.4908
  609MOL0     C82141   6.861   2.448   4.636  0.1497 -0.0908  0.5292
  609MOL0     C82142   6.824   2.583   4.590  0.5178  0.0720  0.9169
  609MOL0     C82143   6.943   2.664   4.574  0.2526 -0.1124  0.2355
  609MOL0     C82144   6.906   2.805   4.564  0.7719 -0.9389 -0.4867
  609MOL0     C82145   6.853   2.912   4.583 -0.2024 -0.5425 -0.7295
  609MOL0     C82146   6.466   2.238   4.673 -0.6232 -0.6046  0.8382
  609MOL0     C82147   6.339   2.183   4.668  0.7815  0.9316 -0.3320
  609MOL0     H82148   5.882   2.010   4.410 -0.6408 -0.2200 -0.0577
  609MOL0     H82149   5.632   1.989   4.449  0.5250  0.0357 -1.0688
  609MOL0     H82150   5.457   2.278   4.745  1.8931 -0.1665 -0.0294
  609MOL0     H82151   5.445   2.308   4.577  1.9658  1.1266  0.8492
  609MOL0     H82152   5.241   2.197   4.553 -0.2007 -0.7706  0.4378
  609MOL0     H82153   5.261   2.087   4.689 -0.6298  0.5915  0.4722
  609MOL0     H82154   5.230   2.275   4.860 -1.9233  2.1186  0.8121
  609MOL0     H82155   5.158   2.370   4.725  0.8103 -0.0921  0.4945
  609MOL0     H82156   5.019   2.170   4.687  2.1983 -2.0228  0.1528
  609MOL0     H82157   5.097   2.101   4.829 -2.0522 -1.2727  0.4524
  609MOL0     H82158   4.999   2.345   4.950 -0.2125 -1.3979  1.5408
  609MOL0     H82159   4.886   2.322   4.816  2.8666  2.0300 -0.8900
  609MOL0     H82160   4.813   2.111   4.910 -0.8681  1.3544  0.0409
  609MOL0     H82161   4.934   2.120   5.032 -0.9627  0.5166  2.2020
  609MOL0     H82162   4.831   2.351   5.100 -0.5665  2.0595 -0.9192
  609MOL0     H82163   4.706   2.313   4.987  2.0663  1.4694  0.1750
  609MOL0     H82164   4.645   2.250   5.224 -1.1430  0.3090 -0.5506
  609MOL0     H82165   4.784   2.144   5.223  0.3061  0.4920  0.1128
  609MOL0     H82166   4.447   2.214   5.055  1.1046  0.5474  0.5745
  609MOL0     H82167   4.277   2.015   4.878 -2.0881 -0.8367 -0.4301
  609MOL0     H82168   4.254   1.870   4.973 -1.2271  0.9875 -0.4158
  609MOL0     H82169   4.183   2.153   5.068  2.9155 -0.1183  0.5685
  609MOL0     H82170   4.227   2.016   5.180  1.3355 -2.2911 -0.3013
  609MOL0     H82171   4.000   2.024   5.158 -0.4407  0.1388 -0.4009
  609MOL0     H82172   4.077   1.878   5.086  2.6686  0.2052 -1.5885
  609MOL0     H82173   4.026   1.961   4.860 -1.2712  0.0241 -1.1601
  609MOL0     H82174   3.981   2.113   4.946  3.4965 -0.4652  1.7810
  609MOL0     H82175   3.888   2.074   4.724 -0.9578  0.3086 -1.5854
  609MOL0     H82176   3.830   2.118   4.491  0.3992  0.2408  2.3627
  609MOL0     H82177   3.671   2.063   4.420  1.8914 -2.0648 -1.2158
  609MOL0     H82178   3.682   2.210   4.508 -1.9069 -0.1977 -3.9456
  609MOL0     H82179   3.161   1.778   4.639 -0.4336  0.0634  0.3301
  609MOL0     H82180   2.939   1.764   4.510  0.1628  0.6372  1.6052
  609MOL0     H82181   2.799   1.757   4.099 -0.6815  1.1926  0.3125
  609MOL0     H82182   2.938   1.866   4.095 -1.6427  1.0705  2.0599
  609MOL0     H82183   3.074   1.619   4.106 -0.3342  1.2125  2.6907
  609MOL0     H82184   2.928   1.558   4.054 -1.9881  0.2430  0.6065
  609MOL0     H82185   3.045   1.788   3.899 -0.1880 -0.2884  4.6018
  609MOL0     H82186   2.931   1.662   3.835 -0.5390  0.4125 -0.8431
  609MOL0     H82187   3.216   1.610   3.934  0.0684  0.1338  0.3245
  609MOL0     H82188   3.118   1.493   3.849  1.0140  0.0033  0.2526
  609MOL0     H82189   3.230   1.757   3.749  2.5057 -1.3005  0.0215
  609MOL0     H82190   3.125   1.646   3.645  0.5534 -3.4926 -0.1198
  609MOL0     H82191   3.385   1.574   3.780  1.9378 -1.4091 -1.3134
  609MOL0     H82192   3.285   1.471   3.678 -3.7582  0.5672 -0.3870
  609MOL0     H82193   3.430   1.737   3.612  0.8183 -1.4883  2.3848
  609MOL0     H82194   3.334   1.646   3.489  3.1735  2.5829 -2.0957
  609MOL0     H82195   3.595   1.561   3.640 -0.3754 -0.0746  0.6081
  609MOL0     H82196   3.574   1.591   3.469  0.9182 -1.3690 -0.0798
  609MOL0     H82197   3.168   1.822   4.154 -0.4284 -3.0598 -0.1933
  609MOL0     H82198   3.382   1.860   4.293  0.4717 -0.1331  0.5671
  609MOL0     H82199   3.451   1.842   4.801 -2.9249  6.5416  0.0980
  609MOL0     H82200   3.618   1.838   4.968  1.8671 -1.2866  0.3572
  609MOL0     H82201   5.654   2.330   4.713  2.3887 -1.6334  2.9359
  609MOL0     H82202   5.896   2.349   4.649 -1.4543  0.8707  2.2505
  609MOL0     H82203   6.219   2.303   4.371 -1.9769 -1.8536 -0.4750
  609MOL0     H82204   6.458   2.432   4.406 -3.6027  2.3206 -1.4128
  609MOL0     H82205   6.707   2.363   4.765  1.0119 -0.0159 -0.1585
  609MOL0     H82206   6.760   2.253   4.646  0.3242 -0.1053 -2.0562
  609MOL0     H82207   6.928   2.407   4.560 -1.6147  0.7747 -1.6038
  609MOL0     H82208   6.916   2.457   4.730  1.9361 -2.2652 -0.2245
  609MOL0     H82209   6.748   2.624   4.657  1.3499 -1.2179  2.7246
  609MOL0     H82210   6.766   2.583   4.497  0.7701  0.2961  0.7576
  609MOL0     H82211   7.010   2.626   4.496  0.6352  0.0630  0.4744
  609MOL0     H82212   7.011   2.663   4.659  0.5154  0.3752  0.0368
  609MOL0     H82213   6.808   3.005   4.612 -3.1659 -1.2055 -2.7024
  609MOL0     H82214   6.527   2.196   4.752 -1.8188 -0.5325  1.8436
  609MOL0     H82215   6.313   2.107   4.741  1.5517 -0.7059 -1.6806
  610MOL0     O82216   2.819   0.953   0.568  0.3650 -0.2215 -0.2527
  610MOL0     C82217   2.915   0.983   0.506 -0.4036  0.1404  0.2040
  610MOL0     O82218   2.921   1.049   0.384  0.4876 -0.7862 -0.3052
  610MOL0     C82219   2.795   1.093   0.332 -0.5719  0.5380  0.3649
  610MOL0     C82220   2.696   1.157   0.409  0.0068 -0.2195  0.3139
  610MOL0     C82221   2.587   1.208   0.335  0.0903 -0.3710 -0.2327
  610MOL0     C82222   2.567   1.201   0.195 -0.9266 -0.3773  0.5124
  610MOL0     O82223   2.473   1.274   0.126 -0.5147  0.2217  0.5669
  610MOL0     C82224   2.368   1.313   0.199  0.4349 -0.1049 -0.1454
  610MOL0     C82225   2.248   1.361   0.114 -0.1209  0.1944 -0.5335
  610MOL0     C82226   2.133   1.415   0.198 -0.1275 -0.0885 -0.7398
  610MOL0     C82227   2.160   1.530   0.302  0.3343 -0.6260 -0.5625
  610MOL0     C82228   2.029   1.565   0.381 -0.5134  0.6677  0.7000
  610MOL0     C82229   1.907   1.605   0.306  0.6468 -0.4062 -0.1530
  610MOL0     C82230   1.794   1.660   0.386 -0.2699 -0.5029 -0.5064
  610MOL0     C82231   1.754   1.569   0.513 -0.9769 -0.4503 -0.6143
  610MOL0     N82232   1.630   1.625   0.554  0.1897 -0.2895 -0.6896
  610MOL0     C82233   1.623   1.701   0.673  0.2790  0.5858 -0.2421
  610MOL0     C82234   1.492   1.706   0.708 -0.1215 -0.0938  0.4931
  610MOL0     C82235   1.436   1.771   0.836  0.7637 -0.1899 -0.1180
  610MOL0     C82236   1.387   1.916   0.822  0.0079  0.3348  0.3638
  610MOL0     C82237   1.304   1.952   0.693 -0.0374 -0.4695 -0.0921
  610MOL0     C82238   1.176   1.875   0.686 -0.1519  0.6215  0.3213
  610MOL0     O82239   1.080   1.948   0.602 -0.1530  0.5648 -0.0358
  610MOL0     C82240   0.959   1.893   0.575  0.5684 -0.2150  0.4290
  610MOL0     C82241   0.911   1.777   0.633 -0.2787  0.2722 -0.3759
  610MOL0     C82242   0.776   1.724   0.624 -0.3672 -0.5305 -0.8454
  610MOL0     C82243   0.753   1.589   0.684 -0.3143  0.5202 -0.0591
  610MOL0     C82244   0.681   1.801   0.542  0.2483  0.0633  0.0045
  610MOL0     C82245   0.534   1.771   0.525  0.8061 -0.4067  0.1616
  610MOL0     O82246   0.467   1.834   0.424  0.1287  0.4958  0.0633
  610MOL0     C82247   0.334   1.806   0.395 -0.2301 -0.2480  0.3845
  610MOL0     C82248   0.285   1.890   0.291  0.0519  0.8533  0.3667
  610MOL0     C82249   0.164   1.864   0.217  0.0065 -0.1394  0.5082
  610MOL0     C82250   0.078   1.761   0.252 -0.5387  0.9505 -0.1694
  610MOL0     O82251  -0.047   1.747   0.194  0.0624 -0.1952 -0.0009
  610MOL0     C82252  -0.060   1.637   0.095  0.0169 -0.1820 -1.0864
  610MOL0     C82253  -0.205   1.590   0.082  0.6225 -0.4225 -0.8107
  610MOL0     C82254  -0.216   1.496  -0.034 -0.3745 -0.5464 -1.0092
  610MOL0     C82255  -0.332   1.400  -0.026 -0.2617 -0.1711 -0.0580
  610MOL0     C82256  -0.465   1.483  -0.050  0.5282  0.2229  0.4556
  610MOL0     C82257  -0.583   1.470   0.045 -0.6711  0.5638  0.0689
  610MOL0     C82258  -0.650   1.337   0.072  0.7177  0.8100  0.5308
  610MOL0     C82259  -0.681   1.254  -0.044  0.0549  0.4557 -0.1549
  610MOL0    Cl82260  -0.752   1.352  -0.172 -0.4500  0.1794 -0.3136
  610MOL0     C82261   0.116   1.689   0.369  0.5407 -0.2136 -0.2243
  610MOL0     C82262   0.240   1.707   0.435  0.9246  0.5448  0.2332
  610MOL0     O82263   0.482   1.700   0.610 -0.3587 -0.2077 -0.1832
  610MOL0     C82264   0.729   1.920   0.471  0.3992 -1.3501  0.2419
  610MOL0     C82265   0.868   1.955   0.486  0.1194  0.7600 -0.4100
  610MOL0     N82266   1.415   1.634   0.620  0.2507  0.0241  0.6326
  610MOL0     N82267   1.500   1.588   0.523  0.0084 -0.1842 -0.1199
  610MOL0     C82268   2.675   1.135   0.126 -0.6989 -0.7384 -0.2995
  610MOL0     C82269   2.780   1.076   0.194  0.0633  0.6917  0.8227
  610MOL0     C82270   3.040   0.924   0.562  0.5772  0.1959 -0.6614
  610MOL0     C82271   3.152   0.908   0.483 -0.2575  0.0903  0.1152
  610MOL0     C82272   3.269   0.845   0.535  0.0855 -0.4154  0.2582
  610MOL0     C82273   3.272   0.784   0.663 -0.8833  0.2991  0.2888
  610MOL0     O82274   3.377   0.706   0.701  0.1032  0.7314  0.3291
  610MOL0     C82275   3.380   0.612   0.805  0.6743  0.3446  0.6404
  610MOL0     C82276   3.493   0.517   0.766 -0.3935 -0.2247 -0.0191
  610MOL0     C82277   3.639   0.575   0.770 -0.7667  0.0009 -0.7477
  610MOL0     C82278   3.752   0.467   0.774  0.3083  0.0271 -0.2954
  610MOL0     C82279   3.897   0.511   0.769  0.2887 -0.3126  0.6056
  610MOL0     C82280   4.016   0.547   0.765  0.7407 -0.0707  0.0367
  610MOL0     C82281   3.164   0.798   0.748 -0.3402 -0.7323 -0.2310
  610MOL0     C82282   3.048   0.874   0.701  0.2177  0.9208 -0.4767
  610MOL0     H82283   2.682   1.157   0.517  1.6500  0.1679  0.5422
  610MOL0     H82284   2.517   1.266   0.395  0.3047 -1.7497  1.3968
  610MOL0     H82285   2.332   1.230   0.261  0.6864 -0.9655 -1.1173
  610MOL0     H82286   2.402   1.393   0.265 -0.5820  1.9857 -2.0297
  610MOL0     H82287   2.275   1.442   0.046 -2.7649  1.0803 -0.6169
  610MOL0     H82288   2.221   1.280   0.047  0.2519  1.3271 -2.1215
  610MOL0     H82289   2.067   1.456   0.120  0.6946 -0.3456 -1.5972
  610MOL0     H82290   2.091   1.332   0.255  4.9392 -0.6769  2.8127
  610MOL0     H82291   2.233   1.500   0.377 -1.8104 -2.3610  0.9582
  610MOL0     H82292   2.200   1.620   0.254  2.3104 -1.0556  0.1840
  610MOL0     H82293   2.002   1.479   0.443  1.4278 -0.8430 -0.4345
  610MOL0     H82294   2.064   1.647   0.445  1.4586  1.0758 -0.7874
  610MOL0     H82295   1.943   1.682   0.237 -0.1114  1.1215  1.0796
  610MOL0     H82296   1.874   1.515   0.254 -1.4408  0.7476 -0.9810
  610MOL0     H82297   1.808   1.766   0.408  1.2954 -0.0620 -3.2029
  610MOL0     H82298   1.704   1.664   0.324 -0.4726 -1.5293 -0.3075
  610MOL0     H82299   1.840   1.584   0.579 -0.9547  1.6484 -1.0690
  610MOL0     H82300   1.737   1.464   0.486 -0.7296 -1.0307  1.3585
  610MOL0     H82301   1.709   1.750   0.719  0.1095 -0.4424  1.2480
  610MOL0     H82302   1.348   1.711   0.861  1.4242 -1.2878 -0.3270
  610MOL0     H82303   1.508   1.770   0.919 -1.5320  0.8398  2.0185
  610MOL0     H82304   1.473   1.984   0.825 -1.2686  2.0508 -0.3532
  610MOL0     H82305   1.330   1.933   0.914 -0.6485  1.6147 -0.2621
  610MOL0     H82306   1.357   1.926   0.601  1.5607  2.0046  0.0531
  610MOL0     H82307   1.283   2.059   0.696  1.5296 -0.1601  1.8967
  610MOL0     H82308   1.131   1.861   0.784 -0.4928  0.2631  0.1170
  610MOL0     H82309   1.194   1.773   0.653 -0.0436  1.5226 -2.7364
  610MOL0     H82310   0.990   1.726   0.687  0.7887  0.0143 -2.0790
  610MOL0     H82311   0.849   1.539   0.699 -0.5094 -0.1038 -0.8409
  610MOL0     H82312   0.700   1.603   0.779  0.2554 -0.2020  0.3821
  610MOL0     H82313   0.693   1.519   0.626  0.9073 -2.2501  1.7957
  610MOL0     H82314   0.352   1.968   0.256 -1.9064  2.7276  0.6059
  610MOL0     H82315   0.129   1.918   0.129  1.5368  0.8051  0.4344
  610MOL0     H82316  -0.030   1.689   0.003 -3.1289  1.1732 -1.4919
  610MOL0     H82317   0.007   1.553   0.112 -2.5459 -2.2239 -0.3709
  610MOL0     H82318  -0.224   1.544   0.179  3.8345 -0.6048 -0.1602
  610MOL0     H82319  -0.272   1.676   0.082  0.0204 -0.8150  1.5489
  610MOL0     H82320  -0.124   1.438  -0.020  0.6312  1.2087  0.0123
  610MOL0     H82321  -0.223   1.552  -0.128  0.0169 -3.2855 -2.7798
  610MOL0     H82322  -0.337   1.317  -0.098 -2.0179  0.7656 -1.0986
  610MOL0     H82323  -0.323   1.367   0.077  5.3006  1.8028  0.4114
  610MOL0     H82324  -0.489   1.446  -0.150  2.4747 -2.2726  0.8165
  610MOL0     H82325  -0.447   1.590  -0.064  0.2704 -0.0906 -3.3538
  610MOL0     H82326  -0.541   1.506   0.139 -0.5352  0.5073  0.0304
  610MOL0     H82327  -0.658   1.541   0.010 -1.4594 -0.2606  0.0693
  610MOL0     H82328  -0.744   1.363   0.121  1.4963  1.5391  1.7151
  610MOL0     H82329  -0.593   1.271   0.139  1.1862  0.0745 -0.5762
  610MOL0     H82330  -0.752   1.173  -0.027  1.2493 -0.7211 -0.5978
  610MOL0     H82331  -0.590   1.215  -0.091 -0.4476 -0.3352 -0.4761
  610MOL0     H82332   0.043   1.623   0.414 -0.5398  1.0929  0.0069
  610MOL0     H82333   0.264   1.640   0.516 -0.0688 -2.0676 -1.4839
  610MOL0     H82334   0.664   1.969   0.399 -0.9015  0.7046  2.6538
  610MOL0     H82335   0.907   2.044   0.437 -0.9944  2.1491  1.1152
  610MOL0     H82336   2.666   1.132   0.018  1.0684 -4.6518 -0.4959
  610MOL0     H82337   2.858   1.033   0.132  0.3517  1.1740  0.8458
  610MOL0     H82338   3.148   0.945   0.381  1.6750  0.5123  0.1573
  610MOL0     H82339   3.355   0.816   0.475  0.8608  1.5704  0.3209
  610MOL0     H82340   3.411   0.673   0.890  1.2351  2.4731 -1.0329
  610MOL0     H82341   3.282   0.566   0.823  0.3364  1.1137  0.8126
  610MOL0     H82342   3.468   0.496   0.662 -0.3017  0.6625 -0.2343
  610MOL0     H82343   3.500   0.424   0.823 -0.5396 -0.7174 -0.7908
  610MOL0     H82344   3.646   0.637   0.860  2.5063 -0.3604 -0.6328
  610MOL0     H82345   3.659   0.643   0.687  0.6531  0.6732  0.1041
  610MOL0     H82346   3.720   0.397   0.697 -2.2889 -0.5780  1.1936
  610MOL0     H82347   3.740   0.421   0.873  0.2775  1.6472  0.4978
  610MOL0     H82348   4.111   0.587   0.739  1.2357 -1.4998 -0.4233
  610MOL0     H82349   3.175   0.762   0.850 -0.4759  2.1161  0.8927
  610MOL0     H82350   2.972   0.897   0.775 -0.3376 -1.1930 -0.3139
  611MOL0     O82351   7.743   2.582   4.765  0.0332 -0.2672 -0.4714
  611MOL0     C82352   7.778   2.600   4.649 -0.3665 -0.4748  0.0028
  611MOL0     O82353   7.730   2.545   4.539 -0.3474 -0.4377 -0.4001
  611MOL0     C82354   7.630   2.451   4.549 -0.7304  0.3396  0.2694
  611MOL0     C82355   7.662   2.311   4.548 -0.2740  0.2055  0.0739
  611MOL0     C82356   7.559   2.214   4.540  0.2771 -0.4475  0.4845
  611MOL0     C82357   7.422   2.252   4.540  0.0302 -0.1428 -0.2642
  611MOL0     O82358   7.326   2.153   4.524 -0.1348 -0.5082 -1.3763
  611MOL0     C82359   7.200   2.160   4.597  0.1568 -0.8156 -0.7760
  611MOL0     C82360   7.124   2.038   4.556 -0.0495 -1.2605 -0.2300
  611MOL0     C82361   6.979   2.063   4.575 -0.1411 -0.5287 -0.0408
  611MOL0     C82362   6.901   1.934   4.552 -0.3614  0.2271  0.6033
  611MOL0     C82363   6.748   1.958   4.569 -0.0306 -0.7760 -0.3514
  611MOL0     C82364   6.667   1.835   4.577 -0.2554  0.4460  0.3859
  611MOL0     C82365   6.539   1.853   4.656  0.4373  0.4401 -0.6350
  611MOL0     C82366   6.483   1.709   4.670  0.4060  0.4748  0.9794
  611MOL0     N82367   6.338   1.701   4.701 -0.5461  0.8641  0.8935
  611MOL0     C82368   6.246   1.706   4.606 -0.3391 -0.1558 -0.3143
  611MOL0     C82369   6.128   1.705   4.674 -0.6996 -0.0077  0.5566
  611MOL0     C82370   5.990   1.696   4.627  0.5157  0.0616  0.0343
  611MOL0     C82371   5.888   1.782   4.703 -0.2283  0.4205  0.2660
  611MOL0     C82372   5.745   1.724   4.699 -0.2361  0.5295 -0.1585
  611MOL0     C82373   5.660   1.784   4.811 -0.3276 -0.5086 -0.0587
  611MOL0     O82374   5.534   1.717   4.817  0.3886 -0.0480 -0.5582
  611MOL0     C82375   5.418   1.757   4.754 -0.5688 -0.5468  0.6163
  611MOL0     C82376   5.416   1.800   4.616 -0.4045  0.2575  0.2095
  611MOL0     C82377   5.286   1.824   4.554  0.0928 -0.3291 -0.5725
  611MOL0     C82378   5.282   1.856   4.406 -0.2681 -0.8310  0.2076
  611MOL0     C82379   5.168   1.810   4.632  0.6573  0.3143 -0.7406
  611MOL0     C82380   5.027   1.852   4.585 -0.8669 -0.4902 -0.3338
  611MOL0     O82381   4.926   1.775   4.637  0.4858  0.3014 -0.0186
  611MOL0     C82382   4.795   1.816   4.611  0.1880  0.5454 -0.1313
  611MOL0     C82383   4.714   1.805   4.727 -0.2631  0.5754 -0.1095
  611MOL0     C82384   4.576   1.819   4.718 -0.1677 -0.0567 -0.2549
  611MOL0     C82385   4.520   1.863   4.596 -0.2130  1.2392 -0.3538
  611MOL0     O82386   4.390   1.874   4.570  0.5346  0.8471  0.3163
  611MOL0     C82387   4.298   1.778   4.635 -0.3035  0.5144 -0.8466
  611MOL0     C82388   4.150   1.808   4.605 -0.4379 -0.6631  0.8159
  611MOL0     C82389   4.138   1.838   4.450  0.7006  0.1098  0.4570
  611MOL0     C82390   3.993   1.872   4.406 -0.4874  1.3366  0.2448
  611MOL0     C82391   3.975   1.864   4.255  0.1267  0.5826 -0.2396
  611MOL0     C82392   3.827   1.870   4.210 -0.1706 -0.1777 -0.9618
  611MOL0     C82393   3.816   1.834   4.055 -0.5794  0.4190 -0.8559
  611MOL0     C82394   3.671   1.852   4.009  0.1758 -0.0646 -0.0432
  611MOL0    Cl82395   3.553   1.713   4.074  0.1544 -0.3665  0.0297
  611MOL0     C82396   4.608   1.864   4.485  0.9809 -0.0501 -0.3579
  611MOL0     C82397   4.736   1.843   4.491 -0.8937 -0.6598 -1.2909
  611MOL0     O82398   5.020   1.940   4.502 -0.5589 -0.2699  0.7063
  611MOL0     C82399   5.186   1.779   4.769  0.8449 -1.0638  0.8801
  611MOL0     C82400   5.306   1.766   4.835  1.0191  0.5768 -0.2759
  611MOL0     N82401   6.166   1.689   4.809 -0.4432 -0.0288  0.7831
  611MOL0     N82402   6.292   1.694   4.822 -0.2250  0.2486 -0.0316
  611MOL0     C82403   7.394   2.385   4.548  0.0023 -0.7579  0.2566
  611MOL0     C82404   7.496   2.479   4.538  0.5326 -0.5210 -0.8454
  611MOL0     C82405   7.889   2.691   4.635  0.0149 -0.0565  0.7247
  611MOL0     C82406   7.922   2.751   4.510  0.2832 -0.4906 -1.1162
  611MOL0     C82407   8.014   2.855   4.501 -1.6156  0.7043 -1.1831
  611MOL0     C82408   8.089   2.892   4.614  0.2597  0.4022 -0.3662
  611MOL0     O82409   8.172   3.006   4.602  1.1690 -0.3862  0.0482
  611MOL0     C82410   8.238   3.073   4.712 -0.3113 -0.0615 -0.5297
  611MOL0     C82411   8.162   3.181   4.770 -0.4528  0.1718 -0.3207
  611MOL0     C82412   8.232   3.261   4.881  0.2975 -0.7395 -0.3087
  611MOL0     C82413   8.305   3.391   4.836  0.0586  0.1384  0.0491
  611MOL0     C82414   8.374   3.452   4.947  0.2257  0.3045  0.1048
  611MOL0     C82415   8.425   3.496   5.040 -0.0209 -0.1035 -0.8809
  611MOL0     C82416   8.071   2.825   4.729  0.0491  0.1163  0.0278
  611MOL0     C82417   7.973   2.725   4.742  0.7311 -0.4408 -0.4184
  611MOL0     H82418   7.765   2.275   4.556  0.0446  0.4297 -2.2954
  611MOL0     H82419   7.591   2.111   4.532  1.5482 -0.0454  0.1456
  611MOL0     H82420   7.215   2.174   4.704 -1.3208  0.4936 -0.7083
  611MOL0     H82421   7.147   2.246   4.555  1.1808 -0.0032 -0.4284
  611MOL0     H82422   7.147   2.018   4.451  0.1060  2.2426 -0.9654
  611MOL0     H82423   7.165   1.953   4.613  0.1171  0.1700  1.8988
  611MOL0     H82424   6.951   2.093   4.677  1.2229  0.9849 -0.0605
  611MOL0     H82425   6.949   2.141   4.504  2.2211  0.4530 -0.0693
  611MOL0     H82426   6.916   1.899   4.449 -1.9189  0.7258  0.1748
  611MOL0     H82427   6.934   1.857   4.623  0.3751 -0.5340 -0.5257
  611MOL0     H82428   6.727   2.013   4.661 -3.0169 -1.3833 -0.5797
  611MOL0     H82429   6.712   2.022   4.488 -0.3899  2.0342  1.8909
  611MOL0     H82430   6.656   1.795   4.475  0.0678 -1.4736  1.0584
  611MOL0     H82431   6.725   1.755   4.626 -3.1322 -1.1807  1.3394
  611MOL0     H82432   6.552   1.901   4.753 -1.1359 -1.8988  0.8541
  611MOL0     H82433   6.471   1.917   4.598  0.1403  0.7904  0.0971
  611MOL0     H82434   6.524   1.654   4.756 -0.1308 -1.7775 -0.1543
  611MOL0     H82435   6.499   1.655   4.577 -1.6034  1.2227  0.1570
  611MOL0     H82436   6.256   1.715   4.499 -0.2720 -1.5703 -0.4510
  611MOL0     H82437   5.982   1.729   4.523  0.8509 -1.9820 -0.6893
  611MOL0     H82438   5.962   1.594   4.657  0.0604  0.8041  2.3971
  611MOL0     H82439   5.898   1.885   4.668  2.6384  1.0585  2.5899
  611MOL0     H82440   5.921   1.772   4.807 -1.5186 -0.4053  0.6254
  611MOL0     H82441   5.743   1.615   4.696 -0.0502  0.5273 -0.2176
  611MOL0     H82442   5.708   1.764   4.605 -1.7251  2.3059  1.1175
  611MOL0     H82443   5.649   1.892   4.801  0.2423 -0.2230  2.0501
  611MOL0     H82444   5.705   1.763   4.908  0.0005 -3.3596 -0.7125
  611MOL0     H82445   5.505   1.779   4.558 -0.3842 -0.3650  0.4516
  611MOL0     H82446   5.378   1.830   4.361  1.0523  2.5659  0.7217
  611MOL0     H82447   5.199   1.801   4.361 -0.8795  0.7791 -0.6984
  611MOL0     H82448   5.263   1.962   4.389 -0.3932 -0.7380  0.8976
  611MOL0     H82449   4.762   1.771   4.818 -1.3890 -1.2338 -0.1450
  611MOL0     H82450   4.523   1.810   4.812  0.5897 -0.9993  0.1024
  611MOL0     H82451   4.311   1.676   4.597 -0.0578  0.3911 -0.4439
  611MOL0     H82452   4.304   1.770   4.744 -1.3792  1.1578 -0.7234
  611MOL0     H82453   4.077   1.731   4.635 -1.6492  0.0044 -0.2873
  611MOL0     H82454   4.109   1.896   4.656 -2.2566  0.3507 -2.1357
  611MOL0     H82455   4.161   1.741   4.405 -3.8666  0.3626 -3.2758
  611MOL0     H82456   4.206   1.918   4.421  0.3074 -1.0254 -4.4770
  611MOL0     H82457   3.932   1.790   4.446 -1.3841  0.8566 -1.9874
  611MOL0     H82458   3.966   1.971   4.445 -0.9305  1.1137  0.5219
  611MOL0     H82459   4.010   1.765   4.223 -0.8234  0.0004  0.4770
  611MOL0     H82460   4.023   1.946   4.201 -3.6258  2.0855 -1.6777
  611MOL0     H82461   3.773   1.803   4.277 -0.9666  2.1989  0.9206
  611MOL0     H82462   3.786   1.969   4.232  1.1894 -0.2543  2.5748
  611MOL0     H82463   3.858   1.734   4.043  0.0750 -0.2348  4.4208
  611MOL0     H82464   3.877   1.911   4.006  1.0383 -1.0716 -1.2942
  611MOL0     H82465   3.660   1.855   3.900  0.1396  0.6916 -0.0245
  611MOL0     H82466   3.650   1.950   4.053  3.4108  0.0399  1.5835
  611MOL0     H82467   4.565   1.899   4.391 -1.3622 -0.4200  0.4964
  611MOL0     H82468   4.800   1.842   4.403  1.6187  2.4521  0.2923
  611MOL0     H82469   5.090   1.772   4.819  0.0343  0.4544 -0.3800
  611MOL0     H82470   5.313   1.739   4.940  3.4425 -1.9896 -0.9575
  611MOL0     H82471   7.289   2.413   4.542  0.4208  0.6124 -1.6030
  611MOL0     H82472   7.472   2.584   4.529  2.1258 -0.0187  0.2220
  611MOL0     H82473   7.863   2.717   4.425  0.0186 -1.1273 -0.6818
  611MOL0     H82474   8.035   2.902   4.405  1.2862  0.9810 -0.5054
  611MOL0     H82475   8.273   3.012   4.796  1.8894  1.9375  0.1269
  611MOL0     H82476   8.330   3.118   4.672 -0.1063 -0.0282 -0.0419
  611MOL0     H82477   8.070   3.140   4.812 -0.9033 -3.0563 -3.8660
  611MOL0     H82478   8.151   3.250   4.685  0.9365  0.4645 -0.2737
  611MOL0     H82479   8.296   3.188   4.932  0.2780 -2.2882 -2.3610
  611MOL0     H82480   8.153   3.286   4.952 -3.8864 -1.0562 -4.4016
  611MOL0     H82481   8.228   3.464   4.809 -1.1655  0.2271  3.3386
  611MOL0     H82482   8.374   3.373   4.753 -1.4809 -0.7279 -1.1078
  611MOL0     H82483   8.461   3.530   5.136  2.2352 -1.1447 -1.2813
  611MOL0     H82484   8.131   2.861   4.812 -0.1953 -0.6536  0.5484
  611MOL0     H82485   7.972   2.684   4.843 -1.5267 -1.3566 -0.7578
  612MOL0     O82486  10.501   6.492   5.293 -0.0400  0.0638  0.2359
  612MOL0     C82487  10.464   6.521   5.181 -0.7156  0.3845  0.2769
  612MOL0     O82488  10.537   6.571   5.078  0.1649  0.3878  0.3048
  612MOL0     C82489  10.671   6.582   5.088  0.0462  0.1273 -0.3721
  612MOL0     C82490  10.752   6.491   5.155  0.5820  1.0775  0.1106
  612MOL0     C82491  10.889   6.503   5.143 -0.1295  0.0204  0.6863
  612MOL0     C82492  10.952   6.609   5.080  1.0397 -0.5906  0.7934
  612MOL0     O82493  11.089   6.616   5.088 -0.3220  0.6368  0.5293
  612MOL0     C82494  11.151   6.719   5.014 -0.5160  0.4936  0.1299
  612MOL0     C82495  11.296   6.666   5.002 -0.0750 -0.9090 -0.7895
  612MOL0     C82496  11.388   6.772   4.941 -0.8625 -0.5989 -0.5124
  612MOL0     C82497  11.447   6.852   5.053  0.3187 -0.3465  0.1908
  612MOL0     C82498  11.556   6.946   5.011  0.4537 -0.2367 -0.3422
  612MOL0     C82499  11.690   6.871   4.989  0.6145 -0.1303 -0.4963
  612MOL0     C82500  11.786   6.970   4.922  0.1945 -0.6019  0.0030
  612MOL0     C82501  11.857   7.069   5.023  0.4570  0.0870 -0.6563
  612MOL0     N82502  11.942   7.167   4.966 -0.8440  0.1939  0.6922
  612MOL0     C82503  11.919   7.310   4.970 -0.0383 -0.3468 -0.3848
  612MOL0     C82504  12.027   7.367   4.929  0.0443 -0.4510 -0.2873
  612MOL0     C82505  12.058   7.510   4.923  0.0950  0.6394 -0.2578
  612MOL0     C82506  11.979   7.574   4.815  0.7860 -0.1458  0.0255
  612MOL0     C82507  12.038   7.700   4.755 -0.0227  1.0799 -0.2341
  612MOL0     C82508  12.002   7.731   4.611 -0.0046 -0.0675 -0.4362
  612MOL0     O82509  11.863   7.751   4.602  1.1326  0.2887  0.6326
  612MOL0     C82510  11.793   7.794   4.489  0.7373  0.4625 -0.5596
  612MOL0     C82511  11.658   7.823   4.516 -1.0319 -0.4322  0.2972
  612MOL0     C82512  11.578   7.868   4.407  1.3331  1.0062 -0.4877
  612MOL0     C82513  11.440   7.901   4.452 -0.2170 -1.2855 -0.0938
  612MOL0     C82514  11.621   7.864   4.273 -0.2368 -0.1914  0.3219
  612MOL0     C82515  11.527   7.895   4.161 -0.3079 -0.0127  0.4614
  612MOL0     O82516  11.581   7.982   4.069  0.4991  0.2414 -0.0146
  612MOL0     C82517  11.515   7.999   3.949 -0.2123  0.3851 -0.4153
  612MOL0     C82518  11.484   8.124   3.916  0.4134 -0.5912  0.3382
  612MOL0     C82519  11.427   8.160   3.792  1.0667 -0.9852  0.3814
  612MOL0     C82520  11.408   8.061   3.700 -0.6212 -1.0373  0.4631
  612MOL0     O82521  11.337   8.096   3.591  0.0060  0.7550  0.3211
  612MOL0     C82522  11.257   8.005   3.522 -1.0136 -0.3361 -0.0625
  612MOL0     C82523  11.186   8.072   3.414 -0.7638 -0.3550  1.0483
  612MOL0     C82524  11.073   8.154   3.463  0.5372  0.2954  0.3241
  612MOL0     C82525  11.001   8.237   3.361 -0.3998  0.1015 -0.0760
  612MOL0     C82526  11.078   8.360   3.315  0.2670  0.2478 -0.2820
  612MOL0     C82527  10.975   8.454   3.256  0.3861  0.2993  0.5342
  612MOL0     C82528  10.883   8.390   3.155 -0.0434  0.8219 -0.1378
  612MOL0     C82529  10.814   8.491   3.071  0.3959  0.2104  0.0708
  612MOL0    Cl82530  10.708   8.408   2.946  0.1657 -0.1173 -0.0454
  612MOL0     C82531  11.434   7.924   3.734  0.0612  0.6790  0.1045
  612MOL0     C82532  11.490   7.894   3.863 -0.0460  0.0238 -0.0180
  612MOL0     O82533  11.419   7.836   4.144 -0.3338  0.3956 -0.4818
  612MOL0     C82534  11.758   7.836   4.249 -0.1381 -1.0254  0.4213
  612MOL0     C82535  11.842   7.790   4.360  0.8471  0.0851 -0.2428
  612MOL0     N82536  12.119   7.265   4.895  0.3043 -0.4625  0.0862
  612MOL0     N82537  12.070   7.149   4.931 -0.1702  0.1022  0.4719
  612MOL0     C82538  10.865   6.710   5.016 -0.5202  1.1726  0.9570
  612MOL0     C82539  10.729   6.693   5.024  0.9394  0.0616 -0.0587
  612MOL0     C82540  10.324   6.507   5.134 -0.4194  0.7736  0.0253
  612MOL0     C82541  10.267   6.594   5.039 -0.0384 -0.5563 -0.2678
  612MOL0     C82542  10.134   6.590   5.013 -0.0269 -0.4878 -0.0483
  612MOL0     C82543  10.047   6.496   5.077 -0.7323  0.1026  0.3712
  612MOL0     O82544   9.909   6.500   5.067 -0.3789  0.0060 -0.1503
  612MOL0     C82545   9.850   6.379   5.012  0.1129  0.1087  1.8826
  612MOL0     C82546   9.696   6.397   5.025 -0.0759  0.9117  0.9540
  612MOL0     C82547   9.668   6.417   5.160 -0.2665 -0.0886 -0.6124
  612MOL0     C82548   9.522   6.407   5.199 -0.3525 -0.1624  0.0166
  612MOL0     C82549   9.439   6.515   5.140  0.1697  0.6648 -0.5171
  612MOL0     C82550   9.381   6.611   5.092  0.7842 -2.0554 -0.0180
  612MOL0     C82551  10.112   6.398   5.167 -0.0011  0.3366  1.0621
  612MOL0     C82552  10.250   6.406   5.197 -0.3738 -0.1255  0.1530
  612MOL0     H82553  10.716   6.404   5.210  0.9344  0.3598 -0.7688
  612MOL0     H82554  10.961   6.444   5.199  2.1032  1.7946 -0.1674
  612MOL0     H82555  11.105   6.733   4.916 -0.6437 -0.8761 -0.0266
  612MOL0     H82556  11.148   6.816   5.063  1.2093  0.9749 -0.6396
  612MOL0     H82557  11.327   6.638   5.103 -3.9408 -0.2257  0.7626
  612MOL0     H82558  11.302   6.575   4.941  0.5335 -0.5944 -1.2131
  612MOL0     H82559  11.467   6.711   4.895 -0.2778 -0.1777 -0.0902
  612MOL0     H82560  11.346   6.839   4.865 -0.9992  0.7795  0.7488
  612MOL0     H82561  11.363   6.911   5.092  0.2311  0.1731 -0.7558
  612MOL0     H82562  11.490   6.782   5.125  0.1827 -0.5918  0.0340
  612MOL0     H82563  11.520   6.993   4.919 -1.5395 -2.4393 -0.8093
  612MOL0     H82564  11.555   7.025   5.086 -1.2580 -0.6220  0.0845
  612MOL0     H82565  11.730   6.820   5.077  0.7361 -0.7892 -0.9216
  612MOL0     H82566  11.666   6.788   4.922  1.6414 -2.7443  2.1397
  612MOL0     H82567  11.862   6.903   4.880  1.7065  0.1914  1.3394
  612MOL0     H82568  11.727   7.019   4.844  0.2922 -1.4667 -0.6273
  612MOL0     H82569  11.912   7.003   5.090  0.7069 -1.5991 -2.4205
  612MOL0     H82570  11.769   7.124   5.059  1.2140  1.4902 -0.8736
  612MOL0     H82571  11.824   7.354   5.000  0.8318  1.6681 -0.4426
  612MOL0     H82572  12.030   7.558   5.017 -1.6791 -1.7389  0.5172
  612MOL0     H82573  12.167   7.509   4.915  0.3143 -2.4531  1.6336
  612MOL0     H82574  11.877   7.592   4.849 -0.3267 -2.7950 -1.5805
  612MOL0     H82575  11.962   7.504   4.733 -0.4390  0.3948 -0.1923
  612MOL0     H82576  12.144   7.706   4.782 -1.3495  0.3409  7.4624
  612MOL0     H82577  11.990   7.777   4.816  1.1374  0.7714  1.1199
  612MOL0     H82578  12.030   7.643   4.551  0.5709  0.3174 -0.7403
  612MOL0     H82579  12.063   7.815   4.577 -0.4090  0.2034 -0.4928
  612MOL0     H82580  11.636   7.811   4.622 -2.1604 -0.5005  0.0729
  612MOL0     H82581  11.427   7.922   4.558 -0.0418  0.3804 -0.3667
  612MOL0     H82582  11.403   7.991   4.402  1.3037 -0.8698 -0.5368
  612MOL0     H82583  11.368   7.821   4.432 -1.1753 -0.3330 -0.5906
  612MOL0     H82584  11.510   8.197   3.992  1.3469  0.0872 -0.6016
  612MOL0     H82585  11.412   8.264   3.767  1.0283 -0.4337  2.5157
  612MOL0     H82586  11.329   7.940   3.470  1.8811  2.1163  0.6046
  612MOL0     H82587  11.186   7.953   3.587 -1.2775  0.0928 -0.0098
  612MOL0     H82588  11.258   8.135   3.362 -2.2855  1.0201  0.5243
  612MOL0     H82589  11.153   7.997   3.341  0.5985  0.1392 -0.1135
  612MOL0     H82590  11.107   8.226   3.538  1.2952  2.4300 -1.9479
  612MOL0     H82591  11.006   8.095   3.527  1.2906  1.7407  2.5679
  612MOL0     H82592  10.980   8.179   3.270 -0.7640 -2.2826  1.4284
  612MOL0     H82593  10.909   8.270   3.411 -1.7112 -0.6189 -1.8940
  612MOL0     H82594  11.157   8.345   3.242 -0.2474  2.5669 -1.4247
  612MOL0     H82595  11.115   8.421   3.399  0.8197  0.2470 -0.5246
  612MOL0     H82596  10.917   8.485   3.343 -1.9501 -1.6278 -0.2366
  612MOL0     H82597  11.031   8.534   3.206  1.1383 -0.6655 -0.2285
  612MOL0     H82598  10.814   8.328   3.211  0.8218 -2.9370 -2.8378
  612MOL0     H82599  10.940   8.322   3.091  1.1387 -1.5364  3.1400
  612MOL0     H82600  10.895   8.541   3.017  1.4683 -1.6876 -0.1741
  612MOL0     H82601  10.759   8.570   3.124 -0.3851  0.2060 -0.7308
  612MOL0     H82602  11.405   7.840   3.672 -0.7911 -1.4407  3.0997
  612MOL0     H82603  11.505   7.788   3.885  0.3086  0.3462  1.3688
  612MOL0     H82604  11.809   7.840   4.154  0.4929  2.7881  0.7792
  612MOL0     H82605  11.947   7.777   4.339  0.7186  2.3829 -2.7277
  612MOL0     H82606  10.907   6.796   4.965 -2.2168  1.1318 -0.6189
  612MOL0     H82607  10.660   6.766   4.984 -2.4490 -0.8832  3.5342
  612MOL0     H82608  10.327   6.671   4.991 -3.1371  1.1234 -1.7590
  612MOL0     H82609  10.098   6.665   4.943 -1.4292 -0.5254  0.5886
  612MOL0     H82610   9.879   6.368   4.907  2.1730  1.9342  2.1895
  612MOL0     H82611   9.889   6.284   5.049 -0.2337 -0.6754  0.3403
  612MOL0     H82612   9.642   6.308   4.992  3.3642 -0.5324 -1.4268
  612MOL0     H82613   9.661   6.483   4.968 -2.0349  0.5400  1.5198
  612MOL0     H82614   9.702   6.517   5.188 -0.0544 -0.2812 -0.1848
  612MOL0     H82615   9.731   6.343   5.211  1.8957  2.6797  1.0430
  612MOL0     H82616   9.514   6.431   5.305  0.0535 -3.3071  0.8527
  612MOL0     H82617   9.500   6.301   5.179  3.3214 -0.9882 -0.3108
  612MOL0     H82618   9.327   6.684   5.035  2.9058 -1.7407 -1.7456
  612MOL0     H82619  10.052   6.322   5.216  2.2657 -2.9928 -0.9598
  612MOL0     H82620  10.288   6.340   5.274 -2.4700 -3.8292 -1.6892
  613MOL0     O82621   7.895   0.623   8.090 -0.1663 -0.3688  0.2396
  613MOL0     C82622   7.912   0.683   8.199 -0.5107 -0.3219  0.1082
  613MOL0     O82623   7.822   0.724   8.287  0.6354 -0.1239 -0.0440
  613MOL0     C82624   7.694   0.681   8.257 -0.5802 -0.5013  0.4254
  613MOL0     C82625   7.642   0.574   8.330 -0.2195 -0.6296  0.2946
  613MOL0     C82626   7.517   0.513   8.309 -0.2686 -1.0398 -0.6671
  613MOL0     C82627   7.430   0.584   8.225  0.0271  0.3426  0.1195
  613MOL0     O82628   7.293   0.557   8.207 -0.4246 -0.0984 -0.1541
  613MOL0     C82629   7.252   0.425   8.240 -0.9183 -0.2738 -0.6797
  613MOL0     C82630   7.131   0.392   8.157 -0.0353  0.6248 -0.5925
  613MOL0     C82631   6.999   0.429   8.222 -0.2671 -0.4165 -0.3410
  613MOL0     C82632   6.877   0.353   8.169 -0.4253 -0.6669 -0.0039
  613MOL0     C82633   6.740   0.428   8.171 -0.0955  0.3783  0.4186
  613MOL0     C82634   6.629   0.330   8.125 -0.3879  0.1671 -1.0324
  613MOL0     C82635   6.485   0.382   8.126 -0.9577  0.8531  0.5368
  613MOL0     C82636   6.425   0.419   8.267  0.2581 -0.3628 -0.5451
  613MOL0     N82637   6.279   0.455   8.251 -0.4930 -0.4180 -0.4774
  613MOL0     C82638   6.244   0.581   8.246 -0.2924 -0.9158  0.4524
  613MOL0     C82639   6.112   0.590   8.255  0.0041  0.4961  0.0616
  613MOL0     C82640   6.007   0.701   8.250 -0.1997  0.9425 -1.0544
  613MOL0     C82641   5.860   0.650   8.257 -0.2184 -0.0039 -0.7791
  613MOL0     C82642   5.765   0.767   8.281 -0.4090  0.6962  0.4281
  613MOL0     C82643   5.756   0.860   8.163 -0.5872 -0.0673 -0.0309
  613MOL0     O82644   5.646   0.952   8.177 -0.6269  0.0615  0.5881
  613MOL0     C82645   5.518   0.913   8.160 -0.9296 -0.6919 -0.1779
  613MOL0     C82646   5.481   0.794   8.114  0.9504 -0.1072  0.1732
  613MOL0     C82647   5.347   0.758   8.092 -0.2066 -0.4539 -0.8286
  613MOL0     C82648   5.309   0.621   8.048 -0.5861 -0.3850  0.3438
  613MOL0     C82649   5.243   0.856   8.117 -0.9286 -0.5343 -0.5407
  613MOL0     C82650   5.096   0.840   8.094 -0.6021 -0.2658 -0.2330
  613MOL0     O82651   5.012   0.889   8.182  0.8270 -0.1981 -0.8232
  613MOL0     C82652   4.883   0.932   8.151 -0.2928 -0.6533  0.6449
  613MOL0     C82653   4.796   0.934   8.256 -0.1634 -0.4915  0.7754
  613MOL0     C82654   4.669   0.989   8.226  0.4609 -0.6709  0.1520
  613MOL0     C82655   4.637   1.052   8.103 -0.6136  0.0979  0.5382
  613MOL0     O82656   4.511   1.109   8.089 -0.1684 -0.4027  0.1584
  613MOL0     C82657   4.451   1.087   7.963  0.2777  0.3904 -1.1277
  613MOL0     C82658   4.299   1.104   7.977 -0.3066  0.0645  0.4591
  613MOL0     C82659   4.228   1.141   7.839 -0.0833 -0.6694 -0.0971
  613MOL0     C82660   4.077   1.114   7.868 -0.6575  0.4912  0.2441
  613MOL0     C82661   3.982   1.138   7.753  0.0636  0.5657 -0.2715
  613MOL0     C82662   3.835   1.115   7.788  0.5037  0.1817 -0.1658
  613MOL0     C82663   3.749   1.174   7.674  0.0364 -0.2298  0.0516
  613MOL0     C82664   3.717   1.075   7.566 -0.2560  0.1630  0.8958
  613MOL0    Cl82665   3.612   1.158   7.440 -0.1144  0.1659  0.1074
  613MOL0     C82666   4.735   1.051   8.001  0.5245 -0.1639  0.8780
  613MOL0     C82667   4.853   0.982   8.022 -0.2105 -0.4145 -0.0885
  613MOL0     O82668   5.065   0.788   7.991  0.8021 -0.3584  0.7716
  613MOL0     C82669   5.286   0.983   8.166  0.3085 -0.7035  0.0994
  613MOL0     C82670   5.425   1.017   8.180  0.6288 -0.7893  0.1440
  613MOL0     N82671   6.064   0.457   8.269  0.3894  0.8846  0.1531
  613MOL0     N82672   6.165   0.381   8.262 -0.5853 -0.3388  0.2502
  613MOL0     C82673   7.473   0.702   8.158  0.2252 -1.0209  0.1692
  613MOL0     C82674   7.608   0.753   8.179  0.7806  0.4081  0.2227
  613MOL0     C82675   8.054   0.709   8.231 -0.8736 -0.4377 -0.4625
  613MOL0     C82676   8.091   0.790   8.333 -0.5300  0.1274 -0.8660
  613MOL0     C82677   8.230   0.828   8.357 -0.4266 -0.3126  0.5894
  613MOL0     C82678   8.336   0.769   8.285  0.6637 -0.2025 -0.4616
  613MOL0     O82679   8.468   0.813   8.278 -0.1255  0.1236 -0.2663
  613MOL0     C82680   8.490   0.954   8.317 -0.1177  0.1704  0.3956
  613MOL0     C82681   8.636   0.973   8.357 -0.1482  0.0176 -0.0470
  613MOL0     C82682   8.653   1.098   8.453  0.0464  0.0077  0.0685
  613MOL0     C82683   8.797   1.109   8.506  0.7880 -0.3984 -1.5479
  613MOL0     C82684   8.789   1.228   8.596  0.7792 -0.7567 -1.0583
  613MOL0     C82685   8.770   1.321   8.663 -0.5025 -0.0503  0.7854
  613MOL0     C82686   8.298   0.674   8.197 -0.2255  0.2708  0.7315
  613MOL0     C82687   8.165   0.653   8.157 -0.1930  0.0363 -0.1145
  613MOL0     H82688   7.706   0.522   8.399 -0.4339  1.5978  2.3245
  613MOL0     H82689   7.481   0.431   8.371 -1.7879  0.1574  0.1195
  613MOL0     H82690   7.327   0.346   8.224 -1.7023 -1.4854  1.2540
  613MOL0     H82691   7.226   0.414   8.346 -1.3086 -0.4221 -0.7908
  613MOL0     H82692   7.147   0.440   8.060 -1.2876  3.1951  0.3656
  613MOL0     H82693   7.119   0.283   8.153  0.2628  0.6068 -1.0397
  613MOL0     H82694   7.006   0.412   8.330 -3.4846 -3.2726 -0.4297
  613MOL0     H82695   6.991   0.535   8.198 -0.7161 -0.1831  0.7602
  613MOL0     H82696   6.904   0.318   8.069  1.6525 -0.9279  0.6103
  613MOL0     H82697   6.850   0.265   8.229  1.4323 -0.7451  0.7724
  613MOL0     H82698   6.730   0.457   8.276  1.9352 -2.9520  1.7203
  613MOL0     H82699   6.744   0.512   8.102  3.6321 -1.1562 -1.5125
  613MOL0     H82700   6.652   0.316   8.019 -3.4785 -0.4575 -1.7092
  613MOL0     H82701   6.643   0.239   8.184 -3.4880 -0.8148 -1.6500
  613MOL0     H82702   6.480   0.467   8.057  0.8214 -0.7099 -1.6821
  613MOL0     H82703   6.435   0.299   8.075  1.4981 -0.7041  0.5179
  613MOL0     H82704   6.489   0.499   8.306  1.8755 -1.4274 -0.9319
  613MOL0     H82705   6.429   0.331   8.331 -1.6118  1.3230  2.0812
  613MOL0     H82706   6.307   0.669   8.246  0.6642 -1.5715 -0.3539
  613MOL0     H82707   6.018   0.769   8.336  2.8028 -0.1398 -0.4812
  613MOL0     H82708   6.014   0.756   8.156 -3.8267  0.4026 -1.7961
  613MOL0     H82709   5.855   0.589   8.348  4.3107 -0.2779 -0.4664
  613MOL0     H82710   5.829   0.595   8.168 -2.6318 -0.8280  0.4805
  613MOL0     H82711   5.788   0.821   8.373 -0.9291 -0.7641  1.4482
  613MOL0     H82712   5.669   0.722   8.309  0.9069 -0.5306  3.4290
  613MOL0     H82713   5.752   0.807   8.067 -1.4166 -1.4954  0.7543
  613MOL0     H82714   5.850   0.915   8.171  0.0417 -1.3985  3.3287
  613MOL0     H82715   5.564   0.728   8.088 -1.7572 -3.2007 -1.4125
  613MOL0     H82716   5.315   0.616   7.939  1.3087  0.6039  0.3583
  613MOL0     H82717   5.369   0.543   8.096 -1.4500 -0.0451  2.0418
  613MOL0     H82718   5.208   0.610   8.087 -0.3243  2.7157  2.1665
  613MOL0     H82719   4.814   0.895   8.355  1.8591  2.8508  1.8799
  613MOL0     H82720   4.591   0.982   8.302 -1.2495  2.5095 -1.1202
  613MOL0     H82721   4.498   1.158   7.893 -0.6072  3.6580  1.3223
  613MOL0     H82722   4.482   0.991   7.921 -0.2339 -0.2487 -0.0799
  613MOL0     H82723   4.257   1.014   8.024 -0.4699  0.7110  1.6036
  613MOL0     H82724   4.280   1.188   8.045  1.6511  1.1550 -0.2562
  613MOL0     H82725   4.254   1.073   7.757 -1.2651  0.7159 -1.6819
  613MOL0     H82726   4.247   1.244   7.808  0.6906 -0.0406  2.2392
  613MOL0     H82727   4.064   1.008   7.893  1.8423  0.2995  0.9559
  613MOL0     H82728   4.042   1.175   7.952 -1.2862  1.9893 -1.0637
  613MOL0     H82729   4.007   1.070   7.671 -3.5598 -2.6932  1.0571
  613MOL0     H82730   3.994   1.242   7.720 -0.4107  1.3520  1.8766
  613MOL0     H82731   3.822   1.009   7.811  0.2480  0.6877  2.3742
  613MOL0     H82732   3.821   1.171   7.881 -1.9618 -2.0104  0.9057
  613MOL0     H82733   3.803   1.258   7.631 -3.1372  1.0161 -1.8719
  613MOL0     H82734   3.661   1.226   7.714  0.6155  2.2015 -1.6522
  613MOL0     H82735   3.676   0.984   7.611 -1.0490 -1.6745 -3.0440
  613MOL0     H82736   3.808   1.057   7.507  0.1714 -1.3985  1.9688
  613MOL0     H82737   4.718   1.091   7.902 -1.1513  2.5733  2.1580
  613MOL0     H82738   4.922   0.975   7.938  0.0668 -1.3922  0.2140
  613MOL0     H82739   5.213   1.062   8.182  0.9816 -0.0487  0.0241
  613MOL0     H82740   5.476   1.112   8.195 -1.5156  0.4456 -0.0417
  613MOL0     H82741   7.394   0.756   8.107 -0.5435 -0.7103  1.6480
  613MOL0     H82742   7.640   0.850   8.143 -1.3105  0.1647 -2.6399
  613MOL0     H82743   8.009   0.831   8.391  1.0697  0.7707  1.0654
  613MOL0     H82744   8.254   0.904   8.431  0.1119 -0.4102  0.5249
  613MOL0     H82745   8.463   1.025   8.238  0.1082 -0.3651 -0.1773
  613MOL0     H82746   8.436   0.986   8.406  2.9946  0.8878  2.1511
  613MOL0     H82747   8.705   0.974   8.272  1.1708  1.5973  0.9754
  613MOL0     H82748   8.663   0.885   8.415 -1.2015 -1.6373 -1.9359
  613MOL0     H82749   8.569   1.098   8.524 -0.6759  0.4245 -0.7645
  613MOL0     H82750   8.644   1.185   8.388 -1.0316  1.1505  1.6781
  613MOL0     H82751   8.881   1.126   8.438  2.7364 -1.4584  0.4781
  613MOL0     H82752   8.825   1.018   8.560  0.6461 -0.2213 -1.1687
  613MOL0     H82753   8.760   1.413   8.718  1.0946  0.8085 -0.2797
  613MOL0     H82754   8.374   0.626   8.135 -0.4825  1.9490 -1.0119
  613MOL0     H82755   8.135   0.590   8.074 -3.6411  1.8872 -0.4580
  614MOL0     O82756   1.617   8.731   1.504 -1.2087 -0.0782  0.1523
  614MOL0     C82757   1.621   8.673   1.605 -1.4945 -0.0462 -0.8297
  614MOL0     O82758   1.522   8.671   1.698  0.7659 -0.6506  0.2943
  614MOL0     C82759   1.392   8.714   1.669 -0.2204 -0.1672  0.0405
  614MOL0     C82760   1.343   8.742   1.539  0.3707 -0.5890  0.1542
  614MOL0     C82761   1.214   8.788   1.522  0.2166  0.1897  0.6703
  614MOL0     C82762   1.137   8.802   1.636  0.2644 -0.4208  0.4033
  614MOL0     O82763   1.007   8.849   1.639 -0.6907  0.2182  0.4694
  614MOL0     C82764   0.978   8.964   1.563 -0.5289  0.1394  0.7268
  614MOL0     C82765   0.832   8.963   1.538 -0.4349  0.3609  0.0053
  614MOL0     C82766   0.748   8.988   1.667 -0.2214  0.3754  0.4054
  614MOL0     C82767   0.605   9.018   1.619  0.8661 -1.1976 -0.2574
  614MOL0     C82768   0.503   9.022   1.733 -0.2868  0.4462  0.5888
  614MOL0     C82769   0.526   9.135   1.833 -0.6749 -0.6506 -0.0737
  614MOL0     C82770   0.461   9.112   1.969  0.5516  0.4001 -0.1946
  614MOL0     C82771   0.306   9.120   1.949  0.8925  0.6661  0.5494
  614MOL0     N82772   0.242   9.117   2.093 -0.3681 -0.0243  0.4113
  614MOL0     C82773   0.242   9.012   2.177 -0.9955 -0.5854 -0.4525
  614MOL0     C82774   0.182   9.065   2.286 -0.2553 -0.3642  0.0862
  614MOL0     C82775   0.174   9.017   2.429 -0.0220 -0.7466  0.0536
  614MOL0     C82776   0.028   9.019   2.470  1.0129  1.0972 -0.1219
  614MOL0     C82777  -0.008   9.151   2.544 -0.7846  0.0054 -0.3088
  614MOL0     C82778  -0.163   9.172   2.560 -1.0010  0.7254  0.4645
  614MOL0     O82779  -0.182   9.309   2.606 -0.2573  0.1445  0.3647
  614MOL0     C82780  -0.295   9.372   2.572 -0.1456  1.1016  0.0753
  614MOL0     C82781  -0.391   9.327   2.480 -0.2449 -0.4502 -0.3138
  614MOL0     C82782  -0.502   9.399   2.443  0.1142  0.0810 -0.2724
  614MOL0     C82783  -0.605   9.337   2.345 -0.4505 -0.6616  0.3271
  614MOL0     C82784  -0.530   9.519   2.516  0.0666  0.5528  0.6976
  614MOL0     C82785  -0.667   9.592   2.512  0.1014 -0.3034  0.3805
  614MOL0     O82786  -0.677   9.702   2.594  0.3778 -0.2566 -0.2001
  614MOL0     C82787  -0.794   9.776   2.601  0.7006  0.0092 -0.0197
  614MOL0     C82788  -0.852   9.853   2.497  0.3271 -0.0330 -0.1131
  614MOL0     C82789  -0.957   9.940   2.526 -0.2497  0.3428 -0.1309
  614MOL0     C82790  -1.006   9.952   2.662  0.1903 -0.6631 -0.4910
  614MOL0     O82791  -1.112  10.025   2.714  0.0569 -0.9564 -0.0998
  614MOL0     C82792  -1.180  10.108   2.626 -0.3545  0.8220 -0.5831
  614MOL0     C82793  -1.308  10.153   2.688  0.2318  0.3709  0.1089
  614MOL0     C82794  -1.402  10.233   2.593 -0.9946  1.0829 -0.7436
  614MOL0     C82795  -1.544  10.251   2.655 -0.1078  0.0107 -0.8489
  614MOL0     C82796  -1.645  10.296   2.548 -0.4175  0.2683 -1.0309
  614MOL0     C82797  -1.781  10.341   2.611  0.2092 -0.6493 -0.6362
  614MOL0     C82798  -1.856  10.211   2.646  0.4710  0.1340 -0.4298
  614MOL0     C82799  -1.982  10.239   2.733  0.3355 -0.4389  0.2448
  614MOL0    Cl82800  -2.060  10.072   2.769  0.0127  0.3794  0.1845
  614MOL0     C82801  -0.942   9.881   2.761  0.7808 -0.0728 -0.0842
  614MOL0     C82802  -0.834   9.798   2.733  0.0101  0.0696  0.5728
  614MOL0     O82803  -0.767   9.555   2.448 -0.9237  0.8130  0.6272
  614MOL0     C82804  -0.433   9.572   2.601 -0.2459 -0.1535 -1.0466
  614MOL0     C82805  -0.310   9.503   2.626 -0.0725  0.1247  0.0548
  614MOL0     N82806   0.136   9.195   2.269  0.0320 -0.0461  0.8939
  614MOL0     N82807   0.181   9.228   2.151  0.2659 -0.0756 -0.5856
  614MOL0     C82808   1.177   8.777   1.763 -0.5631 -0.0040 -0.2656
  614MOL0     C82809   1.307   8.733   1.779 -0.1035  0.2008  0.1021
  614MOL0     C82810   1.750   8.607   1.640  0.1257 -0.1554 -0.6633
  614MOL0     C82811   1.868   8.634   1.567 -0.6710 -0.2947  0.3647
  614MOL0     C82812   1.987   8.574   1.612  0.0557  0.0636  0.0331
  614MOL0     C82813   1.990   8.495   1.732  0.4925  0.3845  0.0196
  614MOL0     O82814   2.109   8.433   1.748  0.1327  0.2949 -0.6482
  614MOL0     C82815   2.133   8.369   1.873  0.1763 -0.3550 -0.1734
  614MOL0     C82816   2.260   8.294   1.868  0.0143  0.1339  1.1098
  614MOL0     C82817   2.246   8.165   1.773  0.7511 -0.1536 -0.7987
  614MOL0     C82818   2.366   8.147   1.694 -0.1079  0.3995 -0.5822
  614MOL0     C82819   2.496   8.157   1.764  0.6998  0.0452 -1.3660
  614MOL0     C82820   2.590   8.175   1.830 -0.7633 -0.1678 -0.4810
  614MOL0     C82821   1.874   8.475   1.813 -0.0867  0.8998 -0.0766
  614MOL0     C82822   1.757   8.531   1.763  0.0448 -0.6765 -0.4443
  614MOL0     H82823   1.406   8.745   1.451  0.2256  0.6211  0.0667
  614MOL0     H82824   1.170   8.826   1.431  0.2595  0.2457  0.6722
  614MOL0     H82825   0.985   9.060   1.614 -1.2809  0.1703  0.7912
  614MOL0     H82826   1.034   8.961   1.469  0.4133 -2.0303  1.3041
  614MOL0     H82827   0.810   9.044   1.468 -1.6137  0.5045  0.5233
  614MOL0     H82828   0.816   8.866   1.490  2.2422  0.4195 -1.2191
  614MOL0     H82829   0.745   8.910   1.743  0.6729 -0.1865 -0.1243
  614MOL0     H82830   0.792   9.077   1.712  0.1638  0.3744  0.0399
  614MOL0     H82831   0.608   9.111   1.563  0.9773 -1.8571 -1.3623
  614MOL0     H82832   0.566   8.951   1.542 -1.0244  1.7967 -2.0943
  614MOL0     H82833   0.402   9.038   1.693  0.3562 -0.9971 -1.8441
  614MOL0     H82834   0.492   8.926   1.785 -1.3215  0.7200  0.8991
  614MOL0     H82835   0.632   9.140   1.859 -1.0820 -1.8858  2.1299
  614MOL0     H82836   0.505   9.232   1.787  4.0432 -0.1726 -1.7307
  614MOL0     H82837   0.495   9.011   1.996  3.4022  0.8045 -1.8705
  614MOL0     H82838   0.495   9.190   2.038  0.2445 -0.7879  1.3724
  614MOL0     H82839   0.265   9.039   1.887  2.1705  0.5674 -0.1903
  614MOL0     H82840   0.281   9.214   1.900 -1.4182 -0.4868 -0.6617
  614MOL0     H82841   0.299   8.920   2.171  1.1096  0.5424  1.1509
  614MOL0     H82842   0.221   8.920   2.447 -1.7776 -1.2137  2.7187
  614MOL0     H82843   0.219   9.093   2.494 -1.5371 -0.4090  0.7544
  614MOL0     H82844   0.021   8.931   2.534  2.3873  2.5028  2.1112
  614MOL0     H82845  -0.026   8.996   2.377 -1.9622 -1.9974  2.1209
  614MOL0     H82846   0.044   9.238   2.502  1.0477  0.7170  2.9844
  614MOL0     H82847   0.032   9.153   2.646 -0.1214  1.2013 -0.5726
  614MOL0     H82848  -0.201   9.112   2.643  1.3542 -1.8384 -0.1673
  614MOL0     H82849  -0.191   9.145   2.458  3.1090  0.4668 -0.8025
  614MOL0     H82850  -0.386   9.235   2.423  0.5062  0.2151 -1.3601
  614MOL0     H82851  -0.685   9.296   2.408 -2.5119  2.7408  0.1687
  614MOL0     H82852  -0.647   9.409   2.274 -1.0508 -0.9579  0.3739
  614MOL0     H82853  -0.562   9.258   2.283  2.1435  0.2614  0.8343
  614MOL0     H82854  -0.819   9.833   2.396  1.1145  0.3311  0.0617
  614MOL0     H82855  -0.998   9.998   2.444  0.5519 -0.4049 -1.0781
  614MOL0     H82856  -1.115  10.195   2.615  0.6773  0.4402  1.8222
  614MOL0     H82857  -1.197  10.069   2.525 -0.4264  1.3169 -0.7624
  614MOL0     H82858  -1.365  10.068   2.727  0.0455 -1.0250 -2.8926
  614MOL0     H82859  -1.290  10.218   2.774 -0.1364 -1.2931  1.4910
  614MOL0     H82860  -1.399  10.179   2.498  2.0135  0.7969 -0.5980
  614MOL0     H82861  -1.359  10.330   2.565 -1.2954  1.6799  0.7712
  614MOL0     H82862  -1.576  10.157   2.702 -2.4203  2.4491  2.9800
  614MOL0     H82863  -1.532  10.331   2.729 -0.0501 -1.0137  0.2809
  614MOL0     H82864  -1.654  10.209   2.482 -0.6750  1.2953 -2.3807
  614MOL0     H82865  -1.607  10.382   2.492 -1.3121  0.6521 -1.0683
  614MOL0     H82866  -1.770  10.401   2.701  0.1474 -0.6717 -0.6131
  614MOL0     H82867  -1.846  10.393   2.540  3.0847  2.1444 -1.4221
  614MOL0     H82868  -1.790  10.145   2.703  1.8483  0.3961 -1.6571
  614MOL0     H82869  -1.877  10.152   2.556  1.3267 -1.2625  0.2407
  614MOL0     H82870  -2.053  10.300   2.675 -0.2441  0.2167  1.5950
  614MOL0     H82871  -1.957  10.285   2.829 -1.3072 -1.0268  1.0017
  614MOL0     H82872  -0.994   9.884   2.856 -1.6407 -2.9045 -1.1548
  614MOL0     H82873  -0.785   9.736   2.808 -1.1513 -0.5164  0.8717
  614MOL0     H82874  -0.455   9.668   2.645 -0.4948 -0.1312 -1.2150
  614MOL0     H82875  -0.234   9.543   2.692 -0.1640 -0.6738  0.6620
  614MOL0     H82876   1.110   8.805   1.843  0.3264  4.2241 -0.7798
  614MOL0     H82877   1.342   8.719   1.881 -1.3174  0.1614  0.5186
  614MOL0     H82878   1.872   8.685   1.471 -2.5994 -0.1983  0.2941
  614MOL0     H82879   2.069   8.578   1.540 -0.1446  1.1082 -0.1530
  614MOL0     H82880   2.136   8.439   1.957  1.4663 -0.3571 -0.1973
  614MOL0     H82881   2.058   8.296   1.902 -0.1163 -0.0631 -0.1903
  614MOL0     H82882   2.283   8.260   1.970 -0.8102  0.4367  1.4042
  614MOL0     H82883   2.336   8.359   1.825 -0.7737 -0.9033 -2.1024
  614MOL0     H82884   2.167   8.164   1.697  2.0869 -0.1583 -2.2488
  614MOL0     H82885   2.238   8.080   1.840  0.2675  1.2953  1.0816
  614MOL0     H82886   2.369   8.223   1.616 -2.2356 -1.6307 -2.8154
  614MOL0     H82887   2.365   8.049   1.646 -1.7692  0.4129 -0.6206
  614MOL0     H82888   2.672   8.174   1.899  0.3308 -0.9620 -1.7384
  614MOL0     H82889   1.878   8.402   1.894  0.8866 -1.0738 -1.8043
  614MOL0     H82890   1.663   8.506   1.811  0.1467 -0.3907 -0.0934
  615MOL0     O82891   4.414   4.828   2.551  0.4078 -0.0941  0.0486
  615MOL0     C82892   4.361   4.902   2.632 -0.2101 -0.4808 -0.2393
  615MOL0     O82893   4.425   4.956   2.744  0.2560 -0.4761  0.0622
  615MOL0     C82894   4.561   4.935   2.753  0.5759  0.4060 -0.8167
  615MOL0     C82895   4.609   4.881   2.868  0.0673  0.7899  0.4793
  615MOL0     C82896   4.754   4.866   2.899  0.2707 -0.1479  0.0124
  615MOL0     C82897   4.842   4.906   2.799  0.2589 -0.5967  0.3135
  615MOL0     O82898   4.983   4.906   2.808  0.6277  0.0556  0.2618
  615MOL0     C82899   5.025   5.019   2.893 -0.4376  0.1474 -0.2956
  615MOL0     C82900   5.185   5.032   2.886 -0.4309  0.2504 -0.1797
  615MOL0     C82901   5.253   4.907   2.930 -1.0438  0.1810 -0.7117
  615MOL0     C82902   5.408   4.911   2.934  0.2984  0.5707 -0.1360
  615MOL0     C82903   5.467   4.817   3.050  0.1030  0.3509 -0.0286
  615MOL0     C82904   5.623   4.819   3.071  0.2372 -0.0657  0.9203
  615MOL0     C82905   5.665   4.705   3.168  0.3960  0.5600 -0.8592
  615MOL0     C82906   5.609   4.714   3.312  0.5545 -0.2360  1.0234
  615MOL0     N82907   5.641   4.583   3.368 -0.2218  0.3305 -0.5034
  615MOL0     C82908   5.742   4.547   3.454 -0.3741 -0.2379 -0.4406
  615MOL0     C82909   5.713   4.416   3.490 -0.5856  0.0894  0.3637
  615MOL0     C82910   5.789   4.343   3.604 -0.4500  0.4162  0.3129
  615MOL0     C82911   5.804   4.190   3.584  0.1946 -0.1142 -0.2719
  615MOL0     C82912   5.920   4.129   3.665  0.4594 -0.5984  0.0030
  615MOL0     C82913   5.926   4.161   3.808  0.4266 -0.5293 -0.2557
  615MOL0     O82914   5.796   4.131   3.866  0.4645  0.7508  0.2042
  615MOL0     C82915   5.753   4.195   3.982  1.2275  0.0793  0.3537
  615MOL0     C82916   5.828   4.272   4.070 -0.4494  0.4640  0.5675
  615MOL0     C82917   5.782   4.350   4.185  1.1407  0.7495  1.3308
  615MOL0     C82918   5.876   4.428   4.266  0.0278 -1.1276 -0.5742
  615MOL0     C82919   5.638   4.344   4.201 -0.7123  0.3754  1.2185
  615MOL0     C82920   5.559   4.427   4.297 -0.2826 -0.5673  0.1982
  615MOL0     O82921   5.420   4.416   4.293 -0.6720  0.3826 -0.8525
  615MOL0     C82922   5.347   4.501   4.371  0.2167  0.2358  0.1788
  615MOL0     C82923   5.323   4.462   4.499 -0.3083  0.4630  0.2102
  615MOL0     C82924   5.237   4.536   4.577  0.0418 -0.3383 -1.0931
  615MOL0     C82925   5.183   4.656   4.540 -0.7584  0.5975  0.0843
  615MOL0     O82926   5.101   4.716   4.636 -0.1433  0.2904  0.7650
  615MOL0     C82927   5.054   4.851   4.610 -1.0240  0.3091 -0.3093
  615MOL0     C82928   5.015   4.909   4.750 -0.0314 -0.8096  0.2995
  615MOL0     C82929   4.958   5.048   4.754  1.1502  0.3724 -0.3100
  615MOL0     C82930   4.893   5.077   4.892 -0.3404 -0.1810  0.3689
  615MOL0     C82931   4.823   5.206   4.899  0.5964 -0.5378 -0.2799
  615MOL0     C82932   4.794   5.250   5.048  0.0978 -0.0103  0.8744
  615MOL0     C82933   4.925   5.309   5.103 -0.3464 -0.5334  0.8381
  615MOL0     C82934   4.899   5.349   5.250 -0.3025 -0.6517 -0.6078
  615MOL0    Cl82935   5.055   5.410   5.308 -0.0981  0.3844 -0.2102
  615MOL0     C82936   5.209   4.702   4.411  0.2260  0.6050  0.4134
  615MOL0     C82937   5.296   4.621   4.329  0.0771 -0.3995  0.6814
  615MOL0     O82938   5.624   4.510   4.362  0.0933  0.0934  0.2700
  615MOL0     C82939   5.561   4.254   4.123 -0.2119 -0.0665 -0.4462
  615MOL0     C82940   5.610   4.186   4.015 -0.1829 -0.1188 -0.3324
  615MOL0     N82941   5.602   4.377   3.419 -0.7688 -0.7791  0.1561
  615MOL0     N82942   5.552   4.483   3.359  0.6457  0.2370  0.1927
  615MOL0     C82943   4.795   4.964   2.685 -0.4973  0.2577 -0.2598
  615MOL0     C82944   4.663   4.987   2.660  0.1727  0.2164 -0.5763
  615MOL0     C82945   4.226   4.947   2.623 -0.0314 -0.1074 -0.3158
  615MOL0     C82946   4.139   4.865   2.551 -0.2262  0.5066 -0.5827
  615MOL0     C82947   4.004   4.905   2.530 -0.3421  0.2494 -1.5145
  615MOL0     C82948   3.958   5.027   2.578 -0.9197  0.5582  0.0272
  615MOL0     O82949   3.837   5.089   2.548  0.3799  0.8228  0.3882
  615MOL0     C82950   3.755   5.025   2.448  0.1127 -0.2659 -0.6396
  615MOL0     C82951   3.646   5.123   2.395  0.4410  0.8490  0.1484
  615MOL0     C82952   3.550   5.034   2.301 -0.2885  0.1763 -0.2514
  615MOL0     C82953   3.449   5.135   2.240 -0.1924  0.2909 -1.1284
  615MOL0     C82954   3.343   5.049   2.187 -0.0261 -0.3634 -0.0514
  615MOL0     C82955   3.256   4.979   2.145 -0.1530  0.1136 -0.4449
  615MOL0     C82956   4.046   5.103   2.663  0.2448  0.1091 -0.2526
  615MOL0     C82957   4.184   5.063   2.679  0.0328  0.4822  0.7252
  615MOL0     H82958   4.540   4.851   2.947 -0.9491 -2.0408 -1.3180
  615MOL0     H82959   4.791   4.811   2.985 -0.8426 -0.2604  0.4303
  615MOL0     H82960   4.987   5.115   2.855 -1.6308 -0.7868 -1.5806
  615MOL0     H82961   4.997   4.993   2.995 -0.9714 -0.2821 -0.5411
  615MOL0     H82962   5.215   5.053   2.783 -0.9655  0.0654 -0.3753
  615MOL0     H82963   5.223   5.115   2.947  2.5495 -1.5778  0.6446
  615MOL0     H82964   5.221   4.885   3.032  1.6690 -0.2205  0.1585
  615MOL0     H82965   5.211   4.826   2.870 -2.4238 -2.8857  3.9040
  615MOL0     H82966   5.442   4.880   2.835  0.7608 -0.2686  0.2718
  615MOL0     H82967   5.439   5.013   2.959 -1.4333  0.0965  5.1190
  615MOL0     H82968   5.420   4.855   3.141 -1.0606  0.9865 -0.8704
  615MOL0     H82969   5.434   4.713   3.034  0.2380  0.6758 -2.9831
  615MOL0     H82970   5.670   4.806   2.973 -1.2556 -3.9889  0.5733
  615MOL0     H82971   5.664   4.913   3.111  1.5677  1.2125 -2.9488
  615MOL0     H82972   5.652   4.602   3.132 -0.5339  0.6525 -0.8249
  615MOL0     H82973   5.773   4.712   3.182  0.2645 -0.4188  0.8401
  615MOL0     H82974   5.502   4.734   3.303  1.1605  3.9564  1.0390
  615MOL0     H82975   5.664   4.797   3.358  3.3030 -0.7118 -1.1163
  615MOL0     H82976   5.814   4.613   3.502  0.0050 -1.6550  1.0339
  615MOL0     H82977   5.886   4.391   3.621 -1.5259  1.6224  3.7457
  615MOL0     H82978   5.748   4.358   3.704  2.0208  2.2613  1.1449
  615MOL0     H82979   5.816   4.169   3.478 -0.5979  0.2796 -0.4471
  615MOL0     H82980   5.711   4.146   3.622 -0.5343  1.0798 -0.5922
  615MOL0     H82981   6.016   4.157   3.622  1.3976 -1.4799  1.4471
  615MOL0     H82982   5.911   4.020   3.667 -1.8138 -0.5331 -1.5679
  615MOL0     H82983   5.954   4.267   3.815  1.9908 -0.7334 -2.3698
  615MOL0     H82984   6.006   4.107   3.859  1.8920  0.2983 -1.5827
  615MOL0     H82985   5.935   4.267   4.055 -0.4879 -1.3401  0.6630
  615MOL0     H82986   5.981   4.428   4.237  0.4724  0.1416  0.8722
  615MOL0     H82987   5.844   4.529   4.239  3.1700  0.1059 -0.1650
  615MOL0     H82988   5.863   4.426   4.375  3.4910  0.4071 -0.0041
  615MOL0     H82989   5.359   4.367   4.538  1.9433  1.6424  1.1419
  615MOL0     H82990   5.219   4.511   4.681  1.1211 -1.1776 -1.0873
  615MOL0     H82991   5.141   4.904   4.570  2.2910 -3.2065  1.4481
  615MOL0     H82992   4.963   4.863   4.551 -2.2970  2.4512  1.8963
  615MOL0     H82993   4.947   4.834   4.791 -1.8794  0.9063  0.5118
  615MOL0     H82994   5.102   4.909   4.817  0.6718 -0.2949 -0.5872
  615MOL0     H82995   4.871   5.053   4.688 -1.2143  1.5765  2.6390
  615MOL0     H82996   5.031   5.120   4.715  0.6997  0.4669 -0.9892
  615MOL0     H82997   4.813   5.004   4.903  0.1103 -0.6920  0.2743
  615MOL0     H82998   4.963   5.071   4.976  0.7767 -1.0282 -0.5852
  615MOL0     H82999   4.720   5.204   4.862 -0.2893  3.6153  1.3608
  615MOL0     H83000   4.875   5.289   4.851  1.5559 -1.3288 -0.6292
  615MOL0     H83001   4.714   5.322   5.037 -0.6047 -0.8687  0.2325
  615MOL0     H83002   4.758   5.156   5.092  0.7724 -0.6603  0.0915
  615MOL0     H83003   4.973   5.391   5.049  1.7654 -0.9232  2.0067
  615MOL0     H83004   4.995   5.225   5.111 -1.3091 -1.2484  2.2641
  615MOL0     H83005   4.862   5.268   5.313 -0.4536 -0.1595 -0.0607
  615MOL0     H83006   4.827   5.430   5.257 -0.6499 -0.8602 -1.6117
  615MOL0     H83007   5.166   4.796   4.380  0.5848  1.0141  1.1417
  615MOL0     H83008   5.319   4.645   4.226  1.1187  0.5830  1.1289
  615MOL0     H83009   5.457   4.235   4.148  0.2449 -1.0489  0.7902
  615MOL0     H83010   5.541   4.135   3.948 -0.4807  3.3482 -2.9580
  615MOL0     H83011   4.868   5.011   2.621 -2.7236  0.3191 -2.9225
  615MOL0     H83012   4.645   5.043   2.569  1.3030  0.0436 -0.9221
  615MOL0     H83013   4.178   4.767   2.524 -1.8997  0.1276 -1.8292
  615MOL0     H83014   3.934   4.839   2.479  0.9609 -1.3333 -1.3531
  615MOL0     H83015   3.809   4.979   2.365 -0.6353 -0.5428 -0.9738
  615MOL0     H83016   3.698   4.950   2.503 -1.2291  1.3603  0.2907
  615MOL0     H83017   3.696   5.198   2.334 -1.2774 -0.0569 -2.5592
  615MOL0     H83018   3.594   5.179   2.474 -0.7190 -1.2070  0.9247
  615MOL0     H83019   3.499   4.962   2.367  0.5334 -0.6906 -0.5363
  615MOL0     H83020   3.612   4.986   2.226  0.7698  0.2976  0.5250
  615MOL0     H83021   3.497   5.199   2.165  1.7427 -0.0086 -0.2135
  615MOL0     H83022   3.403   5.193   2.321  0.2574 -1.1455  0.2220
  615MOL0     H83023   3.187   4.907   2.104 -0.1849  0.6361 -1.3449
  615MOL0     H83024   4.001   5.196   2.699 -0.9634 -0.2308 -0.8265
  615MOL0     H83025   4.261   5.127   2.721 -0.0342  0.1083  1.4490
  616MOL0     O83026   6.335   5.359   7.801 -0.4931 -0.5029  0.4496
  616MOL0     C83027   6.404   5.340   7.700 -0.0027 -0.0113  0.4961
  616MOL0     O83028   6.354   5.321   7.566 -0.1702  0.0589 -0.1192
  616MOL0     C83029   6.226   5.351   7.536  0.1891  0.0987 -0.4444
  616MOL0     C83030   6.198   5.448   7.441 -0.4848 -0.1367  0.1548
  616MOL0     C83031   6.067   5.484   7.410 -0.7503 -0.7060  0.1976
  616MOL0     C83032   5.960   5.426   7.484 -0.2444  0.3840  0.8045
  616MOL0     O83033   5.826   5.458   7.463  0.6529 -0.0715 -0.1690
  616MOL0     C83034   5.782   5.594   7.463  0.3627 -1.1365  0.5781
  616MOL0     C83035   5.697   5.615   7.595  0.0998 -1.1896 -0.3284
  616MOL0     C83036   5.570   5.531   7.589 -0.3742  0.2827  0.0268
  616MOL0     C83037   5.468   5.600   7.687 -0.0140  0.0472  0.4607
  616MOL0     C83038   5.340   5.522   7.716  0.4138 -0.8724 -0.3164
  616MOL0     C83039   5.260   5.618   7.796  0.2238 -0.6895  0.0251
  616MOL0     C83040   5.119   5.567   7.836  0.1125  0.1333  0.0297
  616MOL0     C83041   5.036   5.693   7.883 -0.1539 -0.2409  0.9522
  616MOL0     N83042   4.904   5.658   7.925  0.3206 -0.0022 -0.4544
  616MOL0     C83043   4.863   5.595   8.046 -0.1848  0.4873  0.2108
  616MOL0     C83044   4.732   5.577   8.033  0.5045 -0.0301  0.3712
  616MOL0     C83045   4.638   5.512   8.133  0.2209  0.0499 -0.9878
  616MOL0     C83046   4.534   5.610   8.196  0.6553 -0.1368  0.7876
  616MOL0     C83047   4.425   5.646   8.099  0.4844  0.7654  0.8810
  616MOL0     C83048   4.297   5.679   8.180 -0.1539 -0.5771  0.7916
  616MOL0     O83049   4.189   5.665   8.092 -0.0760 -0.2097 -0.2578
  616MOL0     C83050   4.067   5.700   8.145 -0.7917  0.2158  0.6466
  616MOL0     C83051   4.046   5.731   8.278 -0.1945  0.4031 -0.0894
  616MOL0     C83052   3.913   5.756   8.321  0.8371  0.0266 -0.6357
  616MOL0     C83053   3.880   5.753   8.467  0.2986 -0.1907 -0.3539
  616MOL0     C83054   3.808   5.764   8.225  0.8274  0.3763 -1.3738
  616MOL0     C83055   3.668   5.816   8.254 -0.5505 -0.2221 -0.3742
  616MOL0     O83056   3.572   5.765   8.183 -0.5475  0.4919  0.0384
  616MOL0     C83057   3.452   5.819   8.197  0.1939  0.6025 -0.2036
  616MOL0     C83058   3.380   5.815   8.316  0.7099  0.0135 -0.1517
  616MOL0     C83059   3.251   5.871   8.316  0.0262  0.0635 -0.9957
  616MOL0     C83060   3.197   5.942   8.204 -0.6542 -0.7513 -0.1687
  616MOL0     O83061   3.068   5.999   8.203  0.4102 -0.1226 -0.2215
  616MOL0     C83062   3.058   6.138   8.226  0.5603  0.2823 -0.2927
  616MOL0     C83063   2.908   6.182   8.260 -0.9363  0.0692  0.5768
  616MOL0     C83064   2.886   6.152   8.403 -0.1006 -0.1941  0.4698
  616MOL0     C83065   2.740   6.176   8.442 -0.3517 -0.5723 -0.0591
  616MOL0     C83066   2.704   6.322   8.438 -0.2606 -0.6066  0.6779
  616MOL0     C83067   2.792   6.421   8.515  0.6271  1.0318  0.1708
  616MOL0     C83068   2.810   6.381   8.668  0.2469 -0.3688  0.1651
  616MOL0     C83069   2.811   6.515   8.744 -0.3479  0.0344  0.7187
  616MOL0    Cl83070   2.851   6.499   8.918  0.1585  0.4571 -0.3613
  616MOL0     C83071   3.285   5.961   8.097 -0.0470  0.8540  0.6699
  616MOL0     C83072   3.405   5.897   8.092  0.1645  0.2093  0.4982
  616MOL0     O83073   3.663   5.899   8.343 -0.2251  0.1605  0.0040
  616MOL0     C83074   3.843   5.737   8.091  1.1095  0.4104  0.0462
  616MOL0     C83075   3.963   5.700   8.054 -0.4373 -0.2352  0.6697
  616MOL0     N83076   4.703   5.615   7.900 -0.7321  0.4300  0.6718
  616MOL0     N83077   4.801   5.662   7.833  0.2122 -0.0168 -0.3722
  616MOL0     C83078   5.989   5.320   7.567  0.1868  1.1357  0.7455
  616MOL0     C83079   6.124   5.286   7.605 -0.1555  0.0453  0.3753
  616MOL0     C83080   6.548   5.361   7.703  0.0928 -0.3207  0.1271
  616MOL0     C83081   6.628   5.310   7.596  0.1425  0.0781 -0.1322
  616MOL0     C83082   6.762   5.342   7.591 -1.1239  0.5061  1.0588
  616MOL0     C83083   6.825   5.417   7.688 -0.2688  0.2569 -1.4344
  616MOL0     O83084   6.956   5.444   7.658  0.5313 -0.5211 -0.2486
  616MOL0     C83085   7.023   5.554   7.721  0.3448 -0.2470  0.1507
  616MOL0     C83086   7.166   5.564   7.672  0.0275  0.1192 -0.8586
  616MOL0     C83087   7.237   5.687   7.724 -0.9306  0.2205 -0.3258
  616MOL0     C83088   7.392   5.671   7.719  0.0123 -0.4128  0.1540
  616MOL0     C83089   7.461   5.788   7.770 -0.3473 -0.4165 -0.1152
  616MOL0     C83090   7.519   5.889   7.809  0.6005  0.3833 -0.1611
  616MOL0     C83091   6.750   5.466   7.805  0.1000 -0.2047  0.1882
  616MOL0     C83092   6.610   5.434   7.807 -1.0006 -0.7574 -0.4248
  616MOL0     H83093   6.288   5.493   7.399  0.2828 -0.8868  0.9694
  616MOL0     H83094   6.041   5.559   7.335  2.8070  0.9940  0.4853
  616MOL0     H83095   5.869   5.659   7.455 -0.4809 -0.1134 -0.7012
  616MOL0     H83096   5.718   5.619   7.378 -0.1731  1.1121  1.5757
  616MOL0     H83097   5.770   5.584   7.670  0.2997  0.2336  0.0944
  616MOL0     H83098   5.671   5.719   7.615 -4.4037 -2.6046  2.8379
  616MOL0     H83099   5.529   5.524   7.488 -0.2506  3.0916 -0.3032
  616MOL0     H83100   5.600   5.428   7.612  1.7879 -0.0783 -3.5511
  616MOL0     H83101   5.528   5.620   7.776  1.2488 -1.4386 -0.0048
  616MOL0     H83102   5.453   5.701   7.647 -0.9387  0.5992  2.1004
  616MOL0     H83103   5.292   5.507   7.619  1.2204  0.7526 -1.0009
  616MOL0     H83104   5.351   5.423   7.761 -3.2425 -2.0402 -1.5922
  616MOL0     H83105   5.308   5.659   7.886 -1.4382  1.7943 -0.1259
  616MOL0     H83106   5.248   5.707   7.733  0.0422 -1.1483 -0.5926
  616MOL0     H83107   5.064   5.528   7.750 -3.4379  1.7018  1.3669
  616MOL0     H83108   5.125   5.493   7.917 -0.2019  0.8423  0.7233
  616MOL0     H83109   5.037   5.762   7.798  0.4447 -2.1083 -0.6199
  616MOL0     H83110   5.081   5.722   7.979 -1.2924  0.5111  1.2865
  616MOL0     H83111   4.922   5.574   8.135  0.4624  0.8922 -0.1180
  616MOL0     H83112   4.577   5.434   8.087 -1.3964 -0.0036  1.0790
  616MOL0     H83113   4.696   5.464   8.213  2.0617  2.5429 -0.7150
  616MOL0     H83114   4.575   5.708   8.224 -2.3064  1.4217  0.0235
  616MOL0     H83115   4.492   5.558   8.283  0.4406 -0.8294  0.2713
  616MOL0     H83116   4.416   5.564   8.027  1.7480  1.5971 -0.2757
  616MOL0     H83117   4.451   5.736   8.042  0.6966  1.3546  1.8799
  616MOL0     H83118   4.299   5.776   8.230 -0.1365  1.1703 -2.3261
  616MOL0     H83119   4.281   5.594   8.247 -0.9020  0.0586  1.4359
  616MOL0     H83120   4.126   5.732   8.352  0.5371  0.8444 -0.8744
  616MOL0     H83121   3.950   5.693   8.525  0.8063  2.0412  1.4663
  616MOL0     H83122   3.876   5.854   8.510 -1.7007 -0.5497  0.4167
  616MOL0     H83123   3.777   5.722   8.490 -0.3846  1.9651 -0.2626
  616MOL0     H83124   3.411   5.764   8.407 -0.1622  0.5598  0.4672
  616MOL0     H83125   3.200   5.858   8.411  4.9283 -0.3123  1.9247
  616MOL0     H83126   3.119   6.187   8.303 -0.2584  2.3079 -0.8676
  616MOL0     H83127   3.086   6.182   8.129  0.1115  1.7584  0.2205
  616MOL0     H83128   2.895   6.288   8.236  0.1955 -0.2153 -1.5250
  616MOL0     H83129   2.832   6.126   8.204  1.0693 -2.5903  0.3180
  616MOL0     H83130   2.958   6.213   8.459  0.9631 -2.5648  1.8480
  616MOL0     H83131   2.901   6.045   8.422 -2.5850 -1.3900 -3.2567
  616MOL0     H83132   2.669   6.115   8.385  1.1906 -0.9850 -1.6287
  616MOL0     H83133   2.722   6.146   8.545 -2.0318  0.7754  0.0914
  616MOL0     H83134   2.603   6.346   8.473 -0.7912  1.2453 -1.8056
  616MOL0     H83135   2.704   6.343   8.330  2.1109  1.4375  0.9925
  616MOL0     H83136   2.893   6.426   8.473  0.2582  0.4564 -0.8302
  616MOL0     H83137   2.739   6.516   8.506 -2.0878 -0.5116 -2.6086
  616MOL0     H83138   2.905   6.329   8.682  0.6481  0.7822  2.1176
  616MOL0     H83139   2.728   6.320   8.705  0.0264 -0.4616 -0.4643
  616MOL0     H83140   2.709   6.551   8.724 -2.0491 -4.5574 -0.1240
  616MOL0     H83141   2.891   6.577   8.704 -1.4582  1.2440  0.2800
  616MOL0     H83142   3.252   6.020   8.012 -0.7474  2.3868  1.9674
  616MOL0     H83143   3.465   5.912   8.003  1.9789  0.2466  1.6842
  616MOL0     H83144   3.766   5.746   8.015  0.7609  1.6257  0.5085
  616MOL0     H83145   3.992   5.667   7.954 -0.4564 -2.4405  1.3439
  616MOL0     H83146   5.904   5.269   7.610 -0.4078  0.6604 -0.9246
  616MOL0     H83147   6.137   5.208   7.679 -5.9961  0.0340  1.8850
  616MOL0     H83148   6.581   5.254   7.516  1.3262 -1.0189 -0.0856
  616MOL0     H83149   6.813   5.312   7.500 -0.4112  1.1596  1.2290
  616MOL0     H83150   6.971   5.649   7.709  1.3745  0.5334  1.4744
  616MOL0     H83151   7.023   5.535   7.829  1.0918  0.8451  0.3573
  616MOL0     H83152   7.152   5.563   7.564 -3.7908 -0.8579 -0.5369
  616MOL0     H83153   7.210   5.470   7.706 -4.7029 -3.0759 -2.4638
  616MOL0     H83154   7.222   5.694   7.832  0.3333  0.7252 -0.1607
  616MOL0     H83155   7.191   5.777   7.681 -3.6731 -0.6785  0.5362
  616MOL0     H83156   7.430   5.655   7.618  1.5896 -1.0103  0.8093
  616MOL0     H83157   7.424   5.585   7.779  1.4171  0.6552  1.0057
  616MOL0     H83158   7.560   5.978   7.852 -1.4463  1.3696 -0.1859
  616MOL0     H83159   6.798   5.524   7.883  2.0430  1.3653 -2.0286
  616MOL0     H83160   6.549   5.464   7.892 -2.2156  0.6417 -1.7220
  617MOL0     O83161   7.411   9.084   4.058 -0.4516 -0.4705  0.5003
  617MOL0     C83162   7.475   9.177   4.116  0.0484  0.2851 -0.3824
  617MOL0     O83163   7.421   9.282   4.178 -0.4962  0.2870 -0.5758
  617MOL0     C83164   7.285   9.304   4.166  0.5777  0.3085  0.0061
  617MOL0     C83165   7.198   9.202   4.210  0.4849  0.0159  0.7240
  617MOL0     C83166   7.059   9.201   4.176 -0.9076  0.4178 -0.6638
  617MOL0     C83167   7.003   9.319   4.129  0.9591 -0.4191  0.1813
  617MOL0     O83168   6.866   9.346   4.125 -0.4221 -0.6472 -0.1157
  617MOL0     C83169   6.775   9.267   4.201 -0.6873  0.3859  0.0170
  617MOL0     C83170   6.636   9.317   4.218 -0.2590 -0.0291  0.2527
  617MOL0     C83171   6.638   9.445   4.296 -0.4872 -0.1359  0.0679
  617MOL0     C83172   6.502   9.529   4.296  0.1139  0.2517  0.2860
  617MOL0     C83173   6.521   9.672   4.356  0.2235  0.1910 -0.1459
  617MOL0     C83174   6.506   9.657   4.510 -0.1033 -0.7341 -0.0766
  617MOL0     C83175   6.555   9.785   4.579  0.3012  0.4862 -0.3090
  617MOL0     C83176   6.616   9.761   4.709 -0.6972 -0.4255  0.4480
  617MOL0     N83177   6.516   9.725   4.816  0.5172  0.0386 -0.2777
  617MOL0     C83178   6.501   9.590   4.842  0.9343  0.0960  0.3120
  617MOL0     C83179   6.403   9.592   4.939 -0.3166  0.8134 -0.2128
  617MOL0     C83180   6.337   9.473   4.990  0.3332 -0.0407  0.2862
  617MOL0     C83181   6.336   9.452   5.142  0.1507 -0.1377 -0.5815
  617MOL0     C83182   6.252   9.554   5.222  0.1205 -0.5450 -0.2246
  617MOL0     C83183   6.243   9.526   5.375 -0.0082  0.5225  0.4525
  617MOL0     O83184   6.179   9.640   5.439  0.6070 -0.6320 -0.2280
  617MOL0     C83185   6.068   9.632   5.521  0.1298 -0.0647 -0.1012
  617MOL0     C83186   5.979   9.738   5.518 -0.9498  0.2580  0.2590
  617MOL0     C83187   5.856   9.743   5.594  0.6872 -0.5420 -0.8007
  617MOL0     C83188   5.779   9.879   5.595 -1.0990  0.1886  0.2992
  617MOL0     C83189   5.813   9.624   5.664 -0.4067  0.4148 -0.4641
  617MOL0     C83190   5.682   9.600   5.735  0.4811 -0.4440 -0.0303
  617MOL0     O83191   5.665   9.477   5.789 -0.2155  0.5685  0.2201
  617MOL0     C83192   5.538   9.464   5.843 -1.0916  0.4029 -0.1618
  617MOL0     C83193   5.537   9.450   5.978  0.3201 -0.2684 -0.4771
  617MOL0     C83194   5.420   9.433   6.047 -0.9794 -0.2470 -0.4743
  617MOL0     C83195   5.301   9.429   5.978  0.5735 -0.0878  1.0428
  617MOL0     O83196   5.191   9.413   6.058 -0.5910 -0.3466  0.2699
  617MOL0     C83197   5.096   9.319   6.009 -0.3417 -0.8095 -0.0943
  617MOL0     C83198   4.975   9.308   6.114 -0.7765 -0.0743  0.3448
  617MOL0     C83199   4.862   9.404   6.089  0.3194  0.2239 -0.1854
  617MOL0     C83200   4.765   9.380   6.208 -0.9206 -0.0163 -0.0030
  617MOL0     C83201   4.644   9.472   6.184 -0.5032  0.3315 -0.0153
  617MOL0     C83202   4.538   9.437   6.283 -0.1324 -0.2291 -0.3978
  617MOL0     C83203   4.399   9.500   6.246  0.3743  0.0336 -1.2603
  617MOL0     C83204   4.289   9.448   6.332 -0.2667 -0.3156 -0.4825
  617MOL0    Cl83205   4.136   9.529   6.287  0.2063  0.0392 -0.0108
  617MOL0     C83206   5.294   9.444   5.835 -0.2220 -0.0340  0.0417
  617MOL0     C83207   5.417   9.459   5.773 -0.6322  0.2268  0.4416
  617MOL0     O83208   5.603   9.700   5.744 -0.0108 -0.3876 -0.0859
  617MOL0     C83209   5.906   9.517   5.664 -0.1324 -0.2248 -0.3418
  617MOL0     C83210   6.027   9.514   5.593  0.1105 -1.2375  0.2765
  617MOL0     N83211   6.371   9.722   4.975 -0.8374 -0.3711 -0.3745
  617MOL0     N83212   6.445   9.804   4.908 -0.2082  0.0168  0.5091
  617MOL0     C83213   7.088   9.429   4.106  0.0165 -0.3598 -1.2258
  617MOL0     C83214   7.228   9.419   4.116 -0.1614  0.3435 -0.0969
  617MOL0     C83215   7.624   9.158   4.120 -0.0716  0.2651  0.2937
  617MOL0     C83216   7.689   9.061   4.037 -0.5429  0.5709 -0.8857
  617MOL0     C83217   7.830   9.052   4.036  0.0072  0.0928  0.5551
  617MOL0     C83218   7.904   9.145   4.103  0.1110 -0.0758  0.2736
  617MOL0     O83219   8.044   9.167   4.085 -0.7441 -0.3955  0.0675
  617MOL0     C83220   8.120   9.057   4.027 -0.5020  0.1026 -0.6875
  617MOL0     C83221   8.267   9.092   4.019  0.2681  0.8184  0.1758
  617MOL0     C83222   8.354   9.070   4.142 -0.1532  0.0214  0.7495
  617MOL0     C83223   8.501   9.098   4.110 -0.4077  0.2233 -0.2554
  617MOL0     C83224   8.588   9.053   4.220 -0.2326  0.6742 -0.2217
  617MOL0     C83225   8.673   9.021   4.303 -1.2460 -0.3662 -0.5320
  617MOL0     C83226   7.838   9.239   4.188 -0.0697  0.9183  0.0851
  617MOL0     C83227   7.696   9.241   4.202 -0.5815 -0.2542 -0.0706
  617MOL0     H83228   7.243   9.117   4.260  2.0876 -0.5707 -1.6085
  617MOL0     H83229   6.991   9.120   4.203  0.1036 -0.3804 -0.4569
  617MOL0     H83230   6.759   9.174   4.145  1.2110  1.5233 -2.6217
  617MOL0     H83231   6.820   9.245   4.298  0.6211 -0.4836 -0.7647
  617MOL0     H83232   6.589   9.326   4.120 -2.2920  0.4818  1.2302
  617MOL0     H83233   6.576   9.240   4.267 -1.7085  1.6691  1.2527
  617MOL0     H83234   6.675   9.422   4.396  1.0824  0.7431 -0.2616
  617MOL0     H83235   6.714   9.515   4.258 -0.8916 -0.1824 -0.8621
  617MOL0     H83236   6.475   9.550   4.192  2.1271  1.8497  0.0318
  617MOL0     H83237   6.426   9.478   4.356 -2.0825  2.7926 -0.1374
  617MOL0     H83238   6.617   9.713   4.325  0.2212  0.6021  0.3796
  617MOL0     H83239   6.441   9.726   4.305  0.7716 -0.8232 -2.1564
  617MOL0     H83240   6.403   9.635   4.539 -0.4680  1.0938  0.1311
  617MOL0     H83241   6.573   9.580   4.548 -0.0124 -0.6081  0.0197
  617MOL0     H83242   6.621   9.843   4.514 -1.6261  1.6731 -1.2982
  617MOL0     H83243   6.463   9.844   4.589 -0.0006 -0.0158 -0.0875
  617MOL0     H83244   6.671   9.852   4.733 -1.3673  0.4080 -1.0622
  617MOL0     H83245   6.692   9.685   4.693 -0.0043  0.6551 -1.7338
  617MOL0     H83246   6.541   9.504   4.788  1.5285  0.7211 -0.2636
  617MOL0     H83247   6.234   9.466   4.953  0.6733 -1.3800 -0.4751
  617MOL0     H83248   6.381   9.389   4.937 -2.3683  0.1854 -2.6413
  617MOL0     H83249   6.441   9.457   5.172 -0.2933  0.5137  0.9807
  617MOL0     H83250   6.287   9.359   5.171  0.6685  0.6583  3.4643
  617MOL0     H83251   6.156   9.547   5.169  1.4027 -4.3506 -2.4677
  617MOL0     H83252   6.278   9.658   5.204  1.8824 -1.2201 -1.9998
  617MOL0     H83253   6.342   9.521   5.421  0.5099  3.7018 -0.0260
  617MOL0     H83254   6.190   9.433   5.396 -2.8033  1.6210 -1.1292
  617MOL0     H83255   6.004   9.825   5.458 -2.6639 -0.3573 -1.4882
  617MOL0     H83256   5.850   9.961   5.584  2.0288 -2.6554 -3.1698
  617MOL0     H83257   5.704   9.888   5.516 -2.2830  0.4392  1.4074
  617MOL0     H83258   5.731   9.896   5.693  2.1566  2.5710  1.6560
  617MOL0     H83259   5.632   9.449   6.030  0.4657  1.0285 -0.6893
  617MOL0     H83260   5.415   9.415   6.154 -1.6463 -1.1877 -0.6563
  617MOL0     H83261   5.053   9.348   5.912 -0.7003  1.4945  0.6747
  617MOL0     H83262   5.142   9.220   6.002  0.6088 -0.2686 -2.1788
  617MOL0     H83263   4.931   9.208   6.105  0.9411 -1.0126  1.6943
  617MOL0     H83264   5.014   9.315   6.216 -1.2801  1.4678  0.4608
  617MOL0     H83265   4.811   9.392   5.993 -0.8230 -0.4547  0.4678
  617MOL0     H83266   4.888   9.509   6.101 -1.2787  0.5331  0.9632
  617MOL0     H83267   4.739   9.274   6.218  1.2957 -0.5257  0.8305
  617MOL0     H83268   4.817   9.409   6.299 -2.5699 -0.7072  1.2128
  617MOL0     H83269   4.619   9.470   6.077 -0.6228  2.9969 -0.0973
  617MOL0     H83270   4.665   9.577   6.206 -1.5516  0.5007  0.2348
  617MOL0     H83271   4.520   9.332   6.309 -4.8196  0.9164  1.9785
  617MOL0     H83272   4.567   9.487   6.376 -0.3522  2.6788 -1.7622
  617MOL0     H83273   4.374   9.477   6.143 -1.1108 -0.7317 -0.7583
  617MOL0     H83274   4.410   9.608   6.251  1.4781 -0.1145  0.9292
  617MOL0     H83275   4.321   9.460   6.436 -0.7608 -0.9637 -0.2488
  617MOL0     H83276   4.272   9.341   6.321 -1.6422 -0.3441  1.3106
  617MOL0     H83277   5.203   9.435   5.775 -0.6819  1.1624  0.5398
  617MOL0     H83278   5.417   9.463   5.665 -1.5799 -1.2778  0.3636
  617MOL0     H83279   5.875   9.427   5.715  1.1960 -1.5195 -1.6987
  617MOL0     H83280   6.099   9.433   5.605  1.6229 -0.0272 -0.3919
  617MOL0     H83281   7.061   9.529   4.071  1.0968  0.3908  0.0088
  617MOL0     H83282   7.300   9.498   4.098 -1.5763  1.9717  1.0065
  617MOL0     H83283   7.628   9.001   3.970  0.0350  1.1385 -1.9406
  617MOL0     H83284   7.870   8.982   3.962 -0.9343  2.7768 -2.7628
  617MOL0     H83285   8.107   8.971   4.093  1.5097 -0.7421 -1.3291
  617MOL0     H83286   8.087   9.023   3.929  1.5750 -3.6912 -0.2439
  617MOL0     H83287   8.282   9.195   3.984  1.9544  0.8012  0.7856
  617MOL0     H83288   8.315   9.028   3.945  1.2263 -1.3398  2.5401
  617MOL0     H83289   8.347   8.966   4.174 -1.0830 -0.0121  0.4552
  617MOL0     H83290   8.323   9.136   4.223  0.6048 -1.2589  2.1185
  617MOL0     H83291   8.523   9.205   4.104  0.3930  0.0991  0.2589
  617MOL0     H83292   8.524   9.054   4.013 -0.0592 -0.6292  0.1973
  617MOL0     H83293   8.751   8.998   4.373 -1.5171 -1.1781 -0.4925
  617MOL0     H83294   7.899   9.299   4.256 -2.1525  0.1358  2.8362
  617MOL0     H83295   7.654   9.312   4.273  0.1213 -0.1235  0.2268
  618MOL0     O83296   0.892   9.664   3.514  0.1978  0.6735 -0.2913
  618MOL0     C83297   0.951   9.574   3.571 -0.1248 -0.2115 -1.3181
  618MOL0     O83298   0.894   9.474   3.644  0.8780 -0.4426 -0.4754
  618MOL0     C83299   0.759   9.466   3.637 -0.2616 -0.5574 -0.1331
  618MOL0     C83300   0.690   9.391   3.539 -0.0195  0.3032 -0.0656
  618MOL0     C83301   0.553   9.414   3.516  0.0331 -0.1046  0.9200
  618MOL0     C83302   0.482   9.492   3.602  0.9226  0.1577 -0.1562
  618MOL0     O83303   0.346   9.519   3.585 -0.5609  0.2064 -0.9232
  618MOL0     C83304   0.319   9.653   3.540  0.1271  0.1867 -0.4385
  618MOL0     C83305   0.200   9.675   3.439 -0.1296 -0.0862 -0.6077
  618MOL0     C83306   0.245   9.619   3.305 -0.4520 -0.3019  1.0289
  618MOL0     C83307   0.351   9.705   3.236  0.3922 -0.4202  0.2399
  618MOL0     C83308   0.397   9.643   3.101 -0.3242  0.5653  0.3526
  618MOL0     C83309   0.512   9.539   3.117 -0.4640 -0.2104 -0.2914
  618MOL0     C83310   0.543   9.479   2.987  0.0973 -0.4624  1.1317
  618MOL0     C83311   0.649   9.358   2.997  0.2384 -0.4893  0.0433
  618MOL0     N83312   0.622   9.263   3.107 -0.2071  0.0017 -0.9752
  618MOL0     C83313   0.516   9.173   3.099 -0.6287 -0.1954 -0.3938
  618MOL0     C83314   0.523   9.098   3.211 -0.6690 -0.2262 -0.2459
  618MOL0     C83315   0.430   8.986   3.249  0.5141  0.0685 -0.1178
  618MOL0     C83316   0.443   8.937   3.393 -0.7608  0.2637  0.2694
  618MOL0     C83317   0.331   8.838   3.426  0.0405 -0.2928 -0.4834
  618MOL0     C83318   0.342   8.773   3.557  0.1584  0.2848 -0.5548
  618MOL0     O83319   0.276   8.647   3.564 -0.3957 -0.9278 -0.5968
  618MOL0     C83320   0.145   8.637   3.582 -0.8193  0.0684  0.0695
  618MOL0     C83321   0.069   8.748   3.620  0.3086 -0.0871  0.5745
  618MOL0     C83322  -0.066   8.730   3.645  0.4805 -0.6695  0.6847
  618MOL0     C83323  -0.132   8.861   3.690  0.1956 -0.1325 -0.1666
  618MOL0     C83324  -0.133   8.609   3.630 -0.2590 -0.7590  0.9679
  618MOL0     C83325  -0.278   8.585   3.660 -0.2235 -0.2940  1.4805
  618MOL0     O83326  -0.319   8.465   3.624 -1.0023 -0.5209 -0.3541
  618MOL0     C83327  -0.449   8.427   3.652  0.1514 -0.5576  0.3752
  618MOL0     C83328  -0.555   8.463   3.569  0.5266  0.1736 -0.5122
  618MOL0     C83329  -0.680   8.407   3.587  0.8712  0.5678  0.1529
  618MOL0     C83330  -0.704   8.313   3.686 -0.6971  0.0471 -0.6759
  618MOL0     O83331  -0.814   8.241   3.692  0.4150  0.5400 -0.3761
  618MOL0     C83332  -0.928   8.325   3.714 -0.3981 -0.6613  0.4170
  618MOL0     C83333  -1.030   8.258   3.805  0.0561 -0.0600  0.6346
  618MOL0     C83334  -1.141   8.364   3.831 -0.1799 -0.0035  0.4213
  618MOL0     C83335  -1.272   8.317   3.897 -0.4946 -0.2429  0.0983
  618MOL0     C83336  -1.383   8.436   3.868  0.0645  0.3782 -0.1010
  618MOL0     C83337  -1.517   8.399   3.919 -0.9730 -0.0433  0.2490
  618MOL0     C83338  -1.613   8.510   3.884  1.1425  0.3263  0.1692
  618MOL0     C83339  -1.753   8.439   3.890 -0.5381 -0.7135  0.6977
  618MOL0    Cl83340  -1.778   8.343   3.734 -0.0127  0.7605  0.3800
  618MOL0     C83341  -0.598   8.275   3.771 -0.8327  0.0099 -1.1194
  618MOL0     C83342  -0.470   8.337   3.757  0.6976  0.5078  0.1146
  618MOL0     O83343  -0.342   8.677   3.704  0.4223  0.4751 -0.0004
  618MOL0     C83344  -0.051   8.499   3.597  0.8373 -0.5892  0.2792
  618MOL0     C83345   0.084   8.512   3.561 -0.2435 -0.5085 -0.2416
  618MOL0     N83346   0.643   9.142   3.278  0.4295 -0.2033 -0.4632
  618MOL0     N83347   0.709   9.234   3.208  0.5260 -0.7666  0.6540
  618MOL0     C83348   0.546   9.545   3.717  0.2805  0.7206  0.6440
  618MOL0     C83349   0.679   9.539   3.728  0.4081 -1.3366 -0.9083
  618MOL0     C83350   1.098   9.580   3.575  0.1203  0.5378  0.6844
  618MOL0     C83351   1.176   9.493   3.653  0.5246  0.5327  0.4942
  618MOL0     C83352   1.312   9.480   3.631 -0.2679 -0.3946  0.1155
  618MOL0     C83353   1.371   9.546   3.521 -0.6826 -0.2890 -1.0131
  618MOL0     O83354   1.503   9.530   3.490 -0.3312 -0.0589 -0.6182
  618MOL0     C83355   1.602   9.522   3.591 -0.6545  0.3429 -0.1098
  618MOL0     C83356   1.739   9.560   3.528  0.0976  0.7576 -1.1836
  618MOL0     C83357   1.786   9.457   3.433  0.2494 -0.0405  0.3429
  618MOL0     C83358   1.931   9.498   3.381  0.3397 -0.2817  0.1933
  618MOL0     C83359   1.899   9.593   3.275  0.4500  0.1267 -0.1933
  618MOL0     C83360   1.885   9.676   3.187  0.0504  0.7510 -0.0471
  618MOL0     C83361   1.296   9.631   3.442 -0.3432 -0.5072 -0.7253
  618MOL0     C83362   1.151   9.652   3.468  0.1582  0.6703 -0.0162
  618MOL0     H83363   0.742   9.337   3.460  0.2861  0.7754 -0.1911
  618MOL0     H83364   0.503   9.362   3.436  0.1634 -1.8168  1.9052
  618MOL0     H83365   0.299   9.715   3.629  0.9093  0.9979 -0.8128
  618MOL0     H83366   0.412   9.692   3.500  1.6876 -1.9771  0.8650
  618MOL0     H83367   0.109   9.624   3.473  0.5792 -0.0478  1.4895
  618MOL0     H83368   0.175   9.781   3.433 -3.9824 -0.7474  0.6525
  618MOL0     H83369   0.285   9.517   3.318 -0.7209 -0.4676  0.5709
  618MOL0     H83370   0.162   9.621   3.234  0.0108 -0.1255  0.4839
  618MOL0     H83371   0.312   9.804   3.211  0.8869 -0.1019  0.6981
  618MOL0     H83372   0.440   9.719   3.298  1.3654 -0.5856 -1.0673
  618MOL0     H83373   0.311   9.596   3.051 -0.7310 -0.0679  1.6078
  618MOL0     H83374   0.431   9.723   3.035  0.7814  0.0831  0.3208
  618MOL0     H83375   0.600   9.587   3.160 -0.0422 -0.6720 -0.6396
  618MOL0     H83376   0.485   9.466   3.194 -0.4868 -1.3046 -1.3245
  618MOL0     H83377   0.453   9.443   2.937 -0.5323  0.3380  1.6676
  618MOL0     H83378   0.586   9.561   2.928  0.8475  0.0512  2.3573
  618MOL0     H83379   0.751   9.398   3.004 -0.5444  1.4019  2.0290
  618MOL0     H83380   0.644   9.297   2.906 -1.4529 -1.7978  0.9555
  618MOL0     H83381   0.447   9.164   3.016 -0.8668 -1.3342 -0.0855
  618MOL0     H83382   0.331   9.031   3.236  0.7396  0.7161  0.3579
  618MOL0     H83383   0.434   8.904   3.177  3.0982 -0.2987  0.3309
  618MOL0     H83384   0.443   9.022   3.461 -0.2883 -0.0150  0.6247
  618MOL0     H83385   0.537   8.887   3.418 -0.6962  0.7062  0.9346
  618MOL0     H83386   0.329   8.758   3.352 -0.0748 -1.7353  1.0317
  618MOL0     H83387   0.238   8.893   3.408  0.7589  0.8026 -0.9718
  618MOL0     H83388   0.333   8.826   3.653  2.4449 -2.3756  1.2673
  618MOL0     H83389   0.443   8.732   3.561 -0.3322 -1.0507 -1.5712
  618MOL0     H83390   0.126   8.838   3.643  2.1977 -1.0001 -0.2627
  618MOL0     H83391  -0.156   8.852   3.796  1.6723 -0.1079  0.1856
  618MOL0     H83392  -0.070   8.946   3.658 -1.0050  0.2173 -1.6975
  618MOL0     H83393  -0.228   8.871   3.638 -0.3004 -0.4229  0.6854
  618MOL0     H83394  -0.547   8.533   3.487 -3.3203 -0.8686 -2.0033
  618MOL0     H83395  -0.761   8.442   3.524 -0.3201  1.8175  2.2528
  618MOL0     H83396  -0.900   8.426   3.743 -1.4112  0.4824 -2.2021
  618MOL0     H83397  -0.978   8.335   3.617  1.8368  3.6876 -0.5268
  618MOL0     H83398  -1.075   8.175   3.750 -1.6877  0.3263  1.3868
  618MOL0     H83399  -0.981   8.229   3.899 -0.1080 -2.7500 -0.0325
  618MOL0     H83400  -1.189   8.397   3.738 -2.9017 -2.0265  0.9583
  618MOL0     H83401  -1.095   8.451   3.879  2.6973 -2.3134  2.1545
  618MOL0     H83402  -1.305   8.221   3.858 -2.4754  1.2511 -2.1266
  618MOL0     H83403  -1.256   8.304   4.005  0.2575 -2.8631 -0.2538
  618MOL0     H83404  -1.395   8.453   3.760  0.9402 -0.4236 -0.3366
  618MOL0     H83405  -1.357   8.531   3.915  0.5159  0.3993 -0.3949
  618MOL0     H83406  -1.547   8.304   3.875 -2.3645  1.7026 -2.9448
  618MOL0     H83407  -1.506   8.385   4.027 -1.6493 -1.1028  0.1912
  618MOL0     H83408  -1.609   8.558   3.785  0.2769  1.9865  0.9042
  618MOL0     H83409  -1.601   8.587   3.961  1.9031  0.2118  0.1767
  618MOL0     H83410  -1.823   8.523   3.899 -0.5811 -0.6028 -0.5374
  618MOL0     H83411  -1.758   8.373   3.977 -1.7063 -0.4861  0.8203
  618MOL0     H83412  -0.605   8.195   3.844 -0.1512  0.0422 -1.0088
  618MOL0     H83413  -0.387   8.318   3.825 -1.5836 -1.7186  2.5123
  618MOL0     H83414  -0.090   8.398   3.602 -1.2862  0.2334  3.1234
  618MOL0     H83415   0.159   8.437   3.537  1.9589  1.2869  0.6779
  618MOL0     H83416   0.478   9.584   3.792 -2.3015 -0.4454 -0.9402
  618MOL0     H83417   0.720   9.593   3.812  2.8011 -3.7812 -0.3767
  618MOL0     H83418   1.138   9.434   3.736 -1.7414 -0.1229 -0.9152
  618MOL0     H83419   1.374   9.414   3.691  2.2236  2.5655  1.0372
  618MOL0     H83420   1.575   9.597   3.666  2.1343  1.3364  0.0149
  618MOL0     H83421   1.606   9.427   3.646  1.7441 -0.0984 -0.9010
  618MOL0     H83422   1.816   9.571   3.605  2.2732 -1.9565 -2.7748
  618MOL0     H83423   1.729   9.657   3.479 -0.2551  2.4293  1.9022
  618MOL0     H83424   1.709   9.449   3.356 -1.7783 -0.1102  2.2779
  618MOL0     H83425   1.793   9.360   3.482 -1.1008  0.7708  2.2814
  618MOL0     H83426   1.978   9.412   3.333 -1.7665 -1.0681 -0.6013
  618MOL0     H83427   1.999   9.540   3.455  0.4620  0.6729 -0.4446
  618MOL0     H83428   1.879   9.745   3.105 -0.4408  0.7330 -0.0304
  618MOL0     H83429   1.354   9.678   3.363  0.5182 -1.0888 -0.4509
  618MOL0     H83430   1.105   9.713   3.391  1.1202  0.9458 -0.3990
  619MOL0     O83431   0.236   3.286  10.062 -0.3307  0.0791  0.4390
  619MOL0     C83432   0.293   3.304   9.955 -0.5444 -0.2869  0.2968
  619MOL0     O83433   0.235   3.355   9.834  0.3797  1.0920  0.0768
  619MOL0     C83434   0.109   3.400   9.834  0.4212  0.2687 -0.2212
  619MOL0     C83435   0.002   3.325   9.887  0.1412  1.0140  0.0750
  619MOL0     C83436  -0.122   3.377   9.904  0.1798  0.6476  0.3088
  619MOL0     C83437  -0.151   3.502   9.855  0.2620  0.9449 -0.7072
  619MOL0     O83438  -0.284   3.544   9.851 -0.0036  0.5589 -0.3609
  619MOL0     C83439  -0.387   3.448   9.829 -0.5016 -0.0555 -0.4066
  619MOL0     C83440  -0.499   3.529   9.800  0.4490  0.6230  1.0159
  619MOL0     C83441  -0.629   3.450   9.809 -0.2060 -1.1332  0.5435
  619MOL0     C83442  -0.750   3.541   9.815 -0.4622  0.3656  0.1479
  619MOL0     C83443  -0.874   3.461   9.860 -0.2302 -0.0459  0.0196
  619MOL0     C83444  -0.991   3.554   9.911 -0.4633 -0.7472  0.0843
  619MOL0     C83445  -1.077   3.589   9.800  0.0590 -0.2782 -0.1342
  619MOL0     C83446  -1.205   3.659   9.831 -0.5105 -0.4195 -0.3653
  619MOL0     N83447  -1.295   3.591   9.920 -0.0354  0.1969  0.3320
  619MOL0     C83448  -1.309   3.609  10.057  0.3775 -0.3141 -0.2376
  619MOL0     C83449  -1.427   3.543  10.093  1.0582  0.8052 -0.2743
  619MOL0     C83450  -1.472   3.520  10.237 -0.7807  0.0891  0.2807
  619MOL0     C83451  -1.613   3.585  10.260 -0.0960  0.3476  0.5035
  619MOL0     C83452  -1.663   3.549  10.403  0.2434 -0.1151  0.8199
  619MOL0     C83453  -1.783   3.632  10.434  0.0803 -0.0710 -0.2074
  619MOL0     O83454  -1.744   3.771  10.427 -0.4865  0.1449  0.1817
  619MOL0     C83455  -1.848   3.864  10.434 -0.4275  0.8352 -0.4472
  619MOL0     C83456  -1.987   3.835  10.420  0.3590 -0.1059 -0.5976
  619MOL0     C83457  -2.084   3.935  10.437  0.0724  0.3407 -0.6024
  619MOL0     C83458  -2.226   3.897  10.430  0.3888  0.4237 -0.4146
  619MOL0     C83459  -2.042   4.061  10.470 -0.5491 -0.2106  0.5975
  619MOL0     C83460  -2.131   4.185  10.483 -0.3499  0.6956  0.5605
  619MOL0     O83461  -2.239   4.182  10.575 -0.1305 -0.4974  0.2723
  619MOL0     C83462  -2.317   4.293  10.579  1.1567 -0.9040 -0.4080
  619MOL0     C83463  -2.278   4.417  10.625  0.2712 -0.1763  0.2160
  619MOL0     C83464  -2.366   4.522  10.637  0.7815  0.1312  0.1850
  619MOL0     C83465  -2.498   4.508  10.589 -0.1025 -0.7027  0.7061
  619MOL0     O83466  -2.585   4.620  10.597 -0.4680  0.2492 -0.5818
  619MOL0     C83467  -2.694   4.635  10.509  0.1209 -0.1807  0.0605
  619MOL0     C83468  -2.764   4.772  10.551 -0.1161  0.5567 -0.3206
  619MOL0     C83469  -2.838   4.754  10.686  0.0045  1.0158  0.6055
  619MOL0     C83470  -2.931   4.865  10.704  0.4122  0.2075 -0.7996
  619MOL0     C83471  -2.994   4.870  10.842 -0.2322  0.1321 -0.4355
  619MOL0     C83472  -3.109   4.976  10.853 -0.4046  0.9213 -0.0399
  619MOL0     C83473  -3.131   5.009  10.999 -0.3167 -1.1730 -0.2275
  619MOL0     C83474  -3.017   5.094  11.066  0.4138  0.4761 -0.3935
  619MOL0    Cl83475  -2.938   4.984  11.175 -0.0609 -0.4371  0.0173
  619MOL0     C83476  -2.536   4.391  10.527  0.2274  0.1104 -0.0123
  619MOL0     C83477  -2.450   4.283  10.525 -0.3676 -0.0831 -0.7153
  619MOL0     O83478  -2.093   4.282  10.419  0.2350  0.4288  0.2539
  619MOL0     C83479  -1.905   4.091  10.493 -0.5071 -0.7198 -0.3715
  619MOL0     C83480  -1.808   3.991  10.479  0.4862 -0.1724  0.2155
  619MOL0     N83481  -1.490   3.504   9.972 -0.2191  0.5228  0.2300
  619MOL0     N83482  -1.406   3.521   9.874 -0.0646  0.7899 -0.8904
  619MOL0     C83483  -0.049   3.586   9.808  1.4634 -0.1277 -0.4146
  619MOL0     C83484   0.082   3.530   9.799  0.7977 -0.1496 -0.3642
  619MOL0     C83485   0.438   3.275   9.966 -0.7702 -0.0486 -0.8311
  619MOL0     C83486   0.510   3.275  10.086 -0.1602 -0.0588 -0.9630
  619MOL0     C83487   0.644   3.269  10.100 -0.5207 -0.3487 -0.4691
  619MOL0     C83488   0.722   3.260   9.986  0.2204 -0.2646 -0.1538
  619MOL0     O83489   0.858   3.264   9.971 -0.0280 -0.3617 -0.1294
  619MOL0     C83490   0.936   3.274  10.089  0.2556  0.8611  0.3724
  619MOL0     C83491   1.080   3.302  10.044 -0.2169 -0.0506 -0.3321
  619MOL0     C83492   1.094   3.438   9.965  0.4518  0.4089  0.1159
  619MOL0     C83493   1.245   3.482   9.961  0.2736  0.5296  0.0072
  619MOL0     C83494   1.323   3.398   9.868  0.1455  0.1312 -0.7232
  619MOL0     C83495   1.379   3.328   9.781  0.0316  0.4076 -0.9359
  619MOL0     C83496   0.651   3.247   9.860 -0.9043 -0.9718 -0.3113
  619MOL0     C83497   0.513   3.256   9.851  0.5520  0.3941  0.2054
  619MOL0     H83498   0.016   3.221   9.911 -3.8366 -0.5519 -3.0599
  619MOL0     H83499  -0.196   3.306   9.936  0.8974 -1.6595 -2.7252
  619MOL0     H83500  -0.357   3.378   9.750 -3.4092 -1.5201 -0.3179
  619MOL0     H83501  -0.405   3.392   9.921  2.0339 -0.2223  0.0745
  619MOL0     H83502  -0.501   3.615   9.867 -2.2640 -1.9845  4.7425
  619MOL0     H83503  -0.502   3.563   9.696 -3.8610  0.1337  0.7965
  619MOL0     H83504  -0.638   3.391   9.717  1.3883 -0.1389 -0.2859
  619MOL0     H83505  -0.631   3.378   9.892  0.6591 -0.8929  0.7856
  619MOL0     H83506  -0.731   3.631   9.873 -0.8437 -0.2427  1.2391
  619MOL0     H83507  -0.769   3.584   9.716  0.2190  1.0190  0.2933
  619MOL0     H83508  -0.899   3.398   9.774  2.2267  1.6382 -2.0719
  619MOL0     H83509  -0.843   3.403   9.948  0.9593  3.4975  2.1139
  619MOL0     H83510  -1.051   3.510   9.991 -0.2292 -2.8511 -0.8348
  619MOL0     H83511  -0.955   3.650   9.951 -2.0964  0.6235 -1.5265
  619MOL0     H83512  -1.020   3.644   9.725 -0.3995  0.0991 -0.2125
  619MOL0     H83513  -1.111   3.495   9.756 -1.0323  0.7951 -1.6618
  619MOL0     H83514  -1.253   3.676   9.734  0.8758  1.0296 -0.8323
  619MOL0     H83515  -1.173   3.754   9.873 -2.4949  1.8931 -3.6271
  619MOL0     H83516  -1.240   3.658  10.124  0.7298  0.2629 -1.0113
  619MOL0     H83517  -1.474   3.411  10.252  1.9021  0.2278  2.4463
  619MOL0     H83518  -1.396   3.552  10.309 -2.0486  0.5726  1.4465
  619MOL0     H83519  -1.674   3.537  10.184  0.5750 -2.8131  1.8086
  619MOL0     H83520  -1.608   3.693  10.241  0.7266 -0.1337 -2.5027
  619MOL0     H83521  -1.584   3.565  10.477  2.2309 -0.0554 -1.2202
  619MOL0     H83522  -1.690   3.443  10.408 -1.1513  0.1494 -0.3286
  619MOL0     H83523  -1.825   3.602  10.531 -1.0981 -2.5155 -1.3837
  619MOL0     H83524  -1.863   3.604  10.365 -0.9178 -0.3431  1.0279
  619MOL0     H83525  -2.010   3.732  10.394  0.4476 -1.0729  2.6912
  619MOL0     H83526  -2.261   3.859  10.334 -0.5482  1.3700 -0.4695
  619MOL0     H83527  -2.241   3.811  10.495  1.4965 -2.3122 -3.5521
  619MOL0     H83528  -2.299   3.975  10.458  0.5119  0.4341 -0.1242
  619MOL0     H83529  -2.177   4.428  10.665 -0.5540  4.0563  1.6318
  619MOL0     H83530  -2.351   4.614  10.692  0.0831  0.4009 -0.0586
  619MOL0     H83531  -2.652   4.648  10.409  0.8445  0.4221  0.4380
  619MOL0     H83532  -2.766   4.555  10.529  2.2794 -1.8358  1.7862
  619MOL0     H83533  -2.692   4.854  10.555  1.2992 -0.6871  1.4344
  619MOL0     H83534  -2.829   4.810  10.472 -0.1561  2.8729  0.7683
  619MOL0     H83535  -2.780   4.739  10.778  1.5109 -2.0979 -0.7160
  619MOL0     H83536  -2.896   4.661  10.687 -0.3513  1.1498  3.7582
  619MOL0     H83537  -2.868   4.954  10.700  0.4937  0.6935  4.3760
  619MOL0     H83538  -3.005   4.870  10.624 -0.1033 -0.5793 -0.3795
  619MOL0     H83539  -2.905   4.874  10.906 -1.9524 -1.3111  2.2549
  619MOL0     H83540  -3.048   4.777  10.866 -0.7123  0.4618 -0.2260
  619MOL0     H83541  -3.077   5.064  10.795 -0.1802  0.7812 -0.1303
  619MOL0     H83542  -3.199   4.936  10.805  0.4602 -2.0032  0.6268
  619MOL0     H83543  -3.146   4.918  11.059  0.4146 -0.0059  1.8135
  619MOL0     H83544  -3.218   5.075  11.006  1.1960  1.0737 -1.6349
  619MOL0     H83545  -3.062   5.173  11.127 -1.8892 -0.8226 -0.2708
  619MOL0     H83546  -2.933   5.122  11.002  1.9729 -0.9457  0.9341
  619MOL0     H83547  -2.632   4.390  10.476  1.1961  2.1873 -2.1049
  619MOL0     H83548  -2.482   4.186  10.488  1.9089 -2.7397  3.5056
  619MOL0     H83549  -1.871   4.189  10.525 -0.6828 -0.6577 -0.3726
  619MOL0     H83550  -1.706   4.018  10.502  0.6008 -0.1813 -0.2585
  619MOL0     H83551  -0.074   3.688   9.782 -1.5724 -1.2822 -2.6938
  619MOL0     H83552   0.165   3.584   9.754  1.6953 -0.8981  0.3410
  619MOL0     H83553   0.447   3.287  10.174  1.2715  0.3842  0.0568
  619MOL0     H83554   0.684   3.270  10.201 -2.4422 -1.5317  0.3532
  619MOL0     H83555   0.902   3.351  10.158 -0.0825  1.1531 -0.1175
  619MOL0     H83556   0.925   3.182  10.148 -2.4610  0.4486 -0.6617
  619MOL0     H83557   1.129   3.220   9.990  1.5517  0.3153  0.6366
  619MOL0     H83558   1.128   3.309  10.142  3.6192  1.4791 -2.0796
  619MOL0     H83559   1.036   3.519  10.011  0.9440 -0.7936  3.0878
  619MOL0     H83560   1.059   3.425   9.862 -0.3099  1.5389  0.2030
  619MOL0     H83561   1.288   3.483  10.062 -0.7355 -0.5548  0.4736
  619MOL0     H83562   1.248   3.583   9.919 -0.7381  1.5518  2.2440
  619MOL0     H83563   1.424   3.265   9.708 -1.8939 -0.2219 -1.6535
  619MOL0     H83564   0.719   3.235   9.777  1.5761  1.4957  1.1942
  619MOL0     H83565   0.471   3.269   9.751  1.5973 -1.1175 -0.4798
  620MOL0     O83566   9.158   1.788   0.356 -0.1071 -0.4425  0.4434
  620MOL0     C83567   9.186   1.686   0.296 -0.4420 -0.3840  0.2237
  620MOL0     O83568   9.095   1.610   0.225 -0.4522  0.0075  0.0420
  620MOL0     C83569   8.971   1.659   0.206 -0.3314  0.2649  0.4466
  620MOL0     C83570   8.946   1.788   0.155 -0.5850  0.4840 -0.0895
  620MOL0     C83571   8.819   1.830   0.127  0.5106  0.2741  0.5580
  620MOL0     C83572   8.704   1.744   0.140  0.2995  0.3340  0.0058
  620MOL0     O83573   8.581   1.801   0.101 -0.2719 -0.2643  0.1577
  620MOL0     C83574   8.471   1.736   0.158  0.2692  0.5901 -0.0849
  620MOL0     C83575   8.355   1.824   0.137  0.1455 -1.0126 -0.0291
  620MOL0     C83576   8.219   1.748   0.147  0.2769  0.6866 -0.6099
  620MOL0     C83577   8.110   1.821   0.068 -0.6504 -0.1793  0.0689
  620MOL0     C83578   7.967   1.783   0.102 -0.5978 -0.6651 -0.5379
  620MOL0     C83579   7.880   1.797  -0.025 -0.0295  0.3254 -0.0415
  620MOL0     C83580   7.733   1.786   0.012 -0.0156  0.3919 -0.2324
  620MOL0     C83581   7.640   1.809  -0.110  0.2837  0.5680 -0.1138
  620MOL0     N83582   7.501   1.788  -0.071 -0.3454 -0.3575  0.2370
  620MOL0     C83583   7.426   1.873  -0.002  0.3999 -0.6942 -0.9485
  620MOL0     C83584   7.297   1.831  -0.005 -0.1063 -0.0924  0.3347
  620MOL0     C83585   7.175   1.909   0.029  0.0672  0.8686 -0.2205
  620MOL0     C83586   7.167   1.984   0.168  0.1875  0.2686 -0.6042
  620MOL0     C83587   7.108   2.125   0.165 -0.0467 -0.0723  0.2469
  620MOL0     C83588   6.962   2.137   0.115 -0.5516  0.7250  0.0312
  620MOL0     O83589   6.901   2.243   0.174 -0.4209  0.3550 -0.7681
  620MOL0     C83590   6.762   2.248   0.174 -0.1171  0.0480 -0.7144
  620MOL0     C83591   6.683   2.182   0.088 -0.1277 -0.3076 -0.0903
  620MOL0     C83592   6.548   2.208   0.083 -0.1972 -0.1405 -0.3001
  620MOL0     C83593   6.474   2.123  -0.023 -0.0042 -0.6070 -0.6565
  620MOL0     C83594   6.479   2.303   0.164  0.1535 -0.1988  0.1453
  620MOL0     C83595   6.345   2.346   0.154 -0.3704  0.7277  0.1159
  620MOL0     O83596   6.305   2.453   0.232 -0.4171 -0.3271 -0.0846
  620MOL0     C83597   6.169   2.464   0.256 -0.0747  0.1057 -0.5141
  620MOL0     C83598   6.098   2.367   0.328 -0.2263  0.3258  1.4292
  620MOL0     C83599   5.960   2.366   0.334  0.5029 -0.7862  0.3636
  620MOL0     C83600   5.890   2.481   0.299  0.4996 -1.0121 -0.4052
  620MOL0     O83601   5.760   2.490   0.344  0.6327  0.8413  0.0802
  620MOL0     C83602   5.667   2.554   0.251  0.2159 -0.4085  1.0377
  620MOL0     C83603   5.527   2.511   0.301 -0.0778 -0.7553  0.7169
  620MOL0     C83604   5.409   2.570   0.221 -0.3000  0.1137  0.8570
  620MOL0     C83605   5.381   2.716   0.245 -0.2344  0.0993 -0.9551
  620MOL0     C83606   5.282   2.774   0.157 -0.0241 -0.0880  0.3951
  620MOL0     C83607   5.153   2.696   0.176 -0.7224  1.6247  0.2205
  620MOL0     C83608   5.043   2.779   0.108 -0.6149 -0.5967 -0.3562
  620MOL0     C83609   4.909   2.710   0.108 -0.2643  0.7262  0.1125
  620MOL0    Cl83610   4.829   2.691   0.269 -0.1966  0.0386  0.3124
  620MOL0     C83611   5.962   2.587   0.229  0.8572  0.1780  0.4844
  620MOL0     C83612   6.098   2.573   0.199 -0.0727  0.5320 -0.0334
  620MOL0     O83613   6.273   2.291   0.068  0.1488 -0.2199 -0.5230
  620MOL0     C83614   6.565   2.384   0.243 -0.5340  0.4692 -0.3201
  620MOL0     C83615   6.703   2.351   0.245 -0.7336 -0.4818  0.2087
  620MOL0     N83616   7.303   1.714  -0.072  0.2023 -0.4559 -0.0578
  620MOL0     N83617   7.420   1.683  -0.110 -0.2342 -0.1246  0.0591
  620MOL0     C83618   8.729   1.608   0.176  0.1229  0.8207 -0.2960
  620MOL0     C83619   8.863   1.571   0.219 -1.0017 -0.5625 -1.3048
  620MOL0     C83620   9.322   1.639   0.304  0.2335 -0.1943  0.6023
  620MOL0     C83621   9.371   1.514   0.255  0.5249  0.1609 -0.2868
  620MOL0     C83622   9.501   1.473   0.250  0.1974 -0.6822 -0.2645
  620MOL0     C83623   9.600   1.558   0.307  0.1267 -1.0372  0.2460
  620MOL0     O83624   9.735   1.536   0.318  1.0359 -0.1763  0.3671
  620MOL0     C83625   9.779   1.423   0.243 -0.2724  0.1946 -0.1827
  620MOL0     C83626   9.930   1.430   0.216  1.0477 -0.8943  0.0195
  620MOL0     C83627  10.012   1.408   0.346  0.5383  0.1740  0.4537
  620MOL0     C83628  10.163   1.413   0.329  0.0532 -0.6553  1.1829
  620MOL0     C83629  10.218   1.325   0.221 -0.0371  0.7164 -0.0053
  620MOL0     C83630  10.260   1.237   0.143  0.0782 -0.1232  0.2975
  620MOL0     C83631   9.554   1.680   0.357 -0.4576 -0.6268  0.2237
  620MOL0     C83632   9.424   1.726   0.354 -0.1826 -0.6361 -0.8501
  620MOL0     H83633   9.023   1.864   0.146 -0.2659  0.1951  0.1614
  620MOL0     H83634   8.790   1.929   0.093  1.5854 -0.1136 -1.6556
  620MOL0     H83635   8.454   1.639   0.110  1.8046  0.5900 -0.7027
  620MOL0     H83636   8.481   1.711   0.265 -0.9031 -0.3713 -0.1789
  620MOL0     H83637   8.360   1.913   0.199 -2.8797  0.0347 -1.1022
  620MOL0     H83638   8.377   1.847   0.032  3.6672 -0.3403  0.7371
  620MOL0     H83639   8.235   1.645   0.114  2.5520  0.5517  0.7060
  620MOL0     H83640   8.181   1.731   0.248  0.9826  1.5142 -0.1897
  620MOL0     H83641   8.113   1.927   0.095 -1.4225 -0.2258  0.3601
  620MOL0     H83642   8.144   1.810  -0.036 -2.6775 -1.0668 -0.5437
  620MOL0     H83643   7.967   1.677   0.128  2.0969 -0.9684 -1.4635
  620MOL0     H83644   7.927   1.839   0.187 -1.9004  0.1582 -1.6493
  620MOL0     H83645   7.900   1.892  -0.075  0.8866 -0.0765 -0.4772
  620MOL0     H83646   7.911   1.720  -0.097 -2.1752 -0.0292 -0.6560
  620MOL0     H83647   7.720   1.685   0.052  1.9526  0.2173  0.1039
  620MOL0     H83648   7.709   1.859   0.090 -2.0864  0.1025 -0.5393
  620MOL0     H83649   7.670   1.740  -0.190 -1.2778  0.0351 -0.2669
  620MOL0     H83650   7.657   1.911  -0.146  1.4731  1.3537  2.4386
  620MOL0     H83651   7.441   1.965   0.053 -1.3995 -0.5214 -0.6924
  620MOL0     H83652   7.164   1.983  -0.051 -0.7464  2.2928  1.1451
  620MOL0     H83653   7.086   1.846   0.030  0.1901  0.6856 -0.5866
  620MOL0     H83654   7.267   2.000   0.210  0.2329 -0.5965 -0.3588
  620MOL0     H83655   7.108   1.923   0.237 -0.1941  2.8847  1.5925
  620MOL0     H83656   7.180   2.169   0.095  3.8711 -2.8244  2.2069
  620MOL0     H83657   7.121   2.168   0.265  0.8451 -2.7639  1.3836
  620MOL0     H83658   6.907   2.044   0.131 -0.4768  0.5830 -0.5120
  620MOL0     H83659   6.967   2.149   0.007  3.4795 -3.2322 -0.5197
  620MOL0     H83660   6.731   2.108   0.025  0.9050  0.2116  0.0734
  620MOL0     H83661   6.549   2.056  -0.067  0.6695 -2.0753  2.4301
  620MOL0     H83662   6.386   2.071   0.016 -0.2460  1.7096  2.1922
  620MOL0     H83663   6.444   2.198  -0.097  1.7946  0.8447 -0.0045
  620MOL0     H83664   6.159   2.285   0.364 -1.4329 -1.4664 -0.3609
  620MOL0     H83665   5.913   2.284   0.389  0.1392 -1.9802 -1.6233
  620MOL0     H83666   5.665   2.663   0.266  0.4968 -0.4944  1.7173
  620MOL0     H83667   5.682   2.517   0.149 -1.9447  2.0288 -0.2919
  620MOL0     H83668   5.518   2.402   0.294 -1.1362 -0.6234 -0.2247
  620MOL0     H83669   5.509   2.542   0.404 -3.5335  0.1405 -0.0450
  620MOL0     H83670   5.318   2.519   0.255 -1.0901  1.2301  0.4391
  620MOL0     H83671   5.433   2.567   0.114 -0.9889  2.0226  0.6299
  620MOL0     H83672   5.355   2.721   0.351 -0.3710 -1.1344 -0.9139
  620MOL0     H83673   5.474   2.774   0.243  0.5439 -0.9327  1.3909
  620MOL0     H83674   5.316   2.771   0.053  0.1218  1.5951  0.3654
  620MOL0     H83675   5.269   2.878   0.186  0.2711 -0.0520  0.4052
  620MOL0     H83676   5.166   2.595   0.135  0.9078  0.8500  2.4469
  620MOL0     H83677   5.133   2.684   0.283 -2.1245  0.7073 -0.1122
  620MOL0     H83678   5.064   2.785   0.001  3.2495 -0.2205  0.2731
  620MOL0     H83679   5.021   2.877   0.153 -0.5634 -0.9568  0.4791
  620MOL0     H83680   4.917   2.608   0.071 -0.0569  1.0340 -0.7158
  620MOL0     H83681   4.846   2.752   0.029 -1.0779 -2.9811 -1.4152
  620MOL0     H83682   5.909   2.676   0.198 -2.9317 -2.1925 -0.5850
  620MOL0     H83683   6.148   2.648   0.139 -1.1099  0.6793 -0.7399
  620MOL0     H83684   6.541   2.468   0.308 -0.0093  0.0255  0.4627
  620MOL0     H83685   6.764   2.416   0.308 -0.5522  0.8576 -1.2762
  620MOL0     H83686   8.660   1.523   0.179  0.0562  0.8899  0.5386
  620MOL0     H83687   8.886   1.472   0.258  2.2566 -0.1693 -1.8866
  620MOL0     H83688   9.293   1.462   0.200 -0.7791 -0.1664  1.7664
  620MOL0     H83689   9.529   1.376   0.212 -1.9586 -2.2334  1.8270
  620MOL0     H83690   9.745   1.324   0.276  1.8373  0.0292  1.7272
  620MOL0     H83691   9.738   1.441   0.143  1.8792  3.9170 -0.5844
  620MOL0     H83692   9.945   1.532   0.179  0.9594 -0.7499  0.3764
  620MOL0     H83693   9.966   1.361   0.140 -1.8492 -1.5717 -0.8662
  620MOL0     H83694   9.980   1.308   0.375 -2.4226  0.7208 -0.5478
  620MOL0     H83695   9.985   1.476   0.427 -1.3923  1.1145 -0.8977
  620MOL0     H83696  10.212   1.407   0.427 -1.4793 -1.9355  1.9171
  620MOL0     H83697  10.182   1.514   0.293 -0.8130 -1.1676 -0.8109
  620MOL0     H83698  10.311   1.171   0.075  0.6862 -1.3129  1.8411
  620MOL0     H83699   9.635   1.738   0.400  1.0725 -2.7233  0.3211
  620MOL0     H83700   9.410   1.827   0.393  0.9117 -1.3759  1.6568
  621MOL0     O83701   5.789   6.040   4.989 -0.4334 -0.6306 -0.2084
  621MOL0     C83702   5.803   6.156   4.943 -0.0551  0.2828 -0.0647
  621MOL0     O83703   5.698   6.241   4.915  0.7067 -0.0224  0.7488
  621MOL0     C83704   5.564   6.222   4.943  0.5354  0.0295  0.3828
  621MOL0     C83705   5.518   6.106   4.993  0.1465  1.0040 -1.1823
  621MOL0     C83706   5.376   6.094   5.017 -0.1062  0.0957 -0.6380
  621MOL0     C83707   5.289   6.205   5.000  0.8389  0.4618  0.0325
  621MOL0     O83708   5.157   6.192   5.045  0.2355 -0.8168  0.0090
  621MOL0     C83709   5.090   6.079   4.975  0.8249 -0.6504  0.0778
  621MOL0     C83710   4.937   6.128   4.945 -0.4386 -0.1228 -0.1695
  621MOL0     C83711   4.847   6.008   4.918 -0.1271 -0.5306  0.8129
  621MOL0     C83712   4.715   6.055   4.861  0.1444  0.9018 -1.1768
  621MOL0     C83713   4.606   5.940   4.867 -0.1030 -1.0697 -0.6493
  621MOL0     C83714   4.494   5.960   4.756 -0.1868 -0.6155  0.4007
  621MOL0     C83715   4.400   5.841   4.743  0.3529 -0.1576 -0.1988
  621MOL0     C83716   4.258   5.871   4.715 -0.1153 -0.0610 -0.2442
  621MOL0     N83717   4.174   5.878   4.832  0.1685  0.1334 -0.0212
  621MOL0     C83718   4.074   5.969   4.852  0.4245 -0.1977  0.3819
  621MOL0     C83719   4.025   5.937   4.976  0.3167  0.1472 -0.0670
  621MOL0     C83720   3.908   5.999   5.046 -0.0482  0.5585 -0.3354
  621MOL0     C83721   3.795   5.891   5.084  0.0675  0.0864 -0.1123
  621MOL0     C83722   3.676   5.979   5.147  0.3528  0.3105 -0.0209
  621MOL0     C83723   3.547   5.896   5.161 -0.5579 -0.1773  0.7452
  621MOL0     O83724   3.434   5.958   5.202  0.2791  0.0526  0.0116
  621MOL0     C83725   3.312   5.895   5.190 -0.1993 -0.7459  0.4062
  621MOL0     C83726   3.292   5.766   5.134  0.1583  0.2095  0.3112
  621MOL0     C83727   3.170   5.701   5.134  0.8991  0.1609 -0.3275
  621MOL0     C83728   3.161   5.560   5.087  0.2665  0.1895  0.8454
  621MOL0     C83729   3.046   5.773   5.169 -0.0346 -0.3256  0.4247
  621MOL0     C83730   2.909   5.728   5.156  0.9579  0.6269  0.5873
  621MOL0     O83731   2.811   5.780   5.246  0.1638  0.6305 -0.8401
  621MOL0     C83732   2.683   5.734   5.224  0.3274  0.3266 -1.0465
  621MOL0     C83733   2.598   5.816   5.147  0.1745  0.1945 -0.0328
  621MOL0     C83734   2.468   5.781   5.145 -0.1409 -0.4022  0.7065
  621MOL0     C83735   2.417   5.663   5.198 -0.2035  0.0013  0.3002
  621MOL0     O83736   2.281   5.641   5.201 -0.2285  0.1494  0.2992
  621MOL0     C83737   2.216   5.537   5.273  0.5891  0.1383  0.0373
  621MOL0     C83738   2.060   5.555   5.256  0.1033  0.4787 -0.0539
  621MOL0     C83739   2.016   5.522   5.108 -0.0340  0.7315 -0.2771
  621MOL0     C83740   1.970   5.373   5.093  0.1392 -0.6939 -0.1859
  621MOL0     C83741   1.814   5.359   5.115 -0.6300  0.5945 -0.3117
  621MOL0     C83742   1.763   5.246   5.020  0.3859 -0.3567 -0.1962
  621MOL0     C83743   1.618   5.207   5.041 -0.2521  0.0377 -0.9857
  621MOL0     C83744   1.592   5.075   4.972  0.0997  0.1213  0.1491
  621MOL0    Cl83745   1.423   5.018   5.011 -0.0600  0.1253  0.1035
  621MOL0     C83746   2.505   5.576   5.267 -0.1556 -0.4334  0.0587
  621MOL0     C83747   2.641   5.610   5.275  0.0561 -0.7880 -0.3507
  621MOL0     O83748   2.886   5.663   5.057  0.6581 -0.2563 -0.2878
  621MOL0     C83749   3.070   5.900   5.233 -0.1874 -0.0026  0.4557
  621MOL0     C83750   3.200   5.959   5.247  0.2579 -0.3268 -0.3008
  621MOL0     N83751   4.091   5.819   5.020  0.3770 -0.3015  0.2682
  621MOL0     N83752   4.173   5.784   4.928  0.0814  0.2236  0.2447
  621MOL0     C83753   5.343   6.323   4.947 -0.5359  0.3426 -0.1205
  621MOL0     C83754   5.482   6.332   4.925 -0.9553  0.9937  0.2369
  621MOL0     C83755   5.938   6.201   4.901 -0.7604 -0.1128 -0.8794
  621MOL0     C83756   6.045   6.111   4.877 -0.2776  0.1791  1.0816
  621MOL0     C83757   6.169   6.150   4.837 -0.4852 -0.2777  0.6697
  621MOL0     C83758   6.196   6.294   4.818  0.0476  0.0112 -0.2090
  621MOL0     O83759   6.314   6.348   4.772 -0.1362 -0.8031  0.1679
  621MOL0     C83760   6.417   6.251   4.762 -0.1473  0.7065 -0.7008
  621MOL0     C83761   6.526   6.303   4.674  0.6171 -0.3564 -0.0215
  621MOL0     C83762   6.617   6.398   4.745  0.6591  0.4814 -0.0978
  621MOL0     C83763   6.751   6.415   4.673 -0.4719  0.3091 -0.0819
  621MOL0     C83764   6.741   6.459   4.533 -0.3022 -0.7030  0.5236
  621MOL0     C83765   6.741   6.498   4.415  0.3772  0.1868  0.1662
  621MOL0     C83766   6.091   6.381   4.849  0.3613 -0.2153 -0.8619
  621MOL0     C83767   5.968   6.341   4.890 -0.4103 -0.8933 -0.0569
  621MOL0     H83768   5.568   6.010   5.002 -0.1133  0.8669 -1.1832
  621MOL0     H83769   5.335   5.997   5.044 -2.0637  1.2440  0.8552
  621MOL0     H83770   5.130   6.063   4.875 -1.3288  1.3123 -1.1952
  621MOL0     H83771   5.080   5.986   5.033 -0.4216  0.1212  1.1689
  621MOL0     H83772   4.896   6.182   5.031 -3.2367 -3.6256  0.9185
  621MOL0     H83773   4.927   6.204   4.867 -0.3298  2.5208  2.1893
  621MOL0     H83774   4.895   5.948   4.841  2.0117 -1.0691  2.4808
  621MOL0     H83775   4.833   5.949   5.009 -0.8191  0.6310  1.4851
  621MOL0     H83776   4.682   6.145   4.914  1.3342  0.0448  1.1513
  621MOL0     H83777   4.732   6.074   4.754  2.9580 -0.5295 -1.0895
  621MOL0     H83778   4.647   5.839   4.866  1.6020 -0.4320  0.1721
  621MOL0     H83779   4.560   5.947   4.965  0.8512 -0.4640 -0.2273
  621MOL0     H83780   4.440   6.055   4.769 -1.4986 -0.2008 -5.2407
  621MOL0     H83781   4.537   5.985   4.658 -1.1541  0.6402  0.2618
  621MOL0     H83782   4.439   5.767   4.672 -0.1292  0.4201 -1.1014
  621MOL0     H83783   4.407   5.779   4.833  3.2696  1.0775  0.5097
  621MOL0     H83784   4.212   5.795   4.651 -3.3332  1.6223 -0.1670
  621MOL0     H83785   4.247   5.963   4.658 -0.7725  0.1148  0.1531
  621MOL0     H83786   4.054   6.058   4.794  2.2154 -0.1382 -0.1979
  621MOL0     H83787   3.948   6.044   5.137  0.7352 -1.4471  0.3787
  621MOL0     H83788   3.853   6.081   5.000 -1.5884  0.9789  2.0634
  621MOL0     H83789   3.846   5.839   5.166  1.2126  3.2597  1.3528
  621MOL0     H83790   3.758   5.824   5.005 -1.0224 -2.4257  2.3465
  621MOL0     H83791   3.646   6.054   5.072 -1.0596 -0.6089 -0.4308
  621MOL0     H83792   3.705   6.025   5.242  1.0348  0.6065 -0.3691
  621MOL0     H83793   3.576   5.809   5.222  1.3081  0.5253  0.9464
  621MOL0     H83794   3.526   5.861   5.060 -2.6116  1.1062  0.6760
  621MOL0     H83795   3.377   5.706   5.105  1.6021  2.0497  0.5920
  621MOL0     H83796   3.146   5.560   4.979 -2.3546  0.3675  1.1544
  621MOL0     H83797   3.248   5.499   5.115  0.3290  0.4321  1.1902
  621MOL0     H83798   3.077   5.501   5.125  0.3655  0.3355  1.3074
  621MOL0     H83799   2.639   5.901   5.094  2.4057 -0.5177  0.4335
  621MOL0     H83800   2.395   5.849   5.103 -1.8448 -2.9183 -0.7208
  621MOL0     H83801   2.254   5.442   5.236  1.0981  0.4007 -0.1235
  621MOL0     H83802   2.244   5.552   5.377 -0.1910  0.4283  0.2113
  621MOL0     H83803   2.008   5.501   5.336 -0.0348  2.8923  1.6017
  621MOL0     H83804   2.038   5.658   5.286 -4.9225 -0.0600 -1.1683
  621MOL0     H83805   2.097   5.542   5.037 -0.8659 -1.0885 -1.8103
  621MOL0     H83806   1.939   5.597   5.088 -0.3351  1.3287  2.6250
  621MOL0     H83807   1.996   5.342   4.991 -3.0995 -0.3053 -1.2413
  621MOL0     H83808   2.026   5.317   5.168 -0.1212  0.4313  0.8781
  621MOL0     H83809   1.756   5.449   5.095 -2.8551 -0.5887  0.5274
  621MOL0     H83810   1.805   5.338   5.222 -0.8061  1.3647 -0.1733
  621MOL0     H83811   1.784   5.281   4.919 -0.6768  0.6061 -0.1110
  621MOL0     H83812   1.818   5.154   5.043 -0.5316 -1.0548 -0.7250
  621MOL0     H83813   1.553   5.286   5.003 -0.0767 -0.3887 -2.2261
  621MOL0     H83814   1.594   5.188   5.146 -2.1192  0.4054 -1.3057
  621MOL0     H83815   1.666   4.999   4.996  0.2866  0.2560  0.0083
  621MOL0     H83816   1.601   5.102   4.866  1.8184 -0.1992  0.1807
  621MOL0     H83817   2.472   5.478   5.297 -1.4155 -1.0938 -3.1034
  621MOL0     H83818   2.720   5.549   5.318  1.5266  1.8470  0.9549
  621MOL0     H83819   2.993   5.972   5.259 -0.5330  0.3756 -1.4399
  621MOL0     H83820   3.209   6.050   5.306 -1.2686 -0.5940  0.3936
  621MOL0     H83821   5.276   6.406   4.931  1.5383  1.9287 -0.9873
  621MOL0     H83822   5.526   6.430   4.906 -1.4021  1.2108  0.2879
  621MOL0     H83823   6.030   6.004   4.894  0.1205  0.1257  1.1121
  621MOL0     H83824   6.234   6.065   4.822 -1.4069 -0.8121 -0.4991
  621MOL0     H83825   6.447   6.206   4.857 -0.1814  1.1176 -0.4913
  621MOL0     H83826   6.382   6.166   4.703  1.2534 -0.8753  0.6311
  621MOL0     H83827   6.472   6.341   4.586  0.0902 -1.9583 -0.4175
  621MOL0     H83828   6.590   6.222   4.640 -0.9182 -0.7309 -2.2820
  621MOL0     H83829   6.633   6.357   4.846 -1.7075 -0.1166  0.0853
  621MOL0     H83830   6.560   6.491   4.753 -0.4082 -0.1098 -0.6947
  621MOL0     H83831   6.813   6.325   4.667 -0.1278  0.6431 -3.5780
  621MOL0     H83832   6.799   6.497   4.728 -0.9199  1.2855 -1.0923
  621MOL0     H83833   6.743   6.540   4.317 -3.8034  0.4915  0.0313
  621MOL0     H83834   6.120   6.485   4.842  0.1192 -0.2177 -2.1016
  621MOL0     H83835   5.885   6.411   4.890 -1.1875 -1.6878 -2.3255
  622MOL0     O83836  11.043   9.146   3.472 -0.2142 -0.3767  0.6021
  622MOL0     C83837  11.098   9.199   3.377 -0.8546 -0.3089  0.5637
  622MOL0     O83838  11.075   9.324   3.326 -0.3379  0.0375  0.4876
  622MOL0     C83839  11.004   9.413   3.397 -1.2467 -0.2815 -0.6775
  622MOL0     C83840  10.871   9.436   3.383 -0.7333  0.3734 -0.9539
  622MOL0     C83841  10.809   9.536   3.451  0.3999  0.2901 -0.5548
  622MOL0     C83842  10.879   9.626   3.537  0.3312  0.8533 -0.2473
  622MOL0     O83843  10.821   9.737   3.615 -0.3528  0.0811  0.3807
  622MOL0     C83844  10.700   9.786   3.564  0.0358 -0.4120 -0.0488
  622MOL0     C83845  10.656   9.914   3.624  0.0599  0.2171  0.2540
  622MOL0     C83846  10.580   9.994   3.507 -0.2065 -0.1286 -0.5938
  622MOL0     C83847  10.531  10.128   3.565  0.4571 -0.5656  0.1741
  622MOL0     C83848  10.436  10.196   3.475 -0.3858 -0.1714  0.6240
  622MOL0     C83849  10.492  10.243   3.346  0.8013  0.1440  0.7739
  622MOL0     C83850  10.618  10.317   3.346  0.2830  0.3370 -0.1126
  622MOL0     C83851  10.633  10.441   3.425  0.6416 -0.8386 -0.3261
  622MOL0     N83852  10.527  10.542   3.385  0.8484 -0.7470 -0.0542
  622MOL0     C83853  10.493  10.598   3.263  0.6599  0.1910 -0.0439
  622MOL0     C83854  10.381  10.673   3.288  0.2247  0.2280  0.0983
  622MOL0     C83855  10.318  10.747   3.171 -0.0524 -0.3204  0.9229
  622MOL0     C83856  10.286  10.895   3.200 -0.0790  0.5529  0.3529
  622MOL0     C83857  10.154  10.926   3.265 -0.3542  0.0468  0.1184
  622MOL0     C83858  10.037  10.883   3.173  0.3611 -0.5726 -0.3945
  622MOL0     O83859  10.036  10.936   3.037  0.2832 -0.4717 -0.0534
  622MOL0     C83860   9.937  11.020   2.998  0.7588 -1.2774  0.4225
  622MOL0     C83861   9.867  11.099   3.084 -0.0099  1.1814 -1.0540
  622MOL0     C83862   9.768  11.187   3.039 -1.4079  0.0057  0.1773
  622MOL0     C83863   9.696  11.270   3.147 -0.0470  0.2841  0.0381
  622MOL0     C83864   9.725  11.184   2.901  0.5479 -0.0990  1.2153
  622MOL0     C83865   9.612  11.265   2.847 -0.4286  0.9565 -0.1549
  622MOL0     O83866   9.512  11.289   2.934  0.1927 -0.0947 -0.2169
  622MOL0     C83867   9.437  11.403   2.924  0.5627 -0.5240 -0.2416
  622MOL0     C83868   9.495  11.527   2.899 -0.2083 -0.1505  0.1661
  622MOL0     C83869   9.406  11.642   2.899  0.3149  0.0051 -0.1374
  622MOL0     C83870   9.270  11.617   2.907  0.0984 -0.4000 -0.4167
  622MOL0     O83871   9.201  11.735   2.886 -0.1034  0.0781 -0.5159
  622MOL0     C83872   9.085  11.715   2.801 -1.1034 -0.0045 -0.1065
  622MOL0     C83873   9.027  11.846   2.748  0.4343 -0.2958  0.0996
  622MOL0     C83874   8.978  11.938   2.855 -0.0135  0.2199 -0.5188
  622MOL0     C83875   8.978  12.082   2.807  0.4901 -0.5293  0.5968
  622MOL0     C83876   9.009  12.187   2.918 -1.6364 -0.0168  0.2241
  622MOL0     C83877   9.158  12.200   2.963 -0.2025 -0.1147 -0.1176
  622MOL0     C83878   9.187  12.317   3.046  0.8201 -0.1028 -0.7530
  622MOL0     C83879   9.333  12.353   3.050 -0.3007 -0.8090  0.0781
  622MOL0    Cl83880   9.419  12.272   3.183 -0.0569  0.2675 -0.0741
  622MOL0     C83881   9.218  11.496   2.923  0.1463 -0.0288 -0.0380
  622MOL0     C83882   9.302  11.386   2.936  0.3141 -0.1891  0.9367
  622MOL0     O83883   9.627  11.317   2.733 -0.6395 -0.1418 -0.2300
  622MOL0     C83884   9.803  11.114   2.807 -0.1223  0.0442 -0.9954
  622MOL0     C83885   9.905  11.030   2.857  0.3038  0.0413 -0.0203
  622MOL0     N83886  10.336  10.646   3.412 -0.6726  0.1327  0.7453
  622MOL0     N83887  10.431  10.575   3.467  0.3741  0.0835 -0.0532
  622MOL0     C83888  11.014   9.605   3.544 -0.0485 -0.2783 -1.2707
  622MOL0     C83889  11.079   9.498   3.484 -0.6429  0.2302 -0.3894
  622MOL0     C83890  11.189   9.119   3.302 -0.6308  0.8266 -0.5756
  622MOL0     C83891  11.175   8.976   3.299 -0.3778 -0.0848 -0.2935
  622MOL0     C83892  11.268   8.887   3.232  0.1172 -0.5178  0.1303
  622MOL0     C83893  11.380   8.940   3.162  0.0603  0.8682 -0.2577
  622MOL0     O83894  11.463   8.854   3.095 -0.3684 -0.0240  0.1477
  622MOL0     C83895  11.428   8.716   3.082  0.2893 -0.1322  0.2609
  622MOL0     C83896  11.315   8.694   2.983  0.4588  0.8998 -0.3738
  622MOL0     C83897  11.326   8.765   2.841 -0.9538  0.0242  0.7965
  622MOL0     C83898  11.254   8.686   2.735  0.6342 -0.4058 -0.3079
  622MOL0     C83899  11.107   8.694   2.754 -0.4364  0.0709 -0.0736
  622MOL0     C83900  10.989   8.716   2.782  0.4066 -0.4109  0.3784
  622MOL0     C83901  11.401   9.079   3.174 -0.2953 -0.7451 -0.0200
  622MOL0     C83902  11.311   9.170   3.237  0.8887  0.3340 -0.2275
  622MOL0     H83903  10.810   9.386   3.309 -1.1657  0.8795 -0.9449
  622MOL0     H83904  10.701   9.543   3.440  0.3445  1.9918  0.6617
  622MOL0     H83905  10.705   9.792   3.455 -0.0925  4.7332 -0.0148
  622MOL0     H83906  10.615   9.720   3.581  0.8090 -2.4525 -3.1741
  622MOL0     H83907  10.586   9.899   3.706 -1.6452  1.3257 -0.9240
  622MOL0     H83908  10.736   9.970   3.673 -0.3650  0.9797  0.1078
  622MOL0     H83909  10.647  10.012   3.422  1.9916  1.4657  1.3525
  622MOL0     H83910  10.485   9.941   3.490 -1.1889  0.3365  2.7590
  622MOL0     H83911  10.480  10.109   3.660  0.4795 -0.8778  0.1239
  622MOL0     H83912  10.616  10.193   3.587 -0.1356 -0.0073  0.8732
  622MOL0     H83913  10.347  10.134   3.462 -2.1889  2.5366 -0.8729
  622MOL0     H83914  10.403  10.284   3.531 -0.3438  0.0902  0.2466
  622MOL0     H83915  10.500  10.166   3.269  0.6219 -0.2920  1.1859
  622MOL0     H83916  10.417  10.307   3.298  1.1966 -0.9409 -1.4159
  622MOL0     H83917  10.681  10.236   3.385 -1.8522 -1.8022 -0.8739
  622MOL0     H83918  10.642  10.332   3.241 -0.8437  0.0344 -0.4192
  622MOL0     H83919  10.733  10.483   3.415  0.0911  0.9055  0.9735
  622MOL0     H83920  10.613  10.423   3.531  3.0919  0.1473  0.3642
  622MOL0     H83921  10.547  10.581   3.171  0.4051 -1.1195  0.0290
  622MOL0     H83922  10.391  10.747   3.089  0.1751  2.4882  1.0312
  622MOL0     H83923  10.235  10.695   3.121  0.4946  0.3696 -0.7910
  622MOL0     H83924  10.277  10.947   3.105 -3.2092  0.0059  0.2335
  622MOL0     H83925  10.362  10.937   3.267  2.7700 -2.6431 -0.5634
  622MOL0     H83926  10.132  11.032   3.279 -0.7698 -0.0506  0.2164
  622MOL0     H83927  10.145  10.881   3.364  0.2946  1.5097  0.8724
  622MOL0     H83928   9.943  10.905   3.225  0.4723 -0.0671 -0.4022
  622MOL0     H83929  10.031  10.774   3.161  0.4176 -0.6240  0.0108
  622MOL0     H83930   9.894  11.094   3.189  1.5787  0.0303 -1.4855
  622MOL0     H83931   9.596  11.226   3.153 -0.1411  0.2985 -1.2376
  622MOL0     H83932   9.749  11.257   3.242 -2.3268  0.9695  1.4901
  622MOL0     H83933   9.689  11.376   3.121  1.1057  0.5150  0.5904
  622MOL0     H83934   9.601  11.538   2.882  0.0813  0.6487  2.2385
  622MOL0     H83935   9.456  11.738   2.893  0.4253  0.1716  2.3060
  622MOL0     H83936   9.096  11.643   2.719  0.0797 -0.2285  0.2431
  622MOL0     H83937   9.013  11.666   2.867 -1.5342  0.0146 -0.5487
  622MOL0     H83938   9.113  11.891   2.697  0.3940 -0.8390 -0.4631
  622MOL0     H83939   8.950  11.829   2.672 -1.7136  2.0155  1.6042
  622MOL0     H83940   9.051  11.932   2.936 -0.5282 -1.1260 -0.1271
  622MOL0     H83941   8.879  11.918   2.896  0.3215 -0.9382 -0.2327
  622MOL0     H83942   9.047  12.099   2.724  1.2435  2.2112  1.6946
  622MOL0     H83943   8.881  12.114   2.769 -0.2012  1.7152  3.8277
  622MOL0     H83944   8.959  12.162   3.012  1.5476 -3.0341  1.3088
  622MOL0     H83945   8.959  12.279   2.885  2.7259  2.2604 -0.7847
  622MOL0     H83946   9.181  12.106   3.016 -3.4100  0.0410  1.8166
  622MOL0     H83947   9.228  12.194   2.879 -1.0397 -1.7295 -0.7546
  622MOL0     H83948   9.158  12.316   3.151  0.2047  0.2831 -0.9127
  622MOL0     H83949   9.122  12.389   2.997 -3.3895 -3.3970 -0.5966
  622MOL0     H83950   9.343  12.459   3.077  0.1853 -0.5801 -0.9312
  622MOL0     H83951   9.384  12.324   2.958 -1.0089 -0.6861 -0.3649
  622MOL0     H83952   9.112  11.471   2.931  0.1737 -0.3731 -0.6787
  622MOL0     H83953   9.270  11.288   2.968 -1.6918  0.4343  0.9675
  622MOL0     H83954   9.789  11.124   2.700 -0.8213 -0.1490 -0.9272
  622MOL0     H83955   9.964  10.963   2.796  3.3701  1.0418  1.6428
  622MOL0     H83956  11.061   9.661   3.624 -0.5823 -0.5673 -0.7420
  622MOL0     H83957  11.175   9.461   3.517 -1.6779 -0.0098  2.7124
  622MOL0     H83958  11.100   8.915   3.348 -1.0917  0.2398 -0.9551
  622MOL0     H83959  11.242   8.781   3.240  0.1105 -0.5548 -0.3640
  622MOL0     H83960  11.521   8.672   3.043  0.5273  0.5434  0.0528
  622MOL0     H83961  11.395   8.659   3.170  3.4486 -0.1704  1.5892
  622MOL0     H83962  11.219   8.709   3.033 -0.1449 -0.3033 -1.1401
  622MOL0     H83963  11.304   8.587   2.965 -0.8390  1.2580 -1.9882
  622MOL0     H83964  11.432   8.755   2.817 -0.7554 -1.7286  2.2013
  622MOL0     H83965  11.288   8.868   2.847 -1.8893 -0.3176  0.7936
  622MOL0     H83966  11.278   8.579   2.742  2.0627  0.0064  3.1347
  622MOL0     H83967  11.285   8.728   2.639 -1.3909 -1.0203 -1.2792
  622MOL0     H83968  10.888   8.742   2.808  0.7262  0.4013  0.8541
  622MOL0     H83969  11.498   9.107   3.133  0.5235 -2.4301  0.6481
  622MOL0     H83970  11.337   9.276   3.237  0.1466  0.5233 -0.5152
  623MOL0     O83971   7.599   2.378   2.678 -0.4067  0.4004 -0.7284
  623MOL0     C83972   7.601   2.386   2.562 -0.4674 -0.0067 -0.5178
  623MOL0     O83973   7.496   2.362   2.480 -0.6388 -0.2688  0.0751
  623MOL0     C83974   7.367   2.364   2.525  0.1166 -0.8777 -0.1869
  623MOL0     C83975   7.277   2.344   2.421 -0.0899 -0.0673 -0.6392
  623MOL0     C83976   7.142   2.316   2.441 -0.4617 -0.4958 -0.5671
  623MOL0     C83977   7.087   2.321   2.570  0.8547 -0.2467  0.5939
  623MOL0     O83978   6.950   2.310   2.586  0.0318  0.4602  0.0037
  623MOL0     C83979   6.893   2.387   2.689 -0.8521 -0.1939  0.1024
  623MOL0     C83980   6.767   2.450   2.639 -0.5914  0.9750  0.4437
  623MOL0     C83981   6.675   2.357   2.559 -0.3678  0.4999  0.5677
  623MOL0     C83982   6.561   2.436   2.503  0.6662  0.2658 -0.2271
  623MOL0     C83983   6.463   2.360   2.416 -0.5016  0.9231 -0.0056
  623MOL0     C83984   6.367   2.465   2.363 -0.6658 -0.2993  0.0574
  623MOL0     C83985   6.256   2.410   2.275 -0.3646 -0.0192 -0.0625
  623MOL0     C83986   6.151   2.315   2.338  0.2350 -0.1144 -0.7122
  623MOL0     N83987   6.064   2.373   2.444  0.5885  0.4254 -0.4507
  623MOL0     C83988   5.964   2.295   2.490  0.1237  0.0121 -0.2570
  623MOL0     C83989   5.891   2.380   2.569 -0.0146  0.8650 -0.5379
  623MOL0     C83990   5.747   2.342   2.620  0.0769  0.0409 -0.1909
  623MOL0     C83991   5.659   2.289   2.506 -0.1675 -0.3373  0.8231
  623MOL0     C83992   5.511   2.283   2.565  0.1431 -0.3883  0.7159
  623MOL0     C83993   5.401   2.261   2.459 -0.5913 -0.1315 -0.2414
  623MOL0     O83994   5.378   2.372   2.365  0.1669  0.9279  0.3846
  623MOL0     C83995   5.257   2.437   2.368  0.8610 -0.5798  0.5467
  623MOL0     C83996   5.214   2.507   2.249 -0.4761  1.6187 -0.4274
  623MOL0     C83997   5.081   2.543   2.234  0.2232 -0.3035  0.0562
  623MOL0     C83998   5.044   2.568   2.092 -0.3106 -0.3634  0.5416
  623MOL0     C83999   4.997   2.538   2.344  0.6072 -0.2436 -0.2934
  623MOL0     C84000   4.853   2.559   2.334  0.5928 -0.5044 -0.1360
  623MOL0     O84001   4.787   2.634   2.430 -0.7415 -0.6337 -0.1869
  623MOL0     C84002   4.649   2.634   2.436  0.4843  0.0445  0.2701
  623MOL0     C84003   4.573   2.744   2.386  0.4732  0.1165 -0.2693
  623MOL0     C84004   4.437   2.733   2.378 -0.0550 -0.6144  0.3387
  623MOL0     C84005   4.368   2.620   2.414  0.5057 -0.0014  0.0206
  623MOL0     O84006   4.228   2.619   2.402 -0.4775  0.2248  0.2677
  623MOL0     C84007   4.151   2.515   2.476  0.2514  0.0728  0.3994
  623MOL0     C84008   4.005   2.550   2.498 -1.1890  0.3415 -0.6307
  623MOL0     C84009   3.916   2.535   2.376 -0.1383 -0.5700  0.0023
  623MOL0     C84010   3.771   2.542   2.418 -0.2873 -0.6610  0.2334
  623MOL0     C84011   3.678   2.590   2.302 -0.0589  0.8701  0.0367
  623MOL0     C84012   3.561   2.671   2.358 -0.2541 -0.0248  1.0994
  623MOL0     C84013   3.471   2.720   2.249 -0.0603  0.0050  0.7547
  623MOL0     C84014   3.335   2.767   2.321 -0.2441 -0.6300  0.1699
  623MOL0    Cl84015   3.203   2.796   2.193 -0.1741  0.3735 -0.2688
  623MOL0     C84016   4.441   2.509   2.465  0.3647  0.6617  0.5103
  623MOL0     C84017   4.587   2.515   2.466  0.1032 -0.3351 -0.5966
  623MOL0     O84018   4.789   2.504   2.247  0.6252  0.2796  0.2556
  623MOL0     C84019   5.049   2.505   2.469 -0.3327  0.6805 -0.4243
  623MOL0     C84020   5.181   2.453   2.484 -0.5270 -0.8871  0.2695
  623MOL0     N84021   5.955   2.506   2.569  0.2419 -0.4571 -0.4965
  623MOL0     N84022   6.056   2.497   2.493  0.2526 -0.3748 -0.5285
  623MOL0     C84023   7.175   2.345   2.679  0.1968  0.0197 -0.2728
  623MOL0     C84024   7.310   2.373   2.654  0.4516 -0.3549 -0.6023
  623MOL0     C84025   7.730   2.388   2.491 -0.5219 -0.2904  0.7179
  623MOL0     C84026   7.739   2.380   2.343 -0.4252 -0.3203  0.3365
  623MOL0     C84027   7.866   2.377   2.281 -0.6297 -0.0895  0.3506
  623MOL0     C84028   7.980   2.386   2.360 -0.9830  0.1595 -0.3123
  623MOL0     O84029   8.100   2.405   2.303  0.5998 -0.0098 -0.0480
  623MOL0     C84030   8.123   2.511   2.208 -0.3122  0.6790 -0.3817
  623MOL0     C84031   8.265   2.573   2.239  0.3115 -1.0724 -1.4061
  623MOL0     C84032   8.288   2.589   2.395 -1.1471 -0.1307 -1.0941
  623MOL0     C84033   8.402   2.692   2.424 -0.2214 -0.1280  0.1745
  623MOL0     C84034   8.528   2.677   2.348  0.2418 -0.3614  0.3868
  623MOL0     C84035   8.631   2.670   2.282 -0.0993 -0.1246  0.0102
  623MOL0     C84036   7.965   2.390   2.501 -0.3361  0.2779  0.2389
  623MOL0     C84037   7.849   2.383   2.566 -0.1229 -0.5335 -0.0736
  623MOL0     H84038   7.318   2.352   2.321  2.6352  0.2838  0.4169
  623MOL0     H84039   7.077   2.300   2.355 -1.6720 -2.9386  0.7023
  623MOL0     H84040   6.874   2.316   2.769  3.1904  0.9986  2.4162
  623MOL0     H84041   6.956   2.465   2.733 -0.4367 -0.8400  0.6883
  623MOL0     H84042   6.725   2.511   2.719 -0.3364 -0.1803  1.4740
  623MOL0     H84043   6.808   2.519   2.564  0.4378  0.2111  0.2821
  623MOL0     H84044   6.733   2.304   2.483  0.2784  1.2432  0.5243
  623MOL0     H84045   6.638   2.284   2.632 -0.3443 -0.3650 -0.2626
  623MOL0     H84046   6.495   2.485   2.576 -0.9798 -1.3164 -0.5659
  623MOL0     H84047   6.616   2.505   2.439  2.5325 -2.3582 -1.6910
  623MOL0     H84048   6.505   2.296   2.338  2.2908  0.0204  2.0324
  623MOL0     H84049   6.410   2.296   2.487  0.1633  0.7261  0.3278
  623MOL0     H84050   6.319   2.516   2.447 -1.3068 -4.2212  2.3127
  623MOL0     H84051   6.419   2.544   2.308 -0.9663  0.1491  0.4100
  623MOL0     H84052   6.215   2.505   2.241  2.0728  1.7471  1.5661
  623MOL0     H84053   6.308   2.368   2.188  0.8306  0.7932  0.2292
  623MOL0     H84054   6.200   2.224   2.374 -2.5711 -1.0876  0.9542
  623MOL0     H84055   6.091   2.275   2.255  2.5126 -3.3471 -0.9626
  623MOL0     H84056   5.940   2.194   2.460  1.5360  0.4392 -3.1911
  623MOL0     H84057   5.753   2.273   2.705  2.3235  1.8371  1.2353
  623MOL0     H84058   5.706   2.435   2.661 -1.8203 -0.3114 -1.2026
  623MOL0     H84059   5.689   2.193   2.464  0.9422  0.0631  0.6795
  623MOL0     H84060   5.659   2.360   2.422 -0.4197 -2.1668 -0.7923
  623MOL0     H84061   5.487   2.379   2.612  0.6597  0.9621 -1.6143
  623MOL0     H84062   5.513   2.212   2.649 -2.1402 -0.3142  0.9018
  623MOL0     H84063   5.306   2.221   2.497 -0.1602 -0.4188  0.5406
  623MOL0     H84064   5.438   2.180   2.396 -1.2037  1.1411 -2.3758
  623MOL0     H84065   5.284   2.508   2.166  2.0297  0.8155  1.5596
  623MOL0     H84066   5.000   2.478   2.047 -0.3475  1.2952 -3.1018
  623MOL0     H84067   4.971   2.649   2.086  1.6531  1.3817 -3.2450
  623MOL0     H84068   5.124   2.593   2.022  0.9096 -3.2063  0.7670
  623MOL0     H84069   4.622   2.827   2.336  0.3754  1.8402  2.3335
  623MOL0     H84070   4.386   2.819   2.337  0.4919 -0.8587 -0.8930
  623MOL0     H84071   4.156   2.412   2.438  1.3812  1.3484 -3.2390
  623MOL0     H84072   4.199   2.526   2.574 -1.5139  0.9514  1.2273
  623MOL0     H84073   3.976   2.484   2.581 -1.8591 -0.0343 -1.1504
  623MOL0     H84074   4.002   2.653   2.535 -0.9925  1.3948 -3.3087
  623MOL0     H84075   3.941   2.439   2.329  4.1519  0.0748  0.5009
  623MOL0     H84076   3.945   2.605   2.296  1.8659 -0.0408  1.1198
  623MOL0     H84077   3.733   2.448   2.460  1.0152 -0.4800  1.9096
  623MOL0     H84078   3.778   2.619   2.495  2.8179  1.1370 -1.6443
  623MOL0     H84079   3.646   2.505   2.241 -1.0287  0.7277  0.7144
  623MOL0     H84080   3.739   2.653   2.237 -1.5445  0.3960 -1.8980
  623MOL0     H84081   3.504   2.601   2.420  0.9012 -3.1918 -1.1543
  623MOL0     H84082   3.593   2.761   2.413  0.4119  0.6592 -0.3527
  623MOL0     H84083   3.439   2.642   2.181 -0.7787  0.0426  1.0479
  623MOL0     H84084   3.509   2.804   2.190  0.5791 -0.9564 -0.2369
  623MOL0     H84085   3.360   2.857   2.378 -1.6799  0.0348 -0.1873
  623MOL0     H84086   3.302   2.688   2.388 -2.6575  1.4886  1.6670
  623MOL0     H84087   4.399   2.415   2.499 -0.6871  1.1896  0.7078
  623MOL0     H84088   4.643   2.425   2.490  2.6575  1.0566 -0.9619
  623MOL0     H84089   4.984   2.507   2.556  0.7395  1.8746  0.3794
  623MOL0     H84090   5.218   2.423   2.582  0.7653 -0.4981 -0.0825
  623MOL0     H84091   7.135   2.358   2.779  0.7081 -1.7028  0.1906
  623MOL0     H84092   7.373   2.404   2.737  0.2130 -2.1331  0.2725
  623MOL0     H84093   7.653   2.367   2.279  0.3800 -1.9540 -0.4778
  623MOL0     H84094   7.882   2.372   2.174  0.1880 -3.7269  0.5135
  623MOL0     H84095   8.131   2.469   2.107 -0.5605 -1.7246  0.5333
  623MOL0     H84096   8.049   2.590   2.215 -0.2545  0.5888  2.6072
  623MOL0     H84097   8.264   2.672   2.192  0.0799 -1.3673 -2.0344
  623MOL0     H84098   8.341   2.502   2.203  0.1352 -1.0463 -1.8404
  623MOL0     H84099   8.315   2.494   2.443  1.7607  0.8388 -0.6079
  623MOL0     H84100   8.198   2.630   2.440  0.1030  0.6000  0.8376
  623MOL0     H84101   8.419   2.676   2.531  0.8499  1.7641  0.3377
  623MOL0     H84102   8.361   2.792   2.407 -0.0972  0.1339  1.3200
  623MOL0     H84103   8.713   2.681   2.214  1.2267 -0.8099  1.4362
  623MOL0     H84104   8.049   2.418   2.564 -0.4467  1.1252  0.0317
  623MOL0     H84105   7.841   2.393   2.674  0.1959 -3.8104  0.3364
  624MOL0     O84106   8.030   6.006  10.053 -0.5527  0.8397 -0.1454
  624MOL0     C84107   8.134   6.057  10.017 -0.0975  0.1734  0.8285
  624MOL0     O84108   8.147   6.165   9.940  0.6293 -0.5288 -0.0969
  624MOL0     C84109   8.038   6.244   9.913  0.2959  0.0488  0.4263
  624MOL0     C84110   8.031   6.296   9.782 -0.1275 -0.4040 -0.1334
  624MOL0     C84111   7.910   6.361   9.743 -0.0948  0.0541  0.0444
  624MOL0     C84112   7.808   6.380   9.836  1.1887 -0.2068 -0.1417
  624MOL0     O84113   7.698   6.446   9.791  0.1711 -0.1805  0.0814
  624MOL0     C84114   7.567   6.396   9.818  0.3099 -0.5700  0.0728
  624MOL0     C84115   7.481   6.518   9.822  0.5350 -0.3993 -0.0024
  624MOL0     C84116   7.334   6.481   9.832  0.4635  0.6674 -0.2204
  624MOL0     C84117   7.237   6.604   9.819 -0.2591  0.3879  0.4856
  624MOL0     C84118   7.093   6.583   9.850 -0.0713  0.1424  0.8186
  624MOL0     C84119   7.004   6.705   9.844 -0.5987  0.3675  0.1666
  624MOL0     C84120   6.857   6.671   9.869  0.1683 -0.0469 -0.5620
  624MOL0     C84121   6.772   6.799   9.878 -0.6520  0.6511  0.3923
  624MOL0     N84122   6.631   6.761   9.860  0.3155  0.1655  0.8347
  624MOL0     C84123   6.553   6.782   9.745  0.0207 -0.1546 -0.7030
  624MOL0     C84124   6.427   6.773   9.794  0.1168 -0.8864  0.7050
  624MOL0     C84125   6.307   6.782   9.706  0.6100  0.4692  0.3672
  624MOL0     C84126   6.206   6.670   9.712  0.1359 -0.8239 -0.1783
  624MOL0     C84127   6.265   6.541   9.657 -0.4965  0.6812  0.0220
  624MOL0     C84128   6.186   6.416   9.693  0.0045  0.0252  0.4977
  624MOL0     O84129   6.056   6.414   9.641 -0.3694  0.0920 -0.2890
  624MOL0     C84130   5.959   6.428   9.740  0.4945  0.3742 -0.2401
  624MOL0     C84131   5.872   6.539   9.741 -0.0676  1.2046  0.1593
  624MOL0     C84132   5.763   6.546   9.833 -0.1142 -0.4437  0.5409
  624MOL0     C84133   5.692   6.682   9.839  0.1187  0.1456  0.3439
  624MOL0     C84134   5.736   6.432   9.916 -0.1945  0.0579 -0.4409
  624MOL0     C84135   5.625   6.428  10.013 -0.0701  1.2375  0.9954
  624MOL0     O84136   5.652   6.344  10.118 -0.5654 -0.5719  0.2060
  624MOL0     C84137   5.562   6.339  10.220  0.4504 -0.1564  0.4291
  624MOL0     C84138   5.610   6.355  10.345  0.0570  0.8458 -0.0934
  624MOL0     C84139   5.528   6.345  10.451  0.3092  0.1575 -0.3768
  624MOL0     C84140   5.399   6.302  10.437 -0.1816 -0.6093 -0.3390
  624MOL0     O84141   5.315   6.264  10.538 -0.0277 -0.1780  0.0874
  624MOL0     C84142   5.329   6.317  10.669 -0.1926 -0.7829 -0.1123
  624MOL0     C84143   5.310   6.467  10.666  0.2754  0.0586  0.3625
  624MOL0     C84144   5.164   6.511  10.624  0.4943  0.5990  0.6391
  624MOL0     C84145   5.078   6.497  10.739  0.2755 -0.1804 -0.1193
  624MOL0     C84146   4.944   6.569  10.713  0.4274 -0.3608  0.1604
  624MOL0     C84147   4.859   6.522  10.828 -0.0653  0.1615  0.1265
  624MOL0     C84148   4.729   6.604  10.821  0.1850  0.5040 -0.1583
  624MOL0     C84149   4.616   6.568  10.924 -0.3379  0.1162  0.3327
  624MOL0    Cl84150   4.697   6.525  11.079  0.3002 -0.6195  0.6852
  624MOL0     C84151   5.349   6.272  10.312  0.0169  0.2279  0.5479
  624MOL0     C84152   5.434   6.289  10.202 -0.3004 -0.0878 -0.1805
  624MOL0     O84153   5.523   6.498   9.993  0.5954  0.4496  1.2031
  624MOL0     C84154   5.826   6.321   9.909  0.0607 -0.5171 -0.5236
  624MOL0     C84155   5.930   6.322   9.818 -0.2350  0.0271 -0.1436
  624MOL0     N84156   6.433   6.746   9.934  0.4813 -0.1959  0.9507
  624MOL0     N84157   6.559   6.737   9.969  0.5023  0.0900 -0.5308
  624MOL0     C84158   7.816   6.330   9.974 -0.4913 -0.3410  0.7740
  624MOL0     C84159   7.938   6.272  10.014  0.2359 -0.1162 -0.2437
  624MOL0     C84160   8.267   5.995  10.048 -0.6762 -0.9872 -0.1001
  624MOL0     C84161   8.382   6.029   9.981  0.6584  0.4029  0.0962
  624MOL0     C84162   8.509   5.978  10.023  0.1743  1.0629 -0.1840
  624MOL0     C84163   8.510   5.884  10.127 -0.4877  0.0958 -0.4817
  624MOL0     O84164   8.628   5.833  10.167 -0.7983  0.5170 -0.3710
  624MOL0     C84165   8.761   5.882  10.134 -0.3240  0.2677 -0.3000
  624MOL0     C84166   8.860   5.767  10.173 -1.0781 -1.0988  0.0367
  624MOL0     C84167   8.869   5.656  10.067 -0.5133  0.7225  0.2389
  624MOL0     C84168   8.965   5.545  10.109 -0.1706  0.1816  0.4865
  624MOL0     C84169   9.106   5.573  10.086 -0.2547  0.2563 -0.1460
  624MOL0     C84170   9.230   5.578  10.068  0.7573  0.0591  0.1861
  624MOL0     C84171   8.391   5.847  10.188 -0.5775  1.4698 -0.8899
  624MOL0     C84172   8.273   5.906  10.151  0.2351  0.1738 -1.2288
  624MOL0     H84173   8.114   6.289   9.712 -0.3130  2.9350 -0.8375
  624MOL0     H84174   7.901   6.402   9.643 -0.8886 -0.5475 -0.1367
  624MOL0     H84175   7.538   6.330   9.735  1.1127  0.2699 -0.8933
  624MOL0     H84176   7.555   6.340   9.911  1.2639  0.1007  0.6108
  624MOL0     H84177   7.498   6.580   9.910  0.6918 -0.1048 -0.2402
  624MOL0     H84178   7.497   6.569   9.727 -1.5865  0.9265  0.2775
  624MOL0     H84179   7.311   6.394   9.770  0.1739  0.1176  0.6343
  624MOL0     H84180   7.316   6.437   9.931 -0.8780 -0.2505 -0.8417
  624MOL0     H84181   7.272   6.684   9.885  1.0354  1.5811 -1.5610
  624MOL0     H84182   7.244   6.641   9.717 -3.9651  0.5427  0.1765
  624MOL0     H84183   7.052   6.525   9.766 -3.2629  4.2107 -0.7941
  624MOL0     H84184   7.071   6.538   9.948 -1.3672 -1.3356 -0.0921
  624MOL0     H84185   7.042   6.778   9.917  0.8531  1.4993 -1.6494
  624MOL0     H84186   7.006   6.738   9.740 -0.4539  0.8766  0.3259
  624MOL0     H84187   6.832   6.605   9.785 -2.1233 -1.1194  0.8976
  624MOL0     H84188   6.840   6.610   9.958 -2.5489 -1.3821 -1.8888
  624MOL0     H84189   6.798   6.878   9.808 -1.1252  1.3710  1.0146
  624MOL0     H84190   6.788   6.834   9.981 -1.2193  1.9465  0.0466
  624MOL0     H84191   6.600   6.811   9.652  2.3967 -1.1764  0.1068
  624MOL0     H84192   6.251   6.874   9.724  0.0075 -0.0537  1.2517
  624MOL0     H84193   6.332   6.768   9.600  1.0768 -2.1012  0.7454
  624MOL0     H84194   6.127   6.692   9.641 -1.5847  1.5723  2.2523
  624MOL0     H84195   6.171   6.656   9.815  1.7856  0.7165  0.6556
  624MOL0     H84196   6.369   6.533   9.689 -0.3054  0.9571 -0.5367
  624MOL0     H84197   6.269   6.545   9.548 -0.7957 -0.9831 -0.0875
  624MOL0     H84198   6.189   6.400   9.801 -1.1220 -1.3477  0.3581
  624MOL0     H84199   6.236   6.328   9.651  1.0430  0.5328  0.6546
  624MOL0     H84200   5.892   6.623   9.676  1.2924 -0.1294 -1.2080
  624MOL0     H84201   5.739   6.759   9.777 -0.2412  0.8811  0.9658
  624MOL0     H84202   5.593   6.664   9.795  0.4618 -1.1103  0.0428
  624MOL0     H84203   5.694   6.701   9.947  0.3331 -4.2772  1.3310
  624MOL0     H84204   5.714   6.385  10.347  1.1010 -1.4839 -4.8903
  624MOL0     H84205   5.577   6.368  10.545 -2.8145  2.5311  0.8800
  624MOL0     H84206   5.263   6.273  10.744  0.3022  1.2712  1.6383
  624MOL0     H84207   5.431   6.304  10.707 -1.3673  2.3110  4.9443
  624MOL0     H84208   5.339   6.509  10.763 -3.3639 -1.2956  2.1997
  624MOL0     H84209   5.381   6.500  10.590 -0.2991  0.4699 -0.0001
  624MOL0     H84210   5.131   6.458  10.534  2.2449  1.2447 -0.4378
  624MOL0     H84211   5.173   6.613  10.585 -3.2443 -0.2821 -3.2290
  624MOL0     H84212   5.067   6.390  10.758  4.3239 -0.8991 -0.9877
  624MOL0     H84213   5.137   6.542  10.820  0.5123 -0.7089  0.0038
  624MOL0     H84214   4.890   6.524  10.628  1.3716 -1.9907  0.3802
  624MOL0     H84215   4.960   6.676  10.700  1.3910 -0.2825  1.8423
  624MOL0     H84216   4.831   6.417  10.820  0.8050 -0.0788  0.1994
  624MOL0     H84217   4.911   6.546  10.921 -0.1294  0.1112  0.1746
  624MOL0     H84218   4.678   6.598  10.725 -1.5393 -0.5607  0.7714
  624MOL0     H84219   4.760   6.708  10.835 -2.9007  1.2376  2.3011
  624MOL0     H84220   4.550   6.493  10.879 -0.6520 -0.3421  1.5337
  624MOL0     H84221   4.552   6.652  10.950  0.4185  1.2131 -1.1895
  624MOL0     H84222   5.256   6.217  10.299 -0.5645  1.1716  0.6558
  624MOL0     H84223   5.408   6.251  10.103 -0.2064 -1.3232  0.2549
  624MOL0     H84224   5.809   6.236   9.974  0.0048 -0.1626 -0.0619
  624MOL0     H84225   5.992   6.233   9.814 -2.5673 -1.7704  0.7805
  624MOL0     H84226   7.733   6.349  10.042  0.4279 -0.9893  2.1220
  624MOL0     H84227   7.952   6.250  10.119 -2.5676  1.8129  0.6410
  624MOL0     H84228   8.367   6.087   9.890  0.1871 -2.2657 -1.6474
  624MOL0     H84229   8.603   6.012   9.981  1.3026 -4.1926 -2.6444
  624MOL0     H84230   8.772   5.898  10.026 -0.7921 -0.8930 -0.5295
  624MOL0     H84231   8.781   5.982  10.174  0.8780  0.2159 -0.7480
  624MOL0     H84232   8.823   5.720  10.264  0.1063 -1.4136  0.3742
  624MOL0     H84233   8.963   5.802  10.184 -1.4363 -0.2560  0.8381
  624MOL0     H84234   8.908   5.703   9.976 -3.0178  0.6250 -0.9400
  624MOL0     H84235   8.773   5.614  10.037  0.3282 -1.6050  0.6367
  624MOL0     H84236   8.941   5.450  10.061 -1.8182  0.6093  0.4151
  624MOL0     H84237   8.953   5.541  10.218  0.0037 -2.1535  0.4748
  624MOL0     H84238   9.335   5.590  10.049  0.2819  1.5213 -1.8456
  624MOL0     H84239   8.392   5.770  10.264  1.0434  2.5980  0.2970
  624MOL0     H84240   8.184   5.880  10.207  1.5898  0.3765  1.1431
  625MOL0     O84241   6.021   8.929   8.425 -0.2395 -0.9283 -0.0080
  625MOL0     C84242   6.035   8.860   8.532 -0.1840 -0.4277 -0.6196
  625MOL0     O84243   5.933   8.833   8.627  0.3121  0.5393  0.6017
  625MOL0     C84244   5.814   8.883   8.592  0.3640 -0.4404  1.0088
  625MOL0     C84245   5.701   8.804   8.572  0.2030  0.1402 -0.7896
  625MOL0     C84246   5.585   8.868   8.532 -0.3660 -0.3129  0.5080
  625MOL0     C84247   5.586   9.008   8.518  0.3923 -0.3425 -0.1725
  625MOL0     O84248   5.467   9.057   8.472 -0.5020  0.5109  0.5581
  625MOL0     C84249   5.454   9.186   8.405  0.3755  0.7559 -0.2712
  625MOL0     C84250   5.331   9.166   8.326  0.6773 -0.5156  0.2465
  625MOL0     C84251   5.283   9.310   8.286  0.0995 -0.3677  0.0316
  625MOL0     C84252   5.156   9.297   8.207 -0.0757  0.3860  0.1845
  625MOL0     C84253   5.039   9.227   8.284  0.1240  0.4249  0.9454
  625MOL0     C84254   4.995   9.287   8.423  0.2384 -0.5077  0.4616
  625MOL0     C84255   4.950   9.436   8.402 -0.5939  0.2361  0.0127
  625MOL0     C84256   4.812   9.482   8.458 -0.4593 -0.9196 -0.1550
  625MOL0     N84257   4.805   9.496   8.603  0.0387  0.2781 -0.9029
  625MOL0     C84258   4.861   9.414   8.697  0.4848  0.9182 -0.2820
  625MOL0     C84259   4.851   9.475   8.816 -0.5088  0.2276  0.5140
  625MOL0     C84260   4.918   9.441   8.946 -0.3572 -0.6608  0.4305
  625MOL0     C84261   5.062   9.388   8.936  0.0028 -0.5186 -0.4012
  625MOL0     C84262   5.156   9.483   8.876  0.3085 -0.3103 -0.5401
  625MOL0     C84263   5.306   9.436   8.869 -0.8584 -0.8189  0.0154
  625MOL0     O84264   5.390   9.531   8.799  0.1827  0.9112 -0.2792
  625MOL0     C84265   5.522   9.496   8.779  0.2727  0.9132 -0.2742
  625MOL0     C84266   5.592   9.549   8.677  0.1870 -0.4302 -0.1464
  625MOL0     C84267   5.729   9.525   8.645  0.1715 -0.0332 -0.0932
  625MOL0     C84268   5.784   9.603   8.529 -1.0461 -0.7921  0.3690
  625MOL0     C84269   5.797   9.426   8.730 -0.6196  0.1969 -0.5309
  625MOL0     C84270   5.934   9.373   8.708 -0.1376 -0.6063 -0.4479
  625MOL0     O84271   5.975   9.275   8.804 -0.2509 -0.0547 -0.0391
  625MOL0     C84272   6.109   9.249   8.799 -0.0214  0.6484 -0.2546
  625MOL0     C84273   6.198   9.348   8.835  0.5321  0.4142 -0.0818
  625MOL0     C84274   6.337   9.326   8.830  0.0575 -0.1040 -0.6329
  625MOL0     C84275   6.390   9.208   8.783 -0.8958  0.0631 -0.5593
  625MOL0     O84276   6.522   9.192   8.768  0.1411 -0.3305  0.1171
  625MOL0     C84277   6.613   9.302   8.747 -0.5202  0.1631  0.4264
  625MOL0     C84278   6.756   9.247   8.728  0.5363 -0.3636  0.1917
  625MOL0     C84279   6.775   9.147   8.611  0.5794  0.0872 -0.2436
  625MOL0     C84280   6.926   9.138   8.595 -0.0927 -0.1943 -0.1751
  625MOL0     C84281   6.979   9.057   8.478  0.2401 -0.0434  0.0956
  625MOL0     C84282   6.962   8.908   8.490  0.7077  0.0566 -0.2177
  625MOL0     C84283   7.047   8.835   8.378 -0.5002 -0.2928  0.7610
  625MOL0     C84284   7.025   8.680   8.371  0.2059 -0.6622  0.3114
  625MOL0    Cl84285   6.861   8.644   8.304  0.7002 -0.1850 -0.0869
  625MOL0     C84286   6.298   9.098   8.764  0.1634  0.3019 -0.1306
  625MOL0     C84287   6.156   9.123   8.768 -0.7119  0.4521 -0.4639
  625MOL0     O84288   6.000   9.407   8.607 -0.7926  0.1416 -0.1550
  625MOL0     C84289   5.722   9.362   8.838 -0.3164 -0.0707  0.3664
  625MOL0     C84290   5.592   9.403   8.867 -0.0880 -0.0152  0.2645
  625MOL0     N84291   4.802   9.602   8.806  0.4020 -0.1459  0.0370
  625MOL0     N84292   4.769   9.610   8.676 -0.1263 -0.4199  0.3560
  625MOL0     C84293   5.690   9.093   8.547 -0.0991  0.8537 -0.1224
  625MOL0     C84294   5.806   9.028   8.584 -0.5880  0.3183 -0.2591
  625MOL0     C84295   6.180   8.816   8.558  0.1815 -0.3525  0.4024
  625MOL0     C84296   6.285   8.854   8.468 -0.6887  0.2026 -0.5375
  625MOL0     C84297   6.418   8.805   8.497  0.8873 -0.7461 -0.1333
  625MOL0     C84298   6.449   8.745   8.614  0.0060  0.4994  0.6049
  625MOL0     O84299   6.582   8.718   8.629  0.0903 -0.3590  0.0682
  625MOL0     C84300   6.636   8.734   8.759 -0.7442 -0.0407 -0.4835
  625MOL0     C84301   6.700   8.608   8.821 -0.3096  0.3883 -0.2801
  625MOL0     C84302   6.830   8.577   8.744  0.4194 -0.4195 -0.4143
  625MOL0     C84303   6.882   8.442   8.781 -0.2607  0.3830  0.1978
  625MOL0     C84304   6.967   8.398   8.672 -0.0492  0.5795 -0.0802
  625MOL0     C84305   7.049   8.366   8.595  0.1415 -0.3573 -0.4530
  625MOL0     C84306   6.345   8.712   8.703 -1.4191 -0.4799  0.6194
  625MOL0     C84307   6.205   8.739   8.671 -0.7449 -0.6275  0.6267
  625MOL0     H84308   5.687   8.696   8.568  2.5661 -0.3666  1.6535
  625MOL0     H84309   5.499   8.810   8.497 -1.3688 -0.8689  3.5704
  625MOL0     H84310   5.446   9.265   8.479  1.6203  1.7969 -1.1996
  625MOL0     H84311   5.541   9.210   8.342  0.7791  2.4676  0.8692
  625MOL0     H84312   5.354   9.110   8.235  0.9426  1.3075 -0.8584
  625MOL0     H84313   5.253   9.117   8.386  1.2245 -1.6652  0.0420
  625MOL0     H84314   5.281   9.373   8.376  1.4009 -1.2517  0.7197
  625MOL0     H84315   5.354   9.348   8.213 -2.8802  0.7953 -2.4938
  625MOL0     H84316   5.130   9.401   8.187  0.5990  0.2883 -1.2695
  625MOL0     H84317   5.171   9.241   8.114 -2.0465  1.9894 -1.1915
  625MOL0     H84318   4.956   9.233   8.212  1.9718 -0.5616 -1.3967
  625MOL0     H84319   5.057   9.119   8.289  0.1594  0.1485 -2.6079
  625MOL0     H84320   4.902   9.240   8.456 -0.2945 -0.9400 -1.5243
  625MOL0     H84321   5.081   9.274   8.490  0.3438 -0.6296  0.3034
  625MOL0     H84322   5.034   9.496   8.436 -1.9303  2.7772 -0.8718
  625MOL0     H84323   4.941   9.451   8.294 -1.3413 -1.8482 -0.2590
  625MOL0     H84324   4.735   9.415   8.417 -0.3224 -0.3818 -1.3534
  625MOL0     H84325   4.793   9.579   8.410  2.1919 -1.5238 -2.7048
  625MOL0     H84326   4.913   9.319   8.689 -1.4816 -0.2970  0.5539
  625MOL0     H84327   4.904   9.531   9.006 -2.1287 -0.1420 -0.6762
  625MOL0     H84328   4.861   9.356   8.984  2.0349 -1.8196  1.6402
  625MOL0     H84329   5.059   9.303   8.867  2.1016 -0.8079 -0.1742
  625MOL0     H84330   5.097   9.354   9.033  2.8802  2.9293 -0.0386
  625MOL0     H84331   5.156   9.557   8.956  0.1121 -1.5307  0.6074
  625MOL0     H84332   5.121   9.527   8.782  0.5248 -0.5978 -0.7556
  625MOL0     H84333   5.319   9.340   8.818 -1.1715 -0.3386 -1.0047
  625MOL0     H84334   5.339   9.424   8.972 -0.3081 -2.7454 -0.3482
  625MOL0     H84335   5.543   9.621   8.612  0.5141 -0.0668 -0.0011
  625MOL0     H84336   5.790   9.541   8.440  2.3059  0.2744 -0.3250
  625MOL0     H84337   5.725   9.689   8.495  1.3170  0.1536 -1.6466
  625MOL0     H84338   5.885   9.644   8.546 -1.4079  0.5499 -0.5469
  625MOL0     H84339   6.165   9.447   8.865 -3.5145 -0.7338 -0.2201
  625MOL0     H84340   6.400   9.412   8.852  1.4193 -0.3414 -3.1305
  625MOL0     H84341   6.599   9.350   8.649 -0.1510  0.2502  0.4162
  625MOL0     H84342   6.612   9.370   8.833 -1.1503  1.9620 -0.9268
  625MOL0     H84343   6.826   9.330   8.715 -2.9985  2.4901 -2.7784
  625MOL0     H84344   6.788   9.205   8.824 -0.4774 -0.1314  0.6425
  625MOL0     H84345   6.728   9.178   8.517 -1.2443  0.5034  0.7722
  625MOL0     H84346   6.730   9.050   8.631 -1.9880  1.0792 -0.8633
  625MOL0     H84347   6.976   9.235   8.599 -0.5681  0.0671 -0.5285
  625MOL0     H84348   6.954   9.081   8.684  2.6840  2.2193  0.6559
  625MOL0     H84349   7.084   9.085   8.468 -0.3353  1.8380 -1.2215
  625MOL0     H84350   6.931   9.074   8.381  1.6262 -2.7518 -1.1536
  625MOL0     H84351   7.003   8.868   8.583 -0.3728  0.5518  0.4871
  625MOL0     H84352   6.856   8.882   8.483  0.8764 -1.8400  2.7223
  625MOL0     H84353   7.152   8.855   8.398 -0.4262 -0.8254  0.9344
  625MOL0     H84354   7.018   8.877   8.281  0.3335 -0.1916  0.5466
  625MOL0     H84355   7.021   8.645   8.475 -0.0558  0.8548  0.8380
  625MOL0     H84356   7.103   8.632   8.312 -0.9691 -0.0986 -1.7875
  625MOL0     H84357   6.334   9.000   8.736 -0.2790  0.2132 -0.3930
  625MOL0     H84358   6.096   9.037   8.743 -2.6892  1.5626  0.1841
  625MOL0     H84359   5.765   9.289   8.905 -0.7937 -1.3770 -0.7040
  625MOL0     H84360   5.542   9.372   8.958 -0.1048 -0.1391  0.2120
  625MOL0     H84361   5.686   9.201   8.538  1.9851  0.9530 -0.2373
  625MOL0     H84362   5.885   9.095   8.618 -0.6059  1.8509 -2.9191
  625MOL0     H84363   6.263   8.911   8.378  0.0447 -0.5045 -1.1869
  625MOL0     H84364   6.496   8.840   8.429  0.2523  0.3561 -0.3137
  625MOL0     H84365   6.715   8.807   8.743 -0.2159 -0.5290 -0.1475
  625MOL0     H84366   6.568   8.784   8.828  0.7037  1.2776  0.0178
  625MOL0     H84367   6.625   8.529   8.811 -1.9863  1.7637  0.6868
  625MOL0     H84368   6.726   8.619   8.927  1.4020  2.1752 -0.8192
  625MOL0     H84369   6.908   8.649   8.770  1.0233 -1.3475  0.4183
  625MOL0     H84370   6.799   8.579   8.639 -1.5712 -1.4930  0.1013
  625MOL0     H84371   6.809   8.362   8.793 -0.1795  0.0001 -1.5952
  625MOL0     H84372   6.938   8.463   8.873  1.1715 -0.4951 -0.4395
  625MOL0     H84373   7.132   8.342   8.533  0.9861 -0.5418  0.7081
  625MOL0     H84374   6.376   8.668   8.798  0.5201  2.3346  1.4545
  625MOL0     H84375   6.129   8.724   8.747  0.0610  2.4181  2.2001
  626MOL0     O84376   8.224  10.299   6.239 -0.9001 -0.0546  0.0390
  626MOL0     C84377   8.276  10.199   6.297 -0.7053  0.0824 -0.5910
  626MOL0     O84378   8.209  10.097   6.344  0.4109 -0.6149  0.1113
  626MOL0     C84379   8.075  10.104   6.314 -0.3467  0.3879  0.0246
  626MOL0     C84380   7.983  10.150   6.409  0.5872 -0.8150  0.5279
  626MOL0     C84381   7.848  10.163   6.381 -0.1215 -1.1048  0.3842
  626MOL0     C84382   7.807  10.110   6.254  0.1461 -0.8582 -0.7311
  626MOL0     O84383   7.675  10.075   6.205  0.2620 -0.2644 -0.5479
  626MOL0     C84384   7.560  10.073   6.295 -0.2944 -0.1083  0.2602
  626MOL0     C84385   7.511   9.943   6.354  0.6971 -0.0358 -0.0543
  626MOL0     C84386   7.400   9.871   6.267  0.2892  0.3646  0.2835
  626MOL0     C84387   7.332   9.772   6.359  0.7814  0.0522  0.4479
  626MOL0     C84388   7.200   9.706   6.314 -0.1697  0.2087 -1.0847
  626MOL0     C84389   7.228   9.597   6.213  0.0328  0.0702 -1.1280
  626MOL0     C84390   7.107   9.527   6.151  0.3032  0.2173 -0.5958
  626MOL0     C84391   7.012   9.463   6.258  0.0411 -0.4025 -0.8916
  626MOL0     N84392   6.946   9.337   6.212  0.1589  0.4873 -0.1259
  626MOL0     C84393   6.816   9.309   6.169 -0.4827  0.1209 -0.2774
  626MOL0     C84394   6.794   9.174   6.172 -0.5652 -0.7218  0.5813
  626MOL0     C84395   6.658   9.120   6.136 -0.8381 -0.6660  0.2969
  626MOL0     C84396   6.632   8.977   6.154 -0.7991 -0.6973  0.2903
  626MOL0     C84397   6.493   8.914   6.142  0.6819  0.3825 -0.0707
  626MOL0     C84398   6.398   8.939   6.266  0.0199  0.2227  0.2976
  626MOL0     O84399   6.274   8.901   6.213 -0.9179  0.0154 -0.2290
  626MOL0     C84400   6.162   8.912   6.292  0.4160  0.7234 -0.3983
  626MOL0     C84401   6.048   8.861   6.237  0.0350  0.3053 -0.1346
  626MOL0     C84402   5.935   8.856   6.314  0.4736 -0.0449 -0.2976
  626MOL0     C84403   5.812   8.784   6.258 -0.5319 -0.0983  0.8611
  626MOL0     C84404   5.930   8.926   6.434 -0.1653 -0.9670 -0.1673
  626MOL0     C84405   5.798   8.952   6.512  0.3556 -0.0873  0.1784
  626MOL0     O84406   5.675   8.908   6.458  1.4947  0.4298  0.4198
  626MOL0     C84407   5.566   8.896   6.545  0.0593 -0.4777  0.2620
  626MOL0     C84408   5.572   8.879   6.685  0.1785  0.2146  1.0664
  626MOL0     C84409   5.452   8.874   6.763  0.2577  0.3235  0.3714
  626MOL0     C84410   5.329   8.878   6.705 -0.1077 -0.5670  0.1941
  626MOL0     O84411   5.227   8.842   6.798 -0.3763  0.4750  0.5705
  626MOL0     C84412   5.100   8.906   6.783 -0.7156 -0.3585  1.0438
  626MOL0     C84413   5.002   8.848   6.879  0.0452 -0.2254 -0.4651
  626MOL0     C84414   4.866   8.926   6.864 -0.4922  0.7754 -0.2965
  626MOL0     C84415   4.764   8.900   6.971 -0.1502 -0.5039 -0.1645
  626MOL0     C84416   4.651   9.002   6.965 -0.1645 -0.5513 -0.2673
  626MOL0     C84417   4.534   8.983   7.072  0.5060 -0.3328 -0.2626
  626MOL0     C84418   4.446   9.105   7.069  0.5255  0.4519  0.8946
  626MOL0     C84419   4.321   9.071   6.987 -1.2508  0.3945 -0.0847
  626MOL0    Cl84420   4.213   9.204   7.007 -0.0656 -0.3440  0.0954
  626MOL0     C84421   5.322   8.889   6.568  0.1162 -0.5355 -0.1564
  626MOL0     C84422   5.437   8.901   6.495  0.4392 -0.2023 -0.0164
  626MOL0     O84423   5.812   8.997   6.622 -0.7625 -0.7488  0.9812
  626MOL0     C84424   6.051   8.976   6.496  0.4240  0.3508 -0.7051
  626MOL0     C84425   6.171   8.966   6.420  0.6303  0.4454  0.2923
  626MOL0     N84426   6.912   9.114   6.219 -0.0703  0.6491 -0.4372
  626MOL0     N84427   6.999   9.208   6.236 -0.1050 -0.1747 -0.2122
  626MOL0     C84428   7.898  10.070   6.156 -0.0998 -0.0300  0.3597
  626MOL0     C84429   8.030  10.061   6.194 -0.2825  0.0693  0.1066
  626MOL0     C84430   8.427  10.204   6.298 -0.0372 -0.5825  0.0825
  626MOL0     C84431   8.510  10.100   6.354  0.2207  0.8815  0.3547
  626MOL0     C84432   8.647  10.109   6.349 -0.1330  1.0166  0.3793
  626MOL0     C84433   8.702  10.224   6.295 -1.1259  0.3052  0.0148
  626MOL0     O84434   8.839  10.217   6.287 -0.0707 -0.3076  0.6018
  626MOL0     C84435   8.924  10.300   6.363  0.0749  0.0048  0.6042
  626MOL0     C84436   8.952  10.439   6.291  0.1458  0.1809 -0.7311
  626MOL0     C84437   9.077  10.424   6.202  0.6469  0.0408 -1.0855
  626MOL0     C84438   9.208  10.436   6.290  0.1748 -1.1782 -0.0115
  626MOL0     C84439   9.309  10.340   6.251  0.8794 -0.4787 -0.6424
  626MOL0     C84440   9.385  10.253   6.205  0.3553  0.0722  0.6243
  626MOL0     C84441   8.627  10.330   6.252  0.2742 -0.1194 -0.5670
  626MOL0     C84442   8.490  10.324   6.257 -0.0154 -0.3917 -0.8665
  626MOL0     H84443   8.019  10.186   6.505  1.0327 -4.2288  1.7953
  626MOL0     H84444   7.779  10.198   6.457 -1.3411 -1.4156 -0.5361
  626MOL0     H84445   7.581  10.142   6.378  1.4511 -1.3298  0.8980
  626MOL0     H84446   7.481  10.124   6.238  1.3454  1.1475 -0.9728
  626MOL0     H84447   7.598   9.878   6.367  0.5589 -0.7384 -2.1991
  626MOL0     H84448   7.478   9.971   6.454 -0.5698  1.6450 -0.8798
  626MOL0     H84449   7.324   9.940   6.227 -1.3347 -1.1016  0.7269
  626MOL0     H84450   7.444   9.811   6.187 -1.9731 -2.5535  1.0694
  626MOL0     H84451   7.407   9.697   6.388  3.2969 -0.6641 -6.2161
  626MOL0     H84452   7.306   9.828   6.450 -2.9933 -0.4892 -0.1457
  626MOL0     H84453   7.150   9.667   6.403  0.6242 -0.0773 -0.7528
  626MOL0     H84454   7.135   9.783   6.271  0.3378  1.2150 -0.1274
  626MOL0     H84455   7.281   9.641   6.128 -1.2206  0.8124 -1.5536
  626MOL0     H84456   7.292   9.522   6.259 -0.5808  0.8522  1.1522
  626MOL0     H84457   7.049   9.597   6.090  0.3112  0.4949 -0.2847
  626MOL0     H84458   7.133   9.451   6.077 -0.2075  0.7339 -1.3139
  626MOL0     H84459   6.938   9.543   6.265 -1.5020 -1.8850  0.7256
  626MOL0     H84460   7.065   9.450   6.353  1.4648  0.6888 -1.5008
  626MOL0     H84461   6.737   9.380   6.147 -0.7104 -0.2144 -0.5540
  626MOL0     H84462   6.597   9.170   6.212  1.0392  0.6383  1.0323
  626MOL0     H84463   6.637   9.158   6.035  1.0414 -0.7315 -0.1566
  626MOL0     H84464   6.673   8.950   6.252  0.6457 -0.8573 -0.3314
  626MOL0     H84465   6.695   8.921   6.084  1.2786  0.4971  1.1079
  626MOL0     H84466   6.493   8.806   6.124 -2.6589  0.4069 -0.9373
  626MOL0     H84467   6.437   8.963   6.062 -2.0771  3.7894  3.4983
  626MOL0     H84468   6.409   9.041   6.303  2.0656  0.0400  0.2887
  626MOL0     H84469   6.430   8.867   6.342 -2.0462 -2.0140 -0.8197
  626MOL0     H84470   6.062   8.810   6.142 -1.2140 -1.5276  0.6046
  626MOL0     H84471   5.747   8.730   6.328 -4.4787  3.3586  0.3049
  626MOL0     H84472   5.747   8.846   6.196  1.1496 -1.1240 -2.1063
  626MOL0     H84473   5.843   8.719   6.176 -2.3133 -0.1676  0.2040
  626MOL0     H84474   5.662   8.851   6.738 -0.8141 -0.2922  2.5429
  626MOL0     H84475   5.464   8.845   6.867 -2.9530  0.2560  0.8214
  626MOL0     H84476   5.117   9.014   6.796  2.0498 -0.9234  2.9360
  626MOL0     H84477   5.062   8.884   6.683  1.4591 -1.6826  0.4468
  626MOL0     H84478   5.012   8.741   6.855 -1.2606 -0.7420  1.1150
  626MOL0     H84479   5.034   8.870   6.981  1.2617  0.6896 -1.0165
  626MOL0     H84480   4.823   8.906   6.765 -0.2952  0.7999 -0.3886
  626MOL0     H84481   4.887   9.033   6.861 -2.5590  1.2093 -0.9938
  626MOL0     H84482   4.717   8.802   6.962 -0.9332 -0.0960 -0.5118
  626MOL0     H84483   4.812   8.907   7.070 -0.5732  0.5086 -0.0198
  626MOL0     H84484   4.618   8.985   6.863  0.7453 -0.3667 -0.6026
  626MOL0     H84485   4.692   9.103   6.953 -2.2538  0.4565  0.5093
  626MOL0     H84486   4.476   8.893   7.046 -1.1452 -0.6297  3.6994
  626MOL0     H84487   4.553   8.975   7.180 -3.5045  0.0274  0.6369
  626MOL0     H84488   4.492   9.197   7.030  1.8444 -0.3670  0.4545
  626MOL0     H84489   4.409   9.126   7.170 -1.4986 -0.8118  0.4734
  626MOL0     H84490   4.279   8.974   7.014 -1.0158 -0.0180 -1.1429
  626MOL0     H84491   4.350   9.066   6.882  0.4713 -2.2367  0.4252
  626MOL0     H84492   5.223   8.877   6.524 -0.5821  1.0640  0.8884
  626MOL0     H84493   5.435   8.898   6.386 -0.3101 -0.5748  0.0075
  626MOL0     H84494   6.047   9.020   6.595 -3.9598  2.1061 -1.4412
  626MOL0     H84495   6.260   9.009   6.464  0.4887  1.3471 -0.2765
  626MOL0     H84496   7.871  10.044   6.054 -0.0747  1.2495  0.0006
  626MOL0     H84497   8.101  10.015   6.126 -0.1094  0.7438 -0.1777
  626MOL0     H84498   8.456  10.012   6.389  2.7040 -1.0754 -0.4341
  626MOL0     H84499   8.723  10.037   6.379  2.0119  1.9575 -2.3540
  626MOL0     H84500   8.877  10.303   6.462  0.2300  1.2678  0.6577
  626MOL0     H84501   9.021  10.249   6.370 -0.1389 -0.5003 -0.0916
  626MOL0     H84502   8.961  10.520   6.364  2.6599 -0.7309  0.1047
  626MOL0     H84503   8.875  10.472   6.222 -1.4354  2.2698  1.8164
  626MOL0     H84504   9.080  10.509   6.133 -0.6277  1.0098  0.0004
  626MOL0     H84505   9.081  10.322   6.161  1.6509 -0.3223 -0.1311
  626MOL0     H84506   9.186  10.431   6.397 -0.6461  0.4859 -0.0664
  626MOL0     H84507   9.253  10.532   6.261 -0.0774 -1.1425 -0.2848
  626MOL0     H84508   9.440  10.176   6.156 -0.5494  0.9349 -1.8779
  626MOL0     H84509   8.675  10.416   6.208  0.7246  0.2245  0.5630
  626MOL0     H84510   8.442  10.417   6.231  2.9478  1.9531  1.2705
  627MOL0     O84511   7.379   9.345   2.277 -0.1494 -0.2540  0.4076
  627MOL0     C84512   7.418   9.410   2.375 -0.6065  1.0221 -0.2265
  627MOL0     O84513   7.334   9.455   2.467  0.1229  0.2426 -0.1003
  627MOL0     C84514   7.200   9.433   2.463  1.7336 -0.1314 -0.3475
  627MOL0     C84515   7.132   9.427   2.590  0.7868  0.2143  0.4431
  627MOL0     C84516   6.995   9.400   2.605  0.4452  0.1163 -0.4312
  627MOL0     C84517   6.921   9.383   2.486 -0.7912  0.7055  0.6628
  627MOL0     O84518   6.789   9.345   2.493  0.0045  0.4368 -0.4708
  627MOL0     C84519   6.710   9.448   2.562  0.0873 -0.8229 -0.0502
  627MOL0     C84520   6.658   9.543   2.455 -0.8626  0.8592 -0.8918
  627MOL0     C84521   6.543   9.470   2.375 -0.3121  0.5597 -0.5354
  627MOL0     C84522   6.512   9.553   2.250  0.0734  0.4003 -1.1780
  627MOL0     C84523   6.409   9.491   2.156 -0.3578  0.3858 -0.5271
  627MOL0     C84524   6.343   9.583   2.048 -0.2962  0.0950 -0.8691
  627MOL0     C84525   6.254   9.494   1.950  0.0415 -0.0427 -0.3733
  627MOL0     C84526   6.173   9.586   1.862  0.6713 -0.0739 -0.0293
  627MOL0     N84527   6.043   9.520   1.840 -0.3617  0.7019 -0.3779
  627MOL0     C84528   5.928   9.533   1.914  0.8217  0.2071  0.0314
  627MOL0     C84529   5.831   9.456   1.853 -0.0230  0.4797  1.0842
  627MOL0     C84530   5.685   9.465   1.886  0.1510  0.0378 -0.4634
  627MOL0     C84531   5.618   9.333   1.848  0.1275  0.6503  0.0419
  627MOL0     C84532   5.473   9.344   1.881  0.7130 -0.2038 -0.5037
  627MOL0     C84533   5.379   9.241   1.818  0.0263  0.4167  0.1061
  627MOL0     O84534   5.250   9.298   1.827  0.3973 -0.4919 -0.2147
  627MOL0     C84535   5.145   9.225   1.775 -0.1409 -0.4022  0.2487
  627MOL0     C84536   5.149   9.103   1.708 -0.1159 -0.1731  0.6253
  627MOL0     C84537   5.030   9.050   1.649 -0.1845 -0.5300 -0.3817
  627MOL0     C84538   5.056   8.918   1.575 -0.5602  0.5101  0.2250
  627MOL0     C84539   4.916   9.128   1.656  0.0785 -0.5039 -0.5201
  627MOL0     C84540   4.785   9.094   1.593 -0.2707  0.2313  0.0653
  627MOL0     O84541   4.669   9.152   1.654 -0.0805  0.9274  0.3815
  627MOL0     C84542   4.556   9.120   1.582 -0.0063  0.3953 -0.0719
  627MOL0     C84543   4.502   8.994   1.586  0.0851 -0.2015  0.5753
  627MOL0     C84544   4.394   8.951   1.511 -0.8949 -0.1995  0.4211
  627MOL0     C84545   4.322   9.050   1.434 -1.1352  0.5743  0.8333
  627MOL0     O84546   4.208   9.008   1.364  0.2344 -0.2864  0.1595
  627MOL0     C84547   4.133   9.119   1.315 -0.4465 -0.2157 -0.0636
  627MOL0     C84548   3.991   9.055   1.306 -0.1658  0.3643  0.1031
  627MOL0     C84549   3.888   9.167   1.280  0.3160 -0.0310  0.6317
  627MOL0     C84550   3.763   9.118   1.214  0.1233  0.2931  0.0444
  627MOL0     C84551   3.688   9.011   1.288  0.1282 -0.4203 -0.2490
  627MOL0     C84552   3.551   8.978   1.229 -0.0171 -0.8898  0.9053
  627MOL0     C84553   3.486   8.882   1.328  0.0637 -0.0915 -0.2061
  627MOL0     C84554   3.364   8.814   1.268  1.1651  0.8364 -1.0111
  627MOL0    Cl84555   3.246   8.948   1.256 -0.3634 -0.0814 -0.0645
  627MOL0     C84556   4.372   9.178   1.430  0.0021  0.2584  0.3357
  627MOL0     C84557   4.490   9.213   1.498 -0.2640  0.0011 -0.0821
  627MOL0     O84558   4.786   9.019   1.496 -0.2262  0.2713  0.2544
  627MOL0     C84559   4.916   9.248   1.721 -0.6777  0.3537 -0.3834
  627MOL0     C84560   5.025   9.294   1.789  0.0956 -0.3165 -0.2057
  627MOL0     N84561   5.889   9.395   1.742 -0.3393 -0.6652 -0.7221
  627MOL0     N84562   6.016   9.435   1.739  0.6277  1.2354  0.4086
  627MOL0     C84563   6.986   9.391   2.364  0.0169 -0.0563  0.2062
  627MOL0     C84564   7.122   9.417   2.349  1.1511  0.1128  1.4258
  627MOL0     C84565   7.566   9.418   2.392 -0.6550 -0.5237  0.7511
  627MOL0     C84566   7.629   9.480   2.507 -0.3256 -0.4004  0.4402
  627MOL0     C84567   7.767   9.499   2.512 -0.0433  1.1595 -0.2485
  627MOL0     C84568   7.846   9.463   2.399  0.5834  0.7925 -0.6654
  627MOL0     O84569   7.983   9.482   2.404 -0.3363  0.3822 -0.3206
  627MOL0     C84570   8.048   9.463   2.529  0.5370 -0.1743  0.1465
  627MOL0     C84571   8.045   9.319   2.581 -0.5726  0.2337  0.5769
  627MOL0     C84572   8.161   9.234   2.539 -0.0308 -1.2424  0.3314
  627MOL0     C84573   8.169   9.221   2.385  0.8108  0.0982  0.3623
  627MOL0     C84574   8.270   9.124   2.353 -0.1859  0.5597  0.0843
  627MOL0     C84575   8.350   9.044   2.315  0.1699 -0.1214  0.3048
  627MOL0     C84576   7.793   9.402   2.286 -0.0697 -1.2104 -0.1845
  627MOL0     C84577   7.648   9.385   2.278 -0.2508 -0.5737  0.6040
  627MOL0     H84578   7.189   9.457   2.677  3.0702  1.8431 -1.4928
  627MOL0     H84579   6.939   9.394   2.698 -0.5293  0.7682 -0.9532
  627MOL0     H84580   6.630   9.394   2.613  0.1247 -4.0838 -3.0631
  627MOL0     H84581   6.760   9.512   2.636 -2.1978  2.4882 -1.1643
  627MOL0     H84582   6.608   9.632   2.493  0.1848  1.0929 -0.0327
  627MOL0     H84583   6.731   9.585   2.385 -0.2317  0.0637 -0.7339
  627MOL0     H84584   6.565   9.367   2.345 -2.8064  0.6506 -3.2592
  627MOL0     H84585   6.451   9.468   2.435 -0.1537  2.0688 -0.2018
  627MOL0     H84586   6.478   9.648   2.293 -1.5660  0.0657 -1.6742
  627MOL0     H84587   6.608   9.571   2.200 -0.2031  0.7048 -1.5958
  627MOL0     H84588   6.457   9.406   2.105  1.8213  0.0971  1.8008
  627MOL0     H84589   6.330   9.437   2.210  0.7387 -2.3554 -1.4505
  627MOL0     H84590   6.294   9.664   2.103  1.2089  0.6093 -0.2377
  627MOL0     H84591   6.422   9.637   1.996  2.3259 -0.4810  2.2242
  627MOL0     H84592   6.328   9.431   1.900  1.3589  2.0913 -1.2396
  627MOL0     H84593   6.189   9.426   2.006  2.7227 -2.6306 -0.1561
  627MOL0     H84594   6.227   9.583   1.767  0.4816 -1.8439 -0.1132
  627MOL0     H84595   6.157   9.685   1.906 -1.8944 -0.2437 -0.4373
  627MOL0     H84596   5.916   9.592   2.004 -2.5186 -1.7365  1.0448
  627MOL0     H84597   5.687   9.487   1.993 -2.3532  0.4648 -0.4622
  627MOL0     H84598   5.631   9.539   1.827 -1.4059 -0.0770  0.7412
  627MOL0     H84599   5.665   9.255   1.908  0.1251 -1.3333 -2.4087
  627MOL0     H84600   5.625   9.317   1.740 -3.4891  1.5822 -0.4920
  627MOL0     H84601   5.440   9.438   1.835  0.6535 -1.3466 -2.9333
  627MOL0     H84602   5.453   9.337   1.989  3.6264 -3.4390  0.0193
  627MOL0     H84603   5.384   9.141   1.861  1.2282  0.4034 -0.0293
  627MOL0     H84604   5.402   9.233   1.712 -2.1796 -0.5173 -0.3637
  627MOL0     H84605   5.244   9.051   1.708  0.0173  0.0141 -1.2507
  627MOL0     H84606   5.160   8.886   1.587 -0.2519  1.5226  0.3092
  627MOL0     H84607   4.991   8.839   1.614  1.2005 -2.2027 -1.9305
  627MOL0     H84608   5.045   8.928   1.467  0.8831 -3.1883 -0.4222
  627MOL0     H84609   4.561   8.917   1.635 -1.3303 -0.5172  1.8704
  627MOL0     H84610   4.347   8.853   1.516 -0.0636 -0.5774  0.9208
  627MOL0     H84611   4.131   9.209   1.377 -1.2451 -0.1672 -0.1486
  627MOL0     H84612   4.165   9.163   1.220  0.1012  0.6607  0.5130
  627MOL0     H84613   3.972   8.978   1.231 -1.7396 -1.3372  2.1258
  627MOL0     H84614   3.969   9.010   1.403  1.1578  0.5382  0.5004
  627MOL0     H84615   3.935   9.242   1.215  0.6869 -2.5468 -2.2112
  627MOL0     H84616   3.871   9.211   1.379  1.8116 -3.1814  2.4637
  627MOL0     H84617   3.706   9.210   1.196  1.4778  1.5967  1.9749
  627MOL0     H84618   3.773   9.087   1.109 -0.9137  0.1734 -0.0293
  627MOL0     H84619   3.676   9.059   1.386  1.8190  1.8500 -1.0688
  627MOL0     H84620   3.748   8.922   1.310  0.5409 -0.1366 -0.2003
  627MOL0     H84621   3.485   9.065   1.228 -1.6949 -2.0099 -2.9361
  627MOL0     H84622   3.563   8.940   1.127  1.5021 -0.3796  0.8669
  627MOL0     H84623   3.455   8.940   1.416  1.3636 -1.8264  1.4914
  627MOL0     H84624   3.561   8.805   1.350 -2.1072 -2.2576  0.0666
  627MOL0     H84625   3.330   8.732   1.331 -0.3799  2.2168  0.0273
  627MOL0     H84626   3.377   8.779   1.165  3.4572  0.0839 -0.5219
  627MOL0     H84627   4.332   9.265   1.378  1.7222  1.6800  1.2884
  627MOL0     H84628   4.530   9.313   1.489  0.2103 -0.0669  1.0383
  627MOL0     H84629   4.832   9.316   1.732  0.2045  1.2373  1.3516
  627MOL0     H84630   5.028   9.385   1.847  2.6936 -1.1023  1.0390
  627MOL0     H84631   6.933   9.374   2.271 -1.2670  1.0488  0.7034
  627MOL0     H84632   7.153   9.416   2.245 -3.5074 -0.9617 -0.1933
  627MOL0     H84633   7.561   9.509   2.587 -1.3020 -0.6220 -0.2780
  627MOL0     H84634   7.794   9.560   2.598 -0.1898  3.3581 -1.6786
  627MOL0     H84635   8.148   9.506   2.517 -0.6160  2.9490  0.8259
  627MOL0     H84636   7.989   9.519   2.602 -2.2266 -3.8060  0.9988
  627MOL0     H84637   7.949   9.267   2.570 -0.8742  0.7887  0.5573
  627MOL0     H84638   8.052   9.325   2.690 -0.5030  0.4920  0.5601
  627MOL0     H84639   8.153   9.133   2.579  1.0899 -1.3405  0.3423
  627MOL0     H84640   8.252   9.282   2.577 -1.7787  3.7000 -0.8825
  627MOL0     H84641   8.198   9.318   2.345  1.3312 -0.0871  0.2891
  627MOL0     H84642   8.075   9.188   2.340 -0.2541  0.6404  2.0781
  627MOL0     H84643   8.421   8.970   2.284 -2.4912 -2.1872 -1.2778
  627MOL0     H84644   7.852   9.371   2.201  1.5873 -1.0326  0.8649
  627MOL0     H84645   7.616   9.353   2.179  0.5687 -1.0331  0.4703
  628MOL0     O84646   3.080   3.815   1.346 -0.0324 -0.4022  0.1313
  628MOL0     C84647   3.136   3.710   1.314  0.0121  0.1270 -0.9924
  628MOL0     O84648   3.089   3.618   1.232 -0.1628 -0.5437 -0.4034
  628MOL0     C84649   2.960   3.624   1.186  0.3444  0.6662 -0.1116
  628MOL0     C84650   2.937   3.622   1.046 -0.1417 -0.0773 -0.0434
  628MOL0     C84651   2.806   3.638   0.989  0.6895 -0.0153 -0.7173
  628MOL0     C84652   2.688   3.616   1.069 -0.4989 -0.2280  0.1523
  628MOL0     O84653   2.562   3.597   1.034  0.1048  1.0018  0.0541
  628MOL0     C84654   2.523   3.658   0.912  0.4945 -0.8140  0.4078
  628MOL0     C84655   2.368   3.670   0.904 -0.1962  0.7083  0.4159
  628MOL0     C84656   2.326   3.714   0.758 -0.1970 -0.6449  0.2291
  628MOL0     C84657   2.236   3.831   0.764  0.3696 -0.6915  0.2070
  628MOL0     C84658   2.139   3.829   0.632 -0.6489  0.1243 -0.1602
  628MOL0     C84659   2.040   3.939   0.640 -0.7541 -0.1967  0.6296
  628MOL0     C84660   1.967   3.954   0.504  0.2480  0.2564 -0.5445
  628MOL0     C84661   1.885   4.080   0.507  0.5329 -0.6022  0.2376
  628MOL0     N84662   1.738   4.077   0.536 -0.5629 -0.4312 -0.1743
  628MOL0     C84663   1.640   4.100   0.444  0.3010  0.5448  0.1009
  628MOL0     C84664   1.528   4.081   0.515 -0.4467 -0.6416 -0.2807
  628MOL0     C84665   1.385   4.107   0.477  0.6522 -0.1241  0.6966
  628MOL0     C84666   1.318   3.989   0.407  0.7787  0.3229  0.0481
  628MOL0     C84667   1.321   3.855   0.486 -0.1904  0.3651  0.0249
  628MOL0     C84668   1.255   3.861   0.622  0.2610 -0.2934  0.5046
  628MOL0     O84669   1.142   3.955   0.635 -0.1103  0.4841  0.1035
  628MOL0     C84670   1.011   3.910   0.627 -0.0464  0.1673 -0.4921
  628MOL0     C84671   0.982   3.783   0.574 -0.1274 -0.3492 -0.5759
  628MOL0     C84672   0.854   3.733   0.575  0.5726 -0.7490 -0.9461
  628MOL0     C84673   0.833   3.589   0.523  0.2125 -0.1726  0.1685
  628MOL0     C84674   0.748   3.820   0.617  0.0036  0.0488  0.4541
  628MOL0     C84675   0.613   3.781   0.620 -0.3208  0.9355 -0.0270
  628MOL0     O84676   0.542   3.828   0.722  0.2719 -0.0301  0.8097
  628MOL0     C84677   0.403   3.802   0.737 -1.2367 -0.9042  0.0348
  628MOL0     C84678   0.324   3.826   0.623  1.1905 -1.0858  0.5240
  628MOL0     C84679   0.185   3.809   0.631  0.0772  0.6411 -0.0111
  628MOL0     C84680   0.125   3.764   0.753 -0.3885 -1.1975  0.4343
  628MOL0     O84681  -0.008   3.761   0.755  0.1115 -0.5047  0.1864
  628MOL0     C84682  -0.067   3.823   0.875 -0.3677  0.2763  1.0004
  628MOL0     C84683  -0.216   3.841   0.871 -0.1193  0.3357 -1.3461
  628MOL0     C84684  -0.259   3.920   0.752  0.7795  0.1330 -0.2973
  628MOL0     C84685  -0.420   3.937   0.755 -0.0761 -0.2624 -0.7006
  628MOL0     C84686  -0.478   4.019   0.642 -0.2423  0.1328 -0.3529
  628MOL0     C84687  -0.631   4.030   0.651  0.6776 -0.1232  0.6514
  628MOL0     C84688  -0.709   3.915   0.590 -0.4652 -0.7805  0.5165
  628MOL0     C84689  -0.863   3.931   0.590 -0.0118 -0.3025 -0.7387
  628MOL0    Cl84690  -0.939   3.908   0.753 -0.1472 -0.2707 -0.4221
  628MOL0     C84691   0.206   3.743   0.865 -0.3002  1.1859  0.0270
  628MOL0     C84692   0.346   3.754   0.853 -0.2349 -0.3864  0.1533
  628MOL0     O84693   0.567   3.712   0.530 -0.0641  0.2898  0.3397
  628MOL0     C84694   0.780   3.948   0.658 -0.2585  0.1687  0.3125
  628MOL0     C84695   0.911   3.996   0.667  1.2777  0.2288 -0.3738
  628MOL0     N84696   1.560   4.068   0.652 -0.1920  0.3234 -0.4094
  628MOL0     N84697   1.687   4.068   0.660  0.2606  0.3557 -0.3207
  628MOL0     C84698   2.715   3.603   1.206 -0.1180 -0.3486 -0.3303
  628MOL0     C84699   2.845   3.625   1.264  0.3157 -0.2893 -0.0369
  628MOL0     C84700   3.264   3.677   1.381  0.0859  0.3803 -0.9035
  628MOL0     C84701   3.330   3.553   1.363  0.6746  0.3437 -0.1944
  628MOL0     C84702   3.447   3.522   1.441  0.0478  0.3267 -0.5623
  628MOL0     C84703   3.504   3.614   1.533  0.5378  0.9046 -0.5812
  628MOL0     O84704   3.614   3.576   1.599  0.0081 -0.4456 -0.2460
  628MOL0     C84705   3.725   3.668   1.589 -0.5606  0.1875  0.7513
  628MOL0     C84706   3.836   3.577   1.547 -0.3492 -0.4672  0.2734
  628MOL0     C84707   3.968   3.649   1.553 -0.2324 -0.0978 -0.0765
  628MOL0     C84708   3.976   3.738   1.435 -1.0483  0.4868  0.5065
  628MOL0     C84709   4.116   3.758   1.406  0.2757 -0.9709  0.3108
  628MOL0     C84710   4.230   3.792   1.381  0.0954  0.3963 -0.3127
  628MOL0     C84711   3.436   3.731   1.554 -0.3482  0.5034  0.8757
  628MOL0     C84712   3.323   3.761   1.480  0.5184 -0.0863  0.3666
  628MOL0     H84713   3.016   3.630   0.972 -0.5201 -2.8684 -0.8676
  628MOL0     H84714   2.791   3.644   0.882  0.4489 -1.3082 -0.7777
  628MOL0     H84715   2.565   3.757   0.893  1.0900 -1.2798 -0.8622
  628MOL0     H84716   2.545   3.592   0.828 -3.3080 -1.8637  0.0691
  628MOL0     H84717   2.327   3.570   0.918  1.0909  0.1007  0.0462
  628MOL0     H84718   2.340   3.734   0.988 -0.7220 -0.0163  0.7940
  628MOL0     H84719   2.401   3.717   0.679  0.0944  0.3804  0.5326
  628MOL0     H84720   2.252   3.644   0.716 -3.8507  1.8882  1.9272
  628MOL0     H84721   2.178   3.855   0.853  1.2786 -0.4349  0.7365
  628MOL0     H84722   2.303   3.917   0.756 -0.1219 -0.4717 -3.0611
  628MOL0     H84723   2.204   3.842   0.545 -0.0613  0.5256  0.3227
  628MOL0     H84724   2.096   3.728   0.625 -0.1433 -0.0860 -0.3078
  628MOL0     H84725   1.965   3.910   0.714  0.6074  0.8694  2.5063
  628MOL0     H84726   2.078   4.033   0.679 -0.3348 -0.3234  0.5315
  628MOL0     H84727   2.029   3.953   0.414 -0.9008  0.0820 -1.3555
  628MOL0     H84728   1.895   3.873   0.488  1.6177 -0.9340 -0.9272
  628MOL0     H84729   1.891   4.129   0.409  0.4959  1.0616  1.0340
  628MOL0     H84730   1.932   4.152   0.574 -0.2577 -1.0304  1.2902
  628MOL0     H84731   1.659   4.127   0.340  0.4936  0.3067  0.0722
  628MOL0     H84732   1.325   4.156   0.554 -0.9669  0.3964 -0.8368
  628MOL0     H84733   1.380   4.190   0.406 -7.1643 -0.2853  0.2566
  628MOL0     H84734   1.377   3.978   0.315 -0.0738  2.6516 -0.8480
  628MOL0     H84735   1.219   4.017   0.370  1.6074  0.5449 -2.1800
  628MOL0     H84736   1.421   3.811   0.497 -1.6011 -2.5391  3.2769
  628MOL0     H84737   1.262   3.780   0.432  1.2476 -0.1159 -0.9302
  628MOL0     H84738   1.335   3.894   0.689 -0.1541  1.9396  0.0091
  628MOL0     H84739   1.227   3.764   0.662 -0.1604 -0.6334 -0.5737
  628MOL0     H84740   1.071   3.730   0.542  0.7134 -0.5548  1.8674
  628MOL0     H84741   0.813   3.518   0.603  1.9218  0.5283  1.2781
  628MOL0     H84742   0.744   3.571   0.462 -0.2764 -0.9458  1.0909
  628MOL0     H84743   0.922   3.559   0.467  0.6183 -0.2919  0.8742
  628MOL0     H84744   0.370   3.876   0.538  0.9669  1.6525  1.8890
  628MOL0     H84745   0.132   3.829   0.539  2.2837 -0.7272 -1.7113
  628MOL0     H84746  -0.045   3.761   0.963 -0.1363 -0.0899  0.6914
  628MOL0     H84747  -0.012   3.917   0.883  0.4777 -0.2023  0.9544
  628MOL0     H84748  -0.266   3.744   0.866 -2.8012  1.5011  0.5504
  628MOL0     H84749  -0.253   3.890   0.961  0.9008  1.7095 -1.6493
  628MOL0     H84750  -0.225   3.876   0.658  3.5745  0.5145  0.4418
  628MOL0     H84751  -0.223   4.023   0.750 -3.5725  1.9247 -3.9732
  628MOL0     H84752  -0.460   3.836   0.746 -2.9866  0.5550  1.5626
  628MOL0     H84753  -0.446   3.978   0.853 -1.8744 -0.6800 -0.9726
  628MOL0     H84754  -0.457   3.966   0.548  1.5719 -0.3228  0.2752
  628MOL0     H84755  -0.432   4.116   0.626  0.2981  0.0634  0.7464
  628MOL0     H84756  -0.664   4.062   0.751  1.5980  0.2114  0.8575
  628MOL0     H84757  -0.667   4.112   0.588 -0.2807 -0.8312  0.2496
  628MOL0     H84758  -0.670   3.823   0.635 -1.7654 -0.1817  3.0772
  628MOL0     H84759  -0.684   3.907   0.484 -0.7356 -1.3515  0.4926
  628MOL0     H84760  -0.907   3.858   0.521 -0.6658  1.1860 -1.9715
  628MOL0     H84761  -0.892   4.031   0.556 -0.7307 -0.3018 -0.1520
  628MOL0     H84762   0.169   3.693   0.954  2.7344 -1.3031  0.0542
  628MOL0     H84763   0.414   3.729   0.934 -0.0144  0.3039  0.1881
  628MOL0     H84764   0.713   4.018   0.707  1.8166  1.0974  1.9677
  628MOL0     H84765   0.932   4.097   0.700 -0.4029  0.5458 -0.1915
  628MOL0     H84766   2.635   3.581   1.276 -0.6953  1.9651 -0.1758
  628MOL0     H84767   2.856   3.631   1.372 -1.2395  2.6253  0.0536
  628MOL0     H84768   3.276   3.485   1.298 -1.3224  1.6120  0.0595
  628MOL0     H84769   3.498   3.426   1.440 -1.6805 -0.9129  4.1317
  628MOL0     H84770   3.710   3.751   1.520 -1.5109  0.4077  1.2094
  628MOL0     H84771   3.739   3.713   1.688 -1.1641 -2.0795  1.9226
  628MOL0     H84772   3.812   3.545   1.445 -1.9828  1.5743 -0.0782
  628MOL0     H84773   3.856   3.496   1.617 -1.3490  0.4493  1.6872
  628MOL0     H84774   4.038   3.565   1.550  0.0891  0.1758 -1.9190
  628MOL0     H84775   3.991   3.699   1.647  0.5062 -1.8428  0.7037
  628MOL0     H84776   3.927   3.834   1.450 -2.0315  0.9252 -4.0293
  628MOL0     H84777   3.937   3.692   1.343  0.0920 -1.4914  0.9502
  628MOL0     H84778   4.333   3.810   1.359  1.0098 -3.4037  0.2060
  628MOL0     H84779   3.465   3.797   1.636 -0.4551  0.9776  0.5313
  628MOL0     H84780   3.260   3.848   1.497 -2.4857 -1.9307 -0.5211
  629MOL0     O84781   7.577   8.116   6.895 -0.2880 -0.2507 -0.0788
  629MOL0     C84782   7.555   8.233   6.928 -1.0963  0.1100  0.3051
  629MOL0     O84783   7.442   8.281   6.982 -0.5574  0.3333 -0.4386
  629MOL0     C84784   7.340   8.209   7.034  0.6608 -0.2020 -0.7872
  629MOL0     C84785   7.213   8.267   7.030 -0.7137  0.2502 -0.5312
  629MOL0     C84786   7.106   8.191   7.085 -0.1569 -0.3312  0.7866
  629MOL0     C84787   7.122   8.074   7.157  0.1814  0.3979  0.6484
  629MOL0     O84788   7.007   8.005   7.185  0.0997 -0.2858  0.5515
  629MOL0     C84789   7.020   7.897   7.275  0.2093 -0.9677 -0.4004
  629MOL0     C84790   6.897   7.882   7.370  0.2412  0.4805 -0.7915
  629MOL0     C84791   6.767   7.896   7.302 -0.1285  0.7030 -0.0342
  629MOL0     C84792   6.663   7.911   7.411 -0.8606  0.4826 -1.1185
  629MOL0     C84793   6.529   7.925   7.347 -0.4911  0.4555 -0.6267
  629MOL0     C84794   6.417   7.885   7.441 -0.2026 -0.5345 -0.5242
  629MOL0     C84795   6.278   7.927   7.390 -0.4267 -0.6011  0.7057
  629MOL0     C84796   6.256   8.072   7.388  0.9799 -0.4599  1.0739
  629MOL0     N84797   6.128   8.122   7.328 -0.2271  0.0280 -0.8960
  629MOL0     C84798   6.118   8.125   7.192  0.0951 -0.5802  0.2906
  629MOL0     C84799   6.011   8.210   7.171 -0.7339 -0.3503  0.5064
  629MOL0     C84800   5.961   8.244   7.034  0.6353  0.0181  0.2501
  629MOL0     C84801   5.980   8.387   7.001 -0.1227 -0.2885 -0.3198
  629MOL0     C84802   5.847   8.451   6.951 -0.3872 -0.1429  0.4517
  629MOL0     C84803   5.738   8.456   7.054 -0.3398  0.3988  0.0926
  629MOL0     O84804   5.625   8.508   6.989 -0.0116 -0.4924  0.3190
  629MOL0     C84805   5.507   8.526   7.048  0.5164  0.0504 -0.3994
  629MOL0     C84806   5.489   8.495   7.177 -0.5242  0.5283 -0.4477
  629MOL0     C84807   5.365   8.494   7.243 -0.3121 -0.0655  0.8056
  629MOL0     C84808   5.368   8.444   7.382 -0.1950  0.2341  0.1680
  629MOL0     C84809   5.246   8.532   7.168 -0.8349 -0.6737  0.0711
  629MOL0     C84810   5.107   8.528   7.219  1.0641 -0.4572 -0.5853
  629MOL0     O84811   5.005   8.599   7.153  0.2373  0.3021  0.0105
  629MOL0     C84812   4.877   8.583   7.199  0.2335 -0.1026 -0.4303
  629MOL0     C84813   4.813   8.466   7.160 -0.0835  0.4262  0.0529
  629MOL0     C84814   4.676   8.446   7.189 -0.5610  0.2730 -0.2612
  629MOL0     C84815   4.610   8.544   7.255 -0.0523 -0.0861  0.5292
  629MOL0     O84816   4.472   8.526   7.273  0.2891  1.1486  0.5851
  629MOL0     C84817   4.384   8.645   7.290 -0.3153 -0.3677 -1.2147
  629MOL0     C84818   4.255   8.586   7.222 -0.8312 -0.2603 -0.7172
  629MOL0     C84819   4.149   8.698   7.204  0.5038 -0.0311  0.6107
  629MOL0     C84820   4.020   8.640   7.145 -0.5581 -0.0154  0.1360
  629MOL0     C84821   3.905   8.742   7.164 -0.1801 -0.3349  0.5139
  629MOL0     C84822   3.916   8.843   7.049 -0.4101 -1.1271  0.0488
  629MOL0     C84823   3.865   8.786   6.920 -0.4242  0.1886  0.1102
  629MOL0     C84824   3.814   8.886   6.816 -0.6078  0.2356 -0.7422
  629MOL0    Cl84825   3.958   8.991   6.773  0.3691 -0.1451 -0.2869
  629MOL0     C84826   4.668   8.671   7.290 -0.7342  0.4794 -0.0442
  629MOL0     C84827   4.805   8.689   7.261 -0.6050  0.0643 -0.8565
  629MOL0     O84828   5.086   8.462   7.320 -0.2260  0.0069 -0.0364
  629MOL0     C84829   5.265   8.575   7.032 -0.7899 -0.1067  0.0855
  629MOL0     C84830   5.399   8.581   6.970  0.3241  0.4071 -0.3534
  629MOL0     N84831   5.951   8.238   7.291  0.2785 -0.2776  0.3071
  629MOL0     N84832   6.025   8.195   7.387 -0.8922  0.3790 -0.1622
  629MOL0     C84833   7.248   8.032   7.173  0.1297  0.5435  0.7074
  629MOL0     C84834   7.362   8.085   7.110 -0.0771 -0.4179 -0.8228
  629MOL0     C84835   7.671   8.334   6.926  0.7935 -0.0137  0.3126
  629MOL0     C84836   7.805   8.293   6.894 -0.3454 -0.2777 -0.1491
  629MOL0     C84837   7.913   8.392   6.868 -0.0999  0.9445 -0.0572
  629MOL0     C84838   7.878   8.528   6.883 -0.6286  0.3307  0.0502
  629MOL0     O84839   7.967   8.632   6.848 -0.3567 -0.3988  0.0041
  629MOL0     C84840   8.109   8.611   6.853 -0.3443 -0.6438  0.7452
  629MOL0     C84841   8.185   8.741   6.798 -0.5871 -0.2402  0.3002
  629MOL0     C84842   8.337   8.730   6.813 -0.7462  0.4104 -0.1636
  629MOL0     C84843   8.397   8.717   6.960  0.2062 -0.7277  0.2611
  629MOL0     C84844   8.354   8.831   7.042 -1.3295  0.2833 -0.1131
  629MOL0     C84845   8.325   8.930   7.104  0.4304  0.3356 -0.6730
  629MOL0     C84846   7.748   8.564   6.922 -1.0014 -0.1158 -0.2413
  629MOL0     C84847   7.648   8.472   6.949  0.0432 -0.6650 -0.2132
  629MOL0     H84848   7.201   8.364   6.982  0.5997 -0.7192 -2.9862
  629MOL0     H84849   7.007   8.235   7.089 -0.3166 -0.5821 -0.1852
  629MOL0     H84850   7.036   7.804   7.219  1.0073 -1.1466  0.1055
  629MOL0     H84851   7.105   7.904   7.343  1.1706 -1.8778 -1.4595
  629MOL0     H84852   6.901   7.786   7.423  2.8453  2.2956  2.6715
  629MOL0     H84853   6.899   7.966   7.439 -0.4415  0.2869 -0.5277
  629MOL0     H84854   6.761   7.987   7.242 -1.9603  2.2376  2.2688
  629MOL0     H84855   6.744   7.817   7.229  0.1998  2.1083 -1.7220
  629MOL0     H84856   6.665   7.824   7.477 -3.3421  1.5237  0.5101
  629MOL0     H84857   6.676   7.998   7.475 -1.7903 -0.8970  1.0585
  629MOL0     H84858   6.513   8.021   7.298  3.3482  0.6264 -1.8694
  629MOL0     H84859   6.508   7.859   7.262 -3.6507  1.1270 -0.5101
  629MOL0     H84860   6.416   7.778   7.465  3.7277 -0.4641  0.6407
  629MOL0     H84861   6.430   7.941   7.534 -2.2659  0.2163 -0.6390
  629MOL0     H84862   6.259   7.887   7.289 -1.1500  0.4834  0.3930
  629MOL0     H84863   6.202   7.880   7.452  0.0047  0.5373  2.1447
  629MOL0     H84864   6.334   8.126   7.333  0.0964 -2.1241 -2.0555
  629MOL0     H84865   6.255   8.104   7.493  1.4821 -3.8233  2.2654
  629MOL0     H84866   6.177   8.085   7.109 -1.6893  1.5251 -2.1500
  629MOL0     H84867   6.002   8.180   6.955 -0.1636  1.2592 -1.2167
  629MOL0     H84868   5.852   8.232   7.035  0.5718  0.4009  2.0328
  629MOL0     H84869   6.053   8.401   6.921 -0.7072  1.5888 -0.5668
  629MOL0     H84870   6.006   8.456   7.082  1.1746 -0.0247 -0.9427
  629MOL0     H84871   5.805   8.400   6.863 -2.5553  1.9226  0.1964
  629MOL0     H84872   5.872   8.553   6.922  0.2920 -1.0097 -2.3382
  629MOL0     H84873   5.756   8.523   7.139  2.7561 -1.4273  1.0255
  629MOL0     H84874   5.711   8.359   7.097  2.3943 -0.5501 -0.1394
  629MOL0     H84875   5.571   8.463   7.240 -1.5511 -0.2410  0.5393
  629MOL0     H84876   5.326   8.344   7.398  0.9201 -0.3380 -0.4277
  629MOL0     H84877   5.466   8.442   7.430 -0.1746 -0.5388  0.1121
  629MOL0     H84878   5.299   8.504   7.442  2.0809  1.4884  1.6714
  629MOL0     H84879   4.867   8.390   7.104  2.1291  0.5451  1.8856
  629MOL0     H84880   4.621   8.355   7.167  0.7742 -0.1453 -2.1657
  629MOL0     H84881   4.369   8.676   7.394 -2.1744  2.6831 -2.2535
  629MOL0     H84882   4.413   8.735   7.236 -4.5199  1.6063 -0.6145
  629MOL0     H84883   4.292   8.544   7.128  3.0560  1.3833 -0.1333
  629MOL0     H84884   4.216   8.507   7.287 -1.5391  0.4797 -0.2379
  629MOL0     H84885   4.188   8.783   7.146  1.7928 -1.6198 -0.9975
  629MOL0     H84886   4.130   8.738   7.304  0.5316  2.6490 -0.3595
  629MOL0     H84887   4.046   8.610   7.044  1.5959  0.8536  0.3823
  629MOL0     H84888   3.995   8.553   7.206 -0.9576  1.2677  1.9083
  629MOL0     H84889   3.908   8.788   7.263 -3.7351  0.7682  0.2285
  629MOL0     H84890   3.809   8.692   7.159 -0.3778  0.1428 -1.3027
  629MOL0     H84891   3.865   8.934   7.082 -0.2500 -1.7450  2.1502
  629MOL0     H84892   4.020   8.873   7.033 -0.0848  0.5709  4.0046
  629MOL0     H84893   3.788   8.714   6.946 -0.9989  1.4226  2.0239
  629MOL0     H84894   3.955   8.736   6.882  2.2517  3.5408  1.3852
  629MOL0     H84895   3.739   8.951   6.864  0.9645  0.4694  1.5751
  629MOL0     H84896   3.764   8.835   6.733 -1.4420 -1.4640  0.7553
  629MOL0     H84897   4.616   8.749   7.344  1.1955  1.2188  0.8379
  629MOL0     H84898   4.860   8.782   7.273 -0.7547  0.4570 -2.9559
  629MOL0     H84899   5.181   8.602   6.969 -1.3542 -1.7265  0.0888
  629MOL0     H84900   5.425   8.624   6.874  0.4952  1.9404  0.3437
  629MOL0     H84901   7.277   7.943   7.229 -1.5640 -0.6875 -0.2634
  629MOL0     H84902   7.462   8.045   7.119  0.3639  1.0795  2.6345
  629MOL0     H84903   7.815   8.189   6.865 -0.0783  0.2952 -2.3425
  629MOL0     H84904   8.006   8.354   6.827  0.0062  1.0413  0.0921
  629MOL0     H84905   8.148   8.585   6.952 -0.3036  0.1338  0.9370
  629MOL0     H84906   8.130   8.530   6.782 -1.2603 -0.9916  0.8534
  629MOL0     H84907   8.147   8.827   6.854  0.2241  0.2025  0.1877
  629MOL0     H84908   8.160   8.761   6.693  1.2214 -0.4364 -0.1971
  629MOL0     H84909   8.393   8.808   6.761  0.8977  0.3393  1.3893
  629MOL0     H84910   8.373   8.641   6.761  1.4266  2.0185 -1.5920
  629MOL0     H84911   8.506   8.711   6.956  0.1620 -1.0032 -1.0566
  629MOL0     H84912   8.367   8.624   7.010 -1.5247  0.2946  1.2002
  629MOL0     H84913   8.304   9.005   7.177 -1.4002 -0.0613 -0.7272
  629MOL0     H84914   7.723   8.670   6.931 -0.1965 -0.0015  0.7578
  629MOL0     H84915   7.548   8.511   6.966 -0.5444 -2.6420  1.4098
  630MOL0     O84916   9.554   9.353   6.682  0.2879 -0.3929  0.3908
  630MOL0     C84917   9.623   9.273   6.622 -0.0686 -0.0125 -0.2634
  630MOL0     O84918   9.598   9.136   6.606 -1.0439  0.0842 -0.8860
  630MOL0     C84919   9.485   9.088   6.662  1.1316 -0.8147 -0.4097
  630MOL0     C84920   9.499   8.993   6.761 -0.1905 -0.7153 -0.2085
  630MOL0     C84921   9.381   8.937   6.820 -0.1127 -0.0477  0.6796
  630MOL0     C84922   9.255   8.973   6.773  0.9741 -0.4304 -0.0363
  630MOL0     O84923   9.141   8.903   6.815 -0.2246 -0.0487 -0.3716
  630MOL0     C84924   9.132   8.757   6.778 -0.2556 -1.0128  0.4930
  630MOL0     C84925   9.112   8.762   6.624  0.1657  0.8710 -0.0624
  630MOL0     C84926   9.065   8.622   6.580 -0.5795  0.0464  1.0847
  630MOL0     C84927   9.073   8.606   6.425  0.9922  0.8890  0.4454
  630MOL0     C84928   9.058   8.457   6.378 -0.0843 -0.7131  0.0942
  630MOL0     C84929   9.108   8.441   6.231 -0.4711  0.6034 -0.1404
  630MOL0     C84930   9.130   8.293   6.183 -0.7054  0.1690 -0.6019
  630MOL0     C84931   9.188   8.292   6.038  0.0987 -0.1632 -0.1200
  630MOL0     N84932   9.108   8.346   5.926  0.1746  0.1340 -0.2951
  630MOL0     C84933   9.165   8.369   5.807 -0.8860  0.0718 -0.1965
  630MOL0     C84934   9.067   8.411   5.727  0.3328  0.0408 -0.4321
  630MOL0     C84935   9.063   8.448   5.576  0.4102  0.1298 -0.2582
  630MOL0     C84936   8.916   8.486   5.529 -0.6900 -0.2807 -0.1728
  630MOL0     C84937   8.874   8.619   5.586 -0.4348  0.5731  0.1640
  630MOL0     C84938   8.731   8.654   5.535 -0.2964  0.1235  0.5144
  630MOL0     O84939   8.694   8.791   5.569 -0.5082 -0.1369  0.2869
  630MOL0     C84940   8.565   8.835   5.554 -0.4790 -1.1555 -0.7595
  630MOL0     C84941   8.530   8.962   5.606  0.1122 -0.1025 -0.4377
  630MOL0     C84942   8.398   9.019   5.594  0.2687  0.9290 -0.3820
  630MOL0     C84943   8.384   9.161   5.652  0.1196  0.2511  0.1015
  630MOL0     C84944   8.295   8.935   5.543 -1.1439 -0.3278 -0.1719
  630MOL0     C84945   8.154   8.975   5.552  0.7043 -0.7652  0.5190
  630MOL0     O84946   8.052   8.878   5.552 -0.1459  0.1545  0.1495
  630MOL0     C84947   7.921   8.921   5.520  1.0523 -0.2022 -0.3140
  630MOL0     C84948   7.816   8.904   5.610 -0.4098 -0.1085  0.0660
  630MOL0     C84949   7.687   8.937   5.569  0.0546  1.0820 -0.5581
  630MOL0     C84950   7.657   8.983   5.440  0.2105 -0.2387 -0.9682
  630MOL0     O84951   7.525   8.996   5.412 -0.4244 -0.1287  0.6647
  630MOL0     C84952   7.468   8.932   5.295 -0.0393 -0.1392 -0.2529
  630MOL0     C84953   7.393   8.803   5.331  0.6592  0.3562 -0.0957
  630MOL0     C84954   7.346   8.744   5.201  0.5153 -0.1345  0.0909
  630MOL0     C84955   7.224   8.645   5.214  0.2187 -0.5409 -0.2943
  630MOL0     C84956   7.172   8.610   5.081  0.0321  1.3195  1.1304
  630MOL0     C84957   7.065   8.504   5.084 -0.4170  0.5712  0.5062
  630MOL0     C84958   7.117   8.354   5.127  0.5585 -0.0349  0.9065
  630MOL0     C84959   7.037   8.246   5.063  0.5722  0.2039  0.5511
  630MOL0    Cl84960   6.874   8.226   5.133  0.0651  0.4163 -0.4844
  630MOL0     C84961   7.767   9.000   5.350  0.3364 -0.0227  0.2033
  630MOL0     C84962   7.898   8.973   5.395 -0.7346  1.0909 -0.3915
  630MOL0     O84963   8.130   9.096   5.547 -0.1939 -0.1350  0.4041
  630MOL0     C84964   8.335   8.811   5.488  0.4133 -0.3236 -0.1713
  630MOL0     C84965   8.468   8.767   5.492  1.0096 -0.4015 -0.0634
  630MOL0     N84966   8.945   8.394   5.797  0.8248 -0.0979  0.8686
  630MOL0     N84967   8.975   8.358   5.917 -0.3933 -0.4899  0.0450
  630MOL0     C84968   9.242   9.070   6.675  0.1978 -0.1185  0.0721
  630MOL0     C84969   9.352   9.124   6.618  0.2474 -0.1332  0.2889
  630MOL0     C84970   9.748   9.332   6.560 -0.0591  0.0647 -0.3645
  630MOL0     C84971   9.795   9.275   6.444 -0.7020  1.1806 -0.3527
  630MOL0     C84972   9.909   9.328   6.384 -0.0850 -0.3138 -0.6121
  630MOL0     C84973   9.966   9.443   6.436 -0.4635 -0.5666  0.3141
  630MOL0     O84974  10.066   9.516   6.379 -0.4416  0.3542  0.6507
  630MOL0     C84975  10.131   9.487   6.267  0.0298  0.6837  0.3044
  630MOL0     C84976  10.253   9.403   6.293 -0.3802 -0.1951  0.3566
  630MOL0     C84977  10.297   9.357   6.160 -0.7104  0.0089 -0.2662
  630MOL0     C84978  10.412   9.260   6.169 -0.5040  0.4583  0.1779
  630MOL0     C84979  10.445   9.215   6.030  0.1108  0.3780  0.0995
  630MOL0     C84980  10.468   9.205   5.914 -0.2975  0.3065  0.3981
  630MOL0     C84981   9.912   9.496   6.553  0.4282 -0.3992 -0.0139
  630MOL0     C84982   9.802   9.440   6.616  0.5472 -0.6300 -0.3442
  630MOL0     H84983   9.593   8.945   6.785 -0.5765 -2.2073 -1.4667
  630MOL0     H84984   9.387   8.857   6.893  0.6287 -0.2040  0.4551
  630MOL0     H84985   9.228   8.710   6.802 -0.8066 -2.6236 -0.2476
  630MOL0     H84986   9.049   8.707   6.828  0.6116 -2.0250  0.9706
  630MOL0     H84987   9.037   8.836   6.594  0.2919  0.6050 -1.0708
  630MOL0     H84988   9.207   8.797   6.582  0.6439  1.4097  1.4199
  630MOL0     H84989   9.137   8.549   6.619 -1.0099 -2.2792 -2.0448
  630MOL0     H84990   8.964   8.600   6.615 -0.0388 -1.9226  1.5479
  630MOL0     H84991   8.996   8.666   6.377 -0.3487 -0.4557  0.8442
  630MOL0     H84992   9.165   8.650   6.385 -0.0845  3.4807  0.6313
  630MOL0     H84993   9.114   8.398   6.451 -1.1294 -0.0867  1.4591
  630MOL0     H84994   8.951   8.435   6.386  0.1493 -2.4450 -0.9452
  630MOL0     H84995   9.043   8.501   6.166  0.7600  2.3484  0.1637
  630MOL0     H84996   9.210   8.480   6.227  0.5644 -1.7921  1.0992
  630MOL0     H84997   9.197   8.256   6.261 -1.8943  2.1200  1.4397
  630MOL0     H84998   9.036   8.236   6.180 -0.5972  0.0337 -1.9120
  630MOL0     H84999   9.219   8.189   6.017 -0.2497 -0.0815 -1.1027
  630MOL0     H85000   9.273   8.361   6.042  0.7469 -1.0200  2.1192
  630MOL0     H85001   9.271   8.366   5.784 -0.5678 -0.8280  1.2849
  630MOL0     H85002   9.133   8.531   5.560  3.8859 -1.9602  2.5259
  630MOL0     H85003   9.107   8.369   5.515  2.3353 -0.6132  1.9150
  630MOL0     H85004   8.846   8.408   5.560 -0.1064 -0.7822 -0.0750
  630MOL0     H85005   8.911   8.484   5.420 -1.8970 -0.8485 -0.1194
  630MOL0     H85006   8.943   8.695   5.546  0.8106  0.0058  1.1822
  630MOL0     H85007   8.877   8.630   5.694  0.8535  3.3436 -0.0560
  630MOL0     H85008   8.658   8.593   5.590 -2.4077  1.7715 -0.3310
  630MOL0     H85009   8.724   8.631   5.429  4.0754 -0.3124  0.1538
  630MOL0     H85010   8.613   9.010   5.658 -0.7492 -0.9437  1.8656
  630MOL0     H85011   8.337   9.240   5.592 -3.4626  0.6882  3.1096
  630MOL0     H85012   8.327   9.158   5.745 -2.7065 -0.5120 -1.5302
  630MOL0     H85013   8.484   9.197   5.675  2.2509 -2.8857 -3.0445
  630MOL0     H85014   7.841   8.867   5.708  3.3846  2.5970  0.3798
  630MOL0     H85015   7.592   8.919   5.619 -0.1993 -1.3055 -1.7690
  630MOL0     H85016   7.404   9.005   5.244  1.3224 -0.8311 -3.1779
  630MOL0     H85017   7.537   8.890   5.221  0.3979  2.0089 -1.1394
  630MOL0     H85018   7.456   8.733   5.387 -1.5655 -1.4309  0.2974
  630MOL0     H85019   7.303   8.830   5.387 -1.1408 -1.9732 -1.6619
  630MOL0     H85020   7.423   8.687   5.148  1.2965 -2.1722  3.1527
  630MOL0     H85021   7.310   8.827   5.139 -1.0755  1.2754  2.7197
  630MOL0     H85022   7.255   8.553   5.264  0.0192 -1.5744 -1.9970
  630MOL0     H85023   7.143   8.694   5.270  0.4106 -0.1344 -0.3703
  630MOL0     H85024   7.257   8.583   5.018  0.8682  2.0404  1.9299
  630MOL0     H85025   7.127   8.700   5.039  0.3384  0.8494 -0.2605
  630MOL0     H85026   6.981   8.534   5.147 -1.3769 -0.6818 -0.1185
  630MOL0     H85027   7.048   8.497   4.976 -0.3847  1.5653  0.4341
  630MOL0     H85028   7.125   8.349   5.236 -0.6760 -0.6646  0.9783
  630MOL0     H85029   7.218   8.335   5.090 -0.6290 -1.1452 -2.0550
  630MOL0     H85030   7.081   8.145   5.068 -1.6981 -0.8145  1.3935
  630MOL0     H85031   7.019   8.282   4.961 -4.0789 -0.7181  0.8204
  630MOL0     H85032   7.748   9.035   5.249  2.9838 -1.8532 -1.0414
  630MOL0     H85033   7.989   8.987   5.337 -0.8880 -0.3685 -1.0153
  630MOL0     H85034   8.256   8.740   5.468 -0.2060 -1.0909  3.9429
  630MOL0     H85035   8.486   8.663   5.466  0.6937 -0.8940  1.5767
  630MOL0     H85036   9.145   9.107   6.646  0.8825  0.7346 -1.2063
  630MOL0     H85037   9.345   9.194   6.535  0.3292 -1.5943 -1.0178
  630MOL0     H85038   9.754   9.183   6.404  2.7008 -0.5738 -0.1165
  630MOL0     H85039   9.943   9.294   6.287  1.4687 -0.6758  0.0255
  630MOL0     H85040  10.064   9.443   6.192  0.7006  0.5913 -0.2520
  630MOL0     H85041  10.153   9.581   6.215 -2.4571 -0.1696 -2.6339
  630MOL0     H85042  10.238   9.318   6.360  0.3800  0.7966  1.8331
  630MOL0     H85043  10.328   9.470   6.336 -3.2640  1.8925  2.5384
  630MOL0     H85044  10.337   9.445   6.110  0.0041  0.8020  1.6283
  630MOL0     H85045  10.208   9.312   6.115 -2.3640  2.1118  0.6921
  630MOL0     H85046  10.383   9.176   6.233 -3.2210 -0.3777 -1.9320
  630MOL0     H85047  10.504   9.296   6.215 -0.7656  1.5111 -0.0978
  630MOL0     H85048  10.477   9.198   5.807 -1.4661  1.3825  0.1932
  630MOL0     H85049   9.963   9.579   6.600  0.2692  1.1465 -2.3657
  630MOL0     H85050   9.774   9.477   6.714 -3.6075 -4.6653  0.3318
  631MOL0     O85051   0.554   6.303  10.498  0.3764 -0.0616 -0.3868
  631MOL0     C85052   0.588   6.358  10.395 -0.1145 -0.4582  0.4685
  631MOL0     O85053   0.505   6.370  10.286  0.2550 -0.3298 -0.5940
  631MOL0     C85054   0.384   6.321  10.304 -0.5511  0.7218 -0.2256
  631MOL0     C85055   0.347   6.193  10.255 -0.3464  0.5123  0.5548
  631MOL0     C85056   0.221   6.140  10.284 -0.1956 -0.8159 -0.1657
  631MOL0     C85057   0.130   6.201  10.365  0.4165  0.4202 -0.6526
  631MOL0     O85058   0.008   6.149  10.393 -0.2004 -0.0780  0.6071
  631MOL0     C85059  -0.073   6.111  10.279  0.3830  0.6017  0.8173
  631MOL0     C85060  -0.205   6.193  10.279  1.0690 -1.4989  0.5263
  631MOL0     C85061  -0.173   6.341  10.258  0.8520 -0.2203 -0.9156
  631MOL0     C85062  -0.305   6.421  10.255  0.7549 -0.4114  0.0893
  631MOL0     C85063  -0.423   6.379  10.349 -0.4620 -0.0892 -0.1580
  631MOL0     C85064  -0.543   6.472  10.326  0.4411  0.3906  0.5143
  631MOL0     C85065  -0.511   6.618  10.358  0.9650  0.1514 -0.9137
  631MOL0     C85066  -0.632   6.677  10.439 -0.5609 -0.1539 -0.1743
  631MOL0     N85067  -0.644   6.824  10.423  0.6029  0.7256  0.0307
  631MOL0     C85068  -0.725   6.894  10.343  0.2713  0.2765  0.2384
  631MOL0     C85069  -0.712   7.019  10.390 -0.0817  0.7052  0.7042
  631MOL0     C85070  -0.807   7.125  10.338  0.2106 -0.7490 -0.1480
  631MOL0     C85071  -0.943   7.122  10.405  1.2585  0.1648  0.7666
  631MOL0     C85072  -1.011   7.255  10.366  0.1822 -0.4680 -0.1905
  631MOL0     C85073  -1.149   7.257  10.430  0.2952  0.4426  0.6630
  631MOL0     O85074  -1.232   7.153  10.374  0.0745  0.2291 -0.4308
  631MOL0     C85075  -1.365   7.177  10.357  0.5781 -0.5901  0.1342
  631MOL0     C85076  -1.449   7.246  10.451 -0.0060  0.0836  0.0294
  631MOL0     C85077  -1.583   7.276  10.425 -0.2688  0.5503  0.4508
  631MOL0     C85078  -1.650   7.363  10.527  0.5242 -0.1664 -0.5309
  631MOL0     C85079  -1.637   7.216  10.305  0.0805  0.4324 -0.2732
  631MOL0     C85080  -1.773   7.246  10.252 -0.3187 -0.4624 -1.2270
  631MOL0     O85081  -1.851   7.143  10.211  0.2958 -0.6099  0.8789
  631MOL0     C85082  -1.957   7.175  10.130 -0.6545  0.4160 -0.8611
  631MOL0     C85083  -1.940   7.207  10.000  0.1525  0.2821  0.4864
  631MOL0     C85084  -2.044   7.253   9.930  0.9739 -1.1404  0.4210
  631MOL0     C85085  -2.174   7.258   9.974  0.0231 -0.5554 -0.4219
  631MOL0     O85086  -2.285   7.290   9.900  0.5483  0.2462  0.3027
  631MOL0     C85087  -2.278   7.295   9.753  0.0785  0.1867  0.4777
  631MOL0     C85088  -2.406   7.354   9.692  0.5103 -0.1047  0.2434
  631MOL0     C85089  -2.531   7.287   9.756  0.7467 -0.6620  0.5391
  631MOL0     C85090  -2.656   7.332   9.677  0.7136  0.2814 -0.4706
  631MOL0     C85091  -2.796   7.246   9.714 -0.1365  0.6165  0.3042
  631MOL0     C85092  -2.798   7.119   9.636  0.2568  0.1138 -0.4482
  631MOL0     C85093  -2.917   7.024   9.671 -0.9151  0.1356 -0.2306
  631MOL0     C85094  -3.056   7.081   9.662 -0.3557 -0.6312 -0.2377
  631MOL0    Cl85095  -3.189   6.968   9.693 -0.1994  0.0429  0.0099
  631MOL0     C85096  -2.193   7.226  10.106  0.4253 -0.2635 -0.7422
  631MOL0     C85097  -2.082   7.195  10.186  0.4344 -0.4782  0.2484
  631MOL0     O85098  -1.801   7.366  10.241  0.5907  0.3145  0.8018
  631MOL0     C85099  -1.561   7.140  10.221  0.0049  0.7201 -0.3763
  631MOL0     C85100  -1.431   7.112  10.250  0.1448  0.0759 -0.0766
  631MOL0     N85101  -0.634   7.024  10.503  0.7797  0.4333 -0.6070
  631MOL0     N85102  -0.596   6.904  10.523  1.1608 -0.5120  0.1314
  631MOL0     C85103   0.156   6.333  10.403  0.3698  0.2396 -0.0788
  631MOL0     C85104   0.282   6.390  10.374  1.2498  0.4059  0.0390
  631MOL0     C85105   0.722   6.408  10.384 -0.0709  0.1566 -0.4508
  631MOL0     C85106   0.756   6.503  10.286 -1.1972 -0.4095  0.0129
  631MOL0     C85107   0.878   6.570  10.289  0.0198 -0.3925  0.2043
  631MOL0     C85108   0.977   6.541  10.389 -0.1928  0.5248  0.4020
  631MOL0     O85109   1.104   6.591  10.391 -0.0895  0.3359  0.0363
  631MOL0     C85110   1.168   6.622  10.264 -0.5895  0.4626 -0.6650
  631MOL0     C85111   1.173   6.770  10.233  0.0039  0.0277  0.8850
  631MOL0     C85112   1.252   6.858  10.325  0.0312  0.4687 -0.1085
  631MOL0     C85113   1.394   6.807  10.349  0.3299  0.8591 -0.4941
  631MOL0     C85114   1.464   6.910  10.423  0.0549  0.8625  0.8643
  631MOL0     C85115   1.507   6.992  10.491 -0.2637 -0.0855  0.4095
  631MOL0     C85116   0.945   6.441  10.482 -0.9611  0.6615  0.2621
  631MOL0     C85117   0.826   6.373  10.475  0.2372 -0.3177 -0.4719
  631MOL0     H85118   0.411   6.139  10.186 -2.2051 -1.2085  0.0871
  631MOL0     H85119   0.207   6.042  10.239 -0.8165  0.8838 -4.0356
  631MOL0     H85120  -0.031   6.135  10.181 -0.6459 -1.3532 -0.1671
  631MOL0     H85121  -0.086   6.002  10.275 -0.8905  0.7202  1.1900
  631MOL0     H85122  -0.280   6.155  10.209  2.0350 -1.1584 -0.7291
  631MOL0     H85123  -0.255   6.184  10.375 -1.2876  1.3109 -0.2963
  631MOL0     H85124  -0.112   6.373  10.343  1.5129  1.5750 -2.0053
  631MOL0     H85125  -0.108   6.358  10.172  2.6555 -2.3286 -0.0611
  631MOL0     H85126  -0.280   6.526  10.276 -1.6518  0.7833 -2.4775
  631MOL0     H85127  -0.339   6.424  10.152  0.6872  1.5042  0.1322
  631MOL0     H85128  -0.454   6.277  10.329 -1.9278  0.4369 -0.6802
  631MOL0     H85129  -0.379   6.395  10.448  0.9920  0.4551 -0.8617
  631MOL0     H85130  -0.573   6.455  10.222  2.1817  0.2367 -0.0001
  631MOL0     H85131  -0.618   6.429  10.392 -0.6959  1.9109  0.2807
  631MOL0     H85132  -0.425   6.624  10.425  1.9322 -0.5288 -2.0691
  631MOL0     H85133  -0.489   6.659  10.259 -2.1642 -2.5457 -2.9596
  631MOL0     H85134  -0.619   6.674  10.547  0.6220  0.8586 -0.2713
  631MOL0     H85135  -0.724   6.624  10.412 -1.1782  1.0184 -0.4917
  631MOL0     H85136  -0.791   6.853  10.268  1.8441  0.7592 -1.4802
  631MOL0     H85137  -0.773   7.225  10.367  0.2062 -0.1675 -2.0026
  631MOL0     H85138  -0.810   7.120  10.229  0.9210 -0.6053 -0.1783
  631MOL0     H85139  -0.938   7.108  10.513 -1.8161 -4.0533  0.6277
  631MOL0     H85140  -0.996   7.034  10.368  3.8101 -0.9776 -0.4214
  631MOL0     H85141  -1.019   7.263  10.258 -3.5470  0.0428 -0.0113
  631MOL0     H85142  -0.961   7.337  10.419 -3.0547  1.6418 -0.0854
  631MOL0     H85143  -1.189   7.357  10.409  0.7291  0.5002  0.0852
  631MOL0     H85144  -1.145   7.244  10.539 -4.9737  1.0180  1.1877
  631MOL0     H85145  -1.397   7.301  10.528  2.9966  0.3146 -1.9600
  631MOL0     H85146  -1.581   7.442  10.560  0.1687 -0.3696  0.7286
  631MOL0     H85147  -1.740   7.413  10.490 -0.4222 -0.3598  1.3774
  631MOL0     H85148  -1.665   7.316  10.625  2.8181  1.6249  0.7910
  631MOL0     H85149  -1.846   7.197   9.947 -0.2645  1.1185 -0.4513
  631MOL0     H85150  -2.023   7.265   9.824 -1.5580 -2.7240 -0.3483
  631MOL0     H85151  -2.198   7.367   9.731 -1.0439  1.1612 -0.5861
  631MOL0     H85152  -2.250   7.198   9.711 -1.2163 -0.7316  1.6486
  631MOL0     H85153  -2.403   7.462   9.703  0.8452 -0.0916  0.0380
  631MOL0     H85154  -2.410   7.341   9.583 -0.4259  0.2363  0.2277
  631MOL0     H85155  -2.551   7.323   9.858 -1.5868  0.6687 -0.3038
  631MOL0     H85156  -2.522   7.178   9.761 -0.2920 -0.7623  0.5019
  631MOL0     H85157  -2.674   7.438   9.698 -1.3087  0.0914 -0.9611
  631MOL0     H85158  -2.640   7.333   9.569 -0.0842  2.2771 -0.6172
  631MOL0     H85159  -2.886   7.306   9.697  1.2837  3.3527  1.6455
  631MOL0     H85160  -2.792   7.218   9.819 -1.2580 -0.2171  0.1432
  631MOL0     H85161  -2.793   7.137   9.528  1.3351  1.0478 -0.2707
  631MOL0     H85162  -2.706   7.062   9.654 -0.6523 -0.8750  1.3370
  631MOL0     H85163  -2.899   6.987   9.772  1.1217  1.7116  0.0663
  631MOL0     H85164  -2.907   6.936   9.608  0.4013  1.2701 -1.6872
  631MOL0     H85165  -3.063   7.131   9.565  2.3439  1.0742  0.3398
  631MOL0     H85166  -3.069   7.155   9.741  0.7127  0.3824 -0.9693
  631MOL0     H85167  -2.290   7.219  10.154  1.8508  1.8383  2.8167
  631MOL0     H85168  -2.086   7.184  10.294 -2.6120  1.9191  0.5423
  631MOL0     H85169  -1.610   7.115  10.127  0.4534  2.5370 -1.1343
  631MOL0     H85170  -1.362   7.055  10.189 -1.4259 -2.8062  0.6429
  631MOL0     H85171   0.098   6.393  10.473  2.1944  1.2450  0.6421
  631MOL0     H85172   0.286   6.489  10.418 -0.4585 -0.4336  2.3584
  631MOL0     H85173   0.683   6.521  10.208 -1.4590 -2.3999 -0.2523
  631MOL0     H85174   0.897   6.648  10.216 -0.9183 -1.1554 -0.8878
  631MOL0     H85175   1.270   6.584  10.271 -0.9681 -0.3254  0.7245
  631MOL0     H85176   1.129   6.562  10.181  2.2343 -4.0907  0.9211
  631MOL0     H85177   1.068   6.800  10.228  0.2865  0.8505 -2.1203
  631MOL0     H85178   1.212   6.775  10.131 -1.2378 -2.1304  0.2521
  631MOL0     H85179   1.202   6.876  10.421  1.5676  1.6403  0.5142
  631MOL0     H85180   1.248   6.955  10.274 -1.7034  1.4741  1.7610
  631MOL0     H85181   1.444   6.795  10.252 -0.3109 -0.6616 -0.6692
  631MOL0     H85182   1.400   6.718  10.412  0.0942  0.6386 -0.7800
  631MOL0     H85183   1.551   7.065  10.556 -0.1244 -0.6405  0.9449
  631MOL0     H85184   1.025   6.416  10.552 -1.3911  1.3521  1.0176
  631MOL0     H85185   0.802   6.293  10.545  1.8696 -0.2974  0.1768
  632MOL0     O85186   2.279   9.049   5.320 -0.5444 -0.4879  0.2150
  632MOL0     C85187   2.309   9.133   5.406 -0.1476 -0.2970 -0.1097
  632MOL0     O85188   2.227   9.166   5.511 -0.3025  0.6306  0.7429
  632MOL0     C85189   2.095   9.131   5.505  0.3358  0.2755  0.4504
  632MOL0     C85190   1.989   9.220   5.470  0.9876  0.3817  0.4894
  632MOL0     C85191   1.854   9.186   5.476  0.2934 -0.0021 -0.5472
  632MOL0     C85192   1.815   9.059   5.528  0.9512  0.7803 -0.9080
  632MOL0     O85193   1.693   8.999   5.544  0.3357 -0.0553  0.1473
  632MOL0     C85194   1.588   9.078   5.502  0.3790 -0.7368 -0.1584
  632MOL0     C85195   1.458   9.005   5.524 -0.3569 -0.4954  0.8581
  632MOL0     C85196   1.355   9.064   5.433 -0.5572 -0.7008  0.0762
  632MOL0     C85197   1.215   9.003   5.447 -0.6518  0.6421 -0.1794
  632MOL0     C85198   1.120   9.026   5.338  0.5395  0.0892 -0.9252
  632MOL0     C85199   0.993   8.939   5.356 -0.7184  0.3199 -0.0934
  632MOL0     C85200   0.874   9.000   5.269  0.0984  0.3293 -0.1775
  632MOL0     C85201   0.917   8.988   5.117  0.1074  0.0708 -0.1626
  632MOL0     N85202   0.810   9.023   5.027  0.2645  1.3533  0.0539
  632MOL0     C85203   0.696   8.950   5.021  0.5067  0.4979 -0.8983
  632MOL0     C85204   0.621   8.998   4.916  0.3094  0.1817 -0.4129
  632MOL0     C85205   0.492   8.934   4.862 -0.3457  0.4912  0.2124
  632MOL0     C85206   0.397   9.033   4.803 -0.0007 -0.6324  0.3574
  632MOL0     C85207   0.324   9.130   4.900 -0.2978 -0.0882 -0.0718
  632MOL0     C85208   0.212   9.212   4.832  0.7896 -0.3344  0.1109
  632MOL0     O85209   0.097   9.135   4.795  0.4208  0.0800 -0.2980
  632MOL0     C85210  -0.024   9.198   4.819  0.8790 -0.5595  0.4462
  632MOL0     C85211  -0.052   9.327   4.771 -0.3270  0.1904 -0.3560
  632MOL0     C85212  -0.179   9.382   4.788  0.6623 -1.4333 -0.5361
  632MOL0     C85213  -0.201   9.523   4.746  0.0646  0.7912 -0.1842
  632MOL0     C85214  -0.276   9.311   4.865  0.5791  0.8405 -0.3065
  632MOL0     C85215  -0.412   9.359   4.889  0.1793  1.0923  0.5381
  632MOL0     O85216  -0.473   9.304   5.000  0.2076 -0.3344  0.4431
  632MOL0     C85217  -0.607   9.327   5.018 -0.7359 -0.9912 -0.0775
  632MOL0     C85218  -0.692   9.222   5.002  0.1904 -0.4983  0.0332
  632MOL0     C85219  -0.833   9.236   5.007 -0.6665 -0.4732  0.3468
  632MOL0     C85220  -0.890   9.356   5.045 -0.6362  1.0614  0.1058
  632MOL0     O85221  -1.026   9.362   5.058  0.2515  0.1403  0.6960
  632MOL0     C85222  -1.123   9.259   5.026  0.3310 -0.3068 -0.1581
  632MOL0     C85223  -1.265   9.317   5.055  0.0328  0.5555 -0.7485
  632MOL0     C85224  -1.366   9.224   4.988 -1.6819  0.4811  0.3205
  632MOL0     C85225  -1.509   9.270   5.003 -0.4130 -0.1743 -0.6722
  632MOL0     C85226  -1.608   9.183   4.927 -0.0029  0.2106  0.0275
  632MOL0     C85227  -1.753   9.236   4.957  0.1496  0.1336  0.4823
  632MOL0     C85228  -1.860   9.140   4.904 -0.1498  0.2364  0.1659
  632MOL0     C85229  -2.001   9.215   4.889 -0.3512 -0.1724  0.4366
  632MOL0    Cl85230  -2.082   9.221   5.045 -0.2309  0.0684 -0.1086
  632MOL0     C85231  -0.801   9.460   5.073  0.0240 -0.1993  0.4329
  632MOL0     C85232  -0.665   9.443   5.066  0.0043 -0.3963 -0.4807
  632MOL0     O85233  -0.463   9.444   4.811  0.2254 -0.5811  0.1857
  632MOL0     C85234  -0.248   9.182   4.902 -0.6259  0.4589  0.0046
  632MOL0     C85235  -0.124   9.124   4.879 -0.1157  0.7387  0.0203
  632MOL0     N85236   0.693   9.101   4.857  0.0577 -0.1117 -0.3787
  632MOL0     N85237   0.816   9.104   4.913 -0.6864  1.3376  0.5030
  632MOL0     C85238   1.914   8.970   5.556 -0.7400  0.4291 -0.2447
  632MOL0     C85239   2.057   9.004   5.547  0.3592  0.8757 -0.2385
  632MOL0     C85240   2.439   9.195   5.405 -0.2958 -0.4634 -0.4300
  632MOL0     C85241   2.476   9.292   5.508 -0.4503 -0.0680 -0.3511
  632MOL0     C85242   2.601   9.351   5.504 -0.1819  0.6553  0.0716
  632MOL0     C85243   2.699   9.308   5.412 -0.1455 -0.8384  0.3607
  632MOL0     O85244   2.835   9.343   5.417  0.2484  0.0278 -0.1887
  632MOL0     C85245   2.849   9.476   5.360  0.1491  0.4803 -0.7403
  632MOL0     C85246   2.914   9.474   5.220 -0.4428  0.7073  0.4323
  632MOL0     C85247   3.051   9.392   5.228 -0.5821  0.1752  0.2562
  632MOL0     C85248   3.126   9.392   5.096 -0.0794 -0.5679  0.2737
  632MOL0     C85249   3.203   9.513   5.076 -0.8839 -0.3239  0.9763
  632MOL0     C85250   3.269   9.615   5.058  0.3863 -0.4568 -0.6124
  632MOL0     C85251   2.661   9.222   5.308  0.1240  0.8600 -0.1033
  632MOL0     C85252   2.532   9.177   5.306  0.0713  0.1212  0.0261
  632MOL0     H85253   2.004   9.322   5.436 -1.6268  0.6609 -0.0415
  632MOL0     H85254   1.780   9.264   5.470  0.0811 -0.0964  0.7011
  632MOL0     H85255   1.579   9.169   5.562 -0.5742 -1.8611  1.4736
  632MOL0     H85256   1.609   9.097   5.396  0.3066  0.2761  0.0015
  632MOL0     H85257   1.477   8.898   5.513  2.0790 -0.0848  0.5842
  632MOL0     H85258   1.427   9.025   5.627 -0.7944 -0.7027  0.7682
  632MOL0     H85259   1.345   9.173   5.445  3.3527 -0.0388 -1.1765
  632MOL0     H85260   1.398   9.048   5.334  1.4587 -2.3116  1.1245
  632MOL0     H85261   1.228   8.895   5.457  0.8480  0.8107 -0.1262
  632MOL0     H85262   1.175   9.030   5.545  2.6638  0.3644  1.3828
  632MOL0     H85263   1.101   9.134   5.338  0.6067  0.1665  2.0551
  632MOL0     H85264   1.177   9.004   5.247  0.8604  0.9084 -0.9317
  632MOL0     H85265   1.004   8.832   5.338 -2.4038  0.4133 -2.0176
  632MOL0     H85266   0.967   8.952   5.462 -2.3461  0.5113 -0.4934
  632MOL0     H85267   0.776   8.952   5.284  0.5325 -0.0061  1.9790
  632MOL0     H85268   0.877   9.106   5.293 -0.2325 -0.0385  1.6264
  632MOL0     H85269   0.969   8.896   5.090  0.4041 -1.1681  3.9644
  632MOL0     H85270   0.998   9.060   5.105 -0.3756  0.9105  1.4482
  632MOL0     H85271   0.665   8.875   5.093  1.3128  0.9703 -0.0426
  632MOL0     H85272   0.526   8.868   4.781 -0.3185  3.1768 -2.1196
  632MOL0     H85273   0.447   8.880   4.946 -0.0716 -0.8416 -0.4724
  632MOL0     H85274   0.314   8.982   4.754 -0.3636  1.8575 -1.8137
  632MOL0     H85275   0.454   9.099   4.737  1.5105 -0.3982  1.7986
  632MOL0     H85276   0.395   9.207   4.932 -1.1972  1.3225 -1.3385
  632MOL0     H85277   0.296   9.082   4.995  0.9405 -1.1788 -0.2256
  632MOL0     H85278   0.247   9.265   4.743  0.7064 -0.0376  0.2564
  632MOL0     H85279   0.187   9.286   4.909  0.7888  0.3925 -0.5827
  632MOL0     H85280   0.021   9.378   4.710 -1.5216 -0.0693 -2.0863
  632MOL0     H85281  -0.246   9.581   4.827  2.0498 -0.3449  1.8579
  632MOL0     H85282  -0.101   9.565   4.732  0.8554 -0.1430  2.0672
  632MOL0     H85283  -0.257   9.510   4.653  2.1657  0.2200 -1.4433
  632MOL0     H85284  -0.650   9.123   4.986  0.1399 -0.6594  0.8162
  632MOL0     H85285  -0.890   9.146   4.990 -1.2581  0.0229 -0.3246
  632MOL0     H85286  -1.114   9.231   4.920  3.6027 -1.8167  0.4195
  632MOL0     H85287  -1.093   9.161   5.064  1.4987 -0.5268 -1.5617
  632MOL0     H85288  -1.277   9.315   5.164  1.8106  1.5320 -0.5059
  632MOL0     H85289  -1.283   9.421   5.025 -2.6406  0.1163 -0.8958
  632MOL0     H85290  -1.366   9.123   5.031  0.3506 -0.1354 -0.9703
  632MOL0     H85291  -1.353   9.205   4.881  0.0617  0.9012  0.4258
  632MOL0     H85292  -1.540   9.266   5.108  1.5805 -0.4598 -0.0593
  632MOL0     H85293  -1.517   9.374   4.969 -0.9967  0.5065  1.4096
  632MOL0     H85294  -1.592   9.079   4.958 -1.6224  0.0407  0.3719
  632MOL0     H85295  -1.608   9.191   4.818 -1.2637  0.3648  0.0253
  632MOL0     H85296  -1.759   9.235   5.066 -0.6089 -1.3041  0.4495
  632MOL0     H85297  -1.764   9.340   4.925  0.5093 -0.5526 -2.1107
  632MOL0     H85298  -1.868   9.041   4.949  2.6743 -0.2426 -0.1951
  632MOL0     H85299  -1.834   9.111   4.802 -2.1055  3.3011 -1.3769
  632MOL0     H85300  -2.061   9.148   4.826 -0.6438  2.3102 -2.1276
  632MOL0     H85301  -1.993   9.315   4.844 -0.8299 -0.1625  0.3597
  632MOL0     H85302  -0.834   9.559   5.102 -2.4213 -0.4339 -1.2693
  632MOL0     H85303  -0.608   9.533   5.088 -1.7911  0.5837  0.4301
  632MOL0     H85304  -0.327   9.128   4.953 -1.6954  0.4708 -1.5774
  632MOL0     H85305  -0.095   9.023   4.908 -0.2765  0.2003 -1.5739
  632MOL0     H85306   1.886   8.873   5.596 -3.2837  1.5931  1.0286
  632MOL0     H85307   2.126   8.925   5.576 -0.8526 -0.0980  0.1171
  632MOL0     H85308   2.412   9.315   5.593  0.7768 -0.1034  0.6017
  632MOL0     H85309   2.619   9.422   5.585  3.4607  1.2626 -1.1132
  632MOL0     H85310   2.765   9.545   5.373  1.9274  2.4660  1.3994
  632MOL0     H85311   2.926   9.525   5.421 -0.6070  2.0779 -1.0131
  632MOL0     H85312   2.934   9.570   5.172  1.0722 -0.0307 -0.4578
  632MOL0     H85313   2.848   9.418   5.154 -1.0463  0.2716  1.3837
  632MOL0     H85314   3.022   9.289   5.251 -1.7321  0.4562  0.1054
  632MOL0     H85315   3.114   9.428   5.310  0.2898  1.1155 -0.7911
  632MOL0     H85316   3.051   9.386   5.016 -0.2458  1.5021  0.2203
  632MOL0     H85317   3.193   9.306   5.099  0.7572  0.0978  1.4314
  632MOL0     H85318   3.324   9.706   5.047 -0.8667  0.3138 -0.6858
  632MOL0     H85319   2.741   9.192   5.242  0.5518 -0.6129  1.0211
  632MOL0     H85320   2.509   9.116   5.219 -0.6526  1.0257 -0.4372
  633MOL0     O85321   7.447   2.715   4.225  0.1284  0.0927 -0.8211
  633MOL0     C85322   7.454   2.597   4.192  0.5152  0.3611 -0.1531
  633MOL0     O85323   7.563   2.534   4.147 -0.0811  0.0461 -0.1802
  633MOL0     C85324   7.689   2.589   4.161  0.1276  0.2039  0.5260
  633MOL0     C85325   7.719   2.717   4.113  0.0741 -0.0777 -0.2065
  633MOL0     C85326   7.851   2.759   4.103  0.3345 -0.2517 -0.4865
  633MOL0     C85327   7.952   2.684   4.168  0.0566  0.9811  0.2082
  633MOL0     O85328   8.082   2.731   4.163  0.2325 -0.1468  0.3005
  633MOL0     C85329   8.187   2.676   4.237 -0.1458  0.2291 -0.5132
  633MOL0     C85330   8.304   2.766   4.229 -0.5791  0.2070 -0.1027
  633MOL0     C85331   8.428   2.728   4.312  0.4089 -0.6939 -0.1696
  633MOL0     C85332   8.550   2.813   4.284  1.4928 -0.2912 -0.0352
  633MOL0     C85333   8.680   2.742   4.333  0.0655  0.0414  0.1748
  633MOL0     C85334   8.788   2.844   4.358  0.1612  0.2156  1.0759
  633MOL0     C85335   8.894   2.789   4.453 -0.0414  0.2464 -0.4167
  633MOL0     C85336   9.027   2.873   4.449 -0.2710  0.3747  0.3469
  633MOL0     N85337   9.007   3.009   4.501  0.0578  0.5950 -0.7215
  633MOL0     C85338   8.995   3.125   4.426  0.5335  0.8794  0.1346
  633MOL0     C85339   8.957   3.218   4.515 -0.8483 -0.0594 -0.4476
  633MOL0     C85340   8.912   3.359   4.480 -0.3499  1.0200 -0.9795
  633MOL0     C85341   8.761   3.380   4.492 -0.5985 -0.5955 -0.5024
  633MOL0     C85342   8.701   3.286   4.387 -0.6100  0.3798  0.2056
  633MOL0     C85343   8.548   3.296   4.410  0.5938  0.4510 -0.2503
  633MOL0     O85344   8.500   3.429   4.430  0.0306 -0.3387 -0.4038
  633MOL0     C85345   8.362   3.442   4.453  0.2509  0.4945  0.2954
  633MOL0     C85346   8.258   3.346   4.417 -0.2964 -0.7334  0.0467
  633MOL0     C85347   8.124   3.358   4.450  0.6864 -0.5698 -0.1390
  633MOL0     C85348   8.024   3.250   4.403  0.7004  0.5175 -0.6872
  633MOL0     C85349   8.088   3.473   4.531 -0.7381 -0.0343  0.6016
  633MOL0     C85350   7.953   3.488   4.583 -0.9172 -0.2881 -0.8531
  633MOL0     O85351   7.849   3.462   4.498 -0.2207  0.5515 -0.0365
  633MOL0     C85352   7.718   3.457   4.540  0.3991  0.2914 -0.3759
  633MOL0     C85353   7.645   3.347   4.514 -0.2858  1.2160  0.3354
  633MOL0     C85354   7.513   3.334   4.559  0.0619  0.4908  0.2750
  633MOL0     C85355   7.457   3.434   4.627 -0.1758 -1.0709 -0.4005
  633MOL0     O85356   7.328   3.417   4.666 -0.9608  0.6649  0.9911
  633MOL0     C85357   7.231   3.514   4.657 -0.5943  0.2123  0.0186
  633MOL0     C85358   7.099   3.441   4.643 -0.6282 -0.3524  0.4405
  633MOL0     C85359   6.987   3.548   4.637  0.3013 -0.4351 -0.6480
  633MOL0     C85360   6.847   3.481   4.633  0.5191  1.1128  0.5357
  633MOL0     C85361   6.728   3.568   4.579 -0.8203  0.7827  0.5201
  633MOL0     C85362   6.696   3.693   4.668  0.2245  0.4223  0.5748
  633MOL0     C85363   6.612   3.660   4.787  0.2278 -0.3890 -0.1630
  633MOL0     C85364   6.607   3.782   4.879 -0.4068  0.6285 -0.2866
  633MOL0    Cl85365   6.759   3.803   4.959  0.1697 -0.1004 -0.0534
  633MOL0     C85366   7.533   3.548   4.662  0.6283  0.0778 -0.4992
  633MOL0     C85367   7.664   3.559   4.618 -0.0017 -0.8061  0.7741
  633MOL0     O85368   7.944   3.524   4.696  0.3731  0.6196 -0.1923
  633MOL0     C85369   8.188   3.570   4.562 -0.0037 -0.0050  0.6231
  633MOL0     C85370   8.322   3.553   4.515  0.1843 -0.7016 -0.2690
  633MOL0     N85371   8.945   3.162   4.641  0.2703  0.3784 -0.2626
  633MOL0     N85372   8.967   3.037   4.630  0.5373  0.6950  0.4930
  633MOL0     C85373   7.914   2.564   4.227  1.0732 -0.2411 -0.3479
  633MOL0     C85374   7.784   2.517   4.229  0.7000 -0.1088  0.1944
  633MOL0     C85375   7.326   2.523   4.212 -0.1812 -1.1650 -0.0274
  633MOL0     C85376   7.199   2.578   4.182  0.0328  0.0678 -0.3522
  633MOL0     C85377   7.081   2.508   4.198  0.2059  0.5053  1.4425
  633MOL0     C85378   7.090   2.377   4.240  0.1382 -0.4110 -0.2697
  633MOL0     O85379   6.982   2.285   4.258  0.2270 -0.2565 -0.3001
  633MOL0     C85380   6.845   2.315   4.231 -0.2086  0.5163 -0.2997
  633MOL0     C85381   6.809   2.312   4.083 -0.2328  0.3798  0.0330
  633MOL0     C85382   6.660   2.300   4.065 -0.1652 -0.3736 -0.3010
  633MOL0     C85383   6.590   2.427   4.127  1.4162 -0.2000 -0.7131
  633MOL0     C85384   6.451   2.417   4.091 -0.0406  0.1082  0.1228
  633MOL0     C85385   6.335   2.403   4.055 -0.1225 -0.1249  0.0656
  633MOL0     C85386   7.215   2.318   4.261  0.6291 -0.5588 -0.1532
  633MOL0     C85387   7.332   2.391   4.243  0.8564 -0.2469  0.3708
  633MOL0     H85388   7.640   2.781   4.075 -0.2205 -0.9701 -1.1394
  633MOL0     H85389   7.875   2.855   4.059 -2.5646  1.1869  0.7875
  633MOL0     H85390   8.166   2.651   4.341  1.9411 -0.7481 -0.2806
  633MOL0     H85391   8.219   2.579   4.197 -1.0754 -0.0495 -0.6068
  633MOL0     H85392   8.338   2.781   4.126  0.0760  0.6921  0.1731
  633MOL0     H85393   8.279   2.864   4.272  0.6055  0.3888  0.2318
  633MOL0     H85394   8.404   2.719   4.418 -0.2863 -0.1193 -0.2722
  633MOL0     H85395   8.447   2.626   4.279 -3.2651 -1.5304 -0.0647
  633MOL0     H85396   8.555   2.838   4.178 -0.0951  2.4383  0.4381
  633MOL0     H85397   8.519   2.908   4.329 -0.0802 -0.1573 -1.3225
  633MOL0     H85398   8.673   2.684   4.425  3.1216  1.4823  1.4525
  633MOL0     H85399   8.700   2.668   4.255  0.3115 -0.2323  0.4978
  633MOL0     H85400   8.827   2.875   4.260  0.8079 -1.9689  0.5785
  633MOL0     H85401   8.744   2.932   4.405 -0.8634 -0.2053  0.9335
  633MOL0     H85402   8.843   2.780   4.550 -2.3296 -0.8931 -1.6244
  633MOL0     H85403   8.925   2.688   4.425  1.4707 -0.2744  2.7092
  633MOL0     H85404   9.064   2.871   4.346 -4.0058  1.3814 -1.1696
  633MOL0     H85405   9.098   2.819   4.513 -0.7484 -2.8057 -1.6052
  633MOL0     H85406   9.005   3.150   4.321 -0.1210  0.1829 -0.1060
  633MOL0     H85407   8.982   3.421   4.537  3.0655 -1.6482 -1.9168
  633MOL0     H85408   8.945   3.370   4.376 -1.5507 -1.8932 -1.7700
  633MOL0     H85409   8.731   3.484   4.481 -1.1928 -0.7508 -0.4286
  633MOL0     H85410   8.724   3.351   4.591 -1.2417  3.1077  0.5032
  633MOL0     H85411   8.736   3.183   4.390 -0.1191  0.4866 -1.0887
  633MOL0     H85412   8.711   3.328   4.286 -3.4916 -0.1044 -0.3675
  633MOL0     H85413   8.503   3.224   4.479 -1.8378 -1.5434 -3.6051
  633MOL0     H85414   8.490   3.270   4.321 -0.6504 -3.2124  1.4238
  633MOL0     H85415   8.284   3.247   4.381  1.1860 -1.3462  2.5345
  633MOL0     H85416   8.063   3.153   4.371  0.0500 -0.0366  0.1646
  633MOL0     H85417   7.955   3.233   4.486  2.9155 -0.3852  1.0724
  633MOL0     H85418   7.958   3.292   4.327  0.0804 -0.3044 -0.6141
  633MOL0     H85419   7.681   3.268   4.449 -0.3728 -0.4507  2.2130
  633MOL0     H85420   7.458   3.244   4.534  0.1283  1.5516 -4.7833
  633MOL0     H85421   7.224   3.573   4.749 -1.4889 -0.3240  0.3012
  633MOL0     H85422   7.263   3.589   4.583  3.3005  0.6116  1.8350
  633MOL0     H85423   7.097   3.377   4.554  1.1843 -1.7913  1.3729
  633MOL0     H85424   7.086   3.386   4.736  0.4439  0.8603  1.3414
  633MOL0     H85425   7.002   3.599   4.541 -2.9092 -1.0912 -1.6145
  633MOL0     H85426   7.006   3.616   4.721  2.0973  0.0197 -1.3571
  633MOL0     H85427   6.859   3.399   4.563  0.2498  1.1641  0.4293
  633MOL0     H85428   6.821   3.440   4.731 -2.0135 -0.3698 -0.6797
  633MOL0     H85429   6.635   3.511   4.570 -0.2424  0.1755 -2.6514
  633MOL0     H85430   6.754   3.600   4.478 -1.2922 -1.1406 -0.2393
  633MOL0     H85431   6.793   3.735   4.696  0.5137  0.4529 -0.4386
  633MOL0     H85432   6.638   3.754   4.599 -3.7320 -3.5017  0.0401
  633MOL0     H85433   6.660   3.577   4.840  1.5788 -0.1110 -0.8989
  633MOL0     H85434   6.517   3.627   4.745  1.1933 -2.0561 -1.1862
  633MOL0     H85435   6.531   3.764   4.956 -1.6852  2.9039 -0.9508
  633MOL0     H85436   6.579   3.872   4.825 -2.9021 -0.8063 -1.5843
  633MOL0     H85437   7.479   3.620   4.723  1.1934 -0.6333  0.8824
  633MOL0     H85438   7.729   3.645   4.632  2.3108 -2.0785 -1.3490
  633MOL0     H85439   8.182   3.667   4.609  1.4049 -0.8166  2.5892
  633MOL0     H85440   8.400   3.628   4.521  0.2527 -0.7993  0.0795
  633MOL0     H85441   7.996   2.519   4.281  1.1878  0.7695  0.3376
  633MOL0     H85442   7.763   2.425   4.282  1.2770 -0.2080  0.2625
  633MOL0     H85443   7.195   2.684   4.161  1.7604  0.7967  2.3912
  633MOL0     H85444   6.986   2.560   4.195 -0.4109 -0.6176  0.7210
  633MOL0     H85445   6.784   2.244   4.288 -0.4851  2.2261  1.6521
  633MOL0     H85446   6.832   2.414   4.277 -0.6557  0.7184 -0.8484
  633MOL0     H85447   6.848   2.213   4.056  1.8315  0.6933  1.6079
  633MOL0     H85448   6.860   2.390   4.025  3.9533 -1.7784  0.3776
  633MOL0     H85449   6.618   2.207   4.104 -0.9364 -0.2367 -0.7632
  633MOL0     H85450   6.638   2.307   3.958  1.3665  0.8151 -0.5810
  633MOL0     H85451   6.631   2.525   4.101  0.8886  2.2180  5.7594
  633MOL0     H85452   6.594   2.433   4.236  1.3637 -2.1270 -0.5797
  633MOL0     H85453   6.234   2.401   4.020  0.3166 -0.7753 -1.1983
  633MOL0     H85454   7.221   2.215   4.296  2.0169 -0.8329 -1.0902
  633MOL0     H85455   7.424   2.338   4.264 -0.3113 -2.5944 -0.0477
  634MOL0     O85456   3.371   2.419   2.031 -0.5475 -0.3094  0.2930
  634MOL0     C85457   3.368   2.389   1.908 -0.2085 -0.3125  0.0844
  634MOL0     O85458   3.264   2.416   1.819  0.0394  0.0001 -0.3280
  634MOL0     C85459   3.140   2.435   1.874 -0.4264 -0.3917  0.2997
  634MOL0     C85460   3.059   2.320   1.889 -0.0441 -0.0725  0.0657
  634MOL0     C85461   2.927   2.327   1.931  0.5153  0.1807  0.0014
  634MOL0     C85462   2.864   2.449   1.946 -0.7676 -0.7568  0.1549
  634MOL0     O85463   2.735   2.449   1.986 -0.0876  0.0749 -0.9754
  634MOL0     C85464   2.647   2.547   1.928  0.0091  0.2577  1.1944
  634MOL0     C85465   2.524   2.540   2.013  0.1095 -0.2280  0.4000
  634MOL0     C85466   2.466   2.396   2.015 -0.0935 -0.3765 -0.5344
  634MOL0     C85467   2.406   2.336   1.888  0.2860  1.1028  0.1625
  634MOL0     C85468   2.327   2.213   1.921  0.0423 -0.0733  0.6428
  634MOL0     C85469   2.185   2.241   1.968 -0.6404 -0.6449 -0.6790
  634MOL0     C85470   2.109   2.133   2.031 -0.3503 -0.0398 -0.0870
  634MOL0     C85471   2.079   2.008   1.940 -0.4959 -0.5091  0.0021
  634MOL0     N85472   1.999   2.044   1.825  0.2932  0.4559  0.1436
  634MOL0     C85473   1.868   2.016   1.809  0.5574  0.4739 -0.1196
  634MOL0     C85474   1.842   2.038   1.680 -0.0001  0.1802  0.2894
  634MOL0     C85475   1.709   2.023   1.612 -0.2046 -0.4167  0.5081
  634MOL0     C85476   1.633   1.892   1.631 -0.5233  0.4765  0.8794
  634MOL0     C85477   1.502   1.917   1.568  0.4808 -0.6217  1.1068
  634MOL0     C85478   1.414   1.798   1.585 -0.7917  0.9101 -0.3006
  634MOL0     O85479   1.351   1.795   1.715  0.1648 -0.1207 -0.1427
  634MOL0     C85480   1.228   1.746   1.714 -0.0775 -0.6579  0.5481
  634MOL0     C85481   1.122   1.835   1.732 -0.0662  0.3223 -0.5631
  634MOL0     C85482   0.988   1.790   1.719  0.0165  0.1021 -0.2607
  634MOL0     C85483   0.879   1.894   1.737 -0.8540  0.2721 -0.4845
  634MOL0     C85484   0.958   1.659   1.683 -0.4118 -0.3286 -0.4840
  634MOL0     C85485   0.820   1.617   1.647  0.4781 -0.7243 -0.2828
  634MOL0     O85486   0.720   1.644   1.728 -0.5243 -0.4533  0.5052
  634MOL0     C85487   0.594   1.653   1.677 -1.0544  0.1474  0.5361
  634MOL0     C85488   0.570   1.729   1.558  0.1517  0.0294 -0.4215
  634MOL0     C85489   0.436   1.736   1.508 -0.5144 -0.4759 -0.8342
  634MOL0     C85490   0.337   1.666   1.566  0.6271  0.0445 -0.2296
  634MOL0     O85491   0.211   1.672   1.507  0.2175  0.1490 -0.0309
  634MOL0     C85492   0.107   1.585   1.557  0.8816  0.6687 -0.9399
  634MOL0     C85493  -0.029   1.602   1.478 -0.1383 -0.3815 -0.4290
  634MOL0     C85494  -0.108   1.733   1.500  0.2324  0.4420  0.8395
  634MOL0     C85495  -0.154   1.767   1.641 -1.6454  0.2327 -0.2274
  634MOL0     C85496  -0.238   1.879   1.650 -0.2446 -0.5304  0.0340
  634MOL0     C85497  -0.382   1.856   1.608  0.6674 -0.4218  0.2537
  634MOL0     C85498  -0.472   1.977   1.611 -0.4765  1.3257  0.4514
  634MOL0     C85499  -0.608   1.950   1.551  0.3439  0.6940  0.6385
  634MOL0    Cl85500  -0.693   1.802   1.620 -0.0122 -0.1593  0.4525
  634MOL0     C85501   0.367   1.585   1.673  0.7327 -0.2287  1.0543
  634MOL0     C85502   0.487   1.578   1.736  0.0338  0.2380  0.2559
  634MOL0     O85503   0.809   1.561   1.540 -0.3650 -0.4390  0.0507
  634MOL0     C85504   1.070   1.575   1.648  0.0740 -0.6770 -0.3544
  634MOL0     C85505   1.209   1.613   1.671 -0.7629 -0.3374 -0.0413
  634MOL0     N85506   1.954   2.080   1.616  0.0799 -0.0608  0.1736
  634MOL0     N85507   2.043   2.078   1.701  1.1106 -1.0071 -0.2451
  634MOL0     C85508   2.952   2.563   1.944 -0.2132  0.3999  0.4466
  634MOL0     C85509   3.091   2.561   1.907  0.5282  0.0907 -0.0281
  634MOL0     C85510   3.503   2.358   1.848 -0.2116  0.5272 -0.4527
  634MOL0     C85511   3.505   2.323   1.714 -0.5195 -0.1935  0.2029
  634MOL0     C85512   3.627   2.301   1.647 -0.2806  0.4296  0.6396
  634MOL0     C85513   3.747   2.322   1.707  0.0117  0.0808 -0.4179
  634MOL0     O85514   3.860   2.302   1.625  0.0089  0.9234  0.1800
  634MOL0     C85515   3.988   2.316   1.693 -0.5201  0.2385  0.6420
  634MOL0     C85516   4.120   2.322   1.618  0.2312  0.5176  0.8010
  634MOL0     C85517   4.131   2.455   1.539  0.0431  0.2519  0.2379
  634MOL0     C85518   4.246   2.449   1.433 -0.1697  0.3583 -0.8769
  634MOL0     C85519   4.372   2.396   1.503 -0.1121 -0.5087  0.7738
  634MOL0     C85520   4.461   2.331   1.560 -0.4219  0.3886  0.3729
  634MOL0     C85521   3.748   2.349   1.852  0.7648  0.7606 -0.4860
  634MOL0     C85522   3.623   2.370   1.919  0.8876  0.7680  0.1428
  634MOL0     H85523   3.093   2.225   1.851 -1.8518 -1.0699  0.7939
  634MOL0     H85524   2.870   2.238   1.958 -0.1695  0.1103 -1.5699
  634MOL0     H85525   2.689   2.648   1.932  0.0407  0.2720  0.5945
  634MOL0     H85526   2.621   2.521   1.825 -0.2755 -1.3019  1.6403
  634MOL0     H85527   2.541   2.571   2.116 -1.0190 -1.5485  1.0261
  634MOL0     H85528   2.451   2.610   1.972 -0.1964  0.4280  1.9863
  634MOL0     H85529   2.542   2.323   2.045  0.6184 -0.1165 -1.6650
  634MOL0     H85530   2.395   2.395   2.098  0.5010  0.8810  0.0126
  634MOL0     H85531   2.334   2.408   1.847 -2.4618 -1.8040 -0.4672
  634MOL0     H85532   2.482   2.325   1.810  0.8952  1.5134  0.6823
  634MOL0     H85533   2.322   2.165   1.823  1.3798 -0.8340  0.9318
  634MOL0     H85534   2.384   2.146   1.986  0.3103 -0.7779 -0.3016
  634MOL0     H85535   2.193   2.321   2.042 -1.9505  0.1555 -1.3597
  634MOL0     H85536   2.129   2.290   1.888  0.4372  0.4852 -0.7565
  634MOL0     H85537   2.178   2.099   2.110 -0.9001  0.3746  0.5774
  634MOL0     H85538   2.022   2.180   2.077  0.0919 -0.0592  0.7806
  634MOL0     H85539   2.023   1.933   1.996 -1.2676 -0.3640 -0.5545
  634MOL0     H85540   2.177   1.967   1.913  1.1051  2.0002  1.5482
  634MOL0     H85541   1.798   1.974   1.881  2.5037 -1.3220  0.8343
  634MOL0     H85542   1.642   2.104   1.643 -2.6178 -2.0506 -0.1277
  634MOL0     H85543   1.734   2.053   1.510  2.5062  2.4884  1.8401
  634MOL0     H85544   1.622   1.869   1.738  1.8843  1.5006  1.3899
  634MOL0     H85545   1.693   1.816   1.580  1.6456  1.2668  2.1059
  634MOL0     H85546   1.529   1.935   1.463  2.7699 -2.3050  1.3267
  634MOL0     H85547   1.448   2.003   1.608  1.8367  0.2754  1.0919
  634MOL0     H85548   1.480   1.711   1.574  2.1373  3.2441 -2.8797
  634MOL0     H85549   1.335   1.790   1.510 -4.3350 -3.4812  3.2894
  634MOL0     H85550   1.133   1.939   1.762  0.4692  0.2738 -0.5825
  634MOL0     H85551   0.801   1.890   1.661 -1.0978  0.6396 -0.2612
  634MOL0     H85552   0.831   1.875   1.833  0.8085 -0.1282  0.3120
  634MOL0     H85553   0.920   1.996   1.742 -0.1300  0.0434  5.4121
  634MOL0     H85554   0.648   1.789   1.514 -1.2456  1.3085 -1.2404
  634MOL0     H85555   0.419   1.811   1.430 -0.4208  2.2798  1.6131
  634MOL0     H85556   0.148   1.483   1.551 -1.0962 -0.5946  3.1770
  634MOL0     H85557   0.085   1.605   1.662 -1.2143  0.1287 -1.2251
  634MOL0     H85558  -0.019   1.587   1.370 -1.3911  1.1830 -0.8041
  634MOL0     H85559  -0.095   1.522   1.515 -0.6098  0.6632  1.1173
  634MOL0     H85560  -0.193   1.740   1.431 -0.4558 -0.8099  1.5047
  634MOL0     H85561  -0.039   1.815   1.483 -0.6268  0.6782 -1.8897
  634MOL0     H85562  -0.205   1.683   1.690 -2.8818  1.1233  0.0445
  634MOL0     H85563  -0.069   1.796   1.704 -0.2824 -1.7473 -1.0607
  634MOL0     H85564  -0.200   1.961   1.587  0.0349 -0.1553  0.6723
  634MOL0     H85565  -0.249   1.911   1.754 -1.7043 -1.5027  0.2063
  634MOL0     H85566  -0.390   1.814   1.507  0.3167 -1.5531  0.7268
  634MOL0     H85567  -0.429   1.774   1.664 -0.6050  1.4567  2.1183
  634MOL0     H85568  -0.422   2.054   1.551 -0.7957 -0.2591 -1.9740
  634MOL0     H85569  -0.484   2.018   1.712 -0.4786 -1.8330  1.8312
  634MOL0     H85570  -0.600   1.928   1.445 -0.4971  0.1980  0.6669
  634MOL0     H85571  -0.679   2.033   1.552  0.1972  0.5714  0.9466
  634MOL0     H85572   0.291   1.530   1.728  1.8772 -0.4500  2.5045
  634MOL0     H85573   0.508   1.521   1.826  1.8081 -1.5160 -1.1712
  634MOL0     H85574   1.047   1.476   1.612  0.2111 -1.1600  0.8390
  634MOL0     H85575   1.295   1.557   1.638 -0.0890 -0.8020  2.3105
  634MOL0     H85576   2.907   2.661   1.956  0.9698  1.1159 -0.6600
  634MOL0     H85577   3.156   2.647   1.898 -1.9536  1.8899 -2.3770
  634MOL0     H85578   3.421   2.322   1.646  1.2196 -1.6770 -2.0972
  634MOL0     H85579   3.625   2.278   1.541  0.8597 -1.7734  1.0338
  634MOL0     H85580   3.985   2.413   1.743  2.7676 -0.3711  2.2627
  634MOL0     H85581   3.999   2.241   1.772  3.6023 -0.1243 -0.0281
  634MOL0     H85582   4.119   2.235   1.551 -0.9793  1.8681 -1.0554
  634MOL0     H85583   4.197   2.312   1.695 -1.9682 -0.0666  3.0463
  634MOL0     H85584   4.154   2.537   1.608  2.1421 -0.6039  0.6358
  634MOL0     H85585   4.036   2.478   1.490  0.7419  2.7980 -0.0640
  634MOL0     H85586   4.266   2.543   1.382 -3.2263  2.2171  0.9972
  634MOL0     H85587   4.216   2.371   1.363 -1.5960 -0.3260  0.4155
  634MOL0     H85588   4.532   2.266   1.606  0.8754  1.1515 -0.4975
  634MOL0     H85589   3.837   2.376   1.908 -0.0042  0.3243  0.9719
  634MOL0     H85590   3.621   2.386   2.026  0.0494  1.4286  0.0321
  635MOL0     O85591   9.266   7.616   5.193 -0.6886  0.3263  0.6890
  635MOL0     C85592   9.323   7.675   5.277 -1.2787 -0.3016 -0.5265
  635MOL0     O85593   9.271   7.683   5.404  0.0818 -0.0769 -0.2953
  635MOL0     C85594   9.144   7.650   5.442  0.9863  0.3472 -0.5139
  635MOL0     C85595   9.035   7.722   5.390 -0.1049 -0.2453  0.6158
  635MOL0     C85596   8.898   7.695   5.421 -0.3056 -0.2793 -0.8372
  635MOL0     C85597   8.871   7.613   5.531  0.1519 -0.1899  0.7285
  635MOL0     O85598   8.755   7.606   5.592  0.2512 -0.1696  0.6066
  635MOL0     C85599   8.650   7.690   5.551 -0.7723  0.5914  0.6625
  635MOL0     C85600   8.540   7.685   5.655 -0.3887  0.3003  0.0131
  635MOL0     C85601   8.498   7.542   5.691  0.4738 -0.3256  0.7424
  635MOL0     C85602   8.380   7.540   5.783  0.2780  0.0872  0.7971
  635MOL0     C85603   8.353   7.396   5.819 -0.1391  0.2691 -0.0506
  635MOL0     C85604   8.238   7.364   5.917  0.3203 -0.1457 -0.4476
  635MOL0     C85605   8.194   7.215   5.905  0.2760 -0.1386 -0.5672
  635MOL0     C85606   8.310   7.117   5.927 -0.3394  0.2750 -0.4731
  635MOL0     N85607   8.361   7.106   6.065  0.3487  0.9039 -0.4398
  635MOL0     C85608   8.306   7.039   6.171  0.0093  0.2181  0.0056
  635MOL0     C85609   8.371   7.090   6.281  0.6544  0.0500  0.7080
  635MOL0     C85610   8.339   7.068   6.422 -0.1283 -0.3917  1.0518
  635MOL0     C85611   8.187   7.094   6.454 -0.7415  0.3617 -0.5568
  635MOL0     C85612   8.171   7.067   6.600 -0.1818  0.3547 -0.6107
  635MOL0     C85613   8.025   7.090   6.643 -0.6642 -0.9741 -0.3288
  635MOL0     O85614   7.920   7.031   6.568 -0.4206  0.6721  0.3148
  635MOL0     C85615   7.880   6.907   6.614 -0.2250  0.8457 -0.1775
  635MOL0     C85616   7.936   6.825   6.718 -0.2427  0.5425 -0.4239
  635MOL0     C85617   7.882   6.698   6.751 -0.1457  0.2469 -0.1554
  635MOL0     C85618   7.944   6.629   6.863  0.3928  0.4934  0.8451
  635MOL0     C85619   7.766   6.650   6.674 -0.0895  0.7962  0.3433
  635MOL0     C85620   7.690   6.523   6.709 -0.5354 -0.0304  0.1757
  635MOL0     O85621   7.617   6.469   6.597 -0.0879  0.0890  0.0882
  635MOL0     C85622   7.512   6.384   6.611  0.0056  0.1104 -0.1000
  635MOL0     C85623   7.410   6.414   6.699  0.7274  0.3525 -0.0499
  635MOL0     C85624   7.291   6.333   6.712 -0.6938 -0.0620 -0.1082
  635MOL0     C85625   7.283   6.211   6.635  0.1409  0.2970  1.0496
  635MOL0     O85626   7.162   6.137   6.641  0.2336  0.2846 -1.2443
  635MOL0     C85627   7.037   6.214   6.629 -0.2312  0.5698 -0.4325
  635MOL0     C85628   6.912   6.125   6.635 -0.4548 -1.0369  0.3081
  635MOL0     C85629   6.786   6.213   6.607  0.6452 -0.2753  0.2273
  635MOL0     C85630   6.668   6.135   6.660  1.0289  0.4373 -0.2550
  635MOL0     C85631   6.539   6.219   6.631 -0.2851 -0.2525 -0.4988
  635MOL0     C85632   6.413   6.127   6.630  0.2224 -0.0614 -0.0097
  635MOL0     C85633   6.282   6.208   6.653 -0.0897 -0.0096  0.5491
  635MOL0     C85634   6.157   6.119   6.635 -0.3127 -0.2335 -0.6957
  635MOL0    Cl85635   6.183   5.959   6.722  0.1434  0.4364  0.3554
  635MOL0     C85636   7.393   6.178   6.553  0.3574  0.7781  0.1069
  635MOL0     C85637   7.502   6.263   6.546  0.2258  0.2664  0.3359
  635MOL0     O85638   7.671   6.495   6.828 -0.6172 -0.1094 -0.4144
  635MOL0     C85639   7.719   6.728   6.568  0.0298 -0.1273 -0.8547
  635MOL0     C85640   7.774   6.851   6.542  0.1290 -0.5817 -0.4774
  635MOL0     N85641   8.467   7.174   6.234 -0.0851 -0.3442 -0.0627
  635MOL0     N85642   8.453   7.189   6.105 -0.6581 -0.0580 -0.3371
  635MOL0     C85643   8.985   7.563   5.601  0.3331  0.0022  0.8419
  635MOL0     C85644   9.116   7.579   5.559 -0.1670  0.1551  0.7302
  635MOL0     C85645   9.443   7.753   5.251 -0.2185 -0.0370 -0.2298
  635MOL0     C85646   9.503   7.832   5.348  1.0164  0.5304  0.1153
  635MOL0     C85647   9.620   7.906   5.319 -0.0461  0.0612  0.8689
  635MOL0     C85648   9.673   7.917   5.189  0.6390  0.2586  0.1668
  635MOL0     O85649   9.770   8.005   5.148 -0.3565  0.0543  0.2931
  635MOL0     C85650   9.815   8.099   5.246  0.6348  0.8976  0.1816
  635MOL0     C85651   9.919   8.187   5.182 -0.5073 -0.2710  0.5718
  635MOL0     C85652   9.995   8.271   5.292  0.3787 -0.0609  0.9474
  635MOL0     C85653  10.089   8.184   5.378 -0.3434  0.2631 -1.6554
  635MOL0     C85654  10.043   8.203   5.521 -0.4276  0.7420  0.1909
  635MOL0     C85655   9.994   8.215   5.629 -1.4358  0.9836  0.1846
  635MOL0     C85656   9.617   7.829   5.094  0.4365  0.1787  0.1308
  635MOL0     C85657   9.497   7.763   5.121 -0.0729  0.0143 -0.4070
  635MOL0     H85658   9.060   7.782   5.303  0.4195 -3.8295 -1.9664
  635MOL0     H85659   8.820   7.731   5.353 -1.0531 -0.6886 -0.2084
  635MOL0     H85660   8.668   7.798   5.547 -2.0387  0.8139  0.5584
  635MOL0     H85661   8.606   7.651   5.459  1.7915 -3.1147  0.7925
  635MOL0     H85662   8.569   7.747   5.741  1.6084 -0.3997 -0.1053
  635MOL0     H85663   8.453   7.734   5.610  0.3145 -0.1941 -1.9951
  635MOL0     H85664   8.472   7.505   5.591  2.9596  1.8633 -0.8537
  635MOL0     H85665   8.580   7.481   5.729 -0.5659 -2.3540 -0.1096
  635MOL0     H85666   8.408   7.609   5.864  2.5575  1.0085 -0.6610
  635MOL0     H85667   8.283   7.576   5.747  0.3006  0.0988  0.7457
  635MOL0     H85668   8.334   7.351   5.721 -1.8547  3.2076 -1.2173
  635MOL0     H85669   8.444   7.351   5.859 -1.5668 -1.2999  1.6054
  635MOL0     H85670   8.270   7.396   6.017  2.3905 -3.0905 -0.0734
  635MOL0     H85671   8.148   7.425   5.901  0.8003  0.5851 -0.4516
  635MOL0     H85672   8.111   7.191   5.973 -0.7979 -0.0410 -1.8061
  635MOL0     H85673   8.154   7.210   5.803  2.0853  0.4442 -1.3344
  635MOL0     H85674   8.389   7.133   5.853  2.5934 -1.7476  2.0222
  635MOL0     H85675   8.275   7.016   5.905  1.3697 -0.7853  1.3823
  635MOL0     H85676   8.226   6.967   6.181 -0.6263  1.0526  1.0734
  635MOL0     H85677   8.362   6.963   6.445  0.4544  0.0662  2.7491
  635MOL0     H85678   8.404   7.126   6.488 -0.8824 -0.1284  1.5800
  635MOL0     H85679   8.120   7.036   6.389 -2.8557  2.8751 -0.8119
  635MOL0     H85680   8.163   7.201   6.442  1.5058  1.0495  0.6358
  635MOL0     H85681   8.230   7.135   6.662 -0.5708  0.1997 -0.0574
  635MOL0     H85682   8.204   6.964   6.617  0.9464  0.8027 -0.0015
  635MOL0     H85683   8.004   7.197   6.641 -1.9921 -1.2222 -0.6380
  635MOL0     H85684   8.023   7.061   6.749  4.1155 -0.1422  0.1935
  635MOL0     H85685   8.030   6.855   6.763 -2.2324  1.1421  3.7417
  635MOL0     H85686   8.043   6.673   6.884  0.0487  0.7353  2.0448
  635MOL0     H85687   7.883   6.634   6.954 -0.0456  0.7874  0.5384
  635MOL0     H85688   7.956   6.523   6.841  2.7988  0.5198  1.7021
  635MOL0     H85689   7.424   6.503   6.759  1.8143 -0.1007  0.3946
  635MOL0     H85690   7.209   6.360   6.778 -1.2924  1.0798 -1.2694
  635MOL0     H85691   7.020   6.277   6.716 -1.3858 -1.0079  0.5280
  635MOL0     H85692   7.047   6.286   6.547  1.2377  2.2427  1.1327
  635MOL0     H85693   6.932   6.057   6.551  1.2781  0.1879 -0.3401
  635MOL0     H85694   6.897   6.071   6.729 -2.5948  1.4965  1.5281
  635MOL0     H85695   6.776   6.231   6.499 -1.2974  0.8121  0.5458
  635MOL0     H85696   6.802   6.314   6.645  0.5588 -0.4817  0.8284
  635MOL0     H85697   6.651   6.035   6.619  1.7749 -0.0901  0.6832
  635MOL0     H85698   6.671   6.126   6.769 -2.2004 -3.2010 -0.2541
  635MOL0     H85699   6.554   6.263   6.533  0.4794 -0.0653 -0.2999
  635MOL0     H85700   6.531   6.305   6.697 -0.9524 -0.0533 -0.8300
  635MOL0     H85701   6.410   6.076   6.533 -1.5893 -0.0909  0.0304
  635MOL0     H85702   6.418   6.045   6.703  0.9755 -1.2616 -1.3535
  635MOL0     H85703   6.273   6.285   6.576  2.4013  0.7124  0.8817
  635MOL0     H85704   6.287   6.255   6.751 -2.9772 -0.9469  1.2509
  635MOL0     H85705   6.126   6.098   6.532 -2.1144  0.3306 -0.2932
  635MOL0     H85706   6.079   6.179   6.681 -1.1072 -0.1543 -2.1040
  635MOL0     H85707   7.386   6.083   6.501 -0.9402 -1.4429  3.9002
  635MOL0     H85708   7.583   6.244   6.477  2.7920  1.6513  2.7418
  635MOL0     H85709   7.634   6.703   6.506 -0.8674  2.0301 -0.5623
  635MOL0     H85710   7.738   6.911   6.458  0.6446  1.6836  0.8408
  635MOL0     H85711   8.959   7.492   5.679  0.4824 -1.0479 -0.0321
  635MOL0     H85712   9.201   7.538   5.613  1.4345  2.1168 -0.1497
  635MOL0     H85713   9.463   7.844   5.448 -2.0425  3.8993 -1.2652
  635MOL0     H85714   9.678   7.952   5.398  0.1181 -0.2381  0.9210
  635MOL0     H85715   9.741   8.164   5.294  0.7312  0.1369  1.4163
  635MOL0     H85716   9.866   8.047   5.328  0.3332  0.5608  0.1551
  635MOL0     H85717   9.874   8.260   5.115  1.0350  0.1946  0.0141
  635MOL0     H85718   9.998   8.133   5.129 -1.1554 -1.4482  0.7649
  635MOL0     H85719   9.914   8.317   5.350 -0.6216 -1.1862  0.4969
  635MOL0     H85720  10.062   8.341   5.242 -0.0359 -0.7852 -0.7106
  635MOL0     H85721  10.194   8.214   5.365  0.3811 -0.0663  2.2672
  635MOL0     H85722  10.087   8.077   5.351  1.6457 -0.0129 -0.8961
  635MOL0     H85723   9.935   8.235   5.716 -0.1473 -0.0150  1.3256
  635MOL0     H85724   9.662   7.831   4.995  3.1108 -2.1557  1.1670
  635MOL0     H85725   9.451   7.727   5.030  0.0445  0.9502 -0.8511
  636MOL0     O85726   6.519   2.006   8.359  0.3470 -0.8555 -0.0412
  636MOL0     C85727   6.577   2.110   8.377  0.7108 -1.1802 -0.8170
  636MOL0     O85728   6.525   2.237   8.357  0.2717 -0.7144 -0.0305
  636MOL0     C85729   6.389   2.234   8.341  0.4148  0.0345 -0.2504
  636MOL0     C85730   6.343   2.211   8.213 -0.0069 -0.3206  0.1698
  636MOL0     C85731   6.206   2.195   8.191  0.4692 -0.6102 -0.2520
  636MOL0     C85732   6.113   2.213   8.287 -0.6169  0.3280 -0.5134
  636MOL0     O85733   5.981   2.205   8.259 -0.2398  0.8944 -0.1626
  636MOL0     C85734   5.925   2.111   8.169 -0.6341  0.4987 -0.1930
  636MOL0     C85735   5.784   2.076   8.218  0.7810 -0.0148 -0.3963
  636MOL0     C85736   5.671   2.157   8.156 -0.1378  0.3398  0.2364
  636MOL0     C85737   5.532   2.098   8.185 -0.1637  0.1197 -0.6907
  636MOL0     C85738   5.418   2.191   8.158  0.8339 -0.0674  0.3774
  636MOL0     C85739   5.352   2.185   8.023  0.9691  0.3803  0.3532
  636MOL0     C85740   5.228   2.275   8.001 -0.0646 -0.5846  0.2257
  636MOL0     C85741   5.265   2.420   7.969 -0.3064 -0.0897 -0.1032
  636MOL0     N85742   5.158   2.517   7.936  0.5193 -0.2575 -0.0158
  636MOL0     C85743   5.072   2.571   8.029 -1.1244  0.0164  0.1032
  636MOL0     C85744   4.975   2.644   7.961  1.0041 -0.3433 -0.7333
  636MOL0     C85745   4.880   2.744   8.023 -0.6201  0.1947  0.5845
  636MOL0     C85746   4.746   2.756   7.936  0.4795 -0.0427  0.9600
  636MOL0     C85747   4.662   2.633   7.913  1.1594 -0.4191 -0.1246
  636MOL0     C85748   4.537   2.666   7.832 -0.2405 -0.4131 -0.9725
  636MOL0     O85749   4.563   2.718   7.700 -0.4942  0.5735 -0.1732
  636MOL0     C85750   4.477   2.664   7.605 -0.2483 -0.4877  0.0741
  636MOL0     C85751   4.534   2.611   7.488 -0.1587 -0.2290  0.7027
  636MOL0     C85752   4.458   2.580   7.373 -0.7549 -0.3067 -0.7460
  636MOL0     C85753   4.538   2.524   7.259  0.1516 -0.3261  0.7404
  636MOL0     C85754   4.316   2.593   7.382 -0.1016  0.6997  0.0517
  636MOL0     C85755   4.229   2.553   7.271 -0.1071  0.6130  0.0184
  636MOL0     O85756   4.106   2.509   7.311 -0.2204 -0.9570  0.5729
  636MOL0     C85757   4.015   2.443   7.234  0.7864 -0.2404  0.1809
  636MOL0     C85758   4.001   2.469   7.099  0.1675 -0.2770  0.0227
  636MOL0     C85759   3.889   2.422   7.033 -0.5176 -0.3870 -0.3807
  636MOL0     C85760   3.788   2.352   7.111  0.1834 -0.7226  0.2305
  636MOL0     O85761   3.670   2.311   7.045 -0.0371 -0.2129  0.9475
  636MOL0     C85762   3.652   2.171   7.039  0.1513  0.8466 -0.1372
  636MOL0     C85763   3.492   2.150   7.028 -0.3139  0.0797 -0.5436
  636MOL0     C85764   3.414   2.251   6.949  0.1239  0.2472 -0.1786
  636MOL0     C85765   3.405   2.219   6.796  0.1333 -0.1863 -0.6493
  636MOL0     C85766   3.362   2.345   6.720  0.2308 -0.0089 -0.5375
  636MOL0     C85767   3.305   2.305   6.583  0.8425  0.5305  0.1822
  636MOL0     C85768   3.282   2.430   6.500 -0.1267 -0.0480 -0.5955
  636MOL0     C85769   3.170   2.440   6.401  0.0876 -0.1849 -0.3407
  636MOL0    Cl85770   3.182   2.335   6.255  0.1109  0.2491 -0.0080
  636MOL0     C85771   3.807   2.324   7.243  0.9101  0.4337 -0.0477
  636MOL0     C85772   3.918   2.375   7.303  0.0466  0.0889 -0.8508
  636MOL0     O85773   4.270   2.555   7.154  0.5537  0.7781 -0.6286
  636MOL0     C85774   4.267   2.629   7.507  0.6614  0.3800  1.0234
  636MOL0     C85775   4.340   2.665   7.613  0.3394  0.6413  0.6619
  636MOL0     N85776   5.008   2.626   7.824  1.0015 -0.1534 -0.0393
  636MOL0     N85777   5.113   2.549   7.810  0.4934 -0.5751  0.4483
  636MOL0     C85778   6.155   2.250   8.412 -0.3265  0.1694  0.1320
  636MOL0     C85779   6.294   2.250   8.446  0.5249 -0.4016  0.7966
  636MOL0     C85780   6.723   2.101   8.407 -0.9440 -0.5695  0.2151
  636MOL0     C85781   6.775   1.980   8.461  0.5136 -0.7113  0.6288
  636MOL0     C85782   6.916   1.969   8.470  1.0003 -0.6451 -0.8147
  636MOL0     C85783   7.008   2.060   8.421  0.3120  0.8187  0.4269
  636MOL0     O85784   7.144   2.020   8.434  1.0841 -0.9357 -0.1974
  636MOL0     C85785   7.239   2.083   8.351 -0.3129 -0.1506  0.3591
  636MOL0     C85786   7.354   1.994   8.347 -0.1648  0.0912  0.1903
  636MOL0     C85787   7.465   2.032   8.253  0.7271 -0.4570  0.2453
  636MOL0     C85788   7.580   1.931   8.248  0.0433  0.2846 -0.6901
  636MOL0     C85789   7.680   1.986   8.160  0.0306 -0.6204  0.0892
  636MOL0     C85790   7.752   2.043   8.079  0.8395  0.6717 -0.2434
  636MOL0     C85791   6.956   2.177   8.368  0.3285  0.2749 -0.7298
  636MOL0     C85792   6.815   2.195   8.363  0.4768 -0.0706  0.3077
  636MOL0     H85793   6.407   2.201   8.126 -0.8528 -2.1963 -0.2767
  636MOL0     H85794   6.175   2.180   8.088 -0.1042  1.2385 -0.3909
  636MOL0     H85795   5.916   2.153   8.069 -0.7162  0.2048 -0.3108
  636MOL0     H85796   5.977   2.015   8.156  2.7486  2.3936 -1.7386
  636MOL0     H85797   5.761   1.971   8.202 -2.7927  0.8537 -1.9125
  636MOL0     H85798   5.787   2.097   8.325 -0.7006 -4.0291  0.6103
  636MOL0     H85799   5.688   2.260   8.186  0.1112  1.2324 -2.7145
  636MOL0     H85800   5.679   2.152   8.047  0.1844 -1.6982  0.3068
  636MOL0     H85801   5.522   2.001   8.136  3.2489 -0.0089 -1.3631
  636MOL0     H85802   5.531   2.088   8.294 -3.2640  2.4255 -0.3798
  636MOL0     H85803   5.347   2.170   8.238  0.3305  3.0713  0.8801
  636MOL0     H85804   5.453   2.293   8.179 -1.9419  0.8380  1.1428
  636MOL0     H85805   5.423   2.200   7.941 -1.2011  1.0045 -1.5170
  636MOL0     H85806   5.316   2.082   8.026 -2.3021  1.2739 -2.2779
  636MOL0     H85807   5.173   2.222   7.923 -0.2510 -0.8983  0.5671
  636MOL0     H85808   5.175   2.274   8.097  0.7219 -1.1202  0.6575
  636MOL0     H85809   5.317   2.406   7.874 -3.6300  0.4545 -2.1844
  636MOL0     H85810   5.327   2.466   8.046  0.0726 -0.8867  0.0836
  636MOL0     H85811   5.092   2.566   8.135  0.9820  0.6720 -0.2149
  636MOL0     H85812   4.857   2.722   8.128 -0.1106  0.9137  0.8520
  636MOL0     H85813   4.931   2.840   8.029  1.1565 -0.6864  0.1832
  636MOL0     H85814   4.771   2.806   7.843 -1.3287  0.5556  0.7439
  636MOL0     H85815   4.670   2.821   7.982  0.4747 -0.3408  1.3822
  636MOL0     H85816   4.639   2.572   8.000  0.6582 -1.1868 -0.7779
  636MOL0     H85817   4.715   2.563   7.847 -1.0719 -2.1539 -0.1721
  636MOL0     H85818   4.474   2.742   7.881  2.0041  0.3851  0.8525
  636MOL0     H85819   4.465   2.584   7.829 -3.1980  1.7202  2.7319
  636MOL0     H85820   4.641   2.599   7.495  0.0488 -0.1352 -1.7494
  636MOL0     H85821   4.490   2.455   7.189 -0.2570  2.1001 -1.5297
  636MOL0     H85822   4.582   2.600   7.194 -0.4168 -0.0600  0.6599
  636MOL0     H85823   4.621   2.474   7.308 -1.6938 -2.6313  1.6918
  636MOL0     H85824   4.077   2.513   7.036 -0.5043 -1.2803 -1.5443
  636MOL0     H85825   3.872   2.464   6.934  1.7108  0.5412 -0.4283
  636MOL0     H85826   3.705   2.136   6.950 -0.6916 -1.6144  0.2280
  636MOL0     H85827   3.682   2.118   7.130  2.0482  2.0278 -0.0204
  636MOL0     H85828   3.465   2.053   6.983 -0.6673  0.7070 -1.7195
  636MOL0     H85829   3.461   2.141   7.132  0.2826 -2.0802 -0.4962
  636MOL0     H85830   3.436   2.356   6.968  2.0863 -0.0037 -0.8293
  636MOL0     H85831   3.311   2.238   6.985 -0.6521 -1.5895 -2.7240
  636MOL0     H85832   3.496   2.192   6.741  1.2314  1.3658  0.3248
  636MOL0     H85833   3.341   2.132   6.779  1.3505 -0.8150 -2.3297
  636MOL0     H85834   3.445   2.415   6.705 -1.3209  1.6000 -2.2665
  636MOL0     H85835   3.293   2.407   6.778  0.3602 -1.8635  1.7393
  636MOL0     H85836   3.365   2.241   6.518  2.5689  3.2256 -1.0831
  636MOL0     H85837   3.205   2.262   6.598  0.1828  1.6361 -0.8146
  636MOL0     H85838   3.370   2.450   6.439  1.1655 -1.0592  0.8346
  636MOL0     H85839   3.277   2.513   6.571 -1.0886 -1.9633  1.7203
  636MOL0     H85840   3.145   2.546   6.384 -0.5348  0.2790  2.9075
  636MOL0     H85841   3.085   2.407   6.461 -0.1242 -1.4483 -1.3137
  636MOL0     H85842   3.725   2.275   7.294  0.3948  1.0430 -0.2805
  636MOL0     H85843   3.927   2.354   7.410 -0.3242 -0.9747 -1.0215
  636MOL0     H85844   4.160   2.613   7.519  0.6446 -0.0994  0.2662
  636MOL0     H85845   4.286   2.687   7.705  0.4590 -3.6669  1.9793
  636MOL0     H85846   6.076   2.274   8.483 -0.0190  0.0046  0.5334
  636MOL0     H85847   6.329   2.281   8.544  1.0192 -1.7596  1.0777
  636MOL0     H85848   6.718   1.900   8.507  0.9054 -0.0588  2.2991
  636MOL0     H85849   6.957   1.883   8.523 -1.3690 -1.9143 -0.8822
  636MOL0     H85850   7.203   2.089   8.248 -0.3452 -2.0158  0.2193
  636MOL0     H85851   7.259   2.185   8.383 -4.8114  1.6042 -1.6764
  636MOL0     H85852   7.315   1.895   8.322  0.2227 -0.8984  3.1713
  636MOL0     H85853   7.393   1.989   8.449  0.5900 -2.6413 -0.1549
  636MOL0     H85854   7.496   2.133   8.281 -0.6389 -0.2684  1.2097
  636MOL0     H85855   7.414   2.039   8.156  0.1180 -0.0225  0.5914
  636MOL0     H85856   7.541   1.833   8.219 -2.0627  1.3319 -1.5756
  636MOL0     H85857   7.630   1.921   8.345  0.7490  2.0964 -0.8271
  636MOL0     H85858   7.815   2.088   8.004  1.5204  0.6597  0.3145
  636MOL0     H85859   7.020   2.258   8.332  1.2386 -1.2911 -2.8294
  636MOL0     H85860   6.776   2.279   8.306 -0.4682 -0.1860  0.7661
  637MOL0     O85861   9.852   4.686   1.800  0.3978  0.1936  0.1473
  637MOL0     C85862   9.967   4.640   1.782 -0.0875 -0.2204  0.2089
  637MOL0     O85863  10.008   4.515   1.815  0.3275  0.5619 -0.9109
  637MOL0     C85864   9.915   4.436   1.888 -0.3804  0.3020 -0.2370
  637MOL0     C85865   9.916   4.451   2.030  0.5642  0.6419  0.9632
  637MOL0     C85866   9.808   4.381   2.102 -0.4448 -0.4800 -0.0377
  637MOL0     C85867   9.718   4.312   2.032  0.0148  1.0466 -0.0443
  637MOL0     O85868   9.595   4.274   2.074 -0.1560  0.4335 -1.1740
  637MOL0     C85869   9.550   4.285   2.208  0.2842  0.8167  0.4804
  637MOL0     C85870   9.403   4.258   2.203  0.4951  0.0091 -0.3371
  637MOL0     C85871   9.336   4.306   2.338 -0.5021  1.1641  0.5682
  637MOL0     C85872   9.195   4.237   2.347  0.2682 -0.0119  0.1718
  637MOL0     C85873   9.111   4.296   2.462  0.8343  0.6595 -0.5039
  637MOL0     C85874   9.174   4.282   2.601  0.0077  0.5438  0.0633
  637MOL0     C85875   9.179   4.136   2.657  0.7265  0.8087 -0.1635
  637MOL0     C85876   9.237   4.125   2.801 -0.2166 -0.0857  0.6000
  637MOL0     N85877   9.279   3.984   2.835 -0.1871 -0.7554  0.7843
  637MOL0     C85878   9.406   3.933   2.856  0.4467 -0.4693  0.2257
  637MOL0     C85879   9.390   3.803   2.874 -0.5935 -0.1903  0.0200
  637MOL0     C85880   9.512   3.717   2.882 -0.6748  0.2073  0.2292
  637MOL0     C85881   9.502   3.561   2.849 -0.6073 -0.8203 -0.2178
  637MOL0     C85882   9.466   3.541   2.702 -0.7551 -0.0201  0.2836
  637MOL0     C85883   9.473   3.390   2.659  0.2407  0.0659  0.1619
  637MOL0     O85884   9.408   3.287   2.745 -0.6036 -0.3892  0.3654
  637MOL0     C85885   9.271   3.311   2.755  0.2324  0.3094  0.5492
  637MOL0     C85886   9.199   3.288   2.875 -0.2088  0.0437 -0.8447
  637MOL0     C85887   9.056   3.311   2.881 -1.0036  0.2795 -0.2733
  637MOL0     C85888   9.004   3.288   3.021 -0.1919  0.3282  0.4566
  637MOL0     C85889   8.988   3.370   2.771  0.6677 -0.2449  0.9307
  637MOL0     C85890   8.840   3.414   2.770 -0.1467  0.4703 -0.2722
  637MOL0     O85891   8.763   3.374   2.875  0.5091  0.0784 -0.3480
  637MOL0     C85892   8.629   3.396   2.878  0.3198 -0.9793  0.7296
  637MOL0     C85893   8.532   3.354   2.784 -1.0205  0.5541 -0.2263
  637MOL0     C85894   8.395   3.392   2.801  0.8215  0.2647  0.3729
  637MOL0     C85895   8.341   3.454   2.915  0.3122  0.3235 -0.5664
  637MOL0     O85896   8.210   3.483   2.931  0.0155  0.2571 -0.7768
  637MOL0     C85897   8.128   3.492   2.815 -1.2011 -0.0584  0.5175
  637MOL0     C85898   7.983   3.527   2.840  0.1165 -0.0063 -0.1662
  637MOL0     C85899   7.920   3.430   2.937  0.1174 -0.1353  0.2226
  637MOL0     C85900   7.817   3.336   2.874  0.3096 -0.4620  0.3287
  637MOL0     C85901   7.691   3.408   2.818 -0.4706 -0.3119  0.1089
  637MOL0     C85902   7.558   3.327   2.835  0.5885 -0.7414  1.0132
  637MOL0     C85903   7.444   3.428   2.803  0.0281  0.8010  0.6600
  637MOL0     C85904   7.323   3.357   2.729  0.2929 -0.8620  0.2401
  637MOL0    Cl85905   7.196   3.477   2.709 -0.2976 -0.3051 -0.2656
  637MOL0     C85906   8.441   3.486   3.010 -0.4861 -0.2978 -0.3808
  637MOL0     C85907   8.575   3.461   2.986  0.4054 -0.3964 -0.0206
  637MOL0     O85908   8.801   3.492   2.684 -0.7732 -0.6594 -0.7540
  637MOL0     C85909   9.055   3.379   2.650 -0.4142 -0.0885  0.0594
  637MOL0     C85910   9.195   3.358   2.645  0.1011  0.6370  0.0729
  637MOL0     N85911   9.253   3.778   2.868 -0.1211 -0.0546  0.3093
  637MOL0     N85912   9.182   3.886   2.842  0.1730 -0.7947 -0.3659
  637MOL0     C85913   9.736   4.286   1.895  0.7177  0.2542  0.0177
  637MOL0     C85914   9.834   4.348   1.821  0.7381  0.0217  0.6542
  637MOL0     C85915  10.058   4.719   1.703  0.0534  0.6426 -0.4231
  637MOL0     C85916  10.050   4.860   1.714 -0.3417 -0.6859  0.1267
  637MOL0     C85917  10.142   4.945   1.636  1.0683  0.2910 -0.1806
  637MOL0     C85918  10.237   4.891   1.552  0.7012  0.0821 -0.6681
  637MOL0     O85919  10.320   4.968   1.474  0.1079 -0.0339 -0.4192
  637MOL0     C85920  10.319   5.105   1.489  0.8829 -0.3416 -0.4462
  637MOL0     C85921  10.429   5.164   1.394 -0.1816 -0.3641  0.2633
  637MOL0     C85922  10.571   5.138   1.434 -0.4156 -0.1198 -0.6940
  637MOL0     C85923  10.677   5.202   1.339 -0.8568 -0.8704 -0.5020
  637MOL0     C85924  10.808   5.170   1.398 -0.2091 -0.0989 -0.3484
  637MOL0     C85925  10.907   5.126   1.464  0.0905 -0.2873  0.5797
  637MOL0     C85926  10.258   4.751   1.553 -0.2248  0.5158 -1.2625
  637MOL0     C85927  10.167   4.669   1.629 -0.3204  0.2953 -0.6518
  637MOL0     H85928   9.977   4.518   2.089  2.3044  0.3228 -0.3797
  637MOL0     H85929   9.790   4.396   2.208 -1.1706  2.5298 -0.5010
  637MOL0     H85930   9.602   4.204   2.259  1.4095  0.6837 -0.8166
  637MOL0     H85931   9.574   4.388   2.236  0.8545  1.3456 -1.7235
  637MOL0     H85932   9.364   4.300   2.111  2.6391  2.5031 -0.2380
  637MOL0     H85933   9.388   4.150   2.203 -2.5921  0.0748  5.1471
  637MOL0     H85934   9.385   4.269   2.429 -2.2507 -0.1608  1.0331
  637MOL0     H85935   9.343   4.415   2.340  2.6046  1.1769 -2.3652
  637MOL0     H85936   9.145   4.271   2.257  4.0058  0.8204 -1.7997
  637MOL0     H85937   9.196   4.128   2.349 -2.0255 -0.0779 -0.1237
  637MOL0     H85938   9.100   4.404   2.446 -2.4160  0.5175  0.0427
  637MOL0     H85939   9.009   4.257   2.461  0.6026  1.2230 -2.6630
  637MOL0     H85940   9.274   4.328   2.601  0.2975  0.0403 -2.4818
  637MOL0     H85941   9.107   4.344   2.661  1.8635  0.6335  2.2293
  637MOL0     H85942   9.086   4.080   2.657 -0.3176  2.4031  2.0469
  637MOL0     H85943   9.250   4.092   2.586 -0.1312  0.4942 -0.8354
  637MOL0     H85944   9.163   4.156   2.875 -0.4731 -1.7804  1.0692
  637MOL0     H85945   9.327   4.184   2.818  1.9546 -3.2743  0.8336
  637MOL0     H85946   9.497   3.991   2.849  1.9394 -2.5350  1.6248
  637MOL0     H85947   9.586   3.750   2.809  0.3201 -2.7156 -0.1867
  637MOL0     H85948   9.551   3.719   2.984 -1.0763  1.2237  0.3813
  637MOL0     H85949   9.429   3.521   2.920  0.8117 -1.5347  0.8855
  637MOL0     H85950   9.592   3.507   2.880 -2.8523 -2.9561  3.1392
  637MOL0     H85951   9.531   3.597   2.635 -2.3078  1.7435  0.1746
  637MOL0     H85952   9.360   3.563   2.692 -1.4702 -3.3647 -0.8447
  637MOL0     H85953   9.580   3.368   2.664  0.0272 -0.9434  0.5519
  637MOL0     H85954   9.447   3.373   2.554 -0.9889  2.0869  0.0831
  637MOL0     H85955   9.259   3.264   2.962 -1.0622 -0.5463 -0.4007
  637MOL0     H85956   9.084   3.258   3.090  0.1702  0.6393  0.1758
  637MOL0     H85957   8.948   3.377   3.052  1.2073  1.7870 -1.0371
  637MOL0     H85958   8.935   3.204   3.009  2.1952 -1.7904  0.8533
  637MOL0     H85959   8.556   3.287   2.702  1.3278  1.5283 -0.4253
  637MOL0     H85960   8.330   3.361   2.719  0.6362 -0.4585  0.7870
  637MOL0     H85961   8.171   3.563   2.744 -1.1215 -1.3870 -0.8105
  637MOL0     H85962   8.135   3.396   2.763 -1.4378 -0.5560  1.3766
  637MOL0     H85963   7.961   3.630   2.869  1.2792 -0.3337  2.0795
  637MOL0     H85964   7.940   3.521   2.739  0.9350  0.4989 -0.5575
  637MOL0     H85965   7.866   3.479   3.019 -0.7948 -2.6946  1.2601
  637MOL0     H85966   8.001   3.373   2.985  0.8541  0.1977 -0.6121
  637MOL0     H85967   7.865   3.273   2.797  0.7544 -0.2443  0.4207
  637MOL0     H85968   7.785   3.263   2.948  0.6786 -1.7771 -0.7652
  637MOL0     H85969   7.716   3.441   2.716  1.4570 -2.1385 -0.0736
  637MOL0     H85970   7.676   3.501   2.874  1.9815 -0.0459  0.4032
  637MOL0     H85971   7.553   3.233   2.779 -2.7485 -0.2862  0.3194
  637MOL0     H85972   7.532   3.297   2.937 -1.8031  0.8076  0.9330
  637MOL0     H85973   7.489   3.503   2.738  1.1255  0.1282  0.6136
  637MOL0     H85974   7.394   3.475   2.888 -1.1303 -0.6175  0.8033
  637MOL0     H85975   7.288   3.266   2.780 -1.4867  0.5562  1.6740
  637MOL0     H85976   7.350   3.323   2.629  0.7943 -2.6869  0.9365
  637MOL0     H85977   8.434   3.543   3.102  1.4701 -1.6079  0.6383
  637MOL0     H85978   8.644   3.480   3.067 -1.6812  0.7514  1.5898
  637MOL0     H85979   9.008   3.409   2.557 -0.7755  1.5772  0.7556
  637MOL0     H85980   9.237   3.365   2.545  1.4408  0.6075  0.6215
  637MOL0     H85981   9.672   4.213   1.849 -1.1053  0.6837  1.7457
  637MOL0     H85982   9.855   4.342   1.715  2.9641 -1.3769  1.0947
  637MOL0     H85983   9.978   4.909   1.779 -0.2949 -0.9816  0.4008
  637MOL0     H85984  10.142   5.052   1.654 -0.9769  0.2232  0.4407
  637MOL0     H85985  10.221   5.145   1.464  1.3564  1.7180  0.7018
  637MOL0     H85986  10.344   5.123   1.595  1.5216 -1.9450 -0.3032
  637MOL0     H85987  10.418   5.273   1.388  2.4109 -0.0702 -0.5004
  637MOL0     H85988  10.418   5.120   1.294  0.1127 -2.3502  1.0522
  637MOL0     H85989  10.591   5.031   1.421 -0.9571 -0.2301 -0.6489
  637MOL0     H85990  10.588   5.155   1.540 -0.8613  0.8279 -0.7714
  637MOL0     H85991  10.660   5.310   1.349  2.3765 -0.4964  4.2049
  637MOL0     H85992  10.670   5.166   1.236  1.6125 -2.2403 -0.2679
  637MOL0     H85993  10.995   5.086   1.510 -0.6153 -1.5262  0.8951
  637MOL0     H85994  10.332   4.709   1.486  0.1143  1.1138 -1.2644
  637MOL0     H85995  10.189   4.564   1.611 -2.6988 -0.4489  0.3569
  638MOL0     O85996   3.322   6.203   5.771 -0.5201 -0.2498 -0.2706
  638MOL0     C85997   3.349   6.241   5.885 -1.5545 -0.2682  1.1636
  638MOL0     O85998   3.259   6.269   5.980 -0.0514 -0.7777 -0.6759
  638MOL0     C85999   3.130   6.261   5.939  0.0989  0.4981  0.3546
  638MOL0     C86000   3.060   6.376   5.914  0.0542 -0.4704  0.0114
  638MOL0     C86001   2.928   6.379   5.867 -0.0331  0.2731 -0.5152
  638MOL0     C86002   2.861   6.262   5.846  0.5608  0.0641 -0.4582
  638MOL0     O86003   2.733   6.270   5.797 -0.1193  0.3230  0.3438
  638MOL0     C86004   2.632   6.189   5.857  0.9971 -0.0142  0.3277
  638MOL0     C86005   2.494   6.218   5.788  0.1297 -0.3730  0.4118
  638MOL0     C86006   2.390   6.116   5.839 -0.0042  0.1629 -0.3921
  638MOL0     C86007   2.239   6.169   5.821 -0.4980  0.9846 -0.4288
  638MOL0     C86008   2.140   6.052   5.837 -0.1001 -0.7241 -0.2468
  638MOL0     C86009   1.999   6.107   5.827  0.0990  0.2288 -0.2784
  638MOL0     C86010   1.891   6.006   5.806 -0.7767  0.3262 -0.0875
  638MOL0     C86011   1.756   6.055   5.867 -0.0031  0.4742  0.3144
  638MOL0     N86012   1.636   5.994   5.803 -0.3508  0.3027  0.8355
  638MOL0     C86013   1.607   5.872   5.816 -0.3228  0.3999 -0.8600
  638MOL0     C86014   1.487   5.850   5.756  0.3405 -0.2434  0.0292
  638MOL0     C86015   1.424   5.715   5.733  0.9480  0.7707  0.2791
  638MOL0     C86016   1.353   5.658   5.850  0.7779  0.5981  0.5102
  638MOL0     C86017   1.328   5.513   5.818 -0.1689  0.4013 -0.5793
  638MOL0     C86018   1.241   5.453   5.928 -0.7983  0.1510  0.3166
  638MOL0     O86019   1.116   5.517   5.941  0.6615 -0.8519 -0.1521
  638MOL0     C86020   1.036   5.448   6.032  0.1882  0.0783  1.0875
  638MOL0     C86021   0.952   5.352   5.982 -0.4767 -0.1434 -0.0543
  638MOL0     C86022   0.867   5.277   6.069  0.3030 -0.2256 -0.2275
  638MOL0     C86023   0.783   5.163   6.010  0.1299 -0.7387 -0.3579
  638MOL0     C86024   0.871   5.312   6.208  0.1243 -0.0071  0.3494
  638MOL0     C86025   0.788   5.239   6.307 -0.1674 -0.6255 -0.0147
  638MOL0     O86026   0.673   5.181   6.263 -0.3005 -0.0375  0.3375
  638MOL0     C86027   0.587   5.131   6.359 -0.4100 -0.0638 -0.6076
  638MOL0     C86028   0.514   5.012   6.330 -0.1040 -0.6370  0.2236
  638MOL0     C86029   0.417   4.953   6.418 -1.1233 -0.2291  0.0690
  638MOL0     C86030   0.396   5.009   6.545  0.1002 -0.6987  0.0936
  638MOL0     O86031   0.301   4.952   6.622  0.8938  0.4415  0.2644
  638MOL0     C86032   0.257   5.012   6.738 -0.1808  0.3187  0.0920
  638MOL0     C86033   0.113   4.969   6.763  0.0957  0.1657  0.3244
  638MOL0     C86034   0.061   5.006   6.903  0.4181  0.2636  0.3819
  638MOL0     C86035   0.123   4.946   7.031 -0.7344 -0.4748  0.6438
  638MOL0     C86036   0.241   5.012   7.086  0.8474 -0.2784  0.1604
  638MOL0     C86037   0.280   4.923   7.210  0.2272 -0.1639  0.2622
  638MOL0     C86038   0.396   4.990   7.276 -1.7979  0.5211  0.0170
  638MOL0     C86039   0.526   4.947   7.213 -0.2571 -0.4295 -1.1513
  638MOL0    Cl86040   0.539   4.773   7.240 -0.0964 -0.3792  0.0354
  638MOL0     C86041   0.470   5.126   6.580 -0.3418 -0.2787  0.0229
  638MOL0     C86042   0.566   5.188   6.488  1.2829 -0.0703 -0.6024
  638MOL0     O86043   0.834   5.222   6.416 -0.1704 -0.2121 -0.5914
  638MOL0     C86044   0.956   5.420   6.256  0.0717  0.0853 -0.4200
  638MOL0     C86045   1.039   5.488   6.170 -0.6366  0.4560  0.2531
  638MOL0     N86046   1.452   5.968   5.694 -0.0798  0.0676  0.8791
  638MOL0     N86047   1.548   6.054   5.726 -0.3727 -0.4149 -0.1572
  638MOL0     C86048   2.918   6.136   5.887 -0.2365 -0.2930  0.5935
  638MOL0     C86049   3.055   6.137   5.928 -0.7386 -0.3433 -0.5898
  638MOL0     C86050   3.500   6.248   5.906  0.8643  0.3571  0.5626
  638MOL0     C86051   3.531   6.240   6.036  0.2891 -0.7637 -0.3241
  638MOL0     C86052   3.669   6.258   6.064 -0.0607 -0.8184 -0.0173
  638MOL0     C86053   3.765   6.266   5.958  0.0291 -0.6346 -0.3337
  638MOL0     O86054   3.894   6.292   5.975  0.3010 -0.1983 -0.6758
  638MOL0     C86055   3.941   6.321   6.108  0.2408 -0.3795  0.1843
  638MOL0     C86056   4.089   6.370   6.089 -0.8542  0.1965 -0.1344
  638MOL0     C86057   4.156   6.413   6.218 -0.2492  0.4785  0.0633
  638MOL0     C86058   4.305   6.421   6.205 -0.2188 -0.0045  0.0208
  638MOL0     C86059   4.349   6.526   6.116 -0.0860 -0.0562 -0.4327
  638MOL0     C86060   4.376   6.624   6.056  0.1203  0.2543 -0.0824
  638MOL0     C86061   3.722   6.272   5.824 -0.0398  0.9994 -0.6797
  638MOL0     C86062   3.586   6.259   5.798  0.5917 -0.2058 -0.3687
  638MOL0     H86063   3.120   6.466   5.927  1.4910 -1.4069  0.1497
  638MOL0     H86064   2.870   6.470   5.854 -2.2657 -1.1633 -1.3269
  638MOL0     H86065   2.654   6.082   5.851 -3.6019 -1.0674 -1.5841
  638MOL0     H86066   2.622   6.217   5.962 -1.3770  0.2178  0.0917
  638MOL0     H86067   2.461   6.319   5.811 -1.2016 -0.8016  0.4357
  638MOL0     H86068   2.514   6.206   5.681  0.6368 -0.7596  0.5436
  638MOL0     H86069   2.409   6.021   5.790  2.0765 -0.5791  1.6488
  638MOL0     H86070   2.403   6.095   5.946 -3.6329  0.2282  0.1658
  638MOL0     H86071   2.210   6.251   5.888  1.2953  2.0899 -0.9251
  638MOL0     H86072   2.228   6.215   5.722 -1.2762 -1.8508 -1.7580
  638MOL0     H86073   2.170   5.977   5.764  2.5435 -1.5413  1.5427
  638MOL0     H86074   2.156   6.008   5.936  0.6076  3.5359  1.7879
  638MOL0     H86075   1.991   6.162   5.922 -1.3892 -2.3142  1.1779
  638MOL0     H86076   1.979   6.173   5.742 -3.9845  0.0536  0.3165
  638MOL0     H86077   1.877   6.003   5.698 -2.7784  1.3311  0.0973
  638MOL0     H86078   1.919   5.905   5.838 -1.9620 -0.0710 -0.2637
  638MOL0     H86079   1.754   6.164   5.864  2.0475  0.5568  1.0039
  638MOL0     H86080   1.748   6.028   5.973 -2.6876  2.6265  0.7738
  638MOL0     H86081   1.664   5.791   5.861  1.6379  2.0588 -0.2231
  638MOL0     H86082   1.354   5.730   5.650  1.4697 -1.0688 -0.5283
  638MOL0     H86083   1.493   5.644   5.687 -2.3689 -0.5692 -3.1738
  638MOL0     H86084   1.260   5.715   5.854  1.0545  1.3642 -2.4319
  638MOL0     H86085   1.410   5.670   5.943 -0.9356  0.5170  1.6190
  638MOL0     H86086   1.427   5.467   5.817  0.6406  2.0612 -0.7967
  638MOL0     H86087   1.286   5.507   5.717  0.9849  0.6734 -1.0930
  638MOL0     H86088   1.282   5.450   6.030  0.9031  2.3917 -0.2363
  638MOL0     H86089   1.218   5.351   5.896 -0.3442 -1.2276  3.8680
  638MOL0     H86090   0.962   5.335   5.875 -1.2312  2.9410 -0.7181
  638MOL0     H86091   0.831   5.143   5.913 -0.6320  3.7847 -1.8739
  638MOL0     H86092   0.782   5.077   6.079  0.4328 -0.3338  0.1582
  638MOL0     H86093   0.690   5.209   5.977  0.2117  0.5191  1.0727
  638MOL0     H86094   0.530   4.957   6.238 -0.0469  0.3617 -0.3743
  638MOL0     H86095   0.370   4.860   6.388  1.3890 -0.8285 -2.3603
  638MOL0     H86096   0.329   4.971   6.808  0.8421  0.6401 -0.7411
  638MOL0     H86097   0.269   5.121   6.733  1.4457  0.1910  0.7211
  638MOL0     H86098   0.050   5.022   6.691  0.6698 -2.7516 -2.5770
  638MOL0     H86099   0.084   4.866   6.739 -0.7254  0.5937 -0.5975
  638MOL0     H86100  -0.044   4.975   6.910 -0.2732  2.7526  3.6054
  638MOL0     H86101   0.053   5.113   6.920 -1.1894  0.3353 -0.5974
  638MOL0     H86102   0.040   4.933   7.101 -1.4593  0.5760  0.0058
  638MOL0     H86103   0.154   4.844   7.008 -0.4768 -0.2732  0.0825
  638MOL0     H86104   0.211   5.110   7.125 -1.7972 -0.9021 -0.0760
  638MOL0     H86105   0.318   5.019   7.009  0.5353  0.1016 -0.1216
  638MOL0     H86106   0.193   4.916   7.276  0.0043 -1.6249 -0.1561
  638MOL0     H86107   0.298   4.822   7.171 -1.7456 -0.5107  0.1306
  638MOL0     H86108   0.402   4.972   7.384 -0.9828 -2.3739 -0.4168
  638MOL0     H86109   0.383   5.096   7.254  0.9338  0.9750  0.2334
  638MOL0     H86110   0.614   4.996   7.256  0.7961 -1.9451 -1.5408
  638MOL0     H86111   0.530   4.969   7.106  0.3570  2.4081 -0.6291
  638MOL0     H86112   0.451   5.178   6.673 -0.8127 -1.3386  0.5432
  638MOL0     H86113   0.618   5.275   6.527  1.7697 -0.2584 -0.8233
  638MOL0     H86114   0.950   5.440   6.363 -1.7864  1.3755 -0.7061
  638MOL0     H86115   1.115   5.562   6.196 -0.3772 -0.2435  1.6024
  638MOL0     H86116   2.870   6.039   5.876  0.1322 -0.2977 -1.2618
  638MOL0     H86117   3.101   6.043   5.959 -0.5558  0.4557  1.7660
  638MOL0     H86118   3.459   6.221   6.114 -4.3683  1.7541 -3.5213
  638MOL0     H86119   3.694   6.262   6.169 -1.0336 -4.2394  0.4607
  638MOL0     H86120   3.875   6.391   6.159 -2.1986 -0.7919 -2.1796
  638MOL0     H86121   3.936   6.221   6.152 -0.7159  1.0737  3.7601
  638MOL0     H86122   4.086   6.456   6.021 -1.3173  1.8761  1.8928
  638MOL0     H86123   4.149   6.299   6.032 -1.3830 -0.4734  0.1334
  638MOL0     H86124   4.137   6.347   6.303 -4.1076  0.9718 -0.2419
  638MOL0     H86125   4.118   6.510   6.253 -1.6574 -0.7255  2.0184
  638MOL0     H86126   4.358   6.338   6.157  1.6464  1.0498  0.1615
  638MOL0     H86127   4.338   6.446   6.306 -5.1686  3.8059  1.0842
  638MOL0     H86128   4.409   6.705   5.994  0.6290 -0.7705 -1.1690
  638MOL0     H86129   3.798   6.283   5.748 -0.0395  0.2441 -0.7962
  638MOL0     H86130   3.554   6.248   5.695 -0.2579 -1.4356 -0.0013
  639MOL0     O86131   3.420   9.427   8.966  0.4400  0.5182  0.4691
  639MOL0     C86132   3.466   9.521   8.905  0.0848  0.3038 -0.0300
  639MOL0     O86133   3.409   9.641   8.873  0.6497  0.0531 -0.4617
  639MOL0     C86134   3.270   9.673   8.873 -0.3202 -1.1291  0.1903
  639MOL0     C86135   3.235   9.781   8.792 -0.0339  0.0404 -0.0772
  639MOL0     C86136   3.102   9.833   8.793  0.2178 -0.0167  0.1613
  639MOL0     C86137   3.013   9.772   8.877  1.1287 -0.4434  0.6649
  639MOL0     O86138   2.883   9.826   8.876  0.3719  0.2143 -0.0206
  639MOL0     C86139   2.762   9.746   8.895 -0.2280  0.3231  0.6017
  639MOL0     C86140   2.647   9.830   8.851  0.4092  0.0313 -0.3887
  639MOL0     C86141   2.520   9.820   8.937 -0.1925 -0.4086  0.6984
  639MOL0     C86142   2.397   9.888   8.882 -0.6635 -0.7174 -0.0900
  639MOL0     C86143   2.283   9.870   8.987 -0.1247 -0.2232  0.4003
  639MOL0     C86144   2.139   9.912   8.942 -0.4593 -0.3809  0.0397
  639MOL0     C86145   2.019   9.865   9.021  0.7745  0.2865 -0.2603
  639MOL0     C86146   1.888   9.903   8.950  0.2545 -0.0167  0.0773
  639MOL0     N86147   1.765   9.866   9.026  0.3051 -0.5462  0.6552
  639MOL0     C86148   1.749   9.891   9.161 -0.0222  0.3880 -0.9460
  639MOL0     C86149   1.661   9.803   9.209  0.7033  0.4328  0.0907
  639MOL0     C86150   1.634   9.767   9.357  0.3599 -0.4309  0.5722
  639MOL0     C86151   1.512   9.676   9.398 -0.4762  0.4060 -0.4291
  639MOL0     C86152   1.498   9.618   9.541 -0.6153  0.3919  0.4033
  639MOL0     C86153   1.349   9.558   9.563  0.1703 -0.1432 -0.3316
  639MOL0     O86154   1.337   9.519   9.706 -0.2122 -0.2312 -0.9016
  639MOL0     C86155   1.211   9.512   9.762 -0.6178 -0.7480 -0.0311
  639MOL0     C86156   1.095   9.533   9.688  0.4463 -0.0275  0.5239
  639MOL0     C86157   0.967   9.525   9.743  0.5937  0.7538  1.2139
  639MOL0     C86158   0.849   9.546   9.650 -0.4969 -0.0713 -0.0962
  639MOL0     C86159   0.955   9.494   9.883  0.0705  0.1233 -0.0034
  639MOL0     C86160   0.827   9.454   9.950 -0.2157  0.8953 -0.1974
  639MOL0     O86161   0.831   9.460  10.086 -0.1805 -0.7796  0.1507
  639MOL0     C86162   0.717   9.442  10.151 -1.0890 -0.3772 -1.1802
  639MOL0     C86163   0.690   9.308  10.186  0.7595  0.0024 -0.2788
  639MOL0     C86164   0.576   9.289  10.263 -0.2094  0.4767  0.2367
  639MOL0     C86165   0.490   9.394  10.303 -0.5193  0.1456  1.0723
  639MOL0     O86166   0.380   9.362  10.378 -0.1201  0.0862 -0.7556
  639MOL0     C86167   0.274   9.454  10.384  0.1672  0.0973 -0.2883
  639MOL0     C86168   0.153   9.388  10.439  0.0755  0.4706  0.2392
  639MOL0     C86169   0.047   9.485  10.493  0.5320 -1.4951 -0.6680
  639MOL0     C86170  -0.090   9.423  10.542  0.3506  0.2727  0.5737
  639MOL0     C86171  -0.177   9.547  10.567  0.7381  0.6758  1.0986
  639MOL0     C86172  -0.325   9.503  10.579  0.0430  0.8644 -0.1567
  639MOL0     C86173  -0.405   9.610  10.653  0.0804  0.5169  0.7316
  639MOL0     C86174  -0.552   9.572  10.693 -0.0888 -0.1724 -0.3140
  639MOL0    Cl86175  -0.634   9.721  10.768  0.1559  0.4557  0.3988
  639MOL0     C86176   0.529   9.529  10.282 -0.4047  0.7006  0.4407
  639MOL0     C86177   0.642   9.547  10.206 -0.8089 -0.5900 -0.7799
  639MOL0     O86178   0.728   9.436   9.883  0.4711 -0.2109  0.3629
  639MOL0     C86179   1.074   9.472   9.955  0.2813  0.0742  0.1404
  639MOL0     C86180   1.199   9.483   9.894  0.7871  0.0862 -0.4436
  639MOL0     N86181   1.612   9.730   9.095 -0.0890 -0.1936 -1.1097
  639MOL0     N86182   1.678   9.774   8.987  0.8118  0.3186 -0.2676
  639MOL0     C86183   3.044   9.662   8.948  0.5637 -0.2357 -0.6089
  639MOL0     C86184   3.169   9.606   8.946  0.0141  0.4679  0.3557
  639MOL0     C86185   3.611   9.517   8.888  0.0026 -0.8379 -0.5489
  639MOL0     C86186   3.695   9.418   8.943  0.9847  0.6982  0.2297
  639MOL0     C86187   3.832   9.406   8.935 -0.1088 -0.2581  0.3748
  639MOL0     C86188   3.908   9.502   8.871 -0.4348 -0.4248  0.6636
  639MOL0     O86189   4.050   9.483   8.862  0.6522 -0.3089 -0.3332
  639MOL0     C86190   4.131   9.594   8.856 -0.6961 -0.3441  0.8273
  639MOL0     C86191   4.256   9.560   8.788 -0.2932  0.0020  0.3897
  639MOL0     C86192   4.346   9.466   8.864 -0.9562 -0.2123 -0.8411
  639MOL0     C86193   4.492   9.460   8.789  0.0035  0.6582 -0.2117
  639MOL0     C86194   4.476   9.402   8.653 -0.2723  0.7427 -0.2453
  639MOL0     C86195   4.450   9.367   8.531 -0.2487 -0.5022 -0.4814
  639MOL0     C86196   3.830   9.615   8.818 -0.7653  0.5347 -0.6081
  639MOL0     C86197   3.690   9.620   8.829  0.7817 -0.5805 -0.9425
  639MOL0     H86198   3.313   9.838   8.741  0.5269 -0.4923  0.1743
  639MOL0     H86199   3.056   9.919   8.746 -3.9777 -2.4689 -0.7472
  639MOL0     H86200   2.769   9.659   8.829 -1.8628  0.5976  0.0259
  639MOL0     H86201   2.748   9.707   8.996 -1.1539 -0.2644  0.2639
  639MOL0     H86202   2.685   9.933   8.852 -2.7337  1.3103 -0.4298
  639MOL0     H86203   2.621   9.809   8.747  0.1250 -2.9933  0.2081
  639MOL0     H86204   2.493   9.715   8.949  2.8218 -1.3857 -0.2525
  639MOL0     H86205   2.557   9.869   9.028  1.9156  2.1665 -1.3727
  639MOL0     H86206   2.403   9.995   8.858  0.5308  0.1833  3.5414
  639MOL0     H86207   2.360   9.843   8.789 -1.1975 -0.8563  0.1852
  639MOL0     H86208   2.276   9.764   9.010  0.1586 -0.0385  1.3895
  639MOL0     H86209   2.314   9.920   9.079  2.0189  1.5965 -1.1934
  639MOL0     H86210   2.141  10.021   8.948  1.1869 -0.4301  1.3622
  639MOL0     H86211   2.133   9.882   8.837  1.0785 -2.1735  0.4173
  639MOL0     H86212   2.028   9.757   9.038 -2.1812  0.1112  0.8711
  639MOL0     H86213   2.009   9.914   9.119 -0.6918  0.2789 -0.3836
  639MOL0     H86214   1.871   9.856   8.853  0.1561  3.9097 -1.9974
  639MOL0     H86215   1.885  10.010   8.925  0.9832 -0.0536 -0.2075
  639MOL0     H86216   1.815   9.962   9.209  1.2074  1.0534 -3.4363
  639MOL0     H86217   1.726   9.719   9.391  0.2408 -1.4914 -0.5327
  639MOL0     H86218   1.624   9.866   9.403  0.9926  2.0034 -3.9366
  639MOL0     H86219   1.511   9.584   9.337  1.0601 -0.1247  0.2976
  639MOL0     H86220   1.420   9.732   9.382 -0.2866  0.7229 -0.4071
  639MOL0     H86221   1.531   9.687   9.619  2.3859  0.4697 -0.8367
  639MOL0     H86222   1.563   9.532   9.556 -1.7518 -0.8138 -1.2269
  639MOL0     H86223   1.337   9.473   9.496  1.0985  0.9180 -1.9163
  639MOL0     H86224   1.271   9.626   9.526 -0.5256 -1.1255 -0.6942
  639MOL0     H86225   1.082   9.561   9.584 -3.4028  1.9908  1.3515
  639MOL0     H86226   0.892   9.613   9.576 -0.1247  0.0394  0.2184
  639MOL0     H86227   0.836   9.447   9.605  0.5318  0.1821 -0.9621
  639MOL0     H86228   0.756   9.587   9.692 -0.5571 -2.3048  2.2291
  639MOL0     H86229   0.760   9.230  10.161  3.1031  0.9964  2.6079
  639MOL0     H86230   0.540   9.189  10.287 -1.3274  0.7210 -0.3770
  639MOL0     H86231   0.306   9.537  10.446  3.2232  0.6793 -2.4146
  639MOL0     H86232   0.264   9.486  10.280  0.3721 -0.3256 -0.4425
  639MOL0     H86233   0.108   9.321  10.365 -0.1680  1.8084 -0.8666
  639MOL0     H86234   0.185   9.338  10.531 -0.2090  2.9874  1.8133
  639MOL0     H86235   0.032   9.559  10.414  0.2159  0.9846  1.5849
  639MOL0     H86236   0.083   9.547  10.575  1.3216 -2.5396 -0.1900
  639MOL0     H86237  -0.139   9.364  10.464  1.2358 -0.1661  0.3402
  639MOL0     H86238  -0.074   9.373  10.638 -2.0676 -0.2060  0.8022
  639MOL0     H86239  -0.169   9.615  10.482  0.3687 -0.3184  0.2552
  639MOL0     H86240  -0.137   9.602  10.653 -2.7247  0.9168  2.7327
  639MOL0     H86241  -0.356   9.478  10.478  2.8887  0.5295 -1.0454
  639MOL0     H86242  -0.328   9.410  10.637 -1.1052  2.2235  2.0888
  639MOL0     H86243  -0.406   9.702  10.596  1.8327  0.3763  0.4248
  639MOL0     H86244  -0.355   9.630  10.748  1.3501 -0.1148  0.2172
  639MOL0     H86245  -0.547   9.496  10.772 -2.1313  2.9526  3.1543
  639MOL0     H86246  -0.606   9.525  10.610 -0.1455 -2.3163  0.8630
  639MOL0     H86247   0.471   9.618  10.305  0.8207  1.5204  0.4771
  639MOL0     H86248   0.672   9.650  10.187  0.7073 -0.3579  2.2456
  639MOL0     H86249   1.072   9.444  10.060 -0.0872 -0.5142 -0.0176
  639MOL0     H86250   1.287   9.461   9.953  0.6552  0.7262  0.0031
  639MOL0     H86251   2.963   9.631   9.013  1.4316 -0.9013  0.1917
  639MOL0     H86252   3.188   9.515   9.001 -1.5629  0.5731  1.1404
  639MOL0     H86253   3.642   9.339   8.996 -0.4187  2.1563  1.0662
  639MOL0     H86254   3.891   9.333   8.990  0.9098  1.4376  1.6313
  639MOL0     H86255   4.087   9.666   8.786  0.8002 -2.7161 -2.8806
  639MOL0     H86256   4.129   9.637   8.956 -3.4316  0.7874  0.3805
  639MOL0     H86257   4.314   9.650   8.768  0.5887  0.2583  3.5878
  639MOL0     H86258   4.235   9.513   8.691 -1.0152  0.9926  0.0497
  639MOL0     H86259   4.300   9.368   8.880 -1.2450  0.3035  2.0307
  639MOL0     H86260   4.371   9.518   8.957 -1.6735 -1.5572  0.1257
  639MOL0     H86261   4.560   9.393   8.841 -0.5725  1.1156  1.1701
  639MOL0     H86262   4.529   9.563   8.793  1.6184  0.0596  2.4499
  639MOL0     H86263   4.432   9.331   8.432  2.9524  1.1672 -1.8439
  639MOL0     H86264   3.886   9.690   8.763  1.2425 -1.4909 -1.4439
  639MOL0     H86265   3.634   9.703   8.788 -0.4132 -1.2474 -0.7257
  640MOL0     O86266   0.751   3.046  10.299 -0.1893  0.6465 -0.6265
  640MOL0     C86267   0.858   2.985  10.287  0.7796 -0.1674 -0.6589
  640MOL0     O86268   0.899   2.907  10.181  0.0920 -0.4304 -0.7471
  640MOL0     C86269   0.817   2.868  10.076  1.0502  0.6775 -0.2378
  640MOL0     C86270   0.875   2.763   9.994 -0.6463 -0.5992  0.2138
  640MOL0     C86271   0.814   2.716   9.873  0.1150  0.6806 -0.4320
  640MOL0     C86272   0.698   2.778   9.830 -0.0906 -0.2775 -0.0497
  640MOL0     O86273   0.638   2.717   9.729  0.1296 -0.2657 -0.1084
  640MOL0     C86274   0.504   2.767   9.701 -0.0012  0.4994  0.1462
  640MOL0     C86275   0.473   2.698   9.576 -0.7082 -0.6569  0.7731
  640MOL0     C86276   0.319   2.673   9.570 -0.5936  0.1612  0.5386
  640MOL0     C86277   0.284   2.624   9.434  0.9062  0.0075  0.6514
  640MOL0     C86278   0.137   2.609   9.405  0.9672 -0.1853  0.7037
  640MOL0     C86279   0.114   2.604   9.251 -0.4739 -0.1143  0.0922
  640MOL0     C86280  -0.036   2.611   9.208 -0.9543 -0.0043 -0.2058
  640MOL0     C86281  -0.110   2.749   9.219  1.3285 -0.2973  0.7934
  640MOL0     N86282  -0.031   2.852   9.143  0.2603  0.5327 -0.8440
  640MOL0     C86283   0.000   2.861   9.009 -0.0770 -0.1670  0.0114
  640MOL0     C86284   0.020   2.989   8.990  0.1780  0.3148  0.3842
  640MOL0     C86285   0.056   3.055   8.862  0.0846  0.6930 -1.1072
  640MOL0     C86286   0.206   3.025   8.843 -1.5116  0.0020 -0.5645
  640MOL0     C86287   0.252   3.112   8.726  0.0514 -0.4156 -0.1362
  640MOL0     C86288   0.394   3.073   8.687  0.2188 -0.7836  0.2880
  640MOL0     O86289   0.429   3.155   8.575  0.0993 -0.5732  0.4527
  640MOL0     C86290   0.557   3.158   8.543 -0.9036 -0.2070 -0.1469
  640MOL0     C86291   0.656   3.178   8.634 -0.0849  0.0295  1.0505
  640MOL0     C86292   0.791   3.167   8.598  0.0656  0.0643 -0.5657
  640MOL0     C86293   0.892   3.146   8.708  0.5967 -0.0637 -0.1385
  640MOL0     C86294   0.826   3.170   8.456 -0.1006 -0.2551 -0.5700
  640MOL0     C86295   0.961   3.162   8.391 -0.7635 -0.0512 -0.3019
  640MOL0     O86296   1.074   3.158   8.472  0.2222 -0.2867 -0.6328
  640MOL0     C86297   1.206   3.146   8.440 -0.0744  0.1854 -0.4564
  640MOL0     C86298   1.308   3.166   8.539 -0.5115  0.3414  0.2214
  640MOL0     C86299   1.443   3.126   8.520 -0.0170  0.0521 -0.4992
  640MOL0     C86300   1.491   3.079   8.391 -0.2073 -0.5888  0.0441
  640MOL0     O86301   1.623   3.046   8.384 -0.3614 -0.1530  0.8957
  640MOL0     C86302   1.660   2.947   8.280 -0.9424  1.3214 -0.0073
  640MOL0     C86303   1.795   2.892   8.316  0.1511  0.3235  0.3765
  640MOL0     C86304   1.910   2.987   8.309 -0.5566  0.1256  0.2164
  640MOL0     C86305   2.046   2.906   8.320 -0.3842  0.5265 -0.5365
  640MOL0     C86306   2.169   3.000   8.283  0.8237  0.1619 -0.2634
  640MOL0     C86307   2.306   2.935   8.254  0.0047 -0.2849 -0.1047
  640MOL0     C86308   2.432   3.027   8.262  0.1849  0.0008  0.1898
  640MOL0     C86309   2.424   3.118   8.138  0.3570 -0.4920 -0.3962
  640MOL0    Cl86310   2.576   3.201   8.121 -0.4003 -0.0118  0.3134
  640MOL0     C86311   1.395   3.075   8.288  0.2928 -0.4389 -0.4487
  640MOL0     C86312   1.255   3.102   8.314  0.4159 -0.0245 -0.2798
  640MOL0     O86313   0.964   3.157   8.268  0.7405 -0.5316  0.1753
  640MOL0     C86314   0.718   3.167   8.371 -0.2176  0.4204 -0.0083
  640MOL0     C86315   0.586   3.158   8.409  0.0520 -0.7000  0.1149
  640MOL0     N86316   0.027   3.051   9.112 -0.3164 -0.0772  0.0907
  640MOL0     N86317   0.001   2.970   9.205  0.1571  0.1370  0.4038
  640MOL0     C86318   0.644   2.883   9.911 -0.0793 -0.3496  0.5386
  640MOL0     C86319   0.701   2.931  10.026 -0.3400 -0.4411 -0.4241
  640MOL0     C86320   0.951   3.020  10.395  0.4912  0.2907 -0.1796
  640MOL0     C86321   0.918   3.113  10.493 -0.0568 -0.3265  0.5844
  640MOL0     C86322   1.005   3.143  10.594 -0.1347 -0.1474 -0.7709
  640MOL0     C86323   1.131   3.095  10.598  0.3635 -0.3393  0.2840
  640MOL0     O86324   1.210   3.125  10.708  0.3528  0.0842 -0.4470
  640MOL0     C86325   1.346   3.076  10.729  0.5914  0.4560  0.0715
  640MOL0     C86326   1.434   3.171  10.808  0.7409  0.2241  0.7972
  640MOL0     C86327   1.576   3.119  10.807  0.2573 -0.7978 -1.0500
  640MOL0     C86328   1.655   3.211  10.889 -0.7722  0.5071 -0.3728
  640MOL0     C86329   1.790   3.170  10.865 -0.9725  0.1160  0.0309
  640MOL0     C86330   1.905   3.140  10.874  0.3335 -0.2211  0.4262
  640MOL0     C86331   1.172   3.001  10.506 -1.2245  0.0980  1.1292
  640MOL0     C86332   1.077   2.968  10.403 -0.2358  0.2610  0.1187
  640MOL0     H86333   0.968   2.715  10.020  1.6024  2.8563 -0.7919
  640MOL0     H86334   0.864   2.634   9.822 -0.2016  0.1297  0.1323
  640MOL0     H86335   0.434   2.736   9.779  2.8107 -0.7734  2.3066
  640MOL0     H86336   0.491   2.873   9.677 -1.0899  0.3942  0.1920
  640MOL0     H86337   0.516   2.765   9.501 -0.9411  2.3221  3.1160
  640MOL0     H86338   0.524   2.603   9.555 -0.8854 -1.1606  2.4415
  640MOL0     H86339   0.289   2.601   9.646  0.9795 -0.9477  0.1470
  640MOL0     H86340   0.273   2.771   9.586  1.3336  1.3979 -0.9451
  640MOL0     H86341   0.327   2.705   9.373 -1.1464  2.3127  2.0740
  640MOL0     H86342   0.331   2.528   9.410 -0.4474 -0.0676 -1.9542
  640MOL0     H86343   0.096   2.516   9.444  0.7856 -1.3671 -2.0531
  640MOL0     H86344   0.086   2.701   9.436  0.6048  0.3697 -1.3823
  640MOL0     H86345   0.171   2.679   9.196  0.0894  0.0357  0.8571
  640MOL0     H86346   0.151   2.506   9.218 -0.7323 -0.2945  0.3291
  640MOL0     H86347  -0.031   2.586   9.102  0.8882  2.5819 -0.8369
  640MOL0     H86348  -0.095   2.538   9.265  0.0331 -0.5795  0.0919
  640MOL0     H86349  -0.129   2.769   9.325 -1.2939 -1.3896  0.6208
  640MOL0     H86350  -0.205   2.733   9.167  1.1844  0.2083  0.8967
  640MOL0     H86351  -0.005   2.779   8.938  0.8419 -0.1711 -0.0569
  640MOL0     H86352  -0.005   3.014   8.781  0.6085 -1.5261 -0.4482
  640MOL0     H86353   0.049   3.164   8.856  3.1551  1.1250  0.6305
  640MOL0     H86354   0.218   2.918   8.823 -0.9099  0.0547 -0.5012
  640MOL0     H86355   0.276   3.051   8.924 -1.5361 -2.2523  0.2352
  640MOL0     H86356   0.256   3.218   8.753 -0.1504 -0.6421  0.8187
  640MOL0     H86357   0.194   3.090   8.635  1.6467 -2.5808 -0.7155
  640MOL0     H86358   0.401   2.968   8.658  1.0324 -0.6580  0.0097
  640MOL0     H86359   0.455   3.086   8.776 -1.8357 -1.9416  1.9433
  640MOL0     H86360   0.626   3.200   8.736  1.7073  0.4155  1.5273
  640MOL0     H86361   0.988   3.196   8.697  0.3920  0.8255  1.7381
  640MOL0     H86362   0.846   3.180   8.801  0.9981  2.4463 -0.7733
  640MOL0     H86363   0.904   3.038   8.719  0.4885 -0.1474 -0.8010
  640MOL0     H86364   1.284   3.203   8.638  0.2110 -1.2081  1.0206
  640MOL0     H86365   1.521   3.130   8.595 -2.0455 -2.2081  1.9114
  640MOL0     H86366   1.586   2.867   8.291  0.7103 -0.1508  0.8659
  640MOL0     H86367   1.654   2.999   8.184 -1.4877  1.1649 -0.0645
  640MOL0     H86368   1.798   2.850   8.417 -0.7766 -1.1792 -0.1864
  640MOL0     H86369   1.817   2.806   8.253  0.5121  1.2055 -0.7368
  640MOL0     H86370   1.913   3.058   8.392 -0.2981  0.3097  0.0484
  640MOL0     H86371   1.909   3.053   8.222  0.4057  0.4428  0.4361
  640MOL0     H86372   2.051   2.864   8.421 -0.6557  2.2914  0.2548
  640MOL0     H86373   2.040   2.819   8.254 -2.3376 -1.4887  2.0780
  640MOL0     H86374   2.179   3.072   8.364  1.6162 -0.1183 -0.1074
  640MOL0     H86375   2.133   3.043   8.188  0.7831 -1.5070 -1.0367
  640MOL0     H86376   2.323   2.867   8.338 -2.6877 -0.8060  0.0976
  640MOL0     H86377   2.307   2.882   8.158 -1.8801  0.7414 -0.7279
  640MOL0     H86378   2.527   2.972   8.264  0.6881  0.8417  2.2055
  640MOL0     H86379   2.431   3.087   8.354  0.6179  0.1960  0.0716
  640MOL0     H86380   2.349   3.196   8.156  1.8555  0.4801  2.2709
  640MOL0     H86381   2.390   3.057   8.054 -1.4121 -0.7462  0.4484
  640MOL0     H86382   1.411   3.041   8.186 -2.0794 -1.7042 -0.4809
  640MOL0     H86383   1.191   3.072   8.232 -0.0396  0.4653 -0.1107
  640MOL0     H86384   0.728   3.164   8.263 -0.8421  0.3946 -0.0681
  640MOL0     H86385   0.508   3.154   8.334 -0.2264  2.3101  0.1469
  640MOL0     H86386   0.547   2.925   9.884  0.2359 -0.4901 -0.8847
  640MOL0     H86387   0.655   3.009  10.085  0.2942 -0.4952  0.1457
  640MOL0     H86388   0.824   3.165  10.479  1.2925  2.1295 -0.1676
  640MOL0     H86389   0.981   3.212  10.674  0.3857 -0.5054 -0.2949
  640MOL0     H86390   1.338   2.986  10.791 -2.9088  1.2307  0.9847
  640MOL0     H86391   1.395   3.055  10.634  0.6954  1.5350 -0.1195
  640MOL0     H86392   1.403   3.175  10.913 -1.4546 -0.4558  0.2228
  640MOL0     H86393   1.420   3.272  10.768 -0.8664  0.5543  2.0696
  640MOL0     H86394   1.617   3.110  10.706  0.8260 -3.4093 -0.6541
  640MOL0     H86395   1.583   3.020  10.852  0.6442  0.0580  0.9092
  640MOL0     H86396   1.635   3.180  10.992  0.3097  1.5560  0.1669
  640MOL0     H86397   1.634   3.318  10.882 -0.6942  0.4954 -0.8046
  640MOL0     H86398   2.006   3.109  10.889  0.7093  1.5559  1.9411
  640MOL0     H86399   1.271   2.958  10.492 -0.3284  2.8284 -1.9490
  640MOL0     H86400   1.114   2.898  10.329  0.6396  0.8702 -0.0352
  641MOL0     O86401   2.252   4.322   3.463  0.0859 -0.2654 -0.5816
  641MOL0     C86402   2.256   4.233   3.379 -0.0587  0.6393 -0.1350
  641MOL0     O86403   2.155   4.183   3.308  0.2905 -1.1717  0.3092
  641MOL0     C86404   2.027   4.238   3.310 -0.1141  0.3543 -0.5271
  641MOL0     C86405   1.934   4.189   3.403 -0.2828  0.6831 -0.7449
  641MOL0     C86406   1.805   4.245   3.415 -0.9618 -0.2655 -0.8141
  641MOL0     C86407   1.766   4.345   3.331  0.1251  0.1589 -0.0505
  641MOL0     O86408   1.640   4.383   3.340 -0.4570 -0.1507 -0.0918
  641MOL0     C86409   1.572   4.443   3.225 -0.4261  0.6542  0.2507
  641MOL0     C86410   1.432   4.481   3.275  0.7255  0.3204  0.4323
  641MOL0     C86411   1.313   4.453   3.178 -0.8193 -0.0021 -0.0390
  641MOL0     C86412   1.191   4.496   3.253  0.6921 -0.3936  0.0832
  641MOL0     C86413   1.086   4.542   3.148  0.0165 -0.6590  0.0541
  641MOL0     C86414   0.937   4.558   3.209 -0.3466  0.1771 -0.2180
  641MOL0     C86415   0.833   4.604   3.114  0.3430 -0.3552 -0.0780
  641MOL0     C86416   0.704   4.626   3.179 -0.1718 -0.0443  0.2612
  641MOL0     N86417   0.611   4.683   3.081  0.7302  0.5778 -0.0546
  641MOL0     C86418   0.578   4.811   3.067  0.6723 -0.0937  0.6383
  641MOL0     C86419   0.465   4.812   2.991  0.4986 -0.1505 -0.0118
  641MOL0     C86420   0.396   4.937   2.941  0.5470 -0.0226  1.1660
  641MOL0     C86421   0.246   4.936   2.968  0.7584 -0.5730  0.7380
  641MOL0     C86422   0.176   4.843   2.861  0.0773 -0.0316 -0.7446
  641MOL0     C86423   0.027   4.863   2.862 -0.4562 -0.6718 -0.0051
  641MOL0     O86424  -0.019   4.757   2.770  0.3037 -0.5342  0.3627
  641MOL0     C86425  -0.132   4.789   2.701  1.7303  0.4555 -0.0357
  641MOL0     C86426  -0.141   4.796   2.562 -0.6204  1.0380  0.3516
  641MOL0     C86427  -0.265   4.814   2.500 -0.4547 -0.2595  0.0282
  641MOL0     C86428  -0.248   4.787   2.349  0.5105 -0.1934  0.5601
  641MOL0     C86429  -0.381   4.839   2.575  0.6140 -0.5192  0.5180
  641MOL0     C86430  -0.518   4.875   2.527 -1.0725  0.8690 -0.4260
  641MOL0     O86431  -0.619   4.861   2.623  0.2980  0.5168  0.1872
  641MOL0     C86432  -0.748   4.862   2.580 -0.3960  0.2572  0.6741
  641MOL0     C86433  -0.802   4.783   2.472  0.1370  0.5300 -0.1923
  641MOL0     C86434  -0.936   4.796   2.428  0.6397 -0.0418 -0.3886
  641MOL0     C86435  -1.020   4.883   2.490  0.6834 -0.3564  0.1929
  641MOL0     O86436  -1.149   4.890   2.450 -1.0611  0.4189  0.5252
  641MOL0     C86437  -1.232   4.997   2.482 -0.0447  0.0578  0.1701
  641MOL0     C86438  -1.347   5.008   2.388  0.8938  0.7533 -0.2150
  641MOL0     C86439  -1.440   5.125   2.414  0.5565 -0.2865 -0.9331
  641MOL0     C86440  -1.576   5.134   2.345  0.4322  0.3576 -0.5273
  641MOL0     C86441  -1.667   5.260   2.381 -0.9548 -0.6200 -0.3707
  641MOL0     C86442  -1.779   5.270   2.283 -1.0565 -0.2580  0.3179
  641MOL0     C86443  -1.879   5.378   2.328 -0.4992  0.8962 -0.5018
  641MOL0     C86444  -1.994   5.371   2.225 -0.4479 -0.0042  0.1949
  641MOL0    Cl86445  -2.123   5.484   2.278 -0.0866 -0.0591 -0.0453
  641MOL0     C86446  -0.983   4.951   2.608  0.0585  0.3628 -0.1512
  641MOL0     C86447  -0.847   4.938   2.652 -0.2997  0.1291 -0.5929
  641MOL0     O86448  -0.538   4.910   2.413  0.6211 -0.2646 -0.2773
  641MOL0     C86449  -0.372   4.843   2.710  0.4748 -0.5469 -0.7482
  641MOL0     C86450  -0.251   4.808   2.774  0.5038  0.2070 -0.4382
  641MOL0     N86451   0.428   4.678   2.974 -0.5658  0.0960 -0.9289
  641MOL0     N86452   0.517   4.605   3.033  1.1804 -0.4877 -0.6962
  641MOL0     C86453   1.852   4.389   3.226  0.3708  0.2898  0.3145
  641MOL0     C86454   1.981   4.340   3.228  0.1222  0.1650  0.4638
  641MOL0     C86455   2.384   4.165   3.349  0.7959  0.5505  0.0004
  641MOL0     C86456   2.506   4.210   3.397 -0.6338 -0.3763  0.6798
  641MOL0     C86457   2.628   4.138   3.383  0.4361  0.2536  0.0966
  641MOL0     C86458   2.626   4.016   3.313  0.6532 -0.6363  0.4452
  641MOL0     O86459   2.738   3.939   3.272  0.3743  0.5560 -0.6215
  641MOL0     C86460   2.872   3.976   3.314  0.1169 -0.2306  0.5505
  641MOL0     C86461   2.969   3.897   3.228 -0.4918  0.1619 -0.0623
  641MOL0     C86462   3.109   3.949   3.242  0.2824 -0.3715  0.1253
  641MOL0     C86463   3.146   4.053   3.132 -0.3229 -0.5553  0.3826
  641MOL0     C86464   3.286   4.035   3.090 -0.4966  0.1905 -1.0021
  641MOL0     C86465   3.396   4.025   3.047  0.1450 -0.1126  0.5359
  641MOL0     C86466   2.507   3.972   3.257  0.0279 -0.0378  0.4419
  641MOL0     C86467   2.394   4.047   3.273  0.4377  0.2987 -0.1128
  641MOL0     H86468   1.957   4.110   3.473 -0.6102 -0.7889 -2.2511
  641MOL0     H86469   1.727   4.210   3.482  0.0343  0.9554  1.0709
  641MOL0     H86470   1.620   4.533   3.184 -1.8790  0.7481 -1.3711
  641MOL0     H86471   1.559   4.367   3.148 -0.4292  0.1173  0.7770
  641MOL0     H86472   1.409   4.444   3.376 -2.9587  1.7177  0.2463
  641MOL0     H86473   1.434   4.590   3.284  4.2994  0.2752  2.0150
  641MOL0     H86474   1.320   4.513   3.087 -0.8426 -1.7843 -1.2727
  641MOL0     H86475   1.297   4.349   3.146 -0.2414  0.5890 -2.4861
  641MOL0     H86476   1.155   4.419   3.323  1.5216 -0.0495  0.9082
  641MOL0     H86477   1.211   4.579   3.322 -1.6761 -0.1544  0.5925
  641MOL0     H86478   1.110   4.635   3.096  0.0651 -1.4918 -1.4721
  641MOL0     H86479   1.087   4.465   3.071  2.6548 -1.4753  0.8083
  641MOL0     H86480   0.907   4.461   3.249  0.0789  0.4709  0.8351
  641MOL0     H86481   0.945   4.619   3.299  3.2493 -1.3653  0.6490
  641MOL0     H86482   0.866   4.700   3.074  1.7806  0.3822  2.6172
  641MOL0     H86483   0.817   4.536   3.029  2.6989 -0.1492 -0.7625
  641MOL0     H86484   0.719   4.698   3.260  2.8909 -0.0750 -0.1249
  641MOL0     H86485   0.656   4.535   3.215 -1.5344 -0.5789 -2.6701
  641MOL0     H86486   0.626   4.902   3.101  0.7911  0.5827 -1.2290
  641MOL0     H86487   0.449   5.027   2.974  0.4834  0.7788 -0.8204
  641MOL0     H86488   0.421   4.942   2.835  1.8579  0.9467  1.4944
  641MOL0     H86489   0.203   5.037   2.961 -2.2815 -1.8434 -0.8751
  641MOL0     H86490   0.224   4.898   3.068  0.3778 -1.2816  0.3962
  641MOL0     H86491   0.191   4.738   2.889  0.4152  0.7629  2.4600
  641MOL0     H86492   0.214   4.867   2.761 -1.3237  2.1966 -0.8048
  641MOL0     H86493  -0.012   4.959   2.828 -0.2777 -0.8188 -0.6435
  641MOL0     H86494  -0.012   4.846   2.963  0.2860  0.3165  0.4721
  641MOL0     H86495  -0.049   4.780   2.506 -1.2378  2.6273 -1.1755
  641MOL0     H86496  -0.331   4.728   2.308  0.9920 -1.3177  1.1629
  641MOL0     H86497  -0.235   4.873   2.283 -0.6663 -0.0561  0.4900
  641MOL0     H86498  -0.156   4.734   2.323  2.0584  3.2698 -1.6223
  641MOL0     H86499  -0.735   4.717   2.419 -0.3085  2.9082 -4.1202
  641MOL0     H86500  -0.974   4.748   2.339  1.1801  2.0804 -1.8444
  641MOL0     H86501  -1.261   4.993   2.587  1.8969 -1.9120  0.7185
  641MOL0     H86502  -1.178   5.092   2.470  0.8685 -0.2220  1.8543
  641MOL0     H86503  -1.309   5.026   2.287  0.3658 -1.2858 -0.8306
  641MOL0     H86504  -1.400   4.914   2.371  1.1106  1.0758 -3.1105
  641MOL0     H86505  -1.388   5.219   2.396 -2.6257  1.7795 -0.2609
  641MOL0     H86506  -1.472   5.128   2.519 -1.2407  0.5369 -1.4596
  641MOL0     H86507  -1.546   5.133   2.240 -1.4610  1.5178 -1.1285
  641MOL0     H86508  -1.637   5.049   2.376 -1.0882  1.5235 -0.1977
  641MOL0     H86509  -1.604   5.349   2.379 -1.5374 -0.2181 -1.4085
  641MOL0     H86510  -1.724   5.242   2.473 -2.7861 -0.6566 -1.4501
  641MOL0     H86511  -1.735   5.287   2.184  2.2480 -3.8432  0.8839
  641MOL0     H86512  -1.833   5.176   2.270  2.1593 -2.0880 -1.3906
  641MOL0     H86513  -1.832   5.477   2.328 -1.3446  1.3308  1.1175
  641MOL0     H86514  -1.916   5.360   2.430 -2.1733  0.7013 -1.1101
  641MOL0     H86515  -2.016   5.264   2.214  1.5295 -0.3574 -0.8624
  641MOL0     H86516  -1.962   5.410   2.128 -1.7741  0.7590  0.0400
  641MOL0     H86517  -1.054   4.994   2.678 -0.4143 -0.6205 -0.0037
  641MOL0     H86518  -0.828   4.980   2.750  0.1580  1.1653 -1.1163
  641MOL0     H86519  -0.456   4.867   2.774  0.9778 -0.0749 -0.2512
  641MOL0     H86520  -0.256   4.803   2.882 -0.4557 -3.0856 -0.5230
  641MOL0     H86521   1.837   4.468   3.153  1.3044 -0.1165 -0.3465
  641MOL0     H86522   2.052   4.363   3.150 -0.7184 -1.9435 -1.0219
  641MOL0     H86523   2.499   4.298   3.459 -0.2487 -1.6243  2.5748
  641MOL0     H86524   2.718   4.164   3.438 -0.7547  2.9100  0.9519
  641MOL0     H86525   2.894   4.083   3.302 -0.8881 -0.1822 -1.1292
  641MOL0     H86526   2.886   3.958   3.421 -2.4300  2.0703  1.3980
  641MOL0     H86527   2.945   3.898   3.122  0.2563 -0.0796 -0.2439
  641MOL0     H86528   2.962   3.791   3.254 -1.0442 -0.4317 -2.3965
  641MOL0     H86529   3.171   3.860   3.228  0.7891  0.0434 -0.3225
  641MOL0     H86530   3.138   3.981   3.343  2.6102 -3.4403  0.5651
  641MOL0     H86531   3.135   4.157   3.165  3.3431 -0.0145  0.2138
  641MOL0     H86532   3.085   4.046   3.041 -0.6169  2.8677  0.1908
  641MOL0     H86533   3.498   3.996   3.031  0.9165  1.1699  2.6495
  641MOL0     H86534   2.504   3.877   3.205  1.7860  0.1723 -0.1060
  641MOL0     H86535   2.302   4.001   3.238  0.0493 -0.4648  1.8157
  642MOL0     O86536   0.356  10.060  10.580 -0.0840  0.4038  0.3302
  642MOL0     C86537   0.398   9.944  10.596  0.0419 -0.7248 -0.1927
  642MOL0     O86538   0.332   9.851  10.671 -0.0979  0.3863  0.2047
  642MOL0     C86539   0.203   9.874  10.713 -0.4007 -0.3052  0.5251
  642MOL0     C86540   0.085   9.837  10.639 -0.6539  0.6687  0.4511
  642MOL0     C86541  -0.044   9.883  10.681  0.1228 -0.2588 -0.1316
  642MOL0     C86542  -0.064   9.938  10.802 -0.0904 -0.1098 -0.5509
  642MOL0     O86543  -0.194   9.961  10.838  0.3990  0.3227 -0.1391
  642MOL0     C86544  -0.220   9.993  10.973 -0.2332 -0.1869 -0.5226
  642MOL0     C86545  -0.376   9.984  11.001 -0.7450  0.6039  0.3593
  642MOL0     C86546  -0.456  10.110  10.946 -0.1859  0.2385  0.2548
  642MOL0     C86547  -0.604  10.121  10.990 -0.2182 -0.7727 -1.1645
  642MOL0     C86548  -0.621  10.178  11.136 -1.3027  0.6187  0.4694
  642MOL0     C86549  -0.761  10.233  11.162 -0.0748  0.6629  0.1169
  642MOL0     C86550  -0.805  10.195  11.298  0.7134 -0.5841  0.7089
  642MOL0     C86551  -0.842  10.326  11.377 -0.4344  0.0930 -0.1201
  642MOL0     N86552  -0.973  10.378  11.344  1.1685  0.5466  0.1162
  642MOL0     C86553  -1.083  10.299  11.338 -1.8433  0.1016  0.5550
  642MOL0     C86554  -1.177  10.381  11.285 -0.0330 -0.4126 -0.5570
  642MOL0     C86555  -1.324  10.340  11.271  1.2598 -0.9441  0.0044
  642MOL0     C86556  -1.410  10.465  11.300  1.0673 -0.7180 -0.2312
  642MOL0     C86557  -1.428  10.554  11.172  0.2694  0.0521  0.6611
  642MOL0     C86558  -1.563  10.620  11.170  0.7342 -0.1603  0.9561
  642MOL0     O86559  -1.529  10.734  11.087  0.1060  0.3638 -0.0283
  642MOL0     C86560  -1.628  10.831  11.082 -0.5809 -0.8603  0.1011
  642MOL0     C86561  -1.594  10.947  11.016 -0.0559 -0.6937 -0.1243
  642MOL0     C86562  -1.688  11.045  10.987  0.4552 -0.2951  0.1535
  642MOL0     C86563  -1.639  11.168  10.906  0.6555  0.1534  0.3990
  642MOL0     C86564  -1.814  11.034  11.048 -0.6012  0.1127  0.3767
  642MOL0     C86565  -1.907  11.148  11.049 -0.0267 -0.0444 -0.0542
  642MOL0     O86566  -2.033  11.104  11.038  0.2763  0.3454 -0.1466
  642MOL0     C86567  -2.135  11.188  11.052 -1.3831 -0.3269 -0.7261
  642MOL0     C86568  -2.143  11.315  10.987 -0.0215  0.3128 -0.6636
  642MOL0     C86569  -2.258  11.396  10.994 -0.3548 -0.0731  0.2885
  642MOL0     C86570  -2.373  11.350  11.069 -0.6991 -0.3383  0.1239
  642MOL0     O86571  -2.496  11.417  11.074  0.4088 -0.1298  0.2650
  642MOL0     C86572  -2.519  11.501  10.964  0.7745 -0.2835  0.4180
  642MOL0     C86573  -2.663  11.545  10.947  0.6629  0.1773 -0.0106
  642MOL0     C86574  -2.761  11.430  10.916 -0.3446 -0.3266 -0.7857
  642MOL0     C86575  -2.886  11.474  10.836 -0.2035  0.1628 -0.5697
  642MOL0     C86576  -2.986  11.565  10.908  0.2548 -0.5122 -0.1608
  642MOL0     C86577  -3.033  11.528  11.055  0.2161 -0.3478  0.0252
  642MOL0     C86578  -3.082  11.389  11.071  0.3592  0.4633 -0.1757
  642MOL0     C86579  -3.146  11.370  11.208  0.7018  0.3590  1.2011
  642MOL0    Cl86580  -3.012  11.378  11.324  0.3257  0.0363 -0.0848
  642MOL0     C86581  -2.354  11.237  11.146  0.6142 -0.6118 -0.6259
  642MOL0     C86582  -2.238  11.159  11.136  0.2244 -0.4340  0.2420
  642MOL0     O86583  -1.859  11.260  11.066 -0.9062 -0.0882 -0.5004
  642MOL0     C86584  -1.852  10.918  11.112 -0.2632  0.1181 -0.0366
  642MOL0     C86585  -1.761  10.816  11.134 -0.4488 -0.4571 -0.1442
  642MOL0     N86586  -1.124  10.509  11.255  0.1627  0.2224  0.0413
  642MOL0     N86587  -1.003  10.501  11.296  0.3023  0.5359  0.2022
  642MOL0     C86588   0.050   9.977  10.876  0.6633  0.4724  0.0695
  642MOL0     C86589   0.181   9.938  10.837  0.1694  0.3324  0.2067
  642MOL0     C86590   0.522   9.894  10.537  0.2488  0.2142 -0.2726
  642MOL0     C86591   0.575   9.972  10.435  0.1397 -0.6107 -0.8379
  642MOL0     C86592   0.688   9.939  10.364 -0.0617  1.5105  0.3744
  642MOL0     C86593   0.747   9.816  10.392 -0.4177  0.2621  0.4217
  642MOL0     O86594   0.860   9.762  10.331  0.4683  0.0018  0.2231
  642MOL0     C86595   0.950   9.846  10.259  0.5384 -0.1651 -0.0738
  642MOL0     C86596   1.072   9.770  10.207 -0.7759 -0.0216 -0.6835
  642MOL0     C86597   1.145   9.709  10.327  0.2317 -1.0241 -0.1209
  642MOL0     C86598   1.278   9.630  10.301 -0.3139  0.1467  0.5200
  642MOL0     C86599   1.393   9.712  10.267  0.7105 -0.7001 -0.5122
  642MOL0     C86600   1.494   9.779  10.233 -0.4259  0.0911 -0.3603
  642MOL0     C86601   0.693   9.733  10.490  0.5759 -0.7015  0.6995
  642MOL0     C86602   0.578   9.770  10.559  0.3296  1.5851 -0.4857
  642MOL0     H86603   0.096   9.766  10.558  4.1722  0.8217  0.7191
  642MOL0     H86604  -0.129   9.842  10.627  1.6521 -2.3453 -1.1034
  642MOL0     H86605  -0.157   9.929  11.035 -0.3243  0.8864  0.7153
  642MOL0     H86606  -0.189  10.097  10.986 -4.1363  1.0482  0.3489
  642MOL0     H86607  -0.412   9.893  10.952 -1.1149  2.7266 -3.7661
  642MOL0     H86608  -0.380   9.976  11.110  2.4554  2.5036  0.7498
  642MOL0     H86609  -0.394  10.196  10.975  2.1746 -1.5845  0.9388
  642MOL0     H86610  -0.449  10.107  10.837  0.1031  2.5471  0.1581
  642MOL0     H86611  -0.671  10.187  10.934 -2.3756  0.0277  2.1051
  642MOL0     H86612  -0.649  10.021  10.984 -4.0962  0.5178  2.0436
  642MOL0     H86613  -0.573  10.107  11.205  0.3719  1.4663  0.2200
  642MOL0     H86614  -0.559  10.268  11.143  3.1275 -2.1438  1.2637
  642MOL0     H86615  -0.772  10.340  11.141 -1.3949  0.4336 -0.4558
  642MOL0     H86616  -0.834  10.193  11.091  0.8075 -0.8982  0.0424
  642MOL0     H86617  -0.890  10.127  11.286  0.3828 -0.1059  0.3095
  642MOL0     H86618  -0.732  10.131  11.348  0.6736 -2.7827 -1.7997
  642MOL0     H86619  -0.764  10.402  11.371  0.8094 -1.2180 -1.0808
  642MOL0     H86620  -0.846  10.298  11.483  0.4752  0.5804  0.0501
  642MOL0     H86621  -1.100  10.200  11.380 -2.0690 -1.7523 -3.4242
  642MOL0     H86622  -1.346  10.302  11.171  0.9771  0.4997 -0.4958
  642MOL0     H86623  -1.342  10.260  11.344  0.3060 -2.2745 -1.6282
  642MOL0     H86624  -1.383  10.545  11.369 -1.8815  1.1802 -1.0631
  642MOL0     H86625  -1.505  10.415  11.325  1.2748 -0.5789  0.8939
  642MOL0     H86626  -1.414  10.500  11.078  0.1095  0.7013  0.2548
  642MOL0     H86627  -1.351  10.631  11.181 -0.5001  0.7285  1.7263
  642MOL0     H86628  -1.589  10.655  11.270 -1.9575  3.0665 -0.7075
  642MOL0     H86629  -1.642  10.557  11.127 -1.8560  1.6500  2.7833
  642MOL0     H86630  -1.500  10.949  10.961 -1.1254  1.0808 -2.0222
  642MOL0     H86631  -1.557  11.157  10.835  0.9030  3.0553  0.1063
  642MOL0     H86632  -1.730  11.201  10.854 -1.2044 -2.6095  1.6874
  642MOL0     H86633  -1.605  11.233  10.987  0.2009 -1.2238  1.7435
  642MOL0     H86634  -2.063  11.353  10.924 -0.6992  0.1855 -1.6065
  642MOL0     H86635  -2.262  11.484  10.931  3.1804 -0.2041 -0.3217
  642MOL0     H86636  -2.457  11.591  10.974 -0.4231  0.4052  2.2333
  642MOL0     H86637  -2.503  11.441  10.873 -2.3396 -2.0860  0.9382
  642MOL0     H86638  -2.712  11.587  11.035 -0.0019 -1.9497  0.6827
  642MOL0     H86639  -2.672  11.604  10.855 -1.7336  0.8922  0.6205
  642MOL0     H86640  -2.776  11.378  11.011  3.8345 -0.8453 -0.2216
  642MOL0     H86641  -2.703  11.371  10.844  0.6092 -0.3608 -0.0072
  642MOL0     H86642  -2.854  11.523  10.744  0.9164  0.2954 -0.1243
  642MOL0     H86643  -2.939  11.381  10.815  0.2685 -0.8932  2.4245
  642MOL0     H86644  -3.070  11.591  10.843  1.8786  1.1532 -1.6901
  642MOL0     H86645  -2.936  11.661  10.919  0.2858 -0.5707  0.2293
  642MOL0     H86646  -2.946  11.556  11.115  0.7682  1.8719 -1.7180
  642MOL0     H86647  -3.111  11.600  11.083  2.2659  1.3413  1.7874
  642MOL0     H86648  -3.001  11.318  11.051 -0.9109 -0.6578 -1.7280
  642MOL0     H86649  -3.166  11.379  11.002  1.6205  1.9830 -2.0428
  642MOL0     H86650  -3.204  11.278  11.210 -1.4146  1.5935  0.3507
  642MOL0     H86651  -3.225  11.442  11.230  0.2636 -0.0844  1.0979
  642MOL0     H86652  -2.431  11.202  11.214 -0.7153  2.1028 -0.6230
  642MOL0     H86653  -2.258  11.065  11.186 -1.4640 -0.1841  0.1145
  642MOL0     H86654  -1.954  10.900  11.146 -1.2552  4.4003 -0.1830
  642MOL0     H86655  -1.789  10.718  11.171  0.9970 -0.8742 -0.0929
  642MOL0     H86656   0.024  10.029  10.968 -0.9702  2.1673 -1.2836
  642MOL0     H86657   0.266   9.978  10.890  0.1616  3.2759 -1.7788
  642MOL0     H86658   0.538  10.071  10.412  1.6394 -0.3823 -2.4585
  642MOL0     H86659   0.733  10.001  10.287  2.0180  0.1836  0.4553
  642MOL0     H86660   0.896   9.892  10.176  0.5295  0.3615  0.2149
  642MOL0     H86661   0.979   9.931  10.322 -0.6461  2.0960 -2.3964
  642MOL0     H86662   1.134   9.831  10.142 -0.9551  1.1070  0.1725
  642MOL0     H86663   1.038   9.692  10.138  0.0973  1.0689 -2.4120
  642MOL0     H86664   1.076   9.640  10.376  0.5594  0.7295  3.1239
  642MOL0     H86665   1.175   9.786  10.400  0.1846 -3.1200  2.2580
  642MOL0     H86666   1.249   9.564  10.219  1.3982  1.8460 -1.5473
  642MOL0     H86667   1.303   9.571  10.390 -1.5080  0.0568  0.8250
  642MOL0     H86668   1.580   9.836  10.203  0.1475 -0.1014  0.8542
  642MOL0     H86669   0.739   9.641  10.524  1.3294 -0.6670 -0.2246
  642MOL0     H86670   0.543   9.689  10.621  0.4551  0.2753 -2.0471
  643MOL0     O86671   4.114   8.102   1.791  0.8669  0.1795  0.8673
  643MOL0     C86672   4.174   8.053   1.885  0.1398  0.0447  0.1427
  643MOL0     O86673   4.138   7.940   1.950  0.6520  0.5819 -0.5388
  643MOL0     C86674   4.021   7.884   1.911 -0.0999 -0.0504  0.1027
  643MOL0     C86675   3.918   7.881   2.006  0.1967 -0.0533 -0.9718
  643MOL0     C86676   3.787   7.850   1.979  0.1943  1.3696  0.6612
  643MOL0     C86677   3.758   7.815   1.840  0.1274 -0.1726  0.7992
  643MOL0     O86678   3.638   7.769   1.790  0.4704  0.0806 -0.3951
  643MOL0     C86679   3.514   7.777   1.866  0.0453  0.0837 -1.0584
  643MOL0     C86680   3.429   7.682   1.791 -0.3266  0.4039 -0.4908
  643MOL0     C86681   3.313   7.629   1.869  0.0298  0.0334  0.8728
  643MOL0     C86682   3.238   7.519   1.782 -0.7826 -0.3526 -0.0798
  643MOL0     C86683   3.143   7.432   1.861  0.3565  0.2283  0.5309
  643MOL0     C86684   3.071   7.346   1.752 -0.3420 -1.2922 -0.5088
  643MOL0     C86685   2.969   7.247   1.811  0.3145  0.2355  0.4154
  643MOL0     C86686   2.839   7.320   1.839 -0.6126 -0.7765 -0.2767
  643MOL0     N86687   2.737   7.240   1.905  0.3849  0.8247  0.0697
  643MOL0     C86688   2.605   7.265   1.901 -0.4953 -0.0753 -0.4040
  643MOL0     C86689   2.540   7.162   1.968  0.1925  0.5898  0.4611
  643MOL0     C86690   2.395   7.158   1.993  0.3504 -0.3260  0.1691
  643MOL0     C86691   2.337   7.275   2.079  0.0262  0.4543  0.3618
  643MOL0     C86692   2.184   7.268   2.070  0.6742  0.2643 -0.2483
  643MOL0     C86693   2.118   7.286   1.922  0.6783  0.4389  0.0840
  643MOL0     O86694   1.974   7.302   1.931  0.1434  0.0910  0.2944
  643MOL0     C86695   1.930   7.414   1.997 -0.0404  0.2910  0.5151
  643MOL0     C86696   2.005   7.526   2.037 -0.6021  1.1978 -0.0480
  643MOL0     C86697   1.954   7.640   2.099  0.3336 -0.2809  0.2568
  643MOL0     C86698   2.041   7.750   2.125 -0.3294 -0.0313 -0.3575
  643MOL0     C86699   1.817   7.642   2.139 -0.2006  0.6187  0.8207
  643MOL0     C86700   1.743   7.761   2.195  0.4111 -0.1037 -0.8244
  643MOL0     O86701   1.604   7.767   2.173 -0.5005 -0.0032 -0.4600
  643MOL0     C86702   1.519   7.872   2.217 -0.5216  0.9918  0.7835
  643MOL0     C86703   1.560   7.990   2.282  0.3329 -0.2373  0.1940
  643MOL0     C86704   1.463   8.085   2.323  0.1135  0.0221 -0.3049
  643MOL0     C86705   1.326   8.057   2.308 -0.6440  0.1774 -0.4270
  643MOL0     O86706   1.248   8.139   2.369  0.2232  0.6161 -0.1591
  643MOL0     C86707   1.107   8.125   2.354 -0.1970 -0.5476 -0.5503
  643MOL0     C86708   1.027   8.250   2.390 -0.9709  0.5155 -0.1411
  643MOL0     C86709   0.874   8.234   2.373 -0.3973  0.1869  0.3273
  643MOL0     C86710   0.798   8.342   2.443 -0.1611 -0.1465  0.9539
  643MOL0     C86711   0.653   8.359   2.399  0.6436 -0.3169  0.3588
  643MOL0     C86712   0.595   8.502   2.405  0.1245 -0.2455 -0.1779
  643MOL0     C86713   0.453   8.506   2.349 -0.7000  0.2754 -0.4600
  643MOL0     C86714   0.404   8.655   2.349  0.5746  0.1252  0.9559
  643MOL0    Cl86715   0.387   8.738   2.503  0.0127 -0.1292 -0.6400
  643MOL0     C86716   1.284   7.934   2.251  0.1531  0.5944 -0.5373
  643MOL0     C86717   1.382   7.846   2.212 -0.1630 -0.1480  0.1916
  643MOL0     O86718   1.805   7.830   2.273 -0.0437 -0.0061 -0.1174
  643MOL0     C86719   1.743   7.523   2.101  0.4625 -0.0591  0.5325
  643MOL0     C86720   1.792   7.411   2.031  0.5257 -0.4170 -0.2618
  643MOL0     N86721   2.638   7.070   1.999  0.4425 -0.4283 -0.1803
  643MOL0     N86722   2.751   7.120   1.964 -0.0906  0.3082  0.5211
  643MOL0     C86723   3.863   7.809   1.744 -0.0733  0.1888  0.5216
  643MOL0     C86724   3.992   7.841   1.780  0.4319  1.3529  0.4775
  643MOL0     C86725   4.311   8.103   1.921  0.0739 -0.5290  0.5567
  643MOL0     C86726   4.367   8.208   1.838  0.3226 -0.3603 -0.0855
  643MOL0     C86727   4.488   8.263   1.866 -1.0056  0.0383  0.1543
  643MOL0     C86728   4.573   8.203   1.956 -0.0801 -0.4513 -0.0974
  643MOL0     O86729   4.704   8.265   1.970  0.1647 -0.3199  0.0532
  643MOL0     C86730   4.797   8.183   2.044  0.0762  0.1833 -0.4553
  643MOL0     C86731   4.944   8.231   2.033  0.6368  0.1433 -0.8195
  643MOL0     C86732   4.991   8.222   1.891 -0.6278 -0.7256 -0.5525
  643MOL0     C86733   5.141   8.233   1.888 -0.5299 -0.5397  1.1614
  643MOL0     C86734   5.207   8.162   1.778  0.9533  0.9837  0.2318
  643MOL0     C86735   5.272   8.106   1.687  0.7482  0.9610  0.0086
  643MOL0     C86736   4.510   8.120   2.053 -0.4344 -0.1720 -0.8575
  643MOL0     C86737   4.384   8.073   2.034 -0.5743  0.0196 -0.1850
  643MOL0     H86738   3.947   7.910   2.106 -1.1226  3.0426 -1.3873
  643MOL0     H86739   3.706   7.851   2.051  0.1876  1.8084  0.6484
  643MOL0     H86740   3.534   7.745   1.968 -0.3458 -2.1347 -1.6184
  643MOL0     H86741   3.471   7.878   1.867  0.0076  0.0987 -2.1830
  643MOL0     H86742   3.397   7.746   1.708  1.7330  3.0767  0.6414
  643MOL0     H86743   3.505   7.609   1.760  0.1342  1.4352 -1.9174
  643MOL0     H86744   3.355   7.582   1.959  0.9168  2.3724  1.7458
  643MOL0     H86745   3.238   7.705   1.894 -0.0675 -0.3546  1.8230
  643MOL0     H86746   3.186   7.572   1.702 -2.2334 -2.4781 -0.6268
  643MOL0     H86747   3.324   7.463   1.744  1.1959  0.6085  2.6431
  643MOL0     H86748   3.191   7.369   1.936 -0.5905 -1.2533 -0.0681
  643MOL0     H86749   3.073   7.493   1.919 -0.9991 -0.9498  0.1873
  643MOL0     H86750   3.029   7.420   1.683  1.3852  3.4063  2.9671
  643MOL0     H86751   3.151   7.293   1.699  2.0510  1.5827  0.0046
  643MOL0     H86752   2.957   7.165   1.740  1.5025  0.5862 -0.2172
  643MOL0     H86753   3.002   7.199   1.903  1.7992  1.1152  0.3796
  643MOL0     H86754   2.798   7.365   1.748 -1.9749 -1.7420 -0.1679
  643MOL0     H86755   2.853   7.402   1.909 -1.4882 -2.1508  1.6106
  643MOL0     H86756   2.566   7.353   1.851 -1.8849  1.3830  2.9501
  643MOL0     H86757   2.345   7.160   1.895  0.3746  0.0862  0.1621
  643MOL0     H86758   2.368   7.065   2.043  0.1821 -1.9757 -2.7269
  643MOL0     H86759   2.368   7.369   2.032 -0.5938 -0.6977 -2.5630
  643MOL0     H86760   2.382   7.264   2.178  0.9611 -2.2551 -0.2963
  643MOL0     H86761   2.160   7.349   2.139  0.5835 -0.5668  0.7114
  643MOL0     H86762   2.144   7.174   2.109  0.3415 -0.9250 -3.1579
  643MOL0     H86763   2.130   7.191   1.870  0.3309 -0.9555  2.3860
  643MOL0     H86764   2.158   7.368   1.862 -1.5263  1.4718 -0.0827
  643MOL0     H86765   2.112   7.517   2.023 -0.5140 -1.0567  1.4997
  643MOL0     H86766   2.139   7.738   2.077  0.0551 -1.3390  0.6849
  643MOL0     H86767   1.988   7.838   2.086 -0.9738 -0.0055  0.5448
  643MOL0     H86768   2.063   7.754   2.232  1.9430  4.5082 -0.7698
  643MOL0     H86769   1.661   8.028   2.268  1.3925 -0.9127  4.4968
  643MOL0     H86770   1.495   8.175   2.375  0.0217  0.0466 -0.2895
  643MOL0     H86771   1.075   8.097   2.253 -0.1559 -1.7861 -0.2332
  643MOL0     H86772   1.076   8.041   2.416 -2.2795 -0.7478 -1.7531
  643MOL0     H86773   1.054   8.262   2.495 -0.0533  1.0839 -0.4248
  643MOL0     H86774   1.054   8.338   2.330 -0.0177  0.7919  0.6701
  643MOL0     H86775   0.837   8.142   2.417 -1.2922  0.1638 -0.4385
  643MOL0     H86776   0.846   8.231   2.267  2.0335 -1.8065 -0.3587
  643MOL0     H86777   0.796   8.329   2.551 -1.2487 -1.5743  0.7936
  643MOL0     H86778   0.838   8.439   2.413 -2.1773  0.7014  0.8316
  643MOL0     H86779   0.595   8.297   2.468  1.4051  0.3730  1.6589
  643MOL0     H86780   0.638   8.325   2.296 -0.9166 -0.7378  0.6974
  643MOL0     H86781   0.597   8.546   2.505  2.9207 -2.1924  0.7735
  643MOL0     H86782   0.658   8.564   2.340  0.8914  1.6794  2.2447
  643MOL0     H86783   0.391   8.451   2.420  0.7552  1.2163  1.6259
  643MOL0     H86784   0.438   8.462   2.250  2.2585  1.5994 -1.6118
  643MOL0     H86785   0.308   8.644   2.298  2.0790  1.9640 -2.5906
  643MOL0     H86786   0.475   8.714   2.290 -0.2410  0.0617 -0.1269
  643MOL0     H86787   1.183   7.895   2.243  0.0111  1.3349 -3.8853
  643MOL0     H86788   1.352   7.747   2.178 -0.3085  0.0798 -0.3494
  643MOL0     H86789   1.642   7.517   2.141  0.7298  1.8939  1.6348
  643MOL0     H86790   1.739   7.319   2.013  0.4212 -0.1113 -1.6649
  643MOL0     H86791   3.847   7.769   1.644  1.9335 -2.4949  1.1575
  643MOL0     H86792   4.077   7.838   1.712 -0.4514  2.0644 -0.6981
  643MOL0     H86793   4.309   8.233   1.749  1.9712 -1.4874 -1.5390
  643MOL0     H86794   4.524   8.339   1.798  0.3831 -0.8271 -0.1089
  643MOL0     H86795   4.754   8.170   2.144 -0.0425  0.2689 -0.4948
  643MOL0     H86796   4.802   8.086   1.993  0.4332 -0.2837  0.4302
  643MOL0     H86797   5.009   8.174   2.099  1.9566  1.1607 -1.1895
  643MOL0     H86798   4.949   8.335   2.069  1.4746  0.0754 -0.7218
  643MOL0     H86799   4.943   8.308   1.844  2.2095  1.1937 -0.2003
  643MOL0     H86800   4.944   8.131   1.852 -2.4030 -1.3283  2.6158
  643MOL0     H86801   5.174   8.184   1.981  2.8512  0.2783  0.5269
  643MOL0     H86802   5.171   8.336   1.905 -4.5553  0.5062  3.3490
  643MOL0     H86803   5.329   8.068   1.605  0.0636 -0.8377  0.3141
  643MOL0     H86804   4.574   8.096   2.137  0.9223  1.8621 -1.2303
  643MOL0     H86805   4.332   8.007   2.102  2.1708 -1.5591  0.5249
  644MOL0     O86806   1.788  10.448   4.320  1.0088 -0.1978  0.3459
  644MOL0     C86807   1.799  10.322   4.316 -1.0568 -0.3740  0.0911
  644MOL0     O86808   1.697  10.232   4.310  0.2804 -0.1765  0.5682
  644MOL0     C86809   1.570  10.265   4.305 -0.1256 -0.2946  0.4629
  644MOL0     C86810   1.518  10.353   4.206  0.2311  0.0624 -0.2139
  644MOL0     C86811   1.380  10.388   4.209 -0.5923  0.2034  0.3888
  644MOL0     C86812   1.299  10.318   4.301  0.3537 -0.2665 -0.1545
  644MOL0     O86813   1.176  10.357   4.331  0.5414 -0.7825  0.6812
  644MOL0     C86814   1.088  10.389   4.214 -0.4825  0.6887 -0.0614
  644MOL0     C86815   0.955  10.317   4.235  0.5886  0.4476  0.4995
  644MOL0     C86816   0.848  10.348   4.133 -0.1192  0.0187 -0.0935
  644MOL0     C86817   0.806  10.497   4.126  0.5704  0.5358  0.2502
  644MOL0     C86818   0.787  10.534   3.984 -0.5080 -0.2024 -0.0836
  644MOL0     C86819   0.672  10.462   3.917  0.2101  0.7746 -0.1743
  644MOL0     C86820   0.656  10.508   3.774 -0.2829 -0.4056  0.8685
  644MOL0     C86821   0.583  10.637   3.749  0.3113 -0.4350  0.0804
  644MOL0     N86822   0.440  10.624   3.726 -0.2120  0.6044  0.1726
  644MOL0     C86823   0.387  10.553   3.620  0.3697  0.3886 -0.6964
  644MOL0     C86824   0.251  10.539   3.637 -0.4472  0.1819  0.4073
  644MOL0     C86825   0.140  10.490   3.542  0.4540  0.1156 -0.0875
  644MOL0     C86826   0.001  10.500   3.605 -0.3370 -0.1339  0.5122
  644MOL0     C86827  -0.110  10.459   3.502 -0.0993 -0.5223  0.5376
  644MOL0     C86828  -0.256  10.467   3.564  0.4533 -1.2511 -0.2385
  644MOL0     O86829  -0.285  10.601   3.605 -0.3433 -0.2138  0.1168
  644MOL0     C86830  -0.402  10.623   3.680 -0.1881  0.5126 -0.4486
  644MOL0     C86831  -0.492  10.521   3.710  0.4699  0.6882  0.5383
  644MOL0     C86832  -0.602  10.548   3.791 -0.2554  0.5355 -0.3675
  644MOL0     C86833  -0.684  10.424   3.811 -1.0438 -0.4471 -0.2483
  644MOL0     C86834  -0.624  10.680   3.838  0.0535  0.5785  0.6877
  644MOL0     C86835  -0.741  10.718   3.927 -0.3211 -0.0474 -1.4591
  644MOL0     O86836  -0.751  10.854   3.957 -0.0319 -0.3448  0.0029
  644MOL0     C86837  -0.852  10.879   4.048  0.4987 -0.6216 -0.0475
  644MOL0     C86838  -0.987  10.888   4.004  0.0993  0.7596 -0.2603
  644MOL0     C86839  -1.083  10.918   4.101 -0.1765 -0.3808 -0.1255
  644MOL0     C86840  -1.054  10.929   4.240  0.3135 -0.8230  0.1232
  644MOL0     O86841  -1.153  10.952   4.326  0.5954 -0.1477 -0.2848
  644MOL0     C86842  -1.208  11.087   4.329 -0.4130  0.0313 -0.5942
  644MOL0     C86843  -1.306  11.092   4.451 -0.2946  0.3082  0.1128
  644MOL0     C86844  -1.233  11.075   4.586 -0.3165  1.0269  0.2726
  644MOL0     C86845  -1.091  11.143   4.595  0.5011  0.8340 -1.1681
  644MOL0     C86846  -1.028  11.108   4.728 -0.2740 -0.4429  0.1457
  644MOL0     C86847  -0.877  11.140   4.756 -0.0863 -0.0884 -0.4723
  644MOL0     C86848  -0.856  11.291   4.769 -0.0096  0.4043  0.8578
  644MOL0     C86849  -0.710  11.330   4.814  0.3741  0.5877  0.0365
  644MOL0    Cl86850  -0.679  11.497   4.797  0.0839 -0.4032 -0.2429
  644MOL0     C86851  -0.924  10.891   4.284 -0.2363  0.0510 -0.2073
  644MOL0     C86852  -0.824  10.885   4.188  0.4223 -0.1644  0.8129
  644MOL0     O86853  -0.806  10.627   3.977  0.9684 -0.1931 -0.0775
  644MOL0     C86854  -0.536  10.781   3.811 -0.6231 -0.3683  0.2342
  644MOL0     C86855  -0.425  10.754   3.732  0.2634  0.1586  0.3531
  644MOL0     N86856   0.229  10.606   3.761  0.6178 -0.6257 -0.6464
  644MOL0     N86857   0.337  10.650   3.808 -0.2708 -0.0356  0.4694
  644MOL0     C86858   1.351  10.227   4.392  0.9778  0.1638  0.3725
  644MOL0     C86859   1.489  10.199   4.391  0.4473  0.6192 -0.0913
  644MOL0     C86860   1.936  10.260   4.324 -0.4169 -0.0921 -0.3002
  644MOL0     C86861   2.051  10.336   4.343 -0.6798 -0.2063  0.0833
  644MOL0     C86862   2.183  10.288   4.342  1.1051 -0.9580  0.9702
  644MOL0     C86863   2.201  10.153   4.340  0.5185  0.2935  0.4511
  644MOL0     O86864   2.321  10.090   4.358  0.1135 -0.1924  0.5158
  644MOL0     C86865   2.443  10.167   4.364  0.0175 -0.3476 -0.0541
  644MOL0     C86866   2.558  10.096   4.425  0.1501  0.2854  0.1563
  644MOL0     C86867   2.692  10.180   4.424 -0.3691  0.0415  0.5213
  644MOL0     C86868   2.815  10.125   4.509  1.2477  0.0890 -0.8452
  644MOL0     C86869   2.918  10.233   4.477  0.0957 -0.4764 -0.9628
  644MOL0     C86870   3.008  10.317   4.450 -0.1224  0.0309  0.3247
  644MOL0     C86871   2.091  10.072   4.319  0.9482 -0.3571  0.1752
  644MOL0     C86872   1.958  10.120   4.308 -0.1390  0.4048 -0.7557
  644MOL0     H86873   1.590  10.409   4.147 -1.0500  1.1441 -0.7772
  644MOL0     H86874   1.335  10.470   4.155  0.4948  0.5544 -0.0119
  644MOL0     H86875   1.080  10.498   4.209 -0.8438  0.6222 -1.2554
  644MOL0     H86876   1.122  10.364   4.113  0.0122  0.0538  0.2570
  644MOL0     H86877   0.972  10.210   4.232 -1.2015  0.1074 -2.8005
  644MOL0     H86878   0.921  10.339   4.336  0.9949 -0.5738  0.8681
  644MOL0     H86879   0.881  10.330   4.031  0.8468  0.9981  0.0307
  644MOL0     H86880   0.763  10.287   4.168  0.4285 -0.4935  0.3731
  644MOL0     H86881   0.717  10.502   4.189  0.1303  0.2767 -0.3374
  644MOL0     H86882   0.879  10.567   4.168  1.3303 -0.5731  0.8264
  644MOL0     H86883   0.780  10.643   3.986  3.9028  0.2911 -1.7184
  644MOL0     H86884   0.877  10.514   3.925  1.2235  1.9643  1.6849
  644MOL0     H86885   0.680  10.353   3.905 -1.8512  0.6418 -0.8014
  644MOL0     H86886   0.583  10.486   3.976 -1.3124 -0.6941 -1.7715
  644MOL0     H86887   0.756  10.528   3.734 -0.6779 -0.2296 -0.0474
  644MOL0     H86888   0.610  10.421   3.726  1.7776 -2.0767  1.7250
  644MOL0     H86889   0.628  10.674   3.656  2.0682 -1.3976  0.4967
  644MOL0     H86890   0.597  10.709   3.831  0.2927 -1.9222  1.4335
  644MOL0     H86891   0.443  10.515   3.536  0.0279 -1.3555 -0.1761
  644MOL0     H86892   0.144  10.556   3.455  1.5904 -0.6160 -0.6151
  644MOL0     H86893   0.162  10.393   3.496  0.9396  0.6818 -1.0682
  644MOL0     H86894  -0.018  10.596   3.654 -3.2003 -0.2657 -0.1903
  644MOL0     H86895   0.022  10.429   3.686 -1.1078  1.5590  2.2894
  644MOL0     H86896  -0.093  10.354   3.479  2.8494 -0.9337  3.8262
  644MOL0     H86897  -0.103  10.528   3.417  3.9359 -2.3106 -0.7971
  644MOL0     H86898  -0.256  10.402   3.653  1.4389  1.1003  1.5913
  644MOL0     H86899  -0.333  10.438   3.493  0.1447 -1.0627  0.0157
  644MOL0     H86900  -0.463  10.421   3.679  0.8576  0.2485  2.2099
  644MOL0     H86901  -0.626  10.335   3.782 -2.9490 -1.6113 -0.7260
  644MOL0     H86902  -0.716  10.423   3.916  0.3397  0.0771  0.1883
  644MOL0     H86903  -0.761  10.427   3.733 -0.0757  1.5620 -1.1911
  644MOL0     H86904  -1.011  10.877   3.899 -1.2150 -2.4885  0.2464
  644MOL0     H86905  -1.186  10.918   4.066 -0.7230 -2.1841  1.3411
  644MOL0     H86906  -1.127  11.160   4.326 -2.7877  2.8301 -1.4036
  644MOL0     H86907  -1.255  11.110   4.233 -0.3942  3.4381  0.0905
  644MOL0     H86908  -1.333  11.198   4.449  0.3457  0.4662 -0.2987
  644MOL0     H86909  -1.390  11.021   4.448 -1.7026  1.9472 -1.1086
  644MOL0     H86910  -1.210  10.969   4.601 -0.8134  1.0819  1.5610
  644MOL0     H86911  -1.288  11.108   4.674 -1.4708  1.7228 -0.6812
  644MOL0     H86912  -1.039  11.097   4.510  1.5510  1.5831 -0.9448
  644MOL0     H86913  -1.097  11.252   4.581  2.7325  1.1482 -0.1203
  644MOL0     H86914  -1.040  11.001   4.743  0.3994 -0.7201 -1.1212
  644MOL0     H86915  -1.081  11.153   4.812  0.9559 -1.7160  1.6572
  644MOL0     H86916  -0.855  11.096   4.854 -1.1219 -1.5712 -0.8625
  644MOL0     H86917  -0.806  11.099   4.685  0.9127 -0.0264  0.4576
  644MOL0     H86918  -0.938  11.333   4.828 -0.7570 -1.4954  1.2478
  644MOL0     H86919  -0.869  11.329   4.667  1.3904  0.5556  0.7222
  644MOL0     H86920  -0.643  11.283   4.742  1.3943  0.3763  1.0980
  644MOL0     H86921  -0.687  11.284   4.911  1.4250 -1.1102 -0.9716
  644MOL0     H86922  -0.894  10.881   4.387 -2.4468 -0.9433  0.3988
  644MOL0     H86923  -0.726  10.859   4.224  0.0393 -1.9524  0.6656
  644MOL0     H86924  -0.547  10.883   3.846  0.5993  0.0813 -0.6246
  644MOL0     H86925  -0.352  10.833   3.718  1.6196 -0.3184  3.6022
  644MOL0     H86926   1.287  10.177   4.464 -1.3560 -1.0018 -2.3145
  644MOL0     H86927   1.534  10.122   4.453 -2.4250  0.7280  2.3986
  644MOL0     H86928   2.038  10.444   4.351 -0.7250 -0.2772  1.0542
  644MOL0     H86929   2.261  10.362   4.356 -1.2536  2.1359 -0.9365
  644MOL0     H86930   2.466  10.204   4.263  0.3456 -2.5504 -0.8394
  644MOL0     H86931   2.421  10.253   4.428  1.9869  0.0863  0.1224
  644MOL0     H86932   2.578  10.002   4.374 -0.1757  1.0056 -1.3740
  644MOL0     H86933   2.523  10.062   4.523 -0.1120  1.5539  0.5239
  644MOL0     H86934   2.674  10.284   4.454  0.8610  0.1829  0.8206
  644MOL0     H86935   2.733  10.190   4.324 -3.6386  4.2908 -0.6927
  644MOL0     H86936   2.865  10.037   4.468 -1.3832 -2.5347  1.1120
  644MOL0     H86937   2.794  10.101   4.614 -1.5725 -5.4900 -2.3290
  644MOL0     H86938   3.092  10.382   4.435  0.3528 -0.5929  0.2695
  644MOL0     H86939   2.102   9.964   4.315 -0.5707 -0.6977  2.8633
  644MOL0     H86940   1.877  10.052   4.285 -0.0932 -0.0188  0.2938
  645MOL0     O86941   1.604   7.579   0.568 -0.0009  0.3627 -0.4667
  645MOL0     C86942   1.625   7.632   0.679 -0.2027  0.4336 -0.0695
  645MOL0     O86943   1.532   7.658   0.777  0.4457  0.1795  0.2462
  645MOL0     C86944   1.401   7.611   0.757  0.3226  0.2603  0.3029
  645MOL0     C86945   1.309   7.670   0.663  0.1624 -0.0126  0.1446
  645MOL0     C86946   1.177   7.632   0.655 -0.1040  0.2241  0.5796
  645MOL0     C86947   1.127   7.532   0.734 -0.2481  0.3041 -0.6984
  645MOL0     O86948   0.997   7.492   0.718 -0.2177  0.1055 -0.6455
  645MOL0     C86949   0.899   7.514   0.818  0.5934  0.2387  0.2275
  645MOL0     C86950   0.838   7.654   0.794  0.3598  1.1222  0.8854
  645MOL0     C86951   0.703   7.664   0.862 -1.0089 -0.2852 -0.1710
  645MOL0     C86952   0.631   7.799   0.849 -0.1033 -0.3886 -0.0324
  645MOL0     C86953   0.507   7.809   0.941 -0.2340  0.2898 -0.1448
  645MOL0     C86954   0.433   7.944   0.918 -1.0647  0.8372  0.2369
  645MOL0     C86955   0.303   7.949   0.994 -0.6809  0.3513  0.6626
  645MOL0     C86956   0.265   8.095   1.017  0.2202 -0.2456 -0.5842
  645MOL0     N86957   0.141   8.105   1.097  0.9146 -0.1927  0.2714
  645MOL0     C86958   0.121   8.040   1.216 -0.0100 -0.1845 -0.0472
  645MOL0     C86959  -0.015   8.046   1.234 -0.5311 -1.2475 -0.3265
  645MOL0     C86960  -0.106   7.979   1.330 -0.3041  1.1372 -0.5781
  645MOL0     C86961  -0.131   7.833   1.289 -0.4907 -0.0529 -0.7415
  645MOL0     C86962  -0.242   7.770   1.375 -0.0446 -0.2819 -0.3070
  645MOL0     C86963  -0.384   7.821   1.341  0.5560 -0.1010  0.1826
  645MOL0     O86964  -0.474   7.740   1.419  0.1049  0.0292  1.0714
  645MOL0     C86965  -0.610   7.755   1.409  0.2239 -0.5037 -0.1354
  645MOL0     C86966  -0.689   7.856   1.352  0.3794 -0.0220 -0.2234
  645MOL0     C86967  -0.824   7.860   1.341 -0.1662 -0.9962 -0.2993
  645MOL0     C86968  -0.890   7.987   1.274  0.0117 -0.1017 -0.1039
  645MOL0     C86969  -0.892   7.745   1.395  0.6655  0.3278  0.2524
  645MOL0     C86970  -1.046   7.734   1.416  0.8191  0.2112 -0.1941
  645MOL0     O86971  -1.090   7.601   1.398  0.2657 -0.0373 -0.2896
  645MOL0     C86972  -1.224   7.569   1.416 -0.8573 -0.1741  0.1745
  645MOL0     C86973  -1.265   7.535   1.537 -0.2000 -0.9837 -0.1363
  645MOL0     C86974  -1.394   7.490   1.559 -0.2833  0.3105 -0.1652
  645MOL0     C86975  -1.484   7.496   1.451  0.5239 -0.1100 -0.0319
  645MOL0     O86976  -1.612   7.474   1.463  0.8062  0.7065 -0.1465
  645MOL0     C86977  -1.664   7.450   1.596 -0.3079 -0.4084  0.4638
  645MOL0     C86978  -1.820   7.467   1.594  1.2262 -0.1967 -0.2529
  645MOL0     C86979  -1.874   7.463   1.739 -1.3253  0.1709  0.5358
  645MOL0     C86980  -2.030   7.447   1.730 -0.2248 -0.1035  0.2584
  645MOL0     C86981  -2.098   7.463   1.862  0.0331 -0.8945 -0.1645
  645MOL0     C86982  -2.237   7.401   1.868  0.9623 -0.0591 -0.1376
  645MOL0     C86983  -2.303   7.408   2.001 -0.5838 -0.3575 -0.1915
  645MOL0     C86984  -2.305   7.542   2.064  0.7398  0.7839 -0.2747
  645MOL0    Cl86985  -2.387   7.652   1.951 -0.0748  0.5291 -0.0542
  645MOL0     C86986  -1.441   7.545   1.333 -0.1970 -0.4514  0.0619
  645MOL0     C86987  -1.310   7.580   1.312  0.1914  0.1098  0.1371
  645MOL0     O86988  -1.122   7.833   1.422 -0.5887  0.1075 -0.4104
  645MOL0     C86989  -0.818   7.636   1.445 -0.1862  0.4717  0.1093
  645MOL0     C86990  -0.679   7.640   1.456  0.0565 -0.2096  0.5253
  645MOL0     N86991  -0.075   8.122   1.129  0.2242 -0.3265 -0.3760
  645MOL0     N86992   0.025   8.154   1.051  0.1607  0.3497  0.1987
  645MOL0     C86993   1.211   7.478   0.835 -0.3829  0.2781 -0.5107
  645MOL0     C86994   1.344   7.524   0.853 -0.2931 -0.6871  0.4149
  645MOL0     C86995   1.762   7.665   0.712 -0.2178  1.0551  0.4714
  645MOL0     C86996   1.787   7.736   0.832  0.0842  0.9369 -0.8224
  645MOL0     C86997   1.915   7.762   0.875  0.3890 -0.8559 -0.1170
  645MOL0     C86998   2.021   7.723   0.802 -0.0060 -0.3836  0.4685
  645MOL0     O86999   2.153   7.745   0.830 -0.3492  0.0255 -0.1920
  645MOL0     C87000   2.169   7.854   0.923 -0.4081 -0.6566  0.6415
  645MOL0     C87001   2.310   7.897   0.951  0.0056 -0.3430 -0.3448
  645MOL0     C87002   2.367   7.975   0.830  0.8442  0.9632  0.5017
  645MOL0     C87003   2.518   7.970   0.831  0.1523 -0.3937 -0.4533
  645MOL0     C87004   2.581   8.029   0.954  0.5878  0.7143 -0.2360
  645MOL0     C87005   2.638   8.085   1.043  0.1211  0.5774 -1.2519
  645MOL0     C87006   2.000   7.641   0.695 -0.1877  0.2721  0.5159
  645MOL0     C87007   1.871   7.612   0.652 -0.3656  0.3746 -0.7736
  645MOL0     H87008   1.351   7.758   0.616  1.9113 -1.5950 -1.4039
  645MOL0     H87009   1.107   7.673   0.583 -0.7671 -0.3332  0.8981
  645MOL0     H87010   0.821   7.439   0.804 -0.4521  1.3430 -0.0630
  645MOL0     H87011   0.945   7.510   0.917  2.4065  1.4489 -0.5200
  645MOL0     H87012   0.904   7.725   0.846  2.5031 -1.0375  1.2818
  645MOL0     H87013   0.835   7.663   0.686 -2.1614  0.5847  0.8501
  645MOL0     H87014   0.641   7.585   0.819  0.4343 -1.6800  0.1955
  645MOL0     H87015   0.721   7.657   0.970  1.8201  1.9353 -0.3763
  645MOL0     H87016   0.708   7.865   0.891  0.0089 -0.8902  0.5628
  645MOL0     H87017   0.601   7.837   0.751 -3.0635 -1.8941  0.1944
  645MOL0     H87018   0.442   7.724   0.922  0.3625 -0.6954  1.9167
  645MOL0     H87019   0.539   7.792   1.044 -1.7156 -0.7755  0.1673
  645MOL0     H87020   0.495   8.024   0.959  2.3265 -1.2628 -0.3972
  645MOL0     H87021   0.426   7.976   0.813  1.5791 -2.0615 -0.9762
  645MOL0     H87022   0.219   7.895   0.949  0.4901 -1.9747  1.1360
  645MOL0     H87023   0.318   7.910   1.095 -0.9471 -0.9262  0.2262
  645MOL0     H87024   0.249   8.144   0.920  0.8822 -0.1451 -0.6500
  645MOL0     H87025   0.346   8.147   1.068 -0.6623  2.8382 -2.1096
  645MOL0     H87026   0.196   7.978   1.266  1.6091 -1.2857 -3.5123
  645MOL0     H87027  -0.078   7.980   1.436 -1.8115 -0.5728 -0.0944
  645MOL0     H87028  -0.197   8.039   1.327  0.1232  1.7624 -2.8300
  645MOL0     H87029  -0.043   7.768   1.294  0.0298  0.7095  0.2696
  645MOL0     H87030  -0.168   7.837   1.186 -0.1006  3.5663 -0.8391
  645MOL0     H87031  -0.240   7.778   1.484 -0.4839  0.5559 -0.3492
  645MOL0     H87032  -0.241   7.664   1.350 -1.7599  0.0858 -2.2298
  645MOL0     H87033  -0.408   7.815   1.234  0.7100  1.3162  0.0540
  645MOL0     H87034  -0.410   7.921   1.377  3.4629  1.2889 -1.1922
  645MOL0     H87035  -0.644   7.949   1.317 -0.5778  0.6853  0.3791
  645MOL0     H87036  -0.825   8.046   1.208 -0.7770 -0.1732 -0.9613
  645MOL0     H87037  -0.980   7.966   1.216  0.0701  1.0032 -0.6169
  645MOL0     H87038  -0.919   8.052   1.356  1.5039 -0.9648  1.1659
  645MOL0     H87039  -1.194   7.540   1.620 -0.5514  1.1443  0.0854
  645MOL0     H87040  -1.432   7.467   1.657  0.4044  1.3001  0.3517
  645MOL0     H87041  -1.627   7.352   1.629 -0.4764 -0.8544 -0.6356
  645MOL0     H87042  -1.636   7.526   1.670 -0.0677  2.0731 -2.0459
  645MOL0     H87043  -1.835   7.568   1.554  1.2442  1.1676  2.9093
  645MOL0     H87044  -1.875   7.398   1.530  0.1986  1.6234 -1.4427
  645MOL0     H87045  -1.849   7.553   1.797 -0.0335 -0.0134  0.2844
  645MOL0     H87046  -1.830   7.376   1.790 -2.2322 -0.4491  0.2958
  645MOL0     H87047  -2.081   7.505   1.653  0.4624 -3.5009 -3.0660
  645MOL0     H87048  -2.049   7.342   1.704  0.9084 -0.7957  2.0378
  645MOL0     H87049  -2.104   7.571   1.877 -0.6952 -1.0697  0.9483
  645MOL0     H87050  -2.037   7.426   1.945  1.8508  0.7679 -0.6858
  645MOL0     H87051  -2.300   7.451   1.794 -2.3723 -3.9062 -0.2744
  645MOL0     H87052  -2.219   7.297   1.839 -0.4005  0.3919 -2.8861
  645MOL0     H87053  -2.250   7.335   2.063 -1.5026 -2.0637 -1.3396
  645MOL0     H87054  -2.406   7.370   2.002 -0.6099 -0.3984  2.4049
  645MOL0     H87055  -2.206   7.586   2.076  1.7988 -0.8137 -2.4032
  645MOL0     H87056  -2.360   7.539   2.159  1.9585  1.0707  0.4579
  645MOL0     H87057  -1.510   7.554   1.249 -1.0782 -0.7229  0.7529
  645MOL0     H87058  -1.264   7.602   1.216  0.8000  0.9208  0.6026
  645MOL0     H87059  -0.861   7.543   1.480 -0.7656  1.3397  1.8063
  645MOL0     H87060  -0.615   7.564   1.497  1.2068  0.5169  0.1290
  645MOL0     H87061   1.177   7.403   0.906  2.6509  0.0299  0.8641
  645MOL0     H87062   1.415   7.495   0.929  0.4126 -1.9250 -0.6719
  645MOL0     H87063   1.709   7.776   0.895  2.0375  1.8876  1.1325
  645MOL0     H87064   1.932   7.820   0.965  1.9026  1.6986 -1.8859
  645MOL0     H87065   2.111   7.944   0.899  0.5266  0.5376  2.5335
  645MOL0     H87066   2.127   7.828   1.021 -1.3001  1.0104  0.7367
  645MOL0     H87067   2.372   7.814   0.987  1.1605  0.2192 -0.9987
  645MOL0     H87068   2.294   7.972   1.029  3.4684  1.0287 -0.7718
  645MOL0     H87069   2.346   8.082   0.832  3.1636  1.4758  1.9217
  645MOL0     H87070   2.330   7.943   0.733 -1.0678  1.5483  1.0056
  645MOL0     H87071   2.555   8.019   0.740  1.3467  0.7054  0.5855
  645MOL0     H87072   2.562   7.873   0.807 -0.6506 -0.8458 -0.1282
  645MOL0     H87073   2.680   8.127   1.132  2.3240 -0.3908 -1.7728
  645MOL0     H87074   2.086   7.590   0.652  1.1140  2.4292  0.4171
  645MOL0     H87075   1.839   7.543   0.575 -0.7088  0.5160 -0.7610
  646MOL0     O87076   6.292   0.371   9.046  0.2261 -0.3005 -0.0552
  646MOL0     C87077   6.230   0.261   9.032  0.2484  0.0486 -0.6279
  646MOL0     O87078   6.286   0.134   9.012 -0.2291 -0.2992 -0.1884
  646MOL0     C87079   6.421   0.129   9.010  0.0143 -0.2011  0.3772
  646MOL0     C87080   6.500   0.068   9.098 -0.5032  0.0252  0.0084
  646MOL0     C87081   6.636   0.050   9.085  0.6830 -1.0484  0.2968
  646MOL0     C87082   6.707   0.110   8.978  0.1282 -0.3180  0.4052
  646MOL0     O87083   6.844   0.099   8.956 -0.2050 -0.3433  0.1064
  646MOL0     C87084   6.912  -0.010   9.025  0.9540 -0.2978 -0.0204
  646MOL0     C87085   7.042  -0.038   8.946  1.0200 -0.1086  0.4386
  646MOL0     C87086   7.117  -0.159   8.990  0.7299  0.3687  0.0154
  646MOL0     C87087   7.263  -0.143   8.950  0.8305  0.3464 -0.7173
  646MOL0     C87088   7.338  -0.276   8.963 -0.4519 -0.6458  0.3863
  646MOL0     C87089   7.293  -0.379   8.853  0.0952  0.0010 -0.0188
  646MOL0     C87090   7.401  -0.484   8.848 -1.0150  0.3588 -0.4913
  646MOL0     C87091   7.356  -0.584   8.746 -0.8320 -0.2462 -0.6612
  646MOL0     N87092   7.445  -0.699   8.742  0.4954  0.1012 -0.5073
  646MOL0     C87093   7.486  -0.766   8.851 -0.1260 -0.1852  0.0068
  646MOL0     C87094   7.568  -0.862   8.816 -1.0467 -0.6499  0.4414
  646MOL0     C87095   7.634  -0.959   8.911 -0.0243 -0.6254  0.3770
  646MOL0     C87096   7.546  -1.092   8.899 -1.1432 -0.5965  0.2906
  646MOL0     C87097   7.558  -1.191   9.018  0.5348 -0.6290 -0.1488
  646MOL0     C87098   7.491  -1.328   8.990 -0.4597  1.0120 -0.2667
  646MOL0     O87099   7.354  -1.283   8.988  0.7209  0.1277 -0.5354
  646MOL0     C87100   7.248  -1.343   8.920 -0.9941 -0.0260 -0.2221
  646MOL0     C87101   7.125  -1.356   8.979  0.0129  0.1620 -0.2445
  646MOL0     C87102   7.018  -1.422   8.925 -0.2929  0.6667 -0.0087
  646MOL0     C87103   6.892  -1.425   9.002  0.5743 -0.0212  0.7007
  646MOL0     C87104   7.037  -1.487   8.795  0.0165 -0.3077  0.0818
  646MOL0     C87105   6.926  -1.562   8.723 -0.5657 -0.7207 -0.1143
  646MOL0     O87106   6.958  -1.606   8.596 -0.1395 -0.3483 -0.4694
  646MOL0     C87107   6.869  -1.689   8.530  0.1081 -0.6452  0.1772
  646MOL0     C87108   6.738  -1.655   8.511  0.6485  0.1506 -0.1352
  646MOL0     C87109   6.646  -1.749   8.457  0.0242  0.8715  0.0995
  646MOL0     C87110   6.680  -1.875   8.407 -0.7080  0.5510 -0.4511
  646MOL0     O87111   6.593  -1.962   8.346  0.4913 -0.0900  0.3516
  646MOL0     C87112   6.453  -1.952   8.382  0.0426 -0.1387  0.6268
  646MOL0     C87113   6.384  -2.083   8.345  0.1456 -0.4055  0.8869
  646MOL0     C87114   6.233  -2.071   8.353  0.1342  0.5960 -0.3862
  646MOL0     C87115   6.168  -2.011   8.233 -1.3005  0.7427 -0.3478
  646MOL0     C87116   6.011  -2.000   8.228 -0.0452  0.7647  0.0635
  646MOL0     C87117   5.954  -2.143   8.237  0.0269  0.5765  0.2862
  646MOL0     C87118   5.802  -2.138   8.213 -0.2305  0.5645 -0.3881
  646MOL0     C87119   5.776  -2.174   8.073 -0.1164 -0.3767  0.7694
  646MOL0    Cl87120   5.600  -2.145   8.038  0.2941  0.5394 -0.0496
  646MOL0     C87121   6.818  -1.902   8.423 -0.1697 -0.1865  0.2078
  646MOL0     C87122   6.908  -1.818   8.480 -0.5292 -0.3559  0.7994
  646MOL0     O87123   6.828  -1.596   8.784 -0.4160 -0.0832  0.0604
  646MOL0     C87124   7.168  -1.467   8.731  0.1929  0.0463  0.2808
  646MOL0     C87125   7.272  -1.405   8.798 -0.6385 -0.3027 -0.3905
  646MOL0     N87126   7.603  -0.845   8.687  0.2851  0.9827  0.2473
  646MOL0     N87127   7.517  -0.753   8.641 -0.4076  0.2649  0.5166
  646MOL0     C87128   6.630   0.184   8.888  0.4584 -0.4071 -0.0814
  646MOL0     C87129   6.487   0.184   8.904 -0.2739 -0.7221 -0.1958
  646MOL0     C87130   6.081   0.269   9.049 -0.1036 -0.2989 -0.7354
  646MOL0     C87131   6.006   0.142   9.049 -0.2647  0.2566 -0.7772
  646MOL0     C87132   5.867   0.144   9.082  0.4784  0.2006 -0.2750
  646MOL0     C87133   5.794   0.265   9.096 -0.3845  0.6020 -0.1772
  646MOL0     O87134   5.663   0.261   9.114 -0.6259 -0.4490  0.3501
  646MOL0     C87135   5.628   0.190   9.226 -0.2871  0.7329 -0.0449
  646MOL0     C87136   5.492   0.241   9.267  0.7985  0.1141  0.8676
  646MOL0     C87137   5.499   0.391   9.322  0.3439 -0.0632  0.8520
  646MOL0     C87138   5.365   0.471   9.328 -0.3076 -0.4397  0.3296
  646MOL0     C87139   5.290   0.464   9.451 -0.1757  0.1947  0.3425
  646MOL0     C87140   5.249   0.453   9.566 -0.1492 -0.0096 -0.3410
  646MOL0     C87141   5.857   0.388   9.067 -0.1299 -0.0322 -0.7937
  646MOL0     C87142   6.003   0.394   9.053 -0.0863 -0.3381 -0.5390
  646MOL0     H87143   6.461   0.036   9.194 -1.3152 -1.0815 -0.6726
  646MOL0     H87144   6.688   0.001   9.167  2.5348  0.0116 -0.1696
  646MOL0     H87145   6.949   0.014   9.125 -2.1367  2.7772  0.5658
  646MOL0     H87146   6.855  -0.104   9.019  0.0584  0.1683  0.7724
  646MOL0     H87147   7.012  -0.056   8.842  0.2283  1.8226  0.2820
  646MOL0     H87148   7.103   0.053   8.948  2.7165 -0.9086 -3.8066
  646MOL0     H87149   7.101  -0.170   9.098 -1.8329  3.2461  0.0702
  646MOL0     H87150   7.083  -0.245   8.932  0.9653  0.4182 -0.1968
  646MOL0     H87151   7.274  -0.108   8.847 -3.0453  2.1283 -0.7088
  646MOL0     H87152   7.313  -0.063   9.006  0.7558  0.7839 -1.2674
  646MOL0     H87153   7.440  -0.239   8.944  0.3633 -1.0774  3.3908
  646MOL0     H87154   7.347  -0.329   9.058 -1.6260 -1.4964  0.0409
  646MOL0     H87155   7.194  -0.425   8.862  1.1791 -2.3104  0.7253
  646MOL0     H87156   7.291  -0.334   8.753 -1.0289  0.9802  0.4207
  646MOL0     H87157   7.500  -0.443   8.826 -1.4463  0.8275 -1.6572
  646MOL0     H87158   7.401  -0.531   8.947  2.9924 -0.6984 -0.8178
  646MOL0     H87159   7.359  -0.540   8.646 -0.4552 -0.4243 -0.7300
  646MOL0     H87160   7.255  -0.614   8.775 -0.2418 -1.8768 -0.2080
  646MOL0     H87161   7.443  -0.744   8.948 -0.9247  0.6713 -0.5268
  646MOL0     H87162   7.734  -0.983   8.873 -0.7195 -1.8019 -0.7539
  646MOL0     H87163   7.628  -0.929   9.016  0.6366 -1.3973  0.6520
  646MOL0     H87164   7.560  -1.143   8.804  0.6397 -0.3835  0.4118
  646MOL0     H87165   7.443  -1.056   8.901 -0.9809 -0.1421  1.4555
  646MOL0     H87166   7.512  -1.139   9.102 -2.2538 -0.2957 -1.7491
  646MOL0     H87167   7.664  -1.213   9.032  0.6652 -1.6576 -2.2498
  646MOL0     H87168   7.514  -1.393   9.075 -0.7713  1.6940  0.3559
  646MOL0     H87169   7.530  -1.363   8.894  0.9504  3.5896 -0.7228
  646MOL0     H87170   7.098  -1.320   9.078 -3.1621 -0.9348 -0.5994
  646MOL0     H87171   6.892  -1.336   9.067  1.3367  1.0113 -0.6432
  646MOL0     H87172   6.810  -1.405   8.932 -0.0474 -2.8324  0.5464
  646MOL0     H87173   6.868  -1.521   9.048 -2.9076  0.6501  0.5423
  646MOL0     H87174   6.701  -1.562   8.552 -0.9665  0.4267 -2.0705
  646MOL0     H87175   6.546  -1.711   8.442 -0.8613 -1.0013  0.9998
  646MOL0     H87176   6.425  -1.938   8.487  0.4852 -1.1802  0.8897
  646MOL0     H87177   6.408  -1.865   8.332  3.7312  0.9205 -1.1914
  646MOL0     H87178   6.418  -2.117   8.247 -0.5872  1.2386  0.0221
  646MOL0     H87179   6.409  -2.156   8.423 -0.3250  1.7168  3.1723
  646MOL0     H87180   6.198  -2.011   8.438 -0.5734  1.5380 -1.3206
  646MOL0     H87181   6.208  -2.175   8.374  0.7456  0.4404 -0.4059
  646MOL0     H87182   6.215  -1.913   8.223 -1.2953  0.9295  1.2966
  646MOL0     H87183   6.207  -2.062   8.145  0.3934 -0.8293  1.2436
  646MOL0     H87184   5.977  -1.942   8.142 -2.6311  0.5375  0.8558
  646MOL0     H87185   5.984  -1.940   8.316  0.7971  0.2119  0.7188
  646MOL0     H87186   6.006  -2.211   8.169  0.2894 -0.0196  1.0662
  646MOL0     H87187   5.969  -2.179   8.339 -0.0606  0.2279  0.1772
  646MOL0     H87188   5.758  -2.043   8.245 -0.2372  0.7389 -0.9103
  646MOL0     H87189   5.746  -2.213   8.270 -2.1720  1.6227 -0.7974
  646MOL0     H87190   5.808  -2.278   8.065 -3.1985 -1.4671  1.4358
  646MOL0     H87191   5.837  -2.113   8.005 -1.3286 -2.7547 -2.7360
  646MOL0     H87192   6.855  -1.999   8.393 -0.9680 -0.4404  0.0176
  646MOL0     H87193   7.012  -1.849   8.479  0.0891  1.2153  3.7957
  646MOL0     H87194   7.186  -1.511   8.633 -0.2529  2.3349 -0.8961
  646MOL0     H87195   7.373  -1.401   8.757 -0.0473 -1.9107  0.7812
  646MOL0     H87196   6.684   0.231   8.807 -2.3580  1.8068 -0.8233
  646MOL0     H87197   6.435   0.233   8.822 -0.7716 -2.4593 -0.9690
  646MOL0     H87198   6.054   0.047   9.029 -0.7767  0.1892 -1.7565
  646MOL0     H87199   5.821   0.045   9.085  1.4614 -0.3328 -1.8898
  646MOL0     H87200   5.631   0.082   9.213 -2.3257  0.1404  3.2539
  646MOL0     H87201   5.694   0.220   9.308  1.0640  4.2073 -2.1737
  646MOL0     H87202   5.449   0.174   9.343  1.1002 -1.0924 -0.0048
  646MOL0     H87203   5.439   0.241   9.171  1.4040 -2.5204  0.4800
  646MOL0     H87204   5.576   0.442   9.263  1.0973  1.8148  3.2730
  646MOL0     H87205   5.538   0.390   9.424  0.2288  2.3643  0.9839
  646MOL0     H87206   5.313   0.444   9.235  0.9624 -0.3556 -0.4244
  646MOL0     H87207   5.394   0.576   9.329  0.4738 -0.5981  3.2615
  646MOL0     H87208   5.217   0.448   9.668 -1.1216 -0.3222 -0.6424
  646MOL0     H87209   5.786   0.469   9.058 -0.2166 -0.1870 -1.5746
  646MOL0     H87210   6.052   0.489   9.033 -1.0813  0.2600 -0.2285
  647MOL0     O87211   7.606   6.369   9.337 -0.1737  0.3443 -0.4598
  647MOL0     C87212   7.616   6.472   9.403 -0.6722  0.2869  0.1416
  647MOL0     O87213   7.520   6.550   9.448  0.2573 -0.0283  0.2590
  647MOL0     C87214   7.390   6.516   9.427  0.0098  0.0381  0.5525
  647MOL0     C87215   7.308   6.625   9.447 -0.1698  0.3387  0.1465
  647MOL0     C87216   7.166   6.615   9.433 -0.3789 -0.2983  0.2527
  647MOL0     C87217   7.110   6.493   9.420  0.1780 -0.5024 -0.0137
  647MOL0     O87218   6.978   6.476   9.407 -0.2731 -0.0417  0.4302
  647MOL0     C87219   6.906   6.443   9.528  0.2800 -0.9820 -0.0527
  647MOL0     C87220   6.754   6.424   9.506  0.5806  0.7284 -0.3244
  647MOL0     C87221   6.682   6.562   9.490 -0.6939 -0.6088  0.9635
  647MOL0     C87222   6.568   6.551   9.382  0.2530 -0.8710 -0.1897
  647MOL0     C87223   6.483   6.680   9.366  0.7123 -0.6426 -0.2824
  647MOL0     C87224   6.355   6.647   9.288  0.1543 -0.3129  0.7923
  647MOL0     C87225   6.232   6.734   9.322  0.7086  1.4178  0.3407
  647MOL0     C87226   6.238   6.886   9.303 -0.5335  0.5531 -0.0902
  647MOL0     N87227   6.112   6.965   9.324 -0.4035 -0.4429  0.4716
  647MOL0     C87228   6.031   6.949   9.433 -0.2682 -0.3033 -0.5213
  647MOL0     C87229   5.910   7.002   9.403  0.0203 -0.0581 -0.2867
  647MOL0     C87230   5.789   6.995   9.499  0.4857  0.2318 -0.0133
  647MOL0     C87231   5.652   6.964   9.437  0.4131  1.2592  0.0312
  647MOL0     C87232   5.576   6.912   9.563 -0.1664 -0.5235  0.2386
  647MOL0     C87233   5.431   6.877   9.530 -0.2430  0.2971 -0.1882
  647MOL0     O87234   5.357   6.835   9.649  0.3681  0.6355  0.5045
  647MOL0     C87235   5.231   6.878   9.677 -0.6185  0.2546  0.2103
  647MOL0     C87236   5.180   6.855   9.806 -0.7548 -0.4227 -1.0088
  647MOL0     C87237   5.054   6.904   9.836 -0.0974 -0.1439  0.5366
  647MOL0     C87238   5.009   6.900   9.982  0.4934 -0.4579  0.6364
  647MOL0     C87239   4.971   6.963   9.735  0.8889  0.4383  1.2547
  647MOL0     C87240   4.830   7.029   9.749 -0.1074 -0.6933  0.2677
  647MOL0     O87241   4.792   7.060   9.879  0.7688 -0.3967 -0.1790
  647MOL0     C87242   4.673   7.115   9.913 -0.7068 -0.8365 -0.1140
  647MOL0     C87243   4.599   7.062  10.010  0.3995  0.4939  0.5606
  647MOL0     C87244   4.468   7.112  10.036 -0.3079 -0.1066  0.8367
  647MOL0     C87245   4.410   7.214   9.954  0.6406 -0.9339 -0.4192
  647MOL0     O87246   4.278   7.260   9.959  0.2001  1.3278 -0.6990
  647MOL0     C87247   4.186   7.210  10.061  1.1149 -0.0781  0.8049
  647MOL0     C87248   4.051   7.286  10.058 -0.4953  0.2725 -0.4243
  647MOL0     C87249   3.978   7.244   9.933 -0.0200 -0.6457  0.1236
  647MOL0     C87250   3.867   7.336   9.896  1.1359 -0.7964 -1.1298
  647MOL0     C87251   3.752   7.329  10.002 -0.3207  0.1527 -0.0824
  647MOL0     C87252   3.662   7.214   9.961 -0.3111 -0.1192  0.3507
  647MOL0     C87253   3.527   7.220  10.029 -0.0484 -0.4928  0.2510
  647MOL0     C87254   3.427   7.300   9.942  0.7593 -0.6390 -0.1595
  647MOL0    Cl87255   3.322   7.410  10.036 -0.4626  0.2954 -0.1177
  647MOL0     C87256   4.488   7.275   9.861  0.3446 -0.2774 -0.1887
  647MOL0     C87257   4.616   7.221   9.832 -0.2422 -1.1907  0.4572
  647MOL0     O87258   4.761   7.053   9.650 -0.4187  0.8065  0.5521
  647MOL0     C87259   5.020   6.968   9.604 -0.4292 -0.1904 -0.1657
  647MOL0     C87260   5.150   6.924   9.572 -0.6174  0.2299  0.1403
  647MOL0     N87261   5.909   7.022   9.267 -0.1948 -0.4525 -0.4013
  647MOL0     N87262   6.031   7.004   9.221 -0.3381  0.4527 -0.2326
  647MOL0     C87263   7.189   6.383   9.398 -0.0090  0.4991 -0.8513
  647MOL0     C87264   7.327   6.393   9.409  0.1995  0.4175  0.0436
  647MOL0     C87265   7.754   6.526   9.416  0.0186 -0.3065  0.2952
  647MOL0     C87266   7.855   6.499   9.317  1.0049 -0.1448  0.5768
  647MOL0     C87267   7.982   6.547   9.347 -0.0657  0.2566  0.3877
  647MOL0     C87268   8.015   6.628   9.459  0.5718  0.0280 -0.3231
  647MOL0     O87269   8.143   6.665   9.482 -0.0899  0.0616 -0.1564
  647MOL0     C87270   8.199   6.600   9.602  0.6429 -0.8228 -0.1723
  647MOL0     C87271   8.280   6.476   9.573  0.1556  0.5830  0.3442
  647MOL0     C87272   8.387   6.504   9.456 -0.2435 -0.2562  0.3319
  647MOL0     C87273   8.502   6.603   9.485 -0.3337 -0.8670  0.1390
  647MOL0     C87274   8.585   6.567   9.596  0.2789 -0.2999 -0.7611
  647MOL0     C87275   8.679   6.538   9.664  0.1040 -0.4593  0.4607
  647MOL0     C87276   7.911   6.661   9.547 -0.4619  0.1181  0.3146
  647MOL0     C87277   7.787   6.608   9.526  0.3684 -0.2562 -0.7239
  647MOL0     H87278   7.356   6.721   9.465 -4.3028  2.6594 -0.0823
  647MOL0     H87279   7.104   6.702   9.454  1.9703  2.1335 -2.1129
  647MOL0     H87280   6.938   6.353   9.582  1.6639 -0.6989 -0.3581
  647MOL0     H87281   6.918   6.532   9.590 -0.0532  0.9275 -2.5530
  647MOL0     H87282   6.748   6.368   9.412 -4.7153 -1.7169  1.0991
  647MOL0     H87283   6.702   6.371   9.587 -0.0304  1.1322 -0.4500
  647MOL0     H87284   6.648   6.605   9.585  1.3271 -2.0944  2.4734
  647MOL0     H87285   6.757   6.636   9.461 -0.5850 -1.5803 -1.4439
  647MOL0     H87286   6.609   6.534   9.282 -1.9474  1.5750 -1.6294
  647MOL0     H87287   6.515   6.458   9.403  2.0315 -1.7240  0.7336
  647MOL0     H87288   6.466   6.715   9.468  2.7931 -1.0108  0.2344
  647MOL0     H87289   6.537   6.759   9.311 -1.8938  0.0369 -2.0463
  647MOL0     H87290   6.366   6.650   9.180 -0.4841 -1.7656  0.6655
  647MOL0     H87291   6.324   6.544   9.309 -0.4122 -0.7858 -1.9920
  647MOL0     H87292   6.158   6.699   9.250  0.1206 -2.6807  2.6995
  647MOL0     H87293   6.191   6.717   9.422 -0.5137 -1.5099 -0.5703
  647MOL0     H87294   6.282   6.907   9.205 -0.3028 -1.5973 -0.4808
  647MOL0     H87295   6.309   6.916   9.381 -1.3903 -0.8493  1.2759
  647MOL0     H87296   6.070   6.920   9.530  0.0952  1.8183  0.0082
  647MOL0     H87297   5.808   6.911   9.565 -3.8536 -0.6425  0.4503
  647MOL0     H87298   5.777   7.090   9.551  0.1304 -0.8664  1.9882
  647MOL0     H87299   5.658   6.889   9.358  0.3491  2.9055 -1.6336
  647MOL0     H87300   5.610   7.060   9.402  2.6665  2.3151  0.0798
  647MOL0     H87301   5.579   6.984   9.645  1.6070  0.9975 -1.0756
  647MOL0     H87302   5.612   6.812   9.590 -0.1694 -1.0344 -1.5184
  647MOL0     H87303   5.413   6.803   9.452 -0.7655  0.4511 -0.2151
  647MOL0     H87304   5.380   6.967   9.492  0.0646  0.9250  0.8514
  647MOL0     H87305   5.238   6.797   9.877 -0.8613 -0.1950 -0.7343
  647MOL0     H87306   5.035   6.992  10.035 -1.7683  0.1655  0.7640
  647MOL0     H87307   4.903   6.875   9.994  0.4812 -0.3592  0.7338
  647MOL0     H87308   5.062   6.817  10.030  1.3298 -0.5032 -0.3310
  647MOL0     H87309   4.638   6.980  10.070  3.0615 -0.3520 -2.0408
  647MOL0     H87310   4.410   7.056  10.108 -0.1133 -4.0360 -1.7338
  647MOL0     H87311   4.173   7.102  10.049  0.3825 -0.0570  1.2980
  647MOL0     H87312   4.230   7.221  10.161 -0.4235  1.9740  1.3144
  647MOL0     H87313   3.989   7.266  10.146 -0.0087  1.5455  0.2394
  647MOL0     H87314   4.084   7.390  10.058 -1.4476  0.5891  0.4198
  647MOL0     H87315   3.937   7.143   9.940 -3.2182  0.4674 -0.8001
  647MOL0     H87316   4.047   7.252   9.850  1.5394 -0.7222  1.3664
  647MOL0     H87317   3.908   7.437   9.892 -0.4794 -0.1047 -1.0282
  647MOL0     H87318   3.840   7.306   9.794  1.1240 -0.1234 -1.3244
  647MOL0     H87319   3.697   7.423   9.990 -1.4550 -0.7861 -3.1457
  647MOL0     H87320   3.792   7.327  10.104  2.3212  1.4126 -1.0087
  647MOL0     H87321   3.651   7.204   9.853 -0.3743  1.4418  0.1955
  647MOL0     H87322   3.706   7.120   9.997 -2.4952 -1.1417  0.4895
  647MOL0     H87323   3.532   7.261  10.130  2.6296 -0.0996  0.0320
  647MOL0     H87324   3.493   7.118  10.045  0.6502 -0.4392  2.3632
  647MOL0     H87325   3.356   7.235   9.890  0.3119 -0.0840 -0.2506
  647MOL0     H87326   3.485   7.354   9.867  3.1755 -2.2628  0.4168
  647MOL0     H87327   4.441   7.348   9.797  1.3785  0.6936  0.1160
  647MOL0     H87328   4.669   7.266   9.748 -0.4225 -0.4996  0.7063
  647MOL0     H87329   4.963   7.013   9.523  1.2095  1.3449 -0.5371
  647MOL0     H87330   5.170   6.926   9.466 -1.0133  0.0437  0.0593
  647MOL0     H87331   7.147   6.284   9.386 -0.7912  0.8334 -0.9113
  647MOL0     H87332   7.379   6.298   9.398  0.7012  0.7529 -0.5709
  647MOL0     H87333   7.835   6.437   9.230 -0.2363  2.0558 -0.8141
  647MOL0     H87334   8.062   6.518   9.280 -0.2292  1.6887 -0.4834
  647MOL0     H87335   8.258   6.676   9.653  0.2431  0.2350 -1.2352
  647MOL0     H87336   8.125   6.569   9.677  3.3358 -0.4296  2.8674
  647MOL0     H87337   8.209   6.398   9.546  0.2623 -0.8196  3.6194
  647MOL0     H87338   8.326   6.449   9.669 -1.0279 -1.3573  0.4253
  647MOL0     H87339   8.332   6.538   9.368 -1.1651 -3.6495 -0.5784
  647MOL0     H87340   8.437   6.413   9.421  0.0172  0.3777 -0.9694
  647MOL0     H87341   8.466   6.706   9.495 -0.7169 -1.0151  0.3187
  647MOL0     H87342   8.558   6.598   9.391  0.1842 -0.8493  0.4470
  647MOL0     H87343   8.748   6.485   9.726 -1.1523 -1.2239  1.2737
  647MOL0     H87344   7.937   6.742   9.614  0.5862 -0.0818  0.1673
  647MOL0     H87345   7.715   6.641   9.601 -0.2012  1.8464 -2.1057
  648MOL0     O87346   3.411   8.770   8.234  1.1301  0.2652  0.2784
  648MOL0     C87347   3.512   8.766   8.170  0.1277 -0.0133  0.1440
  648MOL0     O87348   3.524   8.749   8.038  0.2144  0.8142  0.7727
  648MOL0     C87349   3.426   8.690   7.960  0.4045  0.3127 -0.4844
  648MOL0     C87350   3.385   8.758   7.848 -0.6102  0.6261  0.5311
  648MOL0     C87351   3.279   8.703   7.774  0.0535  0.1454 -0.3559
  648MOL0     C87352   3.221   8.583   7.797 -0.1600 -0.6900 -0.3378
  648MOL0     O87353   3.109   8.558   7.716  0.0303 -0.0457 -0.5782
  648MOL0     C87354   3.096   8.426   7.663  0.4582  0.5607 -0.0659
  648MOL0     C87355   2.957   8.400   7.595 -1.0139 -0.4624 -0.1039
  648MOL0     C87356   2.834   8.404   7.700 -0.0347 -0.2000 -0.4035
  648MOL0     C87357   2.830   8.297   7.812  0.1785 -0.9442  0.0662
  648MOL0     C87358   2.708   8.329   7.896  0.0166  0.3658  0.6551
  648MOL0     C87359   2.572   8.289   7.827  0.2312  0.0831  0.3793
  648MOL0     C87360   2.449   8.334   7.909 -0.3287 -0.3623 -0.8386
  648MOL0     C87361   2.325   8.260   7.874  0.3039 -0.0552  0.2074
  648MOL0     N87362   2.211   8.284   7.966 -0.3174 -0.4305  0.0263
  648MOL0     C87363   2.071   8.280   7.936 -0.8281  0.1918 -0.4971
  648MOL0     C87364   2.014   8.283   8.053  0.2707 -0.9485  0.5874
  648MOL0     C87365   1.871   8.308   8.077  0.1970  0.1757 -0.3871
  648MOL0     C87366   1.795   8.378   7.957 -0.2413  0.5094 -0.5386
  648MOL0     C87367   1.649   8.402   7.995 -0.0405  0.5735  0.4423
  648MOL0     C87368   1.598   8.524   7.924 -0.2074 -0.3418 -0.4659
  648MOL0     O87369   1.469   8.567   7.976 -0.6805 -0.2133 -0.1553
  648MOL0     C87370   1.344   8.524   7.921  0.5594 -0.2769 -0.3324
  648MOL0     C87371   1.336   8.438   7.812  0.6592  0.7769 -0.0447
  648MOL0     C87372   1.215   8.396   7.754 -1.1384 -0.2168  0.5491
  648MOL0     C87373   1.224   8.325   7.625 -0.5656  0.7433  0.1100
  648MOL0     C87374   1.097   8.430   7.811 -0.1016 -0.7298  0.2940
  648MOL0     C87375   0.961   8.391   7.761 -0.0534 -1.4620 -0.1216
  648MOL0     O87376   0.860   8.476   7.798 -0.9629  0.0659  0.0639
  648MOL0     C87377   0.739   8.459   7.745 -0.3516 -0.3262  0.2280
  648MOL0     C87378   0.728   8.509   7.620 -0.2625  0.3049  0.1899
  648MOL0     C87379   0.604   8.497   7.563 -0.1428 -0.3239  0.5351
  648MOL0     C87380   0.491   8.443   7.630  0.3343 -0.2176 -0.5596
  648MOL0     O87381   0.372   8.451   7.565 -0.3775  0.1399  0.4589
  648MOL0     C87382   0.252   8.428   7.642  0.2888 -0.8704  0.8698
  648MOL0     C87383   0.144   8.476   7.560  0.4692 -0.0911 -0.6042
  648MOL0     C87384  -0.006   8.427   7.585  0.1379  0.7553  0.3393
  648MOL0     C87385  -0.105   8.480   7.480 -0.5442 -0.5055 -0.3095
  648MOL0     C87386  -0.237   8.414   7.505  0.3359  0.7121 -0.0191
  648MOL0     C87387  -0.342   8.465   7.408  0.5740  0.2731  0.0096
  648MOL0     C87388  -0.475   8.403   7.442  0.0393  0.5057 -0.2273
  648MOL0     C87389  -0.592   8.439   7.345  0.2038  0.5460 -0.1166
  648MOL0    Cl87390  -0.742   8.400   7.426 -0.1998 -0.8876  0.0566
  648MOL0     C87391   0.511   8.379   7.760  0.9741  0.3368 -0.6322
  648MOL0     C87392   0.643   8.388   7.815 -0.0554 -1.3754  0.6584
  648MOL0     O87393   0.947   8.301   7.682 -0.4037  0.5385  0.3635
  648MOL0     C87394   1.102   8.522   7.918  0.0962  0.3568 -0.6597
  648MOL0     C87395   1.224   8.567   7.973  0.2693 -0.0126  0.3346
  648MOL0     N87396   2.101   8.267   8.157 -0.1171 -0.2825  0.3287
  648MOL0     N87397   2.222   8.274   8.099 -0.4949  0.4700  0.3684
  648MOL0     C87398   3.286   8.500   7.888 -0.0135 -0.1804  0.1315
  648MOL0     C87399   3.383   8.555   7.975  0.2908 -0.9628  0.5041
  648MOL0     C87400   3.633   8.783   8.244 -0.8044  0.0873 -0.4575
  648MOL0     C87401   3.638   8.817   8.382 -0.7747  0.5909 -0.2728
  648MOL0     C87402   3.753   8.854   8.454 -0.0205 -0.1459 -0.2109
  648MOL0     C87403   3.872   8.842   8.387 -0.1222  0.1202 -0.3843
  648MOL0     O87404   3.982   8.884   8.459  0.6199  0.2742 -0.4881
  648MOL0     C87405   4.106   8.880   8.402  0.7077  0.0036 -0.7030
  648MOL0     C87406   4.207   8.907   8.517 -0.2552  0.4746  0.4179
  648MOL0     C87407   4.355   8.923   8.489  0.8113 -0.2600 -0.5622
  648MOL0     C87408   4.381   9.060   8.419 -0.9752 -0.2240  0.4356
  648MOL0     C87409   4.520   9.059   8.371 -1.1185  0.6678  0.4957
  648MOL0     C87410   4.632   9.035   8.331 -0.0296  0.0369 -0.5526
  648MOL0     C87411   3.876   8.812   8.250  0.5195 -0.0255 -0.3984
  648MOL0     C87412   3.758   8.782   8.179 -0.7177  0.3250  0.7142
  648MOL0     H87413   3.430   8.855   7.831  0.5649  0.3392  1.8289
  648MOL0     H87414   3.240   8.774   7.702 -0.4243  0.8237  0.5543
  648MOL0     H87415   3.169   8.421   7.582 -1.9093  1.6391 -2.4234
  648MOL0     H87416   3.095   8.349   7.741 -0.7353 -0.6551 -1.2230
  648MOL0     H87417   2.935   8.479   7.522  1.2946 -0.2053 -0.5951
  648MOL0     H87418   2.957   8.300   7.551 -0.6203 -0.5632  0.1272
  648MOL0     H87419   2.836   8.504   7.744 -1.2833 -0.3251 -0.0158
  648MOL0     H87420   2.741   8.404   7.643 -1.1538  1.1676  1.3101
  648MOL0     H87421   2.823   8.193   7.778  1.7537 -0.9700 -0.2795
  648MOL0     H87422   2.922   8.295   7.872  0.2790 -0.2476 -0.0546
  648MOL0     H87423   2.720   8.277   7.992 -0.6764 -0.6737  0.1986
  648MOL0     H87424   2.702   8.435   7.923  0.6294 -0.1242  2.9012
  648MOL0     H87425   2.556   8.313   7.722 -1.1779  0.0573  0.5734
  648MOL0     H87426   2.560   8.180   7.826  0.7698  0.0175 -0.4838
  648MOL0     H87427   2.465   8.329   8.017 -2.7622  1.8731 -0.2728
  648MOL0     H87428   2.418   8.437   7.891  1.2929  0.4066  0.5176
  648MOL0     H87429   2.339   8.156   7.844 -2.3789  0.0920 -1.9844
  648MOL0     H87430   2.307   8.295   7.773 -1.4557  0.5068  0.6865
  648MOL0     H87431   2.022   8.276   7.839 -0.1071 -0.4090 -0.8548
  648MOL0     H87432   1.825   8.209   8.091  0.6073 -0.3004 -2.1272
  648MOL0     H87433   1.858   8.361   8.171  1.7867  1.4934 -0.8663
  648MOL0     H87434   1.806   8.322   7.864 -1.0825  1.7522 -1.4179
  648MOL0     H87435   1.848   8.473   7.948 -0.5676  0.9843  1.7690
  648MOL0     H87436   1.632   8.418   8.102 -0.3128 -1.3098  0.7048
  648MOL0     H87437   1.598   8.310   7.966  0.2345  0.6910 -0.4688
  648MOL0     H87438   1.583   8.506   7.817  1.9635  3.9796 -1.6952
  648MOL0     H87439   1.670   8.606   7.928  0.3440 -0.8512  0.2377
  648MOL0     H87440   1.427   8.404   7.763  1.3797 -0.6866  2.1679
  648MOL0     H87441   1.324   8.337   7.582  0.2688  1.5277  2.1396
  648MOL0     H87442   1.189   8.223   7.642 -1.9136  0.9811 -1.0446
  648MOL0     H87443   1.151   8.359   7.550 -0.0009 -1.6767 -1.6815
  648MOL0     H87444   0.808   8.551   7.560  1.0193 -0.2884  1.4191
  648MOL0     H87445   0.583   8.549   7.470 -2.6512 -0.0279  1.1818
  648MOL0     H87446   0.235   8.320   7.649 -0.6740 -0.7043  1.4043
  648MOL0     H87447   0.257   8.485   7.735 -0.0481 -2.2164  1.7361
  648MOL0     H87448   0.150   8.585   7.567  4.1837 -0.2818  2.9055
  648MOL0     H87449   0.166   8.456   7.454  1.2210 -2.2382 -0.0935
  648MOL0     H87450  -0.042   8.441   7.688  0.8889  1.9145  0.4629
  648MOL0     H87451  -0.008   8.319   7.568 -2.2609  0.8459 -0.2017
  648MOL0     H87452  -0.104   8.590   7.477 -0.4981 -0.4840  0.2508
  648MOL0     H87453  -0.068   8.460   7.379  1.9006  2.0595 -0.0763
  648MOL0     H87454  -0.257   8.424   7.612 -1.4565 -3.8468  0.2637
  648MOL0     H87455  -0.233   8.306   7.491  2.3765  0.6376  0.8536
  648MOL0     H87456  -0.345   8.575   7.404 -0.0224  0.2221 -2.0649
  648MOL0     H87457  -0.314   8.430   7.308 -1.7725 -1.9186  0.0190
  648MOL0     H87458  -0.501   8.413   7.548  0.0155 -2.2195  0.0930
  648MOL0     H87459  -0.470   8.293   7.437 -1.4468  0.3744  0.4682
  648MOL0     H87460  -0.575   8.370   7.262  0.3049 -0.5177  0.7520
  648MOL0     H87461  -0.586   8.544   7.315  1.9050  0.2968 -0.7684
  648MOL0     H87462   0.426   8.328   7.804 -0.8344  1.5387 -2.5458
  648MOL0     H87463   0.667   8.346   7.912  2.8317  2.7569  1.9713
  648MOL0     H87464   1.010   8.560   7.961  0.4675  0.2237  0.2901
  648MOL0     H87465   1.208   8.641   8.051 -1.1717  0.7240 -0.6141
  648MOL0     H87466   3.244   8.401   7.885 -0.1780 -0.0833 -1.4074
  648MOL0     H87467   3.431   8.488   8.046 -0.1096 -0.6084  1.1151
  648MOL0     H87468   3.547   8.833   8.439 -0.5210 -3.2066  1.5522
  648MOL0     H87469   3.749   8.890   8.556 -4.3659 -0.9082  0.0400
  648MOL0     H87470   4.123   8.777   8.369 -2.2752 -0.8959  0.2415
  648MOL0     H87471   4.108   8.955   8.323 -1.5496 -0.4992 -1.2853
  648MOL0     H87472   4.195   8.827   8.591  0.5169  2.1080  2.3897
  648MOL0     H87473   4.172   8.999   8.565  2.1530  1.5730  0.2267
  648MOL0     H87474   4.387   8.842   8.422 -0.7162 -0.3872 -1.1828
  648MOL0     H87475   4.414   8.920   8.581 -0.2051 -0.7079  0.0943
  648MOL0     H87476   4.362   9.143   8.488 -0.4105 -0.8761  1.3990
  648MOL0     H87477   4.311   9.074   8.337 -2.4688 -2.9728  1.1246
  648MOL0     H87478   4.736   9.036   8.305  0.7297 -1.2192  2.1043
  648MOL0     H87479   3.969   8.833   8.198  0.2104  1.3915 -0.4147
  648MOL0     H87480   3.768   8.768   8.071  3.7997  1.1934  0.7936
  649MOL0     O87481   6.793   7.473   7.892  0.9826  0.5540  0.0634
  649MOL0     C87482   6.822   7.541   7.799  0.0323  0.3201  0.2896
  649MOL0     O87483   6.740   7.600   7.713  0.4251  0.0576  0.1949
  649MOL0     C87484   6.607   7.599   7.739 -0.0412 -0.4282 -0.5003
  649MOL0     C87485   6.524   7.488   7.718 -0.6575  0.3355  0.1426
  649MOL0     C87486   6.382   7.503   7.731 -0.1381  0.1336  0.4495
  649MOL0     C87487   6.327   7.619   7.778 -0.3881  0.3606 -0.1926
  649MOL0     O87488   6.193   7.623   7.790 -0.6358  0.2059  0.0623
  649MOL0     C87489   6.141   7.700   7.683  0.7750 -0.2977  0.1034
  649MOL0     C87490   5.994   7.662   7.658  1.3098  1.1417 -0.3590
  649MOL0     C87491   5.903   7.721   7.767 -0.1999  0.7223 -0.3921
  649MOL0     C87492   5.761   7.694   7.720 -0.1145 -0.7769 -0.1945
  649MOL0     C87493   5.662   7.757   7.815  0.6190  0.4301  0.5575
  649MOL0     C87494   5.519   7.731   7.767  0.5538  0.3193  0.1937
  649MOL0     C87495   5.425   7.783   7.872  0.0477 -0.5739  0.5472
  649MOL0     C87496   5.282   7.759   7.845  0.7926 -0.1135  0.0666
  649MOL0     N87497   5.197   7.831   7.935 -0.1569  0.5925 -0.7699
  649MOL0     C87498   5.176   7.793   8.073 -0.2207  0.0099 -0.6476
  649MOL0     C87499   5.096   7.888   8.123 -0.2363  0.1721  0.6356
  649MOL0     C87500   5.038   7.900   8.265  0.1043  0.3308  0.4850
  649MOL0     C87501   4.881   7.889   8.265 -0.1801 -0.1688 -0.7073
  649MOL0     C87502   4.811   7.753   8.242 -0.4372  0.5464  0.4161
  649MOL0     C87503   4.655   7.761   8.234 -0.2779  0.5132  0.4825
  649MOL0     O87504   4.613   7.815   8.364 -0.1290  0.1823  0.2589
  649MOL0     C87505   4.493   7.771   8.425 -0.1272 -0.6948 -0.1625
  649MOL0     C87506   4.500   7.760   8.565  0.3527  0.0798 -0.7400
  649MOL0     C87507   4.390   7.725   8.638 -0.1448 -0.6313  0.6511
  649MOL0     C87508   4.406   7.738   8.791  0.2184 -0.4460  0.5991
  649MOL0     C87509   4.271   7.686   8.570 -1.1667  0.5857 -0.1642
  649MOL0     C87510   4.148   7.643   8.637  0.0405 -0.2267  0.7003
  649MOL0     O87511   4.152   7.628   8.769 -0.1831  0.2520  0.3375
  649MOL0     C87512   4.053   7.605   8.860 -0.7147  0.2883  0.4566
  649MOL0     C87513   4.090   7.570   8.989  0.1805  0.4275 -0.3857
  649MOL0     C87514   3.989   7.526   9.078 -0.4104 -0.0339 -0.3596
  649MOL0     C87515   3.854   7.549   9.054  0.0682 -0.4778  0.4495
  649MOL0     O87516   3.753   7.525   9.135  0.6571 -0.3023  0.0671
  649MOL0     C87517   3.758   7.407   9.216  0.5795  0.7019 -0.4711
  649MOL0     C87518   3.620   7.364   9.260  0.2238  0.5205 -0.1563
  649MOL0     C87519   3.625   7.253   9.362 -0.5779  1.0712  0.4575
  649MOL0     C87520   3.488   7.223   9.414 -0.1933  0.5763  0.3071
  649MOL0     C87521   3.485   7.091   9.494  0.6092 -0.2396 -0.6256
  649MOL0     C87522   3.337   7.056   9.550 -0.4937  0.1795 -0.4408
  649MOL0     C87523   3.342   6.907   9.598 -0.4197 -0.4900  0.7614
  649MOL0     C87524   3.205   6.856   9.650  0.7045  0.5448 -0.1978
  649MOL0    Cl87525   3.083   6.882   9.524 -0.2355  0.7067 -0.7363
  649MOL0     C87526   3.816   7.599   8.925  0.1505  0.5127 -0.0803
  649MOL0     C87527   3.916   7.626   8.823  0.2808 -0.9946 -0.3458
  649MOL0     O87528   4.055   7.603   8.569  0.4944  0.7091  0.2370
  649MOL0     C87529   4.267   7.688   8.424  0.1130  0.1477  0.0656
  649MOL0     C87530   4.379   7.730   8.354 -0.5195  0.0460  0.2483
  649MOL0     N87531   5.069   7.976   8.016 -0.0490 -0.6047  0.1329
  649MOL0     N87532   5.134   7.948   7.909 -0.2365  0.1420  0.7030
  649MOL0     C87533   6.416   7.726   7.815  0.4840  0.4887  0.3108
  649MOL0     C87534   6.548   7.715   7.792 -0.1796 -0.7907 -0.0569
  649MOL0     C87535   6.964   7.559   7.766  0.8278 -0.4772 -0.2328
  649MOL0     C87536   7.015   7.657   7.673 -0.7318 -1.3962 -0.0671
  649MOL0     C87537   7.150   7.655   7.634  0.5291 -0.1087 -0.5059
  649MOL0     C87538   7.233   7.593   7.722 -0.5288 -0.0881 -0.4213
  649MOL0     O87539   7.371   7.616   7.713  0.2500 -0.2049  0.7936
  649MOL0     C87540   7.418   7.721   7.796 -0.5681 -0.4735  0.7683
  649MOL0     C87541   7.518   7.799   7.723  0.0337 -0.0362 -0.5217
  649MOL0     C87542   7.645   7.711   7.680 -0.2146  0.7821  0.9853
  649MOL0     C87543   7.738   7.675   7.794  0.4332  0.0363 -0.5889
  649MOL0     C87544   7.804   7.797   7.851  1.4594 -0.5673 -0.9188
  649MOL0     C87545   7.851   7.891   7.912  0.5210 -0.4555  0.3412
  649MOL0     C87546   7.186   7.505   7.822  0.3216 -0.1040 -0.0508
  649MOL0     C87547   7.051   7.480   7.843 -0.1545 -1.3783  0.2931
  649MOL0     H87548   6.554   7.396   7.670 -1.6548 -0.5905  1.2202
  649MOL0     H87549   6.323   7.416   7.705 -0.0169 -0.0132  0.6593
  649MOL0     H87550   6.142   7.808   7.700  2.0746  0.0570 -1.9576
  649MOL0     H87551   6.200   7.693   7.591  2.1630  5.8721  0.0948
  649MOL0     H87552   5.970   7.713   7.564  1.5357 -1.9138 -2.2023
  649MOL0     H87553   5.983   7.555   7.637  0.5307  1.1597 -0.0672
  649MOL0     H87554   5.921   7.674   7.863  1.5159  0.3733 -0.8552
  649MOL0     H87555   5.928   7.825   7.789  3.3668 -0.3341  1.2630
  649MOL0     H87556   5.746   7.739   7.621 -4.7560 -0.8916  0.2356
  649MOL0     H87557   5.744   7.586   7.716  0.3264 -1.0159  2.4555
  649MOL0     H87558   5.677   7.712   7.913 -1.9295  1.0193  1.2945
  649MOL0     H87559   5.681   7.864   7.821 -0.7529  0.6594  1.2009
  649MOL0     H87560   5.496   7.787   7.675 -2.6870 -0.2816  0.5052
  649MOL0     H87561   5.501   7.624   7.757  4.3642 -0.6949  2.3942
  649MOL0     H87562   5.452   7.753   7.974  0.2177  2.2966  1.4559
  649MOL0     H87563   5.436   7.892   7.873  0.1393 -0.5506  2.9512
  649MOL0     H87564   5.277   7.650   7.851 -0.6757 -0.2210 -2.0445
  649MOL0     H87565   5.253   7.790   7.744 -0.2188 -2.2502 -0.3714
  649MOL0     H87566   5.218   7.708   8.125  2.4802  1.2159 -0.6706
  649MOL0     H87567   5.080   7.825   8.333  1.9307  0.7139 -0.1771
  649MOL0     H87568   5.070   7.992   8.316  2.2590 -0.5837  0.9016
  649MOL0     H87569   4.846   7.974   8.206  0.3086  0.7387  0.2648
  649MOL0     H87570   4.847   7.917   8.366  0.7596 -2.1554  0.2112
  649MOL0     H87571   4.827   7.672   8.314 -1.1253 -0.7452 -0.8240
  649MOL0     H87572   4.849   7.715   8.147  2.5191 -1.0216  2.0806
  649MOL0     H87573   4.623   7.662   8.202  0.3516  0.7620 -0.9935
  649MOL0     H87574   4.616   7.829   8.158 -0.4908  1.0607  1.0667
  649MOL0     H87575   4.585   7.802   8.618 -1.7218  0.7994  2.2422
  649MOL0     H87576   4.342   7.818   8.830 -0.0767 -0.4993  0.2290
  649MOL0     H87577   4.379   7.644   8.840 -2.0643 -0.2706 -0.2054
  649MOL0     H87578   4.511   7.755   8.815  0.9149 -0.0462 -2.4381
  649MOL0     H87579   4.195   7.558   9.012  0.0458 -0.7172 -0.3152
  649MOL0     H87580   4.016   7.485   9.175  0.9567  3.0859  0.6981
  649MOL0     H87581   3.806   7.324   9.163  1.3642 -2.0049  3.8979
  649MOL0     H87582   3.810   7.432   9.309  0.8713 -1.3575 -0.0231
  649MOL0     H87583   3.560   7.448   9.296 -1.4746 -0.3595 -0.8131
  649MOL0     H87584   3.563   7.336   9.171 -1.5419  2.9882  0.0945
  649MOL0     H87585   3.689   7.284   9.445  3.0933  1.1692 -2.1615
  649MOL0     H87586   3.668   7.166   9.311  0.3867  1.1435  1.1306
  649MOL0     H87587   3.453   7.308   9.473 -1.8936 -1.1348  1.8755
  649MOL0     H87588   3.412   7.221   9.335  0.2133  1.8356 -0.1463
  649MOL0     H87589   3.555   7.096   9.578  1.9728  1.5291 -1.7903
  649MOL0     H87590   3.509   7.004   9.431 -3.3406 -1.8926 -0.1437
  649MOL0     H87591   3.308   7.123   9.631  2.0821  2.5655 -1.2823
  649MOL0     H87592   3.273   7.057   9.461 -1.2652 -3.8487 -0.1081
  649MOL0     H87593   3.417   6.892   9.676 -2.6547 -1.8823  2.8043
  649MOL0     H87594   3.372   6.840   9.517  1.9415 -0.2740  1.3966
  649MOL0     H87595   3.168   6.922   9.728 -1.2471  1.4009 -1.7632
  649MOL0     H87596   3.200   6.753   9.687 -2.1059  0.9524  0.7906
  649MOL0     H87597   3.712   7.609   8.897  0.3669  1.9957 -0.4552
  649MOL0     H87598   3.879   7.654   8.725  0.7711  2.2838  0.2953
  649MOL0     H87599   4.180   7.671   8.361 -2.3529  1.1736  2.9530
  649MOL0     H87600   4.369   7.745   8.246  3.5682  0.6423 -0.2024
  649MOL0     H87601   6.379   7.813   7.869  2.1104  1.8174 -0.6012
  649MOL0     H87602   6.605   7.805   7.815 -2.9250  0.7505  1.2094
  649MOL0     H87603   6.950   7.727   7.622  0.5129  0.1348  0.3833
  649MOL0     H87604   7.189   7.727   7.563  0.4129 -0.2284 -0.6913
  649MOL0     H87605   7.340   7.790   7.828  1.1339  1.0303  1.8114
  649MOL0     H87606   7.460   7.658   7.875  0.4382 -2.9306 -1.5262
  649MOL0     H87607   7.560   7.882   7.780 -0.8764 -0.7095  1.1910
  649MOL0     H87608   7.481   7.840   7.629 -0.6550 -0.3397 -0.3861
  649MOL0     H87609   7.697   7.763   7.599 -0.2551 -1.3451 -0.4879
  649MOL0     H87610   7.608   7.624   7.624  0.9263  1.0224 -0.1863
  649MOL0     H87611   7.819   7.610   7.759 -1.9924 -2.7744 -1.3384
  649MOL0     H87612   7.691   7.614   7.871  3.8430 -0.2656  1.4784
  649MOL0     H87613   7.908   7.948   7.982  1.0695 -2.0633  1.2831
  649MOL0     H87614   7.251   7.449   7.888  0.1377  0.7539  0.8731
  649MOL0     H87615   7.022   7.406   7.917  0.5082  1.0076  3.1348
  650MOL0     O87616   5.462   3.665   1.126  0.4153 -0.2674  0.0943
  650MOL0     C87617   5.477   3.744   1.035 -0.2572 -0.6665  0.7930
  650MOL0     O87618   5.381   3.832   0.984 -0.2266 -0.3866 -1.0984
  650MOL0     C87619   5.254   3.817   1.009 -0.2807  0.8747  0.1640
  650MOL0     C87620   5.168   3.921   1.031 -0.5157 -1.2040  1.0485
  650MOL0     C87621   5.029   3.908   1.053  0.3966  0.4272  0.3448
  650MOL0     C87622   4.966   3.782   1.055 -0.5495 -0.4142 -0.3754
  650MOL0     O87623   4.830   3.753   1.054 -0.2496  0.1603 -0.1181
  650MOL0     C87624   4.756   3.811   1.158 -0.7903 -0.4827  0.0045
  650MOL0     C87625   4.648   3.729   1.209  1.2427  0.3716  0.4190
  650MOL0     C87626   4.562   3.685   1.091 -0.2647 -0.0606  0.6510
  650MOL0     C87627   4.444   3.602   1.139  0.4344 -0.2836 -0.7285
  650MOL0     C87628   4.351   3.577   1.020 -0.0335  0.1112  1.0726
  650MOL0     C87629   4.233   3.487   1.067  0.8713  0.5603 -0.4113
  650MOL0     C87630   4.125   3.483   0.956 -1.1743  0.0275  0.2737
  650MOL0     C87631   4.017   3.388   0.999  0.1343  0.0307 -0.6876
  650MOL0     N87632   3.896   3.459   1.048  0.2072  0.2412  0.1239
  650MOL0     C87633   3.813   3.539   0.973  0.0536 -0.5091  0.0345
  650MOL0     C87634   3.724   3.588   1.065  0.5911  0.1283  0.2845
  650MOL0     C87635   3.609   3.682   1.041  0.7209 -1.0480 -0.0512
  650MOL0     C87636   3.475   3.617   1.029  0.2945 -0.1643  0.3263
  650MOL0     C87637   3.358   3.706   1.003 -0.8109  0.6088  0.4933
  650MOL0     C87638   3.382   3.777   0.866  0.0863 -0.0579  0.1376
  650MOL0     O87639   3.281   3.878   0.852  0.6048 -0.0723  0.8596
  650MOL0     C87640   3.166   3.835   0.783  0.5660 -0.6796 -0.6160
  650MOL0     C87641   3.153   3.716   0.703  0.8659 -0.5767 -1.0435
  650MOL0     C87642   3.036   3.680   0.643  1.1307 -0.3304 -0.9157
  650MOL0     C87643   3.034   3.555   0.557 -0.0667  0.2350 -0.3521
  650MOL0     C87644   2.919   3.766   0.658  0.7395 -0.4787  0.2514
  650MOL0     C87645   2.779   3.727   0.599  0.8323 -0.4492  0.1109
  650MOL0     O87646   2.770   3.625   0.510 -0.0190 -0.2019 -0.1619
  650MOL0     C87647   2.646   3.560   0.499  0.0529 -0.3935  0.7110
  650MOL0     C87648   2.539   3.622   0.420 -0.5115 -0.0836 -0.2880
  650MOL0     C87649   2.413   3.561   0.412  0.0051 -0.4452  0.4348
  650MOL0     C87650   2.386   3.441   0.460  0.1850 -0.1180 -0.6196
  650MOL0     O87651   2.265   3.370   0.449  0.6260 -1.1976  0.0004
  650MOL0     C87652   2.143   3.443   0.449 -0.5634  0.6385 -0.1694
  650MOL0     C87653   2.108   3.464   0.297  0.0607  1.2350 -0.6716
  650MOL0     C87654   1.999   3.565   0.290 -0.6329 -0.2151  0.0022
  650MOL0     C87655   1.859   3.513   0.276  0.2182  0.4419  0.4275
  650MOL0     C87656   1.745   3.616   0.278 -1.1087  0.3219 -0.4932
  650MOL0     C87657   1.799   3.735   0.197  0.3640 -0.4860  0.5865
  650MOL0     C87658   1.678   3.836   0.169  0.2644 -0.4571  0.2300
  650MOL0     C87659   1.568   3.794   0.070  0.1069 -0.0011 -0.1994
  650MOL0    Cl87660   1.448   3.925   0.073 -0.0753  0.0659 -0.1559
  650MOL0     C87661   2.486   3.382   0.542 -0.4266 -0.1879 -0.8945
  650MOL0     C87662   2.621   3.431   0.548 -0.5847 -1.2166 -0.4569
  650MOL0     O87663   2.683   3.798   0.631  0.1223  0.2769  0.7524
  650MOL0     C87664   2.935   3.882   0.730  0.3713  0.1605 -0.2378
  650MOL0     C87665   3.059   3.927   0.783  0.7462  0.2349 -0.4354
  650MOL0     N87666   3.765   3.557   1.192  0.5557 -0.0866 -0.2014
  650MOL0     N87667   3.868   3.479   1.184  0.5503  0.4999 -0.5427
  650MOL0     C87668   5.051   3.668   1.031 -0.3166 -0.5612 -0.0301
  650MOL0     C87669   5.193   3.691   1.015  0.6345 -0.7074 -0.0197
  650MOL0     C87670   5.610   3.771   0.985  0.2545 -1.0354  0.1843
  650MOL0     C87671   5.630   3.880   0.886  1.2354  0.4800 -1.1806
  650MOL0     C87672   5.755   3.906   0.827 -0.1358  0.7340 -0.6695
  650MOL0     C87673   5.865   3.823   0.867 -0.0772 -0.2658  0.7378
  650MOL0     O87674   5.984   3.848   0.795  0.1247  0.0012 -0.5074
  650MOL0     C87675   5.996   3.786   0.666 -0.7512 -0.5959  0.0369
  650MOL0     C87676   6.048   3.640   0.690  0.3028  0.4715  0.4959
  650MOL0     C87677   6.202   3.634   0.711  0.1506 -0.7151  0.4998
  650MOL0     C87678   6.227   3.479   0.751  0.3152 -0.2863 -0.4186
  650MOL0     C87679   6.370   3.443   0.747 -0.1580 -1.3303  0.1758
  650MOL0     C87680   6.488   3.412   0.731 -0.5842  0.5623 -0.7194
  650MOL0     C87681   5.847   3.725   0.960  0.4258  0.0582 -0.3647
  650MOL0     C87682   5.721   3.694   1.017  0.1066 -0.5082 -0.4950
  650MOL0     H87683   5.219   4.016   1.041  0.5311 -1.7823  1.4614
  650MOL0     H87684   4.967   3.996   1.068  0.9788  0.9872 -0.4573
  650MOL0     H87685   4.821   3.827   1.245  1.1050 -1.0962 -1.2590
  650MOL0     H87686   4.719   3.909   1.127 -1.3805 -0.2474  1.3688
  650MOL0     H87687   4.683   3.636   1.255 -0.0386 -1.3120 -1.7874
  650MOL0     H87688   4.585   3.778   1.284  1.2027  0.2329  0.4759
  650MOL0     H87689   4.531   3.772   1.032 -0.4743 -0.7049 -0.2166
  650MOL0     H87690   4.621   3.618   1.027  0.2612  1.0034 -0.0053
  650MOL0     H87691   4.473   3.510   1.190  0.8308  1.3017  2.0696
  650MOL0     H87692   4.406   3.672   1.214  1.3999  0.7824 -1.2071
  650MOL0     H87693   4.325   3.676   0.980  2.2312  0.8080  1.1924
  650MOL0     H87694   4.395   3.520   0.938 -1.9053 -1.0156  0.7836
  650MOL0     H87695   4.276   3.388   1.088 -2.1238 -0.7434  0.0715
  650MOL0     H87696   4.194   3.520   1.164  1.6471  2.0929 -0.5955
  650MOL0     H87697   4.084   3.582   0.932 -2.7914 -1.4106 -3.6579
  650MOL0     H87698   4.165   3.445   0.862 -2.3713  2.1623 -1.1823
  650MOL0     H87699   4.045   3.321   1.081 -2.3094  1.6933  1.6351
  650MOL0     H87700   3.992   3.323   0.914  2.0799 -0.6963 -0.7746
  650MOL0     H87701   3.810   3.555   0.865  4.1107 -2.4583 -0.5673
  650MOL0     H87702   3.610   3.764   1.113 -1.0019 -0.0496 -1.0918
  650MOL0     H87703   3.632   3.728   0.945 -1.6646 -0.7226 -0.5272
  650MOL0     H87704   3.450   3.560   1.119 -2.6058  0.4228 -0.0029
  650MOL0     H87705   3.470   3.549   0.944 -2.8961  0.0034  0.2354
  650MOL0     H87706   3.334   3.769   1.089  2.1626  0.3417  1.6518
  650MOL0     H87707   3.266   3.648   0.989 -0.8640  0.0772  2.6231
  650MOL0     H87708   3.403   3.714   0.779  0.4666  2.3498 -1.6427
  650MOL0     H87709   3.475   3.835   0.872  1.5427 -2.0905 -1.3231
  650MOL0     H87710   3.224   3.635   0.716  1.2095 -0.2591 -0.8986
  650MOL0     H87711   2.955   3.482   0.577 -0.1077 -0.3695 -2.4999
  650MOL0     H87712   3.032   3.582   0.452 -3.2494  0.8660 -0.2183
  650MOL0     H87713   3.127   3.498   0.558 -0.2197 -0.0190 -0.5092
  650MOL0     H87714   2.553   3.718   0.373  2.7464  0.4197  1.3472
  650MOL0     H87715   2.342   3.625   0.360  1.8212  0.3365 -1.2003
  650MOL0     H87716   2.075   3.373   0.497  1.7236 -1.2147  0.5442
  650MOL0     H87717   2.158   3.529   0.515  3.6298 -0.5382  0.6638
  650MOL0     H87718   2.197   3.507   0.250  0.1061  1.4319 -0.4063
  650MOL0     H87719   2.071   3.373   0.248  0.6233  1.0063 -0.6833
  650MOL0     H87720   2.022   3.633   0.208  0.4426 -0.2351  0.2768
  650MOL0     H87721   2.001   3.631   0.378  0.1397 -0.5459  0.2354
  650MOL0     H87722   1.853   3.458   0.181 -0.1716  1.5111 -0.1878
  650MOL0     H87723   1.837   3.436   0.350  0.6893  0.2978  0.4200
  650MOL0     H87724   1.726   3.650   0.380 -1.0645 -4.5097  1.4212
  650MOL0     H87725   1.661   3.567   0.228 -0.1421 -1.0710 -0.8026
  650MOL0     H87726   1.873   3.794   0.252  2.9404 -2.1316 -0.9309
  650MOL0     H87727   1.845   3.699   0.106 -0.3071 -3.2059  1.2334
  650MOL0     H87728   1.718   3.933   0.139  1.2298 -1.1831 -0.9159
  650MOL0     H87729   1.634   3.853   0.268  3.1365 -0.7788  1.6793
  650MOL0     H87730   1.534   3.693   0.097  1.2934  0.0679  1.7629
  650MOL0     H87731   1.612   3.774  -0.028 -0.5989 -1.4028 -0.2629
  650MOL0     H87732   2.464   3.286   0.588 -1.3569 -0.3810 -1.7220
  650MOL0     H87733   2.691   3.391   0.621 -1.7078  1.1827  2.1343
  650MOL0     H87734   2.840   3.935   0.742 -1.1587 -2.3520 -0.5151
  650MOL0     H87735   3.061   4.021   0.838  1.2881 -1.0749  1.8760
  650MOL0     H87736   5.002   3.572   1.016 -3.2191  0.7225  0.5945
  650MOL0     H87737   5.249   3.600   0.994  0.7733 -0.1374 -2.4325
  650MOL0     H87738   5.543   3.941   0.865  0.2647  0.7632  2.8128
  650MOL0     H87739   5.778   3.982   0.753 -2.5182  0.5839 -1.6405
  650MOL0     H87740   5.903   3.781   0.608 -0.5663  0.0500 -0.3326
  650MOL0     H87741   6.075   3.830   0.605  0.7502 -3.2942 -0.0947
  650MOL0     H87742   6.006   3.591   0.602 -0.1380  0.7666  0.5362
  650MOL0     H87743   5.995   3.598   0.777 -1.7276 -1.7142 -1.6489
  650MOL0     H87744   6.234   3.696   0.794 -1.5288  1.7943 -0.6134
  650MOL0     H87745   6.246   3.663   0.615 -2.4336  3.4468  0.3513
  650MOL0     H87746   6.178   3.423   0.670 -0.2474 -0.1059 -0.2050
  650MOL0     H87747   6.188   3.453   0.849  1.9363 -2.4129 -0.2599
  650MOL0     H87748   6.587   3.373   0.723 -0.4819  0.4198  0.9411
  650MOL0     H87749   5.926   3.658   0.993 -0.1730 -0.9305 -0.8812
  650MOL0     H87750   5.715   3.610   1.085 -0.9406  0.2775  0.4306
  651MOL0     O87751   8.370   5.707   5.856  0.3675  0.1881  0.0201
  651MOL0     C87752   8.450   5.767   5.784 -0.2002 -0.6336  0.3062
  651MOL0     O87753   8.423   5.838   5.663  1.1571  0.4726 -0.3594
  651MOL0     C87754   8.292   5.823   5.608 -0.4624 -0.2737 -0.2241
  651MOL0     C87755   8.221   5.704   5.604  0.0222  0.2810 -0.0215
  651MOL0     C87756   8.096   5.707   5.548  0.0482 -0.6855 -0.2260
  651MOL0     C87757   8.038   5.831   5.503  0.3133  0.2606 -0.4234
  651MOL0     O87758   7.910   5.824   5.452 -0.9206 -0.7737  0.1107
  651MOL0     C87759   7.842   5.951   5.420 -0.5613  0.4592 -0.5200
  651MOL0     C87760   7.720   5.902   5.365 -0.3170 -0.1508  0.5927
  651MOL0     C87761   7.613   5.837   5.454  0.4162 -0.2347  0.0073
  651MOL0     C87762   7.492   5.797   5.361  0.1613 -0.3972 -0.6605
  651MOL0     C87763   7.375   5.723   5.425 -0.2522  0.4783  0.1916
  651MOL0     C87764   7.416   5.578   5.475 -0.1345 -1.1843 -0.2128
  651MOL0     C87765   7.405   5.483   5.356  0.0246  0.2330 -0.0873
  651MOL0     C87766   7.489   5.357   5.373  0.2292 -0.7021 -0.5136
  651MOL0     N87767   7.463   5.267   5.260  0.1916  0.1631  0.1106
  651MOL0     C87768   7.394   5.145   5.277  0.1581 -0.1158  0.4058
  651MOL0     C87769   7.358   5.112   5.148 -0.8466 -0.2999 -0.5857
  651MOL0     C87770   7.293   4.977   5.109 -0.1029  0.8807  0.1295
  651MOL0     C87771   7.143   4.979   5.164 -0.5029  0.1851  0.0868
  651MOL0     C87772   7.048   5.076   5.076  0.0210  0.1448 -0.6883
  651MOL0     C87773   6.903   5.069   5.120 -0.1025  0.3108  0.4219
  651MOL0     O87774   6.827   5.140   5.028  0.6400  0.5321  0.0340
  651MOL0     C87775   6.690   5.178   5.061 -0.2529 -0.5349  0.3937
  651MOL0     C87776   6.628   5.247   4.962 -0.3807 -0.5045  0.3194
  651MOL0     C87777   6.493   5.279   4.967  0.0801 -0.3132  0.9420
  651MOL0     C87778   6.433   5.358   4.847 -0.3962 -0.1023  0.0691
  651MOL0     C87779   6.419   5.260   5.085  0.2057  0.0021 -0.6651
  651MOL0     C87780   6.276   5.309   5.110  0.0141  0.0820 -0.4542
  651MOL0     O87781   6.216   5.243   5.213 -0.4574 -0.3899 -0.3202
  651MOL0     C87782   6.088   5.284   5.250  0.8069 -0.2902  0.5472
  651MOL0     C87783   5.981   5.308   5.157 -1.4937  0.4159  0.8827
  651MOL0     C87784   5.852   5.315   5.204  0.1391  0.2652 -0.9784
  651MOL0     C87785   5.822   5.342   5.342  0.9950  0.2795  0.7432
  651MOL0     O87786   5.688   5.368   5.375 -0.0119 -0.2478  0.4090
  651MOL0     C87787   5.655   5.403   5.507 -0.8392 -0.0708 -0.2259
  651MOL0     C87788   5.503   5.415   5.524  0.2792 -0.5532  0.4784
  651MOL0     C87789   5.432   5.288   5.502  0.2974  0.6390  0.6988
  651MOL0     C87790   5.283   5.303   5.561  0.6683  0.3131 -0.6110
  651MOL0     C87791   5.216   5.172   5.541 -0.0751  0.1144  0.7779
  651MOL0     C87792   5.102   5.153   5.636 -0.3500 -0.0344  1.1547
  651MOL0     C87793   4.998   5.261   5.603 -0.3314  0.6194 -0.2007
  651MOL0     C87794   4.891   5.237   5.719 -0.1837 -0.4466 -0.2040
  651MOL0    Cl87795   4.775   5.364   5.702 -0.3459 -0.1946 -0.0418
  651MOL0     C87796   5.927   5.323   5.429 -0.0029  0.3687 -0.5192
  651MOL0     C87797   6.058   5.291   5.390 -0.0605  0.4519  0.4211
  651MOL0     O87798   6.222   5.398   5.044  0.2565  0.3339 -0.0831
  651MOL0     C87799   6.490   5.196   5.189  0.5554  0.0623  0.0593
  651MOL0     C87800   6.622   5.152   5.185  0.8006 -0.3298 -0.3381
  651MOL0     N87801   7.424   5.207   5.063  0.1554 -0.3556 -0.6068
  651MOL0     N87802   7.487   5.298   5.130 -0.2675  0.6520  0.1829
  651MOL0     C87803   8.107   5.946   5.520 -0.4579 -0.8277  0.6670
  651MOL0     C87804   8.227   5.945   5.570  0.4312  0.0741 -1.4650
  651MOL0     C87805   8.587   5.756   5.836 -0.5616  0.4223 -0.7088
  651MOL0     C87806   8.630   5.641   5.904  0.4331 -1.1392 -0.2174
  651MOL0     C87807   8.762   5.639   5.955  1.5735  0.2671  0.2378
  651MOL0     C87808   8.847   5.749   5.930  0.1328 -0.0895 -0.2120
  651MOL0     O87809   8.974   5.738   5.970  0.3775  0.7098  0.1947
  651MOL0     C87810   9.068   5.649   5.900  0.0562 -0.2978 -0.5327
  651MOL0     C87811   9.182   5.597   5.989  0.3894  0.3623 -0.7696
  651MOL0     C87812   9.114   5.519   6.106 -1.0139  0.7513  0.2736
  651MOL0     C87813   9.034   5.389   6.072 -0.8258 -0.1553 -0.5934
  651MOL0     C87814   9.122   5.299   5.995 -0.3738 -0.5284 -0.2694
  651MOL0     C87815   9.180   5.208   5.934 -0.3708 -0.4736  0.3061
  651MOL0     C87816   8.802   5.861   5.858  0.2626  0.6670  0.4219
  651MOL0     C87817   8.677   5.863   5.811  0.7432 -0.1606 -0.2922
  651MOL0     H87818   8.264   5.610   5.637 -0.1216  0.5105  0.8543
  651MOL0     H87819   8.032   5.621   5.533 -3.7685  1.9236 -0.2660
  651MOL0     H87820   7.831   6.011   5.511  2.1470 -0.8133  0.7778
  651MOL0     H87821   7.896   6.003   5.340 -2.2410 -0.1582 -2.1188
  651MOL0     H87822   7.670   5.991   5.324  1.4196  1.9875  2.8176
  651MOL0     H87823   7.753   5.831   5.288  0.2533  0.0415  0.6570
  651MOL0     H87824   7.652   5.745   5.498 -2.4063 -1.6909 -0.3014
  651MOL0     H87825   7.576   5.905   5.531 -0.2046  0.2295 -0.6892
  651MOL0     H87826   7.452   5.895   5.332  0.4494  0.9863  2.9939
  651MOL0     H87827   7.534   5.743   5.276  0.9307 -1.1851  0.1995
  651MOL0     H87828   7.341   5.773   5.516  0.2993  4.2949 -1.5150
  651MOL0     H87829   7.290   5.716   5.357  0.9912  1.2476 -1.5274
  651MOL0     H87830   7.517   5.571   5.516  0.1686 -1.5206 -0.9993
  651MOL0     H87831   7.346   5.551   5.554 -2.6227 -0.5682 -2.0616
  651MOL0     H87832   7.299   5.458   5.351 -0.1459  0.1686  2.5355
  651MOL0     H87833   7.430   5.525   5.258  1.5711 -2.0260 -0.7324
  651MOL0     H87834   7.476   5.301   5.465  2.0579 -0.4512 -0.0542
  651MOL0     H87835   7.593   5.392   5.371  0.1844 -0.5929 -1.4462
  651MOL0     H87836   7.379   5.089   5.369 -2.1314 -2.5319 -1.3041
  651MOL0     H87837   7.280   4.979   5.000 -2.9417 -3.1100  0.1882
  651MOL0     H87838   7.351   4.896   5.154  1.9919  1.9773 -0.4825
  651MOL0     H87839   7.130   5.015   5.267 -0.2220  1.7300 -0.3859
  651MOL0     H87840   7.106   4.878   5.148 -0.9046  0.2815  0.3914
  651MOL0     H87841   7.051   5.049   4.970 -0.3256  1.1082 -0.9543
  651MOL0     H87842   7.079   5.179   5.095 -1.5920  0.4173  0.7824
  651MOL0     H87843   6.895   5.109   5.222 -1.3101  2.4683 -0.4473
  651MOL0     H87844   6.873   4.964   5.119  0.8270  0.0449 -0.1422
  651MOL0     H87845   6.689   5.269   4.875  1.4975  0.0294  1.7168
  651MOL0     H87846   6.490   5.348   4.754 -0.5736 -0.3271 -0.0160
  651MOL0     H87847   6.334   5.323   4.818 -0.1529  0.6158 -1.7554
  651MOL0     H87848   6.418   5.462   4.877 -2.2697 -0.1763 -0.4963
  651MOL0     H87849   5.995   5.323   5.051 -0.2727 -1.4309  0.7424
  651MOL0     H87850   5.775   5.333   5.128  0.5464 -2.5579 -2.1849
  651MOL0     H87851   5.688   5.318   5.569 -1.2967 -0.1872 -0.1374
  651MOL0     H87852   5.712   5.490   5.541 -1.0443  1.5956 -3.7342
  651MOL0     H87853   5.503   5.435   5.631  0.4245 -0.2713  0.4262
  651MOL0     H87854   5.473   5.501   5.462 -1.5493 -2.0228 -0.7926
  651MOL0     H87855   5.486   5.201   5.542 -1.3055 -0.8520 -0.2197
  651MOL0     H87856   5.426   5.261   5.396 -0.6452  0.9339  0.6694
  651MOL0     H87857   5.293   5.322   5.668 -1.3245  1.0439 -0.5106
  651MOL0     H87858   5.232   5.385   5.509 -1.6465 -1.3777 -1.2006
  651MOL0     H87859   5.290   5.097   5.573  0.1649  0.0718  0.1341
  651MOL0     H87860   5.198   5.143   5.437 -0.3414  0.4279  0.7388
  651MOL0     H87861   5.062   5.052   5.623  0.7422 -0.2817 -0.5555
  651MOL0     H87862   5.137   5.177   5.736  1.0928 -0.2432  0.7211
  651MOL0     H87863   4.945   5.242   5.509 -4.3239 -1.8672  2.2575
  651MOL0     H87864   5.037   5.362   5.620 -0.2038  0.7368 -1.1037
  651MOL0     H87865   4.929   5.250   5.820 -1.1111  0.9267 -0.0043
  651MOL0     H87866   4.833   5.145   5.705 -0.4317 -0.0086 -2.5424
  651MOL0     H87867   5.916   5.326   5.538  2.4374  2.7013 -0.2478
  651MOL0     H87868   6.139   5.272   5.459 -0.6283  2.8037  1.8421
  651MOL0     H87869   6.433   5.169   5.278  1.7157  1.3668  1.2478
  651MOL0     H87870   6.673   5.103   5.268  0.5143  1.0690  0.7058
  651MOL0     H87871   8.074   6.041   5.481  1.0522  0.1426  1.6233
  651MOL0     H87872   8.294   6.029   5.582 -0.8547  0.8716  0.8269
  651MOL0     H87873   8.552   5.572   5.934 -2.6919  1.5275 -1.5004
  651MOL0     H87874   8.791   5.569   6.032 -0.1659 -1.0104 -0.2181
  651MOL0     H87875   9.015   5.566   5.854  1.5590 -1.2719 -0.5492
  651MOL0     H87876   9.117   5.720   5.833  0.6677  1.3124  1.4764
  651MOL0     H87877   9.249   5.677   6.022  0.3733  0.1334 -0.1598
  651MOL0     H87878   9.255   5.527   5.947  2.9735  2.1056  0.5571
  651MOL0     H87879   9.055   5.590   6.166 -0.6938 -0.7547  2.4546
  651MOL0     H87880   9.190   5.482   6.174 -0.0657  0.6838 -0.7944
  651MOL0     H87881   8.951   5.421   6.007  0.5111  2.8431 -1.0186
  651MOL0     H87882   8.991   5.328   6.152  2.0054 -0.8182  0.5381
  651MOL0     H87883   9.230   5.129   5.880  2.3420  0.9953  0.4825
  651MOL0     H87884   8.873   5.942   5.841 -0.5047  1.2896  0.0952
  651MOL0     H87885   8.646   5.952   5.759 -0.5610  0.0172  0.7381
  652MOL0     O87886   6.573   2.257   8.671  0.3494  0.0820 -0.5879
  652MOL0     C87887   6.581   2.228   8.792  0.8587  0.0788 -0.1829
  652MOL0     O87888   6.463   2.227   8.874  0.2386 -0.8919 -0.5875
  652MOL0     C87889   6.359   2.310   8.845 -0.6725  0.5092  0.3451
  652MOL0     C87890   6.368   2.434   8.780  0.4395  0.7145 -0.5785
  652MOL0     C87891   6.251   2.501   8.742  0.6114  0.1306 -0.2236
  652MOL0     C87892   6.119   2.448   8.759  0.0172 -0.0435 -0.2398
  652MOL0     O87893   6.017   2.533   8.722 -0.8700  0.2805  0.4459
  652MOL0     C87894   5.883   2.511   8.762  0.7966 -0.5321  0.0385
  652MOL0     C87895   5.784   2.590   8.684  0.3686  0.3255 -0.3391
  652MOL0     C87896   5.796   2.743   8.682 -0.1185  0.1122 -0.8761
  652MOL0     C87897   5.677   2.790   8.606  0.7563  0.1520  0.0480
  652MOL0     C87898   5.690   2.945   8.566 -0.0006  0.2818 -0.7751
  652MOL0     C87899   5.550   2.997   8.521 -0.9922 -0.4226  0.0016
  652MOL0     C87900   5.556   3.145   8.495 -0.0789  0.9216  0.5663
  652MOL0     C87901   5.440   3.185   8.403  0.3576 -0.7045  0.1765
  652MOL0     N87902   5.419   3.328   8.388  0.0561  0.4582 -0.3599
  652MOL0     C87903   5.389   3.410   8.495  0.5689  0.9201  0.6586
  652MOL0     C87904   5.366   3.532   8.433 -0.2204  0.0419 -0.5502
  652MOL0     C87905   5.322   3.656   8.495  0.2065 -0.5247 -0.1166
  652MOL0     C87906   5.171   3.670   8.493  0.0135 -0.3481 -0.5002
  652MOL0     C87907   5.128   3.800   8.576 -0.8987  0.2237 -0.2088
  652MOL0     C87908   4.978   3.831   8.536 -0.7127  0.5111  0.0949
  652MOL0     O87909   4.894   3.728   8.594 -0.0224  0.1434  0.5054
  652MOL0     C87910   4.756   3.731   8.572 -0.3539  0.2653 -0.3808
  652MOL0     C87911   4.685   3.832   8.507 -0.4530  0.0853  0.1698
  652MOL0     C87912   4.544   3.824   8.493  0.6731 -0.5181  0.2668
  652MOL0     C87913   4.486   3.936   8.405  0.2682 -0.8287 -0.2192
  652MOL0     C87914   4.471   3.712   8.547 -0.1608  0.4332 -0.0816
  652MOL0     C87915   4.321   3.690   8.530  0.4460 -0.6252 -0.7458
  652MOL0     O87916   4.237   3.804   8.531  0.5347  0.1758 -0.3742
  652MOL0     C87917   4.100   3.784   8.537 -0.6788 -0.0537  0.5873
  652MOL0     C87918   4.048   3.710   8.636  0.7502 -0.4308  0.2189
  652MOL0     C87919   3.915   3.678   8.639 -0.1675 -0.1192 -0.8162
  652MOL0     C87920   3.825   3.739   8.543 -0.8785  0.4698  0.3842
  652MOL0     O87921   3.696   3.705   8.525 -0.5636 -0.5910 -0.8046
  652MOL0     C87922   3.641   3.595   8.594 -0.2705 -0.4724 -0.0501
  652MOL0     C87923   3.503   3.560   8.517 -0.5614 -0.1133 -1.0467
  652MOL0     C87924   3.395   3.481   8.601 -0.5494  0.3992 -0.9872
  652MOL0     C87925   3.260   3.485   8.523 -0.7721 -0.2156  0.7723
  652MOL0     C87926   3.173   3.380   8.590  0.4104 -1.0370 -0.6498
  652MOL0     C87927   3.023   3.384   8.527 -0.5212 -0.0956  0.1734
  652MOL0     C87928   2.947   3.246   8.543 -0.3070 -0.3159 -0.3788
  652MOL0     C87929   2.849   3.237   8.428  0.0266 -0.6566  0.4372
  652MOL0    Cl87930   2.757   3.086   8.444  0.4977  0.3505 -0.4133
  652MOL0     C87931   3.883   3.814   8.443  0.1796  0.2786 -0.3739
  652MOL0     C87932   4.021   3.845   8.434 -0.7451  0.0433  0.9907
  652MOL0     O87933   4.282   3.577   8.530 -0.2687 -0.0250  1.2082
  652MOL0     C87934   4.547   3.618   8.619 -0.0531 -0.4210 -0.6191
  652MOL0     C87935   4.682   3.629   8.633 -1.1739 -0.8744 -0.7203
  652MOL0     N87936   5.400   3.526   8.301  0.2891 -0.6243 -0.7856
  652MOL0     N87937   5.432   3.401   8.276 -0.1117  0.1784  0.2988
  652MOL0     C87938   6.120   2.323   8.813 -0.2649  0.4269  0.2883
  652MOL0     C87939   6.230   2.255   8.861  0.1750 -0.6642 -0.8056
  652MOL0     C87940   6.702   2.185   8.857  0.3067 -0.6416  0.0603
  652MOL0     C87941   6.707   2.124   8.984  0.3525 -0.4448 -0.4581
  652MOL0     C87942   6.832   2.089   9.045  0.3307  0.6201 -0.5585
  652MOL0     C87943   6.948   2.110   8.967  0.1966  0.3024 -0.5712
  652MOL0     O87944   7.076   2.064   9.012  0.0360 -0.4712 -0.3715
  652MOL0     C87945   7.092   2.027   9.152  0.1863 -2.0479  0.1624
  652MOL0     C87946   7.239   2.020   9.187 -0.7802 -0.4874  0.5802
  652MOL0     C87947   7.298   1.881   9.174 -0.4435 -0.7378  0.1355
  652MOL0     C87948   7.455   1.869   9.167 -0.8826  0.8276 -0.7134
  652MOL0     C87949   7.520   1.928   9.048 -0.0130  0.0156  0.1672
  652MOL0     C87950   7.571   1.986   8.957 -0.0943 -0.1638 -0.7108
  652MOL0     C87951   6.937   2.156   8.836 -0.2325  0.2463 -1.0232
  652MOL0     C87952   6.817   2.198   8.790 -0.7497  0.3623  0.0677
  652MOL0     H87953   6.466   2.477   8.764  0.5395  1.3839  1.5460
  652MOL0     H87954   6.263   2.599   8.699  0.3973 -2.1770 -6.6234
  652MOL0     H87955   5.843   2.410   8.752 -1.4158  0.4464 -1.6978
  652MOL0     H87956   5.881   2.533   8.869  0.2491 -2.9968  0.5972
  652MOL0     H87957   5.810   2.558   8.583 -0.8135 -2.0402  0.0407
  652MOL0     H87958   5.680   2.564   8.706 -0.3324  1.4255 -2.1002
  652MOL0     H87959   5.802   2.782   8.784  0.3443  2.6588 -1.8052
  652MOL0     H87960   5.891   2.773   8.637  0.0355  4.0429  1.6480
  652MOL0     H87961   5.684   2.738   8.510  0.0499 -2.4229  1.3061
  652MOL0     H87962   5.583   2.768   8.658  0.6889 -0.7226 -0.4337
  652MOL0     H87963   5.703   3.000   8.660 -3.8607 -0.2898  0.3008
  652MOL0     H87964   5.772   2.969   8.499 -0.1338 -1.8834 -1.7959
  652MOL0     H87965   5.516   2.942   8.433  1.0065 -3.2549  0.8537
  652MOL0     H87966   5.469   2.986   8.593 -1.3952  3.7410  0.4117
  652MOL0     H87967   5.562   3.194   8.592  1.9102 -0.5994  1.2967
  652MOL0     H87968   5.647   3.171   8.439  0.4457 -0.7354  0.5853
  652MOL0     H87969   5.348   3.144   8.447  1.8909 -2.8002  1.6118
  652MOL0     H87970   5.445   3.143   8.302  0.1224 -1.9499  0.6660
  652MOL0     H87971   5.379   3.395   8.602  1.9671 -0.4577  0.6212
  652MOL0     H87972   5.357   3.666   8.598 -0.4095 -1.4689  0.1991
  652MOL0     H87973   5.366   3.742   8.443 -1.2165 -0.0538 -0.5886
  652MOL0     H87974   5.124   3.580   8.532  1.4283  0.0784  2.4533
  652MOL0     H87975   5.135   3.682   8.390 -0.2451 -0.1459 -0.3873
  652MOL0     H87976   5.182   3.885   8.533 -0.0866 -0.1062  0.1295
  652MOL0     H87977   5.142   3.797   8.684 -0.2028  1.9389 -0.2283
  652MOL0     H87978   4.967   3.826   8.428  0.5797 -2.0423  0.0072
  652MOL0     H87979   4.958   3.932   8.574 -0.4612 -1.0052  5.0083
  652MOL0     H87980   4.745   3.914   8.469  1.2047 -1.4532 -0.6863
  652MOL0     H87981   4.415   3.892   8.335  1.3945 -2.2991 -0.4832
  652MOL0     H87982   4.454   4.009   8.480  2.1858 -0.5683  0.4016
  652MOL0     H87983   4.568   3.988   8.354 -0.9986  2.9311  1.2015
  652MOL0     H87984   4.113   3.664   8.710  0.8067 -1.5880 -0.5289
  652MOL0     H87985   3.874   3.624   8.724 -1.2776  2.7573  0.6239
  652MOL0     H87986   3.690   3.498   8.605 -0.5756 -0.3886  2.7231
  652MOL0     H87987   3.624   3.627   8.697  5.0326 -0.3042  1.0806
  652MOL0     H87988   3.458   3.658   8.498 -0.8095  0.4401  1.8483
  652MOL0     H87989   3.529   3.500   8.430 -0.9813  0.2721 -1.4483
  652MOL0     H87990   3.378   3.538   8.692 -2.8982 -0.4032 -0.8542
  652MOL0     H87991   3.432   3.382   8.630  3.1598  2.2945  1.6573
  652MOL0     H87992   3.230   3.589   8.538 -2.0682 -0.1282 -1.8842
  652MOL0     H87993   3.274   3.463   8.417 -2.0931 -0.8801  0.7127
  652MOL0     H87994   3.174   3.407   8.696  0.7888  1.7083 -1.2947
  652MOL0     H87995   3.211   3.279   8.569 -2.4585 -2.4523  0.4835
  652MOL0     H87996   2.969   3.464   8.578  3.4516  1.4353  2.4409
  652MOL0     H87997   3.041   3.393   8.420  0.0279 -3.1324 -0.0727
  652MOL0     H87998   2.888   3.255   8.635 -0.8048  1.1027 -0.8123
  652MOL0     H87999   3.021   3.166   8.545 -0.2529 -0.2675 -0.4312
  652MOL0     H88000   2.914   3.243   8.340 -0.5408  0.6358  0.0786
  652MOL0     H88001   2.780   3.322   8.426  2.5763  1.6266  2.3385
  652MOL0     H88002   3.826   3.858   8.361  1.1796 -0.4764 -1.4976
  652MOL0     H88003   4.049   3.915   8.357 -1.1600  0.1558  0.9395
  652MOL0     H88004   4.493   3.538   8.670 -0.8298 -0.4352 -1.4473
  652MOL0     H88005   4.742   3.553   8.681  1.5314  0.3510 -1.9637
  652MOL0     H88006   6.024   2.272   8.820  0.9421 -2.3421 -1.4416
  652MOL0     H88007   6.210   2.159   8.908 -0.1780 -1.3549 -2.3094
  652MOL0     H88008   6.616   2.096   9.036 -0.8716  0.5612 -1.9823
  652MOL0     H88009   6.828   2.050   9.146  0.4450  0.3233 -0.6689
  652MOL0     H88010   7.044   2.097   9.222  1.4962  1.1808 -1.9176
  652MOL0     H88011   7.049   1.929   9.172  0.1873 -1.9425  0.7028
  652MOL0     H88012   7.252   2.051   9.291 -0.8599 -0.8903  0.7123
  652MOL0     H88013   7.296   2.080   9.116  1.7604 -3.1693  0.1212
  652MOL0     H88014   7.263   1.836   9.080 -0.4251  4.1715 -2.5564
  652MOL0     H88015   7.258   1.822   9.257  0.8041 -0.5202  0.9065
  652MOL0     H88016   7.476   1.763   9.187 -0.8237  1.0048  0.2098
  652MOL0     H88017   7.509   1.914   9.251  0.1404  0.8043 -1.3390
  652MOL0     H88018   7.636   2.032   8.885  0.1095  2.0532  0.7951
  652MOL0     H88019   7.024   2.157   8.771  0.1705 -1.7159 -0.6080
  652MOL0     H88020   6.819   2.233   8.688 -1.0858  2.1735  0.6460
  653MOL0     O88021   4.933  10.620   0.268  0.6240 -0.0538  0.3504
  653MOL0     C88022   5.026  10.668   0.203 -0.1485 -0.0971  0.1568
  653MOL0     O88023   5.024  10.765   0.105  0.0868  0.0950  0.6314
  653MOL0     C88024   4.895  10.809   0.063  0.2400 -0.2997  0.1099
  653MOL0     C88025   4.791  10.721   0.022  0.3780  0.3132  0.3732
  653MOL0     C88026   4.662  10.777  -0.019  0.2624 -0.0435 -0.2701
  653MOL0     C88027   4.651  10.917  -0.035  0.5905 -0.9377 -0.2455
  653MOL0     O88028   4.537  10.974  -0.096 -0.5314  0.4694 -0.5269
  653MOL0     C88029   4.417  10.902  -0.064  0.6197 -0.5210  0.8067
  653MOL0     C88030   4.297  11.004  -0.063  0.0930 -0.5648  0.8696
  653MOL0     C88031   4.326  11.116   0.043  0.0493  0.1072 -0.2413
  653MOL0     C88032   4.195  11.171   0.092 -0.1341 -0.5740  0.3687
  653MOL0     C88033   4.243  11.288   0.187  0.4484  0.9742  0.2669
  653MOL0     C88034   4.125  11.354   0.255 -0.1599 -0.1443 -0.5841
  653MOL0     C88035   4.169  11.437   0.372  0.4967  0.3611 -0.3036
  653MOL0     C88036   4.067  11.533   0.434  0.0274  0.2694  0.6884
  653MOL0     N88037   3.939  11.492   0.492  0.3666 -0.2036  0.1356
  653MOL0     C88038   3.821  11.462   0.418  0.1144  0.9719  0.1133
  653MOL0     C88039   3.748  11.392   0.510  0.3738 -0.0573 -0.2518
  653MOL0     C88040   3.624  11.312   0.491 -0.3682 -0.4564  0.3688
  653MOL0     C88041   3.500  11.359   0.576  0.1300 -0.4907  0.0482
  653MOL0     C88042   3.426  11.236   0.634  0.7637  0.4590 -0.1886
  653MOL0     C88043   3.310  11.281   0.727 -0.4128 -0.9119 -0.6416
  653MOL0     O88044   3.204  11.348   0.657 -0.0327 -0.3159  0.4010
  653MOL0     C88045   3.083  11.371   0.719  0.0926 -0.4227 -0.5979
  653MOL0     C88046   3.044  11.355   0.859  0.1771  0.7488  0.5533
  653MOL0     C88047   2.914  11.373   0.900 -0.7467 -0.9323 -0.4896
  653MOL0     C88048   2.873  11.316   1.040 -0.6847  0.4561  0.5391
  653MOL0     C88049   2.822  11.427   0.810  0.0910 -0.4351  0.0055
  653MOL0     C88050   2.684  11.462   0.850 -0.0817 -0.3960  0.4213
  653MOL0     O88051   2.582  11.449   0.757 -0.6391 -0.0598  0.3836
  653MOL0     C88052   2.458  11.410   0.802 -0.2795 -0.0171  0.0237
  653MOL0     C88053   2.436  11.342   0.928 -0.8773  0.2317  0.3099
  653MOL0     C88054   2.312  11.304   0.972 -0.0139 -0.8428 -0.3697
  653MOL0     C88055   2.203  11.356   0.900 -0.0492  0.1896  0.1318
  653MOL0     O88056   2.078  11.327   0.942 -0.1344 -0.7709  0.3701
  653MOL0     C88057   2.034  11.201   0.923  0.4114  0.6889  0.1697
  653MOL0     C88058   1.992  11.149   1.057  0.2792  0.2353 -0.5414
  653MOL0     C88059   1.967  10.993   1.071 -0.8325  0.7813 -0.7660
  653MOL0     C88060   2.101  10.914   1.088 -1.3858 -0.3265  0.3908
  653MOL0     C88061   2.075  10.762   1.084  0.2280 -0.7472 -0.2624
  653MOL0     C88062   2.194  10.685   1.052 -0.7060  0.3897 -0.3824
  653MOL0     C88063   2.298  10.703   1.168  0.0548  0.0142  0.4470
  653MOL0     C88064   2.406  10.594   1.170 -0.4080  0.8323 -0.7784
  653MOL0    Cl88065   2.532  10.616   1.044  0.2214  0.0921  0.0949
  653MOL0     C88066   2.229  11.432   0.778 -0.1465 -0.1126 -0.4684
  653MOL0     C88067   2.358  11.459   0.730  0.8379 -0.5205 -0.5928
  653MOL0     O88068   2.671  11.522   0.956  0.2601 -0.5763 -0.3686
  653MOL0     C88069   2.860  11.432   0.677  0.0861 -1.1076  0.4164
  653MOL0     C88070   2.982  11.409   0.629  0.2344 -0.2231 -0.2376
  653MOL0     N88071   3.819  11.385   0.628  0.8835 -0.1268 -0.3292
  653MOL0     N88072   3.917  11.461   0.619  0.3684  0.4853  0.3431
  653MOL0     C88073   4.755  11.001   0.005 -0.3634  1.2114  0.2442
  653MOL0     C88074   4.878  10.946   0.046 -0.7293  0.5933 -0.4918
  653MOL0     C88075   5.153  10.586   0.213 -0.2951  0.5265 -0.0252
  653MOL0     C88076   5.161  10.461   0.285 -1.0819 -0.0426  1.1769
  653MOL0     C88077   5.278  10.387   0.279  0.2567  0.5314 -0.7229
  653MOL0     C88078   5.384  10.417   0.201  0.2087  0.4656  0.0930
  653MOL0     O88079   5.497  10.338   0.218  0.3424 -0.1592  0.6398
  653MOL0     C88080   5.609  10.361   0.133 -0.3607 -0.0925 -0.0247
  653MOL0     C88081   5.685  10.229   0.115  0.1440 -0.9104 -1.0044
  653MOL0     C88082   5.776  10.219  -0.007 -0.6331 -0.4856 -0.4523
  653MOL0     C88083   5.859  10.086  -0.014  0.4692 -0.4303  0.5120
  653MOL0     C88084   5.900  10.063  -0.155  0.1352 -0.7443  0.1206
  653MOL0     C88085   5.940  10.049  -0.268 -0.2716 -0.3030 -0.1338
  653MOL0     C88086   5.382  10.540   0.132  0.1456 -0.2100 -0.4459
  653MOL0     C88087   5.267  10.626   0.143  0.0025 -0.2778  1.0747
  653MOL0     H88088   4.791  10.614   0.042 -1.8281  0.3281  0.7317
  653MOL0     H88089   4.578  10.713  -0.043 -1.2351  1.8265 -0.2341
  653MOL0     H88090   4.402  10.822  -0.137  2.2517  1.3093 -1.7203
  653MOL0     H88091   4.423  10.852   0.033  0.2782  0.6124  1.4284
  653MOL0     H88092   4.281  11.048  -0.161  1.6967 -1.3277  0.2244
  653MOL0     H88093   4.213  10.937  -0.042 -0.0400 -0.0944  1.8946
  653MOL0     H88094   4.388  11.066   0.119  0.7929  1.5788  0.1494
  653MOL0     H88095   4.387  11.195  -0.003  0.7494 -0.7399 -0.8239
  653MOL0     H88096   4.121  11.205   0.020  1.7930  0.1736 -1.3609
  653MOL0     H88097   4.140  11.094   0.147 -2.6619  1.0265  0.2570
  653MOL0     H88098   4.308  11.233   0.257  1.2131 -0.2050 -1.3053
  653MOL0     H88099   4.310  11.357   0.136  1.6575 -1.5457 -1.8266
  653MOL0     H88100   4.089  11.421   0.177  0.9186 -0.1495 -1.1014
  653MOL0     H88101   4.053  11.274   0.279  0.0476  0.2785  1.7017
  653MOL0     H88102   4.203  11.379   0.459 -0.2871 -1.6471 -1.2552
  653MOL0     H88103   4.260  11.488   0.340 -0.5887  1.0851 -2.4507
  653MOL0     H88104   4.040  11.595   0.349  0.7778  0.4585  0.5891
  653MOL0     H88105   4.113  11.593   0.513  0.2452 -1.1206  1.6624
  653MOL0     H88106   3.814  11.484   0.312  1.4144 -3.2184 -1.0291
  653MOL0     H88107   3.607  11.326   0.383  0.4559  1.0890  0.4039
  653MOL0     H88108   3.640  11.205   0.505 -0.9304 -0.4277  1.2591
  653MOL0     H88109   3.428  11.419   0.520 -2.5788 -4.2053 -0.8013
  653MOL0     H88110   3.538  11.424   0.656  0.1716 -0.5545  0.0799
  653MOL0     H88111   3.488  11.170   0.695 -1.4459 -0.2255  1.4762
  653MOL0     H88112   3.383  11.177   0.552 -0.2704 -1.1916  1.4505
  653MOL0     H88113   3.348  11.355   0.798  1.3210 -0.2717 -2.1574
  653MOL0     H88114   3.261  11.192   0.767 -1.1336 -1.3715 -2.4775
  653MOL0     H88115   3.123  11.325   0.927  0.2926  0.6640  0.3829
  653MOL0     H88116   2.883  11.384   1.125 -2.1964  0.0199  1.0955
  653MOL0     H88117   2.767  11.288   1.041 -1.0224  1.6325  0.4583
  653MOL0     H88118   2.915  11.218   1.062 -0.3023 -0.3553 -3.0988
  653MOL0     H88119   2.527  11.303   0.973  0.2419  1.0029 -1.2024
  653MOL0     H88120   2.284  11.246   1.059 -0.5805 -0.7979 -0.5148
  653MOL0     H88121   1.942  11.217   0.865  0.7518  1.8149 -0.0827
  653MOL0     H88122   2.104  11.138   0.867  2.8431  2.5540  0.9664
  653MOL0     H88123   2.063  11.169   1.137  0.1981  2.4391 -0.9737
  653MOL0     H88124   1.902  11.197   1.098  0.7290 -1.2841  2.5392
  653MOL0     H88125   1.913  10.952   0.986  0.0294 -0.2520 -0.8361
  653MOL0     H88126   1.906  10.972   1.160 -1.4920  2.6249 -0.7498
  653MOL0     H88127   2.172  10.931   1.007  1.2063 -2.3111  2.0888
  653MOL0     H88128   2.151  10.948   1.179 -1.0141 -1.8330  0.7786
  653MOL0     H88129   1.998  10.748   1.007  1.0942  0.4728 -1.3966
  653MOL0     H88130   2.031  10.718   1.174  0.9318 -0.2663  0.3296
  653MOL0     H88131   2.167  10.579   1.043  0.7282 -0.0498  0.1790
  653MOL0     H88132   2.224  10.720   0.953 -1.1403  0.6173 -0.4330
  653MOL0     H88133   2.257  10.698   1.269 -0.1981 -4.9675  0.3313
  653MOL0     H88134   2.346  10.801   1.164  0.4307 -0.2016 -0.6661
  653MOL0     H88135   2.368  10.492   1.157  0.6342  0.3696 -0.2600
  653MOL0     H88136   2.458  10.598   1.265  1.6869 -2.7998 -1.5990
  653MOL0     H88137   2.140  11.469   0.729 -0.4071  0.9582  0.7567
  653MOL0     H88138   2.385  11.526   0.650 -0.5399  1.9375  0.8881
  653MOL0     H88139   2.781  11.467   0.611  1.7211 -1.6920 -2.0042
  653MOL0     H88140   2.988  11.417   0.521  0.3656  0.2259 -0.1986
  653MOL0     H88141   4.738  11.108   0.009 -0.6861  1.2740 -1.6094
  653MOL0     H88142   4.963  11.004   0.081  0.4347 -1.9897  1.2938
  653MOL0     H88143   5.069  10.418   0.325 -1.3880  1.1650  1.8161
  653MOL0     H88144   5.284  10.304   0.349 -0.0614  0.0322 -1.2869
  653MOL0     H88145   5.588  10.378   0.027 -1.9933 -2.0197 -0.0687
  653MOL0     H88146   5.682  10.434   0.170 -0.1042 -0.4446  0.1659
  653MOL0     H88147   5.605  10.155   0.108  0.2311 -0.9558 -1.5457
  653MOL0     H88148   5.750  10.211   0.200 -1.0898 -1.0207 -0.0558
  653MOL0     H88149   5.840  10.307  -0.011  2.9815 -2.8737  0.0000
  653MOL0     H88150   5.713  10.225  -0.096  0.4049 -1.9370 -1.3203
  653MOL0     H88151   5.796  10.006   0.026  0.3413  0.2372  1.6700
  653MOL0     H88152   5.940  10.097   0.058  2.4789  0.2048 -1.6911
  653MOL0     H88153   5.985  10.032  -0.364 -0.2779 -0.3435 -0.1292
  653MOL0     H88154   5.471  10.568   0.077 -0.6062 -1.2434 -2.2937
  653MOL0     H88155   5.273  10.723   0.095 -3.9855  0.0987  1.0237
  654MOL0     O88156   8.009   6.580   1.752  0.1385 -0.5849  0.5619
  654MOL0     C88157   8.069   6.479   1.715  0.5061 -0.5990  0.1453
  654MOL0     O88158   8.199   6.461   1.715 -0.0081 -0.9215 -0.2776
  654MOL0     C88159   8.290   6.560   1.754 -0.0795 -0.2883  0.1572
  654MOL0     C88160   8.422   6.563   1.696 -0.4975  0.3015  0.1404
  654MOL0     C88161   8.514   6.653   1.732 -0.5246 -0.1693 -0.0152
  654MOL0     C88162   8.484   6.750   1.827 -0.8953  0.6827  0.4145
  654MOL0     O88163   8.594   6.821   1.869  0.2647 -0.2406  0.9131
  654MOL0     C88164   8.574   6.963   1.844 -0.5411 -0.6076  0.4456
  654MOL0     C88165   8.696   7.046   1.890 -0.2322 -0.5275  0.2245
  654MOL0     C88166   8.684   7.202   1.869  0.9539  0.1791  0.4064
  654MOL0     C88167   8.573   7.274   1.945  0.0281 -0.4647 -0.3953
  654MOL0     C88168   8.604   7.426   1.955  0.7154  0.2700 -0.1678
  654MOL0     C88169   8.479   7.507   2.013 -0.8038 -0.3835 -0.1950
  654MOL0     C88170   8.521   7.653   2.056 -0.2478 -0.3246 -0.2516
  654MOL0     C88171   8.580   7.738   1.945 -0.1456  0.3952  0.4324
  654MOL0     N88172   8.518   7.869   1.957 -0.0438  0.3994 -0.1111
  654MOL0     C88173   8.411   7.904   1.876  0.5091 -0.0390  0.1800
  654MOL0     C88174   8.386   8.037   1.900  0.1556 -1.0163 -0.1103
  654MOL0     C88175   8.265   8.104   1.832  0.3193 -0.1315 -0.1515
  654MOL0     C88176   8.123   8.059   1.872  0.4558 -1.2988 -0.4624
  654MOL0     C88177   8.018   8.135   1.798 -1.0549 -0.7248  0.0455
  654MOL0     C88178   7.992   8.282   1.836 -0.4941  0.4637  0.9944
  654MOL0     O88179   7.855   8.310   1.850 -0.7642  0.3345  0.7204
  654MOL0     C88180   7.792   8.269   1.967  0.1688  0.8405 -0.2206
  654MOL0     C88181   7.864   8.253   2.087  0.2486  1.0798 -0.5541
  654MOL0     C88182   7.799   8.222   2.204  0.8869  0.1950  0.0303
  654MOL0     C88183   7.881   8.234   2.334 -0.8229  1.1886 -0.1663
  654MOL0     C88184   7.656   8.193   2.206 -0.3394 -0.0788 -0.3017
  654MOL0     C88185   7.575   8.142   2.321  0.8270  0.3009 -0.0976
  654MOL0     O88186   7.438   8.129   2.301 -0.9591  0.5487  0.0693
  654MOL0     C88187   7.377   8.046   2.390  1.3215  0.2542  1.0366
  654MOL0     C88188   7.361   7.911   2.366  0.2760  0.6683 -0.0884
  654MOL0     C88189   7.272   7.832   2.434  0.7682  0.3085 -0.2847
  654MOL0     C88190   7.189   7.881   2.533  0.1520  0.3074  0.1800
  654MOL0     O88191   7.104   7.807   2.611 -0.3017  0.3290 -0.2360
  654MOL0     C88192   7.035   7.697   2.555 -0.2186  0.0963  0.0009
  654MOL0     C88193   6.900   7.691   2.632  0.5237  0.3849 -0.6072
  654MOL0     C88194   6.783   7.779   2.590  0.4768 -0.5315 -0.9144
  654MOL0     C88195   6.749   7.771   2.448 -0.5218  0.2346  0.2789
  654MOL0     C88196   6.626   7.855   2.416 -0.4280  0.2750  0.6620
  654MOL0     C88197   6.645   8.004   2.453 -0.8065 -0.2504  0.2278
  654MOL0     C88198   6.524   8.081   2.407 -0.6901  1.1289  0.7856
  654MOL0     C88199   6.522   8.212   2.472 -0.3865 -0.6091  0.1375
  654MOL0    Cl88200   6.363   8.277   2.443  0.4597 -0.0342 -0.3646
  654MOL0     C88201   7.214   8.017   2.563 -0.0809  1.4328 -0.8618
  654MOL0     C88202   7.305   8.094   2.497  0.4575  0.4168  0.2696
  654MOL0     O88203   7.631   8.129   2.427 -0.8357  0.4910 -0.2074
  654MOL0     C88204   7.584   8.202   2.086 -0.1544  0.3620 -0.5837
  654MOL0     C88205   7.651   8.241   1.970 -1.0166 -0.5905  0.5653
  654MOL0     N88206   8.483   8.077   1.993  0.6200 -0.6768  0.8346
  654MOL0     N88207   8.558   7.983   2.024 -0.2007  1.0354 -0.3498
  654MOL0     C88208   8.363   6.743   1.895 -0.2243  0.3927 -0.5504
  654MOL0     C88209   8.274   6.647   1.862  1.5751 -0.6361 -0.4733
  654MOL0     C88210   7.981   6.370   1.679  1.3537  0.2670  0.9383
  654MOL0     C88211   7.843   6.392   1.635  0.0049  0.1573  0.5380
  654MOL0     C88212   7.759   6.286   1.606  0.4473  0.2587  0.6874
  654MOL0     C88213   7.805   6.159   1.609 -0.2935  0.1196 -0.7172
  654MOL0     O88214   7.726   6.052   1.574 -0.3878  0.4594 -0.1890
  654MOL0     C88215   7.784   5.942   1.503  0.4521 -0.6007  0.4160
  654MOL0     C88216   7.827   5.982   1.359  0.3747 -0.7398 -0.0681
  654MOL0     C88217   7.712   6.010   1.256 -0.4066 -0.1183 -0.2815
  654MOL0     C88218   7.671   5.897   1.171  0.0868 -0.0260  0.6711
  654MOL0     C88219   7.631   5.778   1.250 -0.0902  0.4681  0.8689
  654MOL0     C88220   7.595   5.672   1.284 -0.3543  0.5835  0.0568
  654MOL0     C88221   7.948   6.144   1.636  0.0698 -0.1326 -0.6442
  654MOL0     C88222   8.032   6.245   1.678  0.2230  0.3634 -0.3087
  654MOL0     H88223   8.451   6.486   1.625  1.5852  1.2782 -0.1405
  654MOL0     H88224   8.608   6.658   1.679 -1.3737 -0.9860 -1.6980
  654MOL0     H88225   8.546   6.985   1.741  1.0684 -1.9146 -0.3190
  654MOL0     H88226   8.488   6.993   1.904  0.4668 -0.4251  1.8453
  654MOL0     H88227   8.717   7.013   1.992  0.3437 -1.3488 -0.1508
  654MOL0     H88228   8.779   7.002   1.834 -0.9688 -0.2679 -1.0918
  654MOL0     H88229   8.782   7.249   1.883  1.0165  1.2125 -2.7840
  654MOL0     H88230   8.666   7.223   1.764  1.4615 -1.2992 -0.0113
  654MOL0     H88231   8.480   7.254   1.890 -0.9630 -0.1375  1.1103
  654MOL0     H88232   8.555   7.234   2.045  1.7199 -0.0257  0.1071
  654MOL0     H88233   8.697   7.427   2.013  0.7957  2.1889 -0.2677
  654MOL0     H88234   8.631   7.469   1.858  0.0625 -2.1827 -1.5210
  654MOL0     H88235   8.400   7.519   1.939  2.0641  0.9000 -3.3547
  654MOL0     H88236   8.437   7.455   2.099 -1.0259 -0.0098 -0.0784
  654MOL0     H88237   8.434   7.706   2.096 -0.7675 -0.3978 -1.2587
  654MOL0     H88238   8.583   7.642   2.146 -0.3727 -0.5926 -0.1992
  654MOL0     H88239   8.559   7.684   1.852 -0.5436 -4.4763  3.0251
  654MOL0     H88240   8.688   7.753   1.951 -0.3415  2.3174 -0.1917
  654MOL0     H88241   8.349   7.839   1.815 -1.7816  0.3556  1.9396
  654MOL0     H88242   8.284   8.211   1.843 -1.0580  0.0773  0.4430
  654MOL0     H88243   8.265   8.096   1.722 -0.3592 -0.2016 -0.1498
  654MOL0     H88244   8.105   8.073   1.979  0.5115  0.9044 -0.6865
  654MOL0     H88245   8.100   7.955   1.847 -1.0633 -0.9431 -0.6726
  654MOL0     H88246   7.927   8.080   1.824 -0.3847 -2.3888 -0.9572
  654MOL0     H88247   8.030   8.129   1.690  0.9374  1.3002  0.0824
  654MOL0     H88248   8.037   8.342   1.758  0.1205  0.4884  1.3602
  654MOL0     H88249   8.038   8.318   1.929 -1.0679  3.1722  0.3067
  654MOL0     H88250   7.965   8.288   2.108  0.0379  2.9822 -2.2925
  654MOL0     H88251   7.982   8.195   2.319 -0.3559  2.3967 -0.2299
  654MOL0     H88252   7.881   8.336   2.374 -0.8606  0.5268  1.6317
  654MOL0     H88253   7.850   8.175   2.421 -1.2473  1.4002 -0.1700
  654MOL0     H88254   7.417   7.859   2.289  2.1263 -0.7019  2.0624
  654MOL0     H88255   7.261   7.727   2.406 -0.0311  0.0780  0.8403
  654MOL0     H88256   7.010   7.722   2.451 -0.9803  4.9540  1.1359
  654MOL0     H88257   7.088   7.601   2.559 -1.7145 -0.7094  2.1290
  654MOL0     H88258   6.858   7.592   2.618 -0.4954  0.9323 -1.5426
  654MOL0     H88259   6.919   7.711   2.738  1.1536 -1.6150 -0.3079
  654MOL0     H88260   6.804   7.884   2.614 -0.8307 -0.7919  1.7540
  654MOL0     H88261   6.694   7.749   2.647 -0.1849  0.5848 -1.3116
  654MOL0     H88262   6.833   7.821   2.399 -1.2949  0.5608 -0.7608
  654MOL0     H88263   6.739   7.667   2.415 -2.6838 -0.6442  3.2464
  654MOL0     H88264   6.543   7.818   2.478 -0.1121 -1.1502  0.2710
  654MOL0     H88265   6.591   7.833   2.315  0.0207 -2.4473  1.0144
  654MOL0     H88266   6.659   8.027   2.560 -0.3781 -1.0273  0.3451
  654MOL0     H88267   6.733   8.048   2.405 -2.2751  1.9916 -0.6010
  654MOL0     H88268   6.432   8.022   2.418 -1.9658  2.4854 -1.7056
  654MOL0     H88269   6.543   8.089   2.300  0.8565  0.4824  0.9812
  654MOL0     H88270   6.599   8.279   2.432  0.3162 -2.5053 -1.9065
  654MOL0     H88271   6.544   8.203   2.578  1.0731 -3.2648 -0.3023
  654MOL0     H88272   7.159   8.057   2.648  1.6006  1.3386  0.3207
  654MOL0     H88273   7.331   8.196   2.524 -2.3416  2.5230 -3.8460
  654MOL0     H88274   7.481   8.176   2.067  0.2674 -1.1745 -0.8868
  654MOL0     H88275   7.592   8.231   1.879 -0.0505 -1.5909  0.0383
  654MOL0     H88276   8.331   6.827   1.956 -1.0458  1.3358 -2.1856
  654MOL0     H88277   8.182   6.643   1.920  1.8800 -3.5958 -0.0723
  654MOL0     H88278   7.804   6.493   1.628  4.1045  1.8079 -2.9080
  654MOL0     H88279   7.656   6.303   1.576  0.8087 -0.2177 -0.9216
  654MOL0     H88280   7.870   5.897   1.553  0.6597  1.6008  2.1676
  654MOL0     H88281   7.699   5.873   1.499  2.1005 -2.8887  2.2252
  654MOL0     H88282   7.882   5.900   1.312  1.4652 -0.8802  1.3737
  654MOL0     H88283   7.896   6.065   1.377  1.4540 -1.9883  2.0029
  654MOL0     H88284   7.741   6.099   1.201  0.6068  0.3563  0.9753
  654MOL0     H88285   7.627   6.050   1.312 -2.3711 -2.5667 -1.2988
  654MOL0     H88286   7.761   5.872   1.114  0.1936  0.1386  0.7687
  654MOL0     H88287   7.588   5.930   1.108  0.6196  2.9118  1.3452
  654MOL0     H88288   7.571   5.569   1.303  2.8468 -0.6202 -1.7297
  654MOL0     H88289   7.999   6.049   1.626  4.1259  1.9641 -1.8521
  654MOL0     H88290   8.133   6.216   1.703  1.0909  4.4681  1.7270
  655MOL0     O88291   0.028   8.460   8.490  0.8696 -0.3446  0.3239
  655MOL0     C88292   0.070   8.541   8.570 -0.0633 -0.4847 -0.3392
  655MOL0     O88293  -0.004   8.604   8.667 -0.0653 -0.3414 -0.0733
  655MOL0     C88294  -0.141   8.588   8.641 -0.1881  0.4112 -0.0950
  655MOL0     C88295  -0.221   8.504   8.719 -0.9938  0.0047 -0.2542
  655MOL0     C88296  -0.347   8.479   8.678 -0.2365 -0.1603  0.3080
  655MOL0     C88297  -0.407   8.553   8.575  0.4079  0.0511 -0.3664
  655MOL0     O88298  -0.538   8.543   8.527  0.1762  0.2019  0.2777
  655MOL0     C88299  -0.626   8.448   8.604  0.0103 -0.1890 -0.5555
  655MOL0     C88300  -0.760   8.431   8.529  0.2889 -0.0470 -0.3523
  655MOL0     C88301  -0.877   8.361   8.614 -0.1178 -0.0059  0.8296
  655MOL0     C88302  -0.988   8.312   8.520  1.1793  0.0925 -0.0016
  655MOL0     C88303  -1.110   8.265   8.597  0.0965 -0.3941  0.1727
  655MOL0     C88304  -1.203   8.194   8.503  0.1831  0.8279 -0.4966
  655MOL0     C88305  -1.332   8.154   8.579  0.7709 -1.0050  0.2270
  655MOL0     C88306  -1.437   8.081   8.491  0.0161  0.5990  0.0815
  655MOL0     N88307  -1.552   8.036   8.562 -1.1584 -0.6992  0.0564
  655MOL0     C88308  -1.643   8.123   8.614 -0.6111 -0.1076  0.0506
  655MOL0     C88309  -1.761   8.056   8.607  0.2076 -0.3924  0.6638
  655MOL0     C88310  -1.887   8.112   8.662 -0.4660 -0.4363 -0.1331
  655MOL0     C88311  -2.002   8.027   8.622  0.0973  0.3346 -0.7628
  655MOL0     C88312  -2.140   8.089   8.663 -0.0113 -0.1741 -0.4554
  655MOL0     C88313  -2.141   8.174   8.803 -0.0394  0.2865  0.6021
  655MOL0     O88314  -2.277   8.211   8.813  0.0314  0.6477  0.0857
  655MOL0     C88315  -2.305   8.277   8.930  0.9234 -0.0445  0.2217
  655MOL0     C88316  -2.214   8.337   9.014 -0.2216  0.0577 -0.1719
  655MOL0     C88317  -2.254   8.407   9.133 -1.5947  0.5734  0.5101
  655MOL0     C88318  -2.143   8.449   9.238  1.1261 -0.1455 -0.1151
  655MOL0     C88319  -2.391   8.410   9.165  0.5620  0.0968  0.1706
  655MOL0     C88320  -2.452   8.485   9.284 -0.4023  0.1627 -0.0407
  655MOL0     O88321  -2.591   8.483   9.295  0.7581 -0.3197 -0.1686
  655MOL0     C88322  -2.662   8.571   9.367 -0.4854  0.2168  0.0374
  655MOL0     C88323  -2.804   8.557   9.366 -0.8701  0.2362 -0.5070
  655MOL0     C88324  -2.888   8.648   9.424 -0.4080  0.2190 -1.1268
  655MOL0     C88325  -2.845   8.761   9.493 -0.8171  0.6120 -0.5576
  655MOL0     O88326  -2.941   8.837   9.547 -0.7703 -0.3698  0.3277
  655MOL0     C88327  -2.906   8.914   9.657 -0.1421 -0.3655  0.3691
  655MOL0     C88328  -3.025   9.007   9.688  0.8801 -0.1391  0.1334
  655MOL0     C88329  -3.161   8.942   9.728 -0.5312 -0.6258  0.0940
  655MOL0     C88330  -3.238   9.060   9.782  0.8009 -0.0579 -0.0230
  655MOL0     C88331  -3.373   9.009   9.836 -0.2638 -0.1273  0.0906
  655MOL0     C88332  -3.440   9.116   9.924 -0.3975 -0.6173  0.0148
  655MOL0     C88333  -3.556   9.066  10.004  0.5419 -0.6986  0.5097
  655MOL0     C88334  -3.641   9.182  10.060 -0.5463 -0.2516 -0.2962
  655MOL0    Cl88335  -3.741   9.136  10.189 -0.0962  0.2017 -0.0235
  655MOL0     C88336  -2.706   8.766   9.511 -0.5595 -0.2386 -0.2494
  655MOL0     C88337  -2.618   8.679   9.445  0.3518 -0.5631  0.5449
  655MOL0     O88338  -2.374   8.543   9.363 -0.2710  0.0922 -0.4413
  655MOL0     C88339  -2.486   8.349   9.082 -0.5599 -0.8844  0.2859
  655MOL0     C88340  -2.439   8.277   8.970  0.3157  0.3386 -0.3233
  655MOL0     N88341  -1.744   7.930   8.555 -0.5744 -0.6277 -0.0522
  655MOL0     N88342  -1.619   7.922   8.521  0.2285  0.0518 -0.6639
  655MOL0     C88343  -0.327   8.645   8.507  0.1057 -0.1786 -0.2421
  655MOL0     C88344  -0.192   8.658   8.536  0.4763  0.6346  0.6070
  655MOL0     C88345   0.213   8.583   8.565 -0.1526 -0.6875 -0.1573
  655MOL0     C88346   0.266   8.658   8.669  0.1458  0.5237  0.2906
  655MOL0     C88347   0.402   8.684   8.667 -0.2732 -0.9109 -0.2040
  655MOL0     C88348   0.481   8.639   8.558 -0.4161 -0.5944  0.7888
  655MOL0     O88349   0.607   8.677   8.532 -0.5303 -0.2552 -0.4979
  655MOL0     C88350   0.679   8.766   8.619 -0.3706  0.7077 -0.4097
  655MOL0     C88351   0.826   8.787   8.579 -0.5504  0.7781 -0.2249
  655MOL0     C88352   0.899   8.648   8.573 -0.4961  0.0160 -0.9381
  655MOL0     C88353   0.993   8.633   8.453  0.5005 -0.2315 -0.3885
  655MOL0     C88354   1.107   8.728   8.462  0.0995 -0.1853 -0.2652
  655MOL0     C88355   1.196   8.814   8.472  0.1027 -0.9152 -0.2399
  655MOL0     C88356   0.424   8.558   8.459  0.5851 -0.2999  0.0613
  655MOL0     C88357   0.293   8.534   8.463 -0.0470  0.1035  0.1677
  655MOL0     H88358  -0.176   8.466   8.810 -1.0088 -1.8728 -0.9976
  655MOL0     H88359  -0.400   8.409   8.742  0.4606 -2.9066 -1.8797
  655MOL0     H88360  -0.584   8.347   8.613 -0.4116 -0.2845  0.4839
  655MOL0     H88361  -0.640   8.492   8.703  2.9613 -0.2234 -0.0247
  655MOL0     H88362  -0.798   8.531   8.510 -2.7806 -1.3806 -1.9104
  655MOL0     H88363  -0.735   8.396   8.429  0.7743  1.3487 -0.7431
  655MOL0     H88364  -0.843   8.272   8.668 -1.2013 -0.7878  0.2684
  655MOL0     H88365  -0.916   8.438   8.680  0.5476  1.2413 -0.1930
  655MOL0     H88366  -1.022   8.393   8.455 -0.2301  0.9130  1.6810
  655MOL0     H88367  -0.954   8.231   8.454  0.5125  1.4281 -2.1031
  655MOL0     H88368  -1.070   8.197   8.673  1.8577 -2.4728 -2.4040
  655MOL0     H88369  -1.157   8.351   8.644 -0.1792  0.8026 -2.1453
  655MOL0     H88370  -1.219   8.246   8.408  0.5450 -0.6174 -1.3843
  655MOL0     H88371  -1.151   8.100   8.478  2.4320  1.8009  0.2854
  655MOL0     H88372  -1.301   8.089   8.661  1.6252 -1.0351 -0.1085
  655MOL0     H88373  -1.392   8.239   8.611 -1.1453 -1.2435 -2.4172
  655MOL0     H88374  -1.373   7.997   8.460  0.6603  0.7110  1.0329
  655MOL0     H88375  -1.463   8.145   8.407  0.1141 -0.0233 -0.4355
  655MOL0     H88376  -1.631   8.228   8.636  1.3660 -0.4239  0.6671
  655MOL0     H88377  -1.884   8.117   8.771 -0.7092 -0.2293 -0.1352
  655MOL0     H88378  -1.902   8.213   8.621  1.8915 -0.6892 -1.8216
  655MOL0     H88379  -1.995   7.925   8.660 -0.2974  0.2495 -0.9154
  655MOL0     H88380  -1.997   8.020   8.513 -0.2025 -0.8756 -0.7026
  655MOL0     H88381  -2.216   8.011   8.666  0.2635 -0.3974  1.4983
  655MOL0     H88382  -2.179   8.158   8.588  0.6145  0.9081  0.1936
  655MOL0     H88383  -2.082   8.266   8.799 -1.5407  1.2466 -0.1461
  655MOL0     H88384  -2.106   8.108   8.883 -2.0846 -1.2665  0.2996
  655MOL0     H88385  -2.107   8.329   8.995 -0.6754 -0.7918 -2.6794
  655MOL0     H88386  -2.148   8.413   9.341 -0.1860  0.4177  0.0447
  655MOL0     H88387  -2.045   8.413   9.206  0.9007 -1.7776  0.9055
  655MOL0     H88388  -2.147   8.558   9.224 -1.1811 -0.2992 -1.1892
  655MOL0     H88389  -2.842   8.465   9.322  1.1111 -1.4996  1.1637
  655MOL0     H88390  -2.994   8.624   9.419 -0.3627  0.0878 -1.4872
  655MOL0     H88391  -2.878   8.841   9.733  4.3298  0.9756  0.2917
  655MOL0     H88392  -2.814   8.966   9.629 -2.0886  2.3433 -1.5741
  655MOL0     H88393  -2.986   9.071   9.768  0.9004 -0.6478  0.5358
  655MOL0     H88394  -3.040   9.075   9.604 -1.1825  0.2709  0.7651
  655MOL0     H88395  -3.138   8.873   9.810  2.6691 -1.0001 -0.9653
  655MOL0     H88396  -3.204   8.891   9.641 -2.5402  0.3572  0.4550
  655MOL0     H88397  -3.181   9.120   9.854  1.3773 -2.3248  1.5157
  655MOL0     H88398  -3.273   9.130   9.705  0.4025  1.9451  1.8721
  655MOL0     H88399  -3.363   8.919   9.899  1.4821 -0.7297 -0.9673
  655MOL0     H88400  -3.431   8.991   9.745  3.4855 -0.8170 -2.3740
  655MOL0     H88401  -3.367   9.158   9.994  0.7386  0.1780 -1.5607
  655MOL0     H88402  -3.466   9.204   9.864  2.1023  1.9335  2.3624
  655MOL0     H88403  -3.535   8.999  10.088  3.5071 -0.3716  0.1337
  655MOL0     H88404  -3.616   9.001   9.940 -0.9283  0.9467  0.1527
  655MOL0     H88405  -3.697   9.229   9.978 -2.8443 -1.4540  0.4957
  655MOL0     H88406  -3.572   9.253  10.107  1.2976 -1.3653 -1.1942
  655MOL0     H88407  -2.659   8.855   9.551 -3.3443  1.0032  0.5694
  655MOL0     H88408  -2.511   8.687   9.459  0.4588 -2.5629  1.1896
  655MOL0     H88409  -2.593   8.338   9.097 -0.4834 -0.3483  1.3336
  655MOL0     H88410  -2.516   8.230   8.910  1.2958 -0.7551 -0.7624
  655MOL0     H88411  -0.380   8.702   8.431 -0.1527  0.3153  0.2973
  655MOL0     H88412  -0.127   8.730   8.488  0.2401  0.5677  0.1834
  655MOL0     H88413   0.203   8.702   8.746 -2.2936 -1.4555 -0.4577
  655MOL0     H88414   0.458   8.745   8.738  1.7772 -3.3602  0.4427
  655MOL0     H88415   0.632   8.865   8.618  1.9943  1.8992  0.3094
  655MOL0     H88416   0.661   8.733   8.722 -1.8721  1.1918 -0.4875
  655MOL0     H88417   0.870   8.854   8.654 -1.8000  1.6581 -0.2491
  655MOL0     H88418   0.829   8.834   8.480  0.4939  0.2517 -0.4627
  655MOL0     H88419   0.827   8.566   8.570  0.6926 -1.0607 -0.7983
  655MOL0     H88420   0.958   8.640   8.664 -0.7686 -2.2395 -0.8947
  655MOL0     H88421   0.939   8.646   8.359 -0.8093  2.6234  0.6640
  655MOL0     H88422   1.040   8.533   8.452  3.5061  1.0648 -1.7612
  655MOL0     H88423   1.263   8.897   8.477 -0.7639 -0.2288  0.5234
  655MOL0     H88424   0.479   8.524   8.372 -0.7616  1.4953 -1.5784
  655MOL0     H88425   0.246   8.477   8.383  1.0757  0.0590 -0.4933
  656MOL0     O88426   1.893  10.466   3.540  0.6391  0.4008 -0.2797
  656MOL0     C88427   1.990  10.514   3.489  1.0278 -0.3341 -0.0586
  656MOL0     O88428   1.985  10.636   3.424  0.2502 -0.5860  0.5174
  656MOL0     C88429   1.866  10.693   3.383 -0.6352  0.0216  0.7035
  656MOL0     C88430   1.785  10.642   3.280 -1.0256  0.7843  0.4005
  656MOL0     C88431   1.665  10.710   3.238 -0.2786  0.6115  0.3214
  656MOL0     C88432   1.631  10.830   3.310 -0.4785 -0.1526  0.7634
  656MOL0     O88433   1.511  10.906   3.297 -0.1035  0.3131 -0.3320
  656MOL0     C88434   1.468  10.902   3.165  0.3688 -0.1322  0.9141
  656MOL0     C88435   1.351  10.993   3.137 -0.0694  0.2517 -0.3772
  656MOL0     C88436   1.286  10.972   2.997  0.6456  0.1688  0.3434
  656MOL0     C88437   1.394  11.009   2.892  0.5317 -0.7603  0.1659
  656MOL0     C88438   1.345  10.981   2.758  0.5040 -0.5458 -0.0501
  656MOL0     C88439   1.240  11.084   2.712 -1.3961 -1.4014  0.2589
  656MOL0     C88440   1.174  11.064   2.573  0.2682  0.3309 -0.5897
  656MOL0     C88441   1.047  11.151   2.564  0.4755 -0.4817 -0.1965
  656MOL0     N88442   0.969  11.124   2.439  0.4441  0.6059 -0.0864
  656MOL0     C88443   0.907  11.221   2.365  0.4343  0.0093 -0.5696
  656MOL0     C88444   0.849  11.158   2.262 -0.5765 -0.9001 -0.0310
  656MOL0     C88445   0.781  11.222   2.144 -0.1875  0.9709  0.6329
  656MOL0     C88446   0.648  11.294   2.179 -0.9377  0.4695 -0.0224
  656MOL0     C88447   0.678  11.425   2.255  0.0656 -0.0826  0.5121
  656MOL0     C88448   0.543  11.515   2.259  0.8077 -0.8058  0.6850
  656MOL0     O88449   0.488  11.545   2.125 -0.6569 -0.2389 -0.4496
  656MOL0     C88450   0.386  11.636   2.114  0.6741 -0.7947 -0.0357
  656MOL0     C88451   0.333  11.667   1.985 -0.2140  0.0772  0.5315
  656MOL0     C88452   0.228  11.757   1.972  0.1847 -0.0368  0.2893
  656MOL0     C88453   0.195  11.795   1.834 -0.5308 -0.2529  0.8840
  656MOL0     C88454   0.164  11.815   2.081 -0.5985 -0.0562 -0.1243
  656MOL0     C88455   0.044  11.901   2.067 -0.4494  0.3886  0.0322
  656MOL0     O88456   0.045  12.012   2.157 -0.5242 -0.3173 -0.1525
  656MOL0     C88457  -0.081  12.075   2.169  0.4136 -0.7047 -0.6096
  656MOL0     C88458  -0.099  12.199   2.114 -0.4583 -0.0674  0.1061
  656MOL0     C88459  -0.211  12.275   2.147  0.0273 -0.1066  0.3392
  656MOL0     C88460  -0.313  12.224   2.223 -0.1223  0.2366  0.1263
  656MOL0     O88461  -0.422  12.304   2.246 -0.2507 -0.3833  0.0301
  656MOL0     C88462  -0.539  12.244   2.295  0.0876 -1.0213 -0.5792
  656MOL0     C88463  -0.638  12.361   2.316 -0.7629 -0.0522  0.1632
  656MOL0     C88464  -0.771  12.316   2.384  1.0356 -0.2831  0.3658
  656MOL0     C88465  -0.873  12.436   2.383  0.0186  0.5303 -0.2215
  656MOL0     C88466  -1.014  12.395   2.430  0.1530 -0.4493 -0.0577
  656MOL0     C88467  -1.106  12.518   2.420  0.5698 -0.1842  0.2402
  656MOL0     C88468  -1.239  12.498   2.491  0.2505 -0.3864  0.4787
  656MOL0     C88469  -1.316  12.631   2.500  1.1235 -0.1525  0.1182
  656MOL0    Cl88470  -1.456  12.595   2.598  0.1703 -0.1490 -0.0535
  656MOL0     C88471  -0.295  12.091   2.272  0.1277  0.1014  0.4697
  656MOL0     C88472  -0.178  12.023   2.256 -0.5752  0.0283  0.4417
  656MOL0     O88473  -0.042  11.880   1.977 -0.0417  0.6716 -0.0234
  656MOL0     C88474   0.213  11.790   2.208 -0.4759 -0.5466  0.5795
  656MOL0     C88475   0.319  11.698   2.225  0.3739 -0.2267 -0.5560
  656MOL0     N88476   0.871  11.023   2.280 -1.2569  0.1363 -0.1775
  656MOL0     N88477   0.945  11.005   2.382 -0.8467  0.7023 -0.4577
  656MOL0     C88478   1.712  10.877   3.406  0.4484  0.0405 -0.2378
  656MOL0     C88479   1.824  10.812   3.443  0.3268  0.3891 -0.1924
  656MOL0     C88480   2.116  10.462   3.541 -1.0657 -0.5069 -0.1572
  656MOL0     C88481   2.136  10.332   3.589 -0.1603  1.0938 -0.0175
  656MOL0     C88482   2.256  10.274   3.606  0.0004 -0.0093  0.8766
  656MOL0     C88483   2.374  10.346   3.591  0.0372  0.8344 -0.7927
  656MOL0     O88484   2.496  10.287   3.619  0.4006 -0.6695  0.4807
  656MOL0     C88485   2.608  10.377   3.634 -0.1481  0.3351 -0.2493
  656MOL0     C88486   2.728  10.313   3.707 -0.0892  0.5511 -0.1128
  656MOL0     C88487   2.857  10.404   3.704 -0.6197 -0.3886  1.1348
  656MOL0     C88488   2.890  10.442   3.550 -0.2631  0.2320 -0.3678
  656MOL0     C88489   3.021  10.514   3.531 -0.2352  0.3765 -1.0672
  656MOL0     C88490   3.134  10.559   3.526  0.4368 -0.9873  0.1449
  656MOL0     C88491   2.362  10.480   3.555 -0.3400 -0.8086  0.2938
  656MOL0     C88492   2.236  10.532   3.519 -0.5138  0.3957  0.3234
  656MOL0     H88493   1.819  10.549   3.235 -1.7890 -0.4399  2.2415
  656MOL0     H88494   1.597  10.659   3.170  0.7484  0.2681 -0.4789
  656MOL0     H88495   1.550  10.930   3.099  1.1954  0.7695  2.2623
  656MOL0     H88496   1.428  10.802   3.145  1.4671 -0.5995  1.0077
  656MOL0     H88497   1.283  10.972   3.220  0.6747  1.1637  0.4930
  656MOL0     H88498   1.378  11.099   3.141 -0.4050  0.3314 -0.1869
  656MOL0     H88499   1.261  10.866   2.980  1.7418  0.2462 -2.1411
  656MOL0     H88500   1.194  11.028   2.977  0.5288 -0.6706 -1.7142
  656MOL0     H88501   1.431  11.111   2.898 -2.2986  0.6735 -3.2446
  656MOL0     H88502   1.483  10.945   2.905 -1.3412 -3.7158 -0.5478
  656MOL0     H88503   1.433  10.989   2.693 -0.6431 -0.8147 -1.6956
  656MOL0     H88504   1.297  10.884   2.745  0.1197 -0.2136 -1.1992
  656MOL0     H88505   1.168  11.081   2.794  1.8951  0.6655  3.5582
  656MOL0     H88506   1.289  11.182   2.718 -1.1391 -1.6261  3.7118
  656MOL0     H88507   1.236  11.078   2.484  0.1366 -1.6344 -1.0327
  656MOL0     H88508   1.147  10.958   2.581  0.5226  0.2996 -0.1171
  656MOL0     H88509   1.074  11.257   2.574 -1.6782  0.0508  0.6776
  656MOL0     H88510   0.987  11.125   2.652  0.9224 -1.0917 -0.0701
  656MOL0     H88511   0.912  11.327   2.387 -0.7244  0.1500 -0.8854
  656MOL0     H88512   0.843  11.283   2.077  1.1124  1.0316  1.8692
  656MOL0     H88513   0.754  11.135   2.082  0.4454  2.5578 -2.0628
  656MOL0     H88514   0.594  11.228   2.248 -2.9968  1.7465 -0.3059
  656MOL0     H88515   0.587  11.314   2.091 -2.7993  0.5535  1.2171
  656MOL0     H88516   0.760  11.480   2.206  0.5090  0.7019  2.0788
  656MOL0     H88517   0.713  11.396   2.354  3.5216  0.4330 -0.4244
  656MOL0     H88518   0.569  11.607   2.313  2.8992 -1.5341  0.9962
  656MOL0     H88519   0.466  11.475   2.326  1.5651  1.1180  2.8609
  656MOL0     H88520   0.375  11.622   1.895  0.4497 -1.9714  1.7994
  656MOL0     H88521   0.136  11.718   1.783 -1.1509  1.3713 -0.9913
  656MOL0     H88522   0.153  11.895   1.820  1.4889  0.4451 -0.8259
  656MOL0     H88523   0.291  11.804   1.781 -0.4007  3.1055  1.5032
  656MOL0     H88524  -0.024  12.255   2.057  0.0484 -2.5284 -1.8275
  656MOL0     H88525  -0.222  12.379   2.116  0.8377  0.9015  3.1642
  656MOL0     H88526  -0.568  12.172   2.218  1.0544 -1.5551 -0.4663
  656MOL0     H88527  -0.524  12.201   2.395 -1.3806 -0.7747 -0.2233
  656MOL0     H88528  -0.591  12.442   2.372 -3.4403  2.7003 -1.3434
  656MOL0     H88529  -0.657  12.405   2.218 -0.1237  0.5853  0.3224
  656MOL0     H88530  -0.755  12.275   2.485  0.1498  1.9716  1.4778
  656MOL0     H88531  -0.814  12.236   2.322  1.9815  2.0384 -3.5504
  656MOL0     H88532  -0.833  12.524   2.434 -0.1423  3.1446 -4.1803
  656MOL0     H88533  -0.888  12.474   2.282 -1.4551  1.7057  0.3990
  656MOL0     H88534  -1.016  12.365   2.535  0.3284  0.6498  0.2727
  656MOL0     H88535  -1.040  12.310   2.366  3.0180  0.7664 -3.1314
  656MOL0     H88536  -1.057  12.611   2.449  1.4486  0.2909 -2.4407
  656MOL0     H88537  -1.123  12.538   2.314  0.4386  0.5450  0.3923
  656MOL0     H88538  -1.207  12.471   2.592 -1.4597 -0.1386  1.1277
  656MOL0     H88539  -1.297  12.419   2.441  0.2330 -0.4000  0.5206
  656MOL0     H88540  -1.359  12.651   2.401  2.8564 -2.0182 -1.1009
  656MOL0     H88541  -1.260  12.720   2.531  1.2086 -0.0113 -0.4213
  656MOL0     H88542  -0.363  12.040   2.340  0.6120 -0.5636  0.4622
  656MOL0     H88543  -0.153  11.930   2.306 -3.8279 -1.4911 -0.4204
  656MOL0     H88544   0.169  11.838   2.295 -2.6278 -0.6302 -0.3929
  656MOL0     H88545   0.354  11.692   2.327  2.4889 -0.6674 -1.2551
  656MOL0     H88546   1.690  10.974   3.448  0.1066  1.6705 -3.8097
  656MOL0     H88547   1.878  10.849   3.530  1.4491 -0.9891 -0.2670
  656MOL0     H88548   2.049  10.268   3.595  0.9002 -0.3978 -0.1121
  656MOL0     H88549   2.261  10.166   3.621  1.0825  0.2928  2.9510
  656MOL0     H88550   2.642  10.405   3.534  1.5413 -0.6268  0.0063
  656MOL0     H88551   2.583  10.471   3.684  1.5237  0.3019  0.7406
  656MOL0     H88552   2.746  10.217   3.658 -1.5431  0.5594 -0.7069
  656MOL0     H88553   2.695  10.304   3.811 -6.6851 -3.1986 -1.9819
  656MOL0     H88554   2.946  10.358   3.749 -1.0204 -1.5659  0.7601
  656MOL0     H88555   2.837  10.494   3.763  0.1872  1.0077 -0.6215
  656MOL0     H88556   2.806  10.503   3.515 -1.4032 -0.5892  0.8471
  656MOL0     H88557   2.894  10.354   3.485 -1.7381  1.5327 -2.3355
  656MOL0     H88558   3.229  10.607   3.529  0.1842 -0.3914 -1.0591
  656MOL0     H88559   2.452  10.536   3.532 -0.0229 -1.9027 -1.2448
  656MOL0     H88560   2.238  10.635   3.485 -0.3966  0.4091  0.3716
  657MOL0     O88561   5.912   1.326  11.095 -0.3476  0.7146  0.2128
  657MOL0     C88562   6.003   1.275  11.035  0.2012  0.2337 -0.8990
  657MOL0     O88563   6.012   1.256  10.901 -0.5418  0.2513  0.1611
  657MOL0     C88564   5.907   1.291  10.825  0.4065  0.1127 -0.0657
  657MOL0     C88565   5.864   1.426  10.818  0.3004 -0.0120 -0.0898
  657MOL0     C88566   5.749   1.465  10.750  0.3165  0.0423 -0.0719
  657MOL0     C88567   5.675   1.368  10.678 -0.2240  0.2331 -0.6000
  657MOL0     O88568   5.561   1.388  10.601 -0.1032  0.2689 -0.3075
  657MOL0     C88569   5.504   1.521  10.583  0.4703 -0.4168  0.3642
  657MOL0     C88570   5.355   1.527  10.531 -0.2798 -0.2028 -0.0336
  657MOL0     C88571   5.256   1.476  10.631  0.3954  0.2588 -0.0397
  657MOL0     C88572   5.120   1.467  10.549 -0.2594 -0.0276  0.1881
  657MOL0     C88573   5.012   1.451  10.641  0.8516  0.7330 -0.6857
  657MOL0     C88574   4.872   1.433  10.561 -0.8142 -0.5512  0.3303
  657MOL0     C88575   4.761   1.466  10.655 -1.0874  0.2816 -0.1331
  657MOL0     C88576   4.639   1.422  10.601 -0.4074  0.3025  0.1746
  657MOL0     N88577   4.570   1.531  10.533 -0.5304  0.0606  1.0563
  657MOL0     C88578   4.430   1.551  10.530 -0.1002 -0.2141 -0.2511
  657MOL0     C88579   4.413   1.681  10.479 -0.6707  0.0809 -0.5786
  657MOL0     C88580   4.286   1.752  10.471 -0.3365 -0.2531  0.9558
  657MOL0     C88581   4.228   1.732  10.338 -0.6545 -0.1393  1.0889
  657MOL0     C88582   4.073   1.739  10.343  1.5000  0.1761  0.6914
  657MOL0     C88583   4.016   1.728  10.197  0.1130  0.2238 -0.6445
  657MOL0     O88584   3.874   1.742  10.185 -0.7832  0.1844 -0.9102
  657MOL0     C88585   3.790   1.641  10.223 -0.1934  0.1908  0.5404
  657MOL0     C88586   3.837   1.517  10.265  0.5617 -1.1478 -0.1828
  657MOL0     C88587   3.747   1.419  10.306 -0.2643 -0.2820 -0.3638
  657MOL0     C88588   3.813   1.292  10.359  0.4793  0.2629  0.4381
  657MOL0     C88589   3.613   1.448  10.325  0.3357 -0.1097  0.2445
  657MOL0     C88590   3.513   1.349  10.376  0.8728  0.1654 -0.2446
  657MOL0     O88591   3.384   1.391  10.355  0.1902 -0.2245  0.0495
  657MOL0     C88592   3.281   1.299  10.351  0.5861 -0.3461  0.0553
  657MOL0     C88593   3.286   1.179  10.284 -0.1112  0.7174 -0.3432
  657MOL0     C88594   3.175   1.096  10.276  0.2599 -0.5533 -0.1944
  657MOL0     C88595   3.057   1.135  10.338  0.0182  0.1572 -0.2958
  657MOL0     O88596   2.942   1.063  10.322 -0.1713  0.3594 -0.2283
  657MOL0     C88597   2.943   0.943  10.241 -0.0768 -0.3125 -0.0063
  657MOL0     C88598   2.805   0.880  10.230  0.1485  0.1991  0.1214
  657MOL0     C88599   2.790   0.744  10.168 -0.1327 -0.2090  0.0444
  657MOL0     C88600   2.830   0.630  10.258 -0.0114  0.8967 -0.0588
  657MOL0     C88601   2.791   0.495  10.191  1.2745  0.1733 -0.0110
  657MOL0     C88602   2.837   0.381  10.279 -0.4141  1.0051 -0.4130
  657MOL0     C88603   2.781   0.242  10.232  0.2444 -0.6150 -1.1450
  657MOL0     C88604   2.633   0.223  10.254  1.0574  0.4006 -0.3239
  657MOL0    Cl88605   2.615   0.042  10.254 -0.3519 -0.0739 -0.1203
  657MOL0     C88606   3.054   1.251  10.414  0.2845 -0.9253  0.1462
  657MOL0     C88607   3.164   1.336  10.420 -0.2413 -0.4892  1.0157
  657MOL0     O88608   3.541   1.238  10.426  0.0241 -0.2592 -0.1475
  657MOL0     C88609   3.559   1.573  10.294 -0.1334 -0.3438  0.0502
  657MOL0     C88610   3.651   1.674  10.252 -0.0917 -0.2235 -0.0240
  657MOL0     N88611   4.541   1.726  10.448 -0.0724 -0.0650  0.5773
  657MOL0     N88612   4.629   1.639  10.477  0.4999 -0.1327  0.5354
  657MOL0     C88613   5.715   1.235  10.689 -0.1721  0.1212  0.7327
  657MOL0     C88614   5.828   1.192  10.758  0.2762 -0.1432 -0.5514
  657MOL0     C88615   6.116   1.238  11.119 -0.0015  0.1558  0.2956
  657MOL0     C88616   6.205   1.146  11.060  0.0067  0.1100 -0.0520
  657MOL0     C88617   6.304   1.103  11.148 -0.6656 -0.4754  0.9347
  657MOL0     C88618   6.315   1.155  11.275 -0.8607  0.1362 -0.1769
  657MOL0     O88619   6.396   1.098  11.366  0.0189  0.2510  0.5010
  657MOL0     C88620   6.518   1.164  11.367  0.5047  0.4399 -0.2407
  657MOL0     C88621   6.626   1.082  11.442 -0.4183  0.3572  0.1651
  657MOL0     C88622   6.595   1.048  11.590  0.2928  0.0063 -0.1821
  657MOL0     C88623   6.645   0.901  11.628 -0.6939 -0.6437 -0.0279
  657MOL0     C88624   6.791   0.904  11.645 -0.4942  0.4494 -1.1091
  657MOL0     C88625   6.912   0.896  11.666 -0.3835  0.7451 -0.0763
  657MOL0     C88626   6.228   1.252  11.324  0.1863  0.0170 -0.3984
  657MOL0     C88627   6.133   1.300  11.244 -0.1510  0.3460 -0.4037
  657MOL0     H88628   5.925   1.498  10.872 -1.2494  3.1805 -2.2892
  657MOL0     H88629   5.722   1.570  10.749 -1.6072 -0.4068 -1.2403
  657MOL0     H88630   5.511   1.582  10.674  4.0099  0.7410 -0.5175
  657MOL0     H88631   5.570   1.564  10.507  0.1247 -0.1734  0.1987
  657MOL0     H88632   5.332   1.630  10.502  1.8015  1.2087  2.8234
  657MOL0     H88633   5.349   1.469  10.438 -2.3526  2.0241 -1.3924
  657MOL0     H88634   5.282   1.375  10.664  2.7095  1.8175  3.5273
  657MOL0     H88635   5.243   1.547  10.713  0.7288  0.6967 -0.3578
  657MOL0     H88636   5.104   1.558  10.492 -1.8158 -0.9346 -0.8958
  657MOL0     H88637   5.126   1.391  10.470 -0.6355 -0.8437  0.9211
  657MOL0     H88638   5.026   1.363  10.704  0.6141 -0.4981 -2.2886
  657MOL0     H88639   5.014   1.538  10.707  2.3776 -0.6180  1.1547
  657MOL0     H88640   4.859   1.502  10.477  1.4369 -0.6486 -0.1623
  657MOL0     H88641   4.861   1.330  10.526  1.4329 -0.5890 -0.3893
  657MOL0     H88642   4.780   1.410  10.747  1.2674  1.7573  0.3785
  657MOL0     H88643   4.748   1.572  10.681 -3.7513 -0.5038  2.1999
  657MOL0     H88644   4.577   1.395  10.687  1.0184 -3.0311  0.3093
  657MOL0     H88645   4.651   1.335  10.536  1.7714  0.8251 -0.2183
  657MOL0     H88646   4.356   1.478  10.559 -0.4262 -0.1041 -0.7922
  657MOL0     H88647   4.226   1.700  10.547  0.1184  0.6499  1.9669
  657MOL0     H88648   4.289   1.861  10.475 -0.4885 -0.0485 -2.1126
  657MOL0     H88649   4.255   1.634  10.297 -1.1477 -0.4512  1.4915
  657MOL0     H88650   4.265   1.813  10.275  0.7998  1.0820  3.3656
  657MOL0     H88651   4.034   1.825  10.397 -1.1027 -0.5795  0.1340
  657MOL0     H88652   4.029   1.661  10.407 -2.3028  1.5148 -0.0288
  657MOL0     H88653   4.050   1.631  10.158  0.1413 -1.1242  2.4164
  657MOL0     H88654   4.068   1.798  10.131 -0.3749  0.4608 -0.7772
  657MOL0     H88655   3.938   1.480  10.248  0.7624 -1.2943  1.2198
  657MOL0     H88656   3.918   1.281  10.329  0.5476 -2.6200  1.4405
  657MOL0     H88657   3.814   1.281  10.468  1.8099 -0.9425  0.3399
  657MOL0     H88658   3.768   1.206  10.308  1.2251  2.5174 -4.6072
  657MOL0     H88659   3.380   1.146  10.241  0.1676  0.8306  0.1699
  657MOL0     H88660   3.181   0.999  10.228  2.0212 -0.0805 -0.9928
  657MOL0     H88661   2.970   0.973  10.140 -1.3746  1.0507  0.0070
  657MOL0     H88662   3.015   0.869  10.277 -0.8723 -1.4572 -0.6939
  657MOL0     H88663   2.764   0.873  10.331 -0.0678 -0.8068 -0.0216
  657MOL0     H88664   2.738   0.950  10.180  1.0493  0.3127 -0.9655
  657MOL0     H88665   2.840   0.746  10.071 -2.6135  3.4642 -1.3886
  657MOL0     H88666   2.688   0.723  10.133  0.5674 -2.7817 -0.6200
  657MOL0     H88667   2.938   0.631  10.278 -0.2189  0.9401  1.1324
  657MOL0     H88668   2.782   0.630  10.356  0.5381 -0.0143  0.2193
  657MOL0     H88669   2.837   0.486  10.092  0.9240  1.0059 -0.2524
  657MOL0     H88670   2.683   0.493  10.177  0.8203 -1.2713  2.8343
  657MOL0     H88671   2.946   0.378  10.280 -0.4276  0.1212  0.3549
  657MOL0     H88672   2.808   0.391  10.385  3.2079  2.4023  0.5634
  657MOL0     H88673   2.839   0.171  10.292  1.0748  1.0054  0.0624
  657MOL0     H88674   2.802   0.222  10.127  0.2295  0.6785 -1.4083
  657MOL0     H88675   2.574   0.267  10.174 -1.5608 -2.5710 -0.2029
  657MOL0     H88676   2.603   0.265  10.351 -0.7589 -1.9017  0.1999
  657MOL0     H88677   2.961   1.275  10.465 -0.2581 -1.8874 -0.3667
  657MOL0     H88678   3.158   1.430  10.474  1.2033 -0.7371  1.6505
  657MOL0     H88679   3.453   1.595  10.299 -0.5971 -1.9571 -1.4596
  657MOL0     H88680   3.621   1.774  10.222  0.8024  0.3496  0.9249
  657MOL0     H88681   5.657   1.162  10.632 -1.8240  2.2443 -0.4482
  657MOL0     H88682   5.856   1.088  10.770  2.1113  0.6282  6.1852
  657MOL0     H88683   6.196   1.118  10.956 -2.6682  2.6002 -0.6147
  657MOL0     H88684   6.366   1.019  11.120  0.9708  1.3314 -1.1902
  657MOL0     H88685   6.548   1.171  11.262 -1.3159  1.2279 -0.7576
  657MOL0     H88686   6.511   1.260  11.420  2.0100 -0.7426  2.2892
  657MOL0     H88687   6.716   1.144  11.447 -0.6416  0.6146  1.1032
  657MOL0     H88688   6.644   0.990  11.386  2.4133  0.4295  0.8400
  657MOL0     H88689   6.488   1.043  11.611  0.4716 -4.3156  0.6439
  657MOL0     H88690   6.645   1.119  11.656 -1.5392 -0.1950  1.5365
  657MOL0     H88691   6.615   0.831  11.550  0.4434  0.7860 -1.8341
  657MOL0     H88692   6.607   0.874  11.727  1.1068  2.7227  1.7757
  657MOL0     H88693   7.018   0.899  11.683 -0.5861 -0.7712  1.6745
  657MOL0     H88694   6.240   1.289  11.425  1.5861 -2.2367  0.3384
  657MOL0     H88695   6.065   1.380  11.274  0.1482  0.0186  1.2344
  658MOL0     O88696   2.581   3.574   6.105  0.3456  0.4893  0.1010
  658MOL0     C88697   2.564   3.687   6.082  0.4793 -0.2068 -0.1289
  658MOL0     O88698   2.441   3.748   6.087 -0.0382  0.5133  0.1756
  658MOL0     C88699   2.317   3.695   6.116 -0.3538 -0.8081  0.3331
  658MOL0     C88700   2.209   3.759   6.049 -0.0372  0.0052 -0.0896
  658MOL0     C88701   2.082   3.713   6.071  0.1020  0.3379  0.5482
  658MOL0     C88702   2.055   3.601   6.159 -0.3124  0.0903 -0.2654
  658MOL0     O88703   1.927   3.564   6.177 -0.0061 -0.3217  0.4934
  658MOL0     C88704   1.885   3.476   6.285 -0.2491  0.5246 -0.1363
  658MOL0     C88705   1.735   3.465   6.279 -0.1682 -0.8382  0.0125
  658MOL0     C88706   1.658   3.602   6.319 -0.5173  0.0863 -0.9961
  658MOL0     C88707   1.507   3.590   6.345  0.8935  0.5012 -0.5494
  658MOL0     C88708   1.438   3.730   6.339  0.0392  0.2221  0.4105
  658MOL0     C88709   1.293   3.706   6.328  0.5336  0.1905 -0.3846
  658MOL0     C88710   1.217   3.843   6.314 -0.3452  0.3699 -0.6451
  658MOL0     C88711   1.067   3.831   6.295  0.3656  0.9896  0.7944
  658MOL0     N88712   1.010   3.959   6.252  0.0493 -0.7257  0.8195
  658MOL0     C88713   1.043   4.025   6.131  0.3438  0.0977  0.1088
  658MOL0     C88714   0.954   4.133   6.130 -0.5484  0.2972  0.5777
  658MOL0     C88715   0.943   4.223   6.010  0.7872 -0.9022  0.2189
  658MOL0     C88716   0.789   4.228   5.963 -0.6649 -0.6139  0.5525
  658MOL0     C88717   0.782   4.314   5.826 -0.4325  0.2549  0.3099
  658MOL0     C88718   0.636   4.346   5.792 -0.5526 -0.8387  0.2327
  658MOL0     O88719   0.572   4.233   5.726  0.0346  0.0116 -0.3544
  658MOL0     C88720   0.440   4.231   5.679 -0.0713 -0.6231  0.1300
  658MOL0     C88721   0.391   4.107   5.630  1.1007 -0.1110 -0.4085
  658MOL0     C88722   0.257   4.096   5.592 -0.7136  0.0732  0.1466
  658MOL0     C88723   0.200   3.956   5.552  0.0592  0.2848 -0.4618
  658MOL0     C88724   0.172   4.214   5.591 -0.2672 -0.0931  0.0344
  658MOL0     C88725   0.031   4.224   5.546  0.0311 -0.1416  0.0899
  658MOL0     O88726  -0.025   4.344   5.511  0.2697 -0.1848 -0.3465
  658MOL0     C88727  -0.150   4.348   5.452 -0.5204 -0.7480 -0.5719
  658MOL0     C88728  -0.189   4.262   5.349  0.6394  0.9214  0.1167
  658MOL0     C88729  -0.310   4.282   5.286 -0.3368  0.4675  0.7623
  658MOL0     C88730  -0.401   4.390   5.316  0.3839 -0.3960 -0.6452
  658MOL0     O88731  -0.517   4.399   5.241  0.6335 -0.0423 -0.5412
  658MOL0     C88732  -0.587   4.526   5.245  0.0942  0.1252  0.2328
  658MOL0     C88733  -0.704   4.512   5.145 -0.5664 -0.1278  0.4333
  658MOL0     C88734  -0.828   4.585   5.200  0.6021  0.5301 -1.1612
  658MOL0     C88735  -0.889   4.505   5.323  0.4207 -0.9380  0.4791
  658MOL0     C88736  -0.961   4.377   5.292  0.9682 -0.0083  0.1486
  658MOL0     C88737  -1.070   4.388   5.181  0.3506  0.2538 -0.7307
  658MOL0     C88738  -1.178   4.483   5.224  0.5181  0.1620  0.1617
  658MOL0     C88739  -1.302   4.453   5.128 -0.1648  0.1127 -0.1365
  658MOL0    Cl88740  -1.421   4.571   5.171  0.0144 -0.2820  0.1634
  658MOL0     C88741  -0.370   4.473   5.432  0.4825 -0.1229  0.3653
  658MOL0     C88742  -0.239   4.446   5.493 -0.2890  0.8005  0.1534
  658MOL0     O88743  -0.030   4.119   5.562  0.0053 -0.3652  0.2790
  658MOL0     C88744   0.229   4.337   5.645 -1.0766  0.2759  0.3249
  658MOL0     C88745   0.358   4.345   5.692 -0.4362 -0.2305  0.7311
  658MOL0     N88746   0.890   4.135   6.247 -0.4198  0.0796  0.0901
  658MOL0     N88747   0.922   4.037   6.323 -0.1679  0.3830  0.2392
  658MOL0     C88748   2.167   3.540   6.218  0.7900  0.4096  0.4787
  658MOL0     C88749   2.294   3.587   6.198 -0.7361 -0.0672 -0.4163
  658MOL0     C88750   2.670   3.772   6.044 -0.1624  0.8536  0.8624
  658MOL0     C88751   2.802   3.722   6.031 -0.2652 -0.3697  0.2792
  658MOL0     C88752   2.905   3.805   5.992  0.9432  0.3557  0.5658
  658MOL0     C88753   2.876   3.928   5.936  0.4825 -0.3515 -0.3547
  658MOL0     O88754   2.979   4.011   5.897 -0.2274  0.4459 -0.3960
  658MOL0     C88755   2.977   4.085   5.776 -0.3679  0.2625 -0.1227
  658MOL0     C88756   3.100   4.174   5.759  0.3314 -0.4475  0.3908
  658MOL0     C88757   3.235   4.090   5.763 -0.8744  0.2562  0.2466
  658MOL0     C88758   3.351   4.193   5.767 -0.3268  0.2590 -0.3059
  658MOL0     C88759   3.373   4.284   5.652 -0.2147 -0.3169 -0.7062
  658MOL0     C88760   3.399   4.352   5.559  0.0083  0.3879  1.3868
  658MOL0     C88761   2.751   3.985   5.959  0.5208  0.1307  0.4768
  658MOL0     C88762   2.646   3.907   6.013  0.6949  0.1139 -0.3680
  658MOL0     H88763   2.231   3.842   5.983  2.9726  1.9168  2.9801
  658MOL0     H88764   1.995   3.758   6.024  0.5247  2.8261  2.0176
  658MOL0     H88765   1.927   3.375   6.280  0.7148  0.7691  1.9402
  658MOL0     H88766   1.916   3.524   6.378 -1.5210 -0.6532  0.9567
  658MOL0     H88767   1.705   3.439   6.177  2.6317 -1.1845 -0.8074
  658MOL0     H88768   1.703   3.379   6.339  1.6625 -1.4582  0.1704
  658MOL0     H88769   1.706   3.649   6.405 -4.0032  3.4678 -0.6230
  658MOL0     H88770   1.662   3.671   6.233  0.2379 -0.4879 -1.4314
  658MOL0     H88771   1.451   3.528   6.274 -2.2397 -0.3127  2.3488
  658MOL0     H88772   1.482   3.548   6.443 -0.3506 -0.1527 -1.1184
  658MOL0     H88773   1.451   3.780   6.435 -1.3176 -3.1009  2.5025
  658MOL0     H88774   1.466   3.791   6.253 -1.8265  1.5060  0.6490
  658MOL0     H88775   1.265   3.648   6.240  1.1712  1.1360 -1.2343
  658MOL0     H88776   1.265   3.650   6.418  1.4488  1.8818  1.0360
  658MOL0     H88777   1.224   3.901   6.407  2.0538  1.9904 -1.7303
  658MOL0     H88778   1.261   3.894   6.228 -0.1603 -0.0947 -0.8278
  658MOL0     H88779   1.015   3.803   6.387 -1.5189  3.7136  0.6921
  658MOL0     H88780   1.049   3.763   6.211  1.8017  4.0826 -2.2487
  658MOL0     H88781   1.118   4.002   6.056 -0.9143  1.3591 -1.6155
  658MOL0     H88782   0.979   4.318   6.051  0.6031 -1.3598  1.4833
  658MOL0     H88783   1.013   4.190   5.934 -0.7830 -2.6197 -0.5675
  658MOL0     H88784   0.740   4.273   6.049  3.7249  2.0432  2.0215
  658MOL0     H88785   0.755   4.127   5.940  2.0407 -1.8394  1.4677
  658MOL0     H88786   0.827   4.251   5.750 -3.8538 -1.2081 -0.7012
  658MOL0     H88787   0.841   4.405   5.838 -0.3377 -0.1266  3.6152
  658MOL0     H88788   0.639   4.425   5.717 -0.3235 -2.6088 -1.7437
  658MOL0     H88789   0.584   4.379   5.882  1.1614  0.4077  0.8072
  658MOL0     H88790   0.456   4.021   5.615 -1.3665 -2.3478  0.9481
  658MOL0     H88791   0.115   3.924   5.613 -0.5894 -0.2682 -1.6331
  658MOL0     H88792   0.156   3.981   5.455 -0.1349 -0.6065 -0.6122
  658MOL0     H88793   0.275   3.878   5.540 -1.6359 -1.2187 -1.6665
  658MOL0     H88794  -0.129   4.184   5.304  0.4789 -0.2904  1.9017
  658MOL0     H88795  -0.327   4.226   5.195 -0.5485  3.3676 -1.1303
  658MOL0     H88796  -0.620   4.571   5.339 -2.7943  1.3430 -1.2362
  658MOL0     H88797  -0.522   4.604   5.204 -0.5058  0.0986 -0.8183
  658MOL0     H88798  -0.663   4.545   5.049 -1.5986 -0.0169  0.0148
  658MOL0     H88799  -0.733   4.409   5.123 -2.5683  1.0010 -2.7783
  658MOL0     H88800  -0.904   4.594   5.121  0.2432  2.1919 -0.6750
  658MOL0     H88801  -0.806   4.689   5.226  3.3265  0.4001 -2.6356
  658MOL0     H88802  -0.808   4.497   5.395 -0.3348 -0.9247  1.3466
  658MOL0     H88803  -0.955   4.574   5.376  2.7754 -0.2128  2.6564
  658MOL0     H88804  -1.004   4.340   5.386  0.1211 -1.6535 -0.8407
  658MOL0     H88805  -0.902   4.290   5.265  0.9326 -0.4273  1.3762
  658MOL0     H88806  -1.036   4.427   5.085  1.7593  0.9235  0.0033
  658MOL0     H88807  -1.110   4.289   5.158  0.3094  0.2842 -0.7896
  658MOL0     H88808  -1.152   4.587   5.202 -2.5833  1.2457  1.0153
  658MOL0     H88809  -1.195   4.467   5.331  2.4005  2.4637  0.8994
  658MOL0     H88810  -1.329   4.350   5.152  1.2436 -0.7938 -2.1346
  658MOL0     H88811  -1.269   4.467   5.025  2.3557  1.2958  0.7614
  658MOL0     H88812  -0.434   4.554   5.462  1.6694  1.6579 -1.6137
  658MOL0     H88813  -0.198   4.510   5.571  4.6133  1.8719 -2.8119
  658MOL0     H88814   0.178   4.432   5.656 -3.6112 -0.9714 -0.0318
  658MOL0     H88815   0.404   4.440   5.717 -1.4078  1.4746 -3.1650
  658MOL0     H88816   2.156   3.459   6.289 -0.0714 -1.9604 -2.1687
  658MOL0     H88817   2.374   3.525   6.236 -2.0793 -1.1166  0.7838
  658MOL0     H88818   2.828   3.620   6.055  2.8804  0.7329  2.2098
  658MOL0     H88819   3.005   3.766   5.975  0.0847 -0.3323 -4.0209
  658MOL0     H88820   2.964   4.022   5.688  3.1126  0.6716 -1.0522
  658MOL0     H88821   2.883   4.141   5.771 -0.2544  0.3279 -2.9006
  658MOL0     H88822   3.103   4.249   5.838  0.7797  0.9939 -0.9581
  658MOL0     H88823   3.080   4.227   5.665  0.3629 -0.8232  0.1686
  658MOL0     H88824   3.261   4.034   5.673  0.0453 -0.2778  0.8294
  658MOL0     H88825   3.242   4.013   5.840  1.3888 -0.7179 -0.8385
  658MOL0     H88826   3.438   4.127   5.766 -0.4635  0.0530  0.8211
  658MOL0     H88827   3.335   4.245   5.862  0.5417 -2.4281  1.4241
  658MOL0     H88828   3.413   4.399   5.464  0.8865 -1.4835  0.5281
  658MOL0     H88829   2.721   4.085   5.928  1.0168 -0.0370 -0.5818
  658MOL0     H88830   2.551   3.958   6.026  2.7413  3.8394  1.8901
  659MOL0     O88831  10.983   7.663  11.248 -0.4057 -0.3888  0.7762
  659MOL0     C88832  10.956   7.559  11.185  0.0661 -0.1366 -0.0669
  659MOL0     O88833  10.838   7.528  11.124 -0.5532 -0.6503  0.4262
  659MOL0     C88834  10.740   7.623  11.105 -0.7426  0.1718  0.5740
  659MOL0     C88835  10.710   7.748  11.180 -0.3793 -0.0888  0.6086
  659MOL0     C88836  10.596   7.827  11.152  0.6519 -0.7680 -0.4240
  659MOL0     C88837  10.506   7.793  11.050  0.7292 -0.5877  0.8097
  659MOL0     O88838  10.412   7.884  11.022 -0.1557 -0.0536  0.1071
  659MOL0     C88839  10.336   7.849  10.905  1.8564 -0.1814  1.0588
  659MOL0     C88840  10.212   7.942  10.869 -0.9520 -0.1031  0.1025
  659MOL0     C88841  10.078   7.923  10.941 -0.3497 -0.0700 -0.3329
  659MOL0     C88842   9.974   8.024  10.881  0.6807 -0.1622 -0.4933
  659MOL0     C88843   9.835   8.004  10.950 -0.0749 -0.0343 -0.7292
  659MOL0     C88844   9.735   8.093  10.887 -0.4690  0.2100 -0.8480
  659MOL0     C88845   9.597   8.078  10.946  0.5635  0.0311  0.9271
  659MOL0     C88846   9.510   8.200  10.909 -0.6993  0.1726 -0.6565
  659MOL0     N88847   9.382   8.188  10.987 -0.1622 -0.7126 -0.2402
  659MOL0     C88848   9.274   8.124  10.949 -0.3272  0.0055 -0.2082
  659MOL0     C88849   9.187   8.154  11.050  0.9078 -0.4502  0.1599
  659MOL0     C88850   9.043   8.092  11.063  0.5152  0.6941 -0.2302
  659MOL0     C88851   8.935   8.205  11.064 -0.2044 -0.6716  0.2646
  659MOL0     C88852   8.937   8.301  10.943  1.4920  0.3964  0.0144
  659MOL0     C88853   8.823   8.404  10.954  0.0308  0.6097  0.5161
  659MOL0     O88854   8.702   8.345  11.012 -0.2425 -0.3060 -0.3334
  659MOL0     C88855   8.589   8.336  10.937  0.0939 -0.1381  0.5620
  659MOL0     C88856   8.580   8.339  10.791  0.1218  1.0431 -0.4530
  659MOL0     C88857   8.457   8.318  10.725 -0.2480  0.0071 -0.8290
  659MOL0     C88858   8.462   8.303  10.570 -0.1165  0.2111  0.2833
  659MOL0     C88859   8.337   8.296  10.796  0.4711  0.5306 -0.4077
  659MOL0     C88860   8.204   8.271  10.737  0.2177  0.2766  0.4237
  659MOL0     O88861   8.103   8.223  10.819 -0.2763 -0.5178  0.2559
  659MOL0     C88862   7.982   8.197  10.768 -0.0831 -0.4649 -0.5797
  659MOL0     C88863   7.894   8.303  10.720 -0.6334 -0.1737  0.4074
  659MOL0     C88864   7.756   8.267  10.701 -0.3079  0.4412 -0.6216
  659MOL0     C88865   7.708   8.138  10.725  0.8820  0.3627 -0.1369
  659MOL0     O88866   7.578   8.104  10.703  0.4020  0.0904 -0.4250
  659MOL0     C88867   7.509   8.158  10.593  0.6677 -0.0120  0.5719
  659MOL0     C88868   7.383   8.075  10.564  0.7623 -0.3186 -0.0760
  659MOL0     C88869   7.289   8.067  10.687  0.5075 -0.5194 -0.0990
  659MOL0     C88870   7.165   7.977  10.655  0.6051 -0.5727 -0.8432
  659MOL0     C88871   7.058   7.999  10.760  0.4955 -0.9728 -0.9696
  659MOL0     C88872   6.933   7.910  10.734  0.1005  1.2132 -0.1549
  659MOL0     C88873   6.810   7.953  10.812  0.6580  0.1454 -0.6573
  659MOL0     C88874   6.691   7.854  10.819 -0.5458 -0.2097 -0.2424
  659MOL0    Cl88875   6.615   7.843  10.657  0.0468  0.0693  0.2660
  659MOL0     C88876   7.794   8.036  10.766  0.0931  0.4916  0.3568
  659MOL0     C88877   7.926   8.068  10.788  0.0506 -0.3430 -0.5616
  659MOL0     O88878   8.181   8.315  10.631  0.3228  0.0668  0.5601
  659MOL0     C88879   8.348   8.286  10.940  0.1722  0.1355  0.0089
  659MOL0     C88880   8.470   8.302  11.008 -0.3060 -0.4990 -0.5116
  659MOL0     N88881   9.245   8.246  11.144  0.0844 -0.1330  0.0303
  659MOL0     N88882   9.356   8.257  11.101 -0.7749 -1.0677  0.2484
  659MOL0     C88883  10.535   7.669  10.979  0.3068 -0.3092 -0.0580
  659MOL0     C88884  10.639   7.588  11.014 -0.6758  0.4656 -0.4073
  659MOL0     C88885  11.058   7.450  11.180 -0.3866  1.3069 -0.7957
  659MOL0     C88886  11.044   7.347  11.080 -0.4462  0.7053  0.0986
  659MOL0     C88887  11.143   7.250  11.059  0.1705 -0.1449 -0.3832
  659MOL0     C88888  11.257   7.246  11.141  1.3787  0.0037  0.3095
  659MOL0     O88889  11.366   7.166  11.135 -0.2343 -0.3099  0.2504
  659MOL0     C88890  11.350   7.041  11.084  0.2113  0.1245 -0.1225
  659MOL0     C88891  11.391   7.036  10.938 -0.9270 -0.2570  0.4226
  659MOL0     C88892  11.542   7.073  10.921  0.0939  0.6643  0.5121
  659MOL0     C88893  11.555   7.111  10.770 -0.6039  0.8799 -0.6283
  659MOL0     C88894  11.691   7.130  10.724  0.0834 -0.4224 -0.4175
  659MOL0     C88895  11.805   7.149  10.689 -0.6536 -0.3413  1.0071
  659MOL0     C88896  11.269   7.343  11.237 -0.2329  0.3185  0.7250
  659MOL0     C88897  11.176   7.447  11.256 -0.4335 -0.5625  0.0684
  659MOL0     H88898  10.777   7.783  11.258 -2.3449  0.7812  1.9915
  659MOL0     H88899  10.587   7.920  11.207 -0.8360 -1.8109  1.2073
  659MOL0     H88900  10.397   7.843  10.814 -0.5747  1.5695 -0.8549
  659MOL0     H88901  10.293   7.750  10.923 -0.8812 -0.0924 -3.3874
  659MOL0     H88902  10.257   8.041  10.881  2.2443 -1.7631  4.5492
  659MOL0     H88903  10.188   7.920  10.764  0.7716  1.0229 -0.5744
  659MOL0     H88904  10.040   7.821  10.929 -0.6685 -0.1200  0.9998
  659MOL0     H88905  10.091   7.937  11.049 -1.6236 -6.3546  1.0307
  659MOL0     H88906  10.003   8.130  10.879 -3.5834  1.1840  0.0218
  659MOL0     H88907   9.951   8.009  10.775 -0.9516  0.0065 -0.1913
  659MOL0     H88908   9.794   7.905  10.930 -0.5967  0.3227 -1.5039
  659MOL0     H88909   9.843   8.020  11.058  1.6461  0.7450 -0.9391
  659MOL0     H88910   9.779   8.192  10.898  0.1576 -0.1247 -0.2626
  659MOL0     H88911   9.734   8.073  10.779  2.5009  1.1066 -1.1404
  659MOL0     H88912   9.556   7.992  10.892  0.9315  0.0915  0.5432
  659MOL0     H88913   9.589   8.047  11.051 -1.9091 -2.8409  0.0048
  659MOL0     H88914   9.476   8.205  10.805 -1.2679  0.1452 -0.4731
  659MOL0     H88915   9.570   8.287  10.938 -0.9702 -0.1777  1.0169
  659MOL0     H88916   9.254   8.071  10.856 -0.6257  0.6507 -0.5202
  659MOL0     H88917   9.013   8.023  10.984 -0.8477  2.7706 -1.6194
  659MOL0     H88918   9.041   8.041  11.160  1.1752  3.1559  1.1653
  659MOL0     H88919   8.943   8.277  11.147  0.5219 -2.1088  1.4991
  659MOL0     H88920   8.836   8.159  11.056 -0.7232  0.1956  1.3804
  659MOL0     H88921   8.917   8.236  10.857  1.0392 -1.0554  1.1674
  659MOL0     H88922   9.031   8.356  10.930  2.7250 -1.8928 -1.3268
  659MOL0     H88923   8.816   8.459  10.860 -1.1391  0.0665  0.2600
  659MOL0     H88924   8.844   8.482  11.028  1.1146  1.7269 -0.9088
  659MOL0     H88925   8.671   8.367  10.739 -0.3591  3.1505 -0.2543
  659MOL0     H88926   8.424   8.206  10.537 -0.5578  0.6139 -0.4103
  659MOL0     H88927   8.404   8.387  10.531 -0.9512  0.6843  2.4106
  659MOL0     H88928   8.561   8.316  10.525 -0.0501  1.7664  0.7833
  659MOL0     H88929   7.925   8.406  10.703  0.6522 -0.2693  1.9592
  659MOL0     H88930   7.698   8.348  10.659  0.9634  0.5004 -2.3715
  659MOL0     H88931   7.469   8.259  10.611  2.4036  0.5741  1.4628
  659MOL0     H88932   7.586   8.166  10.516  0.1832  1.2177  0.1823
  659MOL0     H88933   7.329   8.113  10.477  3.3049 -0.7642 -1.9724
  659MOL0     H88934   7.394   7.971  10.531  1.5220 -0.1104 -0.5020
  659MOL0     H88935   7.259   8.171  10.705  1.0526 -0.7115  2.1579
  659MOL0     H88936   7.336   8.029  10.778 -2.0013 -3.2526  0.2049
  659MOL0     H88937   7.122   8.021  10.564  0.9549  0.0356 -0.7213
  659MOL0     H88938   7.198   7.874  10.639 -1.7698 -1.7586  1.1275
  659MOL0     H88939   7.026   8.103  10.775 -0.3692 -1.3392 -0.1817
  659MOL0     H88940   7.104   7.971  10.856  0.6708  3.9470  0.6624
  659MOL0     H88941   6.900   7.913  10.630  3.2559 -2.2877 -1.5319
  659MOL0     H88942   6.955   7.805  10.760 -4.0204  0.2705  0.1076
  659MOL0     H88943   6.777   8.053  10.784 -0.8276  1.1624  3.9160
  659MOL0     H88944   6.839   7.953  10.917  3.0446 -2.6336 -1.1860
  659MOL0     H88945   6.622   7.884  10.899  0.0567 -0.3550  0.3369
  659MOL0     H88946   6.724   7.751  10.839 -0.5067 -0.9509 -3.5138
  659MOL0     H88947   7.760   7.935  10.784 -1.7339  1.3225  1.9703
  659MOL0     H88948   7.996   8.000  10.836  1.6909  1.2333 -0.5896
  659MOL0     H88949   8.261   8.271  11.003 -0.2247  2.1807  0.0307
  659MOL0     H88950   8.478   8.303  11.117  1.9213  1.0557 -0.6115
  659MOL0     H88951  10.468   7.636  10.901  1.0761 -1.9287 -0.0711
  659MOL0     H88952  10.653   7.495  10.959  0.3582  0.3334  0.0681
  659MOL0     H88953  10.962   7.348  11.009 -1.7095  0.4457  1.5213
  659MOL0     H88954  11.140   7.187  10.970  0.3821  0.2135 -0.6512
  659MOL0     H88955  11.428   6.986  11.136  2.3536  1.7828 -1.4136
  659MOL0     H88956  11.251   6.995  11.095  0.0643  0.2532 -0.8647
  659MOL0     H88957  11.336   7.107  10.876 -0.1091 -0.1327 -0.1914
  659MOL0     H88958  11.381   6.937  10.892  1.2575  0.4581 -1.8193
  659MOL0     H88959  11.590   6.977  10.941 -1.8216 -0.7113 -1.1788
  659MOL0     H88960  11.574   7.147  10.995 -0.6057 -0.8635  2.4304
  659MOL0     H88961  11.496   7.201  10.752  0.6393  1.4494 -2.0555
  659MOL0     H88962  11.515   7.025  10.716  0.4172 -1.2211  1.7336
  659MOL0     H88963  11.902   7.167  10.647 -0.5760 -0.4614  1.1351
  659MOL0     H88964  11.352   7.349  11.306 -1.2606 -1.0662  2.1686
  659MOL0     H88965  11.197   7.522  11.331 -0.4228  2.3008 -2.5718
  660MOL0     O88966   0.113   3.726   2.836  0.3950 -0.0846 -0.3820
  660MOL0     C88967   0.181   3.793   2.761  0.2400  0.1727  1.1161
  660MOL0     O88968   0.128   3.858   2.651  0.0523  0.1749 -0.3469
  660MOL0     C88969  -0.003   3.847   2.627  0.6990  0.2620 -0.1312
  660MOL0     C88970  -0.067   3.971   2.619 -0.0143  1.1365 -0.0338
  660MOL0     C88971  -0.204   3.973   2.582  1.6584  0.1334  0.2690
  660MOL0     C88972  -0.271   3.856   2.540 -0.4016  0.8656 -0.1156
  660MOL0     O88973  -0.397   3.861   2.498  1.0531 -0.3215  0.3374
  660MOL0     C88974  -0.490   3.936   2.574 -0.0084  0.7106  0.0256
  660MOL0     C88975  -0.614   3.943   2.487 -0.0906  0.0410 -0.4922
  660MOL0     C88976  -0.691   4.070   2.515  0.6961 -0.2444 -0.1546
  660MOL0     C88977  -0.837   4.063   2.449  0.0897 -0.3201 -1.0595
  660MOL0     C88978  -0.908   4.198   2.452  0.2146  0.0664 -0.5032
  660MOL0     C88979  -1.036   4.205   2.371  0.5445 -0.0782 -0.1143
  660MOL0     C88980  -1.160   4.145   2.432  0.3816 -0.5149 -0.7117
  660MOL0     C88981  -1.284   4.194   2.362  0.2541 -0.0479 -0.0218
  660MOL0     N88982  -1.395   4.097   2.402  1.0101  0.1271  0.4130
  660MOL0     C88983  -1.472   4.088   2.511 -0.5332  0.4874 -0.4401
  660MOL0     C88984  -1.550   3.978   2.500  0.6781  0.3776 -0.5559
  660MOL0     C88985  -1.662   3.939   2.584 -0.0475  0.2025  0.6715
  660MOL0     C88986  -1.792   3.989   2.510  0.3876  0.0362  1.0240
  660MOL0     C88987  -1.819   3.923   2.382 -0.4856 -0.2804  1.0632
  660MOL0     C88988  -1.851   3.777   2.381  0.2349  0.4182 -0.0810
  660MOL0     O88989  -1.961   3.735   2.468 -0.1589  0.7329 -0.0784
  660MOL0     C88990  -2.096   3.756   2.438 -0.0470  0.6835 -0.7730
  660MOL0     C88991  -2.142   3.824   2.326  0.0209 -0.2444 -0.2716
  660MOL0     C88992  -2.279   3.844   2.310  0.5845 -0.6707  0.5343
  660MOL0     C88993  -2.322   3.921   2.182 -1.1713 -0.3273 -0.7117
  660MOL0     C88994  -2.376   3.806   2.411  0.1463  0.0983 -0.7637
  660MOL0     C88995  -2.528   3.832   2.417 -0.3079  0.3239  0.5069
  660MOL0     O88996  -2.612   3.734   2.375  0.0231  0.5994 -0.3776
  660MOL0     C88997  -2.747   3.753   2.401  0.4863 -0.2587 -0.7093
  660MOL0     C88998  -2.823   3.841   2.326  0.1260 -0.1382 -0.4117
  660MOL0     C88999  -2.958   3.855   2.357 -0.1405  0.4334  0.9187
  660MOL0     C89000  -3.015   3.783   2.460 -0.0581 -0.3919 -0.7115
  660MOL0     O89001  -3.149   3.784   2.498  0.4153 -0.3250 -0.3991
  660MOL0     C89002  -3.234   3.905   2.480 -1.0193  0.7328  0.0225
  660MOL0     C89003  -3.374   3.887   2.494 -0.0803 -0.2146  0.6727
  660MOL0     C89004  -3.435   3.830   2.627  0.6828  0.2837 -0.0638
  660MOL0     C89005  -3.581   3.876   2.646 -1.0190 -0.1795 -0.1951
  660MOL0     C89006  -3.665   3.809   2.758  0.6230  0.6595  0.2747
  660MOL0     C89007  -3.807   3.883   2.779 -0.2042 -0.9881 -0.0063
  660MOL0     C89008  -3.879   3.819   2.906  0.0920  1.2017  0.2663
  660MOL0     C89009  -4.023   3.858   2.914  0.4322 -0.1323 -0.1557
  660MOL0    Cl89010  -4.135   3.729   2.966  0.5233 -0.8165  0.2137
  660MOL0     C89011  -2.930   3.705   2.541 -0.5475  0.8251 -0.4026
  660MOL0     C89012  -2.799   3.688   2.508  1.0565  0.2135  0.3674
  660MOL0     O89013  -2.558   3.945   2.461 -0.4751 -0.0160 -0.2681
  660MOL0     C89014  -2.327   3.725   2.514  0.0891  0.0444  0.2478
  660MOL0     C89015  -2.189   3.700   2.527 -0.7821  0.1144 -0.1634
  660MOL0     N89016  -1.500   3.912   2.393 -0.5020  1.0987  0.1775
  660MOL0     N89017  -1.420   3.985   2.330  0.6170 -0.1964  0.2252
  660MOL0     C89018  -0.208   3.725   2.552  0.0711  0.2075  0.2541
  660MOL0     C89019  -0.076   3.727   2.597 -0.0266  0.7765 -0.6119
  660MOL0     C89020   0.326   3.805   2.789  0.4508 -1.1156 -1.2465
  660MOL0     C89021   0.377   3.711   2.876  0.8755 -0.4020 -0.0985
  660MOL0     C89022   0.510   3.721   2.918 -0.1693  0.2352 -0.0206
  660MOL0     C89023   0.596   3.821   2.870  0.0835 -0.1426 -0.4228
  660MOL0     O89024   0.730   3.834   2.918  0.0122 -0.9520  0.0465
  660MOL0     C89025   0.819   3.723   2.913 -0.8796  0.2720 -0.2893
  660MOL0     C89026   0.931   3.758   2.828 -0.3629  1.0653  0.7734
  660MOL0     C89027   1.041   3.641   2.810  0.3401 -0.1743  0.0175
  660MOL0     C89028   1.169   3.655   2.894  0.0315 -0.7304  0.3048
  660MOL0     C89029   1.125   3.656   3.035 -0.0826  0.9627  0.0595
  660MOL0     C89030   1.105   3.647   3.155 -0.5916 -0.1061 -0.2042
  660MOL0     C89031   0.541   3.922   2.786 -0.6920  0.4130 -0.1004
  660MOL0     C89032   0.404   3.913   2.741 -0.6578  0.5251 -0.7260
  660MOL0     H89033  -0.021   4.066   2.643 -2.2902  1.8716  1.7564
  660MOL0     H89034  -0.243   4.071   2.555  0.2637 -0.6523 -0.7620
  660MOL0     H89035  -0.507   3.888   2.671 -1.4762 -0.3565 -0.7194
  660MOL0     H89036  -0.459   4.040   2.585  1.1717  0.5732 -1.6361
  660MOL0     H89037  -0.585   3.940   2.381 -1.5511 -0.2591 -0.9062
  660MOL0     H89038  -0.675   3.857   2.515  0.8610 -0.2247  0.8459
  660MOL0     H89039  -0.708   4.086   2.622  3.5134  3.1132 -0.0586
  660MOL0     H89040  -0.630   4.157   2.489  0.7828  1.2573  4.1978
  660MOL0     H89041  -0.825   4.026   2.346  0.1378 -0.6459 -0.9402
  660MOL0     H89042  -0.898   3.986   2.498 -1.8382  1.4500 -0.5503
  660MOL0     H89043  -0.928   4.237   2.552  1.5093 -0.3476 -0.0618
  660MOL0     H89044  -0.834   4.261   2.402 -1.3090  1.0497 -1.5890
  660MOL0     H89045  -1.056   4.311   2.355 -0.6989  0.0529  1.8962
  660MOL0     H89046  -1.033   4.172   2.267 -4.4118 -1.7526  0.0249
  660MOL0     H89047  -1.156   4.036   2.426  2.0810 -0.5096 -0.3736
  660MOL0     H89048  -1.165   4.173   2.538  1.2386  0.0473 -0.8119
  660MOL0     H89049  -1.264   4.198   2.255  0.7459 -2.0058 -0.0469
  660MOL0     H89050  -1.290   4.298   2.395  2.0716 -0.6532  2.6304
  660MOL0     H89051  -1.503   4.164   2.582  0.6118  0.2908  0.2883
  660MOL0     H89052  -1.662   3.831   2.598  0.2374  0.1470  0.2399
  660MOL0     H89053  -1.646   3.978   2.685  0.4823 -1.6188  1.3309
  660MOL0     H89054  -1.792   4.097   2.492 -2.1119 -0.2219 -1.1948
  660MOL0     H89055  -1.883   3.980   2.571 -1.2047 -0.0811 -1.2586
  660MOL0     H89056  -1.742   3.939   2.307  0.7294  0.0273  2.3460
  660MOL0     H89057  -1.906   3.976   2.343 -0.0596  0.2744  0.8696
  660MOL0     H89058  -1.762   3.721   2.413  1.4111  2.0293 -0.3909
  660MOL0     H89059  -1.869   3.755   2.276  2.1769  3.9309 -1.3339
  660MOL0     H89060  -2.083   3.867   2.245 -0.2196  1.8310  0.6015
  660MOL0     H89061  -2.270   3.884   2.093 -0.0687 -3.9095  1.2087
  660MOL0     H89062  -2.428   3.902   2.161 -2.1283  2.1896  1.3837
  660MOL0     H89063  -2.306   4.028   2.192  4.0833 -0.9746  0.6048
  660MOL0     H89064  -2.771   3.890   2.245  2.4327  2.3021  2.3372
  660MOL0     H89065  -3.020   3.915   2.292  1.3888  1.2870  0.1784
  660MOL0     H89066  -3.202   3.972   2.560  3.1745  0.4318 -1.1465
  660MOL0     H89067  -3.223   3.958   2.385  0.6031 -0.3361 -0.4402
  660MOL0     H89068  -3.420   3.984   2.478 -1.0985 -0.7277  0.4190
  660MOL0     H89069  -3.402   3.817   2.415 -0.9738 -0.1249  0.9013
  660MOL0     H89070  -3.370   3.859   2.710  0.3805 -0.2828  0.3809
  660MOL0     H89071  -3.425   3.722   2.611 -0.8979  0.0321  0.4740
  660MOL0     H89072  -3.571   3.983   2.663  3.8150 -0.4749  0.1093
  660MOL0     H89073  -3.629   3.851   2.550  3.1584 -3.2018 -1.8019
  660MOL0     H89074  -3.597   3.808   2.843  2.3621  1.6076 -1.0486
  660MOL0     H89075  -3.693   3.709   2.724  2.1290  1.3199 -3.3406
  660MOL0     H89076  -3.796   3.990   2.798  0.8465 -0.9587 -0.7013
  660MOL0     H89077  -3.863   3.878   2.685 -0.1662  0.6062 -0.1316
  660MOL0     H89078  -3.830   3.845   3.000  1.6404 -1.4036  0.2414
  660MOL0     H89079  -3.870   3.710   2.903  0.1810  1.1772  1.2679
  660MOL0     H89080  -4.058   3.892   2.816 -1.9098  0.1272  0.6965
  660MOL0     H89081  -4.036   3.951   2.971 -0.9676 -0.2193 -0.2903
  660MOL0     H89082  -2.978   3.653   2.624  1.3519  0.0737  0.2979
  660MOL0     H89083  -2.746   3.634   2.586  1.0224  0.3150  0.4625
  660MOL0     H89084  -2.400   3.696   2.588 -1.4248  0.3663 -1.0563
  660MOL0     H89085  -2.151   3.643   2.612  2.6210  0.8108 -1.0545
  660MOL0     H89086  -0.256   3.632   2.524  3.9122 -1.4153 -1.7104
  660MOL0     H89087  -0.007   3.643   2.597  2.0986  2.4172 -1.6347
  660MOL0     H89088   0.322   3.626   2.916  1.0238 -1.8983 -2.8735
  660MOL0     H89089   0.546   3.654   2.996  2.0535  0.6233 -0.6594
  660MOL0     H89090   0.847   3.691   3.014 -2.5061  1.7228  0.6949
  660MOL0     H89091   0.774   3.632   2.873  0.5569 -0.8506  0.5821
  660MOL0     H89092   0.979   3.845   2.872 -0.2492  0.3098  2.1940
  660MOL0     H89093   0.901   3.767   2.723 -1.0370 -2.8076  0.4530
  660MOL0     H89094   1.072   3.643   2.705  0.4006  0.0602  0.0395
  660MOL0     H89095   0.992   3.545   2.829 -1.1543  0.6344  0.4114
  660MOL0     H89096   1.214   3.752   2.869 -0.3268 -0.9372 -1.2570
  660MOL0     H89097   1.244   3.580   2.868 -2.1038 -2.7849 -0.2322
  660MOL0     H89098   1.090   3.641   3.261 -1.1176  4.3036  0.1723
  660MOL0     H89099   0.611   4.001   2.764 -0.1912  1.6217  4.8379
  660MOL0     H89100   0.365   3.988   2.674  1.7942  2.4747 -0.1331
  661MOL0     O89101   0.923   4.975   7.931 -0.0937 -0.1550  0.1721
  661MOL0     C89102   0.958   4.857   7.917  0.2846  0.0984 -0.2991
  661MOL0     O89103   0.870   4.757   7.876 -0.3325 -0.4000  1.3253
  661MOL0     C89104   0.734   4.762   7.877 -1.1921  0.7658 -0.0160
  661MOL0     C89105   0.670   4.671   7.791 -0.2910  0.3822  0.2174
  661MOL0     C89106   0.524   4.678   7.799 -0.6095 -0.3595  0.5816
  661MOL0     C89107   0.454   4.756   7.885  0.9802 -0.2705  0.0106
  661MOL0     O89108   0.321   4.739   7.910 -0.5231  0.3684 -0.7955
  661MOL0     C89109   0.238   4.851   7.923  0.0192  0.0595  0.1211
  661MOL0     C89110   0.211   4.917   7.789 -0.1172 -0.4563 -0.0265
  661MOL0     C89111   0.137   4.815   7.687 -0.0295  0.5310 -0.4694
  661MOL0     C89112  -0.013   4.832   7.696  0.3187  1.1735 -0.6419
  661MOL0     C89113  -0.100   4.771   7.586  0.0806  0.3889 -0.4575
  661MOL0     C89114  -0.067   4.813   7.440 -0.1160  0.8151 -0.6226
  661MOL0     C89115  -0.186   4.799   7.351 -0.3537 -0.4717  0.3099
  661MOL0     C89116  -0.204   4.651   7.302  0.2049 -0.6298  0.3469
  661MOL0     N89117  -0.265   4.570   7.407  0.1038 -0.7670 -0.3007
  661MOL0     C89118  -0.404   4.553   7.419 -0.5353 -0.1862 -0.0515
  661MOL0     C89119  -0.427   4.437   7.481 -0.1576 -0.2251  0.5867
  661MOL0     C89120  -0.561   4.378   7.514 -0.4057 -0.5499 -0.1221
  661MOL0     C89121  -0.614   4.398   7.656 -0.0970 -0.6009 -0.7110
  661MOL0     C89122  -0.525   4.335   7.757 -0.3856  0.6465 -0.0462
  661MOL0     C89123  -0.591   4.349   7.896  0.3736 -0.2715  0.4539
  661MOL0     O89124  -0.602   4.490   7.930 -0.0336 -0.1649 -0.0219
  661MOL0     C89125  -0.487   4.538   7.993  0.0828  0.5135  0.0772
  661MOL0     C89126  -0.480   4.524   8.131  0.3286  0.6319  0.4072
  661MOL0     C89127  -0.388   4.580   8.212 -0.3809  0.5244 -0.2847
  661MOL0     C89128  -0.399   4.553   8.361 -0.3723 -0.3513 -0.2236
  661MOL0     C89129  -0.284   4.663   8.149 -0.1441  0.1563  1.0832
  661MOL0     C89130  -0.187   4.740   8.225  0.4085  0.3040 -0.6743
  661MOL0     O89131  -0.071   4.771   8.164 -0.3136 -0.2525  0.2806
  661MOL0     C89132   0.030   4.844   8.223 -0.5430  0.5313  0.1722
  661MOL0     C89133   0.123   4.770   8.299 -0.1483 -0.4767  0.1449
  661MOL0     C89134   0.231   4.830   8.366 -0.2571 -0.1328  0.2157
  661MOL0     C89135   0.262   4.968   8.346 -0.3329 -0.1389 -0.2485
  661MOL0     O89136   0.364   5.039   8.405 -0.0227 -0.7732  0.1410
  661MOL0     C89137   0.472   4.966   8.478  0.4177  0.1168 -0.4439
  661MOL0     C89138   0.613   5.032   8.454  0.3595  0.5341  0.0964
  661MOL0     C89139   0.619   5.064   8.302 -0.9548  0.4489  0.0179
  661MOL0     C89140   0.766   5.094   8.266  0.4465 -0.4051  0.0133
  661MOL0     C89141   0.793   5.239   8.300  0.2786  0.2717 -0.3933
  661MOL0     C89142   0.884   5.303   8.199  0.6101  0.2271 -0.6970
  661MOL0     C89143   0.906   5.452   8.238 -0.3953  0.5050 -0.9219
  661MOL0     C89144   0.946   5.527   8.113 -0.2669  0.0791 -1.0954
  661MOL0    Cl89145   1.089   5.457   8.037  0.0824 -0.2429  0.3194
  661MOL0     C89146   0.176   5.032   8.256  0.4556 -0.7388 -0.0672
  661MOL0     C89147   0.059   4.977   8.200 -0.0783  0.3071  0.1503
  661MOL0     O89148  -0.230   4.785   8.334 -0.1483 -0.3879  0.4277
  661MOL0     C89149  -0.274   4.666   8.005  0.0222 -0.9013 -0.8743
  661MOL0     C89150  -0.377   4.608   7.929  0.1907  0.1330 -1.3713
  661MOL0     N89151  -0.304   4.380   7.504 -0.5628 -0.3959  0.2628
  661MOL0     N89152  -0.211   4.467   7.471 -0.4159 -0.1981  1.0357
  661MOL0     C89153   0.528   4.849   7.965 -0.3167 -0.0288  0.9674
  661MOL0     C89154   0.666   4.853   7.957  0.4141 -0.3736  0.0167
  661MOL0     C89155   1.099   4.818   7.941  0.2562  0.2074 -0.4050
  661MOL0     C89156   1.136   4.687   7.948 -0.3696  0.7460 -0.6326
  661MOL0     C89157   1.272   4.657   7.973 -0.7313 -0.7781 -0.1679
  661MOL0     C89158   1.368   4.757   8.002  0.0088 -0.2967 -0.1007
  661MOL0     O89159   1.494   4.714   8.034 -0.3700 -0.1257 -0.0187
  661MOL0     C89160   1.600   4.794   8.090  0.4761 -0.7251  1.3428
  661MOL0     C89161   1.715   4.711   8.125  0.7395 -0.1239  0.0314
  661MOL0     C89162   1.804   4.669   7.997  0.1544  0.4451 -0.7407
  661MOL0     C89163   1.927   4.587   8.025 -0.0104 -0.3948  0.0929
  661MOL0     C89164   1.902   4.488   8.129  0.4178  0.2850  0.5259
  661MOL0     C89165   1.866   4.392   8.199  0.0903  0.3422 -0.4533
  661MOL0     C89166   1.327   4.889   7.987  0.4980 -0.3742 -0.3961
  661MOL0     C89167   1.192   4.921   7.952  0.1839 -0.0841 -0.5989
  661MOL0     H89168   0.729   4.601   7.732  0.7929 -0.0699  1.7832
  661MOL0     H89169   0.461   4.603   7.753 -2.4650  0.7922  1.1467
  661MOL0     H89170   0.146   4.826   7.976 -0.1232 -0.9422 -0.5653
  661MOL0     H89171   0.281   4.922   7.994 -0.6077 -0.1263  0.6949
  661MOL0     H89172   0.156   5.010   7.804 -0.1109  0.1642 -3.3050
  661MOL0     H89173   0.304   4.945   7.741  0.2302 -0.0432  0.8581
  661MOL0     H89174   0.181   4.823   7.587 -0.1692 -0.2061 -0.5960
  661MOL0     H89175   0.157   4.710   7.710 -1.7793  0.3329  0.2839
  661MOL0     H89176  -0.040   4.785   7.791 -1.2614  1.7301 -0.7884
  661MOL0     H89177  -0.034   4.939   7.712 -0.1447  0.8339  1.3487
  661MOL0     H89178  -0.075   4.665   7.597  2.6313  0.5989 -3.1235
  661MOL0     H89179  -0.207   4.786   7.605 -0.0703 -0.2423 -0.7656
  661MOL0     H89180  -0.023   4.913   7.439 -0.4516  1.1118 -4.7627
  661MOL0     H89181   0.015   4.749   7.404  0.0426  1.2046 -0.9684
  661MOL0     H89182  -0.274   4.827   7.410 -0.7882 -0.8118 -0.1617
  661MOL0     H89183  -0.181   4.869   7.267  2.0117  1.3667  1.8543
  661MOL0     H89184  -0.108   4.609   7.271  1.5818  1.9386  0.8167
  661MOL0     H89185  -0.270   4.650   7.214  0.9169 -1.8598 -0.1912
  661MOL0     H89186  -0.486   4.611   7.379 -0.2233 -1.8007 -3.4156
  661MOL0     H89187  -0.632   4.422   7.443  0.2828  0.3941 -0.2464
  661MOL0     H89188  -0.554   4.271   7.492 -0.7365 -0.4028 -0.9927
  661MOL0     H89189  -0.713   4.354   7.670 -0.6491  1.4314  3.2806
  661MOL0     H89190  -0.608   4.505   7.677 -2.3046 -0.1730 -1.9160
  661MOL0     H89191  -0.428   4.385   7.760 -0.6069  1.0935  2.7206
  661MOL0     H89192  -0.515   4.226   7.746  1.2496  0.7568  0.1049
  661MOL0     H89193  -0.535   4.306   7.979  1.4266  1.6388  0.7901
  661MOL0     H89194  -0.694   4.310   7.892 -0.8721  2.7201 -3.6559
  661MOL0     H89195  -0.558   4.452   8.156  1.7742 -1.9740 -2.0104
  661MOL0     H89196  -0.408   4.649   8.413  1.6318  3.5719 -6.1411
  661MOL0     H89197  -0.493   4.503   8.384  0.0062 -0.7598  0.4872
  661MOL0     H89198  -0.319   4.490   8.403 -1.4480 -2.3324 -1.0160
  661MOL0     H89199   0.118   4.662   8.313 -2.1204 -0.5038 -0.4623
  661MOL0     H89200   0.282   4.772   8.442  3.1920  2.1046 -0.1765
  661MOL0     H89201   0.449   4.968   8.585 -1.9066  0.6533 -0.9027
  661MOL0     H89202   0.485   4.860   8.456  0.3678  0.1701 -0.7339
  661MOL0     H89203   0.622   5.127   8.506  0.5920  0.3677  0.3622
  661MOL0     H89204   0.688   4.968   8.501 -0.0907  0.6194  0.9466
  661MOL0     H89205   0.558   5.150   8.272  2.9569  2.9622 -1.5898
  661MOL0     H89206   0.583   4.985   8.235 -0.0042 -0.0895  0.1190
  661MOL0     H89207   0.822   5.043   8.344 -1.9737 -0.6922  1.6886
  661MOL0     H89208   0.789   5.064   8.164  0.9591 -1.1109  0.3311
  661MOL0     H89209   0.846   5.253   8.395 -1.8282  0.0681  0.8553
  661MOL0     H89210   0.703   5.299   8.313  1.8938  2.2277  3.7913
  661MOL0     H89211   0.974   5.241   8.194 -0.3902 -1.1615 -1.9898
  661MOL0     H89212   0.836   5.293   8.102 -2.9494 -3.7536  1.1809
  661MOL0     H89213   0.986   5.465   8.312 -0.6889  0.9371 -0.6819
  661MOL0     H89214   0.816   5.498   8.279  1.1149  1.4197  1.6216
  661MOL0     H89215   0.965   5.628   8.153 -0.6168  0.2456 -1.3519
  661MOL0     H89216   0.866   5.541   8.041 -1.9570  1.0924  0.8588
  661MOL0     H89217   0.199   5.133   8.227 -0.4060 -0.4802  0.1104
  661MOL0     H89218   0.005   5.029   8.122 -0.1703  1.1751  0.7821
  661MOL0     H89219  -0.194   4.725   7.961 -0.0962 -0.4022 -0.4405
  661MOL0     H89220  -0.381   4.606   7.820 -0.4956  0.0309 -1.3446
  661MOL0     H89221   0.485   4.917   8.038 -1.5601  1.5412 -1.0910
  661MOL0     H89222   0.717   4.908   8.036  0.5720  0.9170 -0.9676
  661MOL0     H89223   1.068   4.602   7.948  0.8582 -0.2755 -0.4866
  661MOL0     H89224   1.323   4.563   7.991 -0.3805 -0.7640 -1.0421
  661MOL0     H89225   1.628   4.872   8.019 -0.7965  0.2504  1.8670
  661MOL0     H89226   1.557   4.838   8.180 -1.9913  0.0536 -0.1102
  661MOL0     H89227   1.674   4.621   8.172 -0.1041  0.9180  1.3829
  661MOL0     H89228   1.775   4.764   8.200  1.2358 -2.1944  1.1620
  661MOL0     H89229   1.846   4.765   7.965  1.8308  0.1129  0.3137
  661MOL0     H89230   1.751   4.620   7.915  1.2461 -0.1656 -1.1104
  661MOL0     H89231   2.017   4.649   8.036 -1.5408  1.5973  2.6357
  661MOL0     H89232   1.937   4.526   7.935  1.9411 -3.4163  2.1642
  661MOL0     H89233   1.849   4.304   8.259  1.8347 -0.9225 -1.6931
  661MOL0     H89234   1.407   4.963   7.996 -0.0375 -0.0696  3.5765
  661MOL0     H89235   1.157   5.023   7.942  2.2553  0.9703  1.7475
  662MOL0     O89236   0.976   8.874   9.174  0.1707  0.2515  0.0801
  662MOL0     C89237   0.988   8.778   9.095  0.2603 -0.1917  0.4401
  662MOL0     O89238   0.898   8.746   8.995 -0.1203  0.3988  0.0372
  662MOL0     C89239   0.785   8.820   8.985  0.9485 -0.5529 -0.2420
  662MOL0     C89240   0.781   8.957   8.955  0.0599  0.8930 -0.0068
  662MOL0     C89241   0.661   9.026   8.957  0.4894 -0.3150  0.6122
  662MOL0     C89242   0.542   8.960   8.958 -0.6463 -0.9626  0.9592
  662MOL0     O89243   0.439   9.047   8.943 -0.8958 -0.4745 -0.3875
  662MOL0     C89244   0.305   9.005   8.976  0.9981 -0.0966  0.0848
  662MOL0     C89245   0.204   9.121   8.964 -0.1603  0.4236  0.3727
  662MOL0     C89246   0.200   9.162   8.822  0.6575 -0.1056  0.8659
  662MOL0     C89247   0.116   9.072   8.745  0.7142 -0.1638  0.7632
  662MOL0     C89248   0.097   9.117   8.596 -0.8581  0.3799  0.5619
  662MOL0     C89249  -0.001   9.039   8.513  0.3770  0.2300  0.2896
  662MOL0     C89250  -0.138   9.025   8.575  0.7146  0.1873 -0.4175
  662MOL0     C89251  -0.197   9.162   8.605 -0.4319 -0.1008  0.1439
  662MOL0     N89252  -0.340   9.167   8.614  0.2750  0.7876 -0.0202
  662MOL0     C89253  -0.419   9.180   8.499  0.8838 -0.1398 -0.2912
  662MOL0     C89254  -0.550   9.151   8.544 -0.4235 -0.1262  0.0934
  662MOL0     C89255  -0.670   9.130   8.456  0.1471  0.1897 -0.4691
  662MOL0     C89256  -0.657   8.988   8.406  0.4435 -0.6651 -0.5023
  662MOL0     C89257  -0.780   8.941   8.330  0.1154 -0.3886  0.5987
  662MOL0     C89258  -0.787   8.785   8.322  0.1891 -0.6473 -0.4364
  662MOL0     O89259  -0.892   8.735   8.237 -0.4054  0.0498 -0.2707
  662MOL0     C89260  -1.016   8.701   8.300  0.5976 -0.5870 -0.8035
  662MOL0     C89261  -1.042   8.738   8.432  0.5166 -0.2766  0.1546
  662MOL0     C89262  -1.156   8.686   8.490 -0.0304  0.5135 -0.0246
  662MOL0     C89263  -1.177   8.711   8.635 -0.0723  0.7227 -0.9011
  662MOL0     C89264  -1.239   8.595   8.418  0.1164 -0.0007 -0.0272
  662MOL0     C89265  -1.371   8.539   8.469  0.1102  1.3100 -0.0851
  662MOL0     O89266  -1.471   8.521   8.384 -0.1042 -0.4792 -0.1643
  662MOL0     C89267  -1.601   8.502   8.436 -0.2835  1.0217 -0.0405
  662MOL0     C89268  -1.684   8.411   8.370 -0.3142 -0.4437  0.5194
  662MOL0     C89269  -1.816   8.389   8.410 -0.0713  0.1795 -0.0143
  662MOL0     C89270  -1.879   8.457   8.507  0.0749  0.1180 -1.0645
  662MOL0     O89271  -2.015   8.437   8.541  0.2758  0.9423  0.2462
  662MOL0     C89272  -2.098   8.551   8.562 -0.2729 -0.4921 -0.6327
  662MOL0     C89273  -2.250   8.516   8.588  0.5069  0.5547 -0.1622
  662MOL0     C89274  -2.304   8.415   8.487 -0.0198  0.2041  0.2933
  662MOL0     C89275  -2.460   8.413   8.487  0.7277  0.1697  0.9079
  662MOL0     C89276  -2.526   8.291   8.417  1.3751 -0.0035 -0.0984
  662MOL0     C89277  -2.531   8.154   8.496 -0.8613  0.4328 -0.2317
  662MOL0     C89278  -2.631   8.059   8.413 -0.1748  1.2649 -0.0297
  662MOL0     C89279  -2.762   8.045   8.487  0.9051 -0.2545 -0.4349
  662MOL0    Cl89280  -2.863   8.186   8.471 -0.5399  0.5324  0.1672
  662MOL0     C89281  -1.800   8.552   8.577  0.5596  0.1146 -0.2000
  662MOL0     C89282  -1.663   8.575   8.542  0.3113 -0.2864 -0.1571
  662MOL0     O89283  -1.372   8.490   8.584 -0.7172 -0.3978  0.3943
  662MOL0     C89284  -1.215   8.572   8.280  0.7099 -0.0696 -0.3562
  662MOL0     C89285  -1.100   8.625   8.224  0.5584 -0.3215 -0.1707
  662MOL0     N89286  -0.540   9.125   8.681 -0.5704  0.1579 -0.1061
  662MOL0     N89287  -0.418   9.123   8.717 -0.1933  0.1030 -0.1973
  662MOL0     C89288   0.539   8.815   8.985  0.0975  0.7346  0.2320
  662MOL0     C89289   0.661   8.752   8.998 -0.3405  0.0446  1.0773
  662MOL0     C89290   1.110   8.705   9.092 -0.5799  0.4991  0.5085
  662MOL0     C89291   1.123   8.601   9.000 -0.1173  0.9054 -0.1560
  662MOL0     C89292   1.233   8.517   9.006  0.0849  0.1035 -0.0293
  662MOL0     C89293   1.341   8.534   9.092  0.4796  0.3261 -0.0724
  662MOL0     O89294   1.445   8.443   9.080  1.1551  0.0480 -0.2388
  662MOL0     C89295   1.539   8.443   9.189  0.9025  0.6999  0.4547
  662MOL0     C89296   1.652   8.346   9.160 -0.2054  0.4084 -0.4751
  662MOL0     C89297   1.613   8.204   9.171 -0.1280  0.0610  0.2878
  662MOL0     C89298   1.735   8.108   9.153 -0.3591  1.0077  0.6679
  662MOL0     C89299   1.815   8.102   9.281 -0.7069 -0.9781 -0.3236
  662MOL0     C89300   1.885   8.083   9.374 -0.5325 -0.0712  0.4916
  662MOL0     C89301   1.342   8.662   9.159  0.1803  0.3581 -1.0252
  662MOL0     C89302   1.222   8.747   9.155 -0.7648 -0.4458 -0.6950
  662MOL0     H89303   0.873   9.013   8.962  0.1321  0.6119  4.5895
  662MOL0     H89304   0.674   9.132   8.936  3.6931 -0.5945  0.6569
  662MOL0     H89305   0.268   8.924   8.912 -3.1997  1.0704  0.7383
  662MOL0     H89306   0.300   8.970   9.079  1.0586  0.7821  0.3938
  662MOL0     H89307   0.114   9.096   9.021  1.1806  0.0460  2.4705
  662MOL0     H89308   0.261   9.200   9.014  0.5742  0.5648 -0.6632
  662MOL0     H89309   0.167   9.266   8.814  3.0611  0.7646  1.2471
  662MOL0     H89310   0.302   9.157   8.781  0.1057  1.5050 -0.8551
  662MOL0     H89311   0.175   8.980   8.739  3.0981  1.0614  3.2838
  662MOL0     H89312   0.021   9.062   8.798 -0.4917  0.3867 -1.2004
  662MOL0     H89313   0.066   9.221   8.610 -1.7982 -0.1210  2.6374
  662MOL0     H89314   0.196   9.113   8.548 -1.8618 -1.0453 -1.5422
  662MOL0     H89315  -0.012   9.087   8.416 -0.1854 -2.0244 -0.8430
  662MOL0     H89316   0.041   8.940   8.490 -1.0480  0.2377 -2.6537
  662MOL0     H89317  -0.204   8.980   8.500  0.0380  0.8060 -0.1999
  662MOL0     H89318  -0.137   8.966   8.667  3.8690  1.3113  0.3893
  662MOL0     H89319  -0.164   9.224   8.521 -1.3638  2.4605  1.5856
  662MOL0     H89320  -0.154   9.214   8.691  0.5145  0.0915 -0.4288
  662MOL0     H89321  -0.392   9.190   8.395  1.6268  2.8180  0.0980
  662MOL0     H89322  -0.768   9.157   8.497 -0.7646 -0.7759 -1.8848
  662MOL0     H89323  -0.665   9.199   8.371 -0.8427  0.7288 -0.1114
  662MOL0     H89324  -0.642   8.927   8.495 -2.3069 -0.3024  0.2880
  662MOL0     H89325  -0.569   8.984   8.341 -0.7599  0.2684 -2.2894
  662MOL0     H89326  -0.773   8.981   8.228 -1.6701 -1.2832  0.0852
  662MOL0     H89327  -0.875   8.975   8.372 -0.2790  0.8349 -1.1747
  662MOL0     H89328  -0.783   8.755   8.427 -2.3231 -0.8452 -0.3261
  662MOL0     H89329  -0.691   8.758   8.276  0.7000  2.6788 -1.5877
  662MOL0     H89330  -0.979   8.802   8.493 -1.0573 -0.7619  2.3978
  662MOL0     H89331  -1.151   8.813   8.664 -2.9915  1.0739  0.8894
  662MOL0     H89332  -1.280   8.694   8.668 -0.9821 -0.7436 -4.1525
  662MOL0     H89333  -1.116   8.644   8.696 -0.9692 -0.0330 -0.8117
  662MOL0     H89334  -1.646   8.372   8.276  0.1300  2.6110 -0.6670
  662MOL0     H89335  -1.885   8.324   8.356 -1.6078  0.9121  0.9955
  662MOL0     H89336  -2.063   8.609   8.648 -1.4987 -3.0978  1.7929
  662MOL0     H89337  -2.090   8.617   8.476 -0.1967 -1.9876 -1.8243
  662MOL0     H89338  -2.258   8.465   8.684 -0.0269 -1.5959 -1.2883
  662MOL0     H89339  -2.308   8.609   8.581 -1.7634 -0.2890  4.0944
  662MOL0     H89340  -2.259   8.317   8.509  1.4261  1.1294  1.6837
  662MOL0     H89341  -2.263   8.438   8.388  0.1662 -2.2482 -0.2823
  662MOL0     H89342  -2.503   8.413   8.588  0.7452  1.2330  0.9218
  662MOL0     H89343  -2.488   8.504   8.434 -1.1041 -1.5070 -1.1972
  662MOL0     H89344  -2.482   8.274   8.318 -0.2427 -0.2275 -0.8158
  662MOL0     H89345  -2.627   8.323   8.390  1.5169 -1.4914 -2.7469
  662MOL0     H89346  -2.430   8.111   8.499 -1.3302 -1.0866 -3.2679
  662MOL0     H89347  -2.554   8.163   8.603  1.3954 -3.6380  0.7822
  662MOL0     H89348  -2.586   7.960   8.406 -1.8784  0.5429 -1.5521
  662MOL0     H89349  -2.645   8.097   8.311  0.0178 -0.8181 -0.8722
  662MOL0     H89350  -2.747   8.030   8.594  0.1169 -1.4655 -0.4745
  662MOL0     H89351  -2.818   7.956   8.456  0.4834 -0.2270  0.2438
  662MOL0     H89352  -1.842   8.620   8.650  3.8741  0.5138  1.5105
  662MOL0     H89353  -1.607   8.648   8.601 -1.1054 -1.4535  2.8405
  662MOL0     H89354  -1.286   8.505   8.232  1.0336 -1.0130  0.4348
  662MOL0     H89355  -1.071   8.597   8.122  0.7703  1.9732 -0.7975
  662MOL0     H89356   0.441   8.770   8.999  0.1750  0.1745 -0.8710
  662MOL0     H89357   0.671   8.649   9.029  2.0836 -0.8196 -2.0734
  662MOL0     H89358   1.045   8.585   8.926 -0.1162  1.8945 -0.3945
  662MOL0     H89359   1.242   8.429   8.943 -0.5001  0.0365 -0.0215
  662MOL0     H89360   1.584   8.542   9.198  1.5816  0.4986 -0.5557
  662MOL0     H89361   1.494   8.415   9.285 -0.5369  0.3484 -0.2925
  662MOL0     H89362   1.734   8.369   9.229  1.4052 -0.1658 -2.1240
  662MOL0     H89363   1.680   8.372   9.058  0.1683 -0.1536 -0.5198
  662MOL0     H89364   1.536   8.176   9.099  0.1168 -2.3552  0.8734
  662MOL0     H89365   1.568   8.185   9.269 -1.0958 -0.9546 -0.3275
  662MOL0     H89366   1.812   8.143   9.083  0.0867 -0.2063  0.5277
  662MOL0     H89367   1.713   8.004   9.126  1.3437  1.3084 -2.4775
  662MOL0     H89368   1.958   8.075   9.452 -0.9883 -0.0696  0.9247
  662MOL0     H89369   1.429   8.688   9.218 -0.0481 -2.9219  1.0677
  662MOL0     H89370   1.240   8.847   9.193  1.6945  0.0706 -2.9348
  663MOL0     O89371   3.111  10.161  11.198  0.6234 -0.7526  0.4352
  663MOL0     C89372   3.214  10.124  11.154 -0.1960 -0.1886 -0.2722
  663MOL0     O89373   3.221  10.033  11.055  0.2574 -0.2756 -0.2716
  663MOL0     C89374   3.120   9.942  11.034  0.3659 -0.0806 -0.1106
  663MOL0     C89375   2.986   9.991  11.011 -0.2297 -0.7617  0.7286
  663MOL0     C89376   2.891   9.907  10.954  0.1351 -0.4142 -0.2519
  663MOL0     C89377   2.917   9.774  10.940  0.3274 -0.3241  0.1741
  663MOL0     O89378   2.814   9.691  10.893  0.4521  0.6257 -0.0403
  663MOL0     C89379   2.827   9.549  10.901  0.1347  0.1410  0.3784
  663MOL0     C89380   2.698   9.482  10.860 -1.4388 -0.6076 -0.0653
  663MOL0     C89381   2.593   9.503  10.962  0.1174  0.0943 -0.3116
  663MOL0     C89382   2.487   9.388  10.955 -1.1339  0.0141 -1.0769
  663MOL0     C89383   2.396   9.374  11.069 -0.2196 -0.1096 -0.2561
  663MOL0     C89384   2.276   9.284  11.047  0.5583 -0.6659 -0.4685
  663MOL0     C89385   2.182   9.291  11.167  0.6541 -0.4996 -0.5718
  663MOL0     C89386   2.241   9.244  11.300 -0.4472  0.5882 -0.8208
  663MOL0     N89387   2.138   9.195  11.404 -0.9066  0.4425  0.0973
  663MOL0     C89388   2.034   9.264  11.449 -0.2879  0.1103 -0.5519
  663MOL0     C89389   1.988   9.198  11.560  0.4597  0.5927 -1.5063
  663MOL0     C89390   1.861   9.220  11.641 -1.1076 -0.0960 -0.8688
  663MOL0     C89391   1.736   9.132  11.614  0.6436 -0.2819 -0.4725
  663MOL0     C89392   1.668   9.141  11.476  0.3508  0.9069  0.2791
  663MOL0     C89393   1.730   9.058  11.370 -0.2068 -0.6007  1.1179
  663MOL0     O89394   1.697   9.084  11.233 -0.1803  0.9359 -0.2464
  663MOL0     C89395   1.569   9.058  11.196 -0.1846 -0.0595  0.6331
  663MOL0     C89396   1.480   9.156  11.164 -0.4280 -0.0486 -0.1770
  663MOL0     C89397   1.345   9.128  11.138  0.0130 -1.0249  0.5079
  663MOL0     C89398   1.261   9.252  11.099 -0.7426  0.5723 -0.2392
  663MOL0     C89399   1.296   8.996  11.139 -0.1658  0.2267 -0.2057
  663MOL0     C89400   1.162   8.952  11.095  0.0359 -0.1029  0.7705
  663MOL0     O89401   1.141   8.824  11.058 -0.2979  0.2420  0.6927
  663MOL0     C89402   1.011   8.790  11.006 -0.4316  0.3387  0.7207
  663MOL0     C89403   0.979   8.776  10.869  0.7963 -0.3715 -0.2332
  663MOL0     C89404   0.836   8.759  10.836 -0.3495  0.3990 -0.2721
  663MOL0     C89405   0.736   8.754  10.935  0.6631 -0.3147 -0.2508
  663MOL0     O89406   0.603   8.747  10.886  1.2460  0.6717  0.7248
  663MOL0     C89407   0.501   8.707  10.989 -1.2940 -0.3224 -0.2814
  663MOL0     C89408   0.362   8.735  10.937  0.1070  0.1888 -0.0612
  663MOL0     C89409   0.334   8.890  10.941 -0.2653 -0.0219 -0.2019
  663MOL0     C89410   0.193   8.936  10.900 -0.8041 -0.5945  0.2803
  663MOL0     C89411   0.163   8.926  10.755  0.5061 -0.0348  0.0843
  663MOL0     C89412   0.010   8.923  10.729  0.7575 -0.4163  0.0214
  663MOL0     C89413  -0.060   9.053  10.769 -0.4496  0.5818  0.4032
  663MOL0     C89414  -0.203   9.021  10.796  0.8247  0.5463  0.2854
  663MOL0    Cl89415  -0.285   8.953  10.650  0.2138 -0.3341  0.0241
  663MOL0     C89416   0.776   8.787  11.064  0.1015 -0.6803  0.6526
  663MOL0     C89417   0.908   8.781  11.099  0.4462 -0.5029  1.2239
  663MOL0     O89418   1.073   9.038  11.116  0.0518  0.0112  0.1480
  663MOL0     C89419   1.390   8.893  11.169 -0.2524  0.6049  0.4388
  663MOL0     C89420   1.519   8.929  11.201 -0.4148 -0.8220 -0.3769
  663MOL0     N89421   2.066   9.084  11.570 -0.3536 -0.8667 -0.2667
  663MOL0     N89422   2.151   9.080  11.479  0.2061  0.3249 -0.6636
  663MOL0     C89423   3.040   9.726  10.970  1.5027  0.1034  0.6885
  663MOL0     C89424   3.144   9.808  11.006 -0.3145  0.4817 -0.8804
  663MOL0     C89425   3.336  10.199  11.189 -0.5903  0.4179  0.7791
  663MOL0     C89426   3.467  10.150  11.160 -0.0549  0.7828 -0.3169
  663MOL0     C89427   3.579  10.219  11.212  0.5298  0.2647  0.2497
  663MOL0     C89428   3.563  10.338  11.281  0.2303 -0.2959 -0.4526
  663MOL0     O89429   3.670  10.407  11.339  0.4318  0.0296 -0.1287
  663MOL0     C89430   3.802  10.372  11.320 -0.1972 -0.3357 -0.2260
  663MOL0     C89431   3.856  10.393  11.175 -0.1192  0.2406 -0.2334
  663MOL0     C89432   3.974  10.299  11.150  0.5095 -0.2626 -0.2766
  663MOL0     C89433   3.994  10.289  10.998 -0.3428  0.0183 -0.4037
  663MOL0     C89434   4.112  10.204  10.976 -0.2603  0.2172  0.8202
  663MOL0     C89435   4.208  10.127  10.956 -0.9958  0.7253  0.7382
  663MOL0     C89436   3.435  10.382  11.305  0.2941  0.4855  0.1447
  663MOL0     C89437   3.322  10.322  11.258 -0.3880  0.2727 -0.5712
  663MOL0     H89438   2.955  10.094  11.029  1.6811  0.0538 -0.3072
  663MOL0     H89439   2.788   9.935  10.934  0.1469  2.7850  3.0869
  663MOL0     H89440   2.898   9.510  10.828  1.5484  0.2150  1.6643
  663MOL0     H89441   2.858   9.524  11.003  1.2179  0.0319  0.0297
  663MOL0     H89442   2.672   9.497  10.755  0.4290 -1.2932 -0.6604
  663MOL0     H89443   2.728   9.377  10.865 -1.0776 -0.4866  0.3611
  663MOL0     H89444   2.649   9.513  11.055  3.0633 -0.2625 -1.9121
  663MOL0     H89445   2.530   9.590  10.940 -0.0189 -0.4401 -2.2369
  663MOL0     H89446   2.430   9.385  10.861 -2.6779 -2.7643 -0.1776
  663MOL0     H89447   2.542   9.295  10.943  0.0468  0.3623  1.1609
  663MOL0     H89448   2.452   9.340  11.156  2.5723  2.1521 -1.0357
  663MOL0     H89449   2.359   9.477  11.077 -0.4392  0.0395 -2.5549
  663MOL0     H89450   2.227   9.301  10.951  2.9735 -0.2553 -1.7077
  663MOL0     H89451   2.316   9.182  11.050 -1.4706 -1.4964 -0.1598
  663MOL0     H89452   2.159   9.398  11.178  1.3199 -0.2242 -1.7368
  663MOL0     H89453   2.087   9.241  11.145 -1.3237  2.1653  1.1817
  663MOL0     H89454   2.300   9.326  11.342  3.1236 -2.5347  0.7954
  663MOL0     H89455   2.323   9.173  11.288  2.3011  3.6080 -1.4426
  663MOL0     H89456   1.993   9.359  11.416  2.3091  2.0884  1.5059
  663MOL0     H89457   1.888   9.222  11.747  0.3463 -0.7195 -1.2123
  663MOL0     H89458   1.836   9.325  11.622  2.0496  0.7485 -0.8567
  663MOL0     H89459   1.662   9.156  11.691  2.5820  0.0704  1.3891
  663MOL0     H89460   1.765   9.029  11.633 -0.3550  0.0847  4.5612
  663MOL0     H89461   1.668   9.247  11.449  1.9521  0.1417 -3.1204
  663MOL0     H89462   1.563   9.109  11.477 -0.1114  2.3362  0.2412
  663MOL0     H89463   1.713   8.952  11.390 -0.7707 -0.9167 -0.8090
  663MOL0     H89464   1.839   9.066  11.379 -0.1494 -2.3659  2.4478
  663MOL0     H89465   1.523   9.255  11.180  0.1409 -0.3584  0.2754
  663MOL0     H89466   1.240   9.240  10.993 -2.6393 -0.1553  0.1864
  663MOL0     H89467   1.169   9.263  11.158  0.2108 -0.5637  1.5868
  663MOL0     H89468   1.316   9.345  11.113  0.7956 -0.6063  2.5311
  663MOL0     H89469   1.051   8.785  10.789  1.0477 -0.4372 -0.0150
  663MOL0     H89470   0.806   8.769  10.733  2.1315  0.7646 -1.0221
  663MOL0     H89471   0.514   8.604  11.024  3.1729  0.3221  0.5373
  663MOL0     H89472   0.516   8.757  11.085  2.9943 -3.1372  0.8240
  663MOL0     H89473   0.347   8.698  10.835 -0.1838 -0.3954  0.1941
  663MOL0     H89474   0.292   8.694  11.009 -0.2158 -1.3862 -1.2335
  663MOL0     H89475   0.407   8.943  10.879 -0.1779  0.2678  0.1417
  663MOL0     H89476   0.345   8.919  11.047 -0.9275 -0.3148 -0.0497
  663MOL0     H89477   0.123   8.871  10.954  1.1993 -2.3162  0.9274
  663MOL0     H89478   0.181   9.037  10.940  1.2711  0.6368 -1.9206
  663MOL0     H89479   0.208   8.832  10.721 -2.6573 -0.9679 -1.9526
  663MOL0     H89480   0.217   9.008  10.707  0.0417  0.7721  0.9010
  663MOL0     H89481  -0.011   8.902  10.624  0.2737  0.1069  0.0015
  663MOL0     H89482  -0.043   8.841  10.778 -0.3928 -0.0896 -0.6322
  663MOL0     H89483  -0.037   9.128  10.693  1.4772  0.0401  0.4040
  663MOL0     H89484  -0.019   9.091  10.863  0.9492  2.1180 -0.7775
  663MOL0     H89485  -0.252   9.113  10.829  0.2760  0.4582 -0.2584
  663MOL0     H89486  -0.208   8.951  10.879  0.3113  0.8501  0.5118
  663MOL0     H89487   0.706   8.813  11.142  1.3011  1.1326  1.1803
  663MOL0     H89488   0.936   8.810  11.199  0.1307 -0.1493  1.2113
  663MOL0     H89489   1.358   8.789  11.166  0.5992  0.2943  1.4685
  663MOL0     H89490   1.589   8.851  11.230  3.4872  2.7632  0.7932
  663MOL0     H89491   3.063   9.624  10.942  0.0510 -0.7273  2.2923
  663MOL0     H89492   3.243   9.771  11.030 -1.4454 -1.0278  1.9239
  663MOL0     H89493   3.478  10.063  11.096  1.1437  1.9626 -1.7980
  663MOL0     H89494   3.670  10.172  11.178  0.1382  0.7073 -1.5064
  663MOL0     H89495   3.876  10.423  11.384  2.5275 -1.3800 -2.3202
  663MOL0     H89496   3.811  10.267  11.348  1.7444  0.0473  0.7455
  663MOL0     H89497   3.880  10.499  11.176 -2.9920  0.9729  1.0199
  663MOL0     H89498   3.770  10.385  11.107 -1.8971  2.1455  1.6220
  663MOL0     H89499   3.953  10.201  11.193  3.3146 -0.6572  0.4101
  663MOL0     H89500   4.060  10.348  11.196 -0.3396  0.1036  0.9787
  663MOL0     H89501   4.027  10.388  10.966  2.8224 -0.6608  0.3332
  663MOL0     H89502   3.909  10.249  10.942 -1.1709 -0.4294  1.1170
  663MOL0     H89503   4.272  10.044  10.930 -0.4613  1.7208 -1.2465
  663MOL0     H89504   3.419  10.468  11.369  1.0769  0.6947  0.0754
  663MOL0     H89505   3.224  10.367  11.264 -0.0166  0.9289  0.8587
  664MOL0     O89506   5.225   1.547   0.133 -0.7690  0.1864  0.4407
  664MOL0     C89507   5.336   1.551   0.178 -0.0211  0.2552  1.1556
  664MOL0     O89508   5.389   1.448   0.245  0.1547  0.5549  0.2777
  664MOL0     C89509   5.306   1.337   0.254 -0.1450 -0.7023  0.7113
  664MOL0     C89510   5.176   1.340   0.310  0.3759 -0.3164  0.0792
  664MOL0     C89511   5.080   1.233   0.291 -0.4727 -0.1328  0.5785
  664MOL0     C89512   5.115   1.118   0.232 -0.6149  1.5258 -0.6435
  664MOL0     O89513   5.020   1.020   0.211 -0.1872  0.0817 -0.3438
  664MOL0     C89514   5.034   0.950   0.083 -0.4999  0.2507 -0.4188
  664MOL0     C89515   4.929   0.840   0.097 -0.3907 -0.3584  0.4730
  664MOL0     C89516   4.783   0.895   0.143 -0.0395  0.4852  0.6504
  664MOL0     C89517   4.674   0.784   0.143 -0.2397  0.0625  0.3977
  664MOL0     C89518   4.529   0.833   0.172  0.0181  0.1875  0.3813
  664MOL0     C89519   4.426   0.733   0.130 -0.2834  0.2055 -1.1274
  664MOL0     C89520   4.419   0.612   0.227 -0.6390 -0.3072  0.2222
  664MOL0     C89521   4.338   0.489   0.177  0.1398  0.2042  0.6063
  664MOL0     N89522   4.200   0.517   0.138  0.0338  0.5580 -0.4239
  664MOL0     C89523   4.165   0.535   0.004  0.4151  0.1032 -0.7741
  664MOL0     C89524   4.026   0.536  -0.004 -0.9106 -0.5738  0.2480
  664MOL0     C89525   3.949   0.553  -0.132 -1.8971 -0.2076  0.2585
  664MOL0     C89526   3.840   0.654  -0.115  0.2064 -0.2706  0.2479
  664MOL0     C89527   3.735   0.681  -0.226  0.9558  0.0067 -0.5853
  664MOL0     C89528   3.643   0.781  -0.162  0.1591  0.3203  0.7398
  664MOL0     O89529   3.557   0.722  -0.063 -0.7370 -0.1329 -0.0872
  664MOL0     C89530   3.471   0.622  -0.102  0.1202  0.0137 -1.0902
  664MOL0     C89531   3.447   0.519  -0.008 -0.1497 -0.0544  0.1818
  664MOL0     C89532   3.349   0.419  -0.032  0.1997 -0.2239  0.1590
  664MOL0     C89533   3.331   0.309   0.070  0.3349 -0.2668  0.0392
  664MOL0     C89534   3.255   0.430  -0.136 -0.1224  0.0098 -0.0096
  664MOL0     C89535   3.144   0.339  -0.178 -0.6123  0.4304 -0.5546
  664MOL0     O89536   3.116   0.231  -0.098 -0.8942 -0.2391  0.4088
  664MOL0     C89537   3.042   0.125  -0.145 -0.1465 -0.0138  0.6637
  664MOL0     C89538   2.912   0.096  -0.125 -0.1428 -0.3059 -0.7229
  664MOL0     C89539   2.850  -0.009  -0.190 -0.5100  0.4306  0.2782
  664MOL0     C89540   2.918  -0.099  -0.269 -0.9795 -0.1655 -0.0638
  664MOL0     O89541   2.849  -0.197  -0.335 -0.5141 -0.4167 -1.1252
  664MOL0     C89542   2.906  -0.276  -0.442  0.1558  0.0965 -0.9031
  664MOL0     C89543   2.791  -0.357  -0.504 -0.9046  0.2625  0.7470
  664MOL0     C89544   2.734  -0.454  -0.399  0.7964  0.3681 -0.4440
  664MOL0     C89545   2.617  -0.536  -0.456  0.3029 -0.3705  0.4568
  664MOL0     C89546   2.498  -0.448  -0.476  0.8227  0.2472 -0.7711
  664MOL0     C89547   2.415  -0.497  -0.592  0.3116  0.5881 -0.2973
  664MOL0     C89548   2.357  -0.648  -0.570  0.0902 -0.6993 -0.5090
  664MOL0     C89549   2.248  -0.674  -0.679  0.4811 -0.1687 -0.8889
  664MOL0    Cl89550   2.085  -0.641  -0.618  0.1619 -0.3041 -0.0321
  664MOL0     C89551   3.058  -0.072  -0.287 -0.1468  0.3750 -0.2992
  664MOL0     C89552   3.117   0.039  -0.227  0.7034 -0.2000 -0.2459
  664MOL0     O89553   3.086   0.347  -0.292  0.0731  1.0510  0.4589
  664MOL0     C89554   3.275   0.537  -0.231  0.2656 -0.2875 -0.6318
  664MOL0     C89555   3.387   0.623  -0.211 -0.5861 -0.2612 -0.4327
  664MOL0     N89556   3.991   0.511   0.127  0.5668 -0.2902 -0.4282
  664MOL0     N89557   4.089   0.503   0.212 -0.4206  0.2702 -0.7189
  664MOL0     C89558   5.256   1.102   0.197  0.3016 -0.0619 -0.0476
  664MOL0     C89559   5.348   1.212   0.198  0.0472  0.0575  0.2366
  664MOL0     C89560   5.405   1.683   0.171 -0.5951  0.0496 -0.6030
  664MOL0     C89561   5.522   1.707   0.256 -0.0061 -0.3887 -0.2070
  664MOL0     C89562   5.594   1.827   0.236  0.1787 -1.5369 -0.0308
  664MOL0     C89563   5.553   1.935   0.151 -0.4674 -0.0352  0.2828
  664MOL0     O89564   5.617   2.043   0.111 -0.1404  0.5265 -0.3822
  664MOL0     C89565   5.745   2.068   0.163 -0.2283  0.0538 -0.5177
  664MOL0     C89566   5.844   2.026   0.047  0.1715  0.0076 -0.8476
  664MOL0     C89567   5.991   2.038   0.092 -0.4265 -1.0510 -0.1131
  664MOL0     C89568   6.080   1.971  -0.017  0.1965  0.6238  0.3067
  664MOL0     C89569   6.103   2.048  -0.144  0.0584  0.2283  0.1784
  664MOL0     C89570   6.125   2.096  -0.253  0.5289  0.1794  0.3949
  664MOL0     C89571   5.430   1.914   0.085 -0.1356  0.7703 -0.1522
  664MOL0     C89572   5.360   1.795   0.104  0.7307  0.1209 -0.6898
  664MOL0     H89573   5.134   1.428   0.358 -1.1831 -0.7076 -0.5114
  664MOL0     H89574   4.977   1.246   0.321 -0.3175 -1.4582  1.8193
  664MOL0     H89575   5.011   1.017  -0.001  2.4028  0.1826 -1.3765
  664MOL0     H89576   5.135   0.915   0.061 -0.0222  0.3896  1.4563
  664MOL0     H89577   4.918   0.800  -0.005  0.5577  1.5925 -0.4484
  664MOL0     H89578   4.965   0.768   0.171  2.8123 -0.5857 -1.1440
  664MOL0     H89579   4.789   0.943   0.241 -2.1809  0.3398  0.8869
  664MOL0     H89580   4.754   0.964   0.064 -0.0130  0.1496  0.3469
  664MOL0     H89581   4.681   0.729   0.049 -3.8379 -0.5380  0.3487
  664MOL0     H89582   4.709   0.722   0.226  0.3954 -0.8512 -0.5284
  664MOL0     H89583   4.514   0.864   0.276  2.0834  0.9607  0.5009
  664MOL0     H89584   4.519   0.923   0.111  1.7237  1.3839  1.7494
  664MOL0     H89585   4.328   0.781   0.133  1.1748  3.4016 -0.4309
  664MOL0     H89586   4.440   0.698   0.028  0.1237 -3.1993 -0.0323
  664MOL0     H89587   4.520   0.574   0.243 -0.9181 -1.5670 -0.8766
  664MOL0     H89588   4.366   0.642   0.319  0.1419  2.2718 -0.0978
  664MOL0     H89589   4.334   0.407   0.250  1.0732  0.2363  0.7101
  664MOL0     H89590   4.389   0.445   0.091  2.3985  0.0377  1.9316
  664MOL0     H89591   4.232   0.548  -0.080 -0.0657  0.5474 -1.0881
  664MOL0     H89592   4.016   0.590  -0.211 -1.4866 -0.0452  0.6772
  664MOL0     H89593   3.919   0.454  -0.167 -2.0774  0.5927 -2.0941
  664MOL0     H89594   3.887   0.752  -0.100 -0.1423  0.0098 -0.4231
  664MOL0     H89595   3.784   0.625  -0.025 -0.9943 -1.3367 -0.8058
  664MOL0     H89596   3.672   0.596  -0.254 -2.3595  1.7791  0.8996
  664MOL0     H89597   3.771   0.716  -0.322 -1.4940 -1.4644 -2.1633
  664MOL0     H89598   3.574   0.805  -0.243  0.3501  2.9130  1.2705
  664MOL0     H89599   3.691   0.876  -0.138 -0.6833  0.7047  0.9175
  664MOL0     H89600   3.500   0.509   0.086 -1.0773  2.0926  0.9960
  664MOL0     H89601   3.404   0.320   0.151  0.2320 -1.8906  0.3774
  664MOL0     H89602   3.230   0.320   0.110  0.9397 -0.5940  1.7541
  664MOL0     H89603   3.333   0.212   0.021  1.4727 -1.2717  1.9473
  664MOL0     H89604   2.849   0.159  -0.062  2.3835  2.3296 -0.6209
  664MOL0     H89605   2.743  -0.020  -0.174 -0.5954  2.4253  1.5392
  664MOL0     H89606   2.948  -0.212  -0.519 -0.6482  0.6359 -0.9147
  664MOL0     H89607   2.991  -0.334  -0.406  0.2896  1.0956  0.4514
  664MOL0     H89608   2.717  -0.285  -0.540 -0.8193  0.5549  1.1501
  664MOL0     H89609   2.826  -0.408  -0.594  0.3787 -0.3139  1.5462
  664MOL0     H89610   2.701  -0.411  -0.305 -1.9408 -1.4370 -0.4608
  664MOL0     H89611   2.813  -0.522  -0.365  1.2541  1.5588  0.9389
  664MOL0     H89612   2.644  -0.575  -0.554 -0.3650  0.6504 -0.1594
  664MOL0     H89613   2.583  -0.618  -0.392 -1.1995 -1.6700 -1.8604
  664MOL0     H89614   2.522  -0.345  -0.503  0.8605  0.4287 -0.0641
  664MOL0     H89615   2.449  -0.452  -0.378 -1.9823  0.6338 -2.0645
  664MOL0     H89616   2.329  -0.434  -0.615 -1.3592 -2.1586 -2.0971
  664MOL0     H89617   2.473  -0.495  -0.685 -3.0660  0.8421 -2.5718
  664MOL0     H89618   2.320  -0.656  -0.467 -1.3901 -0.9150 -1.0402
  664MOL0     H89619   2.437  -0.721  -0.585  2.0031  0.9954  0.8220
  664MOL0     H89620   2.243  -0.776  -0.718  1.3069 -1.3993  1.9562
  664MOL0     H89621   2.272  -0.606  -0.762 -1.9309 -0.6220 -2.0636
  664MOL0     H89622   3.109  -0.141  -0.353 -3.1833 -0.6371 -1.7626
  664MOL0     H89623   3.223   0.056  -0.244  0.8399 -0.7155  0.0524
  664MOL0     H89624   3.209   0.556  -0.315 -0.8269  1.8975  0.6434
  664MOL0     H89625   3.407   0.697  -0.288 -0.7419  0.1368 -0.0884
  664MOL0     H89626   5.277   1.007   0.150 -4.4615 -0.3169 -2.2161
  664MOL0     H89627   5.445   1.189   0.155  0.9719 -1.7413  2.9393
  664MOL0     H89628   5.576   1.634   0.316  1.5733  0.8637 -0.0311
  664MOL0     H89629   5.690   1.844   0.284 -0.8432 -0.3656  1.7222
  664MOL0     H89630   5.764   2.171   0.193 -2.2726 -0.5198  3.4855
  664MOL0     H89631   5.766   2.027   0.262 -1.9080  0.5724  0.0800
  664MOL0     H89632   5.826   2.094  -0.037  1.1571  1.1057 -0.1984
  664MOL0     H89633   5.814   1.924   0.022 -1.0305 -0.1709  1.1494
  664MOL0     H89634   6.012   1.989   0.188 -1.0567  0.5541  0.8723
  664MOL0     H89635   6.011   2.144   0.107 -2.1998 -0.7531  0.3349
  664MOL0     H89636   6.042   1.872  -0.046  2.0319 -0.6450  1.9253
  664MOL0     H89637   6.173   1.931   0.024 -0.3073 -2.4932 -1.2422
  664MOL0     H89638   6.140   2.137  -0.351 -1.2214 -2.4317 -1.0984
  664MOL0     H89639   5.383   1.978   0.011  1.7034  1.5800 -0.6755
  664MOL0     H89640   5.266   1.800   0.050 -0.1070  1.5607  0.8298
  665MOL0     O89641   9.291   8.154  10.169  0.9098 -0.3876 -0.0053
  665MOL0     C89642   9.288   8.036  10.200 -0.1203  0.7059  0.1606
  665MOL0     O89643   9.180   7.958  10.221  0.0285  0.0871  0.1773
  665MOL0     C89644   9.056   8.014  10.217  0.4454 -0.2887 -0.5102
  665MOL0     C89645   9.016   8.140  10.259 -1.0791 -0.1134  0.4743
  665MOL0     C89646   8.886   8.181  10.255  1.1975  0.3880  0.7325
  665MOL0     C89647   8.789   8.102  10.201 -1.7742  0.4129  0.1266
  665MOL0     O89648   8.675   8.176  10.183  0.8347 -0.2002  0.4543
  665MOL0     C89649   8.591   8.161  10.067  0.3293  0.1285  0.2010
  665MOL0     C89650   8.469   8.250  10.086 -0.6902  0.1022  0.7483
  665MOL0     C89651   8.384   8.194  10.192  0.1501 -0.5116 -0.1541
  665MOL0     C89652   8.314   8.306  10.275 -0.4841  0.2439 -0.2787
  665MOL0     C89653   8.191   8.374  10.208 -0.1423 -0.0127 -0.6923
  665MOL0     C89654   8.064   8.292  10.208 -0.5879 -0.5029 -0.8372
  665MOL0     C89655   8.005   8.274  10.347 -0.5696 -0.0483 -0.3561
  665MOL0     C89656   7.870   8.194  10.342 -0.0427  0.4524 -0.8103
  665MOL0     N89657   7.764   8.259  10.274 -0.4478 -0.8340  0.3472
  665MOL0     C89658   7.680   8.361  10.317  0.8362 -0.2387  0.0189
  665MOL0     C89659   7.607   8.401  10.209  0.3500 -0.0292 -0.9708
  665MOL0     C89660   7.516   8.518  10.188 -0.4697 -0.8252 -0.6211
  665MOL0     C89661   7.371   8.482  10.218 -0.1502  0.2838  0.3626
  665MOL0     C89662   7.335   8.442  10.364 -0.5732  0.0798 -0.7221
  665MOL0     C89663   7.208   8.526  10.409  0.2935 -0.0172  0.6490
  665MOL0     O89664   7.169   8.484  10.542  0.2989 -0.0639 -0.4849
  665MOL0     C89665   7.176   8.576  10.645 -0.3469 -0.0236  0.1246
  665MOL0     C89666   7.226   8.709  10.651  0.8076 -0.0534 -0.4786
  665MOL0     C89667   7.224   8.783  10.775 -0.3251 -0.1833 -0.1778
  665MOL0     C89668   7.283   8.922  10.782 -0.3367 -0.0789 -0.6635
  665MOL0     C89669   7.176   8.721  10.902 -0.5446 -0.7559  0.0707
  665MOL0     C89670   7.159   8.785  11.032  0.0023 -0.4739 -0.6025
  665MOL0     O89671   7.051   8.732  11.105  0.5328  0.1667 -0.4648
  665MOL0     C89672   7.041   8.761  11.244 -0.1186 -0.2212 -0.2543
  665MOL0     C89673   6.963   8.866  11.290 -0.2447 -0.6238 -0.0302
  665MOL0     C89674   6.965   8.900  11.430  0.1717 -0.2165 -0.2200
  665MOL0     C89675   7.054   8.829  11.513 -0.2837  0.5530 -0.4995
  665MOL0     O89676   7.083   8.862  11.646  0.5009  0.0020 -0.1962
  665MOL0     C89677   7.009   8.962  11.711  0.4009  0.4091  0.4471
  665MOL0     C89678   7.057   8.959  11.860 -0.4872  0.2793  0.1055
  665MOL0     C89679   7.207   8.984  11.874 -0.2944 -0.4664  0.2749
  665MOL0     C89680   7.238   8.957  12.029 -0.4479  0.3998  0.7210
  665MOL0     C89681   7.386   9.003  12.060  0.6370  0.5405  0.2190
  665MOL0     C89682   7.482   8.886  12.042 -0.1244 -0.3336 -0.8851
  665MOL0     C89683   7.617   8.940  12.113 -0.6051 -0.0328 -0.6617
  665MOL0     C89684   7.718   8.822  12.164  0.0296  0.1947 -0.0940
  665MOL0    Cl89685   7.793   8.735  12.021  0.0693 -0.6768 -0.3964
  665MOL0     C89686   7.123   8.723  11.469  0.1737 -0.2233 -0.1588
  665MOL0     C89687   7.124   8.697  11.332 -0.5040 -1.2000  0.8021
  665MOL0     O89688   7.240   8.867  11.076  0.2787 -1.1540  0.1495
  665MOL0     C89689   7.123   8.588  10.890 -0.9913  0.3073  0.6366
  665MOL0     C89690   7.133   8.520  10.763  1.1293  0.3948 -0.2297
  665MOL0     N89691   7.642   8.308  10.112 -0.2888 -0.8019 -0.5849
  665MOL0     N89692   7.736   8.226  10.145  0.3648 -0.4717  0.4097
  665MOL0     C89693   8.821   7.974  10.149 -0.2326 -0.9766 -0.2476
  665MOL0     C89694   8.951   7.932  10.170  0.5097 -0.2080 -0.1104
  665MOL0     C89695   9.415   7.954  10.217 -0.0039 -0.9168 -0.7038
  665MOL0     C89696   9.534   8.013  10.176 -0.3149  0.2296 -0.0412
  665MOL0     C89697   9.651   7.952  10.181 -0.5149  0.4075 -0.6634
  665MOL0     C89698   9.667   7.815  10.233  0.3661 -0.9277  0.1384
  665MOL0     O89699   9.793   7.761  10.244 -0.2743 -0.2433 -0.1691
  665MOL0     C89700   9.802   7.625  10.282  0.0692 -0.2351  0.3429
  665MOL0     C89701   9.943   7.581  10.257 -0.7969 -0.0345 -0.3388
  665MOL0     C89702   9.993   7.570  10.106 -0.1333 -0.3646 -0.0725
  665MOL0     C89703  10.132   7.503  10.094  0.0960 -0.3246 -0.2494
  665MOL0     C89704  10.242   7.569  10.160 -0.6450  0.0862  0.1881
  665MOL0     C89705  10.330   7.618  10.222 -0.1498  0.3145 -0.1186
  665MOL0     C89706   9.549   7.754  10.275 -0.3226 -0.7216 -0.0045
  665MOL0     C89707   9.420   7.820  10.268 -0.4549 -0.2214  1.3669
  665MOL0     H89708   9.085   8.215  10.294  0.5820  0.5578 -3.6219
  665MOL0     H89709   8.857   8.279  10.290  3.7619  1.8808 -0.9817
  665MOL0     H89710   8.640   8.185   9.972 -0.1410 -2.9159 -0.9409
  665MOL0     H89711   8.557   8.058  10.050 -2.4849  1.2755 -1.7513
  665MOL0     H89712   8.499   8.352  10.110 -1.8190  0.0532  2.5872
  665MOL0     H89713   8.412   8.256   9.993 -1.1386 -2.5164  0.7705
  665MOL0     H89714   8.306   8.133  10.146 -1.2601  1.0435  0.0825
  665MOL0     H89715   8.441   8.135  10.264  0.6433  1.4966  1.1677
  665MOL0     H89716   8.290   8.263  10.373  2.1074  0.0297  0.3288
  665MOL0     H89717   8.376   8.388  10.312 -3.1878  0.3190  5.0603
  665MOL0     H89718   8.181   8.467  10.264  1.5230 -2.2854  3.8584
  665MOL0     H89719   8.225   8.379  10.104 -1.5220 -4.4471 -1.5825
  665MOL0     H89720   7.996   8.333  10.132 -0.2598  1.0840 -0.3142
  665MOL0     H89721   8.092   8.197  10.162  2.1974  0.1547 -0.7179
  665MOL0     H89722   8.087   8.229  10.403  1.7851 -0.2955 -3.7210
  665MOL0     H89723   7.989   8.372  10.394  0.4235  0.6232 -1.3908
  665MOL0     H89724   7.835   8.164  10.441 -1.5579  3.2403 -0.3959
  665MOL0     H89725   7.895   8.104  10.284  1.4720  0.8699 -0.8344
  665MOL0     H89726   7.685   8.403  10.417  3.0649 -2.4179  0.9334
  665MOL0     H89727   7.547   8.589  10.266  0.7146  0.2485 -2.0244
  665MOL0     H89728   7.545   8.547  10.087  1.2024 -3.3051 -0.9749
  665MOL0     H89729   7.345   8.401  10.149 -0.2040 -0.0914  0.8194
  665MOL0     H89730   7.310   8.568  10.190  0.1600  1.2672  2.5048
  665MOL0     H89731   7.414   8.473  10.433 -0.7625  1.3082 -1.0339
  665MOL0     H89732   7.315   8.335  10.372 -2.1841  0.2655 -1.8279
  665MOL0     H89733   7.133   8.505  10.333 -0.8758  1.0387  1.4788
  665MOL0     H89734   7.229   8.632  10.397  0.9609 -0.3410 -1.6317
  665MOL0     H89735   7.267   8.753  10.561  0.3356 -0.8645 -1.1045
  665MOL0     H89736   7.233   8.991  10.851  0.8890  0.8189 -0.6404
  665MOL0     H89737   7.388   8.923  10.812 -0.4253  1.1403 -0.3584
  665MOL0     H89738   7.281   8.959  10.679  0.1714 -1.2995 -1.1399
  665MOL0     H89739   6.918   8.925  11.211  0.7022  2.1277  1.3702
  665MOL0     H89740   6.914   8.992  11.456 -0.6229 -0.4838 -0.7982
  665MOL0     H89741   7.017   9.061  11.665  0.5570  0.5063  0.6787
  665MOL0     H89742   6.903   8.935  11.711  0.8488 -1.4868  0.4829
  665MOL0     H89743   6.990   9.026  11.914 -0.6645  0.6849 -0.6090
  665MOL0     H89744   7.038   8.861  11.905  2.0099 -0.5869 -0.5811
  665MOL0     H89745   7.234   9.086  11.843  0.8364 -1.6156 -2.9522
  665MOL0     H89746   7.264   8.921  11.806 -2.9563  0.5816 -3.2042
  665MOL0     H89747   7.169   9.022  12.083  1.5764  1.7730  1.7758
  665MOL0     H89748   7.221   8.852  12.054  2.0255  0.0366  1.1281
  665MOL0     H89749   7.382   9.046  12.160 -2.9160 -0.6793  0.7382
  665MOL0     H89750   7.425   9.081  11.994  2.3806  1.7741  2.5815
  665MOL0     H89751   7.437   8.794  12.080 -0.4018 -0.9138 -2.5371
  665MOL0     H89752   7.509   8.859  11.940 -0.0535  2.4707 -1.6734
  665MOL0     H89753   7.589   8.999  12.201  0.6053 -4.0703  2.7331
  665MOL0     H89754   7.674   8.992  12.035  3.1926 -3.5494 -0.5694
  665MOL0     H89755   7.659   8.755  12.228 -2.5605  2.0424 -0.3939
  665MOL0     H89756   7.793   8.869  12.228  1.7472 -2.0459 -0.3536
  665MOL0     H89757   7.193   8.680  11.540 -0.4914 -0.2908  0.4686
  665MOL0     H89758   7.182   8.619  11.284  2.3905  1.5107 -0.5419
  665MOL0     H89759   7.086   8.531  10.974 -3.9713  2.0429  0.6092
  665MOL0     H89760   7.103   8.417  10.751  0.8526  0.3421  0.7846
  665MOL0     H89761   8.741   7.916  10.104 -0.7305  1.4825 -2.8206
  665MOL0     H89762   8.962   7.828  10.142  0.2262 -0.2771  0.0317
  665MOL0     H89763   9.526   8.112  10.132 -1.8959 -0.0779 -0.5438
  665MOL0     H89764   9.742   8.009  10.159 -0.1747 -0.3487 -1.2471
  665MOL0     H89765   9.789   7.613  10.390  2.5600  0.4406  0.7739
  665MOL0     H89766   9.719   7.565  10.243 -0.4473  0.3661  0.5044
  665MOL0     H89767   9.960   7.487  10.309  0.7657  0.2768 -0.2038
  665MOL0     H89768  10.007   7.656  10.306  0.5901 -0.5040 -1.3519
  665MOL0     H89769   9.989   7.665  10.051 -2.1867 -2.1604 -3.3798
  665MOL0     H89770   9.924   7.501  10.057 -1.0511  0.9158 -0.6335
  665MOL0     H89771  10.149   7.488   9.987 -4.2574  1.3302 -1.4007
  665MOL0     H89772  10.127   7.407  10.146 -1.4841  1.2585  2.7831
  665MOL0     H89773  10.407   7.671  10.275  2.2346 -1.5887 -1.4818
  665MOL0     H89774   9.553   7.656  10.323 -2.5652 -0.3711  1.0142
  665MOL0     H89775   9.333   7.761  10.297 -0.3185 -0.8460  0.5500
  666MOL0     O89776   2.475   1.492   6.894 -0.2412 -0.4840 -0.4889
  666MOL0     C89777   2.454   1.611   6.869 -0.0148  0.7573  0.0666
  666MOL0     O89778   2.346   1.657   6.806 -0.3059  0.6738  0.5925
  666MOL0     C89779   2.225   1.589   6.811 -0.3018  0.4140 -0.1789
  666MOL0     C89780   2.215   1.465   6.761 -0.9921  0.0935  0.6573
  666MOL0     C89781   2.093   1.398   6.764  0.5754  0.3658 -0.0010
  666MOL0     C89782   1.981   1.448   6.834 -0.5405  0.6087 -0.4675
  666MOL0     O89783   1.862   1.375   6.850  0.4942 -0.1320 -0.5815
  666MOL0     C89784   1.746   1.446   6.900 -0.5528 -0.2818 -0.0399
  666MOL0     C89785   1.620   1.371   6.853 -0.4816  0.1569 -0.0130
  666MOL0     C89786   1.487   1.446   6.868  0.1839 -0.0561 -0.6121
  666MOL0     C89787   1.373   1.357   6.817 -0.5033 -0.3245  0.3651
  666MOL0     C89788   1.243   1.440   6.839 -0.0942  0.5405 -0.8180
  666MOL0     C89789   1.113   1.366   6.792  0.1891 -0.2750 -0.6648
  666MOL0     C89790   1.014   1.350   6.909 -0.4542 -0.4659  0.0627
  666MOL0     C89791   0.874   1.340   6.841  0.4390 -0.2957  0.5991
  666MOL0     N89792   0.847   1.216   6.769  0.7557  0.2714  0.4552
  666MOL0     C89793   0.887   1.089   6.812 -0.3121  0.1006 -0.0507
  666MOL0     C89794   0.795   1.004   6.742 -0.2143 -0.2505  0.0198
  666MOL0     C89795   0.783   0.856   6.757 -1.0906 -0.5019 -0.1506
  666MOL0     C89796   0.636   0.813   6.769 -0.0117 -0.4573 -0.2391
  666MOL0     C89797   0.579   0.857   6.910  0.4809 -0.0787  0.0203
  666MOL0     C89798   0.427   0.831   6.923 -0.0970  0.1486 -0.1719
  666MOL0     O89799   0.393   0.689   6.907 -0.3041 -0.3777 -0.3059
  666MOL0     C89800   0.264   0.645   6.897  0.0194  0.8508  0.5628
  666MOL0     C89801   0.152   0.711   6.955 -0.1896  0.0457  0.3298
  666MOL0     C89802   0.014   0.682   6.917 -0.2354 -0.5153  0.2234
  666MOL0     C89803  -0.086   0.763   6.988  0.3502  0.1553 -0.1046
  666MOL0     C89804  -0.007   0.569   6.835 -0.3956 -0.2677 -0.0046
  666MOL0     C89805  -0.144   0.530   6.800  0.1766  0.4838 -0.2032
  666MOL0     O89806  -0.244   0.613   6.822  0.1128  0.9614 -0.4378
  666MOL0     C89807  -0.367   0.567   6.813 -0.2024 -0.6608  0.5842
  666MOL0     C89808  -0.441   0.521   6.931  0.3503  0.1964  0.8612
  666MOL0     C89809  -0.571   0.474   6.918  0.3909 -0.3889  0.6247
  666MOL0     C89810  -0.632   0.471   6.796 -0.7725  0.4227 -0.3465
  666MOL0     O89811  -0.756   0.416   6.776  0.1247 -0.0524 -0.5473
  666MOL0     C89812  -0.805   0.331   6.887  0.7839  0.2123  0.5287
  666MOL0     C89813  -0.947   0.280   6.858 -0.2880  0.1566 -0.4195
  666MOL0     C89814  -0.948   0.185   6.739 -0.3378 -0.4139  0.0080
  666MOL0     C89815  -1.070   0.101   6.732  0.6838  0.2145  0.2566
  666MOL0     C89816  -1.202   0.186   6.726 -0.6108 -0.7581 -0.5318
  666MOL0     C89817  -1.208   0.279   6.609  1.6167  1.0593  0.0009
  666MOL0     C89818  -1.352   0.331   6.573 -0.5102 -0.1536 -0.3906
  666MOL0     C89819  -1.340   0.428   6.456  0.9412 -0.2226 -0.0910
  666MOL0    Cl89820  -1.285   0.344   6.310  0.1946 -0.3349 -0.5689
  666MOL0     C89821  -0.562   0.510   6.681 -0.6092 -0.4972  0.0311
  666MOL0     C89822  -0.425   0.548   6.693  0.6873 -0.5388  0.3867
  666MOL0     O89823  -0.161   0.417   6.762 -0.7755  0.6505  0.1237
  666MOL0     C89824   0.103   0.503   6.780  0.9761 -0.5155 -0.6348
  666MOL0     C89825   0.234   0.541   6.810  0.6496 -0.3605 -0.6638
  666MOL0     N89826   0.715   1.082   6.660  0.2787  0.5875  0.2181
  666MOL0     N89827   0.743   1.203   6.682 -0.1055 -1.2197 -0.6034
  666MOL0     C89828   1.997   1.571   6.891 -0.2917 -0.3774  0.5248
  666MOL0     C89829   2.116   1.647   6.880  0.0700 -0.3709  0.4022
  666MOL0     C89830   2.543   1.722   6.912 -0.0749 -0.3852 -0.2111
  666MOL0     C89831   2.520   1.856   6.888 -1.1012  0.2583  0.0611
  666MOL0     C89832   2.599   1.959   6.943 -0.1543  0.6976 -0.5577
  666MOL0     C89833   2.698   1.929   7.033 -1.3793 -0.0897  0.5223
  666MOL0     O89834   2.785   2.022   7.081 -0.0921  1.0843 -0.5049
  666MOL0     C89835   2.732   2.127   7.170  0.1824 -0.0954  0.5887
  666MOL0     C89836   2.670   2.065   7.296  0.2758  0.3057  0.7653
  666MOL0     C89837   2.776   2.002   7.384 -0.6820  1.1594  0.1483
  666MOL0     C89838   2.833   2.112   7.476 -0.4484 -0.4265  0.6301
  666MOL0     C89839   2.938   2.055   7.570 -0.5493 -0.5336  0.6851
  666MOL0     C89840   3.022   2.037   7.653 -0.3610  0.5626 -0.5015
  666MOL0     C89841   2.727   1.789   7.057 -0.1241 -0.1868  0.2557
  666MOL0     C89842   2.655   1.689   7.000  0.5359 -0.0549  0.5650
  666MOL0     H89843   2.299   1.405   6.729 -0.9248  0.5876 -0.1371
  666MOL0     H89844   2.067   1.298   6.731 -1.7767  0.4538  1.3193
  666MOL0     H89845   1.751   1.437   7.008  2.9918 -1.4500 -0.1725
  666MOL0     H89846   1.739   1.552   6.873 -0.3107  0.5705  2.9388
  666MOL0     H89847   1.640   1.351   6.747 -0.9340 -2.2506  0.2984
  666MOL0     H89848   1.624   1.283   6.918 -1.7015 -0.6796 -1.0113
  666MOL0     H89849   1.478   1.469   6.975  1.1977  1.5972 -0.8476
  666MOL0     H89850   1.489   1.540   6.812  1.2190  1.0060  1.0884
  666MOL0     H89851   1.389   1.339   6.711 -1.2073 -1.4997  0.4367
  666MOL0     H89852   1.378   1.261   6.869 -0.0358 -0.3805  0.2203
  666MOL0     H89853   1.230   1.452   6.947  1.1343  0.9297 -0.6972
  666MOL0     H89854   1.239   1.539   6.793 -0.3141  1.6340  1.3910
  666MOL0     H89855   1.077   1.430   6.710 -0.9011 -3.6692 -3.0484
  666MOL0     H89856   1.146   1.267   6.760  2.9750 -0.0128  1.0846
  666MOL0     H89857   1.036   1.262   6.970 -1.2806 -0.1341  0.8598
  666MOL0     H89858   1.008   1.430   6.982 -4.5688 -1.1797  0.7470
  666MOL0     H89859   0.869   1.417   6.765  3.7595 -0.5532 -0.0113
  666MOL0     H89860   0.802   1.356   6.922 -0.2606  0.0092 -0.0715
  666MOL0     H89861   0.960   1.053   6.883 -0.3539 -4.0154 -1.8285
  666MOL0     H89862   0.805   0.809   6.661 -2.1708  0.0194 -0.6811
  666MOL0     H89863   0.842   0.821   6.842  0.3087 -1.2190 -1.3813
  666MOL0     H89864   0.620   0.705   6.766  1.1498 -0.6630  0.3785
  666MOL0     H89865   0.574   0.856   6.690  0.3006 -1.7557 -1.2192
  666MOL0     H89866   0.600   0.965   6.908 -0.3408  0.0845 -1.3614
  666MOL0     H89867   0.630   0.808   6.993  3.9221 -0.8374 -2.3310
  666MOL0     H89868   0.369   0.883   6.846  0.0751  0.2901 -0.2057
  666MOL0     H89869   0.402   0.872   7.021  0.5711 -1.0911  0.5446
  666MOL0     H89870   0.176   0.792   7.023  1.1868 -0.2964  0.2707
  666MOL0     H89871  -0.032   0.831   7.054 -1.3619  1.7251 -0.2146
  666MOL0     H89872  -0.140   0.815   6.908  1.0580  1.7059  0.3924
  666MOL0     H89873  -0.153   0.690   7.035  0.2901  0.0239 -0.3900
  666MOL0     H89874  -0.390   0.537   7.025  0.1603  3.4350  0.5313
  666MOL0     H89875  -0.610   0.440   7.014 -1.5280 -0.7902 -0.2537
  666MOL0     H89876  -0.734   0.252   6.912  2.4133  0.5364 -2.5446
  666MOL0     H89877  -0.813   0.394   6.976  1.4838 -0.4552  1.0766
  666MOL0     H89878  -0.996   0.237   6.945  1.3739 -0.4485  0.2528
  666MOL0     H89879  -1.004   0.367   6.822 -0.6207 -1.2070 -3.5357
  666MOL0     H89880  -0.862   0.118   6.732 -1.1198 -1.3854 -0.6528
  666MOL0     H89881  -0.951   0.241   6.646  0.8842 -3.0773 -1.7574
  666MOL0     H89882  -1.051   0.041   6.642 -2.0250 -1.5001  0.6979
  666MOL0     H89883  -1.067   0.020   6.805  1.5863 -0.0610 -0.0656
  666MOL0     H89884  -1.213   0.249   6.815 -0.1388  2.6084 -2.6845
  666MOL0     H89885  -1.286   0.116   6.720 -0.7182 -0.9047  1.5972
  666MOL0     H89886  -1.141   0.363   6.628  2.3758  0.0514  2.0565
  666MOL0     H89887  -1.166   0.217   6.528  0.0711 -1.3115  0.8927
  666MOL0     H89888  -1.393   0.375   6.665 -1.9719 -1.1758 -0.5218
  666MOL0     H89889  -1.416   0.245   6.555  1.6783 -1.4139 -2.7200
  666MOL0     H89890  -1.275   0.511   6.484 -0.5567  1.8555 -2.3509
  666MOL0     H89891  -1.438   0.470   6.430  0.5831 -1.1948 -0.3480
  666MOL0     H89892  -0.614   0.507   6.586  1.1965 -0.6529 -0.9867
  666MOL0     H89893  -0.381   0.586   6.602 -2.4353 -0.4925 -1.2583
  666MOL0     H89894   0.091   0.415   6.718 -0.6352 -0.7906  0.0183
  666MOL0     H89895   0.321   0.493   6.768  0.1402 -2.3093  0.3888
  666MOL0     H89896   1.932   1.629   6.955  1.0620 -0.5368  2.1091
  666MOL0     H89897   2.123   1.749   6.917 -0.6502 -1.2201  3.0385
  666MOL0     H89898   2.439   1.881   6.820 -1.3703  0.7423  0.5582
  666MOL0     H89899   2.589   2.058   6.899  4.0366  1.9735  0.8855
  666MOL0     H89900   2.805   2.196   7.212 -1.9071  1.1833  2.2948
  666MOL0     H89901   2.662   2.184   7.108 -1.8037  0.3030  3.0611
  666MOL0     H89902   2.592   1.996   7.263 -1.7435  3.2392 -0.9784
  666MOL0     H89903   2.624   2.139   7.362  0.3719  1.7414 -0.7088
  666MOL0     H89904   2.857   1.956   7.326 -0.8920 -2.0145  2.0891
  666MOL0     H89905   2.734   1.921   7.444  1.4243  0.3916  0.6797
  666MOL0     H89906   2.757   2.162   7.536 -1.4966 -0.1269 -0.8950
  666MOL0     H89907   2.876   2.185   7.407 -0.5007 -1.3371 -0.4075
  666MOL0     H89908   3.084   2.018   7.738 -0.9340  0.1969 -0.1557
  666MOL0     H89909   2.798   1.750   7.129  0.2501  0.7021  0.3857
  666MOL0     H89910   2.678   1.585   7.021 -3.5189 -1.2340  0.1884
  667MOL0     O89911  10.165   9.113   9.501 -0.4022  0.6431 -0.4800
  667MOL0     C89912  10.187   9.233   9.491  1.3200 -0.4396  0.5072
  667MOL0     O89913  10.088   9.317   9.443 -0.6608 -0.8777 -0.1459
  667MOL0     C89914   9.962   9.266   9.425  0.2369  0.3483  0.1791
  667MOL0     C89915   9.890   9.259   9.305  0.4894  0.2896 -0.3492
  667MOL0     C89916   9.750   9.225   9.295 -0.2947  0.2763 -0.3061
  667MOL0     C89917   9.675   9.203   9.408 -0.5169 -0.5985  0.6267
  667MOL0     O89918   9.544   9.169   9.403  0.2698  0.1673  0.4418
  667MOL0     C89919   9.454   9.282   9.386  0.3992  0.5686 -0.1121
  667MOL0     C89920   9.321   9.257   9.456  1.0181 -0.9364 -0.6600
  667MOL0     C89921   9.235   9.379   9.457  0.4082 -0.2903  0.3257
  667MOL0     C89922   9.100   9.343   9.517  0.4875 -0.5792 -0.1039
  667MOL0     C89923   9.022   9.474   9.538 -0.3419 -0.3720 -0.5443
  667MOL0     C89924   8.904   9.463   9.633 -0.2250 -0.2411 -0.0334
  667MOL0     C89925   8.804   9.578   9.631  1.1496 -0.2603  0.9961
  667MOL0     C89926   8.886   9.704   9.653  0.6516 -0.0584 -0.8452
  667MOL0     N89927   8.799   9.818   9.632  0.4032  0.4160  0.2637
  667MOL0     C89928   8.716   9.874   9.724 -0.4158 -0.0950 -0.1134
  667MOL0     C89929   8.651   9.974   9.660 -0.5072 -0.0596 -0.4527
  667MOL0     C89930   8.538  10.062   9.716 -0.1920  0.7599 -0.5593
  667MOL0     C89931   8.480  10.028   9.865 -0.1399  0.4923  0.7020
  667MOL0     C89932   8.435   9.876   9.889  0.2831 -0.1228  0.2324
  667MOL0     C89933   8.325   9.873   9.995 -1.1912 -0.1475 -0.8889
  667MOL0     O89934   8.263   9.746  10.012  0.2481  0.5008  0.0647
  667MOL0     C89935   8.170   9.735  10.111 -0.2025 -0.7032 -0.1442
  667MOL0     C89936   8.145   9.824  10.213  1.0922  0.4838 -0.3538
  667MOL0     C89937   8.030   9.806  10.297 -0.0657  0.6213 -0.3800
  667MOL0     C89938   8.000   9.920  10.387  0.8977  0.6101 -0.4173
  667MOL0     C89939   7.952   9.685  10.289  0.2996  0.0356  0.2578
  667MOL0     C89940   7.829   9.657  10.366 -0.2411 -0.9810 -0.6279
  667MOL0     O89941   7.785   9.530  10.363  0.4785  0.2451  0.1697
  667MOL0     C89942   7.657   9.492  10.397  0.4482 -0.2414 -0.8778
  667MOL0     C89943   7.544   9.578  10.383  0.5570 -0.3295 -0.0519
  667MOL0     C89944   7.423   9.536  10.436  0.1209 -1.0851 -0.4181
  667MOL0     C89945   7.405   9.410  10.502 -0.0523 -1.0179  1.1060
  667MOL0     O89946   7.289   9.372  10.560 -0.9272 -0.0831 -0.3965
  667MOL0     C89947   7.182   9.463  10.583 -0.0605  0.5042 -0.0918
  667MOL0     C89948   7.055   9.379  10.593  0.0542  0.4547 -0.1165
  667MOL0     C89949   7.076   9.272  10.704  0.5820 -0.4661  0.0685
  667MOL0     C89950   6.934   9.215  10.750  0.2558  0.4385 -0.1064
  667MOL0     C89951   6.927   9.064  10.789 -0.1935 -0.5996  1.2398
  667MOL0     C89952   6.908   8.981  10.655  0.3812  0.8885  0.6666
  667MOL0     C89953   6.879   8.839  10.700  0.4113 -0.3646 -0.2941
  667MOL0     C89954   6.869   8.746  10.567 -0.4336  0.3258  0.2620
  667MOL0    Cl89955   6.731   8.790  10.453 -0.1722  0.4183 -0.3476
  667MOL0     C89956   7.509   9.323  10.505  0.1239  0.9590  0.3274
  667MOL0     C89957   7.639   9.360  10.442 -0.2894 -0.6285 -0.7230
  667MOL0     O89958   7.781   9.751  10.425  0.5050  0.1223 -0.6301
  667MOL0     C89959   7.982   9.600  10.184 -0.4008  0.5066  0.2491
  667MOL0     C89960   8.087   9.622  10.098  0.8237 -0.3533 -0.1822
  667MOL0     N89961   8.706   9.979   9.530  0.9786  0.2151  0.3119
  667MOL0     N89962   8.789   9.882   9.512 -0.4368 -0.8176 -0.6859
  667MOL0     C89963   9.743   9.203   9.526 -0.5316  1.1512 -0.4346
  667MOL0     C89964   9.888   9.233   9.537  0.7958 -0.2664  0.4837
  667MOL0     C89965  10.318   9.292   9.489  0.3737 -0.5145 -0.2673
  667MOL0     C89966  10.431   9.213   9.517  0.1512 -0.1718 -0.2841
  667MOL0     C89967  10.554   9.269   9.515  0.0472  1.1396 -0.4728
  667MOL0     C89968  10.577   9.399   9.488 -0.2993 -0.6869  0.0021
  667MOL0     O89969  10.702   9.440   9.503  0.0765  0.0604 -0.2610
  667MOL0     C89970  10.750   9.567   9.442  0.4484 -0.1861 -0.1589
  667MOL0     C89971  10.753   9.555   9.286 -0.5933 -0.6042  0.4501
  667MOL0     C89972  10.842   9.667   9.219  0.9599 -0.4325 -0.2245
  667MOL0     C89973  10.785   9.809   9.252  0.0782 -0.3702 -0.3700
  667MOL0     C89974  10.642   9.829   9.229  0.8248 -0.7573  0.5816
  667MOL0     C89975  10.526   9.853   9.206 -0.2667  0.6120  0.7423
  667MOL0     C89976  10.467   9.481   9.463  0.5899 -0.3606  0.7465
  667MOL0     C89977  10.339   9.429   9.470 -0.6364 -0.0674  0.2132
  667MOL0     H89978   9.954   9.285   9.221  1.6455  1.1784  0.7750
  667MOL0     H89979   9.702   9.222   9.198  1.7782 -1.7072 -1.3893
  667MOL0     H89980   9.500   9.375   9.418  0.2175  1.1896 -1.5917
  667MOL0     H89981   9.422   9.294   9.282 -0.7299 -0.0364  0.1502
  667MOL0     H89982   9.262   9.173   9.419  1.9580  0.2009 -5.4496
  667MOL0     H89983   9.335   9.219   9.558  2.9698 -1.1620 -0.9655
  667MOL0     H89984   9.287   9.453   9.519  0.2478 -2.2496  2.9777
  667MOL0     H89985   9.211   9.427   9.362  0.6506 -0.2280  0.2941
  667MOL0     H89986   9.044   9.280   9.447 -2.5802  3.1483 -1.3545
  667MOL0     H89987   9.107   9.296   9.616  2.6305 -0.3232 -0.0855
  667MOL0     H89988   9.098   9.541   9.579 -0.7137 -0.3798  0.1918
  667MOL0     H89989   8.997   9.512   9.439  1.0202 -1.5931 -1.3960
  667MOL0     H89990   8.847   9.370   9.625 -2.1771  0.5354  3.1454
  667MOL0     H89991   8.943   9.454   9.735 -1.0376 -0.2232  0.2798
  667MOL0     H89992   8.757   9.571   9.533  1.6532  1.4173  0.6057
  667MOL0     H89993   8.726   9.573   9.707  0.2191 -0.9542  0.0109
  667MOL0     H89994   8.963   9.695   9.576 -2.5557 -3.7713 -4.0299
  667MOL0     H89995   8.928   9.696   9.754 -1.9158  0.5508  0.3723
  667MOL0     H89996   8.698   9.842   9.826 -0.3913  4.0938  1.4278
  667MOL0     H89997   8.570  10.167   9.715  2.9419 -0.0296  1.9162
  667MOL0     H89998   8.455  10.050   9.645 -1.4568  0.6200  0.8890
  667MOL0     H89999   8.392  10.092   9.870 -0.0647  0.5950  0.7268
  667MOL0     H90000   8.549  10.061   9.943  0.8175 -0.2900  0.2115
  667MOL0     H90001   8.522   9.813   9.913  1.0247  1.3769  1.6583
  667MOL0     H90002   8.385   9.848   9.796 -1.6730  1.7801  0.6229
  667MOL0     H90003   8.257   9.958   9.985  0.4655  1.0518 -2.7101
  667MOL0     H90004   8.376   9.899  10.089 -1.2332  1.5420 -1.3096
  667MOL0     H90005   8.204   9.913  10.227  0.2904  0.4836  4.5107
  667MOL0     H90006   8.021   9.879  10.486 -0.1459  3.3706  1.0394
  667MOL0     H90007   8.059  10.011  10.371  0.4031  0.8769 -0.7284
  667MOL0     H90008   7.895   9.949  10.378 -0.0318 -2.2494  0.1947
  667MOL0     H90009   7.548   9.681  10.349 -1.9023  0.9014  2.9195
  667MOL0     H90010   7.350   9.616  10.440  0.5798 -0.5895 -1.6805
  667MOL0     H90011   7.197   9.522  10.674 -1.6429  0.1820  0.4112
  667MOL0     H90012   7.165   9.526  10.496  0.4660  0.8665  0.0613
  667MOL0     H90013   6.972   9.449  10.608 -1.8226 -1.0259 -2.7482
  667MOL0     H90014   7.039   9.320  10.502  1.0839  0.7735 -0.5066
  667MOL0     H90015   7.118   9.316  10.795 -0.5172  0.6747  0.0502
  667MOL0     H90016   7.150   9.198  10.670 -0.2796 -0.6654 -1.4532
  667MOL0     H90017   6.905   9.272  10.839  1.4997  0.3998  0.3475
  667MOL0     H90018   6.850   9.243  10.685 -1.9086  3.1122  3.4625
  667MOL0     H90019   6.841   9.049  10.855 -1.7192 -0.1687 -0.5621
  667MOL0     H90020   7.016   9.035  10.845 -0.2885  0.7140  2.1144
  667MOL0     H90021   6.823   9.023  10.601 -1.6636 -1.5898  1.7412
  667MOL0     H90022   6.995   8.965  10.591  0.8063 -0.8995  1.5946
  667MOL0     H90023   6.780   8.833  10.747  1.6044 -1.1733  2.3025
  667MOL0     H90024   6.948   8.799  10.775 -2.0558  0.0590  2.3861
  667MOL0     H90025   6.843   8.644  10.600 -2.0084  0.6120  0.0054
  667MOL0     H90026   6.971   8.744  10.529 -0.3048 -1.0470  0.6108
  667MOL0     H90027   7.481   9.225  10.541  0.1945  0.6763 -0.3688
  667MOL0     H90028   7.724   9.294  10.450  1.9670  2.2961  2.5701
  667MOL0     H90029   7.939   9.501  10.172 -1.8785  1.0202  0.9538
  667MOL0     H90030   8.077   9.547  10.020 -0.2392 -0.9625  0.5068
  667MOL0     H90031   9.684   9.192   9.616 -0.7180  0.7572 -0.6021
  667MOL0     H90032   9.936   9.231   9.634 -0.7151 -0.1915  1.2698
  667MOL0     H90033  10.436   9.111   9.555  1.2309 -0.4101 -1.0306
  667MOL0     H90034  10.646   9.214   9.529  0.7102  2.3653  0.1392
  667MOL0     H90035  10.675   9.643   9.466  1.7370  1.1662 -0.2738
  667MOL0     H90036  10.851   9.576   9.483 -0.8327  0.0285  3.3457
  667MOL0     H90037  10.649   9.556   9.253 -1.1970 -1.2169  2.2172
  667MOL0     H90038  10.796   9.457   9.265  2.0417  0.7000 -0.8531
  667MOL0     H90039  10.835   9.647   9.112  0.4052 -1.8066  0.0521
  667MOL0     H90040  10.942   9.659   9.262  0.3249  0.6858  1.6009
  667MOL0     H90041  10.854   9.874   9.197  3.2573 -1.7307  1.7353
  667MOL0     H90042  10.802   9.842   9.355  1.2571  0.6563 -0.8641
  667MOL0     H90043  10.423   9.855   9.176 -0.2303  0.3176  0.5908
  667MOL0     H90044  10.474   9.588   9.446  0.8015 -0.8714 -3.3880
  667MOL0     H90045  10.254   9.494   9.457 -1.0131 -0.6023 -0.0148
  668MOL0     O90046   2.680   7.640   0.128  0.6174  0.3220 -0.5579
  668MOL0     C90047   2.730   7.604   0.022 -0.3823  1.0276 -0.6376
  668MOL0     O90048   2.662   7.592  -0.096  0.2487  0.5478  0.0458
  668MOL0     C90049   2.537   7.641  -0.099 -0.1820 -1.2888  0.9183
  668MOL0     C90050   2.519   7.782  -0.080  0.9734 -0.5359 -0.5211
  668MOL0     C90051   2.387   7.827  -0.058 -0.6649 -0.2609  0.3981
  668MOL0     C90052   2.281   7.754  -0.103  0.5535 -1.1404 -0.2156
  668MOL0     O90053   2.158   7.814  -0.096  1.0575  0.0748  0.0597
  668MOL0     C90054   2.045   7.736  -0.135  0.4993  0.5675 -0.0093
  668MOL0     C90055   1.917   7.811  -0.103 -0.3229 -0.4425 -0.6796
  668MOL0     C90056   1.794   7.722  -0.075  0.0036 -0.3999 -0.1761
  668MOL0     C90057   1.675   7.811  -0.028 -0.0573 -0.5829  0.7705
  668MOL0     C90058   1.551   7.715  -0.004 -0.1313  0.7604  0.3530
  668MOL0     C90059   1.500   7.630  -0.119 -0.7207 -0.0815  0.6440
  668MOL0     C90060   1.360   7.589  -0.095 -0.1390  0.5857  0.4803
  668MOL0     C90061   1.340   7.468  -0.197  0.6264  0.0170  0.2100
  668MOL0     N90062   1.203   7.405  -0.172 -0.9064  0.7380 -0.4586
  668MOL0     C90063   1.178   7.277  -0.129  0.0682  0.8243 -0.1079
  668MOL0     C90064   1.047   7.249  -0.165 -0.5069  0.7941 -1.1869
  668MOL0     C90065   0.973   7.118  -0.139 -0.7828  0.5070 -0.2558
  668MOL0     C90066   1.061   6.990  -0.129 -0.6515 -0.4604  0.4784
  668MOL0     C90067   0.993   6.876  -0.050 -0.7063  0.4037  0.6189
  668MOL0     C90068   0.857   6.833  -0.099  0.0086  0.4835  0.6924
  668MOL0     O90069   0.827   6.708  -0.047  0.0868 -0.2470  0.1075
  668MOL0     C90070   0.700   6.661  -0.044 -0.3134  0.3197  0.0956
  668MOL0     C90071   0.673   6.544   0.015 -0.6596 -0.1354 -0.5943
  668MOL0     C90072   0.546   6.483   0.014  0.2565  0.6091  0.0796
  668MOL0     C90073   0.539   6.350   0.090 -0.1089 -0.4147  0.4400
  668MOL0     C90074   0.435   6.545  -0.062 -0.0746  0.2491 -0.4799
  668MOL0     C90075   0.301   6.495  -0.066  0.8841  0.3838  0.5588
  668MOL0     O90076   0.200   6.591  -0.094 -1.1217  0.7328  0.1279
  668MOL0     C90077   0.071   6.562  -0.068 -0.1749  0.0327 -0.6081
  668MOL0     C90078  -0.018   6.601  -0.168  0.1378 -0.8662 -0.3847
  668MOL0     C90079  -0.154   6.592  -0.142 -0.0883 -0.9859 -0.5011
  668MOL0     C90080  -0.199   6.532  -0.015 -0.6408 -0.6028 -0.0898
  668MOL0     O90081  -0.326   6.515   0.021  0.0687 -0.9829  0.3091
  668MOL0     C90082  -0.414   6.472  -0.086 -0.5314  0.0666  0.2609
  668MOL0     C90083  -0.552   6.433  -0.035  0.0797 -0.0542  0.2600
  668MOL0     C90084  -0.623   6.560   0.018  0.3656  0.6543  0.4722
  668MOL0     C90085  -0.776   6.565  -0.014  0.1688 -0.4592  0.1492
  668MOL0     C90086  -0.848   6.684   0.066  0.4781  0.0740  0.0346
  668MOL0     C90087  -0.995   6.672   0.051  0.1576 -0.0159 -0.5426
  668MOL0     C90088  -1.046   6.704  -0.092  1.1780  0.1489 -0.3679
  668MOL0     C90089  -1.199   6.744  -0.108 -1.0433 -0.4947  0.2016
  668MOL0    Cl90090  -1.313   6.645  -0.015 -0.0403 -0.0984  0.3009
  668MOL0     C90091  -0.106   6.484   0.070 -0.1529  0.2863 -0.3154
  668MOL0     C90092   0.036   6.498   0.051 -0.0149 -0.1520  0.6640
  668MOL0     O90093   0.285   6.373  -0.047  0.0032 -0.2389 -0.9365
  668MOL0     C90094   0.461   6.667  -0.126 -0.3115  0.4550  0.5258
  668MOL0     C90095   0.594   6.717  -0.126 -0.8734  0.1114 -0.4934
  668MOL0     N90096   0.999   7.363  -0.216 -0.0611  0.9710  0.2894
  668MOL0     N90097   1.093   7.448  -0.233 -0.1353 -0.5681  0.3883
  668MOL0     C90098   2.302   7.621  -0.153 -0.8856 -0.0093 -0.9213
  668MOL0     C90099   2.432   7.565  -0.152  0.8605  0.7137  1.0770
  668MOL0     C90100   2.869   7.553   0.024  0.6202  0.6177  0.0527
  668MOL0     C90101   2.940   7.532  -0.097 -0.0206 -0.2939 -0.3117
  668MOL0     C90102   3.078   7.505  -0.109  1.0804  0.7887  0.3960
  668MOL0     C90103   3.149   7.512   0.018 -0.7266  0.8078  0.4278
  668MOL0     O90104   3.284   7.489   0.029  0.3176 -0.5313 -0.3879
  668MOL0     C90105   3.355   7.494  -0.096 -0.0844  1.0921  0.6424
  668MOL0     C90106   3.501   7.491  -0.064 -0.6974 -0.2397 -0.4168
  668MOL0     C90107   3.543   7.621  -0.000 -0.4350 -0.9772 -0.1912
  668MOL0     C90108   3.689   7.649  -0.018 -0.3843  0.0127 -0.8194
  668MOL0     C90109   3.744   7.721   0.096  0.4019 -0.9128  0.7186
  668MOL0     C90110   3.790   7.770   0.192  0.4824  0.4186 -0.8178
  668MOL0     C90111   3.078   7.526   0.135 -0.5032  1.1393 -0.0403
  668MOL0     C90112   2.938   7.542   0.143  0.6794  0.2583  0.8307
  668MOL0     H90113   2.608   7.841  -0.060  1.7343 -2.3041  1.8090
  668MOL0     H90114   2.364   7.929  -0.028  0.2600  0.6504 -1.7677
  668MOL0     H90115   2.046   7.719  -0.243  2.1072  0.3347  0.0188
  668MOL0     H90116   2.037   7.642  -0.080  0.3170  0.1189 -0.7852
  668MOL0     H90117   1.933   7.853  -0.003  0.5478 -1.6248 -0.3095
  668MOL0     H90118   1.897   7.883  -0.184  2.7679 -1.2598 -2.3002
  668MOL0     H90119   1.772   7.670  -0.169 -0.3196 -1.9075  0.6940
  668MOL0     H90120   1.822   7.643  -0.006 -1.6822 -0.4313  0.5291
  668MOL0     H90121   1.705   7.872   0.057 -1.1008  0.0330  0.7270
  668MOL0     H90122   1.646   7.874  -0.113 -2.0109  0.6929  2.2704
  668MOL0     H90123   1.574   7.647   0.078 -2.8790  0.1198  0.6927
  668MOL0     H90124   1.467   7.774   0.033 -1.5429 -1.0147  0.1197
  668MOL0     H90125   1.502   7.701  -0.202 -2.0315 -3.5605 -2.6589
  668MOL0     H90126   1.568   7.550  -0.151 -1.2894  0.4305 -2.0790
  668MOL0     H90127   1.345   7.550   0.006  4.9939 -0.2213  1.2277
  668MOL0     H90128   1.284   7.661  -0.126  0.6743  1.1390 -0.2895
  668MOL0     H90129   1.414   7.389  -0.179  0.3796  0.2710  2.7007
  668MOL0     H90130   1.343   7.498  -0.302 -0.5752 -0.3609  0.0474
  668MOL0     H90131   1.248   7.206  -0.086 -1.2780  0.0693  0.9034
  668MOL0     H90132   0.922   7.127  -0.043 -2.3627 -2.8123 -0.6376
  668MOL0     H90133   0.900   7.096  -0.219 -1.9492 -1.3370  1.2177
  668MOL0     H90134   1.152   7.008  -0.070 -0.3177  1.2283 -0.5017
  668MOL0     H90135   1.091   6.961  -0.230  1.5471  3.3726 -0.1628
  668MOL0     H90136   0.995   6.898   0.057  0.7051  0.2295  0.6495
  668MOL0     H90137   1.059   6.790  -0.066 -3.6801 -1.4259 -3.7979
  668MOL0     H90138   0.842   6.824  -0.207 -0.9074 -2.3418  0.9750
  668MOL0     H90139   0.790   6.910  -0.060  0.7802  1.1714  0.6942
  668MOL0     H90140   0.759   6.503   0.067 -0.5217 -0.6245 -1.2020
  668MOL0     H90141   0.514   6.271   0.018  0.8313  1.3806 -1.9897
  668MOL0     H90142   0.633   6.322   0.139 -0.3981  1.7727  2.4731
  668MOL0     H90143   0.456   6.345   0.162 -0.3792 -1.1455  0.0862
  668MOL0     H90144   0.021   6.647  -0.258 -0.2205  2.3626  0.9775
  668MOL0     H90145  -0.217   6.630  -0.221 -1.3367  1.7677  1.6311
  668MOL0     H90146  -0.422   6.553  -0.159 -2.7905  1.0447  1.4895
  668MOL0     H90147  -0.362   6.395  -0.145  1.4178  2.3399 -1.1868
  668MOL0     H90148  -0.617   6.388  -0.112  2.0870  0.9552 -2.1572
  668MOL0     H90149  -0.545   6.348   0.033 -0.2280 -0.5818 -0.3514
  668MOL0     H90150  -0.580   6.653  -0.019  0.0640  1.0746  1.1372
  668MOL0     H90151  -0.592   6.556   0.123  2.6642 -3.0929 -0.1552
  668MOL0     H90152  -0.779   6.576  -0.123 -0.3626  0.2627  0.2254
  668MOL0     H90153  -0.828   6.470   0.002  1.1982 -1.0845 -0.1064
  668MOL0     H90154  -0.830   6.787   0.036 -0.7250  0.8847  1.9137
  668MOL0     H90155  -0.818   6.672   0.170  2.8856 -3.9213 -0.8769
  668MOL0     H90156  -1.019   6.566   0.063 -0.4889  0.3463  2.0623
  668MOL0     H90157  -1.046   6.720   0.136 -0.1902 -0.8274 -0.2870
  668MOL0     H90158  -1.041   6.611  -0.151  2.2197 -1.2898  1.8392
  668MOL0     H90159  -0.993   6.787  -0.140 -0.1846  3.7431  3.7139
  668MOL0     H90160  -1.233   6.771  -0.208  0.4949 -2.4234 -0.8986
  668MOL0     H90161  -1.191   6.843  -0.063 -1.3063  0.7460 -2.3360
  668MOL0     H90162  -0.146   6.433   0.158  0.9807 -0.3248 -0.1390
  668MOL0     H90163   0.109   6.463   0.123  3.1340  2.6429 -0.8833
  668MOL0     H90164   0.386   6.717  -0.186  0.6515  0.5169 -0.6567
  668MOL0     H90165   0.624   6.790  -0.200  3.4060 -1.1015 -0.2593
  668MOL0     H90166   2.225   7.562  -0.201  0.2754 -2.6354  0.2530
  668MOL0     H90167   2.445   7.467  -0.197 -2.5470 -0.3008  2.0140
  668MOL0     H90168   2.879   7.536  -0.188  1.6214 -1.5109 -1.5289
  668MOL0     H90169   3.111   7.488  -0.211  1.5570  0.2095  0.6410
  668MOL0     H90170   3.345   7.396  -0.143  0.0796 -1.6731  5.7510
  668MOL0     H90171   3.333   7.582  -0.158  4.0684  1.6962 -0.2761
  668MOL0     H90172   3.560   7.476  -0.155  0.4754  1.8732 -0.0701
  668MOL0     H90173   3.509   7.400  -0.004  3.5456 -0.8555 -1.6019
  668MOL0     H90174   3.515   7.601   0.104 -2.3149 -0.2748 -0.5200
  668MOL0     H90175   3.486   7.704  -0.043  1.7797 -1.5012 -4.8338
  668MOL0     H90176   3.688   7.711  -0.107 -2.8286 -1.3361 -1.8366
  668MOL0     H90177   3.746   7.556  -0.027 -0.9306 -0.2646 -1.5451
  668MOL0     H90178   3.830   7.810   0.283 -1.3587 -0.5298  0.4801
  668MOL0     H90179   3.130   7.525   0.230 -1.3163 -0.8927  0.4370
  668MOL0     H90180   2.904   7.586   0.236  0.1554 -0.8545  1.1762
  669MOL0     O90181   0.490   0.793   9.091 -0.4754 -0.9842  0.3022
  669MOL0     C90182   0.486   0.915   9.108 -0.3803  0.2164 -1.4146
  669MOL0     O90183   0.370   0.990   9.121 -0.0105 -0.0443  0.4010
  669MOL0     C90184   0.251   0.921   9.124 -0.0768 -0.1141 -1.2997
  669MOL0     C90185   0.209   0.820   9.038 -0.1857  0.1486  0.5749
  669MOL0     C90186   0.091   0.752   9.062  0.0918  0.2706  0.1698
  669MOL0     C90187  -0.003   0.805   9.153  0.0493 -0.3880 -0.7565
  669MOL0     O90188  -0.124   0.742   9.164 -0.4901  0.3669 -0.1187
  669MOL0     C90189  -0.186   0.730   9.290 -0.0975 -0.4289  0.2056
  669MOL0     C90190  -0.342   0.753   9.286  0.4224  0.0213  0.1843
  669MOL0     C90191  -0.426   0.685   9.392  0.3030  1.1237 -0.4138
  669MOL0     C90192  -0.416   0.763   9.518 -0.2437 -0.7095  0.0149
  669MOL0     C90193  -0.528   0.720   9.615 -0.6411  0.2498 -0.3847
  669MOL0     C90194  -0.667   0.783   9.581 -0.3606  0.4764 -0.1148
  669MOL0     C90195  -0.768   0.728   9.682  0.8721 -1.1517 -0.4563
  669MOL0     C90196  -0.880   0.843   9.708 -0.5353  0.7491 -0.6532
  669MOL0     N90197  -0.968   0.821   9.822  0.3615  0.4339  0.0221
  669MOL0     C90198  -1.064   0.722   9.843 -0.2557 -0.3729 -0.1838
  669MOL0     C90199  -1.120   0.737   9.962 -0.9099 -0.3178  0.0100
  669MOL0     C90200  -1.231   0.653  10.021 -0.6711  0.2372 -0.1861
  669MOL0     C90201  -1.357   0.733  10.016  1.4646  0.0067 -0.1482
  669MOL0     C90202  -1.478   0.656  10.070  0.6826 -0.3689  0.4320
  669MOL0     C90203  -1.608   0.748  10.077 -0.3387 -0.2267 -0.8885
  669MOL0     O90204  -1.723   0.671  10.132  0.3980  0.5088 -0.3068
  669MOL0     C90205  -1.842   0.739  10.137  0.0051 -0.0412  0.5361
  669MOL0     C90206  -1.876   0.874  10.118 -0.5999 -0.4683  0.3103
  669MOL0     C90207  -2.012   0.921  10.118 -0.3412 -0.3986  0.1471
  669MOL0     C90208  -2.033   1.068  10.086  0.6334 -0.6144 -0.0800
  669MOL0     C90209  -2.114   0.827  10.144 -1.0135 -0.1331  0.6372
  669MOL0     C90210  -2.262   0.857  10.160  0.2861 -0.0712  0.4564
  669MOL0     O90211  -2.342   0.763  10.117  0.6937  0.1851  0.6879
  669MOL0     C90212  -2.475   0.765  10.141  0.3902 -0.2583 -0.2547
  669MOL0     C90213  -2.533   0.786  10.271  0.2607 -0.4012 -0.9652
  669MOL0     C90214  -2.674   0.779  10.281 -0.5090  0.2498 -0.4759
  669MOL0     C90215  -2.753   0.769  10.160  0.3580 -0.4449 -0.3665
  669MOL0     O90216  -2.891   0.778  10.173  0.0202 -0.9865 -0.5465
  669MOL0     C90217  -2.960   0.704  10.275  0.0099  0.0146  0.2516
  669MOL0     C90218  -3.083   0.792  10.313 -0.0644  0.4347 -0.4402
  669MOL0     C90219  -3.176   0.736  10.422 -0.5441 -0.4231 -0.1950
  669MOL0     C90220  -3.244   0.856  10.495  0.0342 -0.2006  0.0761
  669MOL0     C90221  -3.349   0.800  10.592  0.2604 -0.3760 -0.5182
  669MOL0     C90222  -3.446   0.903  10.652  0.1569  0.0335  0.1998
  669MOL0     C90223  -3.551   0.833  10.741  0.5577  0.7144  0.7465
  669MOL0     C90224  -3.669   0.921  10.783  0.1672  0.2386 -0.4361
  669MOL0    Cl90225  -3.782   0.941  10.653 -0.0178 -0.6215  0.1404
  669MOL0     C90226  -2.688   0.751  10.038  0.5753  0.4116 -0.5629
  669MOL0     C90227  -2.556   0.745  10.022 -0.0456  0.0284 -0.4774
  669MOL0     O90228  -2.297   0.967  10.210 -0.1590 -0.4043  0.1051
  669MOL0     C90229  -2.082   0.697  10.179 -0.5883  0.5712 -0.0683
  669MOL0     C90230  -1.948   0.657  10.177 -0.6331 -0.0263 -0.0749
  669MOL0     N90231  -1.063   0.852  10.012 -0.1364 -0.0095 -0.3882
  669MOL0     N90232  -0.979   0.908   9.932  0.8997 -0.0185 -0.6145
  669MOL0     C90233   0.027   0.925   9.215 -0.0444 -0.1285 -0.5418
  669MOL0     C90234   0.153   0.983   9.199 -0.2368 -0.0383 -0.3488
  669MOL0     C90235   0.616   0.989   9.105  0.7868  0.1809  1.4101
  669MOL0     C90236   0.606   1.135   9.093  0.4358 -0.4539  0.9934
  669MOL0     C90237   0.729   1.204   9.090  0.7984 -0.6986  0.0036
  669MOL0     C90238   0.851   1.135   9.106  0.2677  0.3124 -0.7839
  669MOL0     O90239   0.973   1.200   9.112 -0.2386 -0.3601  0.9156
  669MOL0     C90240   0.994   1.295   9.217 -0.0778  0.3675  0.0024
  669MOL0     C90241   1.008   1.229   9.354  0.2905 -0.0654 -0.2976
  669MOL0     C90242   1.107   1.118   9.365  0.1575  0.2790  0.4174
  669MOL0     C90243   1.246   1.180   9.360 -0.1750 -0.3126  0.6630
  669MOL0     C90244   1.298   1.192   9.222 -0.2646 -0.3510 -0.5988
  669MOL0     C90245   1.319   1.199   9.103 -1.1608 -0.1594  0.0461
  669MOL0     C90246   0.857   0.998   9.120 -0.3868  0.2134 -0.3335
  669MOL0     C90247   0.738   0.925   9.117  0.2903 -1.0789  0.5243
  669MOL0     H90248   0.265   0.783   8.953  0.2185  0.5885  0.6460
  669MOL0     H90249   0.055   0.662   9.013 -1.6181  2.7653 -3.6218
  669MOL0     H90250  -0.171   0.628   9.326  1.5779  0.7297  3.1909
  669MOL0     H90251  -0.151   0.801   9.366  0.6670  0.0114 -0.5435
  669MOL0     H90252  -0.362   0.860   9.297  2.5269  0.4277  0.5148
  669MOL0     H90253  -0.395   0.721   9.196  0.9387 -1.4549  0.3780
  669MOL0     H90254  -0.530   0.678   9.359  1.1425 -1.5495 -2.9036
  669MOL0     H90255  -0.392   0.583   9.412 -1.2453  0.1147 -2.5619
  669MOL0     H90256  -0.317   0.752   9.563  0.1610  0.0474 -0.6562
  669MOL0     H90257  -0.431   0.870   9.501  2.4427 -0.2942 -0.2888
  669MOL0     H90258  -0.531   0.610   9.613  1.5583  0.1294 -0.3637
  669MOL0     H90259  -0.496   0.741   9.717 -1.0996 -1.1963  0.0865
  669MOL0     H90260  -0.659   0.890   9.603  5.3819  0.0167  1.8486
  669MOL0     H90261  -0.714   0.763   9.485 -0.4564 -1.3676  0.2732
  669MOL0     H90262  -0.835   0.650   9.644 -0.5215 -2.4325  3.9672
  669MOL0     H90263  -0.729   0.713   9.783 -0.8024  1.0508  0.5986
  669MOL0     H90264  -0.958   0.844   9.632  1.1772 -2.5699 -2.6837
  669MOL0     H90265  -0.830   0.940   9.721  0.4420  0.2852 -0.8498
  669MOL0     H90266  -1.095   0.641   9.777  0.0501 -1.0552  0.5031
  669MOL0     H90267  -1.238   0.553   9.978  1.8480 -0.0648 -0.0719
  669MOL0     H90268  -1.198   0.626  10.122 -1.2226 -0.0896 -0.0930
  669MOL0     H90269  -1.374   0.760   9.912 -0.7216 -1.7032 -0.3124
  669MOL0     H90270  -1.346   0.827  10.071  2.1504  1.1977 -2.2238
  669MOL0     H90271  -1.461   0.609  10.168 -1.1607  1.9621  2.0163
  669MOL0     H90272  -1.500   0.567  10.010  0.3146 -0.8464  1.2500
  669MOL0     H90273  -1.620   0.783   9.974  2.2704  1.3851 -0.7279
  669MOL0     H90274  -1.593   0.834  10.143  1.5498 -1.6747  0.6820
  669MOL0     H90275  -1.801   0.952  10.109  0.4615 -1.3567  1.1771
  669MOL0     H90276  -2.002   1.137  10.165 -2.5770  0.4575  0.3980
  669MOL0     H90277  -1.971   1.091   9.998  0.4678 -1.6304 -0.4701
  669MOL0     H90278  -2.138   1.085  10.062  0.5797 -0.3052  0.3755
  669MOL0     H90279  -2.465   0.807  10.352  1.8558 -0.5291 -2.2246
  669MOL0     H90280  -2.705   0.788  10.384  2.0599  2.2401  0.2242
  669MOL0     H90281  -3.008   0.613  10.238  0.0836  0.4950 -1.0810
  669MOL0     H90282  -2.909   0.678  10.368 -3.9909 -0.5465  2.4988
  669MOL0     H90283  -3.044   0.887  10.350  1.5927 -0.7726  1.0710
  669MOL0     H90284  -3.143   0.800  10.222 -0.1155 -2.2923 -0.7483
  669MOL0     H90285  -3.117   0.678  10.493  1.7416  0.0595 -1.5930
  669MOL0     H90286  -3.254   0.682  10.368 -0.1752  0.9473 -2.2537
  669MOL0     H90287  -3.179   0.923  10.552  0.8735 -2.1165  1.4802
  669MOL0     H90288  -3.300   0.924  10.430 -0.8157 -0.1938  0.7851
  669MOL0     H90289  -3.293   0.768  10.679  0.0656 -0.0637 -0.2753
  669MOL0     H90290  -3.408   0.718  10.549 -1.1975  0.0490  0.6092
  669MOL0     H90291  -3.392   0.974  10.715 -0.7737  0.5232  0.4684
  669MOL0     H90292  -3.513   0.959  10.586 -1.4924 -0.6034  1.2800
  669MOL0     H90293  -3.503   0.800  10.833 -0.9633  0.5129  1.5084
  669MOL0     H90294  -3.590   0.745  10.690  1.1289 -0.0530  1.6028
  669MOL0     H90295  -3.633   1.011  10.833  0.9032 -1.5685  2.5853
  669MOL0     H90296  -3.727   0.867  10.858  0.5346  0.9027  0.3477
  669MOL0     H90297  -2.741   0.733   9.945 -0.5422 -3.4695  0.6584
  669MOL0     H90298  -2.509   0.736   9.924  0.9378  0.4717 -0.0584
  669MOL0     H90299  -2.155   0.622  10.205  0.8430 -0.6470  0.6102
  669MOL0     H90300  -1.921   0.554  10.194 -0.9797 -0.2176 -0.6422
  669MOL0     H90301  -0.038   0.967   9.291  0.5689 -2.5881  1.4668
  669MOL0     H90302   0.193   1.072   9.246 -0.2524  0.9664 -2.1493
  669MOL0     H90303   0.509   1.182   9.077  1.2721  2.1254  2.7287
  669MOL0     H90304   0.719   1.311   9.073  0.5964 -0.6776  0.2589
  669MOL0     H90305   1.079   1.357   9.187 -0.1923 -0.4688 -2.2795
  669MOL0     H90306   0.911   1.365   9.228  0.4400  1.1519 -0.9239
  669MOL0     H90307   0.909   1.187   9.377 -1.1174  2.7838 -0.6708
  669MOL0     H90308   1.022   1.307   9.430 -2.9287  1.1663 -0.7836
  669MOL0     H90309   1.089   1.038   9.291 -1.3269  1.6028 -0.7275
  669MOL0     H90310   1.081   1.066   9.458  1.6184 -2.1229 -0.4352
  669MOL0     H90311   1.323   1.122   9.412  3.8098  2.1265 -1.9882
  669MOL0     H90312   1.256   1.274   9.415  2.2479  0.3944 -0.8723
  669MOL0     H90313   1.345   1.208   8.999 -0.3344  1.9534  0.3789
  669MOL0     H90314   0.947   0.938   9.116 -0.5999 -0.2664  1.5557
  669MOL0     H90315   0.732   0.816   9.121  2.7955 -1.2723  0.8959
  670MOL0     O90316   2.019   5.405   9.709  0.2414 -0.5565  0.0672
  670MOL0     C90317   2.065   5.436   9.595  0.8034  0.5087 -0.1941
  670MOL0     O90318   1.990   5.464   9.487 -0.1811 -0.3107  0.1732
  670MOL0     C90319   1.855   5.470   9.486 -0.6958  0.9405 -0.4548
  670MOL0     C90320   1.790   5.441   9.363  0.4864  0.5384  1.0600
  670MOL0     C90321   1.645   5.450   9.351 -0.7787 -0.4657 -0.1320
  670MOL0     C90322   1.566   5.501   9.457 -1.0867  0.5156  1.1157
  670MOL0     O90323   1.439   5.540   9.440  0.2886  0.3479  0.4627
  670MOL0     C90324   1.426   5.684   9.425  0.0756  0.0058 -0.2093
  670MOL0     C90325   1.319   5.695   9.310  0.8224  0.2286  0.5103
  670MOL0     C90326   1.360   5.631   9.178 -0.7007 -1.2869  1.1384
  670MOL0     C90327   1.269   5.687   9.070 -0.1592  0.2366 -0.2095
  670MOL0     C90328   1.314   5.643   8.942 -0.6442 -0.2383  0.7812
  670MOL0     C90329   1.203   5.621   8.833 -1.0765  0.2585 -0.3978
  670MOL0     C90330   1.254   5.673   8.700 -0.2861 -0.0284 -0.1149
  670MOL0     C90331   1.176   5.635   8.567  0.0397 -0.2005 -0.0830
  670MOL0     N90332   1.034   5.615   8.598  0.1540  0.1245 -0.1503
  670MOL0     C90333   0.940   5.698   8.541  0.0173  0.1640  0.1736
  670MOL0     C90334   0.821   5.624   8.551 -0.7164  0.2174 -0.1518
  670MOL0     C90335   0.683   5.656   8.505  0.5555  0.6213 -1.2848
  670MOL0     C90336   0.625   5.780   8.568 -0.2787 -0.0022 -0.3094
  670MOL0     C90337   0.587   5.758   8.715  0.8118 -0.0561 -0.3418
  670MOL0     C90338   0.507   5.874   8.777 -0.3320 -0.1403 -0.4974
  670MOL0     O90339   0.379   5.890   8.716  1.3673 -0.3286 -0.2815
  670MOL0     C90340   0.265   5.813   8.752 -0.5213  0.3107 -0.3526
  670MOL0     C90341   0.259   5.712   8.837 -0.0675 -0.0497  0.9169
  670MOL0     C90342   0.142   5.642   8.866  0.2506 -0.8446 -0.0504
  670MOL0     C90343   0.153   5.546   8.983  1.0957  0.4994  0.0164
  670MOL0     C90344   0.013   5.678   8.795  0.4198  0.1848 -0.3633
  670MOL0     C90345  -0.123   5.620   8.820 -0.6852  0.1912  0.1559
  670MOL0     O90346  -0.216   5.667   8.740 -0.0579  0.0281  0.3415
  670MOL0     C90347  -0.346   5.679   8.772 -0.6597  0.6070 -0.3448
  670MOL0     C90348  -0.386   5.690   8.900  0.0712 -0.4001 -0.2598
  670MOL0     C90349  -0.524   5.680   8.935  0.2448  0.9546 -0.5437
  670MOL0     C90350  -0.620   5.669   8.835 -0.1661  0.2114 -0.6644
  670MOL0     O90351  -0.747   5.656   8.877  0.4097 -0.7517 -0.0759
  670MOL0     C90352  -0.846   5.615   8.789 -0.5665  1.3121  0.1532
  670MOL0     C90353  -0.829   5.462   8.757  0.6294  0.0948  0.2918
  670MOL0     C90354  -0.960   5.407   8.698  0.2799  0.5286 -0.4674
  670MOL0     C90355  -0.957   5.258   8.670 -1.0627  0.4511 -0.1870
  670MOL0     C90356  -1.064   5.224   8.565  0.8259  0.1360 -0.2884
  670MOL0     C90357  -1.206   5.193   8.621  0.0659 -0.2144  0.3997
  670MOL0     C90358  -1.305   5.159   8.513 -0.0558 -0.4662 -0.2402
  670MOL0     C90359  -1.449   5.183   8.546 -0.2136  0.1092 -0.5917
  670MOL0    Cl90360  -1.522   5.082   8.681  0.1672  0.3742  0.1708
  670MOL0     C90361  -0.571   5.661   8.701 -0.1416  0.1687  0.0984
  670MOL0     C90362  -0.434   5.669   8.669  0.1851 -0.0633 -0.8272
  670MOL0     O90363  -0.136   5.548   8.913 -0.0627  0.3905  0.1993
  670MOL0     C90364   0.028   5.773   8.699 -0.6472 -0.1555 -0.2768
  670MOL0     C90365   0.151   5.839   8.679 -0.3568 -0.1877 -0.7005
  670MOL0     N90366   0.846   5.521   8.641  0.3996  0.6799 -0.5450
  670MOL0     N90367   0.971   5.518   8.668  0.3601  0.5988 -0.4545
  670MOL0     C90368   1.627   5.508   9.584 -0.2077 -0.1061 -0.5724
  670MOL0     C90369   1.770   5.494   9.596 -0.2141  0.0082 -0.1944
  670MOL0     C90370   2.197   5.442   9.576 -0.9348 -0.1912  0.0254
  670MOL0     C90371   2.256   5.500   9.467  0.0822  0.2327  0.0211
  670MOL0     C90372   2.395   5.506   9.459  0.1747  0.1145 -0.7176
  670MOL0     C90373   2.481   5.460   9.565  0.3110 -0.1335  0.2350
  670MOL0     O90374   2.621   5.445   9.562  0.6732 -0.6757  0.1233
  670MOL0     C90375   2.703   5.533   9.477  0.7627  0.2998  0.1394
  670MOL0     C90376   2.733   5.475   9.334 -0.4144  0.1591 -0.3795
  670MOL0     C90377   2.854   5.383   9.338  0.6116  0.5886 -0.1185
  670MOL0     C90378   2.893   5.355   9.191  0.1254  0.6515  0.3789
  670MOL0     C90379   3.036   5.311   9.190  0.0327 -0.2184 -0.2085
  670MOL0     C90380   3.150   5.274   9.189 -0.4323 -1.2564 -0.0440
  670MOL0     C90381   2.422   5.415   9.675 -0.1949 -0.3370  0.2454
  670MOL0     C90382   2.280   5.400   9.683  0.2196 -1.4617  0.1422
  670MOL0     H90383   1.839   5.407   9.273 -2.7990  2.1083 -1.5300
  670MOL0     H90384   1.604   5.432   9.252 -1.8531  1.1194 -0.0266
  670MOL0     H90385   1.393   5.718   9.523  1.5487 -1.7524  0.9596
  670MOL0     H90386   1.522   5.730   9.397  1.9991 -2.0628  2.4737
  670MOL0     H90387   1.232   5.641   9.348  0.8856  0.5018  1.0409
  670MOL0     H90388   1.297   5.800   9.290 -3.9158 -0.7022 -0.4409
  670MOL0     H90389   1.467   5.636   9.156 -0.6991 -2.7901  0.6818
  670MOL0     H90390   1.356   5.522   9.169  1.2437 -1.2545 -1.2431
  670MOL0     H90391   1.166   5.659   9.096 -0.0384 -0.9948 -0.9902
  670MOL0     H90392   1.269   5.797   9.075 -1.5730  0.1967  2.0557
  670MOL0     H90393   1.382   5.720   8.908  0.1011 -1.2380 -0.0718
  670MOL0     H90394   1.372   5.550   8.944 -1.2588 -0.7322 -1.3844
  670MOL0     H90395   1.169   5.518   8.825 -4.3790  1.0868  1.2944
  670MOL0     H90396   1.109   5.673   8.852 -0.1424  2.7266 -2.0370
  670MOL0     H90397   1.260   5.782   8.703 -2.4503  0.2852 -2.8370
  670MOL0     H90398   1.357   5.640   8.684 -0.0003  0.8313 -0.1074
  670MOL0     H90399   1.223   5.539   8.544  1.0150  0.1440  0.4058
  670MOL0     H90400   1.196   5.696   8.479  0.5698  1.4516  1.1194
  670MOL0     H90401   0.946   5.793   8.489  0.9002 -0.6987 -1.3984
  670MOL0     H90402   0.674   5.660   8.396 -2.2436 -2.4667 -1.3434
  670MOL0     H90403   0.607   5.580   8.526 -1.0344  1.8366 -2.3459
  670MOL0     H90404   0.534   5.799   8.509 -0.2059 -1.5719 -0.9778
  670MOL0     H90405   0.697   5.859   8.548  0.5638 -1.0919 -1.7811
  670MOL0     H90406   0.677   5.742   8.776 -0.0947  0.9882  1.3574
  670MOL0     H90407   0.526   5.670   8.736  0.2701  0.9175  2.6899
  670MOL0     H90408   0.568   5.962   8.753  0.9360 -0.8447  0.0182
  670MOL0     H90409   0.490   5.848   8.882 -1.4230  1.0804 -0.3573
  670MOL0     H90410   0.351   5.687   8.889  0.5013 -0.8310 -0.4201
  670MOL0     H90411   0.087   5.466   8.949  2.6444  0.2290 -2.5915
  670MOL0     H90412   0.252   5.499   8.991 -0.5142 -3.8021 -2.0055
  670MOL0     H90413   0.113   5.584   9.077 -2.2867  3.2877 -2.3097
  670MOL0     H90414  -0.313   5.710   8.979 -0.4363  1.4369 -0.2164
  670MOL0     H90415  -0.555   5.687   9.039 -0.1018 -1.7597 -0.3913
  670MOL0     H90416  -0.946   5.629   8.832 -1.9739 -0.4060 -2.3230
  670MOL0     H90417  -0.857   5.671   8.696  1.1059  0.6732 -0.4713
  670MOL0     H90418  -0.746   5.452   8.686  1.3758  1.0609  1.0038
  670MOL0     H90419  -0.801   5.415   8.852  2.7356  1.9548  0.6699
  670MOL0     H90420  -0.975   5.469   8.610  1.6403  2.9440  0.8936
  670MOL0     H90421  -1.036   5.419   8.776 -0.4972 -2.2366 -0.6853
  670MOL0     H90422  -0.862   5.230   8.624  0.4183  1.4144  2.1009
  670MOL0     H90423  -0.953   5.189   8.755 -1.5878  1.8160  0.9901
  670MOL0     H90424  -1.027   5.134   8.515  1.2773  0.1066  0.0953
  670MOL0     H90425  -1.064   5.300   8.486  3.4534 -1.6284 -2.1377
  670MOL0     H90426  -1.205   5.118   8.701  0.6441 -0.3202  0.2956
  670MOL0     H90427  -1.239   5.277   8.683 -0.3812 -0.3062  0.2920
  670MOL0     H90428  -1.302   5.053   8.487 -0.5330 -0.6511  0.4417
  670MOL0     H90429  -1.288   5.216   8.422 -1.2983 -1.5883 -1.1966
  670MOL0     H90430  -1.499   5.165   8.450  1.0410 -1.6509 -0.9599
  670MOL0     H90431  -1.455   5.286   8.583  1.9189  0.5285 -1.2879
  670MOL0     H90432  -0.634   5.652   8.613  0.9548  0.0834 -0.6936
  670MOL0     H90433  -0.408   5.657   8.564 -2.3365 -2.6552 -1.3010
  670MOL0     H90434  -0.052   5.812   8.637 -2.4465  0.4283  2.2744
  670MOL0     H90435   0.154   5.914   8.601  2.5404  0.1488 -0.3598
  670MOL0     H90436   1.556   5.535   9.660 -2.2206 -1.8031 -1.7393
  670MOL0     H90437   1.804   5.519   9.696 -1.5038  1.4504 -0.0875
  670MOL0     H90438   2.195   5.554   9.395  0.6282  1.5472  0.4998
  670MOL0     H90439   2.433   5.540   9.363 -1.3001 -1.1023 -1.7787
  670MOL0     H90440   2.669   5.636   9.468  0.0848  0.0995  0.2806
  670MOL0     H90441   2.792   5.559   9.534  1.4812  3.9159 -2.3396
  670MOL0     H90442   2.758   5.567   9.279  0.9225  3.0007  4.3489
  670MOL0     H90443   2.648   5.426   9.285  1.3472 -1.1302 -2.2936
  670MOL0     H90444   2.827   5.290   9.390  2.0019 -0.7812 -1.6988
  670MOL0     H90445   2.936   5.427   9.396  0.4158 -2.4052  2.6951
  670MOL0     H90446   2.888   5.444   9.127  2.2051 -1.2336 -2.7004
  670MOL0     H90447   2.837   5.268   9.155  3.4324 -1.7161  0.5331
  670MOL0     H90448   3.248   5.232   9.198 -0.4276 -1.3046 -0.3139
  670MOL0     H90449   2.492   5.394   9.755  0.0803  1.9082  0.6510
  670MOL0     H90450   2.242   5.369   9.780 -0.4669 -0.1388  0.3111
  671MOL0     O90451   3.604   6.316   5.488 -0.7434  0.5752  0.5850
  671MOL0     C90452   3.613   6.340   5.363 -0.3499  0.6552  0.5207
  671MOL0     O90453   3.513   6.356   5.277 -0.4781  0.4221  0.3040
  671MOL0     C90454   3.382   6.361   5.311  0.1739  0.2412 -0.5424
  671MOL0     C90455   3.327   6.291   5.422 -0.2460  0.8717  0.3325
  671MOL0     C90456   3.193   6.291   5.448  0.6388  1.0321  0.6980
  671MOL0     C90457   3.096   6.359   5.366 -0.3371 -0.9112  0.7190
  671MOL0     O90458   2.965   6.376   5.390 -0.1836 -0.5769  0.3303
  671MOL0     C90459   2.889   6.268   5.440 -1.0125 -0.3991  0.8915
  671MOL0     C90460   2.741   6.273   5.386 -0.2818  0.4252 -0.4992
  671MOL0     C90461   2.740   6.298   5.233  0.0095  0.5526 -0.4160
  671MOL0     C90462   2.587   6.315   5.198 -0.6132 -0.3066  0.1265
  671MOL0     C90463   2.566   6.330   5.044  0.0507  0.5073 -0.4358
  671MOL0     C90464   2.425   6.373   5.012  0.8470 -0.5153 -0.3345
  671MOL0     C90465   2.388   6.399   4.867 -0.0298  0.2665  0.3456
  671MOL0     C90466   2.371   6.545   4.834 -0.8778 -1.5946 -0.8062
  671MOL0     N90467   2.234   6.595   4.851 -0.0069 -0.4823  0.4220
  671MOL0     C90468   2.178   6.649   4.969  0.6346  0.2264  0.6682
  671MOL0     C90469   2.049   6.659   4.932 -0.1184  0.3559  0.2501
  671MOL0     C90470   1.952   6.705   5.036  0.0462  0.7865  0.6884
  671MOL0     C90471   1.808   6.735   4.997 -0.6759 -0.1698  0.9168
  671MOL0     C90472   1.711   6.772   5.114 -0.1746 -0.0599  0.0588
  671MOL0     C90473   1.625   6.667   5.178  0.2446  0.6163 -0.2550
  671MOL0     O90474   1.525   6.642   5.077 -0.4764  0.2993  0.6512
  671MOL0     C90475   1.404   6.586   5.107 -0.2419  0.0281  0.0170
  671MOL0     C90476   1.329   6.563   4.993 -0.2923  0.4932  0.1900
  671MOL0     C90477   1.199   6.516   5.004 -0.8607 -0.1338 -0.3808
  671MOL0     C90478   1.123   6.515   4.871 -0.5132 -0.1786  0.3447
  671MOL0     C90479   1.145   6.479   5.134 -0.0173  0.4767 -0.2710
  671MOL0     C90480   1.008   6.434   5.149 -0.6818  0.0797  0.1328
  671MOL0     O90481   0.931   6.391   5.037  0.2159 -0.1833  0.1565
  671MOL0     C90482   0.795   6.376   5.057 -0.4657  0.7000  0.1974
  671MOL0     C90483   0.710   6.481   5.024  0.0392 -0.4146 -0.0244
  671MOL0     C90484   0.573   6.456   5.042 -0.2397 -0.2469  0.7652
  671MOL0     C90485   0.513   6.342   5.092 -0.8771 -0.1427  0.1682
  671MOL0     O90486   0.380   6.341   5.108 -0.2537 -0.9905 -1.1342
  671MOL0     C90487   0.315   6.215   5.139 -0.1324 -0.2238  0.4440
  671MOL0     C90488   0.171   6.250   5.162  0.1746  0.5043  0.6147
  671MOL0     C90489   0.078   6.145   5.123  0.5172  0.4930 -0.4819
  671MOL0     C90490  -0.069   6.192   5.127  0.8293 -0.1067  0.3901
  671MOL0     C90491  -0.161   6.069   5.140  0.4460 -0.0033  0.4805
  671MOL0     C90492  -0.304   6.111   5.157 -0.0586 -0.5353 -0.0682
  671MOL0     C90493  -0.394   5.992   5.201 -0.2620  0.3141 -0.2092
  671MOL0     C90494  -0.536   6.047   5.232  0.4732  0.6153  0.5378
  671MOL0    Cl90495  -0.528   6.152   5.377 -0.1188  0.0117 -0.1676
  671MOL0     C90496   0.603   6.238   5.108  0.2806  0.6665  0.4010
  671MOL0     C90497   0.746   6.252   5.107 -0.4775 -0.3567  0.7094
  671MOL0     O90498   0.964   6.438   5.261  0.7900  0.0609 -0.2318
  671MOL0     C90499   1.231   6.492   5.247  0.0827  0.8407 -0.2841
  671MOL0     C90500   1.364   6.536   5.232  0.5776 -0.4855  0.1364
  671MOL0     N90501   2.031   6.619   4.802 -0.1206  0.2558 -0.7523
  671MOL0     N90502   2.138   6.569   4.755  0.9925  0.0372 -0.9289
  671MOL0     C90503   3.151   6.437   5.259 -0.1313  0.2657  0.3012
  671MOL0     C90504   3.291   6.434   5.224 -0.6602 -0.5389  0.1479
  671MOL0     C90505   3.742   6.346   5.297 -0.1935 -0.3892  0.6151
  671MOL0     C90506   3.862   6.327   5.374 -0.2162 -0.4348  0.1132
  671MOL0     C90507   3.989   6.337   5.321  0.0203  0.0845  0.5941
  671MOL0     C90508   4.001   6.395   5.196  0.0127 -0.3873 -0.4802
  671MOL0     O90509   4.120   6.429   5.130  0.5492 -0.7219 -0.3512
  671MOL0     C90510   4.236   6.390   5.192  0.5769  0.0373  0.8197
  671MOL0     C90511   4.362   6.404   5.103  0.5290  0.9864  0.2066
  671MOL0     C90512   4.350   6.298   4.983 -0.0509  0.4286  0.0964
  671MOL0     C90513   4.270   6.320   4.856 -0.0714 -0.2301 -0.2222
  671MOL0     C90514   4.304   6.447   4.796  1.2104 -0.2174 -0.6183
  671MOL0     C90515   4.328   6.545   4.736 -0.6103  0.3235 -0.1408
  671MOL0     C90516   3.887   6.431   5.123  0.7172  0.0025  0.1032
  671MOL0     C90517   3.758   6.391   5.167 -0.0463 -0.1206  0.8683
  671MOL0     H90518   3.383   6.224   5.485 -0.4622  1.5200  1.2278
  671MOL0     H90519   3.150   6.237   5.532  1.9881 -0.6012  0.3821
  671MOL0     H90520   2.934   6.177   5.400 -1.4804  0.3417 -1.4756
  671MOL0     H90521   2.906   6.267   5.548  0.2501 -0.5982  0.7006
  671MOL0     H90522   2.702   6.171   5.399 -1.6738  0.5147 -3.3105
  671MOL0     H90523   2.675   6.342   5.439  1.2582  0.3941  1.5993
  671MOL0     H90524   2.791   6.390   5.202  1.2601 -0.3011 -0.9470
  671MOL0     H90525   2.776   6.207   5.184 -1.0613  0.5996 -1.3368
  671MOL0     H90526   2.541   6.227   5.243  1.6490 -0.0618  3.2238
  671MOL0     H90527   2.551   6.412   5.235 -4.1207 -0.4151 -2.4009
  671MOL0     H90528   2.617   6.424   5.022 -0.1642  0.2076 -2.3532
  671MOL0     H90529   2.601   6.246   4.984  1.4312 -0.7414  1.9288
  671MOL0     H90530   2.363   6.285   5.029 -1.0432  1.0246  1.3987
  671MOL0     H90531   2.387   6.453   5.077 -0.0404 -0.7797 -0.5050
  671MOL0     H90532   2.466   6.352   4.805  2.3391  0.9724  2.6078
  671MOL0     H90533   2.291   6.352   4.850 -0.6439  2.0466 -1.5077
  671MOL0     H90534   2.398   6.565   4.730 -0.8093 -0.4801 -0.5797
  671MOL0     H90535   2.441   6.600   4.897 -1.3483  0.2150 -1.8038
  671MOL0     H90536   2.228   6.678   5.061 -0.8386 -2.9482  2.6640
  671MOL0     H90537   1.947   6.618   5.102  2.3836 -1.3057 -1.6644
  671MOL0     H90538   1.992   6.787   5.096 -1.3392  0.7310  1.7615
  671MOL0     H90539   1.762   6.645   4.955 -2.3610  0.6015  1.0463
  671MOL0     H90540   1.804   6.815   4.922  1.5531 -1.2593 -0.4858
  671MOL0     H90541   1.651   6.856   5.078  0.3456 -1.4502 -4.6709
  671MOL0     H90542   1.768   6.808   5.201 -0.0603  1.2168 -0.5231
  671MOL0     H90543   1.582   6.698   5.274  0.5221 -0.9959  0.4203
  671MOL0     H90544   1.683   6.578   5.204  0.3591  1.8529  4.7895
  671MOL0     H90545   1.378   6.593   4.901 -0.1724  1.6061  0.6047
  671MOL0     H90546   1.023   6.559   4.878 -0.9281 -1.2771  2.0563
  671MOL0     H90547   1.166   6.565   4.784 -1.0661 -2.2588 -1.2017
  671MOL0     H90548   1.104   6.417   4.828  1.9914 -0.6912  0.3119
  671MOL0     H90549   0.744   6.579   4.992 -2.1573  0.9741  1.6118
  671MOL0     H90550   0.508   6.538   5.013  0.3043 -0.2320 -0.5027
  671MOL0     H90551   0.318   6.141   5.058 -1.0872 -1.0928  1.1815
  671MOL0     H90552   0.364   6.174   5.228  2.1412  1.8133  0.2396
  671MOL0     H90553   0.157   6.279   5.267 -1.3226  2.3762 -0.0389
  671MOL0     H90554   0.137   6.341   5.111  0.2509  0.0181 -0.3226
  671MOL0     H90555   0.085   6.059   5.190 -0.3895  0.5097 -0.3486
  671MOL0     H90556   0.103   6.128   5.018 -0.7272  2.3498 -1.1456
  671MOL0     H90557  -0.086   6.248   5.219  0.0908  1.4866 -0.6691
  671MOL0     H90558  -0.101   6.255   5.043  0.8184  0.2501  0.6580
  671MOL0     H90559  -0.136   6.015   5.232 -1.3893  1.0020  1.6294
  671MOL0     H90560  -0.154   6.002   5.054  0.3392 -1.3250  1.4662
  671MOL0     H90561  -0.319   6.198   5.222 -0.8862  0.6417 -1.7411
  671MOL0     H90562  -0.336   6.135   5.056  2.1881  0.7722 -0.5497
  671MOL0     H90563  -0.344   5.947   5.288 -1.3710 -1.4729 -0.4316
  671MOL0     H90564  -0.405   5.920   5.119  2.8531 -2.4898  1.5820
  671MOL0     H90565  -0.596   5.958   5.254  0.9351  0.6468  1.9857
  671MOL0     H90566  -0.582   6.095   5.145  1.6365  2.2388  0.7840
  671MOL0     H90567   0.569   6.136   5.119 -0.0889  0.8030  0.5418
  671MOL0     H90568   0.814   6.170   5.130 -2.5634 -1.1436  5.0735
  671MOL0     H90569   1.196   6.455   5.343 -0.7943  1.4301 -0.3558
  671MOL0     H90570   1.443   6.540   5.306  0.2630  1.5869  0.4157
  671MOL0     H90571   3.091   6.504   5.198  3.9036  3.0418 -1.0092
  671MOL0     H90572   3.332   6.496   5.145  2.2211 -0.8841  1.2706
  671MOL0     H90573   3.851   6.295   5.477 -1.9585  3.6921  1.4089
  671MOL0     H90574   4.072   6.309   5.386  0.3004 -0.5919 -0.0439
  671MOL0     H90575   4.236   6.454   5.281 -0.7970 -0.0597  0.9090
  671MOL0     H90576   4.236   6.287   5.227 -0.7669 -0.1337  0.3773
  671MOL0     H90577   4.438   6.362   5.170 -1.3555 -1.4518  0.9368
  671MOL0     H90578   4.382   6.508   5.074  0.0979  0.3787 -2.5378
  671MOL0     H90579   4.326   6.200   5.025  0.7174  0.8662  1.6616
  671MOL0     H90580   4.452   6.296   4.943  0.9302  4.3269  1.9296
  671MOL0     H90581   4.165   6.324   4.885 -0.1252 -1.2306 -0.2503
  671MOL0     H90582   4.285   6.233   4.792  2.5743 -1.1267  1.4374
  671MOL0     H90583   4.359   6.634   4.687 -1.7745  1.8241  1.6888
  671MOL0     H90584   3.899   6.490   5.033 -4.4555  1.4338  0.0043
  671MOL0     H90585   3.674   6.412   5.101 -0.4808  1.2192  1.7750
  672MOL0     O90586   3.907   6.999   9.240 -0.5631  0.2016 -1.0016
  672MOL0     C90587   3.987   6.919   9.195 -0.6772  0.0489 -0.1684
  672MOL0     O90588   3.989   6.788   9.227 -0.2516 -0.4532 -0.8189
  672MOL0     C90589   3.885   6.747   9.311  0.0660  0.7301 -0.3523
  672MOL0     C90590   3.752   6.739   9.270  0.1795  0.1977 -0.5096
  672MOL0     C90591   3.648   6.721   9.361  0.4608 -0.0729 -0.8974
  672MOL0     C90592   3.669   6.685   9.494 -0.3991 -0.0622  0.4965
  672MOL0     O90593   3.561   6.624   9.557  0.1232  0.1250  0.3152
  672MOL0     C90594   3.576   6.489   9.598 -1.0466  0.2512  0.8116
  672MOL0     C90595   3.460   6.445   9.678  0.3848 -0.0482  0.1290
  672MOL0     C90596   3.480   6.469   9.826  0.3766 -0.0960 -0.6202
  672MOL0     C90597   3.358   6.441   9.915  0.1990 -0.0858  0.6330
  672MOL0     C90598   3.238   6.538   9.896  0.0715  0.1465  0.0775
  672MOL0     C90599   3.134   6.541  10.012 -0.5445 -0.3292  0.5502
  672MOL0     C90600   3.034   6.650   9.971  0.2003 -0.0027 -0.7132
  672MOL0     C90601   2.916   6.649  10.070 -0.1413 -1.0602  0.6416
  672MOL0     N90602   2.817   6.744  10.028 -0.1290  0.0079 -0.4424
  672MOL0     C90603   2.717   6.711   9.943  0.3031  0.9529 -0.7048
  672MOL0     C90604   2.661   6.826   9.910  0.4125 -0.4739 -0.3721
  672MOL0     C90605   2.535   6.836   9.831 -0.0216 -0.3638 -0.3566
  672MOL0     C90606   2.412   6.790   9.913  0.2246  0.3495  0.1839
  672MOL0     C90607   2.386   6.867  10.038  0.1306  0.2022 -0.8727
  672MOL0     C90608   2.236   6.847  10.082  0.1999 -0.5111 -0.1812
  672MOL0     O90609   2.157   6.928   9.996  0.2700 -0.0882  0.0251
  672MOL0     C90610   2.025   6.901   9.993 -0.9060  0.5969 -0.7748
  672MOL0     C90611   1.956   6.854  10.101  0.1648 -0.8459  0.3738
  672MOL0     C90612   1.812   6.838  10.099 -0.7238  0.3206  0.3169
  672MOL0     C90613   1.736   6.804  10.225  0.7723 -0.4947 -0.7712
  672MOL0     C90614   1.742   6.875   9.980  0.0865 -0.2006  0.2535
  672MOL0     C90615   1.598   6.864   9.963  0.2601  0.4602 -0.0303
  672MOL0     O90616   1.534   6.954   9.895 -0.5969  0.0070  0.2738
  672MOL0     C90617   1.400   6.946   9.877  0.6460 -0.2219 -0.1355
  672MOL0     C90618   1.312   6.990   9.986  0.1613  0.5054  0.3318
  672MOL0     C90619   1.177   6.993   9.970 -0.6076 -0.4696 -0.6952
  672MOL0     C90620   1.126   6.935   9.853 -0.4809 -0.1428 -0.0106
  672MOL0     O90621   0.996   6.903   9.830  0.6247  0.1948  0.5918
  672MOL0     C90622   0.902   6.978   9.900  0.6666 -0.6539  0.5758
  672MOL0     C90623   0.770   6.973   9.829  0.5441 -0.0246 -0.3380
  672MOL0     C90624   0.650   7.035   9.895 -0.2535  0.3092  0.3175
  672MOL0     C90625   0.535   7.039   9.796 -0.5436 -0.2750  0.2411
  672MOL0     C90626   0.412   7.102   9.854  0.2894 -0.0065 -0.8364
  672MOL0     C90627   0.277   7.081   9.775 -0.7632 -0.6105 -1.1964
  672MOL0     C90628   0.285   7.147   9.639  0.2049  0.1718  1.3447
  672MOL0     C90629   0.158   7.139   9.559 -0.2675 -0.5163 -0.6055
  672MOL0    Cl90630   0.129   6.966   9.523 -0.1306  0.3874 -0.3434
  672MOL0     C90631   1.205   6.901   9.748 -0.1589 -0.5719 -0.4134
  672MOL0     C90632   1.340   6.909   9.756 -0.3895  0.4280  0.3849
  672MOL0     O90633   1.554   6.754   9.992 -0.0304 -0.1696  0.5652
  672MOL0     C90634   1.818   6.929   9.875  0.2668 -0.3522 -0.6253
  672MOL0     C90635   1.954   6.940   9.879 -0.0252 -0.2376 -0.2504
  672MOL0     N90636   2.721   6.929   9.985 -1.1542 -0.1797 -0.3684
  672MOL0     N90637   2.820   6.877  10.042 -0.0938 -0.4783 -0.3875
  672MOL0     C90638   3.800   6.691   9.538  0.5054 -0.2127 -0.5767
  672MOL0     C90639   3.906   6.719   9.451  0.6528 -0.7768 -0.2795
  672MOL0     C90640   4.095   6.962   9.105  0.6775  0.8187  0.1555
  672MOL0     C90641   4.199   6.884   9.063 -0.4944  0.5839  0.4301
  672MOL0     C90642   4.296   6.931   8.973  0.3330  0.0306 -0.2408
  672MOL0     C90643   4.291   7.061   8.926 -0.3258  1.1315  0.4098
  672MOL0     O90644   4.385   7.097   8.833  0.4580 -0.7153 -0.4646
  672MOL0     C90645   4.393   7.240   8.776 -0.1828  0.1887  0.3792
  672MOL0     C90646   4.533   7.257   8.720  0.6567 -0.4359  0.1940
  672MOL0     C90647   4.564   7.406   8.675 -0.6915 -0.3525 -1.2234
  672MOL0     C90648   4.688   7.426   8.587  0.0530  0.3484  0.0221
  672MOL0     C90649   4.810   7.384   8.659  0.4227  0.1471 -0.1811
  672MOL0     C90650   4.897   7.321   8.714  0.7069  0.1839  0.0056
  672MOL0     C90651   4.204   7.151   8.982  0.4048 -0.1939  0.3399
  672MOL0     C90652   4.104   7.099   9.069  0.3108 -0.2824  0.2564
  672MOL0     H90653   3.744   6.758   9.163  0.1285  2.0128 -0.2183
  672MOL0     H90654   3.544   6.730   9.330  0.2163 -1.6038 -0.6297
  672MOL0     H90655   3.578   6.423   9.511  1.1062  1.3923 -0.0909
  672MOL0     H90656   3.667   6.483   9.658 -0.5247 -0.2527 -0.0059
  672MOL0     H90657   3.365   6.487   9.644  1.0062  4.0637  2.6853
  672MOL0     H90658   3.451   6.336   9.678  1.7845 -0.2150 -1.4623
  672MOL0     H90659   3.560   6.404   9.863 -0.5509 -0.8872  0.0314
  672MOL0     H90660   3.513   6.572   9.846  0.7932 -0.4283  0.4854
  672MOL0     H90661   3.315   6.341   9.903  0.8259 -0.3635  0.6480
  672MOL0     H90662   3.390   6.441  10.020 -1.8418 -1.9426  1.3371
  672MOL0     H90663   3.271   6.642   9.884  0.6702  0.5160  3.7580
  672MOL0     H90664   3.191   6.517   9.800  2.5244 -0.2456 -1.1353
  672MOL0     H90665   3.092   6.440  10.017  1.0696 -1.4011 -3.4801
  672MOL0     H90666   3.195   6.555  10.101  0.7315 -2.9809  0.1920
  672MOL0     H90667   3.088   6.745   9.976 -0.1437  0.2057 -0.9576
  672MOL0     H90668   2.989   6.632   9.873 -3.6406 -2.2376  1.1873
  672MOL0     H90669   2.943   6.671  10.174 -1.5118  2.1366  0.4296
  672MOL0     H90670   2.882   6.545  10.080  0.8932 -1.6072 -1.1554
  672MOL0     H90671   2.684   6.614   9.909  2.3426 -0.2026  0.3778
  672MOL0     H90672   2.526   6.938   9.795  0.6535 -0.0656  0.2974
  672MOL0     H90673   2.547   6.765   9.749 -0.6234  0.8751 -1.5545
  672MOL0     H90674   2.427   6.689   9.953  2.1580  1.6753  3.1627
  672MOL0     H90675   2.325   6.784   9.847 -1.5319 -1.4188  2.4826
  672MOL0     H90676   2.406   6.974  10.029 -0.9257  0.2875 -2.6044
  672MOL0     H90677   2.452   6.822  10.114  1.2692  2.9155 -0.1537
  672MOL0     H90678   2.231   6.881  10.186 -1.7217  4.3967 -1.6150
  672MOL0     H90679   2.224   6.741  10.056  2.0676 -0.5559 -1.0608
  672MOL0     H90680   2.004   6.817  10.191  0.2297  2.3659  1.8161
  672MOL0     H90681   1.798   6.759  10.303 -3.1152 -3.0792  1.1329
  672MOL0     H90682   1.688   6.892  10.269  0.0458 -1.1431 -0.2288
  672MOL0     H90683   1.665   6.724  10.206 -2.3826  2.7560 -4.3014
  672MOL0     H90684   1.358   7.016  10.081 -0.8697 -2.4804  1.7832
  672MOL0     H90685   1.106   7.006  10.051 -0.2811 -2.3744 -0.0651
  672MOL0     H90686   0.896   6.961  10.008 -2.0724  1.0156  0.7837
  672MOL0     H90687   0.933   7.083   9.895 -1.6318  0.1294  1.2861
  672MOL0     H90688   0.779   7.009   9.726  1.0451  0.6055 -0.0763
  672MOL0     H90689   0.744   6.867   9.825 -0.1789  0.1821 -1.6071
  672MOL0     H90690   0.681   7.138   9.913 -1.1385  0.1442  3.2242
  672MOL0     H90691   0.621   6.985   9.988 -2.2255 -1.4505 -1.1331
  672MOL0     H90692   0.563   7.089   9.703 -1.8316  1.2228  0.5978
  672MOL0     H90693   0.512   6.941   9.754  1.1404 -0.0621 -1.3324
  672MOL0     H90694   0.425   7.210   9.867 -1.7133  0.1049  0.7788
  672MOL0     H90695   0.385   7.061   9.952 -0.4270 -0.7227 -1.3215
  672MOL0     H90696   0.270   6.974   9.752 -0.5668 -0.5128 -1.7085
  672MOL0     H90697   0.189   7.118   9.828  0.5721 -0.6198  1.2007
  672MOL0     H90698   0.365   7.113   9.573 -2.2154 -4.7013  0.4297
  672MOL0     H90699   0.310   7.251   9.662 -1.3971  0.9678 -0.3240
  672MOL0     H90700   0.164   7.193   9.464  2.2436 -1.3410 -1.0039
  672MOL0     H90701   0.070   7.182   9.608 -0.9203 -0.6497 -1.6283
  672MOL0     H90702   1.159   6.856   9.661 -2.0743 -0.3303  0.4092
  672MOL0     H90703   1.399   6.892   9.667  0.0798 -0.6568  0.8773
  672MOL0     H90704   1.764   6.964   9.787  0.9643 -0.3779 -1.0705
  672MOL0     H90705   2.016   6.970   9.795 -0.2692  0.5917 -0.1442
  672MOL0     H90706   3.820   6.643   9.634 -1.8567 -0.0743  0.0288
  672MOL0     H90707   4.001   6.737   9.500  0.3294 -2.6292  1.1351
  672MOL0     H90708   4.211   6.787   9.110  1.4814  1.3277  1.5996
  672MOL0     H90709   4.372   6.867   8.929  0.3155  1.1518 -2.0138
  672MOL0     H90710   4.317   7.253   8.699  0.7117  1.2761 -0.3645
  672MOL0     H90711   4.380   7.320   8.850 -0.4863  2.7934 -2.2934
  672MOL0     H90712   4.524   7.191   8.633 -0.3066 -1.1370  0.8103
  672MOL0     H90713   4.605   7.217   8.792 -2.7122 -2.0218  2.9275
  672MOL0     H90714   4.581   7.473   8.760  0.4191 -1.3243 -0.6468
  672MOL0     H90715   4.484   7.450   8.615  0.2722 -0.4847 -2.6604
  672MOL0     H90716   4.699   7.530   8.555 -1.8583  0.2214 -1.2707
  672MOL0     H90717   4.679   7.354   8.505  2.3794 -3.5273  2.8695
  672MOL0     H90718   4.967   7.257   8.764 -0.0011 -0.8653 -0.3121
  672MOL0     H90719   4.204   7.257   8.955  1.6714 -0.5848 -1.3288
  672MOL0     H90720   4.030   7.168   9.105  0.6179  1.0329 -1.4913
  673MOL0     O90721   1.336   8.347  10.724  0.0077 -0.2727  0.0222
  673MOL0     C90722   1.324   8.446  10.795 -0.6943  0.8324 -0.1153
  673MOL0     O90723   1.217   8.473  10.869  0.2094 -0.2633  0.0269
  673MOL0     C90724   1.102   8.404  10.846  0.1982  0.1381  0.5613
  673MOL0     C90725   1.016   8.454  10.756  0.6365 -0.5030 -0.4682
  673MOL0     C90726   0.888   8.386  10.726  0.7676  0.5140  0.4096
  673MOL0     C90727   0.856   8.262  10.790  0.4199 -0.1974  0.2553
  673MOL0     O90728   0.737   8.198  10.761 -0.7022  0.0521  0.0253
  673MOL0     C90729   0.612   8.264  10.803 -0.5157  0.5358  0.6683
  673MOL0     C90730   0.548   8.320  10.680 -0.1999  0.6477  0.6003
  673MOL0     C90731   0.414   8.397  10.706 -0.3093  0.6527  0.7124
  673MOL0     C90732   0.287   8.347  10.640 -0.6340 -0.3093 -0.6941
  673MOL0     C90733   0.167   8.407  10.697  0.1452  0.2252  0.1156
  673MOL0     C90734   0.038   8.369  10.613 -0.2145 -0.5246  0.3044
  673MOL0     C90735  -0.085   8.448  10.658 -0.2166 -0.4027  0.3581
  673MOL0     C90736  -0.145   8.427  10.790 -0.1810 -0.0664 -0.5063
  673MOL0     N90737  -0.213   8.541  10.846  0.6484 -0.6867  0.0820
  673MOL0     C90738  -0.342   8.587  10.809 -0.5767  0.3715 -0.3785
  673MOL0     C90739  -0.371   8.693  10.885  0.2808 -0.4578  0.4218
  673MOL0     C90740  -0.497   8.772  10.889 -0.3886 -0.9101 -0.3240
  673MOL0     C90741  -0.607   8.708  10.968  0.1161 -0.1884  0.7601
  673MOL0     C90742  -0.589   8.744  11.115 -0.0068  0.1633 -0.6713
  673MOL0     C90743  -0.663   8.646  11.204 -0.3008 -0.7530  0.4247
  673MOL0     O90744  -0.811   8.668  11.184 -0.7952  0.3361 -0.1423
  673MOL0     C90745  -0.872   8.756  11.258  0.0919  0.8433  0.4271
  673MOL0     C90746  -1.008   8.761  11.239 -0.2415 -0.2857  0.4990
  673MOL0     C90747  -1.085   8.865  11.297  0.1507 -0.6316  0.5634
  673MOL0     C90748  -1.227   8.891  11.250 -0.9363  0.3245  0.1183
  673MOL0     C90749  -1.019   8.947  11.403 -0.0172 -0.3716  0.3858
  673MOL0     C90750  -1.096   9.030  11.490  0.1498  0.1392 -0.1540
  673MOL0     O90751  -1.225   9.005  11.503  0.2113 -0.3864 -0.2368
  673MOL0     C90752  -1.296   9.078  11.599 -0.0786 -0.5277 -0.0407
  673MOL0     C90753  -1.302   9.036  11.737 -0.1105  0.5408 -0.2207
  673MOL0     C90754  -1.378   9.109  11.834 -0.2586  0.2765 -0.3368
  673MOL0     C90755  -1.461   9.209  11.790  0.2627 -0.4782 -0.1473
  673MOL0     O90756  -1.524   9.281  11.880  0.9743  0.2668  0.3049
  673MOL0     C90757  -1.437   9.366  11.961 -0.1862 -0.5279 -0.4371
  673MOL0     C90758  -1.534   9.473  12.030  0.7092 -0.4876 -0.8590
  673MOL0     C90759  -1.643   9.413  12.109  0.1871 -0.0058  0.0210
  673MOL0     C90760  -1.607   9.289  12.197  0.7147 -0.9102 -0.4692
  673MOL0     C90761  -1.745   9.229  12.255 -0.1341  0.3721  0.3587
  673MOL0     C90762  -1.787   9.312  12.377  0.7628 -0.4325  0.8007
  673MOL0     C90763  -1.914   9.244  12.432  0.2305  0.6765 -0.1082
  673MOL0     C90764  -2.029   9.335  12.479  0.0864 -0.0093  0.5482
  673MOL0    Cl90765  -2.090   9.423  12.342 -0.1397  0.2513  0.3852
  673MOL0     C90766  -1.471   9.237  11.659 -0.2354 -0.4438  0.7563
  673MOL0     C90767  -1.376   9.190  11.564 -0.1659 -0.0811  0.0349
  673MOL0     O90768  -1.042   9.130  11.540 -0.5575  0.0255 -0.0431
  673MOL0     C90769  -0.882   8.934  11.419  0.3597 -0.2034  0.2517
  673MOL0     C90770  -0.810   8.845  11.349  0.0907 -0.2782 -0.3038
  673MOL0     N90771  -0.260   8.724  10.963 -0.4715 -0.9563  0.4070
  673MOL0     N90772  -0.171   8.633  10.941  0.2664  0.0853 -0.0352
  673MOL0     C90773   0.959   8.202  10.863 -0.6731  0.5732 -0.0508
  673MOL0     C90774   1.076   8.273  10.898  0.7551 -0.3955  0.4333
  673MOL0     C90775   1.442   8.537  10.797 -0.1658  0.4678  0.5783
  673MOL0     C90776   1.544   8.520  10.700 -0.3669  0.5717 -0.2960
  673MOL0     C90777   1.640   8.617  10.688 -0.4125 -0.2525 -0.2440
  673MOL0     C90778   1.632   8.737  10.764  0.0501  0.4047 -0.0070
  673MOL0     O90779   1.719   8.832  10.723  0.7329  1.0389 -0.0118
  673MOL0     C90780   1.742   8.933  10.819  0.0089  0.3577  0.0627
  673MOL0     C90781   1.864   9.006  10.780 -0.0642  0.2761 -0.0302
  673MOL0     C90782   1.863   9.055  10.638 -0.5651 -0.0796 -0.5445
  673MOL0     C90783   1.977   9.153  10.619 -1.1918 -1.0123 -0.5533
  673MOL0     C90784   1.940   9.294  10.653 -0.3264 -0.1026  0.2851
  673MOL0     C90785   1.921   9.412  10.675 -0.2028 -0.4780 -0.4098
  673MOL0     C90786   1.542   8.742  10.866 -0.0650  0.3221 -0.5346
  673MOL0     C90787   1.446   8.636  10.889  0.0841 -0.5527 -0.4247
  673MOL0     H90788   1.043   8.542  10.699  0.2474  0.0020  0.1038
  673MOL0     H90789   0.817   8.443  10.666  1.1048  0.3090 -0.1886
  673MOL0     H90790   0.538   8.201  10.854 -0.1780  0.3146  0.8919
  673MOL0     H90791   0.623   8.349  10.871 -0.8631  1.9156 -0.9541
  673MOL0     H90792   0.621   8.387  10.634 -0.9351  0.6823 -0.5428
  673MOL0     H90793   0.526   8.244  10.605 -0.5565  0.5637  0.7869
  673MOL0     H90794   0.398   8.397  10.814  0.6677  0.9502  0.8649
  673MOL0     H90795   0.434   8.503  10.686 -0.5984  0.5301 -0.3124
  673MOL0     H90796   0.289   8.365  10.532 -2.4790 -0.3669 -0.7647
  673MOL0     H90797   0.278   8.238  10.652  1.9415 -0.6206 -0.8785
  673MOL0     H90798   0.155   8.375  10.801  3.5611  4.8390  2.3036
  673MOL0     H90799   0.183   8.515  10.702 -1.1322  0.3662  2.5326
  673MOL0     H90800   0.068   8.369  10.508 -0.2046 -2.0812  0.2937
  673MOL0     H90801   0.014   8.265  10.637  0.4960 -0.9908 -0.8627
  673MOL0     H90802  -0.069   8.556  10.646 -0.0744 -0.6165 -1.7533
  673MOL0     H90803  -0.162   8.427  10.583  1.1027  0.7691 -1.4234
  673MOL0     H90804  -0.070   8.390  10.860  1.7343  0.5004 -2.1551
  673MOL0     H90805  -0.214   8.343  10.788  0.7283 -0.8373 -0.2603
  673MOL0     H90806  -0.407   8.530  10.743  0.2601 -1.6695  0.4895
  673MOL0     H90807  -0.468   8.874  10.918 -0.5362 -1.0340  0.2749
  673MOL0     H90808  -0.529   8.775  10.784 -1.8825  0.7893  0.1390
  673MOL0     H90809  -0.622   8.601  10.954 -1.1322 -0.3950  3.2104
  673MOL0     H90810  -0.700   8.744  10.924  1.0335  2.1840  0.6190
  673MOL0     H90811  -0.623   8.847  11.129 -0.7482 -0.3451  1.5530
  673MOL0     H90812  -0.483   8.746  11.141  1.0937 -3.1752 -3.9061
  673MOL0     H90813  -0.640   8.662  11.310 -1.5430  1.4370  0.4289
  673MOL0     H90814  -0.619   8.549  11.179  1.7020  0.3514 -0.6232
  673MOL0     H90815  -1.061   8.692  11.174  0.6477 -0.2485 -0.2870
  673MOL0     H90816  -1.292   8.852  11.329 -3.3295  1.8859 -0.9627
  673MOL0     H90817  -1.247   8.998  11.241  0.8979  0.7120  0.1317
  673MOL0     H90818  -1.250   8.843  11.155  1.2483  0.0665 -0.3360
  673MOL0     H90819  -1.235   8.953  11.760  0.3139  0.2840 -2.2081
  673MOL0     H90820  -1.391   9.073  11.935  0.5918  0.0555 -0.3012
  673MOL0     H90821  -1.395   9.302  12.039 -2.6685 -1.4527  0.2103
  673MOL0     H90822  -1.361   9.409  11.895 -2.0562  0.3099 -2.1230
  673MOL0     H90823  -1.473   9.537  12.094 -0.7788 -0.0455  0.1608
  673MOL0     H90824  -1.574   9.546  11.959  0.6087  1.3976  1.0549
  673MOL0     H90825  -1.727   9.380  12.047 -1.5347  0.4423  1.9948
  673MOL0     H90826  -1.687   9.490  12.172 -2.2304 -0.2578 -1.2387
  673MOL0     H90827  -1.555   9.216  12.133  1.0317 -0.0008 -1.2790
  673MOL0     H90828  -1.550   9.330  12.281 -0.2185 -2.4193  0.9519
  673MOL0     H90829  -1.718   9.133  12.301  2.7222  1.0289  0.2680
  673MOL0     H90830  -1.818   9.224  12.174 -0.5231 -0.8982  0.7574
  673MOL0     H90831  -1.706   9.328  12.448  0.6873  0.4729  0.7058
  673MOL0     H90832  -1.809   9.419  12.362 -2.9400 -0.8879  1.8796
  673MOL0     H90833  -1.886   9.178  12.515  1.6539 -1.3753 -2.1268
  673MOL0     H90834  -1.951   9.175  12.356 -0.3807  1.5806 -0.6456
  673MOL0     H90835  -2.001   9.407  12.556 -3.1204 -1.9863  3.9135
  673MOL0     H90836  -2.114   9.285  12.526 -2.4486  1.1076 -2.4850
  673MOL0     H90837  -1.527   9.324  11.626 -1.9228 -2.0472 -0.7861
  673MOL0     H90838  -1.379   9.211  11.457  1.0080  1.7658  0.3317
  673MOL0     H90839  -0.828   9.003  11.484  1.4730  1.0308 -1.8842
  673MOL0     H90840  -0.704   8.861  11.333  0.4160  0.0469  1.8723
  673MOL0     H90841   0.950   8.107  10.915  1.4580  1.2047  1.6804
  673MOL0     H90842   1.142   8.217  10.963 -1.0807 -1.8541  1.1510
  673MOL0     H90843   1.549   8.439  10.629  1.5433  1.5910 -1.3930
  673MOL0     H90844   1.720   8.625  10.615 -0.6095 -0.5959 -0.4990
  673MOL0     H90845   1.660   9.005  10.817  0.9017  1.4586  1.5523
  673MOL0     H90846   1.756   8.895  10.920  2.2615 -3.1491 -1.3476
  673MOL0     H90847   1.948   8.938  10.798 -0.4136  0.3343  2.2095
  673MOL0     H90848   1.873   9.082  10.859 -1.6501 -1.6125  2.1322
  673MOL0     H90849   1.762   9.078  10.603 -1.5819 -3.1912  0.0424
  673MOL0     H90850   1.898   8.967  10.582  0.6649 -1.3590  2.0657
  673MOL0     H90851   2.014   9.149  10.517  2.9668  0.0416  0.7394
  673MOL0     H90852   2.063   9.121  10.678 -0.6303 -1.0833 -1.3940
  673MOL0     H90853   1.905   9.517  10.688  2.7891 -0.0898  1.1020
  673MOL0     H90854   1.541   8.823  10.939 -0.4956 -0.5072  0.4074
  673MOL0     H90855   1.373   8.640  10.970 -0.7846  0.7722 -1.2296
  674MOL0     O90856   4.292   4.718  10.973  0.3507  0.7242 -0.2853
  674MOL0     C90857   4.333   4.770  10.869  0.8477  0.1990  0.4407
  674MOL0     O90858   4.261   4.868  10.804 -0.3373 -0.0566 -0.0874
  674MOL0     C90859   4.145   4.923  10.855  0.1186 -0.2326 -0.4276
  674MOL0     C90860   4.037   4.840  10.856  0.2226 -0.0085 -0.0062
  674MOL0     C90861   3.908   4.870  10.906 -0.7101 -0.2607  0.1856
  674MOL0     C90862   3.889   4.986  10.986 -0.0740 -0.5578 -0.5389
  674MOL0     O90863   3.762   5.003  11.034  0.2077 -0.0504  1.0068
  674MOL0     C90864   3.742   5.072  11.156 -0.5246 -0.9874  0.6177
  674MOL0     C90865   3.593   5.098  11.172  0.5392  0.0119  0.0310
  674MOL0     C90866   3.569   5.195  11.289 -0.9429 -0.1086  0.8574
  674MOL0     C90867   3.424   5.209  11.323 -0.6555  0.4673  0.1164
  674MOL0     C90868   3.387   5.323  11.415 -0.2636 -1.0964 -0.3991
  674MOL0     C90869   3.392   5.460  11.352 -0.0977  0.7706 -0.5709
  674MOL0     C90870   3.369   5.586  11.451  0.6335 -0.4838  0.3846
  674MOL0     C90871   3.241   5.555  11.528 -0.6096 -0.2733 -0.0179
  674MOL0     N90872   3.124   5.531  11.449 -0.3161 -0.4675  0.7677
  674MOL0     C90873   3.028   5.432  11.478 -0.8095  0.3015  0.6681
  674MOL0     C90874   2.939   5.446  11.385  0.5820 -1.3354  0.2146
  674MOL0     C90875   2.820   5.364  11.364 -0.4644 -0.5176  0.2881
  674MOL0     C90876   2.717   5.377  11.484  0.0761  0.0830 -0.2845
  674MOL0     C90877   2.679   5.518  11.504  0.5538 -0.6743  0.6841
  674MOL0     C90878   2.549   5.514  11.576 -0.0391  0.5826  0.4398
  674MOL0     O90879   2.437   5.452  11.501  0.4965 -0.0011 -0.1092
  674MOL0     C90880   2.315   5.489  11.558 -0.3578 -0.2280 -0.5955
  674MOL0     C90881   2.227   5.574  11.501 -0.0758 -0.3074 -0.1892
  674MOL0     C90882   2.097   5.598  11.551 -0.9444 -0.1153  0.5119
  674MOL0     C90883   2.024   5.714  11.479 -0.4070 -0.4107  0.0391
  674MOL0     C90884   2.048   5.528  11.662  0.1004  0.8160 -0.3861
  674MOL0     C90885   1.910   5.524  11.713 -0.2150  0.3771  0.1963
  674MOL0     O90886   1.883   5.459  11.837 -0.1721 -0.0584  0.3278
  674MOL0     C90887   1.753   5.447  11.868  0.1760 -0.3573 -0.7629
  674MOL0     C90888   1.678   5.553  11.919  0.2658 -0.1445  0.3007
  674MOL0     C90889   1.541   5.533  11.943 -0.2142 -0.8954 -0.2990
  674MOL0     C90890   1.479   5.410  11.917 -0.0785  0.4281 -0.3492
  674MOL0     O90891   1.353   5.378  11.957 -0.3235 -0.2039 -0.1590
  674MOL0     C90892   1.262   5.479  12.007  0.1153  0.9644  0.9877
  674MOL0     C90893   1.135   5.406  12.051 -0.4356  0.2355  0.1539
  674MOL0     C90894   1.033   5.500  12.117 -0.2274  0.4565  0.3387
  674MOL0     C90895   0.920   5.422  12.184  0.0476 -0.3704  0.3572
  674MOL0     C90896   0.812   5.521  12.242  0.1568  1.0782  0.9045
  674MOL0     C90897   0.745   5.611  12.138  0.0450 -0.0807 -0.0449
  674MOL0     C90898   0.610   5.650  12.192 -0.9645 -0.8369 -0.2948
  674MOL0     C90899   0.521   5.734  12.096  0.4294 -0.3492  0.1720
  674MOL0    Cl90900   0.483   5.627  11.956 -0.1859 -0.0797  0.1820
  674MOL0     C90901   1.556   5.307  11.867  0.2039 -0.6520 -0.4123
  674MOL0     C90902   1.686   5.326  11.839 -0.6088 -0.9302 -0.8127
  674MOL0     O90903   1.832   5.588  11.648 -0.1773 -0.0188 -0.6009
  674MOL0     C90904   2.140   5.440  11.720  0.1468 -0.0028 -0.7229
  674MOL0     C90905   2.268   5.423  11.673 -0.1777  0.3662  0.4467
  674MOL0     N90906   2.969   5.555  11.304 -0.4413  0.3175 -0.4080
  674MOL0     N90907   3.085   5.611  11.340  0.3458  0.3523 -0.4034
  674MOL0     C90908   3.995   5.080  10.988 -0.2606 -0.4057  0.1564
  674MOL0     C90909   4.120   5.048  10.925 -0.5917  0.0799  0.2641
  674MOL0     C90910   4.454   4.724  10.799 -0.4659  0.0412  0.8128
  674MOL0     C90911   4.533   4.621  10.852  0.3043 -0.1670  0.3622
  674MOL0     C90912   4.650   4.567  10.801 -0.3863  0.4342  0.3905
  674MOL0     C90913   4.695   4.628  10.684 -0.4587  0.2961 -0.2231
  674MOL0     O90914   4.814   4.607  10.625  0.1183  0.3451  0.4204
  674MOL0     C90915   4.893   4.496  10.666 -0.3127  0.5217 -0.7721
  674MOL0     C90916   5.009   4.481  10.563  0.4661 -0.7193 -0.1843
  674MOL0     C90917   5.136   4.566  10.588  0.4045  0.4733 -0.5340
  674MOL0     C90918   5.266   4.489  10.550  0.1119 -0.4218  0.5994
  674MOL0     C90919   5.376   4.580  10.519  0.5107 -1.0037  0.2830
  674MOL0     C90920   5.461   4.653  10.483 -0.1096  0.1358 -0.2506
  674MOL0     C90921   4.614   4.720  10.617  0.3181 -0.2550 -0.1648
  674MOL0     C90922   4.494   4.769  10.669 -0.2603 -0.1104  0.1296
  674MOL0     H90923   4.061   4.745  10.809 -0.0667  0.4403 -1.0872
  674MOL0     H90924   3.832   4.799  10.876  2.0195 -3.8094  1.0971
  674MOL0     H90925   3.779   5.013  11.241 -1.1960  1.5524  2.7977
  674MOL0     H90926   3.785   5.172  11.159 -2.4210 -0.1318  0.4704
  674MOL0     H90927   3.552   5.143  11.081 -2.4410  0.6790  1.5586
  674MOL0     H90928   3.544   5.001  11.186  2.9486 -1.6304 -2.0389
  674MOL0     H90929   3.623   5.155  11.376 -0.6566 -1.1854  0.2065
  674MOL0     H90930   3.606   5.293  11.260 -0.3448 -1.1477 -2.1527
  674MOL0     H90931   3.358   5.206  11.236  0.2965 -1.2082 -0.5999
  674MOL0     H90932   3.397   5.130  11.394  0.7133  1.8504  2.2576
  674MOL0     H90933   3.287   5.307  11.457 -0.4704  0.8421 -0.1049
  674MOL0     H90934   3.450   5.319  11.504 -1.6407 -0.0348  0.6590
  674MOL0     H90935   3.483   5.481  11.296  1.0064  0.9646  1.2293
  674MOL0     H90936   3.309   5.456  11.280 -0.7500 -0.2860  0.1976
  674MOL0     H90937   3.450   5.594  11.523 -0.1979  1.0025  1.1982
  674MOL0     H90938   3.364   5.682  11.398 -1.1421 -0.5741  0.3202
  674MOL0     H90939   3.221   5.637  11.598  1.9418 -0.2980  0.8655
  674MOL0     H90940   3.259   5.465  11.587  0.6574  1.0722  1.7564
  674MOL0     H90941   3.035   5.361  11.560  1.9382  2.1067  2.1598
  674MOL0     H90942   2.790   5.402  11.266  1.7963  0.6590 -0.0307
  674MOL0     H90943   2.856   5.261  11.361  2.5195  0.4277 -0.7545
  674MOL0     H90944   2.771   5.338  11.571  1.0182 -3.2600 -2.1915
  674MOL0     H90945   2.626   5.320  11.463 -0.7873  1.8915 -1.6937
  674MOL0     H90946   2.652   5.570  11.411  0.5511 -1.3089  0.3246
  674MOL0     H90947   2.757   5.572  11.558 -1.4407  0.3220  2.7522
  674MOL0     H90948   2.514   5.613  11.607 -3.4568 -0.8845  1.8410
  674MOL0     H90949   2.574   5.456  11.665  0.9007 -0.2338 -0.3351
  674MOL0     H90950   2.262   5.620  11.409  0.8798 -2.1195 -0.7746
  674MOL0     H90951   1.954   5.685  11.400  0.8122 -3.5943 -0.0177
  674MOL0     H90952   1.965   5.766  11.555  1.9953  2.9684 -0.1869
  674MOL0     H90953   2.102   5.780  11.440 -1.1616  0.3401 -0.2243
  674MOL0     H90954   1.732   5.645  11.939 -0.5745  1.0696 -2.4604
  674MOL0     H90955   1.497   5.616  11.997 -1.4547 -1.3889 -0.5415
  674MOL0     H90956   1.298   5.545  12.087  0.7817 -0.4830  1.9366
  674MOL0     H90957   1.220   5.537  11.924  0.7067 -3.6113 -2.9343
  674MOL0     H90958   1.083   5.361  11.966  0.9734  0.8301 -1.0588
  674MOL0     H90959   1.158   5.327  12.123  0.1357 -2.2218 -2.5671
  674MOL0     H90960   1.000   5.565  12.036  2.5155  0.2847 -1.0573
  674MOL0     H90961   1.088   5.563  12.188  0.9968  0.6801 -0.7780
  674MOL0     H90962   0.871   5.356  12.112 -0.2412  1.3632 -1.1048
  674MOL0     H90963   0.964   5.358  12.261 -0.0199  0.0301  0.7380
  674MOL0     H90964   0.847   5.584  12.324 -2.3743 -0.3229  3.2426
  674MOL0     H90965   0.741   5.456  12.294  1.8494  0.2264  2.2420
  674MOL0     H90966   0.813   5.695  12.123  0.6504 -0.5559 -0.0059
  674MOL0     H90967   0.737   5.557  12.043  0.5370 -1.6760  0.7904
  674MOL0     H90968   0.621   5.699  12.289 -2.5666  0.8184 -0.8700
  674MOL0     H90969   0.546   5.563  12.208  0.9917 -1.9269  1.9968
  674MOL0     H90970   0.595   5.809  12.068  1.0869 -0.4122  1.6578
  674MOL0     H90971   0.432   5.779  12.141  0.9116 -1.4595  2.3471
  674MOL0     H90972   1.517   5.210  11.836  0.2891 -0.4580 -1.1503
  674MOL0     H90973   1.748   5.248  11.798 -2.1704 -2.6392 -0.0751
  674MOL0     H90974   2.109   5.384  11.807  0.4003  0.0858 -0.5751
  674MOL0     H90975   2.332   5.352  11.724  1.3714  1.2068 -0.2527
  674MOL0     H90976   3.985   5.182  11.024  1.6616 -0.0408 -0.2114
  674MOL0     H90977   4.196   5.126  10.933  1.5519 -2.0297  1.9038
  674MOL0     H90978   4.495   4.582  10.946 -1.8132 -1.1305 -0.8283
  674MOL0     H90979   4.700   4.491  10.860 -1.9922 -2.0546 -1.2465
  674MOL0     H90980   4.936   4.506  10.766  0.3072 -0.9275 -0.8662
  674MOL0     H90981   4.828   4.408  10.665 -0.0086  0.2957 -0.4307
  674MOL0     H90982   4.971   4.496  10.462  3.3089 -3.4226 -1.8189
  674MOL0     H90983   5.048   4.380  10.551 -0.7247 -1.0227 -1.8764
  674MOL0     H90984   5.139   4.605  10.691 -0.0808  1.1056 -0.7532
  674MOL0     H90985   5.140   4.652  10.521  0.3170  0.4989 -0.5079
  674MOL0     H90986   5.247   4.420  10.467 -0.2380  0.7301 -0.3071
  674MOL0     H90987   5.303   4.434  10.637  0.4366  2.1104  2.1900
  674MOL0     H90988   5.542   4.719  10.458 -0.4477  1.3207  1.6272
  674MOL0     H90989   4.650   4.770  10.528 -1.0081  1.5207  0.2289
  674MOL0     H90990   4.448   4.853  10.620  0.0604  0.5922  0.9988
  675MOL0     O90991   0.700   1.728   7.055  0.3312 -0.4339  0.2051
  675MOL0     C90992   0.751   1.750   6.942  0.9430  1.1529  0.0192
  675MOL0     O90993   0.688   1.767   6.823 -0.1709  0.5702 -0.3518
  675MOL0     C90994   0.548   1.783   6.829 -0.8997 -0.2363  0.0258
  675MOL0     C90995   0.504   1.905   6.867 -0.4671  0.1155  0.4510
  675MOL0     C90996   0.372   1.945   6.880  0.7239  0.4085  0.8640
  675MOL0     C90997   0.275   1.854   6.833  0.5024 -0.3444  0.1926
  675MOL0     O90998   0.144   1.877   6.835 -0.1591 -0.2146  0.4402
  675MOL0     C90999   0.094   1.998   6.893 -0.3877  0.5562 -0.0734
  675MOL0     C91000  -0.050   2.019   6.854 -0.1634 -0.2305  0.1268
  675MOL0     C91001  -0.159   1.924   6.919  0.9887  0.6490  0.8023
  675MOL0     C91002  -0.140   1.778   6.879  0.6348 -0.6829 -1.2262
  675MOL0     C91003  -0.254   1.690   6.921  0.7192 -0.4811  0.9734
  675MOL0     C91004  -0.223   1.547   6.901 -0.3660 -0.0118  0.1229
  675MOL0     C91005  -0.333   1.458   6.957  0.9794  0.0164 -0.1242
  675MOL0     C91006  -0.445   1.428   6.852  0.1675  0.0606 -0.2314
  675MOL0     N91007  -0.536   1.538   6.834 -0.3291 -0.2639 -0.1823
  675MOL0     C91008  -0.540   1.620   6.722  0.1590  0.0768  0.1274
  675MOL0     C91009  -0.620   1.728   6.763  0.4097  0.4800  0.6673
  675MOL0     C91010  -0.631   1.842   6.676 -0.3075  0.2028 -0.0322
  675MOL0     C91011  -0.762   1.857   6.600  0.2468 -0.3948  0.3385
  675MOL0     C91012  -0.789   2.008   6.552  0.4211 -0.4820  0.0157
  675MOL0     C91013  -0.904   2.002   6.445 -0.2816 -0.0707  0.8269
  675MOL0     O91014  -0.931   2.144   6.409 -0.4279 -0.2759  0.0364
  675MOL0     C91015  -1.058   2.193   6.403  0.2758 -0.6486 -0.0003
  675MOL0     C91016  -1.061   2.328   6.423 -0.0779 -0.8907  0.5378
  675MOL0     C91017  -1.182   2.398   6.410 -0.7024 -0.2134  0.2935
  675MOL0     C91018  -1.161   2.551   6.427  0.3366 -0.9346 -0.4687
  675MOL0     C91019  -1.300   2.327   6.373  0.2448 -0.4638 -0.1341
  675MOL0     C91020  -1.430   2.396   6.364 -0.3128  0.0214 -0.4432
  675MOL0     O91021  -1.528   2.315   6.310 -0.0795 -0.2356 -1.1141
  675MOL0     C91022  -1.659   2.360   6.308 -0.4121  0.4262  0.3909
  675MOL0     C91023  -1.712   2.433   6.201  0.0178 -0.4319  0.0564
  675MOL0     C91024  -1.847   2.458   6.181  0.4484 -0.4960  1.1356
  675MOL0     C91025  -1.941   2.444   6.283 -0.1210 -0.4444  0.1906
  675MOL0     O91026  -2.074   2.483   6.261 -0.2054  0.2472 -0.1159
  675MOL0     C91027  -2.156   2.459   6.381 -0.1119 -0.6754 -0.2786
  675MOL0     C91028  -2.296   2.507   6.348  0.2601 -0.4047  0.4374
  675MOL0     C91029  -2.411   2.439   6.421  0.5243 -1.0357  0.0116
  675MOL0     C91030  -2.549   2.485   6.359  0.0705 -0.1490 -0.3601
  675MOL0     C91031  -2.661   2.423   6.434  0.0047  0.2515 -0.5978
  675MOL0     C91032  -2.793   2.490   6.387  0.4483  0.4930  0.7340
  675MOL0     C91033  -2.917   2.451   6.481  0.4499  0.7450  0.0503
  675MOL0     C91034  -3.005   2.349   6.402 -0.3850 -0.5228 -0.2794
  675MOL0    Cl91035  -3.086   2.438   6.278  0.7293  0.2019 -0.1061
  675MOL0     C91036  -1.885   2.373   6.394  0.2732  0.4709  0.1224
  675MOL0     C91037  -1.751   2.331   6.413 -0.2175 -0.3293 -0.3265
  675MOL0     O91038  -1.445   2.510   6.411  0.0550  0.1691  0.1322
  675MOL0     C91039  -1.298   2.188   6.359  0.0741 -0.1169 -0.2066
  675MOL0     C91040  -1.173   2.123   6.379 -0.2212  0.2455 -0.5740
  675MOL0     N91041  -0.669   1.707   6.894 -0.1412  0.2258 -0.4295
  675MOL0     N91042  -0.614   1.596   6.929  0.3096  0.1068 -0.5535
  675MOL0     C91043   0.323   1.734   6.781 -0.4750 -0.4874  0.2575
  675MOL0     C91044   0.456   1.689   6.797  0.9794 -0.3148  0.0280
  675MOL0     C91045   0.891   1.748   6.950  0.0540  0.4185  0.6265
  675MOL0     C91046   0.962   1.785   6.836  0.2565 -0.6089 -0.8363
  675MOL0     C91047   1.103   1.783   6.843  0.0313 -0.1692  0.3474
  675MOL0     C91048   1.176   1.764   6.962  0.7311  0.3871  0.1866
  675MOL0     O91049   1.314   1.769   6.941  0.1639 -0.3616  0.0421
  675MOL0     C91050   1.403   1.782   7.054  1.0425 -1.2016  0.3176
  675MOL0     C91051   1.547   1.838   7.025 -0.5529  0.1649  0.3563
  675MOL0     C91052   1.638   1.840   7.157  0.6963  0.7018 -0.6473
  675MOL0     C91053   1.760   1.930   7.126  1.0082 -0.0870 -0.1439
  675MOL0     C91054   1.820   1.919   6.994 -0.4180  0.0405  0.7760
  675MOL0     C91055   1.879   1.901   6.889  0.4429  0.2601 -0.4646
  675MOL0     C91056   1.105   1.725   7.078  0.0732 -0.1239 -0.4624
  675MOL0     C91057   0.959   1.721   7.069 -0.9152 -0.4897  0.8994
  675MOL0     H91058   0.580   1.976   6.899 -0.0074  0.2454 -0.8493
  675MOL0     H91059   0.348   2.040   6.927 -0.4257  0.6259 -0.1220
  675MOL0     H91060   0.097   1.989   7.002  1.4004  3.0520  0.1785
  675MOL0     H91061   0.146   2.085   6.852  1.4567 -0.4356  0.0829
  675MOL0     H91062  -0.074   2.121   6.884  2.5771  0.2615  0.8758
  675MOL0     H91063  -0.053   2.017   6.744  0.5054  1.4842  0.0389
  675MOL0     H91064  -0.158   1.926   7.029 -2.5343 -1.0386  0.9707
  675MOL0     H91065  -0.262   1.959   6.909  0.8521  0.5904  1.8629
  675MOL0     H91066  -0.139   1.770   6.769  2.6635 -3.0665 -1.1470
  675MOL0     H91067  -0.050   1.736   6.926  0.3652 -1.5855 -1.4931
  675MOL0     H91068  -0.282   1.712   7.024  2.3270  1.1291  1.1331
  675MOL0     H91069  -0.337   1.723   6.858 -0.8776 -2.6972  1.7799
  675MOL0     H91070  -0.182   1.519   6.803  0.5702 -3.3125  1.3531
  675MOL0     H91071  -0.137   1.537   6.967  0.5586 -0.6994 -1.1336
  675MOL0     H91072  -0.287   1.364   6.989  2.4994  1.4380  2.1885
  675MOL0     H91073  -0.371   1.513   7.044  1.5546  0.7419 -0.3171
  675MOL0     H91074  -0.499   1.339   6.885 -0.7811  0.1820 -1.3623
  675MOL0     H91075  -0.390   1.416   6.758  0.0057 -2.3716 -0.0873
  675MOL0     H91076  -0.492   1.615   6.624  0.9349 -0.4491  0.5242
  675MOL0     H91077  -0.622   1.928   6.743 -1.1412  0.9327 -0.8213
  675MOL0     H91078  -0.549   1.835   6.605  0.7437 -1.1478  1.2556
  675MOL0     H91079  -0.851   1.821   6.654 -0.3940  0.8595  0.1650
  675MOL0     H91080  -0.752   1.788   6.516 -3.2618 -1.6777  0.8182
  675MOL0     H91081  -0.702   2.063   6.514  2.3062 -3.0205  0.4002
  675MOL0     H91082  -0.820   2.073   6.635  2.1912 -1.5676  1.6294
  675MOL0     H91083  -0.992   1.946   6.476 -2.5840  2.5469 -0.5220
  675MOL0     H91084  -0.856   1.944   6.366  0.0575 -0.5581  1.3847
  675MOL0     H91085  -0.966   2.382   6.430 -0.5012  0.1074 -0.8098
  675MOL0     H91086  -1.195   2.583   6.527 -0.3396 -1.5852 -0.4798
  675MOL0     H91087  -1.058   2.584   6.407 -0.1191  1.4599  0.7057
  675MOL0     H91088  -1.214   2.608   6.350 -0.9432 -0.9239  0.3909
  675MOL0     H91089  -1.651   2.457   6.115  2.3561 -2.4354  1.0549
  675MOL0     H91090  -1.873   2.496   6.083 -2.0376 -1.9378  1.1371
  675MOL0     H91091  -2.165   2.351   6.397 -0.7844 -0.3183  2.0544
  675MOL0     H91092  -2.118   2.502   6.474 -0.6380 -1.9931  0.5725
  675MOL0     H91093  -2.298   2.616   6.349 -1.7978 -0.2616 -2.6082
  675MOL0     H91094  -2.312   2.484   6.242 -1.2408  2.3611 -0.0421
  675MOL0     H91095  -2.409   2.465   6.527 -0.8979  0.4392 -0.2921
  675MOL0     H91096  -2.397   2.331   6.410 -0.1420 -1.0397 -0.9782
  675MOL0     H91097  -2.558   2.593   6.370 -0.1271 -0.0500 -1.4432
  675MOL0     H91098  -2.556   2.465   6.252 -1.7443  1.2033 -0.5317
  675MOL0     H91099  -2.642   2.428   6.542  4.6938  0.1149 -1.2216
  675MOL0     H91100  -2.668   2.317   6.409 -1.8681  0.0203  0.7302
  675MOL0     H91101  -2.793   2.599   6.399 -3.1599  0.7619 -0.6313
  675MOL0     H91102  -2.795   2.476   6.279  2.0072  2.2403  0.4188
  675MOL0     H91103  -2.969   2.546   6.495  0.8419  0.9220  0.3371
  675MOL0     H91104  -2.896   2.417   6.583 -0.4912  1.2511  0.4259
  675MOL0     H91105  -3.085   2.318   6.469  1.0357  0.1010  1.8063
  675MOL0     H91106  -2.943   2.262   6.382  1.1940  0.4670  0.1088
  675MOL0     H91107  -1.940   2.350   6.484 -0.5796 -3.3693 -1.1971
  675MOL0     H91108  -1.728   2.272   6.501 -1.2005  0.0130  0.1829
  675MOL0     H91109  -1.387   2.135   6.327 -1.5974  2.2826  0.2085
  675MOL0     H91110  -1.168   2.014   6.385 -0.5590  0.2387 -0.4275
  675MOL0     H91111   0.242   1.667   6.752  1.7836 -2.2372 -2.5442
  675MOL0     H91112   0.494   1.594   6.764  1.1590 -0.1225 -0.3242
  675MOL0     H91113   0.913   1.809   6.742  0.6236 -1.6789 -1.3176
  675MOL0     H91114   1.158   1.828   6.762 -0.6477  1.5444  0.8029
  675MOL0     H91115   1.352   1.840   7.131  0.6624 -0.3677 -0.5470
  675MOL0     H91116   1.406   1.681   7.096  1.0714 -1.0349  0.7191
  675MOL0     H91117   1.546   1.933   6.970 -0.3839 -0.0617 -0.0470
  675MOL0     H91118   1.593   1.761   6.962  0.1964 -1.4838  2.7662
  675MOL0     H91119   1.673   1.741   7.187  1.8854  1.2929 -0.0144
  675MOL0     H91120   1.573   1.866   7.241 -1.2741 -2.0120 -1.1948
  675MOL0     H91121   1.831   1.907   7.206  0.2950  0.8435  0.7954
  675MOL0     H91122   1.717   2.030   7.135 -0.0554 -0.3295 -2.0573
  675MOL0     H91123   1.949   1.893   6.808 -0.3339  0.3945 -1.1624
  675MOL0     H91124   1.154   1.711   7.174 -2.9692 -0.2348  1.1973
  675MOL0     H91125   0.899   1.677   7.147 -1.6839 -2.8057 -0.8949
  676MOL0     O91126   2.369   2.416   2.601  0.8588 -0.9967  0.6078
  676MOL0     C91127   2.409   2.383   2.487 -0.6290 -0.4296  0.7045
  676MOL0     O91128   2.329   2.372   2.375  0.2851 -0.0925  1.1756
  676MOL0     C91129   2.196   2.369   2.402  0.5395 -0.3700  0.1021
  676MOL0     C91130   2.116   2.254   2.372 -0.0341  0.1803  0.3968
  676MOL0     C91131   1.981   2.243   2.406 -0.5257  0.2198  0.2972
  676MOL0     C91132   1.910   2.353   2.468 -0.5405 -0.0279 -0.4691
  676MOL0     O91133   1.778   2.350   2.498 -0.5011  0.5823  0.5910
  676MOL0     C91134   1.675   2.403   2.418  0.3951  0.5054 -0.1832
  676MOL0     C91135   1.548   2.367   2.487  0.9079  0.1618  0.0385
  676MOL0     C91136   1.434   2.446   2.419  0.7108  0.3670  0.4913
  676MOL0     C91137   1.307   2.415   2.498 -0.2602 -0.2459 -0.5767
  676MOL0     C91138   1.185   2.506   2.469  0.0652 -0.5304 -0.0828
  676MOL0     C91139   1.079   2.466   2.578 -1.2286  0.1817  0.2234
  676MOL0     C91140   0.959   2.560   2.585 -0.2365  0.7265 -0.2018
  676MOL0     C91141   0.848   2.524   2.489 -0.0962  1.0049 -0.5269
  676MOL0     N91142   0.752   2.630   2.481  0.0516  1.1798  0.1740
  676MOL0     C91143   0.779   2.763   2.488  0.0725 -0.5904  0.0822
  676MOL0     C91144   0.657   2.821   2.490  0.2500 -0.2173  0.3377
  676MOL0     C91145   0.619   2.965   2.491  0.1852 -0.7323 -0.7780
  676MOL0     C91146   0.478   2.996   2.441 -0.4060 -0.0178 -0.1441
  676MOL0     C91147   0.424   3.139   2.475  0.9227 -0.1001  0.8707
  676MOL0     C91148   0.287   3.158   2.425  0.8023 -0.1645  0.0714
  676MOL0     O91149   0.247   3.298   2.418  0.0665  0.3651  0.5998
  676MOL0     C91150   0.123   3.341   2.377 -0.8826 -0.0807  0.8331
  676MOL0     C91151   0.015   3.267   2.384  0.3683  0.2289 -0.3995
  676MOL0     C91152  -0.114   3.314   2.355 -0.3372 -0.6937 -0.0579
  676MOL0     C91153  -0.231   3.216   2.374 -0.3726  0.1877 -0.0541
  676MOL0     C91154  -0.121   3.446   2.301  0.4691 -0.5404 -0.1557
  676MOL0     C91155  -0.249   3.515   2.248 -0.3062  0.6947 -0.0847
  676MOL0     O91156  -0.361   3.441   2.270 -0.2964 -0.0474  0.4570
  676MOL0     C91157  -0.482   3.485   2.227  1.2726 -0.2915  0.4567
  676MOL0     C91158  -0.534   3.605   2.283  0.8063 -0.3252  0.2867
  676MOL0     C91159  -0.670   3.650   2.252  0.2384  0.1895  0.5010
  676MOL0     C91160  -0.747   3.577   2.166 -0.0170  0.6223 -0.3160
  676MOL0     O91161  -0.868   3.628   2.135 -0.0113 -0.6341  0.1697
  676MOL0     C91162  -0.981   3.545   2.160 -0.3638 -0.0964  0.1051
  676MOL0     C91163  -1.088   3.642   2.210  1.3660  0.4275 -0.0889
  676MOL0     C91164  -1.071   3.681   2.357 -0.4782 -0.4787 -1.1775
  676MOL0     C91165  -1.114   3.560   2.445  0.6860  0.3473 -1.0028
  676MOL0     C91166  -1.133   3.612   2.588 -0.5006  0.4782 -0.4162
  676MOL0     C91167  -1.008   3.678   2.651 -0.2920 -0.6289 -0.6213
  676MOL0     C91168  -0.873   3.617   2.618 -0.4848  0.6749 -0.1264
  676MOL0     C91169  -0.765   3.669   2.708 -0.3090  0.1392 -0.4203
  676MOL0    Cl91170  -0.600   3.599   2.659  0.5699  0.2401  0.4784
  676MOL0     C91171  -0.701   3.452   2.126  0.7373  0.0630  0.5203
  676MOL0     C91172  -0.568   3.407   2.149 -0.0052 -0.2601 -0.1356
  676MOL0     O91173  -0.241   3.598   2.163 -0.2120  0.3101 -0.5962
  676MOL0     C91174  -0.008   3.528   2.301  0.2201  0.4219  0.4656
  676MOL0     C91175   0.118   3.471   2.340  0.3614  0.3152  0.3416
  676MOL0     N91176   0.562   2.725   2.508 -0.0272 -0.0380 -0.2602
  676MOL0     N91177   0.618   2.612   2.497 -0.4467  0.1743  0.0314
  676MOL0     C91178   1.984   2.465   2.490 -0.7201  0.2996  0.5938
  676MOL0     C91179   2.119   2.478   2.460 -0.1166  1.0186  0.1702
  676MOL0     C91180   2.557   2.376   2.467 -0.0588  0.4512 -0.5656
  676MOL0     C91181   2.649   2.362   2.579 -0.2992  0.2120 -0.2293
  676MOL0     C91182   2.789   2.370   2.551  0.9235  0.9007 -0.1706
  676MOL0     C91183   2.841   2.387   2.428  0.8942  0.3676  0.0790
  676MOL0     O91184   2.973   2.355   2.408  0.2985 -0.8102  0.3764
  676MOL0     C91185   3.035   2.402   2.297  0.5862  0.1256  0.7245
  676MOL0     C91186   3.187   2.402   2.320 -0.4503  1.1354  0.2189
  676MOL0     C91187   3.235   2.258   2.315 -0.2412  0.5375  0.9379
  676MOL0     C91188   3.386   2.251   2.324 -0.1254  0.7400 -0.2869
  676MOL0     C91189   3.433   2.111   2.318  0.6145 -0.4962  0.3859
  676MOL0     C91190   3.438   1.994   2.302 -0.3088 -0.1151 -0.0827
  676MOL0     C91191   2.752   2.399   2.327 -0.0988  0.1037  0.1003
  676MOL0     C91192   2.617   2.400   2.340  0.2055  0.2961  0.2578
  676MOL0     H91193   2.164   2.177   2.313 -1.5809  0.8704 -1.9393
  676MOL0     H91194   1.936   2.145   2.393  1.4084 -1.0538  2.4482
  676MOL0     H91195   1.682   2.512   2.409  1.3498  0.5515  0.9669
  676MOL0     H91196   1.683   2.355   2.320  2.5201 -0.4333  0.3889
  676MOL0     H91197   1.519   2.261   2.477 -0.8017  0.7236 -1.8547
  676MOL0     H91198   1.551   2.397   2.592 -0.0543  0.6061 -0.0472
  676MOL0     H91199   1.458   2.552   2.413 -0.8716  0.8131  1.4960
  676MOL0     H91200   1.410   2.429   2.314 -2.4243  3.4187  0.5341
  676MOL0     H91201   1.272   2.314   2.476  0.1544 -0.6618  0.6030
  676MOL0     H91202   1.331   2.409   2.605  0.2715 -3.3368 -0.7842
  676MOL0     H91203   1.201   2.613   2.485 -2.3438 -0.1984  0.5389
  676MOL0     H91204   1.139   2.479   2.373 -0.8275  1.3385 -0.2171
  676MOL0     H91205   1.047   2.364   2.556  0.5065 -0.0473 -1.6185
  676MOL0     H91206   1.135   2.476   2.672  0.1151  0.6183 -0.5920
  676MOL0     H91207   0.899   2.552   2.675 -2.2254 -0.6963 -1.5661
  676MOL0     H91208   1.010   2.655   2.568 -0.0376  0.2407 -2.7389
  676MOL0     H91209   0.805   2.426   2.511  0.8189  0.4466 -1.1149
  676MOL0     H91210   0.895   2.527   2.390 -1.4539  1.7254 -1.1656
  676MOL0     H91211   0.869   2.824   2.482  0.3753 -1.0494 -0.1153
  676MOL0     H91212   0.625   2.986   2.598  1.1688 -0.1978 -0.9214
  676MOL0     H91213   0.703   3.019   2.446  3.0392 -3.2677  1.0608
  676MOL0     H91214   0.404   2.925   2.480  1.9490 -1.5549  1.7631
  676MOL0     H91215   0.479   2.979   2.333 -1.3821  0.2451 -0.2105
  676MOL0     H91216   0.484   3.223   2.441 -0.1454  1.1166  1.8604
  676MOL0     H91217   0.421   3.150   2.584 -1.9561  0.7558  0.7944
  676MOL0     H91218   0.220   3.104   2.493  1.7320  0.5977  1.6678
  676MOL0     H91219   0.292   3.118   2.324  1.5364  0.7720 -0.2864
  676MOL0     H91220   0.023   3.173   2.437  1.7007  2.1971  3.2087
  676MOL0     H91221  -0.270   3.199   2.273 -0.7402 -2.5071  0.4585
  676MOL0     H91222  -0.193   3.120   2.410  0.0352 -0.6278 -2.4650
  676MOL0     H91223  -0.304   3.258   2.444 -2.3410 -1.1386 -1.2285
  676MOL0     H91224  -0.477   3.664   2.354 -1.7907  0.0189  2.2655
  676MOL0     H91225  -0.711   3.747   2.281 -0.1775 -0.9644  4.2918
  676MOL0     H91226  -1.009   3.508   2.061 -1.5027  0.0168  0.3654
  676MOL0     H91227  -0.965   3.452   2.215  3.8429 -0.8548 -2.0391
  676MOL0     H91228  -1.086   3.733   2.150 -1.3331  0.1616 -0.6826
  676MOL0     H91229  -1.187   3.596   2.205  0.3582  2.4148  0.8025
  676MOL0     H91230  -1.133   3.767   2.383  1.9104  0.4899  2.0096
  676MOL0     H91231  -0.967   3.715   2.366 -0.5256 -0.2782 -1.3903
  676MOL0     H91232  -1.204   3.505   2.416  0.1712 -0.8864  2.4311
  676MOL0     H91233  -1.036   3.485   2.446  0.9990  0.6716 -0.9261
  676MOL0     H91234  -1.143   3.516   2.639  0.6701 -0.8099 -2.4661
  676MOL0     H91235  -1.216   3.683   2.583 -1.1528  0.1161  2.9725
  676MOL0     H91236  -0.993   3.778   2.610  0.7833  1.1028  3.5067
  676MOL0     H91237  -1.014   3.689   2.759  0.2099 -0.2028 -0.6313
  676MOL0     H91238  -0.833   3.627   2.517  2.2318 -1.4047  0.5946
  676MOL0     H91239  -0.880   3.511   2.645  0.6258  0.7678  0.6304
  676MOL0     H91240  -0.778   3.628   2.809 -0.6339  0.7265 -0.2181
  676MOL0     H91241  -0.775   3.778   2.705 -2.8623 -0.0148  0.3779
  676MOL0     H91242  -0.766   3.386   2.070  0.9871  0.2464  0.0084
  676MOL0     H91243  -0.530   3.310   2.118 -0.5234  0.0503 -1.8041
  676MOL0     H91244  -0.002   3.629   2.262  1.9913  0.6564  1.2015
  676MOL0     H91245   0.208   3.529   2.321 -0.9847  1.7454 -2.3327
  676MOL0     H91246   1.936   2.550   2.537 -0.8581 -1.0651  3.0776
  676MOL0     H91247   2.170   2.569   2.492  0.4353  0.3330  1.3216
  676MOL0     H91248   2.605   2.349   2.678 -2.9155  0.8675 -1.2174
  676MOL0     H91249   2.851   2.350   2.638 -0.5630 -0.1490  0.7065
  676MOL0     H91250   3.007   2.338   2.213  1.0432  2.6738 -1.4941
  676MOL0     H91251   3.005   2.503   2.269 -0.8314 -1.0239 -2.2347
  676MOL0     H91252   3.227   2.445   2.412  0.3625  2.6668 -0.8047
  676MOL0     H91253   3.238   2.460   2.243  0.5110  0.1423  0.0840
  676MOL0     H91254   3.195   2.218   2.222  2.9164 -0.7433  0.0242
  676MOL0     H91255   3.192   2.193   2.392 -0.3512  1.3323  1.5697
  676MOL0     H91256   3.430   2.293   2.415  1.6627  0.6183 -1.0445
  676MOL0     H91257   3.440   2.308   2.248  0.6174  1.3801  0.6865
  676MOL0     H91258   3.429   1.887   2.296  1.6558 -0.5087  2.4334
  676MOL0     H91259   2.786   2.396   2.224  0.2393 -0.8645  0.2276
  676MOL0     H91260   2.546   2.421   2.260 -0.9966  1.0456  1.4690
  677MOL0     O91261   0.895  10.861   0.825 -0.6119 -0.6529  0.4024
  677MOL0     C91262   0.971  10.804   0.749  0.8343 -0.7537  0.3315
  677MOL0     O91263   0.940  10.696   0.673 -0.0441 -0.0382  0.0208
  677MOL0     C91264   0.835  10.610   0.711 -0.2555  0.1568 -0.2370
  677MOL0     C91265   0.851  10.516   0.811  0.2927 -0.5906 -0.0919
  677MOL0     C91266   0.755  10.431   0.853 -0.1078 -0.2490 -0.5896
  677MOL0     C91267   0.630  10.445   0.798 -0.2810  0.1093 -0.1003
  677MOL0     O91268   0.542  10.362   0.855  0.2550  0.1979 -0.3739
  677MOL0     C91269   0.437  10.315   0.766  0.2157  0.0464  0.4327
  677MOL0     C91270   0.324  10.254   0.858 -0.6108  0.5705 -0.2598
  677MOL0     C91271   0.257  10.357   0.958  0.6835  0.5849  0.5192
  677MOL0     C91272   0.127  10.289   1.008 -0.1094 -0.8931 -0.3570
  677MOL0     C91273   0.129  10.191   1.126 -0.5470 -1.4960  0.7792
  677MOL0     C91274   0.003  10.143   1.196 -0.0161  0.0884  0.2021
  677MOL0     C91275  -0.074  10.041   1.109  0.0216  0.6160  1.0031
  677MOL0     C91276  -0.193   9.975   1.174 -0.2359 -0.4250 -0.6329
  677MOL0     N91277  -0.297  10.063   1.213  0.3124 -0.4309  0.1406
  677MOL0     C91278  -0.428  10.054   1.163 -0.6920  0.1049 -0.4234
  677MOL0     C91279  -0.496  10.131   1.250 -0.5416 -0.3934 -0.1109
  677MOL0     C91280  -0.633  10.194   1.233  0.9645  0.5922  0.3996
  677MOL0     C91281  -0.747  10.109   1.291  0.2066  0.0438  0.3925
  677MOL0     C91282  -0.777  10.162   1.433  0.3653  0.1735 -0.5501
  677MOL0     C91283  -0.896  10.091   1.493 -0.3955 -0.1484 -0.2896
  677MOL0     O91284  -1.018  10.113   1.419 -0.0284 -0.0830 -0.1653
  677MOL0     C91285  -1.143  10.091   1.475  1.2124  0.7937  0.6773
  677MOL0     C91286  -1.257  10.077   1.389 -0.4004 -0.2025  0.7180
  677MOL0     C91287  -1.387  10.058   1.440  0.4306  0.1893  0.4081
  677MOL0     C91288  -1.501  10.040   1.338  0.3353 -0.8489  1.2721
  677MOL0     C91289  -1.413  10.061   1.576  0.0005 -0.0338  0.9167
  677MOL0     C91290  -1.540  10.048   1.642  0.1858 -0.0319  0.5325
  677MOL0     O91291  -1.627   9.948   1.607 -0.4896  0.4043  0.3436
  677MOL0     C91292  -1.754   9.948   1.667 -0.1145 -0.2545  0.8576
  677MOL0     C91293  -1.774   9.901   1.792  0.7645  0.2076 -0.0255
  677MOL0     C91294  -1.901   9.909   1.839  0.2874 -0.0887 -0.4088
  677MOL0     C91295  -2.010   9.971   1.765 -0.3127  0.1736  1.0622
  677MOL0     O91296  -2.126   9.962   1.827 -0.0327  0.8666  0.6393
  677MOL0     C91297  -2.232   9.918   1.742  0.5780 -0.3718 -0.4623
  677MOL0     C91298  -2.350   9.891   1.842  0.3578  0.1588  0.3596
  677MOL0     C91299  -2.420  10.002   1.925 -0.6305  0.2102  0.6570
  677MOL0     C91300  -2.502   9.951   2.034  0.3709  0.3838  0.6085
  677MOL0     C91301  -2.586  10.060   2.087  0.1587  0.5510 -0.6027
  677MOL0     C91302  -2.670  10.014   2.202  0.8708 -0.5384 -0.4529
  677MOL0     C91303  -2.768  10.119   2.249 -0.0669  0.0887 -0.1003
  677MOL0     C91304  -2.878  10.067   2.338 -0.0241  0.0250 -0.8386
  677MOL0    Cl91305  -2.958   9.912   2.280  0.4588 -0.2477 -0.0846
  677MOL0     C91306  -1.986  10.023   1.639 -0.3677  0.3857 -0.0001
  677MOL0     C91307  -1.864   9.998   1.586 -0.3306  0.8830 -0.1588
  677MOL0     O91308  -1.559  10.137   1.728  0.5577  0.1625 -0.1204
  677MOL0     C91309  -1.304  10.087   1.661  0.6715 -0.5772 -0.1542
  677MOL0     C91310  -1.176  10.106   1.612  0.0824  0.7615 -0.2952
  677MOL0     N91311  -0.414  10.170   1.360  0.5857  0.5407  1.1833
  677MOL0     N91312  -0.297  10.121   1.340 -0.0027  0.2691 -0.5958
  677MOL0     C91313   0.607  10.530   0.686  0.6206 -0.2501  0.0536
  677MOL0     C91314   0.709  10.607   0.641 -1.2337 -0.1973 -0.5779
  677MOL0     C91315   1.095  10.880   0.722  1.1320 -0.6567 -0.2818
  677MOL0     C91316   1.179  10.835   0.613  0.8864 -0.1475  0.0088
  677MOL0     C91317   1.299  10.901   0.586  0.0499 -0.0005 -0.2625
  677MOL0     C91318   1.337  11.014   0.652 -0.4353  0.1139 -0.0972
  677MOL0     O91319   1.458  11.067   0.616  0.1114 -0.0451  0.0082
  677MOL0     C91320   1.488  11.203   0.654  0.2832  0.2998 -0.3240
  677MOL0     C91321   1.611  11.256   0.584  0.5594  0.5422  0.3615
  677MOL0     C91322   1.581  11.278   0.431  0.7492  0.5090 -0.8614
  677MOL0     C91323   1.711  11.302   0.357  0.4400 -0.5702  0.9104
  677MOL0     C91324   1.752  11.442   0.372 -0.1908  0.9991 -0.0708
  677MOL0     C91325   1.788  11.559   0.374 -0.1265  0.7761 -0.5361
  677MOL0     C91326   1.248  11.060   0.758 -0.4316  0.4429  0.8296
  677MOL0     C91327   1.135  10.991   0.796  0.3046  0.0173  0.2644
  677MOL0     H91328   0.945  10.515   0.866 -2.5569  0.0732  5.4394
  677MOL0     H91329   0.783  10.357   0.926  1.2453 -2.4181 -3.1267
  677MOL0     H91330   0.388  10.396   0.711 -1.7555 -0.8380  0.8008
  677MOL0     H91331   0.468  10.232   0.702 -1.0606 -1.3911  1.5924
  677MOL0     H91332   0.245  10.209   0.797 -0.2295 -2.8733  1.5298
  677MOL0     H91333   0.368  10.170   0.912  1.0562  1.0506 -0.8218
  677MOL0     H91334   0.316  10.398   1.041 -0.3064  0.8928  1.0805
  677MOL0     H91335   0.228  10.449   0.908  2.1784  0.7295 -0.1384
  677MOL0     H91336   0.073  10.370   1.057  3.1238  1.4898 -0.3955
  677MOL0     H91337   0.063  10.257   0.925 -0.4366  0.2765 -0.5798
  677MOL0     H91338   0.195  10.109   1.099  0.1109 -0.3692 -1.2215
  677MOL0     H91339   0.188  10.248   1.198  0.8432 -0.8526 -0.8090
  677MOL0     H91340   0.029  10.094   1.291 -0.2794 -0.3128  0.0732
  677MOL0     H91341  -0.061  10.226   1.226 -0.5741  0.4333 -1.8283
  677MOL0     H91342  -0.105  10.085   1.013  0.8347  1.5003  1.1302
  677MOL0     H91343  -0.002   9.971   1.067  0.5400  0.6039  1.8850
  677MOL0     H91344  -0.170   9.912   1.261  3.9986  2.5998  0.7878
  677MOL0     H91345  -0.223   9.898   1.103 -1.4485 -1.4644  0.9332
  677MOL0     H91346  -0.457  10.007   1.070  2.6108  0.8285 -1.9354
  677MOL0     H91347  -0.638  10.295   1.274 -1.1449  1.3943 -1.5988
  677MOL0     H91348  -0.650  10.203   1.125 -0.7568 -0.5151  0.5348
  677MOL0     H91349  -0.718  10.005   1.277  2.3205  0.4607  1.2290
  677MOL0     H91350  -0.838  10.136   1.236 -0.7842 -1.9908  0.9488
  677MOL0     H91351  -0.814  10.265   1.424  1.1770  0.4700 -0.6294
  677MOL0     H91352  -0.695  10.154   1.505 -2.2343 -0.5216  2.5796
  677MOL0     H91353  -0.910  10.136   1.592  1.4048 -2.8584  1.3130
  677MOL0     H91354  -0.874   9.986   1.513 -0.5773 -0.2207 -0.4669
  677MOL0     H91355  -1.233  10.084   1.283  0.1512 -1.1386  0.7714
  677MOL0     H91356  -1.455  10.068   1.243 -2.2754  1.1051  0.4433
  677MOL0     H91357  -1.541   9.939   1.326 -3.1752  0.4174  1.1081
  677MOL0     H91358  -1.581  10.113   1.358  2.7010  2.1524  0.5637
  677MOL0     H91359  -1.691   9.862   1.850 -2.7320 -4.1103  2.7383
  677MOL0     H91360  -1.919   9.856   1.932  2.8572 -0.0270  0.1880
  677MOL0     H91361  -2.267  10.001   1.681 -1.2409 -1.1951 -0.6128
  677MOL0     H91362  -2.209   9.823   1.693 -2.1514 -1.5574  0.3241
  677MOL0     H91363  -2.427   9.843   1.781  1.4272 -2.2322  0.7684
  677MOL0     H91364  -2.319   9.808   1.907  0.2222 -1.3775 -1.4587
  677MOL0     H91365  -2.490  10.046   1.854 -0.0500 -2.1649 -1.5448
  677MOL0     H91366  -2.351  10.078   1.963 -2.3271  0.9509  2.3945
  677MOL0     H91367  -2.567   9.869   2.000  0.1081  0.8526 -0.0325
  677MOL0     H91368  -2.439   9.909   2.113  0.0414 -2.3300 -0.4330
  677MOL0     H91369  -2.651  10.103   2.011 -2.5923  0.7122  1.6833
  677MOL0     H91370  -2.520  10.136   2.131  1.1235 -1.3233  1.3978
  677MOL0     H91371  -2.727   9.924   2.178 -1.5391  0.5181  0.8976
  677MOL0     H91372  -2.606   9.985   2.286 -1.5189 -0.1976  1.6036
  677MOL0     H91373  -2.801  10.180   2.165  1.7615  1.7354  0.2992
  677MOL0     H91374  -2.719  10.201   2.303 -2.8408 -0.2187  3.2429
  677MOL0     H91375  -2.952  10.147   2.349  2.3576  2.0818  1.6666
  677MOL0     H91376  -2.847  10.042   2.440 -0.1012 -0.7398 -1.0021
  677MOL0     H91377  -2.064  10.051   1.569 -0.9223  0.8403  0.7765
  677MOL0     H91378  -1.847  10.028   1.483  2.0920  0.9139  0.2104
  677MOL0     H91379  -1.325  10.097   1.767  1.8629 -0.3827  0.0789
  677MOL0     H91380  -1.093  10.115   1.681 -1.9185  1.4220  2.1585
  677MOL0     H91381   0.511  10.526   0.634  0.1499 -2.5631  0.9710
  677MOL0     H91382   0.696  10.692   0.575  1.0515 -1.3481 -2.6979
  677MOL0     H91383   1.135  10.767   0.540 -1.5635  3.6308 -2.3862
  677MOL0     H91384   1.355  10.869   0.499 -0.6601 -2.2839  0.0526
  677MOL0     H91385   1.398  11.263   0.634 -1.2315 -1.3904  1.0012
  677MOL0     H91386   1.504  11.211   0.762 -3.6074 -0.2230  0.4545
  677MOL0     H91387   1.678  11.175   0.613 -2.9528 -2.9853 -0.5222
  677MOL0     H91388   1.648  11.351   0.623  0.8671  1.0329 -1.0632
  677MOL0     H91389   1.516  11.366   0.419  1.9805  1.6404  0.4510
  677MOL0     H91390   1.535  11.187   0.390  1.9022  0.0459 -1.1610
  677MOL0     H91391   1.684  11.290   0.252 -0.6705 -0.2566  1.1509
  677MOL0     H91392   1.788  11.228   0.383  1.1731 -0.1921 -0.1262
  677MOL0     H91393   1.811  11.663   0.360 -0.4496  0.6792 -1.9432
  677MOL0     H91394   1.294  11.140   0.815 -1.1595  2.5810 -1.4223
  677MOL0     H91395   1.079  11.027   0.882  1.2568  2.8612 -0.2052
  678MOL0     O91396   0.434   3.738   8.453 -0.0331  0.5539 -0.5546
  678MOL0     C91397   0.476   3.635   8.402 -1.2461  0.0009 -0.0955
  678MOL0     O91398   0.407   3.533   8.361  0.1228  0.4144  0.5024
  678MOL0     C91399   0.268   3.544   8.379 -0.2270  0.1000  0.4056
  678MOL0     C91400   0.193   3.641   8.312  0.0680  0.5601 -0.5183
  678MOL0     C91401   0.056   3.645   8.320  0.8886  0.1762  0.1539
  678MOL0     C91402  -0.016   3.540   8.391 -0.2030 -1.0221 -0.5138
  678MOL0     O91403  -0.149   3.523   8.402  0.1475 -0.5473  0.9229
  678MOL0     C91404  -0.248   3.627   8.400 -0.3444 -0.0721 -0.5580
  678MOL0     C91405  -0.383   3.582   8.469 -0.7940 -0.2552  1.3501
  678MOL0     C91406  -0.432   3.456   8.405  0.4161 -0.8584 -0.6322
  678MOL0     C91407  -0.536   3.399   8.500 -0.0510  0.3687  0.0003
  678MOL0     C91408  -0.605   3.283   8.435 -0.0535  0.2279  0.0890
  678MOL0     C91409  -0.705   3.211   8.525 -0.2170 -0.4153  0.8978
  678MOL0     C91410  -0.829   3.293   8.562 -0.2435  0.4058 -0.5043
  678MOL0     C91411  -0.918   3.201   8.654 -0.2722 -0.0055 -0.5406
  678MOL0     N91412  -1.064   3.241   8.667 -0.5141  0.4508  0.5375
  678MOL0     C91413  -1.109   3.361   8.727 -0.5381 -0.2547 -0.2535
  678MOL0     C91414  -1.247   3.356   8.716 -0.3124 -0.3351  0.1306
  678MOL0     C91415  -1.353   3.460   8.768 -0.6518 -0.0099 -0.8782
  678MOL0     C91416  -1.409   3.450   8.906 -1.2147 -0.3503  0.1926
  678MOL0     C91417  -1.478   3.306   8.933 -0.4383 -0.6193 -0.0375
  678MOL0     C91418  -1.583   3.271   8.831 -0.0187 -0.2826 -0.0016
  678MOL0     O91419  -1.678   3.375   8.839  0.2258  0.6874 -0.3422
  678MOL0     C91420  -1.803   3.350   8.792  0.5370  0.7603  0.7881
  678MOL0     C91421  -1.832   3.247   8.698  0.8477 -0.5084 -0.0668
  678MOL0     C91422  -1.961   3.223   8.665 -0.2581  0.3503  0.9004
  678MOL0     C91423  -1.978   3.113   8.560 -0.7351 -0.2310  0.2000
  678MOL0     C91424  -2.072   3.290   8.725 -0.5263  1.0947 -0.3878
  678MOL0     C91425  -2.213   3.259   8.689 -0.4893  0.2118  0.6768
  678MOL0     O91426  -2.288   3.374   8.671  0.9039  0.0316 -0.1013
  678MOL0     C91427  -2.420   3.343   8.644  0.3836 -0.3672 -0.2826
  678MOL0     C91428  -2.476   3.406   8.528  0.1888  0.3724  0.4567
  678MOL0     C91429  -2.613   3.376   8.492  0.4784 -0.3040 -0.3045
  678MOL0     C91430  -2.676   3.275   8.555  0.5294  0.3533 -0.3468
  678MOL0     O91431  -2.802   3.226   8.526  0.3641  0.2464 -0.9816
  678MOL0     C91432  -2.814   3.173   8.397 -0.6074  0.6131 -0.3464
  678MOL0     C91433  -2.942   3.083   8.383  0.6246  0.4033 -0.4803
  678MOL0     C91434  -2.935   2.960   8.479 -0.4926  0.2442  0.4605
  678MOL0     C91435  -2.965   3.000   8.628  0.4317  0.4464  0.1134
  678MOL0     C91436  -3.005   2.864   8.692  0.3099 -0.0018 -0.0051
  678MOL0     C91437  -3.158   2.839   8.685 -0.1986 -0.1766 -0.2353
  678MOL0     C91438  -3.205   2.743   8.795  0.3749  0.2330 -0.8140
  678MOL0     C91439  -3.285   2.625   8.746  1.2042  0.1572 -1.0439
  678MOL0    Cl91440  -3.458   2.687   8.733 -0.1643  0.0672 -0.5447
  678MOL0     C91441  -2.627   3.222   8.671 -0.1157 -0.6537  0.2258
  678MOL0     C91442  -2.500   3.263   8.720  0.2822  0.9311 -0.4723
  678MOL0     O91443  -2.250   3.144   8.683 -0.2269  0.1367 -0.2784
  678MOL0     C91444  -2.035   3.391   8.819  0.5781  0.2161  0.4057
  678MOL0     C91445  -1.900   3.419   8.847  0.2494  0.0655 -0.3532
  678MOL0     N91446  -1.274   3.239   8.652 -0.2979 -0.6485 -0.1415
  678MOL0     N91447  -1.170   3.173   8.621  0.4276  0.6919  0.1320
  678MOL0     C91448   0.062   3.448   8.466 -0.2563 -0.0995 -0.1982
  678MOL0     C91449   0.208   3.454   8.465  0.3778 -0.0595 -0.0389
  678MOL0     C91450   0.621   3.621   8.395 -0.7598  0.0765  0.0274
  678MOL0     C91451   0.698   3.681   8.490  0.4968 -1.0972  0.1491
  678MOL0     C91452   0.834   3.672   8.489 -0.5572 -0.7224  0.9570
  678MOL0     C91453   0.905   3.598   8.393 -0.3048  0.4845  0.0024
  678MOL0     O91454   1.042   3.601   8.392  0.0951 -0.1605 -0.1369
  678MOL0     C91455   1.125   3.506   8.319 -0.5107 -0.1759 -0.1353
  678MOL0     C91456   1.268   3.549   8.330 -0.0994 -0.7515  0.3101
  678MOL0     C91457   1.314   3.541   8.478 -0.4993 -0.4476 -0.1114
  678MOL0     C91458   1.463   3.564   8.479  0.6525  0.0094  0.3270
  678MOL0     C91459   1.556   3.448   8.452  0.1256  0.2058  0.1447
  678MOL0     C91460   1.645   3.371   8.436 -0.3183 -0.1116  0.2443
  678MOL0     C91461   0.819   3.530   8.301 -0.2758  0.4665  0.2746
  678MOL0     C91462   0.685   3.539   8.306  0.9825  0.2382 -0.0452
  678MOL0     H91463   0.243   3.707   8.242 -3.2466  0.0994 -3.6017
  678MOL0     H91464  -0.005   3.727   8.281 -0.3837 -1.1650 -0.7839
  678MOL0     H91465  -0.203   3.715   8.447  0.3318  0.6908 -2.5455
  678MOL0     H91466  -0.274   3.657   8.299  3.6157  2.4132 -1.0358
  678MOL0     H91467  -0.368   3.573   8.577 -0.8509 -0.6607  1.3259
  678MOL0     H91468  -0.459   3.660   8.457  0.8227  1.4053  1.3411
  678MOL0     H91469  -0.476   3.471   8.306 -2.1906 -1.1883  0.3730
  678MOL0     H91470  -0.346   3.389   8.402  0.1127 -1.2263 -1.2152
  678MOL0     H91471  -0.488   3.371   8.594 -1.2722 -2.1286 -0.0270
  678MOL0     H91472  -0.600   3.485   8.524  1.0320  1.2536 -0.2310
  678MOL0     H91473  -0.646   3.322   8.341  2.9871  1.2690 -0.9399
  678MOL0     H91474  -0.523   3.215   8.409 -0.6573 -0.7629  0.7235
  678MOL0     H91475  -0.735   3.115   8.482  0.2563  0.5239 -1.7671
  678MOL0     H91476  -0.657   3.184   8.619 -0.0065  0.9138  1.1894
  678MOL0     H91477  -0.798   3.380   8.620  0.5130 -0.9518  1.2211
  678MOL0     H91478  -0.887   3.329   8.476 -1.9252 -0.3672  0.2485
  678MOL0     H91479  -0.870   3.214   8.752  3.0377  2.2660 -2.2774
  678MOL0     H91480  -0.908   3.100   8.614  0.5509  0.4321 -1.4944
  678MOL0     H91481  -1.045   3.428   8.786  0.7384 -1.9753  0.3993
  678MOL0     H91482  -1.295   3.553   8.761  0.9713 -1.0092 -1.1038
  678MOL0     H91483  -1.437   3.464   8.698 -2.1891  0.1932  0.9224
  678MOL0     H91484  -1.484   3.527   8.920 -1.1957 -0.5952  1.8700
  678MOL0     H91485  -1.331   3.460   8.983  0.4099 -1.2893 -1.2455
  678MOL0     H91486  -1.521   3.304   9.033  0.1143 -0.3012  0.2068
  678MOL0     H91487  -1.407   3.223   8.942 -0.4959 -0.8116 -1.1739
  678MOL0     H91488  -1.621   3.169   8.840  1.8802 -1.0507 -0.1431
  678MOL0     H91489  -1.531   3.279   8.735  0.7709  1.3267  0.5258
  678MOL0     H91490  -1.748   3.199   8.650 -0.6521 -2.0533 -1.2948
  678MOL0     H91491  -1.976   3.014   8.606 -0.1528  0.7260  2.3647
  678MOL0     H91492  -2.073   3.127   8.507 -0.4466 -0.0044 -0.2722
  678MOL0     H91493  -1.895   3.127   8.489 -1.0112 -0.0248 -0.0875
  678MOL0     H91494  -2.406   3.463   8.468 -0.2836  1.6126  1.0499
  678MOL0     H91495  -2.661   3.430   8.410  0.5386  2.5618  1.3933
  678MOL0     H91496  -2.825   3.257   8.327 -1.5281  0.9289  0.1581
  678MOL0     H91497  -2.733   3.107   8.367 -0.3852 -1.0024  3.2943
  678MOL0     H91498  -3.030   3.145   8.402 -0.2739 -0.3587 -2.0004
  678MOL0     H91499  -2.949   3.039   8.283 -2.9343 -0.0543 -0.1604
  678MOL0     H91500  -2.833   2.923   8.483 -1.0473 -1.2604  1.2935
  678MOL0     H91501  -3.001   2.887   8.431 -2.1970  3.0979 -1.9693
  678MOL0     H91502  -2.885   3.050   8.682 -1.1622  2.0196  1.1058
  678MOL0     H91503  -3.054   3.063   8.637 -0.8558 -1.3455  0.5392
  678MOL0     H91504  -2.974   2.879   8.795  1.5848 -0.5179 -0.2914
  678MOL0     H91505  -2.947   2.788   8.640  1.2633  2.1985 -2.3713
  678MOL0     H91506  -3.205   2.938   8.684  3.7645  1.9361 -1.4065
  678MOL0     H91507  -3.184   2.791   8.590  0.7766 -0.6763 -0.2601
  678MOL0     H91508  -3.262   2.791   8.875 -0.2803 -3.1353  0.9100
  678MOL0     H91509  -3.114   2.706   8.844 -0.1633  1.7808  1.4750
  678MOL0     H91510  -3.272   2.552   8.827  2.0725  1.4410  0.0148
  678MOL0     H91511  -3.244   2.561   8.667  2.0465 -1.7266  0.8149
  678MOL0     H91512  -2.691   3.154   8.727  0.2311 -3.6445 -2.6948
  678MOL0     H91513  -2.466   3.212   8.809 -3.2862 -1.5806 -0.3401
  678MOL0     H91514  -2.116   3.448   8.863  0.7537  0.3162  0.6001
  678MOL0     H91515  -1.889   3.484   8.933 -0.4313  0.1089 -0.2910
  678MOL0     H91516   0.018   3.378   8.536 -0.5198 -1.8214 -1.9945
  678MOL0     H91517   0.262   3.384   8.529 -2.0852 -0.1498  2.1195
  678MOL0     H91518   0.657   3.743   8.569  3.6097 -0.3125  1.2811
  678MOL0     H91519   0.890   3.734   8.559 -2.0705  3.4992 -1.2547
  678MOL0     H91520   1.114   3.400   8.346  1.0712 -0.3903 -0.2478
  678MOL0     H91521   1.086   3.520   8.218 -3.4607  2.6569  1.2010
  678MOL0     H91522   1.264   3.654   8.299 -1.9909 -0.7377  0.4744
  678MOL0     H91523   1.325   3.489   8.258 -1.8165 -1.0733 -0.8484
  678MOL0     H91524   1.286   3.444   8.519 -3.2599 -0.7447 -2.4447
  678MOL0     H91525   1.264   3.626   8.526  0.8578  0.3304 -0.0049
  678MOL0     H91526   1.491   3.593   8.580 -1.3838  4.1075 -0.0661
  678MOL0     H91527   1.471   3.643   8.404 -1.8808 -0.2431 -0.2990
  678MOL0     H91528   1.715   3.299   8.398 -1.1511 -0.6515 -0.3109
  678MOL0     H91529   0.874   3.472   8.227  0.6163 -1.6205  2.4479
  678MOL0     H91530   0.621   3.492   8.231  2.2477  0.4520 -1.2989
  679MOL0     O91531   3.101   5.799  10.184  0.4887 -0.7759  0.4318
  679MOL0     C91532   3.186   5.847  10.105  0.6823  0.7488  0.2938
  679MOL0     O91533   3.310   5.901  10.151 -0.5512 -0.8670 -0.4301
  679MOL0     C91534   3.355   5.882  10.276  0.1743 -0.5785  0.1413
  679MOL0     C91535   3.301   5.945  10.382  0.7536 -0.1987 -0.5945
  679MOL0     C91536   3.326   5.899  10.511 -0.2350  0.4278 -0.1586
  679MOL0     C91537   3.422   5.802  10.545 -0.0729 -0.1460 -0.2599
  679MOL0     O91538   3.455   5.769  10.672 -0.4180  0.0788  0.2674
  679MOL0     C91539   3.598   5.772  10.700 -0.9552  0.0070  0.2685
  679MOL0     C91540   3.605   5.758  10.850  0.2505  0.2497 -0.3598
  679MOL0     C91541   3.541   5.876  10.921  0.1919 -0.0715 -0.8982
  679MOL0     C91542   3.421   5.823  10.993 -0.3198 -0.2637 -0.5543
  679MOL0     C91543   3.342   5.933  11.069 -0.4546 -0.1474 -0.9816
  679MOL0     C91544   3.215   5.875  11.122 -0.3695  0.2537  0.2753
  679MOL0     C91545   3.127   5.994  11.171 -0.5119 -0.0105 -0.3371
  679MOL0     C91546   2.999   5.934  11.222  0.2919 -0.3662 -0.8042
  679MOL0     N91547   2.915   6.053  11.258 -0.3265  0.4425 -0.4810
  679MOL0     C91548   2.962   6.148  11.344 -0.1945 -0.5514 -0.6187
  679MOL0     C91549   2.852   6.227  11.359 -0.8048  0.6330 -0.2251
  679MOL0     C91550   2.860   6.358  11.430 -0.3587 -0.7036 -0.2903
  679MOL0     C91551   2.822   6.343  11.575  0.8479  0.2132  0.2506
  679MOL0     C91552   2.684   6.299  11.606  0.0914 -0.7763  0.7843
  679MOL0     C91553   2.592   6.394  11.542  0.7767 -0.6312  0.1096
  679MOL0     O91554   2.478   6.379  11.627  0.8133 -0.5382  0.1211
  679MOL0     C91555   2.351   6.423  11.589 -0.0853  0.0229  0.2019
  679MOL0     C91556   2.333   6.518  11.486 -0.9316 -0.5012 -0.7004
  679MOL0     C91557   2.211   6.557  11.436  0.4691 -0.1825 -0.1016
  679MOL0     C91558   2.206   6.630  11.305 -0.6463 -0.4051  0.2277
  679MOL0     C91559   2.094   6.508  11.505 -0.0055  0.1897 -0.8104
  679MOL0     C91560   1.958   6.538  11.468  0.4859 -0.0972  0.4883
  679MOL0     O91561   1.862   6.453  11.512 -0.0925 -0.1723 -1.1145
  679MOL0     C91562   1.735   6.483  11.490  0.3233  0.1469 -0.7403
  679MOL0     C91563   1.646   6.467  11.598 -0.1576 -0.0925  0.1037
  679MOL0     C91564   1.513   6.470  11.579 -0.4813 -0.3482  0.1734
  679MOL0     C91565   1.459   6.485  11.445 -0.2523  0.6685  0.3476
  679MOL0     O91566   1.333   6.519  11.424  0.1079  0.3932 -0.8111
  679MOL0     C91567   1.239   6.478  11.520  0.3591 -0.2959 -0.9212
  679MOL0     C91568   1.104   6.512  11.466  0.4315  0.0938 -0.2177
  679MOL0     C91569   1.002   6.458  11.566  0.6131 -0.7325  0.2645
  679MOL0     C91570   0.959   6.314  11.534 -0.3121 -0.3049 -0.3189
  679MOL0     C91571   0.860   6.261  11.637 -0.0481 -0.2366  1.2792
  679MOL0     C91572   0.814   6.121  11.600  0.3648 -0.4333 -0.1526
  679MOL0     C91573   0.716   6.084  11.710 -0.1517  0.4184  0.0277
  679MOL0     C91574   0.677   5.934  11.689 -0.1924  0.6327 -0.1347
  679MOL0    Cl91575   0.568   5.915  11.553  0.1582 -0.2944  0.0233
  679MOL0     C91576   1.549   6.490  11.337  0.0015  1.1221  0.2819
  679MOL0     C91577   1.687   6.501  11.359  0.1660  0.2705 -0.3109
  679MOL0     O91578   1.935   6.645  11.404 -1.0054  0.4823 -0.6788
  679MOL0     C91579   2.110   6.414  11.613  0.0309  0.4050  0.1112
  679MOL0     C91580   2.237   6.366  11.648  0.8462 -0.2572 -0.2691
  679MOL0     N91581   2.745   6.176  11.295 -0.2078  0.5046  0.2086
  679MOL0     N91582   2.777   6.062  11.241 -0.6454  0.0593 -0.2410
  679MOL0     C91583   3.478   5.745  10.434  0.1970 -0.0565 -0.2447
  679MOL0     C91584   3.441   5.778  10.305 -0.1031  0.7969  0.8653
  679MOL0     C91585   3.164   5.834   9.960 -0.0560 -0.6166  1.4319
  679MOL0     C91586   3.044   5.770   9.912  0.5401  0.2421 -0.8284
  679MOL0     C91587   3.018   5.757   9.774 -0.2073  0.2514 -0.7969
  679MOL0     C91588   3.112   5.811   9.680  0.5110  0.2577 -0.5828
  679MOL0     O91589   3.079   5.809   9.553 -0.2298  0.1646  0.2302
  679MOL0     C91590   3.075   5.679   9.494 -0.5916  0.1243 -0.1958
  679MOL0     C91591   3.182   5.647   9.390  0.3500 -0.1288  0.3315
  679MOL0     C91592   3.322   5.646   9.455  0.8895 -0.7930 -0.7776
  679MOL0     C91593   3.330   5.562   9.585 -0.2916  0.9946  0.0860
  679MOL0     C91594   3.310   5.425   9.546 -0.1551  0.3351 -0.4134
  679MOL0     C91595   3.293   5.313   9.516  0.7868 -0.0660  0.6851
  679MOL0     C91596   3.219   5.879   9.727  0.1812  0.0876 -0.6076
  679MOL0     C91597   3.245   5.888   9.862  0.4059 -0.0114 -0.0743
  679MOL0     H91598   3.227   6.023  10.367  0.6548 -0.6130 -2.5867
  679MOL0     H91599   3.273   5.938  10.597 -0.2252  0.5226 -0.1951
  679MOL0     H91600   3.651   5.692  10.647 -1.8498 -0.6774  0.3786
  679MOL0     H91601   3.643   5.868  10.674  1.2811 -1.0327  0.0972
  679MOL0     H91602   3.579   5.660  10.888 -0.0901  1.3449  2.4525
  679MOL0     H91603   3.707   5.767  10.890  0.4722 -0.3602 -0.7778
  679MOL0     H91604   3.614   5.922  10.989  1.4905  1.2420 -3.0624
  679MOL0     H91605   3.503   5.951  10.850  1.6420  2.5239  0.8723
  679MOL0     H91606   3.363   5.789  10.907 -1.8740 -2.8779  1.3909
  679MOL0     H91607   3.453   5.738  11.054 -0.3427 -0.2821 -0.5677
  679MOL0     H91608   3.410   5.969  11.146  0.2266  3.2464 -2.9888
  679MOL0     H91609   3.321   6.023  11.012 -0.7850  0.6817  0.4166
  679MOL0     H91610   3.163   5.826  11.039  1.3478 -0.6957 -0.3034
  679MOL0     H91611   3.240   5.802  11.200  2.0516 -1.4951 -1.9178
  679MOL0     H91612   3.181   6.047  11.251  0.4855  0.4562 -1.2998
  679MOL0     H91613   3.110   6.066  11.090  0.0787  0.0584 -0.4066
  679MOL0     H91614   3.018   5.871  11.309 -0.3715  0.9386  0.3116
  679MOL0     H91615   2.948   5.876  11.144 -0.9995 -0.4451  0.0689
  679MOL0     H91616   3.059   6.160  11.390 -2.3710  0.8521  4.2764
  679MOL0     H91617   2.962   6.398  11.432 -0.2446 -1.0260  0.9120
  679MOL0     H91618   2.801   6.434  11.378  0.3879  0.2482  0.2053
  679MOL0     H91619   2.834   6.437  11.628 -2.5775  0.6267  0.5068
  679MOL0     H91620   2.890   6.267  11.615 -2.4545 -3.5679 -0.6893
  679MOL0     H91621   2.678   6.310  11.715  2.6099  2.7227  0.7139
  679MOL0     H91622   2.670   6.197  11.568 -0.4362 -0.2534 -0.4777
  679MOL0     H91623   2.561   6.366  11.441 -0.5636  0.6596  0.1330
  679MOL0     H91624   2.628   6.497  11.542  0.5901 -0.5363  2.1283
  679MOL0     H91625   2.421   6.561  11.439  1.0320 -1.6719  1.7009
  679MOL0     H91626   2.304   6.660  11.268 -0.3669 -1.5552 -0.0153
  679MOL0     H91627   2.159   6.568  11.228 -1.6410  0.5447  0.0424
  679MOL0     H91628   2.142   6.718  11.315 -0.2935 -0.2948  1.7082
  679MOL0     H91629   1.681   6.447  11.699  1.7407  0.8271 -0.3180
  679MOL0     H91630   1.449   6.470  11.667 -0.2379  2.6716  0.4581
  679MOL0     H91631   1.248   6.370  11.533 -0.4869 -0.4185 -1.2666
  679MOL0     H91632   1.258   6.528  11.615 -0.3773 -1.0350 -0.3761
  679MOL0     H91633   1.082   6.616  11.437 -0.7807 -0.6655 -2.2858
  679MOL0     H91634   1.094   6.445  11.380  0.8427 -1.4711  0.9241
  679MOL0     H91635   0.918   6.527  11.563  1.8285  0.8654  1.1737
  679MOL0     H91636   1.051   6.464  11.664  1.2185  1.1592 -0.1119
  679MOL0     H91637   0.919   6.314  11.432 -1.3723 -1.7925  0.0527
  679MOL0     H91638   1.047   6.249  11.538  1.8861  2.5132  4.1414
  679MOL0     H91639   0.770   6.324  11.640 -0.3117 -0.5950  0.9774
  679MOL0     H91640   0.907   6.265  11.736  3.0992 -0.1878 -0.1163
  679MOL0     H91641   0.762   6.115  11.504 -1.5954  2.0323  0.6533
  679MOL0     H91642   0.904   6.060  11.596 -0.2104 -1.2361 -2.0675
  679MOL0     H91643   0.624   6.143  11.705 -0.0912  0.4535 -3.3222
  679MOL0     H91644   0.759   6.097  11.809  0.2078  0.7793 -0.1706
  679MOL0     H91645   0.627   5.894  11.777 -2.3991 -1.1577 -2.0606
  679MOL0     H91646   0.765   5.870  11.680 -1.2836 -1.5522  3.0531
  679MOL0     H91647   1.516   6.509  11.236 -0.0890  1.8336  0.4396
  679MOL0     H91648   1.750   6.496  11.270 -1.9973 -1.1806 -1.8530
  679MOL0     H91649   2.029   6.378  11.676  0.3097 -2.2080 -0.8714
  679MOL0     H91650   2.251   6.291  11.725 -0.0494 -1.7777 -1.5314
  679MOL0     H91651   3.558   5.672  10.437  0.5738  0.3649 -0.0199
  679MOL0     H91652   3.482   5.725  10.220  1.0801  1.4116  1.0394
  679MOL0     H91653   2.975   5.729   9.985  0.4763  0.1171 -0.9579
  679MOL0     H91654   2.926   5.711   9.739 -0.2388 -2.2294  2.1060
  679MOL0     H91655   3.068   5.595   9.564 -1.1462 -0.2860 -0.7281
  679MOL0     H91656   2.984   5.682   9.434 -1.6419  0.6601  1.3763
  679MOL0     H91657   3.172   5.713   9.303 -1.1777 -0.7160  0.0315
  679MOL0     H91658   3.153   5.547   9.357 -4.2638  0.7308  1.1751
  679MOL0     H91659   3.349   5.751   9.471  1.2329 -0.8987 -0.6501
  679MOL0     H91660   3.395   5.617   9.380  0.6781  3.1769 -2.8107
  679MOL0     H91661   3.268   5.590   9.670  1.2990 -1.7289  2.2878
  679MOL0     H91662   3.433   5.573   9.622 -0.9446  1.1299  1.9505
  679MOL0     H91663   3.281   5.215   9.472  1.5479  0.2674 -0.2984
  679MOL0     H91664   3.283   5.927   9.654 -0.5946  0.4104 -1.0829
  679MOL0     H91665   3.333   5.948   9.883  0.4944 -0.1096 -0.1647
  680MOL0     O91666   3.416   1.965   9.365  0.6826  0.1346  0.1882
  680MOL0     C91667   3.404   1.909   9.250  0.2195  0.2481  0.3803
  680MOL0     O91668   3.505   1.896   9.151  0.4084 -0.9136 -0.4478
  680MOL0     C91669   3.634   1.891   9.203 -0.4157 -0.8927  0.3852
  680MOL0     C91670   3.744   1.975   9.150  1.0394 -0.0213 -0.9812
  680MOL0     C91671   3.873   1.958   9.203 -0.2307 -0.4205 -1.0794
  680MOL0     C91672   3.899   1.871   9.308  0.1773 -0.1184  0.3413
  680MOL0     O91673   4.029   1.849   9.356  0.8214 -0.5755 -0.7303
  680MOL0     C91674   4.076   1.726   9.412 -0.4255  0.9250 -0.5373
  680MOL0     C91675   4.114   1.631   9.296  1.0218  0.0946  0.2843
  680MOL0     C91676   4.186   1.518   9.341 -0.2634  0.8149 -0.7102
  680MOL0     C91677   4.102   1.422   9.428 -0.1636  0.5870 -0.3185
  680MOL0     C91678   4.189   1.317   9.502  0.7705 -0.5235  0.2815
  680MOL0     C91679   4.095   1.236   9.593  0.6030  0.1342  0.1761
  680MOL0     C91680   4.180   1.179   9.706  0.1315 -0.3674 -0.4229
  680MOL0     C91681   4.121   1.046   9.763  0.4308 -0.3990 -0.7162
  680MOL0     N91682   4.024   1.076   9.864  0.7614 -0.2088  0.3915
  680MOL0     C91683   3.911   1.145   9.854  0.2744 -0.1177 -0.5074
  680MOL0     C91684   3.854   1.151   9.977  0.1157 -0.3975 -0.3903
  680MOL0     C91685   3.739   1.221  10.033  0.9453  0.0038 -0.9402
  680MOL0     C91686   3.616   1.252   9.938  0.8355  0.3951 -0.0174
  680MOL0     C91687   3.489   1.295  10.001 -0.0416 -0.1998  0.5011
  680MOL0     C91688   3.354   1.269   9.928  0.2744  0.5503  0.3829
  680MOL0     O91689   3.352   1.127   9.902 -0.1782  0.3593 -0.0307
  680MOL0     C91690   3.231   1.065   9.879 -0.1404  0.0987 -0.1331
  680MOL0     C91691   3.221   0.938   9.928 -1.0312 -0.0045 -0.4201
  680MOL0     C91692   3.113   0.851   9.903 -0.1853 -0.0078  0.9759
  680MOL0     C91693   3.129   0.707   9.952  0.4645  0.4522 -0.2395
  680MOL0     C91694   3.003   0.904   9.826 -0.9539 -0.0854 -0.2792
  680MOL0     C91695   2.873   0.840   9.783 -0.0279 -0.0087 -0.0747
  680MOL0     O91696   2.765   0.919   9.765  0.1861  1.2459 -0.1681
  680MOL0     C91697   2.670   0.863   9.688  0.8799 -0.4272  0.1204
  680MOL0     C91698   2.537   0.872   9.731  0.1342  0.6723  0.2424
  680MOL0     C91699   2.420   0.831   9.651 -0.2720  0.4695  0.1681
  680MOL0     C91700   2.445   0.778   9.525  0.8201 -0.2423 -1.0553
  680MOL0     O91701   2.334   0.728   9.454  0.2200  0.0458 -0.0015
  680MOL0     C91702   2.363   0.707   9.315  0.1200 -0.2865 -0.1093
  680MOL0     C91703   2.226   0.693   9.243 -0.1777 -0.3584 -0.6176
  680MOL0     C91704   2.142   0.577   9.293 -0.1404  1.0408  0.5699
  680MOL0     C91705   2.001   0.563   9.214  0.4129 -0.3021 -0.1509
  680MOL0     C91706   1.880   0.516   9.296  0.1557  0.0788 -0.0093
  680MOL0     C91707   1.751   0.505   9.215 -0.0526 -0.2968  0.0146
  680MOL0     C91708   1.626   0.479   9.308 -0.1438  0.0110  0.0821
  680MOL0     C91709   1.512   0.401   9.239  0.3065  0.7224  0.0584
  680MOL0    Cl91710   1.389   0.418   9.366 -0.0840  0.0774  0.0100
  680MOL0     C91711   2.582   0.773   9.472 -0.4610 -0.2672 -0.5340
  680MOL0     C91712   2.690   0.812   9.548  0.0914 -0.7353  0.0922
  680MOL0     O91713   2.873   0.719   9.790 -0.1157  0.5145 -0.0003
  680MOL0     C91714   3.014   1.041   9.785 -0.3844 -0.0119  0.2145
  680MOL0     C91715   3.124   1.116   9.816 -0.5551 -0.0568  0.5165
  680MOL0     N91716   3.942   1.092  10.064  1.3311 -0.3285 -0.3570
  680MOL0     N91717   4.042   1.044   9.994 -0.3619  0.2820  0.0168
  680MOL0     C91718   3.789   1.791   9.356 -0.6120 -0.7216 -0.4309
  680MOL0     C91719   3.665   1.799   9.302  0.1909  0.4700 -0.4757
  680MOL0     C91720   3.271   1.843   9.237  0.7363 -1.4599 -0.6305
  680MOL0     C91721   3.164   1.856   9.332  0.5332  0.3169 -1.1731
  680MOL0     C91722   3.045   1.781   9.311 -0.2787  0.0240 -1.0666
  680MOL0     C91723   3.024   1.701   9.200 -0.0291  0.0372  0.1009
  680MOL0     O91724   2.903   1.630   9.196  1.1697  0.0830  0.5837
  680MOL0     C91725   2.880   1.539   9.087  0.0609  0.8656 -0.0598
  680MOL0     C91726   2.788   1.420   9.137  0.4358 -0.0116 -0.2378
  680MOL0     C91727   2.747   1.325   9.023  0.2020 -0.1033  0.5214
  680MOL0     C91728   2.644   1.209   9.062 -0.6926 -0.9010  1.6994
  680MOL0     C91729   2.616   1.141   8.936 -0.2399 -0.4278  0.8651
  680MOL0     C91730   2.582   1.092   8.831  0.7458 -0.1888 -0.2688
  680MOL0     C91731   3.129   1.702   9.102 -0.2026 -0.3806  0.2359
  680MOL0     C91732   3.257   1.756   9.125 -0.5598 -0.0040  0.6199
  680MOL0     H91733   3.737   2.051   9.072 -0.4242  2.9925  1.8241
  680MOL0     H91734   3.957   2.017   9.166 -0.0333 -0.3283 -0.4979
  680MOL0     H91735   4.157   1.749   9.482 -0.7579 -1.4518  0.7124
  680MOL0     H91736   4.001   1.672   9.469 -3.2230  1.0504 -3.7829
  680MOL0     H91737   4.019   1.602   9.250 -1.0783  0.7190  3.8042
  680MOL0     H91738   4.171   1.690   9.224  1.0109 -0.0268  0.1761
  680MOL0     H91739   4.236   1.456   9.265  1.1003  1.2776 -0.2248
  680MOL0     H91740   4.270   1.547   9.405  0.5667 -1.7464 -0.5015
  680MOL0     H91741   4.046   1.480   9.501  1.0088  1.5165 -0.1157
  680MOL0     H91742   4.027   1.371   9.368 -0.1172 -1.1381  0.9813
  680MOL0     H91743   4.246   1.254   9.434 -1.4596  0.2274 -2.4415
  680MOL0     H91744   4.249   1.383   9.565 -1.7579  0.0952  2.2083
  680MOL0     H91745   4.012   1.291   9.639 -2.6049 -4.4271  0.5714
  680MOL0     H91746   4.043   1.165   9.527  0.1634 -1.2734  1.9762
  680MOL0     H91747   4.280   1.165   9.665  0.2246 -0.2576 -0.2318
  680MOL0     H91748   4.172   1.249   9.790 -0.0911 -0.0506 -0.7011
  680MOL0     H91749   4.195   0.977   9.806  0.7304 -1.0958 -2.2635
  680MOL0     H91750   4.065   0.994   9.685 -0.9428  1.4774 -1.0176
  680MOL0     H91751   3.872   1.189   9.763  0.3506 -0.7494 -0.8424
  680MOL0     H91752   3.697   1.164  10.116  3.5051 -0.2393  0.2609
  680MOL0     H91753   3.783   1.315  10.068 -1.7702  0.5921  1.3159
  680MOL0     H91754   3.606   1.159   9.881  0.8742 -0.7091  1.6928
  680MOL0     H91755   3.645   1.333   9.870  0.5234  1.0733  0.6506
  680MOL0     H91756   3.494   1.394  10.047 -1.2051  0.0603  0.1025
  680MOL0     H91757   3.471   1.229  10.087  0.8763 -0.0982  0.7839
  680MOL0     H91758   3.344   1.329   9.838  1.8977  1.3681  0.7068
  680MOL0     H91759   3.276   1.295  10.000  0.0414  1.4980 -0.2000
  680MOL0     H91760   3.301   0.892   9.985  1.5202  2.5555 -1.6503
  680MOL0     H91761   3.034   0.652   9.956 -0.9336  2.5973 -1.5204
  680MOL0     H91762   3.210   0.663   9.894  2.0704  0.0159  2.2088
  680MOL0     H91763   3.168   0.718  10.053 -0.9546  0.0709  0.3755
  680MOL0     H91764   2.513   0.920   9.825  0.2566  1.0880  0.0660
  680MOL0     H91765   2.318   0.848   9.686 -0.7070  1.7098 -1.5677
  680MOL0     H91766   2.420   0.789   9.271  1.3546  0.5997  2.9071
  680MOL0     H91767   2.413   0.610   9.303  1.3633  0.3032  0.1654
  680MOL0     H91768   2.166   0.784   9.248  1.2899  0.5773  0.4861
  680MOL0     H91769   2.258   0.672   9.141  2.5366  1.8731 -0.3244
  680MOL0     H91770   2.133   0.588   9.401  0.5693  1.0594  0.6338
  680MOL0     H91771   2.192   0.482   9.276 -4.1561 -1.5092  1.6277
  680MOL0     H91772   1.960   0.654   9.170 -1.0591 -1.2806 -0.9072
  680MOL0     H91773   2.018   0.488   9.135  0.0400  0.7261 -1.2350
  680MOL0     H91774   1.853   0.585   9.377  0.6328 -2.3088  2.3195
  680MOL0     H91775   1.890   0.423   9.353 -2.3237 -0.3459 -0.1493
  680MOL0     H91776   1.737   0.602   9.166 -0.7982  1.0700  2.7449
  680MOL0     H91777   1.766   0.420   9.149  0.1451 -1.2239  1.2278
  680MOL0     H91778   1.586   0.576   9.340  1.5540 -0.0513  2.6367
  680MOL0     H91779   1.650   0.428   9.401 -1.8677 -1.6801 -0.3464
  680MOL0     H91780   1.539   0.295   9.228  1.7293  0.9646  1.0298
  680MOL0     H91781   1.484   0.447   9.144  0.4272  0.3395 -0.1674
  680MOL0     H91782   2.599   0.741   9.370 -2.3456  0.0417 -0.9840
  680MOL0     H91783   2.790   0.812   9.505 -0.5333  0.1594 -1.4377
  680MOL0     H91784   2.930   1.087   9.734  1.2765  2.0369 -0.8269
  680MOL0     H91785   3.117   1.217   9.777  0.3581  0.4201  1.5161
  680MOL0     H91786   3.805   1.730   9.445 -1.5642  0.3967  0.5409
  680MOL0     H91787   3.594   1.724   9.333  2.4613 -1.5033  0.2297
  680MOL0     H91788   3.174   1.915   9.422  0.5116 -1.0218 -0.2649
  680MOL0     H91789   2.959   1.802   9.374  0.5390  1.0561 -0.2417
  680MOL0     H91790   2.827   1.601   9.014  1.0477  2.2591  0.3471
  680MOL0     H91791   2.973   1.491   9.058 -1.4199 -1.3536 -1.3632
  680MOL0     H91792   2.698   1.461   9.183  1.1876  2.9167 -1.2054
  680MOL0     H91793   2.835   1.357   9.214  0.9024 -2.0689 -2.0858
  680MOL0     H91794   2.837   1.284   8.977 -0.9375 -0.3456 -1.5813
  680MOL0     H91795   2.692   1.391   8.956  2.6062  0.5599 -0.9098
  680MOL0     H91796   2.554   1.261   9.095 -1.4822  1.2809 -3.0416
  680MOL0     H91797   2.681   1.127   9.124  0.8159 -1.8381 -0.3170
  680MOL0     H91798   2.530   1.041   8.752 -1.4704  1.1142  0.2704
  680MOL0     H91799   3.114   1.653   9.006 -0.8542  1.6010 -0.7326
  680MOL0     H91800   3.333   1.746   9.048  0.9318  0.6428  1.9491
  681MOL0     O91801   1.358   1.598   3.722 -0.5643 -0.3297  0.3383
  681MOL0     C91802   1.440   1.683   3.670  0.0543 -0.4490 -0.3923
  681MOL0     O91803   1.404   1.815   3.630 -0.2418 -0.7652  0.4198
  681MOL0     C91804   1.272   1.845   3.624 -0.6998  0.5320  0.1054
  681MOL0     C91805   1.176   1.761   3.564  0.2333  0.2297  0.3692
  681MOL0     C91806   1.043   1.802   3.563  0.6530  0.5980 -0.2262
  681MOL0     C91807   1.010   1.924   3.625  1.8976  0.1072 -0.2036
  681MOL0     O91808   0.878   1.960   3.614 -0.1868  0.4446  0.8675
  681MOL0     C91809   0.825   2.046   3.720  0.4376  0.5523  1.3751
  681MOL0     C91810   0.674   2.037   3.702 -0.3198 -0.3196  1.1062
  681MOL0     C91811   0.611   2.093   3.567 -0.4305  0.7698 -0.5028
  681MOL0     C91812   0.469   2.045   3.553  1.0056 -0.1205 -0.0717
  681MOL0     C91813   0.400   2.110   3.440 -0.3416 -0.6726  0.0453
  681MOL0     C91814   0.249   2.088   3.445 -0.3019  0.4372 -0.6213
  681MOL0     C91815   0.182   2.168   3.332 -0.5388  0.1384 -1.0761
  681MOL0     C91816   0.026   2.138   3.329  0.3775  0.6764 -0.2796
  681MOL0     N91817  -0.039   2.188   3.455 -0.4255 -0.9659 -0.2259
  681MOL0     C91818  -0.027   2.317   3.490 -0.1353  0.2635 -0.2828
  681MOL0     C91819  -0.059   2.320   3.623 -0.3826 -0.7513  0.0407
  681MOL0     C91820  -0.040   2.446   3.701 -0.5584  0.1973  0.3538
  681MOL0     C91821   0.114   2.490   3.715  0.4855  0.2084  0.5889
  681MOL0     C91822   0.203   2.395   3.800  0.4848 -1.1816  0.7952
  681MOL0     C91823   0.352   2.423   3.754  0.5833 -0.6375  0.0933
  681MOL0     O91824   0.442   2.354   3.837  0.5127  0.2581 -0.5094
  681MOL0     C91825   0.574   2.373   3.846 -0.0006 -0.3133  0.7100
  681MOL0     C91826   0.645   2.468   3.772  0.4931  0.1685 -0.4661
  681MOL0     C91827   0.783   2.484   3.780  1.1423 -0.1631  0.2566
  681MOL0     C91828   0.840   2.596   3.709  0.3916  0.5631  0.0439
  681MOL0     C91829   0.859   2.406   3.876  0.2358 -0.2138  0.4426
  681MOL0     C91830   1.000   2.434   3.877  0.8549 -0.5171  0.1081
  681MOL0     O91831   1.070   2.386   3.773 -0.4002  0.2076  0.4111
  681MOL0     C91832   1.203   2.401   3.779 -0.3904  0.5313 -1.1159
  681MOL0     C91833   1.265   2.507   3.716 -0.3530 -0.0109 -0.6703
  681MOL0     C91834   1.398   2.535   3.729 -0.8286  0.8729  0.1980
  681MOL0     C91835   1.483   2.454   3.799  0.4529 -0.0535 -0.3013
  681MOL0     O91836   1.613   2.490   3.820 -0.3726  0.9126 -0.5136
  681MOL0     C91837   1.697   2.506   3.710 -0.0304 -0.3493  0.4347
  681MOL0     C91838   1.838   2.527   3.750 -0.6233 -0.6789  0.7462
  681MOL0     C91839   1.923   2.473   3.639  0.6794  0.6269 -0.6914
  681MOL0     C91840   2.069   2.512   3.660 -0.3649 -0.6655 -0.3865
  681MOL0     C91841   2.163   2.466   3.543 -0.0111  0.4672 -0.1925
  681MOL0     C91842   2.294   2.538   3.555 -0.6543 -0.6232 -0.5057
  681MOL0     C91843   2.389   2.521   3.440 -0.3300 -0.2200 -0.3743
  681MOL0     C91844   2.521   2.597   3.456  0.3033  0.8325 -0.3831
  681MOL0    Cl91845   2.498   2.749   3.529 -0.6381 -0.5981  0.2104
  681MOL0     C91846   1.426   2.343   3.863 -0.1960  0.3514 -0.4031
  681MOL0     C91847   1.286   2.317   3.854  0.0373 -0.1129 -0.1144
  681MOL0     O91848   1.047   2.488   3.978 -0.8749  0.1958  0.0470
  681MOL0     C91849   0.786   2.305   3.946  0.3564  0.7021 -0.0435
  681MOL0     C91850   0.643   2.304   3.945 -1.3000 -0.5338  0.1960
  681MOL0     N91851  -0.073   2.184   3.665  0.1539  1.0569  0.4734
  681MOL0     N91852  -0.078   2.110   3.561 -0.3845  0.9401  1.0746
  681MOL0     C91853   1.103   1.998   3.686 -0.1851  0.5074 -0.4067
  681MOL0     C91854   1.238   1.964   3.678 -0.4707 -0.4392 -0.2759
  681MOL0     C91855   1.568   1.630   3.630 -0.1986 -0.0527 -0.2127
  681MOL0     C91856   1.671   1.714   3.581  0.0009 -0.5910 -0.5232
  681MOL0     C91857   1.796   1.662   3.546  0.1280 -0.3663 -0.2350
  681MOL0     C91858   1.831   1.536   3.568 -0.2337 -0.6079  0.3969
  681MOL0     O91859   1.961   1.486   3.543 -0.0505  0.0584  0.5453
  681MOL0     C91860   2.069   1.567   3.580  0.3152  0.0971  0.3373
  681MOL0     C91861   2.152   1.490   3.689 -0.0568  0.7111  0.5106
  681MOL0     C91862   2.244   1.390   3.614  0.2736 -0.4635 -0.7073
  681MOL0     C91863   2.175   1.301   3.519  0.1551  0.2880  0.3163
  681MOL0     C91864   2.269   1.194   3.481  0.1912 -0.3385  0.4874
  681MOL0     C91865   2.328   1.104   3.428  0.3172  0.2120 -0.4361
  681MOL0     C91866   1.732   1.451   3.621 -0.6772  0.2728  0.0214
  681MOL0     C91867   1.608   1.501   3.660  1.0854  0.7541  0.6614
  681MOL0     H91868   1.207   1.670   3.514  1.0465  0.5208  0.3388
  681MOL0     H91869   0.970   1.732   3.524  1.7982 -0.6083 -0.2689
  681MOL0     H91870   0.865   2.010   3.815 -1.9485 -0.7426  1.9694
  681MOL0     H91871   0.851   2.152   3.708 -2.4942  1.0071 -3.7447
  681MOL0     H91872   0.651   1.930   3.705  0.1173 -0.4285  0.6446
  681MOL0     H91873   0.626   2.087   3.787 -1.3587 -0.9912  0.9346
  681MOL0     H91874   0.620   2.200   3.587  0.9282  0.3674  1.3536
  681MOL0     H91875   0.668   2.071   3.476  0.3408 -2.1914  0.5841
  681MOL0     H91876   0.468   1.936   3.540 -1.3749  0.0162 -1.6810
  681MOL0     H91877   0.411   2.060   3.644  0.2494 -1.8597 -0.2347
  681MOL0     H91878   0.427   2.215   3.442 -0.8605 -0.5309 -0.1042
  681MOL0     H91879   0.437   2.066   3.347 -0.8322  0.7792 -0.8615
  681MOL0     H91880   0.219   1.985   3.428  0.1736  0.3434 -0.9194
  681MOL0     H91881   0.209   2.116   3.543  0.1808  1.6327 -0.7434
  681MOL0     H91882   0.202   2.274   3.349 -2.7446  0.8783 -2.7020
  681MOL0     H91883   0.223   2.145   3.233  2.5635 -3.2321  0.7308
  681MOL0     H91884   0.007   2.031   3.316 -0.4422  0.5969  1.3764
  681MOL0     H91885  -0.016   2.190   3.242  1.4989 -0.0385 -1.2969
  681MOL0     H91886   0.003   2.402   3.430 -0.6009 -0.6824 -1.9131
  681MOL0     H91887  -0.095   2.528   3.653  2.7550  0.9665 -2.4851
  681MOL0     H91888  -0.081   2.438   3.802 -1.2266 -1.1562  0.0057
  681MOL0     H91889   0.112   2.592   3.754 -0.3457  0.4877 -0.1527
  681MOL0     H91890   0.140   2.511   3.611  1.0572 -1.4559  0.3602
  681MOL0     H91891   0.189   2.287   3.788  2.6237 -1.2634 -2.0198
  681MOL0     H91892   0.193   2.416   3.907  1.5289  1.3276  0.4614
  681MOL0     H91893   0.376   2.529   3.749  1.3076 -0.8547 -2.8010
  681MOL0     H91894   0.368   2.386   3.652 -0.2844 -0.7529 -0.0043
  681MOL0     H91895   0.586   2.537   3.712  1.3053  2.1093  0.8728
  681MOL0     H91896   0.908   2.666   3.759  4.1188 -2.4049 -0.4312
  681MOL0     H91897   0.893   2.550   3.626 -0.1102 -3.1645  1.6064
  681MOL0     H91898   0.758   2.656   3.668  0.3043 -0.4106 -1.2590
  681MOL0     H91899   1.192   2.570   3.666  0.8651  0.7874 -1.4901
  681MOL0     H91900   1.436   2.626   3.684  0.2141 -0.0095 -0.7896
  681MOL0     H91901   1.678   2.416   3.652 -1.6001  0.7552 -0.8325
  681MOL0     H91902   1.659   2.580   3.639 -0.4520 -1.3427 -0.4057
  681MOL0     H91903   1.847   2.636   3.752  0.6734 -0.7215 -0.5893
  681MOL0     H91904   1.873   2.484   3.844  1.6662  2.7769  1.6670
  681MOL0     H91905   1.892   2.503   3.539  0.4914  0.5521 -0.6551
  681MOL0     H91906   1.924   2.365   3.649 -1.9988  0.5571 -0.4725
  681MOL0     H91907   2.070   2.621   3.650 -2.2080 -0.6627 -0.8948
  681MOL0     H91908   2.095   2.486   3.763 -5.1232  1.0852  1.5055
  681MOL0     H91909   2.114   2.483   3.447  0.1342  0.7268 -0.2219
  681MOL0     H91910   2.189   2.359   3.549  0.2954  0.5084 -0.6750
  681MOL0     H91911   2.275   2.646   3.559 -4.3828 -1.1831  2.2998
  681MOL0     H91912   2.336   2.512   3.652 -3.5283  2.6982  1.8889
  681MOL0     H91913   2.336   2.550   3.349  1.2458 -0.0567 -1.2795
  681MOL0     H91914   2.422   2.417   3.425  1.7449  0.5482 -1.5109
  681MOL0     H91915   2.572   2.607   3.360 -0.8899  2.4097 -0.8926
  681MOL0     H91916   2.584   2.536   3.522  1.0521  0.5689 -1.3257
  681MOL0     H91917   1.481   2.285   3.936 -1.8495  1.6945  2.0980
  681MOL0     H91918   1.237   2.242   3.915  1.7303 -3.3216 -2.4409
  681MOL0     H91919   0.844   2.243   4.014 -1.0706  1.3092  1.8291
  681MOL0     H91920   0.588   2.229   4.001  0.0940 -1.0974  0.8592
  681MOL0     H91921   1.093   2.092   3.738 -0.1706 -0.0661  0.6582
  681MOL0     H91922   1.309   2.035   3.719 -1.4941 -0.2426  1.2445
  681MOL0     H91923   1.655   1.820   3.567 -0.1806 -0.6274 -0.5954
  681MOL0     H91924   1.880   1.724   3.517  1.7327 -0.9655  2.6688
  681MOL0     H91925   2.126   1.576   3.487  0.6369 -1.6835  0.3331
  681MOL0     H91926   2.028   1.661   3.618 -2.6741  0.4396 -3.1516
  681MOL0     H91927   2.078   1.440   3.752  0.5295 -0.5061  0.2505
  681MOL0     H91928   2.213   1.555   3.753  1.6120 -2.1040  1.9708
  681MOL0     H91929   2.289   1.326   3.691  1.2266  1.7484  0.7108
  681MOL0     H91930   2.319   1.454   3.566  0.8189  0.4689  1.2446
  681MOL0     H91931   2.149   1.351   3.425  1.1090 -1.2616 -0.8247
  681MOL0     H91932   2.084   1.254   3.557  0.5132 -1.2172 -0.6284
  681MOL0     H91933   2.362   1.021   3.369 -1.1895 -0.8216  0.0899
  681MOL0     H91934   1.756   1.346   3.637 -0.4240  0.2249 -0.6187
  681MOL0     H91935   1.547   1.424   3.707  0.7715 -0.2240 -1.2586
  682MOL0     O91936   9.790   8.317   1.364  0.4253 -0.4422  0.1277
  682MOL0     C91937   9.894   8.251   1.353  0.6405 -0.0418 -0.2776
  682MOL0     O91938   9.917   8.133   1.407  0.1087 -0.0018 -0.0415
  682MOL0     C91939   9.838   8.070   1.493  0.3102 -0.1601 -0.7200
  682MOL0     C91940   9.844   7.932   1.489 -0.2908  0.4159 -0.2774
  682MOL0     C91941   9.746   7.858   1.554  0.9819  0.6108  0.4701
  682MOL0     C91942   9.657   7.916   1.636 -1.0129 -0.3019 -0.1729
  682MOL0     O91943   9.561   7.843   1.701 -0.2962  0.2752 -0.1059
  682MOL0     C91944   9.456   7.911   1.771  0.0415  0.1989  0.2018
  682MOL0     C91945   9.356   7.815   1.828  0.5598  0.0505 -0.6855
  682MOL0     C91946   9.244   7.903   1.893  0.4272 -0.5818  0.1622
  682MOL0     C91947   9.155   7.962   1.791 -0.0096  0.1715  0.1159
  682MOL0     C91948   9.022   7.999   1.846 -0.8369 -0.0862  0.5927
  682MOL0     C91949   8.939   8.073   1.742 -0.6938  0.4992  0.3282
  682MOL0     C91950   8.793   8.083   1.792 -0.0985 -0.3405  0.5901
  682MOL0     C91951   8.724   8.193   1.716  0.0414  0.3432 -0.1828
  682MOL0     N91952   8.701   8.174   1.574 -0.3504 -1.1479  0.2028
  682MOL0     C91953   8.797   8.182   1.473 -0.0729 -0.9809 -0.1946
  682MOL0     C91954   8.729   8.155   1.359  0.4649  1.0437 -0.1033
  682MOL0     C91955   8.786   8.141   1.216  0.7890 -0.6012 -1.4764
  682MOL0     C91956   8.799   8.273   1.143  0.8012  0.9565 -1.4127
  682MOL0     C91957   8.838   8.239   1.001  0.3432 -0.5214  0.2141
  682MOL0     C91958   8.983   8.199   0.975 -0.9717  0.0377 -0.1876
  682MOL0     O91959   9.025   8.250   0.847 -0.2668 -0.6711  0.2060
  682MOL0     C91960   9.162   8.253   0.823 -0.0934  1.0576 -0.2890
  682MOL0     C91961   9.228   8.367   0.787 -0.2191  0.6561 -0.1702
  682MOL0     C91962   9.359   8.373   0.751 -0.0079 -0.4669 -0.0474
  682MOL0     C91963   9.406   8.506   0.697 -0.5489  0.5620  0.1053
  682MOL0     C91964   9.442   8.259   0.765 -0.0621 -0.2479 -0.3855
  682MOL0     C91965   9.585   8.259   0.738  0.6315  0.0275  0.1808
  682MOL0     O91966   9.659   8.379   0.748  0.0550  0.1950 -0.0083
  682MOL0     C91967   9.795   8.363   0.741 -0.2150 -0.7158 -0.5549
  682MOL0     C91968   9.868   8.439   0.646 -0.3745 -0.0394  0.1755
  682MOL0     C91969  10.003   8.428   0.631 -0.7475  0.1758 -0.0284
  682MOL0     C91970  10.076   8.346   0.717 -0.2817  0.9439 -1.5059
  682MOL0     O91971  10.217   8.324   0.719  0.6182 -0.1063 -0.2346
  682MOL0     C91972  10.276   8.367   0.600 -0.5456  0.2334  0.8067
  682MOL0     C91973  10.404   8.292   0.577  0.3084  0.0904  0.5110
  682MOL0     C91974  10.376   8.147   0.543  0.4560 -0.3706 -0.2075
  682MOL0     C91975  10.494   8.068   0.482 -0.1945  0.7488  0.0601
  682MOL0     C91976  10.637   8.079   0.548 -0.1168 -0.5292  0.0620
  682MOL0     C91977  10.733   7.969   0.494 -0.5012 -0.3259  0.8018
  682MOL0     C91978  10.869   7.983   0.558 -0.0096  0.1528 -1.1288
  682MOL0     C91979  10.963   7.872   0.498  0.4667 -0.1609  0.4647
  682MOL0    Cl91980  11.120   7.842   0.595 -0.1931 -0.5079 -0.0868
  682MOL0     C91981  10.007   8.269   0.815 -0.1567  0.3665 -0.0718
  682MOL0     C91982   9.867   8.274   0.815  0.2598  0.8200 -0.7360
  682MOL0     O91983   9.637   8.151   0.707  0.4664  0.3084 -0.2583
  682MOL0     C91984   9.381   8.138   0.819  0.7035  0.2511  0.4685
  682MOL0     C91985   9.238   8.139   0.842  0.2462  0.5429 -1.0099
  682MOL0     N91986   8.598   8.123   1.387 -0.4540  0.0932 -0.5723
  682MOL0     N91987   8.585   8.135   1.515  0.1619  0.0796 -0.0860
  682MOL0     C91988   9.664   8.061   1.656 -0.3795  0.4998 -0.6212
  682MOL0     C91989   9.752   8.135   1.580  0.1527 -0.3841 -0.2663
  682MOL0     C91990  10.008   8.304   1.269 -0.3439 -0.1342 -0.0131
  682MOL0     C91991  10.111   8.225   1.217  0.3290  0.0419 -0.5999
  682MOL0     C91992  10.212   8.265   1.132  0.5119  0.3219  0.6476
  682MOL0     C91993  10.214   8.402   1.097 -1.0589  0.1333 -0.8473
  682MOL0     O91994  10.292   8.475   1.011 -0.0140 -0.1551 -0.1045
  682MOL0     C91995  10.401   8.409   0.951  0.5587  0.3159  0.1529
  682MOL0     C91996  10.528   8.385   1.044  1.0748 -0.8473  0.3526
  682MOL0     C91997  10.646   8.348   0.960 -0.4005 -0.2256  0.2338
  682MOL0     C91998  10.717   8.464   0.890 -0.3540  0.1857  0.2218
  682MOL0     C91999  10.790   8.415   0.772 -1.0253  0.5532 -0.4347
  682MOL0     C92000  10.833   8.360   0.672 -0.1005  0.0622 -0.3212
  682MOL0     C92001  10.107   8.481   1.141  0.3725  0.5451  0.5448
  682MOL0     C92002   9.999   8.436   1.224 -0.5173  0.0307  0.1076
  682MOL0     H92003   9.919   7.891   1.423  1.6478 -0.4392  2.3138
  682MOL0     H92004   9.738   7.750   1.551  3.6519  0.3395 -3.2164
  682MOL0     H92005   9.488   7.971   1.857 -1.0267 -0.4347  1.0678
  682MOL0     H92006   9.401   7.980   1.707 -0.3061  1.6946  2.0320
  682MOL0     H92007   9.306   7.767   1.744 -1.0914  2.9340 -1.4685
  682MOL0     H92008   9.389   7.748   1.908 -2.5202 -2.4728 -1.2957
  682MOL0     H92009   9.185   7.840   1.960  1.4169  1.0026  2.6461
  682MOL0     H92010   9.292   7.980   1.953  1.6925  0.7933 -2.4261
  682MOL0     H92011   9.205   8.050   1.749  0.5286 -0.2738 -0.2023
  682MOL0     H92012   9.131   7.896   1.706 -0.1356  1.4248 -0.8425
  682MOL0     H92013   8.972   7.907   1.880  0.4279 -1.3382 -0.8259
  682MOL0     H92014   9.036   8.065   1.933  0.1424  0.7224 -0.1614
  682MOL0     H92015   8.967   8.179   1.735 -0.5933  0.6042  1.9787
  682MOL0     H92016   8.955   8.035   1.640  2.5905  3.9042 -0.6840
  682MOL0     H92017   8.737   7.989   1.791 -1.1547  0.2507 -1.4732
  682MOL0     H92018   8.800   8.102   1.900 -2.5041 -0.6284  0.8558
  682MOL0     H92019   8.778   8.285   1.738 -1.7345  1.5090 -0.4538
  682MOL0     H92020   8.624   8.203   1.758  0.2044  0.8216  0.0931
  682MOL0     H92021   8.902   8.197   1.497  0.7013 -2.9864 -2.0154
  682MOL0     H92022   8.889   8.108   1.232  0.9376  1.2025  2.2728
  682MOL0     H92023   8.731   8.065   1.159 -2.4763 -0.0493  0.6818
  682MOL0     H92024   8.880   8.334   1.183  0.4658 -0.1008  1.0950
  682MOL0     H92025   8.715   8.340   1.164  1.3194  0.2336  5.0909
  682MOL0     H92026   8.829   8.330   0.940  1.0621  0.1192  1.0382
  682MOL0     H92027   8.765   8.170   0.958  1.9651  0.7215 -5.3600
  682MOL0     H92028   9.007   8.092   0.980  2.2204  0.6667  0.1012
  682MOL0     H92029   9.036   8.256   1.051 -2.2836 -0.0993  0.8759
  682MOL0     H92030   9.163   8.452   0.766  0.4707  1.0595 -0.6962
  682MOL0     H92031   9.325   8.560   0.646 -1.2614 -1.4304 -1.0066
  682MOL0     H92032   9.445   8.559   0.784  2.2057  0.4949 -1.0019
  682MOL0     H92033   9.484   8.502   0.621 -2.1115  2.1946 -1.6892
  682MOL0     H92034   9.799   8.494   0.583  0.2553 -1.3801 -1.7701
  682MOL0     H92035  10.048   8.484   0.550 -2.2240 -0.0512 -1.0474
  682MOL0     H92036  10.219   8.342   0.510 -0.4535 -2.1491  1.3375
  682MOL0     H92037  10.292   8.475   0.606 -1.0582  0.2240  2.9243
  682MOL0     H92038  10.461   8.343   0.499  0.7395  0.6196  1.1566
  682MOL0     H92039  10.461   8.290   0.671 -1.8155 -3.9342  1.9833
  682MOL0     H92040  10.292   8.139   0.473  0.6542  0.8965 -0.6295
  682MOL0     H92041  10.352   8.093   0.635  1.7981 -1.0618 -0.2506
  682MOL0     H92042  10.464   7.963   0.482 -0.0658  0.6719  2.3000
  682MOL0     H92043  10.504   8.094   0.376  0.6763 -4.0876 -1.2978
  682MOL0     H92044  10.626   8.087   0.656  0.3254  0.9531  0.0085
  682MOL0     H92045  10.694   8.168   0.523  1.1913 -0.9245  1.5062
  682MOL0     H92046  10.676   7.875   0.501 -1.2724  0.0797  0.0351
  682MOL0     H92047  10.740   7.991   0.387  0.4424  1.6630  1.2270
  682MOL0     H92048  10.868   7.968   0.666 -0.6995  3.4428 -0.5787
  682MOL0     H92049  10.908   8.081   0.531  0.2451  0.8021  1.3322
  682MOL0     H92050  10.981   7.901   0.394  1.0608 -3.7564 -0.5809
  682MOL0     H92051  10.917   7.773   0.484 -0.5844  0.5238 -1.1458
  682MOL0     H92052  10.064   8.202   0.879 -1.1609 -2.0643 -1.5561
  682MOL0     H92053   9.811   8.209   0.882  0.4629 -1.9465 -3.0659
  682MOL0     H92054   9.440   8.049   0.838  2.7129  1.9579  3.1050
  682MOL0     H92055   9.190   8.054   0.887  2.3369  0.2773  0.9138
  682MOL0     H92056   9.600   8.120   1.722  0.8453  0.8460  0.2908
  682MOL0     H92057   9.745   8.243   1.586  0.9108 -0.3519  0.1247
  682MOL0     H92058  10.100   8.120   1.242  3.1266 -0.7328 -2.2656
  682MOL0     H92059  10.289   8.199   1.094  1.7251  2.0111  0.0565
  682MOL0     H92060  10.358   8.311   0.928 -3.1222  1.7560  0.2009
  682MOL0     H92061  10.428   8.472   0.865 -1.4025  2.9915  1.3640
  682MOL0     H92062  10.498   8.319   1.126 -1.6734 -0.7829 -0.4760
  682MOL0     H92063  10.543   8.481   1.094 -3.1134  1.0206 -1.4873
  682MOL0     H92064  10.612   8.284   0.877  1.4965  2.7803 -3.1567
  682MOL0     H92065  10.718   8.294   1.021  2.2325 -0.4149 -2.7581
  682MOL0     H92066  10.781   8.517   0.961  1.8875  1.5980 -2.6376
  682MOL0     H92067  10.642   8.535   0.854  0.1100 -0.0572 -1.2931
  682MOL0     H92068  10.867   8.317   0.580 -1.0622 -0.3538 -0.4886
  682MOL0     H92069  10.109   8.582   1.102  0.7333 -0.0084 -0.9298
  682MOL0     H92070   9.920   8.504   1.254 -1.5327 -0.6004 -1.0702
  683MOL0     O92071   4.891   0.750   1.069 -0.4979  0.2195  0.1452
  683MOL0     C92072   4.923   0.652   0.998 -0.7094 -0.4575 -0.1289
  683MOL0     O92073   4.843   0.553   0.952  0.1616 -0.6129  0.2635
  683MOL0     C92074   4.718   0.546   1.008 -0.6253 -0.0265 -0.0025
  683MOL0     C92075   4.628   0.653   1.008  0.7816 -0.7736  0.1333
  683MOL0     C92076   4.488   0.637   1.056 -0.7539  0.0193  0.1893
  683MOL0     C92077   4.452   0.502   1.093  0.4862  0.1455  0.9439
  683MOL0     O92078   4.326   0.478   1.139 -0.2057 -0.0582 -0.3269
  683MOL0     C92079   4.223   0.571   1.103  0.2219  0.6836 -0.3221
  683MOL0     C92080   4.090   0.517   1.165  0.3102 -0.3219  0.1917
  683MOL0     C92081   3.970   0.612   1.137  0.6037 -0.0893  0.7006
  683MOL0     C92082   3.845   0.538   1.189 -1.0484  0.3768 -0.3926
  683MOL0     C92083   3.715   0.621   1.172  0.5687 -0.8094 -0.2552
  683MOL0     C92084   3.597   0.536   1.220 -0.0193 -0.1405 -0.1379
  683MOL0     C92085   3.474   0.626   1.225 -0.2550 -0.2327 -0.9167
  683MOL0     C92086   3.337   0.568   1.267  0.1646 -0.2587  0.9362
  683MOL0     N92087   3.218   0.648   1.227  0.6935  0.0392 -0.5767
  683MOL0     C92088   3.196   0.778   1.264  0.0284 -0.0625  0.4223
  683MOL0     C92089   3.109   0.824   1.175  1.0464  0.1416  0.6420
  683MOL0     C92090   3.056   0.962   1.159 -0.0933  0.4353  1.2639
  683MOL0     C92091   2.902   0.984   1.215 -0.8342  0.1131  0.2776
  683MOL0     C92092   2.802   0.921   1.122 -0.7748  0.2835 -0.0019
  683MOL0     C92093   2.702   0.848   1.197  0.6377  0.0551 -0.2557
  683MOL0     O92094   2.645   0.949   1.287  0.2305  0.6199 -0.0825
  683MOL0     C92095   2.532   0.914   1.348  1.2440  0.0255 -0.6601
  683MOL0     C92096   2.494   0.784   1.377 -0.6050 -0.5141  0.2642
  683MOL0     C92097   2.366   0.754   1.438 -0.2038  0.2750  0.1913
  683MOL0     C92098   2.337   0.603   1.453 -0.1807  0.0882 -0.1730
  683MOL0     C92099   2.282   0.862   1.468  0.2557 -0.6759  0.3886
  683MOL0     C92100   2.150   0.854   1.537  1.1071 -0.9794 -0.1719
  683MOL0     O92101   2.093   0.976   1.580  0.7961  0.8125 -0.3898
  683MOL0     C92102   1.958   0.985   1.616  0.1238  0.1242  0.2283
  683MOL0     C92103   1.849   0.935   1.545  0.7298  0.4486 -0.0179
  683MOL0     C92104   1.719   0.951   1.583 -1.0217  0.4468  0.2239
  683MOL0     C92105   1.688   1.051   1.677 -0.3550  0.5363  0.1714
  683MOL0     O92106   1.567   1.068   1.723  0.4608 -0.2414  0.0897
  683MOL0     C92107   1.475   0.955   1.731  0.4293  0.0414  0.1333
  683MOL0     C92108   1.386   0.992   1.848 -0.3540 -1.0995  0.3840
  683MOL0     C92109   1.291   1.116   1.815 -0.4251 -0.3897 -0.8904
  683MOL0     C92110   1.236   1.159   1.957  0.0516  1.1798  0.1179
  683MOL0     C92111   1.157   1.289   1.960 -0.5899  0.4935  0.6916
  683MOL0     C92112   1.026   1.275   1.879 -0.1745 -0.3677  0.5789
  683MOL0     C92113   0.930   1.384   1.920 -0.2117 -0.7658  0.2477
  683MOL0     C92114   0.788   1.363   1.872 -0.2231  0.1895 -1.2589
  683MOL0    Cl92115   0.729   1.205   1.930 -0.1611 -0.4248  0.5255
  683MOL0     C92116   1.791   1.104   1.748 -0.6748  0.3425 -0.4334
  683MOL0     C92117   1.926   1.074   1.720 -1.0144 -1.1316 -0.1683
  683MOL0     O92118   2.102   0.745   1.548  0.8457  0.4579  0.2382
  683MOL0     C92119   2.322   0.989   1.434 -0.2260 -0.2693  0.9848
  683MOL0     C92120   2.446   1.012   1.380  0.2630  0.5831  1.5494
  683MOL0     N92121   3.074   0.716   1.087 -0.1215 -0.4464  0.1056
  683MOL0     N92122   3.149   0.616   1.120  0.0854  0.3494 -0.0247
  683MOL0     C92123   4.549   0.401   1.087  0.6312  0.1745  0.4437
  683MOL0     C92124   4.680   0.420   1.047 -0.6425 -0.8052 -0.6655
  683MOL0     C92125   5.068   0.643   0.968  0.0732 -0.1651 -1.3501
  683MOL0     C92126   5.128   0.520   0.939 -0.7653  0.4342  1.0334
  683MOL0     C92127   5.266   0.518   0.905  0.2521  0.0389 -0.0535
  683MOL0     C92128   5.346   0.632   0.925  0.0440  0.2757 -0.0390
  683MOL0     O92129   5.475   0.616   0.884 -0.2198  0.7079  0.3441
  683MOL0     C92130   5.570   0.720   0.905 -0.0002 -0.4917  0.2357
  683MOL0     C92131   5.709   0.658   0.899 -1.3557  0.3953 -0.2189
  683MOL0     C92132   5.834   0.757   0.914  0.7194 -0.4464  0.6946
  683MOL0     C92133   5.964   0.665   0.905 -0.3229  0.1803 -0.6733
  683MOL0     C92134   6.087   0.743   0.923 -0.3439  0.0898 -0.2188
  683MOL0     C92135   6.209   0.779   0.923  0.1793 -0.2389  0.3503
  683MOL0     C92136   5.285   0.753   0.963 -1.1985 -0.0936 -0.0113
  683MOL0     C92137   5.149   0.754   0.988 -0.8360 -0.1607 -0.3683
  683MOL0     H92138   4.656   0.749   0.966  0.7545 -0.9982 -0.4073
  683MOL0     H92139   4.407   0.709   1.058 -1.4753 -0.7766  1.7252
  683MOL0     H92140   4.234   0.666   1.156 -0.4372 -0.6922  2.4630
  683MOL0     H92141   4.208   0.582   0.995 -2.8068 -0.1090 -0.0596
  683MOL0     H92142   4.072   0.417   1.124  0.2941 -0.9308  1.6230
  683MOL0     H92143   4.104   0.505   1.273 -0.8874  0.5473  0.4557
  683MOL0     H92144   3.983   0.700   1.200  0.8264 -0.5317  1.2790
  683MOL0     H92145   3.955   0.636   1.031 -1.3682 -0.8230  0.7739
  683MOL0     H92146   3.840   0.452   1.122 -2.2254  2.5668 -3.3137
  683MOL0     H92147   3.845   0.517   1.297 -0.4748  3.2129  0.2390
  683MOL0     H92148   3.725   0.708   1.238  0.6957 -2.0038  1.3660
  683MOL0     H92149   3.704   0.658   1.070 -0.6488 -0.0738  0.1209
  683MOL0     H92150   3.577   0.449   1.158  1.4592 -0.4498 -0.2297
  683MOL0     H92151   3.618   0.504   1.322 -0.8083 -2.2047 -0.5883
  683MOL0     H92152   3.499   0.713   1.286 -2.5329  3.7105 -4.9363
  683MOL0     H92153   3.454   0.650   1.120 -2.3119 -2.4050 -1.1005
  683MOL0     H92154   3.324   0.563   1.376 -2.9058  3.1828  0.9416
  683MOL0     H92155   3.335   0.468   1.224  0.8023 -0.9879  2.5060
  683MOL0     H92156   3.247   0.837   1.339  0.5376 -0.0749  0.0955
  683MOL0     H92157   3.120   1.034   1.211 -1.2977  1.0397  1.9591
  683MOL0     H92158   3.058   0.983   1.052 -0.4726 -1.9312  0.7252
  683MOL0     H92159   2.884   1.092   1.219  1.7471  0.6124  0.3780
  683MOL0     H92160   2.896   0.955   1.320  0.2963  1.4693  0.7477
  683MOL0     H92161   2.850   0.840   1.066 -2.7826 -0.2285 -1.0754
  683MOL0     H92162   2.755   0.994   1.056 -3.5594 -0.0295  1.4575
  683MOL0     H92163   2.744   0.763   1.251 -0.2507  0.2469  0.7920
  683MOL0     H92164   2.621   0.809   1.135  0.2188  0.6349 -0.0870
  683MOL0     H92165   2.563   0.702   1.361 -1.4167 -1.2366  0.4063
  683MOL0     H92166   2.372   0.539   1.371 -2.1849  0.5806 -1.4953
  683MOL0     H92167   2.381   0.564   1.545  1.1963 -2.5038 -1.7749
  683MOL0     H92168   2.230   0.579   1.457 -0.3539  0.6882 -1.0218
  683MOL0     H92169   1.864   0.860   1.468  2.1406 -0.5485  1.1694
  683MOL0     H92170   1.647   0.880   1.545 -0.3149 -1.5189  2.3756
  683MOL0     H92171   1.422   0.936   1.637  2.7715  0.1318 -1.2803
  683MOL0     H92172   1.520   0.862   1.766 -0.1511 -0.4741 -0.4627
  683MOL0     H92173   1.327   0.906   1.880  0.4809 -0.9495  2.4621
  683MOL0     H92174   1.453   1.023   1.928  0.9641  0.9669 -1.3964
  683MOL0     H92175   1.210   1.095   1.745 -0.2873 -1.0164 -0.8742
  683MOL0     H92176   1.348   1.200   1.776 -0.9075  0.0098 -0.7453
  683MOL0     H92177   1.167   1.079   1.987  0.0231  1.4030  0.6658
  683MOL0     H92178   1.316   1.164   2.032 -1.1795  1.9047  1.4312
  683MOL0     H92179   1.217   1.371   1.920 -0.4490  1.1604  2.1974
  683MOL0     H92180   1.135   1.304   2.066 -0.2779 -1.1910  1.0198
  683MOL0     H92181   1.052   1.280   1.773  0.0246 -2.1674  0.5144
  683MOL0     H92182   0.978   1.178   1.897 -1.5194  0.4202  1.4368
  683MOL0     H92183   0.966   1.480   1.882  2.4427 -2.3830 -1.7189
  683MOL0     H92184   0.930   1.393   2.029 -0.6169 -0.4212  0.2192
  683MOL0     H92185   0.787   1.361   1.763 -1.1092 -3.2283 -1.3080
  683MOL0     H92186   0.716   1.436   1.911  0.1601 -0.8478  1.6611
  683MOL0     H92187   1.762   1.173   1.827  1.4625  2.0140 -1.0213
  683MOL0     H92188   1.995   1.133   1.780 -0.3384 -2.1523  0.0748
  683MOL0     H92189   2.258   1.075   1.451  0.2528  0.5690 -1.1575
  683MOL0     H92190   2.483   1.107   1.345 -0.6798  0.0238 -1.2669
  683MOL0     H92191   4.525   0.305   1.130  1.7246  0.5882  2.0578
  683MOL0     H92192   4.751   0.338   1.039  0.4347 -0.1397  1.3757
  683MOL0     H92193   5.082   0.424   0.922  0.5863  0.1304 -1.5400
  683MOL0     H92194   5.305   0.428   0.859 -2.2868 -2.2487  2.0027
  683MOL0     H92195   5.562   0.792   0.823 -0.1205  0.5776  1.1594
  683MOL0     H92196   5.569   0.773   1.001  1.7945  0.9764 -0.4790
  683MOL0     H92197   5.719   0.604   0.805  0.8494  0.3081  0.0355
  683MOL0     H92198   5.714   0.584   0.979 -1.2754 -0.4074 -0.9546
  683MOL0     H92199   5.826   0.813   1.007 -0.0488 -0.1855  0.4797
  683MOL0     H92200   5.833   0.829   0.832  0.8431  0.5965  1.5921
  683MOL0     H92201   5.964   0.617   0.806 -2.9058 -1.4583  0.0204
  683MOL0     H92202   5.960   0.591   0.985 -0.9610  3.0795  2.1634
  683MOL0     H92203   6.312   0.808   0.916  0.3247 -1.0797 -1.6779
  683MOL0     H92204   5.343   0.844   0.949 -0.4661 -0.1265  2.3287
  683MOL0     H92205   5.105   0.850   1.013 -0.0288  0.5048 -1.4163
  684MOL0     O92206   6.010   0.902   9.272  0.2521 -0.3121 -0.0436
  684MOL0     C92207   5.924   0.816   9.271 -0.4680 -0.4696  0.1742
  684MOL0     O92208   5.791   0.842   9.245 -0.0245  0.1425  0.5088
  684MOL0     C92209   5.736   0.968   9.248  0.1480 -0.3597 -0.6419
  684MOL0     C92210   5.664   1.007   9.359 -0.3191  0.2561  0.1452
  684MOL0     C92211   5.614   1.144   9.369 -0.1762 -0.4386  0.0180
  684MOL0     C92212   5.611   1.221   9.249 -1.2737 -1.1479 -0.1386
  684MOL0     O92213   5.557   1.345   9.252  0.3652 -0.3981  0.4559
  684MOL0     C92214   5.508   1.418   9.129 -0.7157 -0.5007 -0.6444
  684MOL0     C92215   5.614   1.526   9.108 -0.1214 -0.4530 -0.0847
  684MOL0     C92216   5.577   1.618   8.987 -0.2305 -0.2035  0.3945
  684MOL0     C92217   5.448   1.694   9.020  0.3496  0.2481  0.3930
  684MOL0     C92218   5.442   1.811   8.928 -0.3488 -0.3746 -0.2263
  684MOL0     C92219   5.332   1.900   8.943 -0.0415 -0.7020  0.0491
  684MOL0     C92220   5.331   2.012   8.827  0.2831  1.0023  0.0516
  684MOL0     C92221   5.176   2.046   8.792 -0.2846 -0.4717  0.1270
  684MOL0     N92222   5.151   2.132   8.682 -0.3020  0.5704 -0.1640
  684MOL0     C92223   5.110   2.098   8.560 -0.0281 -0.8430  0.3992
  684MOL0     C92224   5.061   2.221   8.500 -0.2690  0.3830  0.1712
  684MOL0     C92225   5.012   2.261   8.363  0.1939  0.6356 -0.4585
  684MOL0     C92226   4.859   2.293   8.362  0.4316  0.0475 -0.3440
  684MOL0     C92227   4.811   2.332   8.221  0.7036 -0.5248  0.5560
  684MOL0     C92228   4.675   2.284   8.182 -0.2609  1.1401 -0.0338
  684MOL0     O92229   4.651   2.295   8.043 -0.1490 -0.0951  0.2870
  684MOL0     C92230   4.529   2.261   7.987  0.2573 -0.3467  0.6610
  684MOL0     C92231   4.514   2.297   7.850 -0.2525  0.0861 -0.1542
  684MOL0     C92232   4.392   2.286   7.770  0.1766  0.4620  0.9585
  684MOL0     C92233   4.397   2.326   7.622  0.0997 -0.5435 -0.1396
  684MOL0     C92234   4.284   2.213   7.828 -0.4204  0.1448  0.2239
  684MOL0     C92235   4.155   2.184   7.766 -0.1721 -0.2606 -0.3843
  684MOL0     O92236   4.103   2.065   7.810  0.4647 -0.1996  0.2707
  684MOL0     C92237   3.972   2.037   7.774  0.3832  0.0156 -0.1366
  684MOL0     C92238   3.953   1.935   7.677  0.1891  0.0501 -0.6604
  684MOL0     C92239   3.826   1.912   7.630  0.2686  0.4827 -0.1228
  684MOL0     C92240   3.714   1.978   7.673 -0.2847  0.2786  0.5324
  684MOL0     O92241   3.595   1.948   7.606 -0.2190  0.7477  0.0965
  684MOL0     C92242   3.479   2.015   7.653 -0.6663 -0.1311 -0.0986
  684MOL0     C92243   3.359   1.987   7.569  0.1250  0.4553 -0.4346
  684MOL0     C92244   3.367   2.013   7.420 -0.6161 -0.1135  0.4687
  684MOL0     C92245   3.237   1.962   7.350  0.3842  0.2784  0.4879
  684MOL0     C92246   3.263   1.907   7.201  0.5173  0.3851  0.7314
  684MOL0     C92247   3.134   1.889   7.121 -0.1807 -0.5100  0.7076
  684MOL0     C92248   3.158   1.851   6.963  0.3006 -0.0240  0.5661
  684MOL0     C92249   3.203   1.707   6.933  0.4446 -0.5577  0.1452
  684MOL0    Cl92250   3.374   1.684   6.974  0.3132 -0.3288  0.1238
  684MOL0     C92251   3.729   2.080   7.770  0.2636  0.9428 -0.6651
  684MOL0     C92252   3.853   2.098   7.818 -0.5609  0.1167 -0.4128
  684MOL0     O92253   4.107   2.262   7.682  0.3645  0.1797  0.0095
  684MOL0     C92254   4.302   2.167   7.972 -0.2736  0.7736 -0.9704
  684MOL0     C92255   4.419   2.191   8.046  0.4393  0.3949  0.5506
  684MOL0     N92256   5.064   2.319   8.599 -0.0084 -0.9992  0.8272
  684MOL0     N92257   5.116   2.262   8.709  0.2300 -0.2890 -0.1817
  684MOL0     C92258   5.690   1.180   9.140 -1.1522  0.2455  0.2416
  684MOL0     C92259   5.762   1.057   9.144  0.5415  0.1552  0.2945
  684MOL0     C92260   5.954   0.673   9.294  0.2188 -0.2881  0.0609
  684MOL0     C92261   5.855   0.583   9.343 -0.5763 -0.5189  0.0675
  684MOL0     C92262   5.883   0.451   9.388  0.1204  0.8980  1.2101
  684MOL0     C92263   6.019   0.409   9.383  0.2470  0.5287 -0.2422
  684MOL0     O92264   6.040   0.280   9.417 -0.3035  0.4256  0.1325
  684MOL0     C92265   6.057   0.259   9.559  0.3525 -0.4068 -0.0045
  684MOL0     C92266   5.922   0.227   9.622  0.4914 -0.3651 -0.0397
  684MOL0     C92267   5.846   0.109   9.556 -0.1146  0.7063  0.5153
  684MOL0     C92268   5.742   0.048   9.646  0.2415  0.8803  0.2960
  684MOL0     C92269   5.633   0.133   9.686  0.0710  0.0850 -0.5027
  684MOL0     C92270   5.550   0.219   9.685 -0.9434  0.0182 -0.8925
  684MOL0     C92271   6.119   0.493   9.343 -0.1691  0.2001  0.3929
  684MOL0     C92272   6.086   0.620   9.279  0.1901 -0.5308  0.0449
  684MOL0     H92273   5.649   0.937   9.441  0.4816  0.0022  0.0763
  684MOL0     H92274   5.558   1.190   9.450  0.6439  5.3118 -2.2736
  684MOL0     H92275   5.506   1.351   9.044  0.6212  1.1381 -2.0474
  684MOL0     H92276   5.406   1.453   9.151 -1.0202 -1.2259 -0.8630
  684MOL0     H92277   5.635   1.588   9.195 -0.4952 -0.5539  0.0759
  684MOL0     H92278   5.707   1.473   9.084  0.9325  1.7455 -1.1795
  684MOL0     H92279   5.660   1.686   8.967 -0.3288  0.7490  2.8725
  684MOL0     H92280   5.567   1.553   8.899  0.0067  0.1006  0.1411
  684MOL0     H92281   5.350   1.646   9.014  0.1656  0.6175  0.4301
  684MOL0     H92282   5.459   1.728   9.123  2.2101 -4.4945  2.0460
  684MOL0     H92283   5.531   1.875   8.938 -0.4715  0.0098 -1.4358
  684MOL0     H92284   5.455   1.779   8.824 -0.6040 -1.3720  0.0424
  684MOL0     H92285   5.239   1.842   8.950  0.0051 -0.8676 -0.6991
  684MOL0     H92286   5.334   1.958   9.036 -2.5194  0.0774 -0.3092
  684MOL0     H92287   5.399   2.094   8.852  3.1492 -1.5496  1.1911
  684MOL0     H92288   5.368   1.958   8.739 -2.6347 -1.2597  0.0628
  684MOL0     H92289   5.125   2.088   8.879 -0.0125  0.5254 -0.1928
  684MOL0     H92290   5.117   1.956   8.772 -2.6012  0.7332  1.1467
  684MOL0     H92291   5.115   1.997   8.519  0.6343 -0.4414 -0.5436
  684MOL0     H92292   5.071   2.346   8.328  0.5683  0.2807 -0.6953
  684MOL0     H92293   5.021   2.168   8.307 -1.6336 -0.4256  0.8740
  684MOL0     H92294   4.839   2.375   8.432  0.3187 -0.7172  0.5367
  684MOL0     H92295   4.808   2.209   8.409  3.2188 -1.5380  0.0386
  684MOL0     H92296   4.885   2.291   8.151 -1.2206 -1.3771 -1.0894
  684MOL0     H92297   4.813   2.441   8.205 -0.9280 -0.5372  0.0408
  684MOL0     H92298   4.603   2.336   8.246 -1.2134 -0.7774  0.5384
  684MOL0     H92299   4.657   2.176   8.194 -0.7823  0.7771 -3.2318
  684MOL0     H92300   4.607   2.332   7.804  0.1838  0.8485  1.2515
  684MOL0     H92301   4.312   2.384   7.583 -0.3930 -0.0319  1.6019
  684MOL0     H92302   4.490   2.375   7.593  1.6672 -1.7594  2.4639
  684MOL0     H92303   4.395   2.237   7.558 -1.2791 -0.7291  0.1150
  684MOL0     H92304   4.041   1.880   7.645  0.3973 -1.0685  1.5799
  684MOL0     H92305   3.816   1.828   7.562 -0.0110 -0.3263  0.8879
  684MOL0     H92306   3.464   1.984   7.757  0.5981 -0.3190  0.0516
  684MOL0     H92307   3.493   2.123   7.648  0.7234 -0.2036  1.1744
  684MOL0     H92308   3.342   1.879   7.572  0.1582  0.4670  0.5371
  684MOL0     H92309   3.276   2.039   7.617 -0.8643 -1.5675  0.1413
  684MOL0     H92310   3.448   1.954   7.375  0.7535  3.1076 -1.6299
  684MOL0     H92311   3.388   2.118   7.397  0.3289 -0.6922 -1.4532
  684MOL0     H92312   3.186   1.883   7.406  0.0360 -0.5497 -0.9512
  684MOL0     H92313   3.175   2.053   7.352 -0.3474 -0.1771 -0.5123
  684MOL0     H92314   3.311   1.810   7.216  2.0496  1.3968  2.9242
  684MOL0     H92315   3.329   1.970   7.140 -3.8979  4.1715 -0.7990
  684MOL0     H92316   3.071   1.809   7.159  1.0951 -2.8548 -1.7678
  684MOL0     H92317   3.072   1.978   7.130  0.0531 -0.3770  1.0500
  684MOL0     H92318   3.234   1.919   6.924 -1.9182  0.2117 -4.0103
  684MOL0     H92319   3.065   1.882   6.916  1.1629  0.5589 -0.8130
  684MOL0     H92320   3.206   1.705   6.824 -1.2662  0.3685  0.0363
  684MOL0     H92321   3.136   1.630   6.972  1.5885 -2.3400 -1.2601
  684MOL0     H92322   3.647   2.137   7.814  2.8397  1.7017  3.7174
  684MOL0     H92323   3.867   2.181   7.887  0.7703  2.7640 -3.5754
  684MOL0     H92324   4.233   2.099   8.022 -0.5361  1.5890 -0.1804
  684MOL0     H92325   4.437   2.159   8.148  1.0661  0.8040  0.5778
  684MOL0     H92326   5.718   1.239   9.054 -4.1014 -1.7439 -2.3190
  684MOL0     H92327   5.836   1.031   9.069  3.7876  0.1288  3.2343
  684MOL0     H92328   5.750   0.611   9.345 -0.3163  0.4461  0.9526
  684MOL0     H92329   5.806   0.378   9.414  0.0646  0.0256 -1.1795
  684MOL0     H92330   6.132   0.180   9.564 -0.7867 -1.6746 -1.7846
  684MOL0     H92331   6.088   0.357   9.596 -0.0748 -0.5403  0.7237
  684MOL0     H92332   5.861   0.318   9.622  1.1028  0.0481 -0.1378
  684MOL0     H92333   5.946   0.209   9.727  2.2811  3.4147  0.3365
  684MOL0     H92334   5.921   0.031   9.541 -1.1290  0.0474 -1.4068
  684MOL0     H92335   5.798   0.125   9.459 -0.5501 -0.1252  0.5876
  684MOL0     H92336   5.788   0.005   9.736 -0.3965 -0.7571 -0.1210
  684MOL0     H92337   5.694  -0.041   9.603  3.0771 -0.0685 -1.1732
  684MOL0     H92338   5.480   0.300   9.697 -0.3668  0.3176  0.6231
  684MOL0     H92339   6.221   0.458   9.325 -0.2697  1.3153 -2.8792
  684MOL0     H92340   6.168   0.685   9.251  0.5442 -1.2421 -0.6128
  685MOL0     O92341   9.329  10.599   2.412 -0.1218 -0.3529 -0.4732
  685MOL0     C92342   9.352  10.624   2.292 -0.3908  0.6411  0.6702
  685MOL0     O92343   9.253  10.645   2.199 -0.1811  0.4039 -0.1802
  685MOL0     C92344   9.124  10.609   2.224 -0.5627 -0.5761 -0.2303
  685MOL0     C92345   9.080  10.484   2.178  0.3218  0.5613 -0.0493
  685MOL0     C92346   8.944  10.462   2.183  0.0762  0.4515 -0.0465
  685MOL0     C92347   8.847  10.547   2.235  0.4012  0.1579 -0.5121
  685MOL0     O92348   8.718  10.522   2.231  0.3904  0.2306 -0.2816
  685MOL0     C92349   8.649  10.565   2.112  0.4419  0.1861  0.3203
  685MOL0     C92350   8.501  10.563   2.136  0.1906  0.6302  0.0992
  685MOL0     C92351   8.459  10.678   2.226  0.4514  0.3599  0.7394
  685MOL0     C92352   8.309  10.672   2.246  1.0001 -0.3167  0.2695
  685MOL0     C92353   8.266  10.805   2.306 -0.5723 -0.0096 -0.1965
  685MOL0     C92354   8.117  10.818   2.328 -0.0315 -0.2138 -0.7370
  685MOL0     C92355   8.039  10.842   2.192 -0.2018  0.8890  0.1271
  685MOL0     C92356   8.020  10.990   2.143 -0.2962  0.7415 -0.4763
  685MOL0     N92357   7.932  10.995   2.021 -0.9885  0.1152 -0.3676
  685MOL0     C92358   7.832  10.913   1.987 -0.5388 -0.0054  0.3084
  685MOL0     C92359   7.793  10.954   1.869 -0.6605  1.0667  0.2071
  685MOL0     C92360   7.673  10.902   1.783 -0.3699 -0.2773 -0.0753
  685MOL0     C92361   7.554  11.004   1.783 -0.8694  0.0636 -0.3251
  685MOL0     C92362   7.486  11.031   1.921  0.1231 -0.5380  0.0064
  685MOL0     C92363   7.427  10.913   1.994 -0.1080  0.1900 -0.1864
  685MOL0     O92364   7.339  10.852   1.892  0.4421 -0.0200  0.2395
  685MOL0     C92365   7.203  10.861   1.924 -0.4736  0.1994  1.2595
  685MOL0     C92366   7.152  10.806   2.044 -0.0366  0.6251  0.3008
  685MOL0     C92367   7.011  10.812   2.070  0.1696  0.0632  0.5953
  685MOL0     C92368   6.975  10.754   2.201  0.0458 -0.5715  0.0201
  685MOL0     C92369   6.933  10.875   1.975 -0.1635  0.5091 -0.2696
  685MOL0     C92370   6.781  10.882   1.993  0.7773 -0.4904 -0.3790
  685MOL0     O92371   6.710  10.959   1.901 -0.5695  0.0950  0.1637
  685MOL0     C92372   6.602  10.903   1.845  0.7281 -0.5648  0.3611
  685MOL0     C92373   6.608  10.816   1.727  0.1476  0.3441 -0.5826
  685MOL0     C92374   6.494  10.763   1.689 -0.8987  0.0792  0.3863
  685MOL0     C92375   6.371  10.791   1.743  0.9598 -0.1594 -0.6462
  685MOL0     O92376   6.256  10.723   1.709 -0.4506  0.3396  0.0491
  685MOL0     C92377   6.264  10.578   1.701  0.8065 -0.3327 -0.0294
  685MOL0     C92378   6.125  10.515   1.669 -0.2105 -0.7159 -0.5398
  685MOL0     C92379   6.049  10.590   1.564 -0.2160 -0.1009 -0.8513
  685MOL0     C92380   5.894  10.581   1.580 -0.8723 -0.2289 -0.3788
  685MOL0     C92381   5.821  10.684   1.485  0.3959 -0.2800  0.3748
  685MOL0     C92382   5.662  10.678   1.468  0.8563  0.7455 -0.2357
  685MOL0     C92383   5.597  10.798   1.399 -0.6222 -0.0604  0.3143
  685MOL0     C92384   5.444  10.793   1.405  0.9125  0.9063  0.1923
  685MOL0    Cl92385   5.366  10.901   1.286  0.0144 -0.0015  0.6108
  685MOL0     C92386   6.364  10.884   1.845 -0.2245  0.4715 -0.1379
  685MOL0     C92387   6.478  10.942   1.891 -0.7246 -0.6424 -0.4957
  685MOL0     O92388   6.726  10.803   2.071 -0.7236  0.2174  0.2149
  685MOL0     C92389   6.980  10.922   1.851 -0.8414 -0.3217  0.4834
  685MOL0     C92390   7.120  10.924   1.826 -0.0493  0.1279 -0.2475
  685MOL0     N92391   7.875  11.061   1.829  0.1299  0.9463 -0.6329
  685MOL0     N92392   7.959  11.082   1.924 -0.2814 -0.1106 -0.3435
  685MOL0     C92393   8.893  10.673   2.279  0.5511 -0.5050 -1.1770
  685MOL0     C92394   9.033  10.706   2.273 -0.0263 -0.3175 -0.6861
  685MOL0     C92395   9.493  10.624   2.240 -0.1283  0.3578  0.8150
  685MOL0     C92396   9.522  10.657   2.106  0.5362 -0.2928 -0.2452
  685MOL0     C92397   9.651  10.661   2.060  0.6269  0.4212  0.4506
  685MOL0     C92398   9.758  10.626   2.146  0.3246 -0.5736 -0.0125
  685MOL0     O92399   9.876  10.643   2.081 -0.4710  0.0774 -0.7803
  685MOL0     C92400   9.926  10.529   2.010  0.6686  0.4929 -0.1006
  685MOL0     C92401  10.077  10.537   1.990 -0.1815 -0.7262  0.3526
  685MOL0     C92402  10.142  10.426   1.900  0.1737 -0.3709  0.6420
  685MOL0     C92403  10.245  10.347   1.990  0.3762  0.7567 -0.1636
  685MOL0     C92404  10.344  10.285   1.908 -0.1378  0.3021  0.1714
  685MOL0     C92405  10.439  10.235   1.852 -0.3663  0.9654 -0.1342
  685MOL0     C92406   9.730  10.590   2.278 -0.0715 -0.0581  0.2051
  685MOL0     C92407   9.600  10.583   2.323  0.4077  1.0061 -0.0266
  685MOL0     H92408   9.152  10.412   2.140  0.9943  1.6067 -0.8107
  685MOL0     H92409   8.909  10.372   2.133  0.1817  1.7970 -2.7010
  685MOL0     H92410   8.670  10.670   2.090 -0.1552  0.3971  0.7590
  685MOL0     H92411   8.671  10.505   2.023 -1.9565  2.0091 -1.6493
  685MOL0     H92412   8.456  10.582   2.038 -3.4631  0.5285  1.6231
  685MOL0     H92413   8.463  10.464   2.162 -0.6422  1.2811  1.4797
  685MOL0     H92414   8.512  10.665   2.321  0.4471 -1.9563  0.4705
  685MOL0     H92415   8.479  10.774   2.177  1.0398 -0.3489 -0.4449
  685MOL0     H92416   8.256  10.661   2.151 -2.3137  1.1843  1.7633
  685MOL0     H92417   8.265  10.594   2.309  0.7788  0.5169  1.1730
  685MOL0     H92418   8.310  10.823   2.404 -0.2914  1.4441 -0.5568
  685MOL0     H92419   8.297  10.895   2.251  2.0485 -0.7612 -0.0805
  685MOL0     H92420   8.085  10.726   2.378 -1.2959 -0.7382 -2.4211
  685MOL0     H92421   8.102  10.900   2.399 -1.9095 -1.5031  0.4185
  685MOL0     H92422   8.093  10.791   2.111 -1.5254  0.5073 -0.5386
  685MOL0     H92423   7.940  10.802   2.217  0.6789 -1.1890  0.5874
  685MOL0     H92424   8.110  11.050   2.129 -1.2934  2.8898  1.6833
  685MOL0     H92425   7.960  11.041   2.219 -0.3459  0.9006 -0.6216
  685MOL0     H92426   7.791  10.829   2.044  0.2825  0.1500  1.1561
  685MOL0     H92427   7.710  10.904   1.680  0.0622  2.2597  0.0805
  685MOL0     H92428   7.654  10.798   1.811 -0.0539  0.2493  2.2299
  685MOL0     H92429   7.478  10.980   1.708  0.0853  2.7407 -2.3365
  685MOL0     H92430   7.605  11.098   1.759 -2.4947  0.6971 -1.5989
  685MOL0     H92431   7.400  11.098   1.919  1.8120  1.7535  0.2093
  685MOL0     H92432   7.556  11.080   1.989  3.3568 -1.2351 -2.5815
  685MOL0     H92433   7.366  10.946   2.078 -0.7712  0.6621 -0.8473
  685MOL0     H92434   7.502  10.839   2.025 -2.0610 -1.9901 -0.3698
  685MOL0     H92435   7.208  10.761   2.125 -0.1526 -0.1065 -0.0225
  685MOL0     H92436   7.059  10.743   2.269  1.7474  0.1053 -1.8893
  685MOL0     H92437   6.899  10.823   2.240 -0.2798  0.3752 -2.1298
  685MOL0     H92438   6.935  10.652   2.195  0.4187 -0.7278  0.1926
  685MOL0     H92439   6.700  10.797   1.674  0.1363  0.0973 -0.5130
  685MOL0     H92440   6.505  10.689   1.610  1.6255  0.3574  0.3967
  685MOL0     H92441   6.344  10.542   1.635 -1.0961 -2.4222 -1.3542
  685MOL0     H92442   6.298  10.543   1.799 -1.1080 -0.6084  0.5730
  685MOL0     H92443   6.154  10.415   1.633  0.0642 -0.2411 -1.6819
  685MOL0     H92444   6.076  10.509   1.766  2.7556  1.3631  1.2498
  685MOL0     H92445   6.074  10.555   1.463 -2.2105 -2.4332 -0.6315
  685MOL0     H92446   6.072  10.697   1.566 -3.0689  0.5821 -1.1233
  685MOL0     H92447   5.861  10.478   1.564  1.2195 -0.7330 -1.7930
  685MOL0     H92448   5.869  10.614   1.682 -0.8293  0.0674 -0.4634
  685MOL0     H92449   5.864  10.666   1.386  0.9532  2.6409 -0.0124
  685MOL0     H92450   5.849  10.787   1.506 -3.2462  0.5662  1.8025
  685MOL0     H92451   5.637  10.588   1.411  1.9814 -0.2037  0.7118
  685MOL0     H92452   5.629  10.664   1.571  1.8580 -1.5033 -0.1765
  685MOL0     H92453   5.626  10.795   1.293 -1.8167  1.7332 -0.1023
  685MOL0     H92454   5.631  10.897   1.431 -1.1582  2.4028 -5.4161
  685MOL0     H92455   5.411  10.804   1.509 -2.0755 -1.9570 -0.3032
  685MOL0     H92456   5.416  10.689   1.386  3.3931 -0.1019  1.5162
  685MOL0     H92457   6.270  10.893   1.898 -0.1088 -0.6550  0.2904
  685MOL0     H92458   6.479  11.020   1.966 -0.8132  3.6045 -4.4863
  685MOL0     H92459   6.916  10.963   1.773 -2.1155  2.2604  2.7027
  685MOL0     H92460   7.173  10.963   1.740 -0.0264 -3.7807 -2.2501
  685MOL0     H92461   8.816  10.738   2.320  1.8589 -0.4016  1.3040
  685MOL0     H92462   9.071  10.800   2.311 -0.2699 -0.9144  1.1567
  685MOL0     H92463   9.445  10.691   2.037  1.9970  0.5122 -1.5284
  685MOL0     H92464   9.674  10.680   1.956 -0.6605  1.5830  0.3510
  685MOL0     H92465   9.899  10.442   2.070 -1.7792  1.3149  0.0835
  685MOL0     H92466   9.875  10.525   1.913 -0.6565 -3.4675  0.5830
  685MOL0     H92467  10.119  10.539   2.091  0.9553  1.7936 -0.0831
  685MOL0     H92468  10.105  10.637   1.955  4.3788 -0.3490  4.0097
  685MOL0     H92469  10.180  10.485   1.816 -0.5452  0.4000  0.8450
  685MOL0     H92470  10.058  10.362   1.870  0.9019 -1.8785  1.6638
  685MOL0     H92471  10.194  10.264   2.040  0.1428  0.9714 -0.0417
  685MOL0     H92472  10.300  10.406   2.063  1.0385 -1.7915  1.5146
  685MOL0     H92473  10.511  10.194   1.785 -2.4219 -0.0011 -1.8592
  685MOL0     H92474   9.813  10.557   2.341 -0.5441  2.6793  2.4711
  685MOL0     H92475   9.582  10.535   2.418  1.0850  2.1695  0.7251
  686MOL0     O92476   7.659   8.718   7.460  0.9625  0.1476 -0.0290
  686MOL0     C92477   7.697   8.624   7.385 -0.2591 -0.4499 -0.3240
  686MOL0     O92478   7.617   8.535   7.319  0.2732  0.3263 -0.3413
  686MOL0     C92479   7.485   8.520   7.361 -0.1079  0.8846 -0.1473
  686MOL0     C92480   7.438   8.381   7.370 -0.3462  0.8370  0.0310
  686MOL0     C92481   7.308   8.350   7.391 -0.0098  0.5417 -0.0853
  686MOL0     C92482   7.217   8.451   7.422  0.3213 -0.0932  0.7439
  686MOL0     O92483   7.088   8.423   7.461  0.4552 -0.0926  0.2026
  686MOL0     C92484   7.025   8.301   7.445 -0.0697  0.1264  0.4078
  686MOL0     C92485   6.875   8.310   7.467  0.4628  0.0969 -0.2194
  686MOL0     C92486   6.788   8.385   7.356  1.0348  0.2512  0.4439
  686MOL0     C92487   6.707   8.281   7.277  0.4599  0.4759  0.5353
  686MOL0     C92488   6.603   8.341   7.180 -0.3893 -0.3049  0.5625
  686MOL0     C92489   6.666   8.413   7.058  0.1659  0.4494 -0.3178
  686MOL0     C92490   6.576   8.517   6.986  0.0039 -0.5807 -0.6315
  686MOL0     C92491   6.426   8.475   6.960 -0.9344  0.5449 -0.1016
  686MOL0     N92492   6.423   8.380   6.839  0.2030 -0.2700 -0.3951
  686MOL0     C92493   6.373   8.252   6.848  0.4157  0.4025 -1.0264
  686MOL0     C92494   6.379   8.209   6.722 -0.2338  0.6507 -0.3057
  686MOL0     C92495   6.341   8.073   6.672  0.4150 -0.5063 -0.3664
  686MOL0     C92496   6.189   8.055   6.669  0.6396 -0.3930  0.3376
  686MOL0     C92497   6.148   7.925   6.602  0.3480  0.1564  0.5382
  686MOL0     C92498   5.987   7.906   6.589 -1.4199 -0.3660  0.8676
  686MOL0     O92499   5.932   7.906   6.721 -0.4236 -0.4510  0.0267
  686MOL0     C92500   5.798   7.925   6.726  0.4497  0.4980  0.1641
  686MOL0     C92501   5.739   7.996   6.832 -0.9341 -1.0488  0.4616
  686MOL0     C92502   5.607   8.040   6.833  0.6311  0.3874  0.2082
  686MOL0     C92503   5.564   8.109   6.967 -1.5723  0.0230  0.0345
  686MOL0     C92504   5.529   8.023   6.722  1.0412  0.9687 -0.2215
  686MOL0     C92505   5.383   8.057   6.709 -0.3461 -0.4521  0.3739
  686MOL0     O92506   5.302   7.992   6.614 -0.2622  0.0766 -0.3153
  686MOL0     C92507   5.165   8.028   6.592  0.2156  0.4226  0.2996
  686MOL0     C92508   5.083   8.123   6.653  0.5373  0.9559 -0.2358
  686MOL0     C92509   4.953   8.144   6.616 -0.2823  0.6273  0.4007
  686MOL0     C92510   4.892   8.063   6.522 -0.4176  0.2275  0.8399
  686MOL0     O92511   4.756   8.069   6.500 -0.3852  0.3586  0.5551
  686MOL0     C92512   4.706   8.026   6.371  0.7084  0.4408 -0.8286
  686MOL0     C92513   4.560   8.028   6.395  0.4787  0.0269  0.1042
  686MOL0     C92514   4.493   8.030   6.248 -0.4013 -0.1852  0.0673
  686MOL0     C92515   4.344   8.055   6.255  0.3970 -1.3223 -0.7428
  686MOL0     C92516   4.272   7.972   6.363 -0.1690  0.0472 -0.2862
  686MOL0     C92517   4.117   7.981   6.356  0.4644  0.7363 -1.0236
  686MOL0     C92518   4.058   8.126   6.372 -0.4255  0.1122 -0.1872
  686MOL0     C92519   3.915   8.146   6.328 -0.4511 -0.0678  0.8855
  686MOL0    Cl92520   3.818   8.034   6.420  0.1490  0.3085  0.1388
  686MOL0     C92521   4.972   7.967   6.448  0.3170 -1.0323 -0.1669
  686MOL0     C92522   5.108   7.947   6.491  0.4827 -0.3825  0.1054
  686MOL0     O92523   5.339   8.143   6.787  0.5638  0.0880  0.0294
  686MOL0     C92524   5.581   7.956   6.606  0.7095  0.4481 -0.6861
  686MOL0     C92525   5.713   7.908   6.612 -0.7577  0.3423 -0.0185
  686MOL0     N92526   6.414   8.309   6.635 -0.6015 -0.1140 -1.2988
  686MOL0     N92527   6.449   8.407   6.712 -0.3547 -0.6506  0.1681
  686MOL0     C92528   7.265   8.585   7.416 -0.9463  0.3610 -0.3439
  686MOL0     C92529   7.401   8.620   7.382 -0.4916 -0.3105 -0.0165
  686MOL0     C92530   7.846   8.617   7.361  0.5683 -0.0505 -0.3363
  686MOL0     C92531   7.940   8.714   7.406  0.0075  0.5071 -0.8917
  686MOL0     C92532   8.082   8.688   7.402  0.3071 -0.1691 -0.3435
  686MOL0     C92533   8.126   8.571   7.341  0.2741 -0.2109  0.0051
  686MOL0     O92534   8.252   8.524   7.329  0.0364 -0.7170  1.1783
  686MOL0     C92535   8.352   8.629   7.340  0.1970 -1.0063  0.1927
  686MOL0     C92536   8.492   8.587   7.315 -0.1060 -0.9217  0.8763
  686MOL0     C92537   8.584   8.698   7.352 -0.2770  0.4291 -0.1479
  686MOL0     C92538   8.726   8.649   7.338  0.0979 -0.0607  0.3714
  686MOL0     C92539   8.821   8.748   7.349  0.2196  0.1646 -0.4920
  686MOL0     C92540   8.903   8.836   7.365  0.5372 -0.5504 -0.0915
  686MOL0     C92541   8.032   8.486   7.276 -0.6882 -1.2104  0.0388
  686MOL0     C92542   7.896   8.513   7.287  0.3630 -0.1649  0.5635
  686MOL0     H92543   7.514   8.307   7.348  1.2733  2.9395 -1.9097
  686MOL0     H92544   7.306   8.242   7.390  1.8391  0.3725  2.2371
  686MOL0     H92545   7.046   8.266   7.344 -0.4226  0.9215  0.0517
  686MOL0     H92546   7.073   8.236   7.519  1.9867  0.2069 -0.7644
  686MOL0     H92547   6.823   8.216   7.488  0.2940  0.9624  4.3484
  686MOL0     H92548   6.865   8.366   7.561 -0.6973  2.6718 -1.7380
  686MOL0     H92549   6.713   8.453   7.398 -1.5873  0.1531 -3.5647
  686MOL0     H92550   6.855   8.443   7.293 -1.0687 -2.4827 -4.9627
  686MOL0     H92551   6.781   8.220   7.225  0.8516  1.2428  0.1614
  686MOL0     H92552   6.648   8.221   7.346 -1.5156  2.5213  0.7592
  686MOL0     H92553   6.532   8.264   7.148  0.1977  0.5496 -3.3905
  686MOL0     H92554   6.548   8.411   7.243 -1.8389 -2.4026  1.7275
  686MOL0     H92555   6.761   8.460   7.084  0.7234 -1.7356  2.0350
  686MOL0     H92556   6.704   8.338   6.988  6.3262  3.7958 -1.2599
  686MOL0     H92557   6.566   8.608   7.045 -0.2217 -1.3912  0.6181
  686MOL0     H92558   6.616   8.554   6.891  0.8491  1.1271  0.3438
  686MOL0     H92559   6.378   8.567   6.926 -2.2598 -0.3002 -0.5939
  686MOL0     H92560   6.366   8.430   7.039 -0.5801  0.6111  0.2081
  686MOL0     H92561   6.349   8.206   6.943 -1.4280  2.1040 -0.5946
  686MOL0     H92562   6.385   8.060   6.572  0.3470 -1.0406 -0.3335
  686MOL0     H92563   6.393   8.000   6.735  2.0825  2.0653  1.4010
  686MOL0     H92564   6.148   8.137   6.609  0.8934 -0.7507 -0.3357
  686MOL0     H92565   6.145   8.074   6.767  1.3411  0.2903  0.5290
  686MOL0     H92566   6.178   7.836   6.658 -3.7040 -2.5660 -1.1531
  686MOL0     H92567   6.185   7.925   6.499 -1.4894 -0.0021 -0.1702
  686MOL0     H92568   5.959   7.814   6.535  0.3510 -0.1942 -0.4461
  686MOL0     H92569   5.958   7.990   6.525 -0.2788 -0.6723 -0.0799
  686MOL0     H92570   5.801   8.017   6.919  1.6714  1.9814 -1.8870
  686MOL0     H92571   5.658   8.145   7.008 -1.9636  0.1071  0.8784
  686MOL0     H92572   5.494   8.192   6.956 -3.7373 -1.5281  1.3298
  686MOL0     H92573   5.524   8.036   7.038 -0.9641  0.2517  0.6203
  686MOL0     H92574   5.107   8.173   6.746  1.5703 -3.0746  1.9268
  686MOL0     H92575   4.886   8.217   6.660 -2.9743  0.4510 -2.9897
  686MOL0     H92576   4.739   8.100   6.298  0.2512  0.5646 -0.9117
  686MOL0     H92577   4.730   7.923   6.344  2.4107  0.4796  0.3526
  686MOL0     H92578   4.542   7.926   6.430  0.4677 -0.2874 -0.7781
  686MOL0     H92579   4.526   8.107   6.462  1.7758 -0.0521  0.8942
  686MOL0     H92580   4.497   7.931   6.201 -2.0968 -1.7857  2.9489
  686MOL0     H92581   4.541   8.110   6.192  0.3527  0.2956  1.3518
  686MOL0     H92582   4.327   8.161   6.277 -0.5609 -1.9863  2.0643
  686MOL0     H92583   4.296   8.033   6.159  0.3963 -1.0101 -0.8180
  686MOL0     H92584   4.305   7.999   6.464 -2.3225  0.8164  0.2726
  686MOL0     H92585   4.293   7.867   6.345 -0.3423  0.2400 -1.7086
  686MOL0     H92586   4.086   7.946   6.257 -0.2334 -0.6430 -0.3533
  686MOL0     H92587   4.069   7.920   6.434  0.9598  1.1172 -0.4101
  686MOL0     H92588   4.121   8.201   6.322  0.4217  0.6764  1.6510
  686MOL0     H92589   4.077   8.156   6.475  1.3222  0.6904 -0.6347
  686MOL0     H92590   3.901   8.117   6.224  0.3546  0.9312  0.4805
  686MOL0     H92591   3.884   8.249   6.345  1.5848  0.6227  0.6595
  686MOL0     H92592   4.940   7.900   6.369  0.7620 -0.5976 -0.7287
  686MOL0     H92593   5.174   7.882   6.435 -0.1880 -0.4574 -0.6098
  686MOL0     H92594   5.514   7.938   6.522 -1.2699 -1.0978  1.1020
  686MOL0     H92595   5.750   7.860   6.522  1.6958 -0.0939  1.1289
  686MOL0     H92596   7.191   8.664   7.422 -1.2909  0.1787 -1.9170
  686MOL0     H92597   7.430   8.723   7.364 -0.6082  0.1450  2.1555
  686MOL0     H92598   7.896   8.807   7.441 -4.5213 -1.0884 -1.6475
  686MOL0     H92599   8.146   8.756   7.457 -0.3106  1.7467 -1.8565
  686MOL0     H92600   8.326   8.710   7.271 -0.2148 -2.3157 -1.2486
  686MOL0     H92601   8.346   8.679   7.437  1.1230  0.4021 -0.4465
  686MOL0     H92602   8.498   8.564   7.208 -3.6435  1.0826  0.0944
  686MOL0     H92603   8.511   8.503   7.382 -0.0927  2.3584  5.4588
  686MOL0     H92604   8.576   8.721   7.458  2.0638 -0.5948  0.3127
  686MOL0     H92605   8.564   8.787   7.291 -1.6954 -0.0491 -0.4242
  686MOL0     H92606   8.759   8.598   7.247 -0.0114 -3.3610  2.0379
  686MOL0     H92607   8.746   8.580   7.421 -3.2644 -3.7482 -1.5167
  686MOL0     H92608   8.962   8.926   7.363 -0.0731 -0.1482 -1.9316
  686MOL0     H92609   8.070   8.397   7.228 -0.6585 -0.5739 -1.1846
  686MOL0     H92610   7.823   8.442   7.251  0.8538 -1.0783  1.3032
  687MOL0     O92611   6.550   7.157   4.856 -0.4211  1.0286  0.9138
  687MOL0     C92612   6.636   7.066   4.880 -0.0896 -0.6221 -0.4465
  687MOL0     O92613   6.597   6.939   4.892  0.4408 -0.0407 -0.6749
  687MOL0     C92614   6.467   6.900   4.897  0.3228 -0.2333  0.5400
  687MOL0     C92615   6.440   6.786   4.828 -0.4699  0.6354  0.3198
  687MOL0     C92616   6.309   6.733   4.836 -0.2564  0.0516 -0.1442
  687MOL0     C92617   6.207   6.797   4.892  0.1509 -0.2882 -0.7019
  687MOL0     O92618   6.087   6.733   4.889  0.5958 -0.2406  0.1191
  687MOL0     C92619   5.969   6.819   4.914  1.1371  0.0507  0.2855
  687MOL0     C92620   5.840   6.732   4.898 -0.0503  0.1170 -0.5464
  687MOL0     C92621   5.715   6.819   4.917 -1.1451 -0.3693  0.7034
  687MOL0     C92622   5.595   6.733   4.925  0.1327  1.0761 -0.5393
  687MOL0     C92623   5.480   6.806   4.974  0.6064 -0.5857  0.0669
  687MOL0     C92624   5.363   6.707   5.009 -0.9079  0.3960  0.9157
  687MOL0     C92625   5.225   6.783   5.047  0.7250 -0.2553 -0.7607
  687MOL0     C92626   5.217   6.844   5.194  0.6453 -0.1932 -0.4109
  687MOL0     N92627   5.073   6.877   5.232 -0.4812  0.6459  0.0742
  687MOL0     C92628   5.000   6.970   5.175  0.4343  0.1927  0.9420
  687MOL0     C92629   4.874   6.975   5.222 -0.4082  0.0001  0.7382
  687MOL0     C92630   4.782   7.085   5.194 -0.1391 -0.1079  0.2536
  687MOL0     C92631   4.638   7.055   5.256  0.1258  0.8672  0.2556
  687MOL0     C92632   4.553   6.948   5.186  0.3025  0.4124 -0.1085
  687MOL0     C92633   4.408   6.964   5.229  1.0076 -0.0560  0.2784
  687MOL0     O92634   4.342   6.863   5.153  0.3701  0.1480  1.1070
  687MOL0     C92635   4.223   6.888   5.084 -0.8691 -0.5920 -0.2191
  687MOL0     C92636   4.181   6.775   5.004 -0.0735  0.2335 -0.1150
  687MOL0     C92637   4.054   6.786   4.947  0.4196 -0.2984  0.0501
  687MOL0     C92638   4.008   6.665   4.870  0.2586  0.6129  0.2059
  687MOL0     C92639   3.977   6.907   4.946  0.4218  0.1930 -0.1374
  687MOL0     C92640   3.866   6.932   4.853  0.1239 -0.3412 -0.6392
  687MOL0     O92641   3.802   7.054   4.877 -0.1173  0.7036  0.0663
  687MOL0     C92642   3.686   7.108   4.818  0.6640  0.8971 -0.1463
  687MOL0     C92643   3.610   7.184   4.907 -0.8300  0.4114 -0.0779
  687MOL0     C92644   3.494   7.253   4.856 -0.1453  0.3325  0.1143
  687MOL0     C92645   3.449   7.229   4.727 -0.7607 -0.3081  0.5501
  687MOL0     O92646   3.338   7.291   4.674 -0.4402 -0.5358 -0.3216
  687MOL0     C92647   3.358   7.364   4.552  0.4147  0.3093  0.0201
  687MOL0     C92648   3.444   7.490   4.573 -0.2330  0.7402  0.0919
  687MOL0     C92649   3.418   7.573   4.695 -0.1155  0.0152 -0.4539
  687MOL0     C92650   3.526   7.675   4.712 -0.0370 -0.4847 -0.3704
  687MOL0     C92651   3.505   7.770   4.830 -0.1031 -0.7280  0.7982
  687MOL0     C92652   3.519   7.683   4.964  0.1966 -0.3812 -0.3808
  687MOL0     C92653   3.523   7.773   5.081 -0.5984 -0.2466  0.4350
  687MOL0     C92654   3.509   7.717   5.220 -0.6894 -0.5182 -0.2336
  687MOL0    Cl92655   3.353   7.635   5.216 -0.0224  0.1376  0.1468
  687MOL0     C92656   3.512   7.128   4.653 -0.4371 -0.7237  0.2930
  687MOL0     C92657   3.633   7.066   4.697  0.4314 -0.0625  0.1034
  687MOL0     O92658   3.837   6.852   4.769 -0.8432  0.2305  0.0312
  687MOL0     C92659   4.023   7.009   5.030  0.0144  0.7632  0.0641
  687MOL0     C92660   4.143   7.002   5.101 -0.2625  0.2211  0.0790
  687MOL0     N92661   4.873   6.877   5.317 -0.3807 -0.0938  0.9138
  687MOL0     N92662   4.987   6.822   5.326  0.2596  0.7341 -0.0462
  687MOL0     C92663   6.228   6.910   4.963  0.0075  0.6158 -0.3228
  687MOL0     C92664   6.357   6.968   4.968 -0.6090  0.8103  0.7096
  687MOL0     C92665   6.779   7.096   4.877 -0.3489 -0.6748 -0.2083
  687MOL0     C92666   6.837   7.222   4.861  0.1718 -0.0077  0.6042
  687MOL0     C92667   6.972   7.251   4.875 -0.5533 -0.7725  0.1024
  687MOL0     C92668   7.065   7.146   4.897  0.5991  0.5489 -0.3206
  687MOL0     O92669   7.202   7.162   4.903 -0.7392 -0.6662 -0.3345
  687MOL0     C92670   7.254   7.298   4.910 -0.5591  0.4166  0.2719
  687MOL0     C92671   7.397   7.296   4.941 -0.4601  0.1591 -0.1188
  687MOL0     C92672   7.477   7.255   4.817 -0.2144 -0.1674  0.5458
  687MOL0     C92673   7.577   7.143   4.848  0.6484  0.2611  1.0202
  687MOL0     C92674   7.674   7.176   4.958 -0.3929  0.6517  0.8909
  687MOL0     C92675   7.751   7.195   5.053 -0.5453 -0.4721  0.7747
  687MOL0     C92676   7.005   7.014   4.901 -0.3616 -0.7374  0.7544
  687MOL0     C92677   6.867   6.988   4.903 -1.0157  0.4492  0.5962
  687MOL0     H92678   6.522   6.735   4.779  0.8555  3.8169 -1.0567
  687MOL0     H92679   6.287   6.644   4.777 -0.2698  2.1547 -3.5799
  687MOL0     H92680   5.972   6.845   5.020 -0.8056  2.1533 -0.1219
  687MOL0     H92681   5.966   6.906   4.848  2.6143  0.3274  0.5424
  687MOL0     H92682   5.828   6.692   4.796  1.4285  1.6949 -1.3975
  687MOL0     H92683   5.841   6.646   4.966  2.7818  1.0259  0.7149
  687MOL0     H92684   5.730   6.870   5.012  0.8765  1.0026 -0.2780
  687MOL0     H92685   5.697   6.888   4.833 -1.6127  1.5778  2.3376
  687MOL0     H92686   5.566   6.687   4.831 -2.7499  1.5589  0.0313
  687MOL0     H92687   5.628   6.658   4.998  2.1918  1.4511 -1.0100
  687MOL0     H92688   5.505   6.862   5.065  0.9628 -1.1804  0.3403
  687MOL0     H92689   5.444   6.881   4.903 -0.4002 -1.6386 -0.5707
  687MOL0     H92690   5.345   6.659   4.913 -2.4899  1.6327  0.5358
  687MOL0     H92691   5.389   6.637   5.089  1.6383 -1.7153 -1.5833
  687MOL0     H92692   5.203   6.853   4.966 -2.0087  1.6321  1.4272
  687MOL0     H92693   5.148   6.706   5.045  2.3800 -1.9776 -1.6583
  687MOL0     H92694   5.281   6.933   5.193 -1.6541  1.6455  1.8521
  687MOL0     H92695   5.260   6.782   5.273  2.0517  1.4187  0.1587
  687MOL0     H92696   5.041   7.039   5.101  0.9271 -0.7328  0.3402
  687MOL0     H92697   4.827   7.178   5.230 -1.3523  1.2726 -1.6225
  687MOL0     H92698   4.766   7.095   5.086  1.4726  0.4273  0.0332
  687MOL0     H92699   4.579   7.147   5.255 -2.3130 -0.6159  0.2083
  687MOL0     H92700   4.645   7.035   5.364 -1.0002 -2.8779 -0.2163
  687MOL0     H92701   4.584   6.850   5.223 -1.7004  0.8092  3.0008
  687MOL0     H92702   4.557   6.966   5.078 -1.8180  2.9737  0.1494
  687MOL0     H92703   4.375   7.064   5.199  1.5023 -0.7955 -3.2741
  687MOL0     H92704   4.394   6.947   5.336 -0.7936  2.5707  0.5448
  687MOL0     H92705   4.244   6.687   5.004  2.3810  1.8221  2.0769
  687MOL0     H92706   4.023   6.685   4.764  0.6834  2.7703  0.6180
  687MOL0     H92707   4.061   6.570   4.883 -0.0030  0.3054 -0.9256
  687MOL0     H92708   3.904   6.645   4.896 -0.1030  1.8280 -0.2567
  687MOL0     H92709   3.648   7.210   5.005 -1.6979  3.3056 -0.4055
  687MOL0     H92710   3.432   7.321   4.914  0.6642  1.5572 -0.3971
  687MOL0     H92711   3.397   7.301   4.471  0.9381  0.3818  0.2161
  687MOL0     H92712   3.260   7.405   4.523  1.3727  2.6805 -0.0676
  687MOL0     H92713   3.548   7.457   4.585 -0.9208 -1.2686  0.8044
  687MOL0     H92714   3.443   7.544   4.478  1.4799 -4.7595 -3.5423
  687MOL0     H92715   3.408   7.507   4.782 -0.6070 -0.8131 -1.1161
  687MOL0     H92716   3.319   7.618   4.691 -0.1511  0.5244  3.0102
  687MOL0     H92717   3.621   7.622   4.727 -0.5071 -1.3517 -0.4260
  687MOL0     H92718   3.529   7.740   4.625 -0.7068  2.4859  1.6680
  687MOL0     H92719   3.407   7.819   4.829  0.7295  0.9991  0.8010
  687MOL0     H92720   3.584   7.846   4.827  0.4809 -1.3427  0.4861
  687MOL0     H92721   3.436   7.612   4.969  0.0053 -0.3441 -2.4808
  687MOL0     H92722   3.615   7.630   4.970  0.4807  0.2317  1.0274
  687MOL0     H92723   3.435   7.837   5.072  0.5064  1.0999 -1.5779
  687MOL0     H92724   3.615   7.831   5.077 -1.7276  1.5760 -0.2173
  687MOL0     H92725   3.511   7.795   5.296  0.0742 -1.1075  0.3572
  687MOL0     H92726   3.591   7.646   5.237  0.0460  0.0520 -1.3296
  687MOL0     H92727   3.473   7.100   4.556  1.6894  0.0685 -0.8626
  687MOL0     H92728   3.679   6.992   4.633 -2.8267 -3.1205  0.9877
  687MOL0     H92729   3.970   7.103   5.044 -2.0312 -0.1059 -1.4717
  687MOL0     H92730   4.170   7.086   5.164 -1.6274 -0.5149  1.7222
  687MOL0     H92731   6.163   6.965   5.030 -1.9674 -0.6970 -1.0966
  687MOL0     H92732   6.376   7.060   5.022 -3.8311  2.7592 -1.1506
  687MOL0     H92733   6.774   7.309   4.844  1.1396  0.5517 -0.2483
  687MOL0     H92734   7.006   7.353   4.864  0.5550 -1.0844  0.5049
  687MOL0     H92735   7.226   7.349   4.817  0.2760 -0.6167 -0.5840
  687MOL0     H92736   7.201   7.361   4.982  1.1223  1.4061  0.6873
  687MOL0     H92737   7.409   7.220   5.019  1.3045  1.1517  0.6271
  687MOL0     H92738   7.437   7.388   4.984  0.4187 -0.1357 -0.2929
  687MOL0     H92739   7.529   7.343   4.778  0.0584 -1.9226 -3.6712
  687MOL0     H92740   7.416   7.222   4.733  1.4550  0.1270 -0.8488
  687MOL0     H92741   7.634   7.127   4.756 -1.4166 -0.6378 -0.1864
  687MOL0     H92742   7.520   7.052   4.873  0.7687 -0.2701 -0.5374
  687MOL0     H92743   7.817   7.211   5.136 -1.4383  1.4608  1.1753
  687MOL0     H92744   7.071   6.931   4.925 -0.2892 -1.5192 -1.8530
  687MOL0     H92745   6.832   6.887   4.924 -1.9775  0.5663 -0.3704
  688MOL0     O92746   3.217   8.580   1.678  0.0970 -0.3853 -0.3733
  688MOL0     C92747   3.297   8.666   1.654  0.6965  0.2360 -0.5129
  688MOL0     O92748   3.267   8.796   1.648 -0.7665 -0.6336  0.0095
  688MOL0     C92749   3.127   8.826   1.640  0.7333  0.4046  0.0988
  688MOL0     C92750   3.047   8.825   1.526 -0.1360  0.3155 -0.3069
  688MOL0     C92751   2.913   8.861   1.526  0.1862  1.2216  0.3218
  688MOL0     C92752   2.853   8.903   1.641  0.4745  0.2839  0.2279
  688MOL0     O92753   2.719   8.922   1.637  0.1813  0.7311 -0.1358
  688MOL0     C92754   2.661   9.022   1.714  0.1790 -0.6205  0.3703
  688MOL0     C92755   2.510   9.029   1.688  0.2979  0.3084 -0.1661
  688MOL0     C92756   2.472   9.058   1.540 -0.0646 -0.4038 -0.2919
  688MOL0     C92757   2.500   9.208   1.511 -0.0582 -0.7662 -0.2664
  688MOL0     C92758   2.427   9.265   1.387  0.4769  0.4240  0.3148
  688MOL0     C92759   2.497   9.211   1.262 -0.2154  0.3446 -0.6004
  688MOL0     C92760   2.466   9.294   1.148 -0.4257  0.5193  0.3723
  688MOL0     C92761   2.534   9.248   1.019 -0.0909  0.1644  0.0273
  688MOL0     N92762   2.475   9.196   0.898  1.0354 -0.0364  0.6181
  688MOL0     C92763   2.364   9.248   0.827 -0.1209 -0.4915 -1.1146
  688MOL0     C92764   2.347   9.169   0.721  0.2867  0.7312 -0.5519
  688MOL0     C92765   2.236   9.183   0.621  0.1173  0.7310 -0.0174
  688MOL0     C92766   2.154   9.053   0.611 -0.2558 -0.0179  0.5401
  688MOL0     C92767   2.038   9.052   0.707  0.1558  0.7590  0.3700
  688MOL0     C92768   1.955   8.931   0.680  0.3238 -0.0157  0.3205
  688MOL0     O92769   1.834   8.935   0.756  0.5544 -0.1941  0.3998
  688MOL0     C92770   1.717   8.948   0.681  0.3006 -0.3153  0.3014
  688MOL0     C92771   1.641   9.065   0.691 -0.3029 -0.1970  0.3168
  688MOL0     C92772   1.516   9.075   0.621 -0.7922 -0.0033  0.4621
  688MOL0     C92773   1.438   9.202   0.641 -0.2726 -0.8066  0.6312
  688MOL0     C92774   1.469   8.963   0.543  0.1091 -0.2244  0.2143
  688MOL0     C92775   1.342   8.969   0.476  0.1894 -0.2309 -0.4924
  688MOL0     O92776   1.338   8.892   0.364 -0.3743 -0.2778 -0.7607
  688MOL0     C92777   1.220   8.881   0.306 -0.3124 -0.4865 -1.0868
  688MOL0     C92778   1.127   8.796   0.367 -0.6258 -0.3026  0.2586
  688MOL0     C92779   0.998   8.781   0.306  0.2341  0.4022  0.2896
  688MOL0     C92780   0.958   8.847   0.194 -0.5835  0.7715 -0.0301
  688MOL0     O92781   0.843   8.827   0.130  0.2879  0.2891  0.2025
  688MOL0     C92782   0.763   8.945   0.118  0.1452 -0.1351 -0.5428
  688MOL0     C92783   0.617   8.909   0.111  0.5183 -0.6305 -1.1683
  688MOL0     C92784   0.572   8.766   0.158  0.0739 -0.4434  0.0295
  688MOL0     C92785   0.578   8.730   0.304 -0.0029 -0.3153  0.3559
  688MOL0     C92786   0.496   8.608   0.333  0.5902  0.4981  0.1424
  688MOL0     C92787   0.474   8.590   0.484  0.7475  0.2499  0.9679
  688MOL0     C92788   0.375   8.476   0.516 -1.0559  1.7054 -0.5956
  688MOL0     C92789   0.349   8.466   0.663 -0.0093 -0.3544  0.8092
  688MOL0    Cl92790   0.271   8.614   0.721  0.3075 -0.5250  0.1933
  688MOL0     C92791   1.048   8.942   0.148 -0.0742  0.9538 -0.2123
  688MOL0     C92792   1.181   8.956   0.198  0.2785  0.2620  0.7798
  688MOL0     O92793   1.249   9.025   0.529 -0.0502  0.5426 -0.2848
  688MOL0     C92794   1.554   8.851   0.536  0.8534  0.1235 -0.5330
  688MOL0     C92795   1.673   8.847   0.601 -0.5279 -0.3698  0.4078
  688MOL0     N92796   2.442   9.074   0.718 -0.6606 -0.7317 -0.2434
  688MOL0     N92797   2.521   9.104   0.819  0.4435  0.3544 -0.0405
  688MOL0     C92798   2.930   8.914   1.755  0.6251  0.2014  0.5889
  688MOL0     C92799   3.065   8.879   1.756 -0.3021  0.4677  1.0907
  688MOL0     C92800   3.441   8.627   1.641  0.1700 -0.0551 -0.4884
  688MOL0     C92801   3.543   8.725   1.633 -0.3460  0.4457 -0.0761
  688MOL0     C92802   3.684   8.695   1.616  0.7236  0.6674  0.2191
  688MOL0     C92803   3.715   8.562   1.637  0.0997 -0.6638 -0.9211
  688MOL0     O92804   3.850   8.536   1.642  0.3529 -0.2393  0.3595
  688MOL0     C92805   3.900   8.406   1.622  0.1024 -0.0567 -0.3592
  688MOL0     C92806   4.047   8.410   1.638 -0.9537  1.2997  0.1809
  688MOL0     C92807   4.117   8.512   1.540  0.6638 -0.7748  0.2468
  688MOL0     C92808   4.269   8.496   1.540  0.1131  0.4561 -1.1916
  688MOL0     C92809   4.340   8.553   1.662  0.3174  0.8324  0.0511
  688MOL0     C92810   4.395   8.601   1.759  0.9891  0.6272 -0.0109
  688MOL0     C92811   3.622   8.463   1.645 -1.0376 -0.3637 -0.2808
  688MOL0     C92812   3.487   8.496   1.650  0.6022  0.4291  0.1624
  688MOL0     H92813   3.088   8.800   1.429 -0.9008  1.3527 -0.9089
  688MOL0     H92814   2.856   8.853   1.434 -1.4844  1.0757  1.3239
  688MOL0     H92815   2.682   9.009   1.821  0.8838  0.4436  0.3822
  688MOL0     H92816   2.690   9.125   1.692 -2.7279  0.4660  1.0864
  688MOL0     H92817   2.472   8.932   1.721  0.7148  0.4442  0.7179
  688MOL0     H92818   2.449   9.096   1.749 -0.8471 -1.2683  0.4886
  688MOL0     H92819   2.541   9.003   1.476  0.3468  0.4478 -0.6028
  688MOL0     H92820   2.368   9.036   1.516 -0.7665  0.6965  1.5395
  688MOL0     H92821   2.483   9.271   1.598  4.1904  1.5292 -0.8328
  688MOL0     H92822   2.607   9.230   1.504 -0.0320 -0.3596  1.1912
  688MOL0     H92823   2.319   9.246   1.383  0.1006  2.0253  1.7888
  688MOL0     H92824   2.439   9.373   1.398  1.5294  0.3220  0.3239
  688MOL0     H92825   2.606   9.208   1.275 -0.3882  1.8937  1.7931
  688MOL0     H92826   2.461   9.108   1.249 -0.7034  0.3297  0.7319
  688MOL0     H92827   2.359   9.291   1.126 -0.2101 -0.7538 -0.6136
  688MOL0     H92828   2.492   9.398   1.172  2.4806 -0.5041  2.1291
  688MOL0     H92829   2.606   9.176   1.059 -0.2610  1.4218  2.8918
  688MOL0     H92830   2.589   9.335   0.982 -0.5348  0.4336 -0.0100
  688MOL0     H92831   2.305   9.332   0.863  0.7611 -0.2341 -0.2223
  688MOL0     H92832   2.167   9.263   0.650  1.0635  0.8287  2.0796
  688MOL0     H92833   2.276   9.197   0.519 -0.4830 -1.1270 -0.5396
  688MOL0     H92834   2.217   8.967   0.636  2.0208  1.6454  0.8719
  688MOL0     H92835   2.111   9.049   0.511  0.2264  1.8510  0.2161
  688MOL0     H92836   1.979   9.144   0.695  1.2489  1.5875  1.1095
  688MOL0     H92837   2.066   9.046   0.813 -0.5952  0.2738  0.5497
  688MOL0     H92838   2.004   8.836   0.702  2.0222  0.4103 -1.3585
  688MOL0     H92839   1.929   8.944   0.575 -0.5662  0.5501  0.6012
  688MOL0     H92840   1.676   9.138   0.763  0.0391 -1.0700  1.0627
  688MOL0     H92841   1.382   9.242   0.556 -0.6572  0.8035  1.5901
  688MOL0     H92842   1.374   9.188   0.728 -0.9557  1.7612  0.6081
  688MOL0     H92843   1.506   9.287   0.657 -1.0936 -0.1869  0.9037
  688MOL0     H92844   1.181   8.737   0.440  1.3786  1.6649  0.4539
  688MOL0     H92845   0.931   8.704   0.344  2.0659 -1.6953 -0.4770
  688MOL0     H92846   0.775   9.022   0.195  0.9304  1.9507 -2.6101
  688MOL0     H92847   0.799   8.995   0.027  0.3435  0.7847  0.0298
  688MOL0     H92848   0.560   8.974   0.179  0.3365 -1.1243 -0.8403
  688MOL0     H92849   0.579   8.931   0.011 -0.4529 -1.3863 -0.9869
  688MOL0     H92850   0.624   8.693   0.096 -1.3310 -0.3516 -1.2970
  688MOL0     H92851   0.470   8.749   0.122 -0.2134 -1.4254  1.2448
  688MOL0     H92852   0.680   8.697   0.324  0.0478 -0.9824 -0.9004
  688MOL0     H92853   0.546   8.819   0.358  1.4297  2.1768 -2.6034
  688MOL0     H92854   0.539   8.520   0.285 -1.3529 -0.2736 -0.2892
  688MOL0     H92855   0.400   8.609   0.281  0.1457 -0.0668  0.9152
  688MOL0     H92856   0.571   8.559   0.525  2.0673  1.7670 -0.8772
  688MOL0     H92857   0.449   8.686   0.530  1.9641  0.7371  0.6327
  688MOL0     H92858   0.420   8.384   0.479 -0.9531  0.9149  1.3572
  688MOL0     H92859   0.278   8.488   0.468 -1.9191 -2.4372 -0.1972
  688MOL0     H92860   0.442   8.462   0.720  0.5741  0.3794 -0.0609
  688MOL0     H92861   0.284   8.380   0.679 -2.1383  0.6462 -1.6134
  688MOL0     H92862   1.007   9.000   0.066 -0.6028  0.2535 -0.4488
  688MOL0     H92863   1.244   9.027   0.147  0.4312  1.0519  2.0130
  688MOL0     H92864   1.538   8.766   0.470 -2.9882  0.0286  0.3472
  688MOL0     H92865   1.726   8.752   0.592  1.1311  0.6162 -0.8057
  688MOL0     H92866   2.873   8.936   1.844  0.8658  0.3730  0.7017
  688MOL0     H92867   3.121   8.882   1.849 -1.7443  1.7161  1.9757
  688MOL0     H92868   3.512   8.829   1.635 -0.1152  0.5107  1.1252
  688MOL0     H92869   3.760   8.772   1.614  1.8899 -0.4549 -0.4314
  688MOL0     H92870   3.865   8.331   1.695  0.0914 -0.2005 -0.5125
  688MOL0     H92871   3.870   8.358   1.528 -1.1219 -2.1556  1.0023
  688MOL0     H92872   4.081   8.311   1.606  1.7564  2.4204 -0.6775
  688MOL0     H92873   4.074   8.422   1.743 -0.6134  0.4866  0.1919
  688MOL0     H92874   4.084   8.613   1.567  0.8036 -0.6693  0.0292
  688MOL0     H92875   4.078   8.495   1.439 -0.6508 -2.0864  0.9397
  688MOL0     H92876   4.329   8.546   1.464  2.0986  0.7225  0.4655
  688MOL0     H92877   4.287   8.390   1.524 -0.3661  0.2429 -0.4062
  688MOL0     H92878   4.453   8.624   1.847 -1.9847 -0.2859  2.3624
  688MOL0     H92879   3.655   8.359   1.645 -1.9586 -0.6931 -2.2795
  688MOL0     H92880   3.410   8.420   1.654  2.1669 -1.3938 -1.7354
  689MOL0     O92881   6.604  10.286   8.117 -0.4889 -0.0547 -0.3446
  689MOL0     C92882   6.662  10.386   8.162  0.3392 -0.1954  0.0137
  689MOL0     O92883   6.594  10.496   8.217  0.1432 -0.4590  0.2771
  689MOL0     C92884   6.457  10.525   8.188 -1.0633  0.3291  0.0859
  689MOL0     C92885   6.373  10.448   8.103 -0.3261 -0.8552  0.0337
  689MOL0     C92886   6.245  10.488   8.078  0.3032  0.0261 -0.0570
  689MOL0     C92887   6.191  10.602   8.138 -0.6647  0.0750  0.1349
  689MOL0     O92888   6.069  10.643   8.122  0.1052  0.7692 -0.1936
  689MOL0     C92889   6.001  10.683   8.239  0.9700 -0.3814  0.1626
  689MOL0     C92890   5.850  10.663   8.222  0.2354 -0.3594 -0.3201
  689MOL0     C92891   5.781  10.724   8.344  0.0303 -0.0790  0.3391
  689MOL0     C92892   5.644  10.786   8.308  0.9466 -0.2833  0.1624
  689MOL0     C92893   5.562  10.801   8.440 -0.3843  0.2512 -0.1452
  689MOL0     C92894   5.598  10.925   8.514 -0.6024 -0.0316 -0.3001
  689MOL0     C92895   5.502  10.973   8.629 -0.7245 -0.9414 -0.7226
  689MOL0     C92896   5.521  10.899   8.761 -0.9355  0.4527  0.1783
  689MOL0     N92897   5.662  10.906   8.802 -0.5471  0.2064  0.6545
  689MOL0     C92898   5.734  11.026   8.818  0.6274 -0.3900 -0.1345
  689MOL0     C92899   5.866  10.989   8.836 -1.2137 -0.4617  0.0002
  689MOL0     C92900   5.978  11.088   8.857  0.1189  0.0156  0.1164
  689MOL0     C92901   6.114  11.022   8.891  0.4721  0.6078 -0.3211
  689MOL0     C92902   6.240  11.109   8.858 -0.4666  0.1078  0.5401
  689MOL0     C92903   6.367  11.031   8.913  0.0190 -0.1887 -0.1618
  689MOL0     O92904   6.366  11.030   9.056  0.4972  0.9360 -1.1398
  689MOL0     C92905   6.487  11.016   9.123  0.1572  0.2827  0.3798
  689MOL0     C92906   6.616  10.983   9.067  0.2970  0.0085 -0.4962
  689MOL0     C92907   6.727  10.949   9.146 -0.8025  0.4861 -1.2509
  689MOL0     C92908   6.860  10.915   9.081 -0.2822  0.4139  0.1235
  689MOL0     C92909   6.708  10.950   9.292  0.5246 -0.0127 -0.7501
  689MOL0     C92910   6.820  10.920   9.388 -0.4904  0.8886  0.4115
  689MOL0     O92911   6.779  10.893   9.519  0.1782  0.3337 -0.1408
  689MOL0     C92912   6.874  10.830   9.602 -0.1025 -0.6853  0.8374
  689MOL0     C92913   6.874  10.697   9.621 -0.3156  0.5750  0.1847
  689MOL0     C92914   6.974  10.624   9.699 -0.3640  0.5531 -0.6808
  689MOL0     C92915   7.082  10.696   9.743 -0.1551 -0.1940  0.7191
  689MOL0     O92916   7.187  10.627   9.804  0.1889  0.1756  0.2086
  689MOL0     C92917   7.159  10.566   9.930 -0.0004  0.5619  0.5897
  689MOL0     C92918   7.287  10.507   9.992  0.1169  0.4551  0.3113
  689MOL0     C92919   7.358  10.391   9.913 -0.3273 -0.0266  0.0790
  689MOL0     C92920   7.465  10.448   9.815 -0.5270  0.7845  0.2071
  689MOL0     C92921   7.530  10.329   9.732  0.7115  0.3493  0.3591
  689MOL0     C92922   7.644  10.373   9.635  0.4404 -0.8725  1.0067
  689MOL0     C92923   7.576  10.475   9.530 -0.3015 -0.6851 -0.1262
  689MOL0     C92924   7.680  10.505   9.417  0.8171  0.2811 -0.4071
  689MOL0    Cl92925   7.713  10.349   9.338  0.0013 -0.1771  0.2092
  689MOL0     C92926   7.085  10.838   9.732  0.0086 -0.0234 -0.0368
  689MOL0     C92927   6.987  10.903   9.659  0.1347  0.3147  0.2888
  689MOL0     O92928   6.934  10.901   9.345 -0.4752 -0.1879 -0.3498
  689MOL0     C92929   6.581  10.987   9.343 -0.9618  0.2357 -0.2674
  689MOL0     C92930   6.478  11.019   9.261  0.5707  0.3064  0.8215
  689MOL0     N92931   5.870  10.851   8.825 -0.3512  0.2380 -0.1936
  689MOL0     N92932   5.749  10.805   8.822 -0.8541 -0.3527  0.0218
  689MOL0     C92933   6.273  10.682   8.216 -1.4749 -0.1715 -0.6966
  689MOL0     C92934   6.406  10.647   8.238  1.1673  0.7868  0.7433
  689MOL0     C92935   6.807  10.381   8.148  0.1872 -0.2790  0.8431
  689MOL0     C92936   6.896  10.486   8.181 -0.0394 -1.0102 -1.1012
  689MOL0     C92937   7.030  10.473   8.179 -0.2683 -0.3303  0.3884
  689MOL0     C92938   7.094  10.351   8.143 -0.5398  0.5173 -0.1031
  689MOL0     O92939   7.228  10.351   8.142  0.2066 -0.2929 -0.4658
  689MOL0     C92940   7.311  10.237   8.108 -0.6616  0.2920 -0.1466
  689MOL0     C92941   7.452  10.287   8.095  0.1415 -0.0304  0.1729
  689MOL0     C92942   7.550  10.169   8.076 -0.6657 -0.4281 -0.2167
  689MOL0     C92943   7.692  10.239   8.088 -0.1567  0.2836  0.4067
  689MOL0     C92944   7.797  10.140   8.052 -0.0600 -0.4049 -0.1789
  689MOL0     C92945   7.881  10.055   8.020 -0.8109 -0.7791 -0.2062
  689MOL0     C92946   7.015  10.248   8.097 -0.2082 -0.8956 -0.1177
  689MOL0     C92947   6.873  10.266   8.114  0.4491 -0.5418  0.9520
  689MOL0     H92948   6.400  10.357   8.051 -0.1631 -0.9329  0.2526
  689MOL0     H92949   6.177  10.441   8.009 -1.1576  3.1051 -0.9142
  689MOL0     H92950   6.039  10.636   8.331 -2.1261 -2.4826  0.5326
  689MOL0     H92951   6.013  10.790   8.254 -2.5048  0.1998 -0.4144
  689MOL0     H92952   5.806  10.708   8.132  0.0564 -2.2972 -1.2697
  689MOL0     H92953   5.824  10.557   8.215 -2.3673  0.2359 -0.7720
  689MOL0     H92954   5.765  10.636   8.408 -0.7081 -0.5625 -0.4837
  689MOL0     H92955   5.838  10.798   8.401 -1.1820  0.2627  1.1611
  689MOL0     H92956   5.661  10.885   8.264  0.5107 -0.4297 -0.3380
  689MOL0     H92957   5.584  10.725   8.241  0.1206 -0.4075  0.9914
  689MOL0     H92958   5.458  10.806   8.406 -0.0510  1.3305 -1.0765
  689MOL0     H92959   5.574  10.717   8.508 -0.4541  0.1679 -0.2358
  689MOL0     H92960   5.696  10.922   8.564 -1.8441  4.5069  2.9872
  689MOL0     H92961   5.613  11.005   8.441  0.5293 -1.0640 -1.2502
  689MOL0     H92962   5.518  11.079   8.647 -2.1661 -0.9430  0.9163
  689MOL0     H92963   5.396  10.949   8.612 -0.5161 -1.8215 -0.8142
  689MOL0     H92964   5.501  10.792   8.749 -0.8077  0.2740  1.4445
  689MOL0     H92965   5.458  10.945   8.838 -3.5907  1.7616 -2.5591
  689MOL0     H92966   5.687  11.124   8.823 -1.8748 -1.3095 -2.5629
  689MOL0     H92967   5.982  11.157   8.771 -1.4216  2.7096  2.0391
  689MOL0     H92968   5.952  11.152   8.942 -3.6780 -0.0538 -0.7707
  689MOL0     H92969   6.121  10.924   8.843 -0.0708 -0.6178  1.9496
  689MOL0     H92970   6.111  11.000   8.998  1.2579 -1.5317 -0.6810
  689MOL0     H92971   6.235  11.207   8.905  0.6773 -0.1772  1.2876
  689MOL0     H92972   6.254  11.122   8.750 -2.4422 -1.6595 -0.0033
  689MOL0     H92973   6.458  11.085   8.885  2.2533 -2.3494  2.3447
  689MOL0     H92974   6.372  10.932   8.868  0.1975  0.2344 -1.0886
  689MOL0     H92975   6.618  10.963   8.960  0.7089  0.0677 -0.4991
  689MOL0     H92976   6.934  10.982   9.126 -1.0157  1.0994  0.3360
  689MOL0     H92977   6.884  10.814   9.114  0.2132  0.8506  1.1686
  689MOL0     H92978   6.862  10.923   8.972 -1.4510  1.9558  0.1848
  689MOL0     H92979   6.790  10.646   9.575  0.8859 -2.1732  0.8107
  689MOL0     H92980   6.959  10.517   9.700 -2.0412  0.7446  1.6386
  689MOL0     H92981   7.128  10.627  10.015 -1.2943  0.8590 -0.0796
  689MOL0     H92982   7.090  10.483   9.918 -1.5576  2.0152 -1.1381
  689MOL0     H92983   7.356  10.590  10.009 -0.0884  0.6676  0.1156
  689MOL0     H92984   7.267  10.472  10.094 -1.3512  1.7548  0.5123
  689MOL0     H92985   7.278  10.338   9.860  0.9018 -1.1073 -0.7534
  689MOL0     H92986   7.395  10.318   9.986 -0.5854 -1.1621 -0.9025
  689MOL0     H92987   7.421  10.518   9.743 -0.3917  1.7767  1.0615
  689MOL0     H92988   7.546  10.495   9.870 -1.9262 -0.4932  3.6107
  689MOL0     H92989   7.453  10.274   9.677  0.0133  2.0528 -0.4253
  689MOL0     H92990   7.564  10.260   9.810 -1.8806 -0.8665  0.5169
  689MOL0     H92991   7.724  10.428   9.686  1.3993  1.3328 -2.4956
  689MOL0     H92992   7.689  10.286   9.586 -0.6778 -0.3595 -1.0709
  689MOL0     H92993   7.561  10.575   9.573  1.2848  0.2404 -1.6073
  689MOL0     H92994   7.485  10.435   9.484  0.1176 -0.3598 -1.2609
  689MOL0     H92995   7.770  10.556   9.452  0.6721 -1.3490  2.6972
  689MOL0     H92996   7.628  10.571   9.347 -1.7116  0.4771  1.4781
  689MOL0     H92997   7.175  10.872   9.782  0.5133 -0.0532 -0.9174
  689MOL0     H92998   6.993  11.010   9.641  0.1196 -0.0762 -2.6186
  689MOL0     H92999   6.558  10.977   9.449  0.7655 -0.5719  0.0619
  689MOL0     H93000   6.380  11.039   9.304  0.5283 -2.8397  2.4119
  689MOL0     H93001   6.243  10.777   8.259  3.3517  1.2688  0.1577
  689MOL0     H93002   6.462  10.716   8.300 -0.0014  0.5952  2.0535
  689MOL0     H93003   6.863  10.583   8.216  2.0606 -0.2874 -0.9845
  689MOL0     H93004   7.094  10.558   8.201  2.1779 -1.8687 -0.3961
  689MOL0     H93005   7.294  10.163   8.187 -1.0495  1.6813  1.1265
  689MOL0     H93006   7.275  10.192   8.014  0.9408  1.9607 -1.6301
  689MOL0     H93007   7.474  10.350   8.182 -0.6242 -1.1665  1.2276
  689MOL0     H93008   7.451  10.336   7.998 -1.2571 -1.9675 -0.8614
  689MOL0     H93009   7.542  10.129   7.975 -0.9889 -1.7339  0.3104
  689MOL0     H93010   7.536  10.088   8.147 -0.0133 -0.3025  0.0652
  689MOL0     H93011   7.707  10.289   8.184  3.3751 -0.6885  0.4886
  689MOL0     H93012   7.694  10.310   8.005  0.7241 -0.2628 -0.0547
  689MOL0     H93013   7.966  10.002   7.981 -0.5178  1.3466 -2.7567
  689MOL0     H93014   7.048  10.151   8.062 -1.1336 -1.5997  0.9100
  689MOL0     H93015   6.810  10.182   8.086 -0.3978  0.8033 -1.4605
  690MOL0     O93016   5.011   1.815   1.848 -0.5866 -0.4794  0.0709
  690MOL0     C93017   4.997   1.930   1.889 -0.0327  0.7922  0.5619
  690MOL0     O93018   4.874   1.983   1.924  0.0734 -0.7125  0.4228
  690MOL0     C93019   4.764   1.911   1.893 -0.6669  0.1226 -0.0201
  690MOL0     C93020   4.687   1.947   1.780  0.0502 -0.1396  0.8110
  690MOL0     C93021   4.576   1.875   1.748 -0.1809  0.1442 -0.4833
  690MOL0     C93022   4.524   1.780   1.842 -0.6248  0.6655  0.0136
  690MOL0     O93023   4.412   1.712   1.795 -0.0972  0.0643  0.2160
  690MOL0     C93024   4.314   1.675   1.894 -0.2868  0.2779 -0.1100
  690MOL0     C93025   4.179   1.746   1.893 -0.2757 -0.5457 -0.2495
  690MOL0     C93026   4.076   1.659   1.959 -0.3695 -0.2802 -0.2747
  690MOL0     C93027   3.961   1.733   2.021  0.3636 -0.8908 -0.1567
  690MOL0     C93028   3.843   1.652   2.067 -0.8201 -0.2813  0.4350
  690MOL0     C93029   3.742   1.742   2.134  0.0118 -0.5252 -0.3340
  690MOL0     C93030   3.634   1.666   2.212  0.4462  0.1331 -0.1121
  690MOL0     C93031   3.529   1.595   2.123 -0.5668  0.1820  0.4414
  690MOL0     N93032   3.394   1.582   2.183  0.1116  0.4293 -0.0054
  690MOL0     C93033   3.294   1.489   2.145  0.3053 -0.1121 -0.3505
  690MOL0     C93034   3.187   1.510   2.225 -0.1159 -0.3696  0.1401
  690MOL0     C93035   3.054   1.450   2.208  0.3496 -0.9933  0.1835
  690MOL0     C93036   2.951   1.501   2.312 -0.2601 -0.1576  0.1086
  690MOL0     C93037   2.973   1.444   2.444 -0.7287 -0.3095  0.4556
  690MOL0     C93038   2.888   1.509   2.565  0.1354 -0.5903 -0.5231
  690MOL0     O93039   2.759   1.532   2.514 -0.6176  0.0637  0.0617
  690MOL0     C93040   2.671   1.425   2.486 -0.0546  0.6226 -0.5527
  690MOL0     C93041   2.673   1.304   2.555 -0.6802  0.0671 -0.4245
  690MOL0     C93042   2.570   1.208   2.539 -0.2228 -0.7193  0.0481
  690MOL0     C93043   2.562   1.094   2.635  0.2289 -0.0585  1.0868
  690MOL0     C93044   2.475   1.226   2.427 -0.5752 -0.7740 -0.2933
  690MOL0     C93045   2.375   1.125   2.391  0.5096  0.1830 -0.4887
  690MOL0     O93046   2.269   1.172   2.320 -0.3805  0.7870 -0.3185
  690MOL0     C93047   2.167   1.094   2.261  0.2647 -0.1931 -0.0232
  690MOL0     C93048   2.092   1.155   2.170 -0.1337 -0.4100  0.4896
  690MOL0     C93049   1.989   1.094   2.099  0.0498  0.0771 -0.1086
  690MOL0     C93050   1.959   0.964   2.131  0.1318  0.1081 -0.3757
  690MOL0     O93051   1.860   0.905   2.050 -0.2907 -0.2738 -0.2316
  690MOL0     C93052   1.917   0.800   1.966 -0.1725  0.5357 -0.3422
  690MOL0     C93053   1.854   0.668   1.998 -0.1731 -0.1546  0.2173
  690MOL0     C93054   1.697   0.656   1.985 -0.3867 -0.1123 -0.0131
  690MOL0     C93055   1.648   0.506   1.999  0.0496 -0.3906  0.3283
  690MOL0     C93056   1.497   0.487   1.978 -0.4506 -0.9793  0.2806
  690MOL0     C93057   1.429   0.529   2.111 -0.3020 -0.1067  0.8711
  690MOL0     C93058   1.276   0.554   2.089  0.0950  0.2233  0.5533
  690MOL0     C93059   1.248   0.687   2.027  0.4456  0.0708 -0.2641
  690MOL0    Cl93060   1.079   0.692   1.986 -0.5600  0.0054  0.0546
  690MOL0     C93061   2.028   0.904   2.235 -0.2126 -0.4026 -0.1884
  690MOL0     C93062   2.134   0.964   2.307  1.3987  0.6172 -0.0874
  690MOL0     O93063   2.409   1.002   2.394 -0.3560 -0.4359  0.2238
  690MOL0     C93064   2.474   1.349   2.358 -0.7666 -0.6614  0.1082
  690MOL0     C93065   2.574   1.442   2.388 -0.1477  0.4727 -0.3913
  690MOL0     N93066   3.214   1.609   2.318 -0.1659  0.1689 -0.4569
  690MOL0     N93067   3.337   1.654   2.283  0.4303  0.4574  0.2530
  690MOL0     C93068   4.602   1.747   1.956  0.0991  0.0449  0.4124
  690MOL0     C93069   4.719   1.811   1.984  0.8069 -0.7209 -0.6087
  690MOL0     C93070   5.115   2.018   1.922 -0.4426  0.9057 -0.5941
  690MOL0     C93071   5.113   2.152   1.954 -0.3409  0.0543  0.2688
  690MOL0     C93072   5.233   2.215   1.995 -0.2186 -0.0047  0.3363
  690MOL0     C93073   5.358   2.155   2.006  0.4319  0.2489  0.2200
  690MOL0     O93074   5.471   2.214   2.064  0.3851 -0.4714  0.6256
  690MOL0     C93075   5.509   2.328   1.993  0.4067 -0.5836  0.7797
  690MOL0     C93076   5.632   2.391   2.061 -0.6237  0.3921 -0.3819
  690MOL0     C93077   5.750   2.306   2.034  0.2193 -0.5315  0.0900
  690MOL0     C93078   5.873   2.366   2.104 -0.9781 -0.6446 -0.7255
  690MOL0     C93079   5.996   2.335   2.024  0.3229  0.4883 -0.7901
  690MOL0     C93080   6.097   2.321   1.964  0.3748 -0.7287 -0.1151
  690MOL0     C93081   5.360   2.021   1.972  0.1707 -0.0651 -0.4361
  690MOL0     C93082   5.244   1.951   1.934  1.3637 -0.0158  0.6055
  690MOL0     H93083   4.718   2.033   1.721 -1.0582  1.3025  2.2424
  690MOL0     H93084   4.523   1.895   1.655 -1.0931 -3.4429 -0.8955
  690MOL0     H93085   4.288   1.574   1.861 -1.6637  1.1277 -1.8152
  690MOL0     H93086   4.369   1.664   1.988  0.3932  0.5441 -0.4676
  690MOL0     H93087   4.190   1.838   1.951 -0.3068 -0.0726 -0.9760
  690MOL0     H93088   4.163   1.764   1.786 -2.3029 -1.4338 -0.1420
  690MOL0     H93089   4.041   1.578   1.894 -2.1140  0.7726 -0.7107
  690MOL0     H93090   4.135   1.618   2.041 -0.1118  2.7991  1.2033
  690MOL0     H93091   3.997   1.795   2.104 -0.5430 -2.8627  1.8282
  690MOL0     H93092   3.920   1.797   1.943  0.4227 -1.1597 -0.4115
  690MOL0     H93093   3.790   1.602   1.986  0.3577 -1.1077  0.1604
  690MOL0     H93094   3.885   1.575   2.133 -0.1279  0.0727  0.4172
  690MOL0     H93095   3.802   1.807   2.198 -0.8557  0.7597 -0.7731
  690MOL0     H93096   3.693   1.808   2.062  0.9819  0.9325  0.2964
  690MOL0     H93097   3.674   1.599   2.289  0.8859  2.2657  1.6439
  690MOL0     H93098   3.587   1.751   2.263 -0.1601  0.6306 -1.4399
  690MOL0     H93099   3.575   1.498   2.104 -1.3890 -0.3054  0.8791
  690MOL0     H93100   3.514   1.647   2.028  0.5734 -2.2218 -1.1493
  690MOL0     H93101   3.301   1.424   2.059  1.7115  1.6174 -1.6423
  690MOL0     H93102   3.001   1.476   2.116 -1.7474 -2.4992  0.8845
  690MOL0     H93103   3.054   1.341   2.206 -2.5094 -1.0722  0.5589
  690MOL0     H93104   2.858   1.460   2.272  0.2327 -2.1491  0.8987
  690MOL0     H93105   2.947   1.610   2.312  0.7126 -0.1014  1.4327
  690MOL0     H93106   3.079   1.464   2.463 -1.0008  0.9504  0.7832
  690MOL0     H93107   2.948   1.338   2.442 -0.9013 -0.2582 -1.1092
  690MOL0     H93108   2.936   1.603   2.595 -2.1789  0.6414 -0.4322
  690MOL0     H93109   2.886   1.442   2.652  2.9619 -1.9172 -1.3640
  690MOL0     H93110   2.737   1.299   2.643 -0.5068  1.5967 -0.4405
  690MOL0     H93111   2.627   1.114   2.721  0.6598 -1.1689  1.0303
  690MOL0     H93112   2.463   1.069   2.674  0.0473  0.2369  0.8198
  690MOL0     H93113   2.594   1.005   2.582 -0.6377  0.1578  0.1811
  690MOL0     H93114   2.121   1.258   2.153 -3.2272  0.4569 -0.1861
  690MOL0     H93115   1.934   1.141   2.018  1.5112  1.9278 -0.1084
  690MOL0     H93116   1.898   0.826   1.861 -1.0739 -0.0917 -0.3491
  690MOL0     H93117   2.024   0.783   1.981 -0.6390 -2.5136  0.1297
  690MOL0     H93118   1.895   0.580   1.947  0.6923  0.8952 -0.9526
  690MOL0     H93119   1.866   0.654   2.106 -1.1394 -3.4417  0.0172
  690MOL0     H93120   1.657   0.689   1.889  0.9159 -0.6056 -0.7396
  690MOL0     H93121   1.654   0.710   2.071 -0.0797 -1.4033  0.9808
  690MOL0     H93122   1.696   0.443   1.923 -1.6244 -0.7917 -0.4505
  690MOL0     H93123   1.677   0.464   2.096  2.0884 -0.8434 -0.4161
  690MOL0     H93124   1.477   0.382   1.955 -0.9860 -1.0812  1.1694
  690MOL0     H93125   1.456   0.542   1.893 -1.1587  0.8811  1.7521
  690MOL0     H93126   1.448   0.448   2.182  4.5790  0.0189  0.0564
  690MOL0     H93127   1.487   0.616   2.142  1.5416 -1.1859  0.6266
  690MOL0     H93128   1.221   0.554   2.184 -0.4570 -0.4578  0.2408
  690MOL0     H93129   1.228   0.469   2.040 -0.8028  0.3158  1.2459
  690MOL0     H93130   1.301   0.696   1.932  1.9197  2.5014  0.7036
  690MOL0     H93131   1.278   0.773   2.087 -1.6455  2.4662 -2.4155
  690MOL0     H93132   1.993   0.802   2.250 -2.1309  0.0591 -1.1485
  690MOL0     H93133   2.178   0.912   2.392  0.2218  0.6160  0.5360
  690MOL0     H93134   2.402   1.367   2.279  1.0879  2.2175 -1.0822
  690MOL0     H93135   2.564   1.533   2.331 -1.4388  0.2222 -0.5929
  690MOL0     H93136   4.566   1.673   2.026  0.6412 -1.8653 -1.2538
  690MOL0     H93137   4.765   1.790   2.080 -0.5159 -0.8894  0.0231
  690MOL0     H93138   5.020   2.207   1.956  1.4357  3.3785  3.9726
  690MOL0     H93139   5.217   2.318   2.027 -1.1597  1.1407 -3.3317
  690MOL0     H93140   5.535   2.299   1.891  0.7725  1.9990  0.0760
  690MOL0     H93141   5.438   2.411   1.983  0.3999 -0.8941 -3.3526
  690MOL0     H93142   5.610   2.396   2.168  0.8937  0.5522 -0.0466
  690MOL0     H93143   5.645   2.496   2.034 -0.9982  0.1437 -1.6125
  690MOL0     H93144   5.768   2.304   1.926  1.3574  1.8378  0.1660
  690MOL0     H93145   5.741   2.210   2.087 -0.0914  0.1255  1.2584
  690MOL0     H93146   5.873   2.316   2.202  0.5532 -0.2876 -0.5075
  690MOL0     H93147   5.856   2.474   2.107 -0.8416 -0.6251 -0.6446
  690MOL0     H93148   6.195   2.320   1.920  1.1907  1.6973  1.4525
  690MOL0     H93149   5.453   1.974   2.001 -1.2757 -3.6089 -0.9988
  690MOL0     H93150   5.238   1.846   1.906 -2.4092  1.0042 -3.5026
  691MOL0     O93151  10.029   2.970   7.384  0.1382 -0.0969  0.1960
  691MOL0     C93152  10.139   2.993   7.433  0.0799  0.6178  0.5693
  691MOL0     O93153  10.172   3.002   7.564 -0.0014  0.0483 -0.2834
  691MOL0     C93154  10.076   2.963   7.654 -0.6143  0.1870 -0.5438
  691MOL0     C93155  10.076   2.832   7.700  0.1574  1.1461 -0.2332
  691MOL0     C93156   9.982   2.797   7.792 -0.1094 -0.1531 -0.2432
  691MOL0     C93157   9.889   2.881   7.853 -0.1798  0.1048  1.0890
  691MOL0     O93158   9.813   2.823   7.952 -0.3339  0.2291 -0.2096
  691MOL0     C93159   9.717   2.908   8.027  1.4161 -0.8516  0.2951
  691MOL0     C93160   9.607   2.955   7.922 -0.8490  0.0105 -0.5853
  691MOL0     C93161   9.527   3.071   7.988  0.6901 -0.2506 -0.0031
  691MOL0     C93162   9.429   3.021   8.100  0.7940 -0.3309 -0.0982
  691MOL0     C93163   9.303   3.107   8.088 -0.0376  0.2992 -0.6156
  691MOL0     C93164   9.196   3.063   8.195  0.2131  0.6598  0.2077
  691MOL0     C93165   9.046   3.065   8.156  0.7849 -1.3407 -0.5006
  691MOL0     C93166   8.997   3.199   8.094  0.1419 -1.1258 -0.1435
  691MOL0     N93167   8.856   3.201   8.054  0.0199 -0.2193  0.4790
  691MOL0     C93168   8.813   3.236   7.924  0.2743 -0.3094  0.4631
  691MOL0     C93169   8.674   3.234   7.933 -0.1906 -0.1215 -0.0331
  691MOL0     C93170   8.582   3.265   7.814 -0.4875  0.2417 -0.2209
  691MOL0     C93171   8.568   3.412   7.786  0.1228 -0.2007 -0.0802
  691MOL0     C93172   8.696   3.487   7.748  0.4263 -0.0338  1.2330
  691MOL0     C93173   8.744   3.444   7.598  0.8806  0.8394  0.1855
  691MOL0     O93174   8.645   3.475   7.507  0.1561 -0.6440 -0.1980
  691MOL0     C93175   8.625   3.600   7.451  0.7688  1.5824  0.2183
  691MOL0     C93176   8.496   3.650   7.445 -0.8175 -0.1041 -0.2205
  691MOL0     C93177   8.470   3.765   7.365  0.7202 -0.4281 -0.5124
  691MOL0     C93178   8.323   3.802   7.343 -0.1893 -1.5917 -1.0362
  691MOL0     C93179   8.575   3.840   7.307 -0.1388 -0.3549  0.0081
  691MOL0     C93180   8.570   3.955   7.205 -0.6165  0.6039 -0.1921
  691MOL0     O93181   8.674   3.959   7.109 -0.0842 -0.2604  0.1652
  691MOL0     C93182   8.657   4.008   6.982  0.3363  0.1809  0.7737
  691MOL0     C93183   8.543   4.055   6.913 -0.3402  0.3314  0.0792
  691MOL0     C93184   8.551   4.108   6.788 -0.2980 -0.1600  0.0083
  691MOL0     C93185   8.679   4.128   6.725  0.5129 -1.2577 -0.1423
  691MOL0     O93186   8.672   4.170   6.597 -0.5314  0.0583 -0.0303
  691MOL0     C93187   8.759   4.283   6.576  0.5218  0.1837  0.7100
  691MOL0     C93188   8.699   4.370   6.467  0.2648 -0.6912  0.6519
  691MOL0     C93189   8.550   4.410   6.498 -0.1890  0.6689 -0.3347
  691MOL0     C93190   8.470   4.467   6.380  0.4121 -1.0244 -0.2566
  691MOL0     C93191   8.324   4.477   6.431  0.1039 -0.1256  0.4584
  691MOL0     C93192   8.237   4.522   6.311  0.2614 -0.0708 -0.0361
  691MOL0     C93193   8.081   4.513   6.340 -0.8679 -0.4358 -0.1120
  691MOL0     C93194   7.996   4.589   6.245  1.1938 -0.1781 -0.2867
  691MOL0    Cl93195   7.828   4.578   6.295  0.2324  0.1004  0.7123
  691MOL0     C93196   8.796   4.104   6.784  0.2512  0.1004 -0.8425
  691MOL0     C93197   8.779   4.038   6.911  0.0075 -0.2759 -1.0494
  691MOL0     O93198   8.478   4.029   7.206 -0.0900  0.5322 -1.1281
  691MOL0     C93199   8.702   3.796   7.338  0.5291 -0.5727  0.3655
  691MOL0     C93200   8.731   3.681   7.412  0.6371  0.1854 -0.2799
  691MOL0     N93201   8.643   3.184   8.059  0.6652 -0.1580 -0.0934
  691MOL0     N93202   8.754   3.174   8.128  0.5314 -0.2342 -0.6826
  691MOL0     C93203   9.906   3.016   7.813  0.1328 -1.2378 -0.1413
  691MOL0     C93204   9.987   3.054   7.700  0.3576  0.5531 -0.1097
  691MOL0     C93205  10.246   3.000   7.328  1.3622 -0.4115 -0.1474
  691MOL0     C93206  10.371   3.062   7.355  0.2906  0.0618 -0.1651
  691MOL0     C93207  10.470   3.074   7.254 -0.6448 -0.0977 -0.6853
  691MOL0     C93208  10.441   3.023   7.125  0.3920 -0.5842  0.0800
  691MOL0     O93209  10.528   3.061   7.025  0.2152 -0.5020 -0.2751
  691MOL0     C93210  10.563   2.952   6.937  0.2775 -0.1742 -0.8332
  691MOL0     C93211  10.679   3.009   6.859  0.8506  0.1129  0.8836
  691MOL0     C93212  10.804   3.068   6.939  0.2464  0.3204  0.2475
  691MOL0     C93213  10.931   3.075   6.849  0.0109 -0.1151 -0.9253
  691MOL0     C93214  11.041   3.126   6.929  0.0234 -0.3342  0.2155
  691MOL0     C93215  11.124   3.176   7.005 -1.1117 -0.0521 -0.1420
  691MOL0     C93216  10.320   2.948   7.099  0.2197 -0.2774 -0.1830
  691MOL0     C93217  10.220   2.947   7.201 -1.0877  0.3158 -0.2210
  691MOL0     H93218  10.140   2.753   7.661 -1.0275  0.3342 -0.5885
  691MOL0     H93219   9.992   2.693   7.824  1.0598  0.0056 -0.0564
  691MOL0     H93220   9.671   2.856   8.111 -0.7979  1.1293  0.4308
  691MOL0     H93221   9.776   2.989   8.072 -1.4489  1.3285  0.3906
  691MOL0     H93222   9.640   2.971   7.819  0.2181  1.9943  0.0146
  691MOL0     H93223   9.534   2.874   7.909 -0.4004 -0.1671 -2.2683
  691MOL0     H93224   9.597   3.144   8.031  2.4544  0.4297 -3.6346
  691MOL0     H93225   9.481   3.126   7.906  2.0712  0.9057 -0.0365
  691MOL0     H93226   9.393   2.918   8.090 -0.9173  0.1402  0.8393
  691MOL0     H93227   9.472   3.036   8.200  2.2258 -1.6493 -0.4833
  691MOL0     H93228   9.331   3.212   8.093 -0.6473  0.6345 -2.9002
  691MOL0     H93229   9.252   3.095   7.992 -0.4114  0.1492 -0.4020
  691MOL0     H93230   9.211   2.959   8.226 -1.0831  0.3086 -0.2742
  691MOL0     H93231   9.199   3.126   8.285 -3.1633 -0.6033  1.3353
  691MOL0     H93232   9.026   2.985   8.084 -2.1100  1.4637 -3.1243
  691MOL0     H93233   8.992   3.052   8.250  3.1516  3.1634  1.8379
  691MOL0     H93234   9.054   3.229   8.006 -2.8205  0.9332 -1.5388
  691MOL0     H93235   9.007   3.273   8.174 -0.0612 -0.7812 -0.4300
  691MOL0     H93236   8.885   3.244   7.844  1.0512 -3.2120  0.7292
  691MOL0     H93237   8.627   3.222   7.724 -1.6656 -0.4893 -0.4813
  691MOL0     H93238   8.484   3.221   7.836 -1.1603  0.6419 -2.2303
  691MOL0     H93239   8.529   3.455   7.878 -1.3670  1.0808 -1.2523
  691MOL0     H93240   8.494   3.431   7.708  1.2905 -0.4213 -1.2858
  691MOL0     H93241   8.772   3.481   7.825 -0.2153  4.5729  2.4843
  691MOL0     H93242   8.669   3.593   7.752 -0.4721 -0.0641 -1.6313
  691MOL0     H93243   8.760   3.336   7.605 -0.5235  0.6244  0.5503
  691MOL0     H93244   8.844   3.480   7.575  1.5418  0.2881  2.0658
  691MOL0     H93245   8.414   3.606   7.501 -0.5940 -0.4502 -0.1617
  691MOL0     H93246   8.308   3.852   7.248 -0.0519 -1.2924 -0.9007
  691MOL0     H93247   8.259   3.714   7.352  0.3111 -2.0059 -1.4449
  691MOL0     H93248   8.286   3.878   7.413 -0.0920 -0.3727 -2.2735
  691MOL0     H93249   8.452   4.019   6.960 -1.2229 -1.2807 -2.6351
  691MOL0     H93250   8.460   4.130   6.733  1.5436  1.4639 -2.5589
  691MOL0     H93251   8.778   4.333   6.671 -1.7720  0.1394  1.2341
  691MOL0     H93252   8.860   4.252   6.547  0.0456 -0.0274 -0.8628
  691MOL0     H93253   8.763   4.459   6.459  0.6634 -1.0398 -0.3074
  691MOL0     H93254   8.711   4.331   6.365  1.9727  3.3804 -0.9390
  691MOL0     H93255   8.560   4.480   6.581 -0.9192  1.4324 -0.8814
  691MOL0     H93256   8.495   4.319   6.524 -0.9165  1.1208 -0.2732
  691MOL0     H93257   8.501   4.562   6.335 -1.8038 -0.5326 -0.8729
  691MOL0     H93258   8.480   4.402   6.293 -0.7234 -2.4901  0.6506
  691MOL0     H93259   8.322   4.541   6.520  3.7081 -1.2621  1.5258
  691MOL0     H93260   8.293   4.376   6.460 -0.6629  0.1836  0.7379
  691MOL0     H93261   8.266   4.623   6.283  1.2087 -0.7527 -1.6566
  691MOL0     H93262   8.259   4.453   6.229  2.7848 -1.6528  1.8035
  691MOL0     H93263   8.059   4.565   6.434 -0.3473 -2.1529  1.0035
  691MOL0     H93264   8.042   4.412   6.349 -1.2685 -0.1198  3.2645
  691MOL0     H93265   8.007   4.537   6.149  0.3022 -1.9648  0.5226
  691MOL0     H93266   8.027   4.693   6.235  0.0632  0.1930 -0.1477
  691MOL0     H93267   8.889   4.109   6.729  0.8029 -2.1670 -0.2438
  691MOL0     H93268   8.869   4.025   6.970 -1.8051 -2.5571  1.4047
  691MOL0     H93269   8.790   3.841   7.294  1.5560  0.8862  3.5640
  691MOL0     H93270   8.831   3.638   7.404 -0.4768 -2.6445 -0.1469
  691MOL0     H93271   9.857   3.104   7.853  2.6483  1.1941 -1.9988
  691MOL0     H93272   9.980   3.147   7.645 -1.3745  1.1917  1.0951
  691MOL0     H93273  10.400   3.093   7.455 -1.0372 -0.4507  0.3980
  691MOL0     H93274  10.558   3.137   7.262 -0.9825  0.2106  0.9753
  691MOL0     H93275  10.591   2.857   6.982  1.8929 -0.2986 -2.0222
  691MOL0     H93276  10.479   2.943   6.867  1.1287 -1.6716 -1.6996
  691MOL0     H93277  10.638   3.080   6.787 -0.3168 -0.9901  0.4236
  691MOL0     H93278  10.706   2.923   6.797  0.0756  0.3089  0.2541
  691MOL0     H93279  10.830   3.006   7.024  4.5251 -0.3601 -1.3123
  691MOL0     H93280  10.789   3.170   6.975  5.4331  0.8007  1.8645
  691MOL0     H93281  10.922   3.146   6.767 -3.8757 -1.5018 -1.9382
  691MOL0     H93282  10.962   2.978   6.809  2.9719 -0.9650  2.8852
  691MOL0     H93283  11.199   3.235   7.054 -0.2690 -0.8768 -0.4091
  691MOL0     H93284  10.306   2.898   7.005  2.2316 -2.6306  0.6615
  691MOL0     H93285  10.121   2.907   7.185 -1.1357  0.2874  0.1311
  692MOL0     O93286   1.351   5.106   1.898  0.3850 -0.0662  0.4593
  692MOL0     C93287   1.380   5.169   1.999 -0.9672 -0.0347 -0.5908
  692MOL0     O93288   1.300   5.252   2.072  0.0352 -0.1562  0.5002
  692MOL0     C93289   1.180   5.301   2.017 -0.5285  0.0670  0.4679
  692MOL0     C93290   1.165   5.338   1.881 -0.1345 -0.4710 -0.4792
  692MOL0     C93291   1.030   5.369   1.839 -0.8569 -0.3733 -0.2106
  692MOL0     C93292   0.919   5.381   1.931 -0.3458  0.3767  0.0261
  692MOL0     O93293   0.803   5.432   1.875 -0.4257  0.5021  0.4268
  692MOL0     C93294   0.697   5.475   1.961  0.7638  0.8128  0.0486
  692MOL0     C93295   0.606   5.564   1.874 -0.2290  0.3978 -0.5034
  692MOL0     C93296   0.493   5.629   1.953  0.5873 -0.4290 -0.0446
  692MOL0     C93297   0.397   5.680   1.852  0.0569  0.7559  0.2732
  692MOL0     C93298   0.271   5.746   1.908  0.4577  0.0303  0.4830
  692MOL0     C93299   0.169   5.774   1.798 -0.2770 -0.4731 -0.2392
  692MOL0     C93300   0.033   5.824   1.839  0.3349  0.1420 -0.6947
  692MOL0     C93301  -0.057   5.834   1.718  0.5021 -0.9699  0.2224
  692MOL0     N93302  -0.201   5.843   1.745 -0.9569  0.6773 -0.0590
  692MOL0     C93303  -0.288   5.936   1.707  0.2364 -0.1247  0.2924
  692MOL0     C93304  -0.411   5.886   1.728 -1.1813 -0.3954  0.3618
  692MOL0     C93305  -0.545   5.956   1.717 -0.4556 -0.2426  0.9297
  692MOL0     C93306  -0.590   5.904   1.576  0.7703 -0.0259 -1.1055
  692MOL0     C93307  -0.716   5.979   1.522 -0.1573 -0.2669 -0.3442
  692MOL0     C93308  -0.845   5.941   1.602  0.8124  0.4707  0.6769
  692MOL0     O93309  -0.878   6.021   1.715 -0.1002 -0.0011 -1.0865
  692MOL0     C93310  -1.005   6.048   1.750 -0.6748  0.7370 -1.0273
  692MOL0     C93311  -1.053   6.169   1.724  0.1432  0.2888  0.6497
  692MOL0     C93312  -1.185   6.198   1.766 -0.2249  1.0292  0.7651
  692MOL0     C93313  -1.244   6.337   1.717  0.5955  0.2960  0.3251
  692MOL0     C93314  -1.271   6.097   1.823 -0.7206  0.9833 -0.3264
  692MOL0     C93315  -1.414   6.109   1.862  0.1769  0.1119 -0.2130
  692MOL0     O93316  -1.498   6.001   1.845 -0.0233 -0.2931  0.3652
  692MOL0     C93317  -1.630   6.020   1.871  0.4218  0.3667  0.1794
  692MOL0     C93318  -1.704   6.139   1.841 -0.4169 -0.7700 -0.7626
  692MOL0     C93319  -1.843   6.143   1.860 -0.5887  0.4916  0.3198
  692MOL0     C93320  -1.910   6.033   1.915 -0.0198 -0.7616  0.6125
  692MOL0     O93321  -2.044   6.026   1.952  0.2667 -0.3898 -0.4261
  692MOL0     C93322  -2.114   6.145   1.995 -0.0681  0.5951  0.0567
  692MOL0     C93323  -2.230   6.103   2.086 -0.6737 -0.4367  1.0812
  692MOL0     C93324  -2.294   5.960   2.031  0.5797  1.1266 -0.5502
  692MOL0     C93325  -2.415   5.932   2.118 -1.2944  0.0956 -0.4860
  692MOL0     C93326  -2.469   5.798   2.093 -0.0582  1.1446  0.5062
  692MOL0     C93327  -2.396   5.684   2.171 -0.2509  1.0503 -0.1883
  692MOL0     C93328  -2.429   5.537   2.114 -0.7241  0.2145  0.2629
  692MOL0     C93329  -2.370   5.521   1.970  0.0156  0.0701 -0.2198
  692MOL0    Cl93330  -2.194   5.541   1.966  0.2067  0.3241  0.1131
  692MOL0     C93331  -1.843   5.919   1.928  0.3036  0.3918  0.4249
  692MOL0     C93332  -1.710   5.910   1.905 -0.2206  0.6842 -0.2568
  692MOL0     O93333  -1.445   6.217   1.911 -0.8789  0.4297  0.0836
  692MOL0     C93334  -1.211   5.973   1.847 -0.5115 -0.9477  0.0645
  692MOL0     C93335  -1.073   5.942   1.820  0.3534 -0.6061  0.8516
  692MOL0     N93336  -0.394   5.766   1.789 -0.3562  0.1785  0.0597
  692MOL0     N93337  -0.273   5.735   1.793 -1.0155  0.1306  0.3430
  692MOL0     C93338   0.939   5.361   2.069 -0.9650  0.5690 -0.2118
  692MOL0     C93339   1.072   5.319   2.106 -0.7810  0.0831 -0.6103
  692MOL0     C93340   1.527   5.158   2.041 -0.1566  0.5056 -0.3169
  692MOL0     C93341   1.608   5.058   1.985  0.1025  0.0795  0.2051
  692MOL0     C93342   1.735   5.037   2.021  0.1202 -0.0109  0.2125
  692MOL0     C93343   1.796   5.124   2.116 -0.3013 -0.4940  0.3580
  692MOL0     O93344   1.923   5.102   2.156  0.0780  0.4522  0.0550
  692MOL0     C93345   1.988   5.213   2.224 -0.9018  0.0717 -0.6039
  692MOL0     C93346   2.029   5.325   2.131 -0.1652  0.5609 -0.0741
  692MOL0     C93347   2.071   5.279   1.992 -0.1485 -0.0231  0.0452
  692MOL0     C93348   2.114   5.395   1.904  0.3736  0.0505  0.7186
  692MOL0     C93349   2.207   5.487   1.969 -0.2271  0.2944 -0.1756
  692MOL0     C93350   2.274   5.570   2.030 -0.4336  1.0398  0.0494
  692MOL0     C93351   1.715   5.226   2.167  0.2659 -0.0500 -0.2541
  692MOL0     C93352   1.587   5.242   2.130  0.4728  0.3193 -0.6967
  692MOL0     H93353   1.250   5.326   1.815 -0.3530 -2.1145 -0.5118
  692MOL0     H93354   1.023   5.404   1.736 -0.9530 -1.5639 -0.6272
  692MOL0     H93355   0.635   5.390   1.990  0.2626 -0.1483 -3.3748
  692MOL0     H93356   0.739   5.536   2.042 -1.1652 -0.5710  2.1930
  692MOL0     H93357   0.666   5.642   1.828  2.9307 -1.7210 -0.2711
  692MOL0     H93358   0.565   5.508   1.789 -0.6483  0.4193 -0.3173
  692MOL0     H93359   0.431   5.568   2.020 -2.4733  1.6225 -0.8031
  692MOL0     H93360   0.533   5.707   2.019  1.4674 -2.0824  1.4791
  692MOL0     H93361   0.454   5.748   1.788  0.6908  0.5218  0.5747
  692MOL0     H93362   0.367   5.591   1.796 -1.0008 -0.5038  2.7055
  692MOL0     H93363   0.228   5.685   1.988 -4.4281  0.7938 -1.2332
  692MOL0     H93364   0.303   5.837   1.958  1.4664 -0.6291  1.0736
  692MOL0     H93365   0.211   5.846   1.728 -1.1424  0.3331  0.0491
  692MOL0     H93366   0.164   5.679   1.744  0.3653  0.1903 -1.5022
  692MOL0     H93367  -0.004   5.753   1.914 -0.0990  0.1593 -0.8876
  692MOL0     H93368   0.036   5.927   1.876 -0.7139 -0.6162  1.7254
  692MOL0     H93369  -0.041   5.753   1.647  0.6286 -1.4036  0.7381
  692MOL0     H93370  -0.029   5.924   1.661 -0.2806 -0.1349  1.1136
  692MOL0     H93371  -0.263   6.035   1.669  1.3817 -0.2619  0.6547
  692MOL0     H93372  -0.616   5.942   1.799 -1.0343  0.6491  0.5870
  692MOL0     H93373  -0.527   6.063   1.708  1.6406 -0.6757 -0.9840
  692MOL0     H93374  -0.611   5.797   1.589 -0.1473  0.4017  1.4892
  692MOL0     H93375  -0.512   5.904   1.500 -0.0420 -0.9440 -1.9641
  692MOL0     H93376  -0.737   5.942   1.421 -0.9047 -0.6192 -0.0628
  692MOL0     H93377  -0.701   6.088   1.515  4.8289 -0.6183  1.0594
  692MOL0     H93378  -0.822   5.841   1.641  2.8272  1.0351  1.0511
  692MOL0     H93379  -0.931   5.930   1.535  0.6677 -1.7084  1.1351
  692MOL0     H93380  -0.999   6.247   1.672  0.3014  0.4656  1.0677
  692MOL0     H93381  -1.217   6.418   1.786  0.7138  1.1169 -0.6664
  692MOL0     H93382  -1.207   6.370   1.620  0.8370  0.8815  0.6080
  692MOL0     H93383  -1.354   6.336   1.715  0.4731  0.8726  2.9052
  692MOL0     H93384  -1.660   6.231   1.803  1.4509 -1.1480  0.3480
  692MOL0     H93385  -1.885   6.235   1.821 -3.8640 -0.3766  1.4127
  692MOL0     H93386  -2.049   6.223   2.035  2.8644 -1.9955  0.6884
  692MOL0     H93387  -2.167   6.182   1.906 -1.8254  1.6067  1.4540
  692MOL0     H93388  -2.176   6.094   2.180  3.7878  2.3043 -0.8907
  692MOL0     H93389  -2.308   6.179   2.095  0.7256  1.2457 -0.1715
  692MOL0     H93390  -2.223   5.877   2.034 -0.2002  0.4841  0.3260
  692MOL0     H93391  -2.327   5.958   1.927  1.4382  3.5569 -0.9358
  692MOL0     H93392  -2.393   5.951   2.223 -0.9375 -0.0605 -0.5307
  692MOL0     H93393  -2.491   6.004   2.088 -1.6776  0.7148  1.7594
  692MOL0     H93394  -2.478   5.777   1.986  2.8857 -0.8790  0.5339
  692MOL0     H93395  -2.571   5.808   2.132  0.7553  0.4130  3.0188
  692MOL0     H93396  -2.290   5.705   2.153  0.1716 -1.5819 -1.2867
  692MOL0     H93397  -2.428   5.689   2.275 -0.3378 -0.1033 -0.1506
  692MOL0     H93398  -2.536   5.513   2.109 -0.4282 -1.0336 -0.6397
  692MOL0     H93399  -2.389   5.469   2.189  0.0657  2.3284  1.8699
  692MOL0     H93400  -2.420   5.587   1.898 -1.2244 -2.2076 -1.5619
  692MOL0     H93401  -2.392   5.418   1.939  2.4473 -0.2426 -1.0948
  692MOL0     H93402  -1.895   5.831   1.963  1.8963  0.5306  3.4947
  692MOL0     H93403  -1.664   5.812   1.913  1.4975  1.4575 -0.2365
  692MOL0     H93404  -1.258   5.886   1.892  0.4503 -1.7776 -0.4938
  692MOL0     H93405  -1.037   5.842   1.843  1.4422 -0.9067 -1.8533
  692MOL0     H93406   0.853   5.374   2.135 -1.8282 -2.0589 -0.7075
  692MOL0     H93407   1.099   5.281   2.204 -1.8502 -3.2534 -1.5080
  692MOL0     H93408   1.578   4.988   1.908 -1.6858  1.1169 -0.0985
  692MOL0     H93409   1.787   4.947   1.988 -0.6246 -0.8425  1.2348
  692MOL0     H93410   1.947   5.259   2.315 -0.0794  1.7960 -1.0607
  692MOL0     H93411   2.084   5.177   2.263 -0.6626  1.1270 -0.1859
  692MOL0     H93412   2.108   5.382   2.181 -2.3239  1.5869  2.4842
  692MOL0     H93413   1.944   5.392   2.116  0.4695  0.9165 -2.5243
  692MOL0     H93414   1.986   5.232   1.942  0.6251 -0.7972 -0.5700
  692MOL0     H93415   2.150   5.203   2.001 -0.2451  0.0827  2.1813
  692MOL0     H93416   2.017   5.437   1.878 -1.1720 -1.7138  3.0902
  692MOL0     H93417   2.144   5.348   1.810 -2.2291  1.5123 -0.9792
  692MOL0     H93418   2.316   5.648   2.091 -2.1410 -0.4254  3.4036
  692MOL0     H93419   1.753   5.296   2.240 -2.2823  0.0860  1.0416
  692MOL0     H93420   1.519   5.314   2.175 -2.1989 -1.2346 -2.0481
  693MOL0     O93421   2.298   9.736  10.940 -0.1721  0.3770 -0.4551
  693MOL0     C93422   2.247   9.670  10.853 -0.3896 -0.2048 -0.1538
  693MOL0     O93423   2.136   9.601  10.868  0.5356 -0.5600  0.6566
  693MOL0     C93424   2.047   9.616  10.971  0.4102  0.7920  1.1697
  693MOL0     C93425   2.033   9.723  11.056  0.3854  0.0124  1.2797
  693MOL0     C93426   1.946   9.716  11.176 -0.2862 -0.4223 -0.0402
  693MOL0     C93427   1.879   9.592  11.202 -0.2206  1.1689 -0.1782
  693MOL0     O93428   1.795   9.564  11.307  0.5597  0.2976 -0.2622
  693MOL0     C93429   1.737   9.682  11.363  0.6848 -0.4860 -0.0586
  693MOL0     C93430   1.628   9.625  11.463 -0.0007  0.0721  0.6272
  693MOL0     C93431   1.509   9.580  11.381 -0.3096 -0.7814 -0.3502
  693MOL0     C93432   1.419   9.499  11.471  0.3152 -0.1098  0.1000
  693MOL0     C93433   1.271   9.546  11.462  0.0627  0.9582  0.3700
  693MOL0     C93434   1.166   9.430  11.480 -1.1637  0.0397 -0.2038
  693MOL0     C93435   1.206   9.370  11.614  0.3761 -0.6728  0.2023
  693MOL0     C93436   1.087   9.298  11.687 -0.5157 -0.3249  0.4844
  693MOL0     N93437   0.967   9.386  11.689 -0.0250  0.7002  0.1281
  693MOL0     C93438   0.959   9.504  11.756  0.8651  0.0290 -0.3593
  693MOL0     C93439   0.838   9.547  11.730 -0.5379 -0.5599 -0.2381
  693MOL0     C93440   0.779   9.671  11.784 -0.2853 -0.2169 -0.3465
  693MOL0     C93441   0.755   9.675  11.941  0.3560 -0.1256  0.6746
  693MOL0     C93442   0.665   9.563  11.990 -0.3922 -0.6306  0.1924
  693MOL0     C93443   0.511   9.584  11.962  0.1020 -0.2391 -0.1431
  693MOL0     O93444   0.471   9.712  12.022  0.2617  1.1029  0.0074
  693MOL0     C93445   0.342   9.745  12.014  0.1764  0.0766  0.6388
  693MOL0     C93446   0.239   9.675  11.956  0.0569  0.5081  0.1117
  693MOL0     C93447   0.106   9.722  11.962 -0.0437  0.4881 -0.2773
  693MOL0     C93448   0.004   9.621  11.901  0.6870 -0.2201  0.2544
  693MOL0     C93449   0.072   9.852  12.012 -0.1595  0.3231 -0.6347
  693MOL0     C93450  -0.070   9.904  12.024 -0.4120 -0.6628  0.4055
  693MOL0     O93451  -0.182   9.831  11.967  0.6100  0.3091  0.5220
  693MOL0     C93452  -0.307   9.875  12.014 -0.1387 -0.2790  0.1522
  693MOL0     C93453  -0.350  10.010  11.994  0.2824  0.0676  0.0345
  693MOL0     C93454  -0.475  10.056  12.046 -0.0817  0.6309 -0.0830
  693MOL0     C93455  -0.548   9.967  12.124  0.6115 -0.5686 -0.1116
  693MOL0     O93456  -0.670  10.011  12.175  0.4778 -0.2820  0.7080
  693MOL0     C93457  -0.787   9.970  12.114  0.1412  0.7232 -0.8069
  693MOL0     C93458  -0.896   9.963  12.220 -0.6130  0.3222 -0.9007
  693MOL0     C93459  -0.864   9.860  12.333 -0.1812  0.7025  0.9925
  693MOL0     C93460  -0.879   9.722  12.287 -0.0519 -0.3026  1.1926
  693MOL0     C93461  -0.847   9.625  12.401  0.9303  0.7520 -0.1419
  693MOL0     C93462  -0.906   9.486  12.380  0.7888  0.4421  0.0762
  693MOL0     C93463  -0.827   9.395  12.462  0.4307  0.2471 -0.1613
  693MOL0     C93464  -0.860   9.252  12.427  1.0060 -0.4552  0.0363
  693MOL0    Cl93465  -1.024   9.205  12.476 -0.2035  0.1092  0.0581
  693MOL0     C93466  -0.503   9.840  12.143 -0.2482 -0.4840 -0.5833
  693MOL0     C93467  -0.388   9.787  12.084 -0.8868 -0.1654  0.7555
  693MOL0     O93468  -0.080  10.010  12.088  0.1157 -0.2312 -0.4503
  693MOL0     C93469   0.182   9.923  12.075  0.8794  0.0330  0.1446
  693MOL0     C93470   0.310   9.870  12.072  0.1617 -0.4232  0.1339
  693MOL0     N93471   0.776   9.469  11.636 -0.3811 -0.0668  0.0045
  693MOL0     N93472   0.854   9.366  11.614  0.6966 -0.2910 -0.7037
  693MOL0     C93473   1.884   9.490  11.108 -0.5329  0.6817  0.1465
  693MOL0     C93474   1.973   9.495  11.000  0.4605  0.2772 -0.7307
  693MOL0     C93475   2.333   9.649  10.730 -0.0918 -0.3201 -0.1820
  693MOL0     C93476   2.300   9.574  10.610  0.0686 -0.1166  0.2597
  693MOL0     C93477   2.387   9.560  10.501  1.1344 -1.1974  0.8046
  693MOL0     C93478   2.514   9.625  10.502  0.1287  0.4592  0.9447
  693MOL0     O93479   2.608   9.633  10.403 -0.0300 -0.2939  0.6655
  693MOL0     C93480   2.578   9.563  10.286 -0.1546 -0.3156  0.3968
  693MOL0     C93481   2.700   9.535  10.197 -0.1107 -0.2404 -0.9259
  693MOL0     C93482   2.778   9.667  10.159 -0.1479  1.6202 -0.0609
  693MOL0     C93483   2.903   9.622  10.077  0.2760 -0.0094 -0.0952
  693MOL0     C93484   3.000   9.561  10.173  0.7013  0.5190 -0.0582
  693MOL0     C93485   3.054   9.485  10.256  0.2757 -0.5207  0.1406
  693MOL0     C93486   2.553   9.700  10.617  0.5945 -0.6759  0.4245
  693MOL0     C93487   2.465   9.712  10.726  0.0326 -0.3977 -0.0134
  693MOL0     H93488   2.083   9.816  11.032  3.0635 -1.8999 -1.1793
  693MOL0     H93489   1.936   9.810  11.229 -0.6362  0.2901 -1.3543
  693MOL0     H93490   1.816   9.748  11.399  0.2924 -0.1060  0.1186
  693MOL0     H93491   1.685   9.742  11.288 -0.4848 -0.7483  0.5201
  693MOL0     H93492   1.673   9.538  11.512  2.2447  2.2622  2.7483
  693MOL0     H93493   1.583   9.698  11.530 -1.8119  1.6856 -2.1492
  693MOL0     H93494   1.457   9.664  11.336 -0.2341  0.1879  1.2739
  693MOL0     H93495   1.546   9.515  11.301  2.9002  0.0548  0.2927
  693MOL0     H93496   1.429   9.394  11.444 -1.4510 -0.7494  1.6852
  693MOL0     H93497   1.442   9.521  11.575  1.6494  0.3013 -0.2708
  693MOL0     H93498   1.259   9.620  11.541 -1.4664  2.1824 -0.9437
  693MOL0     H93499   1.251   9.585  11.362 -1.3896  2.5126  1.2285
  693MOL0     H93500   1.063   9.466  11.482 -1.2447 -0.0338  3.3152
  693MOL0     H93501   1.180   9.356  11.401 -2.6675  0.4225 -0.8681
  693MOL0     H93502   1.294   9.306  11.599  2.2699  2.2164 -2.2654
  693MOL0     H93503   1.249   9.433  11.693  2.4140  1.4802 -2.4443
  693MOL0     H93504   1.122   9.273  11.788 -1.0358 -0.1682  0.7062
  693MOL0     H93505   1.066   9.207  11.630  2.3687  0.4024 -2.0202
  693MOL0     H93506   1.021   9.553  11.830  0.1266  0.3628  0.0479
  693MOL0     H93507   0.837   9.753  11.741 -2.0243  0.1071 -2.2204
  693MOL0     H93508   0.675   9.672  11.750 -1.0183  0.3657  1.7913
  693MOL0     H93509   0.706   9.770  11.963 -0.3561  0.0118 -1.3334
  693MOL0     H93510   0.850   9.680  11.995 -0.3593  0.4733  1.9238
  693MOL0     H93511   0.665   9.554  12.099 -1.9747  1.4718  0.4221
  693MOL0     H93512   0.682   9.465  11.945  0.2373 -1.7849  2.7630
  693MOL0     H93513   0.453   9.502  12.006 -0.1139  0.3327  0.6658
  693MOL0     H93514   0.486   9.595  11.856  1.3674 -0.0088 -0.4295
  693MOL0     H93515   0.263   9.576  11.919 -1.5421  1.2486 -3.3284
  693MOL0     H93516  -0.095   9.635  11.945 -0.8050  1.3622 -3.2377
  693MOL0     H93517   0.002   9.629  11.792  2.4050 -1.4567  0.0867
  693MOL0     H93518   0.031   9.516  11.915  2.1382  0.1054  0.0432
  693MOL0     H93519  -0.283  10.071  11.934  0.2380 -0.0442 -0.1292
  693MOL0     H93520  -0.512  10.156  12.027  1.6695  1.2742 -0.3218
  693MOL0     H93521  -0.825  10.034  12.034  3.9840  3.2297 -0.9035
  693MOL0     H93522  -0.789   9.867  12.079 -0.5891 -0.3636  2.1283
  693MOL0     H93523  -0.902  10.060  12.271  0.1468 -0.9511  1.7897
  693MOL0     H93524  -0.994   9.940  12.177  0.3204 -2.6233 -1.6720
  693MOL0     H93525  -0.937   9.874  12.413 -1.1922  0.7237  0.0966
  693MOL0     H93526  -0.767   9.876  12.381 -1.6852  1.1722  4.0533
  693MOL0     H93527  -0.980   9.706  12.248 -0.0932  1.7331  0.3517
  693MOL0     H93528  -0.805   9.696  12.211 -3.3209 -1.5034 -1.8462
  693MOL0     H93529  -0.899   9.650  12.494  0.9344  1.0386 -0.2159
  693MOL0     H93530  -0.742   9.630  12.430  0.9438  1.6330 -0.3100
  693MOL0     H93531  -1.014   9.478  12.395  1.0626 -2.7674  1.2817
  693MOL0     H93532  -0.885   9.464  12.275 -0.6718  0.7719 -0.3082
  693MOL0     H93533  -0.842   9.412  12.569  0.0769  1.7737 -0.4261
  693MOL0     H93534  -0.723   9.405  12.429  0.3134  1.8580 -0.1600
  693MOL0     H93535  -0.789   9.185  12.475  1.6536  0.8496  0.9610
  693MOL0     H93536  -0.866   9.245  12.318 -2.6426  2.1887 -0.1263
  693MOL0     H93537  -0.568   9.775  12.199  0.5276 -0.0243  0.8995
  693MOL0     H93538  -0.353   9.684  12.091  2.3872  0.8666  1.0597
  693MOL0     H93539   0.159  10.010  12.136  1.7533 -0.5363  1.3239
  693MOL0     H93540   0.396   9.922  12.113 -1.7166  1.3908  2.0779
  693MOL0     H93541   1.839   9.393  11.120 -2.0520  1.3013 -0.3632
  693MOL0     H93542   1.976   9.406  10.938 -2.6773 -0.3251 -0.1662
  693MOL0     H93543   2.198   9.538  10.614 -0.6569  1.7683 -0.3012
  693MOL0     H93544   2.356   9.519  10.406  0.6301  0.7995  0.0489
  693MOL0     H93545   2.537   9.464  10.306 -2.1019  0.9676  3.5714
  693MOL0     H93546   2.510   9.629  10.231  2.5224  1.5000 -0.9287
  693MOL0     H93547   2.669   9.488  10.104 -4.5230  0.1748  0.1280
  693MOL0     H93548   2.775   9.474  10.248 -1.2969  1.3089  3.0634
  693MOL0     H93549   2.809   9.719  10.250  2.2771 -0.0581  0.1561
  693MOL0     H93550   2.713   9.733  10.100 -1.5007  0.3513 -0.0460
  693MOL0     H93551   2.933   9.719  10.039 -0.4603  0.9499  1.6151
  693MOL0     H93552   2.878   9.553   9.996 -0.2417 -1.2691  1.0868
  693MOL0     H93553   3.098   9.417  10.327  2.6302  0.7419 -0.0193
  693MOL0     H93554   2.653   9.742  10.609  0.2308 -0.1328 -2.1971
  693MOL0     H93555   2.513   9.769  10.804  1.9544 -2.1004  0.1329
  694MOL0     O93556   9.176   9.681   0.745  0.0515  0.2494  0.4064
  694MOL0     C93557   9.225   9.576   0.696 -0.1897 -0.5297 -1.6115
  694MOL0     O93558   9.167   9.445   0.725  0.2029 -0.3657  0.3383
  694MOL0     C93559   9.035   9.432   0.772  0.3635  1.3987 -0.2762
  694MOL0     C93560   8.936   9.537   0.787  0.8593 -0.4402  0.6077
  694MOL0     C93561   8.803   9.502   0.834  0.4956 -1.4672  0.9409
  694MOL0     C93562   8.773   9.370   0.867 -0.4084 -0.1488  0.0326
  694MOL0     O93563   8.656   9.327   0.917  0.0006 -0.1878 -0.5273
  694MOL0     C93564   8.563   9.424   0.964 -0.0764 -0.4942  0.7952
  694MOL0     C93565   8.442   9.348   1.018  0.1733 -0.5229 -0.3833
  694MOL0     C93566   8.320   9.432   0.994  0.7013  0.3579  0.6561
  694MOL0     C93567   8.197   9.362   1.052 -0.1223 -0.2146 -0.4602
  694MOL0     C93568   8.068   9.450   1.032 -0.0809 -0.5218  0.6082
  694MOL0     C93569   7.944   9.381   1.082  0.6172 -0.4628 -0.6898
  694MOL0     C93570   7.809   9.446   1.073 -0.4452 -0.1838 -0.1706
  694MOL0     C93571   7.699   9.350   1.134  0.1512 -0.1203  0.4905
  694MOL0     N93572   7.563   9.396   1.099 -0.3608  0.3855  0.2223
  694MOL0     C93573   7.495   9.337   0.990 -0.5680 -1.3877  0.2674
  694MOL0     C93574   7.376   9.402   0.981  0.1575 -0.3745 -0.5937
  694MOL0     C93575   7.262   9.366   0.885 -0.6241  0.1721 -0.5647
  694MOL0     C93576   7.162   9.479   0.868  0.2984  0.3561  0.2391
  694MOL0     C93577   7.058   9.441   0.766  0.2453 -0.3671 -0.2552
  694MOL0     C93578   6.955   9.357   0.837  0.1681  0.2306 -0.4573
  694MOL0     O93579   6.866   9.309   0.723  0.1695  0.7292  0.6236
  694MOL0     C93580   6.744   9.251   0.750 -0.8048 -0.4157  0.3813
  694MOL0     C93581   6.676   9.186   0.650 -0.2847  0.1441  0.0250
  694MOL0     C93582   6.548   9.138   0.671 -0.1897  0.4371 -0.7789
  694MOL0     C93583   6.481   9.075   0.550 -0.1311  0.2561 -0.3532
  694MOL0     C93584   6.482   9.147   0.793 -0.4870 -0.6854 -0.8124
  694MOL0     C93585   6.341   9.128   0.823  1.1576  0.0728 -0.1876
  694MOL0     O93586   6.255   9.181   0.733 -0.8344  0.2789  0.6566
  694MOL0     C93587   6.119   9.159   0.755  0.1535  0.4270  0.4669
  694MOL0     C93588   6.063   9.046   0.690 -0.7878 -0.9498 -0.0545
  694MOL0     C93589   5.932   9.022   0.695 -0.0596  0.3369  0.1550
  694MOL0     C93590   5.852   9.114   0.755 -0.3572  0.5463  0.2725
  694MOL0     O93591   5.724   9.098   0.748  0.1703  0.6029 -0.1041
  694MOL0     C93592   5.660   9.192   0.657  0.1549 -0.2195  0.3300
  694MOL0     C93593   5.511   9.152   0.646 -0.5549  0.0529 -0.3087
  694MOL0     C93594   5.445   9.234   0.531 -0.6842  0.1527 -0.7815
  694MOL0     C93595   5.313   9.148   0.501 -1.1455 -0.6156  0.2690
  694MOL0     C93596   5.189   9.230   0.473  0.3421  0.1984  0.1009
  694MOL0     C93597   5.212   9.299   0.332  0.4820 -0.0336 -1.3668
  694MOL0     C93598   5.094   9.401   0.311  0.1906  0.4163 -0.4992
  694MOL0     C93599   5.081   9.420   0.164 -0.4137  0.7659  0.2322
  694MOL0    Cl93600   5.025   9.277   0.081 -0.3079  0.4480 -0.5452
  694MOL0     C93601   5.903   9.230   0.812  1.0713  0.3412 -0.5271
  694MOL0     C93602   6.041   9.256   0.814  0.9585  0.1112  0.6119
  694MOL0     O93603   6.309   9.078   0.929  0.0929  0.1608 -0.0158
  694MOL0     C93604   6.553   9.210   0.896 -0.0940 -0.8440  0.4130
  694MOL0     C93605   6.681   9.260   0.875 -0.3627  0.1233 -0.9769
  694MOL0     N93606   7.383   9.499   1.085  0.2716  0.0846  0.5437
  694MOL0     N93607   7.491   9.496   1.153  0.2339  0.5953 -0.3111
  694MOL0     C93608   8.873   9.274   0.848 -0.5101 -0.0978 -0.1122
  694MOL0     C93609   9.003   9.299   0.809  0.0565 -0.5506  0.3315
  694MOL0     C93610   9.342   9.578   0.611  1.1133  0.5461  0.6222
  694MOL0     C93611   9.385   9.456   0.549  0.3253  0.0451  0.1497
  694MOL0     C93612   9.500   9.453   0.472  0.3156  0.0667 -0.3345
  694MOL0     C93613   9.554   9.576   0.421  0.3783  0.0963  0.8140
  694MOL0     O93614   9.644   9.568   0.318 -0.2796 -0.1343  0.8831
  694MOL0     C93615   9.732   9.687   0.311 -0.1598  0.6882 -0.0911
  694MOL0     C93616   9.864   9.647   0.240 -0.0029  0.0049  0.2002
  694MOL0     C93617   9.837   9.596   0.095  0.2900 -0.5510  0.1178
  694MOL0     C93618   9.966   9.591   0.019 -0.2537  0.5133  0.1723
  694MOL0     C93619  10.053   9.475   0.050  0.1378  0.1556  0.2273
  694MOL0     C93620  10.136   9.395   0.070 -0.9364 -0.0806  0.8409
  694MOL0     C93621   9.510   9.696   0.483 -0.3954 -0.9603  0.8153
  694MOL0     C93622   9.396   9.699   0.569 -0.3910 -0.2740  0.1640
  694MOL0     H93623   8.949   9.639   0.751  1.2582 -0.2708  1.2028
  694MOL0     H93624   8.737   9.588   0.832  1.1713 -0.9465 -0.8643
  694MOL0     H93625   8.603   9.494   1.038  1.5366  2.0389 -2.2207
  694MOL0     H93626   8.545   9.480   0.872 -0.1167 -1.4649  0.2070
  694MOL0     H93627   8.435   9.256   0.961  0.4679  1.0274 -3.0945
  694MOL0     H93628   8.448   9.329   1.126 -1.6322 -3.7890 -0.7285
  694MOL0     H93629   8.317   9.535   1.030 -1.7308  0.1722  1.1487
  694MOL0     H93630   8.317   9.436   0.884  1.0501 -2.8254  0.4285
  694MOL0     H93631   8.187   9.265   1.001 -1.1937  0.0706 -0.8185
  694MOL0     H93632   8.222   9.342   1.157 -0.9614 -0.4527 -0.2948
  694MOL0     H93633   8.075   9.543   1.090 -0.4183  0.0462 -0.2581
  694MOL0     H93634   8.063   9.466   0.924  1.8825  3.6125  0.9231
  694MOL0     H93635   7.937   9.282   1.035 -1.3935 -1.7577  2.0414
  694MOL0     H93636   7.957   9.365   1.189 -1.5856  0.2589 -0.2621
  694MOL0     H93637   7.806   9.546   1.118  0.2404 -0.0256 -0.4589
  694MOL0     H93638   7.793   9.488   0.973  0.1457  3.5144  1.0955
  694MOL0     H93639   7.710   9.339   1.242  1.5056 -0.1735  0.3731
  694MOL0     H93640   7.709   9.246   1.099 -1.2231  0.5655 -2.1907
  694MOL0     H93641   7.527   9.252   0.931 -1.6124 -0.7881 -1.2433
  694MOL0     H93642   7.310   9.352   0.787 -1.4677 -0.8981 -0.8472
  694MOL0     H93643   7.207   9.274   0.907 -5.0147  2.5466 -0.5466
  694MOL0     H93644   7.205   9.568   0.822 -0.2042 -0.0629 -1.1014
  694MOL0     H93645   7.109   9.503   0.960 -1.7970  3.5868 -1.6225
  694MOL0     H93646   7.110   9.382   0.690  1.0680 -0.7331  0.5727
  694MOL0     H93647   7.003   9.531   0.736  0.9168  0.6367  1.4247
  694MOL0     H93648   6.895   9.411   0.911 -0.6847  0.3062 -1.1886
  694MOL0     H93649   6.982   9.263   0.886 -1.6564 -1.1169 -1.8875
  694MOL0     H93650   6.727   9.162   0.557 -0.0725  0.7112 -0.0064
  694MOL0     H93651   6.551   9.020   0.486 -0.9936  1.3214 -2.3189
  694MOL0     H93652   6.393   9.015   0.572  1.0187 -1.6591 -0.7689
  694MOL0     H93653   6.432   9.157   0.496 -1.8131 -0.0933  0.5952
  694MOL0     H93654   6.139   8.974   0.660 -0.3753 -1.3402  1.8019
  694MOL0     H93655   5.882   8.934   0.656  0.4912  1.0556 -2.3581
  694MOL0     H93656   5.667   9.294   0.698 -1.7665  0.0740  0.0430
  694MOL0     H93657   5.711   9.176   0.562  0.6176  1.8174  0.1797
  694MOL0     H93658   5.505   9.043   0.642 -1.7576 -0.0071  1.7905
  694MOL0     H93659   5.466   9.185   0.739 -2.1314 -1.6382 -0.4260
  694MOL0     H93660   5.509   9.240   0.442  0.2193 -0.5219 -0.2103
  694MOL0     H93661   5.426   9.333   0.571 -2.0193  0.2841 -1.6865
  694MOL0     H93662   5.334   9.086   0.413  3.0075  1.8254 -0.7227
  694MOL0     H93663   5.288   9.090   0.591  2.1610  2.4112  3.4824
  694MOL0     H93664   5.173   9.303   0.553 -1.0221  0.9320 -0.8010
  694MOL0     H93665   5.106   9.159   0.472  0.1190  0.4643 -0.7302
  694MOL0     H93666   5.307   9.352   0.331  1.2878 -1.3421  0.3858
  694MOL0     H93667   5.219   9.222   0.254  1.2202  0.0503 -1.3812
  694MOL0     H93668   5.134   9.488   0.364  1.5400 -0.4552 -0.0309
  694MOL0     H93669   4.996   9.374   0.350  0.1651  0.0849 -0.7935
  694MOL0     H93670   5.180   9.442   0.122  0.9073 -4.3931  0.0204
  694MOL0     H93671   5.018   9.506   0.138  0.5304  0.8979 -1.9151
  694MOL0     H93672   5.843   9.308   0.858  2.7319  0.6250  1.2760
  694MOL0     H93673   6.079   9.337   0.876 -1.5957  1.1281  0.9434
  694MOL0     H93674   6.505   9.220   0.993 -1.0607 -0.8573 -0.0529
  694MOL0     H93675   6.717   9.314   0.961 -2.4216 -0.8773  0.5995
  694MOL0     H93676   8.847   9.171   0.870 -1.8376 -0.4063 -2.8059
  694MOL0     H93677   9.075   9.218   0.805 -0.6852 -1.1746 -2.8497
  694MOL0     H93678   9.337   9.362   0.573 -1.2305  0.5586 -0.7992
  694MOL0     H93679   9.520   9.357   0.427  0.8077 -1.3332  2.6573
  694MOL0     H93680   9.683   9.767   0.254  0.1598 -1.4252 -3.6391
  694MOL0     H93681   9.752   9.714   0.415  0.5025  1.1893 -0.3405
  694MOL0     H93682   9.914   9.565   0.293  0.2499 -1.1901 -1.7829
  694MOL0     H93683   9.934   9.731   0.234  0.3592 -0.4092 -2.1512
  694MOL0     H93684   9.781   9.667   0.034 -0.1873  0.3144  1.5182
  694MOL0     H93685   9.777   9.504   0.093  1.2662 -1.2000 -2.2547
  694MOL0     H93686  10.021   9.684   0.034  1.1265  0.1038 -1.9300
  694MOL0     H93687   9.941   9.583  -0.087  1.9204  2.2805 -0.5510
  694MOL0     H93688  10.221   9.334   0.090  1.3491  2.8598  0.6997
  694MOL0     H93689   9.547   9.789   0.441 -2.1241 -0.3968  0.4809
  694MOL0     H93690   9.354   9.796   0.594  1.4068  0.4045  0.7176
  695MOL0     O93691   6.706   7.175   2.008 -0.1721  0.7238  0.3590
  695MOL0     C93692   6.697   7.112   2.114 -0.0329 -0.5540 -0.7919
  695MOL0     O93693   6.582   7.056   2.169  0.6007  0.2903 -0.0573
  695MOL0     C93694   6.466   7.075   2.089 -0.8041 -0.2786 -1.2891
  695MOL0     C93695   6.418   6.960   2.017  0.6752  0.8507 -0.5644
  695MOL0     C93696   6.303   6.974   1.937 -0.9534 -0.6485 -1.3752
  695MOL0     C93697   6.248   7.097   1.920  0.0161  0.9228 -0.0730
  695MOL0     O93698   6.135   7.109   1.848 -0.4880 -0.0056 -0.2309
  695MOL0     C93699   6.013   7.093   1.925  0.2974  0.1603 -0.1303
  695MOL0     C93700   5.889   7.093   1.835 -0.3282  1.0772 -0.1102
  695MOL0     C93701   5.760   7.038   1.908  0.3429 -0.1272 -0.1291
  695MOL0     C93702   5.772   6.907   1.988  0.1880  0.1861 -0.2950
  695MOL0     C93703   5.628   6.858   2.028 -1.0127  0.5348  0.0869
  695MOL0     C93704   5.557   6.939   2.133  0.1294  0.5114 -0.2914
  695MOL0     C93705   5.423   6.869   2.165  0.4618  0.6026 -0.3859
  695MOL0     C93706   5.329   6.830   2.046 -0.0180 -0.0422  0.3289
  695MOL0     N93707   5.189   6.841   2.058 -0.0026  0.7357 -0.0191
  695MOL0     C93708   5.116   6.742   2.119  0.1721  0.6934  0.0179
  695MOL0     C93709   4.991   6.799   2.110  0.3260 -0.5160 -0.6280
  695MOL0     C93710   4.866   6.728   2.159 -0.4559  0.8057 -0.5321
  695MOL0     C93711   4.733   6.788   2.099  0.5817 -0.1410 -0.0791
  695MOL0     C93712   4.614   6.725   2.166  0.2049 -0.5142 -0.7947
  695MOL0     C93713   4.481   6.775   2.116 -0.5990 -0.0257  0.8115
  695MOL0     O93714   4.392   6.666   2.137 -0.6858 -0.1057 -0.0163
  695MOL0     C93715   4.260   6.682   2.116  0.4063  0.8501  0.0018
  695MOL0     C93716   4.199   6.789   2.044 -0.1397  0.0554 -0.1282
  695MOL0     C93717   4.060   6.785   2.005  0.1681 -0.1313 -0.7026
  695MOL0     C93718   4.012   6.898   1.913  0.0753 -0.1594 -0.0802
  695MOL0     C93719   3.973   6.677   2.058 -1.2066  0.1597  0.5517
  695MOL0     C93720   3.834   6.681   2.040  1.1208  0.9166  0.4212
  695MOL0     O93721   3.783   6.803   2.070  0.2604 -0.4563  0.0699
  695MOL0     C93722   3.646   6.811   2.085 -0.1895  0.2106  0.0149
  695MOL0     C93723   3.588   6.869   1.980 -0.4711 -0.3231 -0.0320
  695MOL0     C93724   3.452   6.883   1.979  0.0201  0.5548  0.3495
  695MOL0     C93725   3.371   6.841   2.087  0.2002  0.1985  0.1905
  695MOL0     O93726   3.241   6.864   2.065 -0.4712 -0.1465 -0.7505
  695MOL0     C93727   3.141   6.813   2.158  0.2323 -0.1380 -0.2652
  695MOL0     C93728   2.994   6.820   2.103 -0.0791 -0.0561  0.0314
  695MOL0     C93729   2.882   6.804   2.202  1.2529 -0.0471 -0.4548
  695MOL0     C93730   2.842   6.661   2.230 -0.4370  1.8889 -0.2722
  695MOL0     C93731   2.716   6.641   2.315  0.0358 -0.5337  0.2825
  695MOL0     C93732   2.584   6.647   2.224 -0.6986 -0.0714  0.2746
  695MOL0     C93733   2.459   6.631   2.312 -0.4415 -0.1935  0.3898
  695MOL0     C93734   2.339   6.616   2.221 -0.4289 -0.2196  1.2672
  695MOL0    Cl93735   2.195   6.706   2.290  0.3880  0.3569  0.0902
  695MOL0     C93736   3.436   6.786   2.195 -0.0099 -0.1766 -0.8559
  695MOL0     C93737   3.569   6.762   2.192  0.2308 -0.6978  0.3063
  695MOL0     O93738   3.762   6.582   2.003 -0.4902  0.1415 -0.3118
  695MOL0     C93739   4.031   6.575   2.131  0.2644 -0.6384 -1.1407
  695MOL0     C93740   4.171   6.572   2.155  0.1953 -0.7391 -0.5168
  695MOL0     N93741   4.992   6.923   2.051 -0.1390  0.2732 -0.7758
  695MOL0     N93742   5.116   6.946   2.015  0.5798  0.4247 -0.3550
  695MOL0     C93743   6.289   7.207   1.988 -0.9111  0.2182 -1.7385
  695MOL0     C93744   6.400   7.192   2.083  0.3760  0.7103 -0.6475
  695MOL0     C93745   6.820   7.090   2.190  1.0621  0.2307 -0.2895
  695MOL0     C93746   6.803   7.059   2.327 -0.7946  1.0987  0.2571
  695MOL0     C93747   6.910   7.024   2.406  0.0596 -0.4516 -0.2535
  695MOL0     C93748   7.041   7.016   2.355  0.1694  0.3202 -0.1225
  695MOL0     O93749   7.145   6.964   2.435 -0.4373  0.2895 -0.2082
  695MOL0     C93750   7.282   6.975   2.390 -0.6661 -0.3906 -1.0858
  695MOL0     C93751   7.370   6.917   2.500  0.5201  0.5251  0.8388
  695MOL0     C93752   7.325   6.936   2.653  0.5048 -0.4804 -0.4858
  695MOL0     C93753   7.425   6.861   2.744  0.6456  0.4201  0.1191
  695MOL0     C93754   7.360   6.741   2.797  0.5343  0.8297 -0.3912
  695MOL0     C93755   7.309   6.643   2.840  0.6482  0.3396  0.8423
  695MOL0     C93756   7.061   7.067   2.224 -0.2954  0.6099  0.1781
  695MOL0     C93757   6.951   7.103   2.143 -0.4423 -0.4972 -0.2088
  695MOL0     H93758   6.470   6.867   2.037 -0.7233  0.2062  0.2838
  695MOL0     H93759   6.261   6.885   1.892  0.8927 -1.5598 -1.3990
  695MOL0     H93760   6.023   6.998   1.979  0.9508 -1.1548 -2.4184
  695MOL0     H93761   5.998   7.173   1.998 -0.1669  0.8596 -0.9716
  695MOL0     H93762   5.877   7.195   1.797 -0.6825  1.3310  0.6795
  695MOL0     H93763   5.914   7.027   1.751  1.6577  1.8509 -0.1737
  695MOL0     H93764   5.728   7.114   1.981  0.0722 -0.6081  0.2565
  695MOL0     H93765   5.688   7.024   1.827 -0.0543 -0.9431  0.3491
  695MOL0     H93766   5.822   6.843   1.914  1.5785  2.3081 -1.2629
  695MOL0     H93767   5.831   6.906   2.080 -1.5748  0.4379  0.8897
  695MOL0     H93768   5.565   6.862   1.938 -0.0264 -3.2036 -0.9379
  695MOL0     H93769   5.633   6.754   2.060 -0.0107  0.4082 -0.4497
  695MOL0     H93770   5.613   6.948   2.227  0.4965 -2.5618 -0.1254
  695MOL0     H93771   5.537   7.039   2.094 -1.9227  0.9092  1.5767
  695MOL0     H93772   5.452   6.778   2.218  1.4235  0.0934 -1.7260
  695MOL0     H93773   5.363   6.932   2.231 -2.7412 -2.3208 -0.2193
  695MOL0     H93774   5.371   6.739   2.002  0.8591  1.2828 -1.7059
  695MOL0     H93775   5.339   6.907   1.970 -2.0950 -0.7946 -0.7756
  695MOL0     H93776   5.141   6.645   2.159  1.7134  1.1124  0.1512
  695MOL0     H93777   4.882   6.624   2.131  1.9432  0.5798  1.3004
  695MOL0     H93778   4.866   6.724   2.269 -0.0839 -1.7915 -0.5819
  695MOL0     H93779   4.732   6.764   1.993  0.2901  0.5439 -0.2362
  695MOL0     H93780   4.740   6.897   2.112  1.3019  0.0205 -1.6701
  695MOL0     H93781   4.623   6.751   2.272 -0.3259  0.8203 -1.0511
  695MOL0     H93782   4.619   6.616   2.168  3.3909 -0.5287  3.4729
  695MOL0     H93783   4.486   6.799   2.009 -1.1385 -0.6974  0.6335
  695MOL0     H93784   4.443   6.866   2.164 -1.8064 -0.2245  0.2757
  695MOL0     H93785   4.256   6.879   2.023  3.9004 -1.4722  2.8883
  695MOL0     H93786   3.942   6.862   1.837 -1.4965  2.0466  0.2409
  695MOL0     H93787   3.956   6.974   1.968  0.0985 -0.1077 -0.1286
  695MOL0     H93788   4.093   6.946   1.858 -0.3942  1.0365  0.2521
  695MOL0     H93789   3.652   6.895   1.896 -1.3141 -2.6552 -1.5074
  695MOL0     H93790   3.400   6.927   1.894 -1.4101  1.3434  1.5835
  695MOL0     H93791   3.148   6.706   2.180 -0.4305 -0.2757 -0.6872
  695MOL0     H93792   3.152   6.874   2.248 -1.3684  0.3416 -0.3630
  695MOL0     H93793   2.986   6.920   2.060 -1.5652 -0.5327 -0.8547
  695MOL0     H93794   2.977   6.747   2.024 -0.9050  1.5447 -1.3319
  695MOL0     H93795   2.789   6.846   2.163  0.7691 -0.1250  0.5703
  695MOL0     H93796   2.897   6.854   2.298 -1.4091  0.9288 -0.4546
  695MOL0     H93797   2.820   6.609   2.137 -0.4055 -0.1953  0.8120
  695MOL0     H93798   2.918   6.607   2.288 -1.1980  1.0462 -0.0320
  695MOL0     H93799   2.714   6.716   2.394 -2.0898 -1.2236  0.9414
  695MOL0     H93800   2.704   6.538   2.350 -1.8636 -0.8533 -1.1452
  695MOL0     H93801   2.585   6.736   2.160  0.2746 -1.5337 -1.8464
  695MOL0     H93802   2.596   6.560   2.159 -0.7691  0.2051 -0.1124
  695MOL0     H93803   2.450   6.723   2.370  0.2660  0.2438 -0.1772
  695MOL0     H93804   2.457   6.552   2.387 -1.0205 -0.3010  0.2678
  695MOL0     H93805   2.322   6.512   2.192 -2.0136  0.3395  0.0934
  695MOL0     H93806   2.361   6.654   2.121  1.0889 -1.5424  1.0592
  695MOL0     H93807   3.371   6.757   2.277 -2.4130  0.4587 -2.4146
  695MOL0     H93808   3.619   6.700   2.266  1.5189  0.7431  0.6952
  695MOL0     H93809   3.974   6.490   2.167  0.1436 -0.4925 -0.9830
  695MOL0     H93810   4.216   6.484   2.200 -1.0670 -0.9926  0.2887
  695MOL0     H93811   6.240   7.303   1.995 -1.9970 -0.3751 -1.1087
  695MOL0     H93812   6.429   7.271   2.152  1.3702 -1.0336  1.0139
  695MOL0     H93813   6.709   7.049   2.381 -0.4500  0.9027  0.8299
  695MOL0     H93814   6.895   7.003   2.512 -0.7599 -0.4640 -0.3692
  695MOL0     H93815   7.303   6.921   2.297 -0.0138 -0.1651 -1.0787
  695MOL0     H93816   7.317   7.077   2.369  1.9844 -0.8206  0.6607
  695MOL0     H93817   7.473   6.950   2.485  0.5599  1.0495  2.1245
  695MOL0     H93818   7.387   6.811   2.480  0.4562  0.7603 -0.5546
  695MOL0     H93819   7.221   6.908   2.670  0.1074  2.1035  2.1763
  695MOL0     H93820   7.333   7.044   2.669 -2.1235 -0.0177 -1.6984
  695MOL0     H93821   7.450   6.929   2.826  0.0974 -0.9023  1.4494
  695MOL0     H93822   7.514   6.840   2.685 -0.9341 -2.9455 -1.3167
  695MOL0     H93823   7.270   6.552   2.881 -0.6153  0.1906 -0.5877
  695MOL0     H93824   7.162   7.086   2.188 -0.0506  0.6938  0.8892
  695MOL0     H93825   6.957   7.142   2.042 -1.0588  1.2687  0.3830
  696MOL0     O93826   1.106   1.102   3.994 -0.0484  0.2809 -0.2054
  696MOL0     C93827   1.169   1.017   3.932  0.1364 -0.1700  1.0295
  696MOL0     O93828   1.109   0.904   3.868 -0.4470  0.6537 -0.8282
  696MOL0     C93829   0.974   0.885   3.863 -0.8621 -0.3836  0.6347
  696MOL0     C93830   0.893   0.910   3.980 -0.3990  0.5461 -0.0402
  696MOL0     C93831   0.755   0.890   3.975  0.5214 -1.2270 -0.0851
  696MOL0     C93832   0.690   0.859   3.853 -0.0547  0.7455 -0.4760
  696MOL0     O93833   0.554   0.847   3.857  0.1177 -0.2287 -0.4517
  696MOL0     C93834   0.476   0.858   3.740 -0.0572  0.3852 -0.7442
  696MOL0     C93835   0.338   0.863   3.797  0.2499 -0.0507 -0.2188
  696MOL0     C93836   0.237   0.891   3.685 -0.2851 -0.7948 -0.7636
  696MOL0     C93837   0.100   0.902   3.750 -0.3883  0.1019 -0.3773
  696MOL0     C93838  -0.016   0.892   3.658 -0.6567 -0.3996  0.4554
  696MOL0     C93839  -0.061   0.750   3.620  0.0732 -0.7013  0.1615
  696MOL0     C93840  -0.210   0.741   3.601 -0.2810  0.4130  0.1176
  696MOL0     C93841  -0.269   0.611   3.534 -0.2306  0.6507  0.1726
  696MOL0     N93842  -0.289   0.603   3.392 -0.5558 -0.2624  0.2007
  696MOL0     C93843  -0.201   0.548   3.298 -0.6472 -0.1324 -0.1592
  696MOL0     C93844  -0.264   0.547   3.180 -0.0720  0.6247 -0.2980
  696MOL0     C93845  -0.209   0.491   3.055  0.3366  0.1339 -0.4724
  696MOL0     C93846  -0.285   0.368   2.996  0.3977 -0.0006  0.3268
  696MOL0     C93847  -0.435   0.378   2.968 -0.1955  0.6715 -0.5241
  696MOL0     C93848  -0.484   0.480   2.866 -0.8343  0.2346  1.0017
  696MOL0     O93849  -0.626   0.453   2.840 -0.3816 -0.7116 -0.4122
  696MOL0     C93850  -0.718   0.493   2.930  0.1181  0.0071 -0.5080
  696MOL0     C93851  -0.688   0.579   3.039  0.8044 -0.5167  0.4112
  696MOL0     C93852  -0.788   0.633   3.121  0.9975 -0.2750 -0.5017
  696MOL0     C93853  -0.742   0.742   3.209  0.4112  0.2630  0.3427
  696MOL0     C93854  -0.927   0.595   3.101  0.2564  0.1438 -0.1448
  696MOL0     C93855  -1.047   0.657   3.167  0.7034 -0.0985  0.4726
  696MOL0     O93856  -1.026   0.771   3.236 -0.0112  0.0819  0.3186
  696MOL0     C93857  -1.126   0.799   3.328 -0.9704  0.6160 -0.5812
  696MOL0     C93858  -1.092   0.788   3.471 -0.0407  1.1817 -0.2768
  696MOL0     C93859  -1.190   0.817   3.570 -0.3140  0.1285  0.0536
  696MOL0     C93860  -1.309   0.870   3.534  0.3010 -0.0308 -0.3612
  696MOL0     O93861  -1.412   0.899   3.624  0.2828 -0.3415  0.4281
  696MOL0     C93862  -1.372   0.955   3.753  0.0938  0.0234  0.3261
  696MOL0     C93863  -1.480   1.002   3.843  0.4630  0.7245 -0.0575
  696MOL0     C93864  -1.588   0.891   3.881  0.7962 -0.1678 -0.6203
  696MOL0     C93865  -1.715   0.969   3.925  0.6958 -0.1701 -0.8579
  696MOL0     C93866  -1.844   0.888   3.959 -0.0545 -0.6985  0.1995
  696MOL0     C93867  -1.820   0.780   4.071  0.1768  0.1202 -0.5249
  696MOL0     C93868  -1.958   0.749   4.132  0.1898  0.5101  0.2493
  696MOL0     C93869  -1.938   0.615   4.200 -0.7723  0.0741  0.7794
  696MOL0    Cl93870  -1.852   0.629   4.344  0.4018  0.5136  0.1924
  696MOL0     C93871  -1.345   0.876   3.400 -0.0872  0.7315  0.3860
  696MOL0     C93872  -1.253   0.849   3.295 -0.0443  0.5288 -0.6869
  696MOL0     O93873  -1.151   0.591   3.165 -0.1023  0.7978  0.1720
  696MOL0     C93874  -0.949   0.503   2.994 -0.2253 -0.7493  0.4836
  696MOL0     C93875  -0.852   0.459   2.912 -0.4992 -0.9647 -0.2149
  696MOL0     N93876  -0.371   0.631   3.183 -0.1944 -0.1545 -0.0797
  696MOL0     N93877  -0.392   0.651   3.311  0.6897 -0.3431 -0.3990
  696MOL0     C93878   0.767   0.832   3.735 -0.4500 -0.0022  0.1160
  696MOL0     C93879   0.909   0.844   3.745 -0.2983 -0.4003 -0.4931
  696MOL0     C93880   1.314   1.028   3.906  0.1998  0.4666  0.3249
  696MOL0     C93881   1.379   1.150   3.937 -0.0084  0.0140 -0.1549
  696MOL0     C93882   1.514   1.167   3.905  0.6356  0.9159 -0.2781
  696MOL0     C93883   1.586   1.064   3.848 -0.1950 -0.4906 -0.0425
  696MOL0     O93884   1.715   1.089   3.805  0.4146  0.1046 -0.2404
  696MOL0     C93885   1.811   0.993   3.825 -0.1446  0.6472 -0.1665
  696MOL0     C93886   1.945   1.062   3.859  0.6885 -0.1644 -0.2439
  696MOL0     C93887   2.051   0.979   3.924 -0.1994  0.5788 -0.3440
  696MOL0     C93888   2.180   1.058   3.964 -0.2622 -0.1069  0.9961
  696MOL0     C93889   2.282   0.973   4.022 -0.6500  0.8966  0.2829
  696MOL0     C93890   2.377   0.910   4.064  0.8821  0.3175 -0.0477
  696MOL0     C93891   1.534   0.937   3.826 -0.0630  1.1071 -0.2699
  696MOL0     C93892   1.397   0.914   3.860  0.2716  0.2092  0.0687
  696MOL0     H93893   0.939   0.933   4.075  4.7449  0.8641 -2.2881
  696MOL0     H93894   0.695   0.903   4.065  1.8733 -1.6497  0.9278
  696MOL0     H93895   0.494   0.958   3.699  2.3848  2.2704  4.1220
  696MOL0     H93896   0.489   0.778   3.667 -2.0888 -1.0810  0.4012
  696MOL0     H93897   0.308   0.769   3.845 -1.1849  0.9553  0.9565
  696MOL0     H93898   0.334   0.932   3.881 -0.4256  1.5859 -1.5387
  696MOL0     H93899   0.263   0.981   3.627 -1.6819 -0.4243 -0.8511
  696MOL0     H93900   0.242   0.810   3.611 -0.0079  0.4334 -2.1446
  696MOL0     H93901   0.094   0.830   3.833 -2.6499  0.9386  0.2576
  696MOL0     H93902   0.094   0.999   3.799 -0.6594 -0.7560  1.3757
  696MOL0     H93903  -0.093   0.955   3.703  0.3964 -0.3815  2.3355
  696MOL0     H93904   0.012   0.940   3.563 -0.5800 -2.0489 -0.3831
  696MOL0     H93905  -0.005   0.716   3.532 -1.1879 -1.1163 -0.5072
  696MOL0     H93906  -0.026   0.691   3.706  1.0632  1.6890  1.4872
  696MOL0     H93907  -0.254   0.751   3.700 -0.0443  1.1074  0.1570
  696MOL0     H93908  -0.259   0.822   3.546  1.2149  0.6628 -0.9203
  696MOL0     H93909  -0.364   0.601   3.589 -0.7158  0.1837 -0.7404
  696MOL0     H93910  -0.208   0.526   3.564 -0.5681 -0.5230 -2.2820
  696MOL0     H93911  -0.103   0.501   3.305 -1.5448 -1.9234  1.5392
  696MOL0     H93912  -0.214   0.564   2.974 -1.6025  0.2456 -0.2952
  696MOL0     H93913  -0.105   0.460   3.070  0.4248  0.7714  0.2834
  696MOL0     H93914  -0.259   0.277   3.052  0.6307 -0.5539 -0.6570
  696MOL0     H93915  -0.238   0.349   2.899  2.0658  1.1771  0.8726
  696MOL0     H93916  -0.488   0.399   3.061 -2.9022 -0.5253 -1.6881
  696MOL0     H93917  -0.486   0.285   2.940 -2.4743  2.1588 -1.5860
  696MOL0     H93918  -0.433   0.465   2.770 -1.0143 -0.0662  0.9534
  696MOL0     H93919  -0.461   0.585   2.887 -1.8194  0.6549  0.0462
  696MOL0     H93920  -0.584   0.603   3.057  1.1101 -0.4787 -1.2367
  696MOL0     H93921  -0.750   0.707   3.312 -1.8832  0.4090  0.2596
  696MOL0     H93922  -0.639   0.765   3.179  0.1419  1.2575  0.1688
  696MOL0     H93923  -0.798   0.835   3.201  1.2255  0.9289  1.8757
  696MOL0     H93924  -0.996   0.753   3.506 -1.3149 -0.8260  1.4437
  696MOL0     H93925  -1.161   0.823   3.674 -1.0168  3.7177  0.1798
  696MOL0     H93926  -1.309   0.875   3.794  0.2512 -0.0839 -0.1167
  696MOL0     H93927  -1.304   1.038   3.730  0.5307 -0.6173 -0.7639
  696MOL0     H93928  -1.441   1.037   3.939 -0.0656  1.6224 -0.1523
  696MOL0     H93929  -1.529   1.085   3.791  1.6717  2.8468  1.9662
  696MOL0     H93930  -1.547   0.825   3.959 -0.3542 -1.3678 -1.0082
  696MOL0     H93931  -1.617   0.824   3.800 -0.9152 -2.4929  1.7383
  696MOL0     H93932  -1.696   1.022   4.019  0.4215  0.0074 -0.9023
  696MOL0     H93933  -1.746   1.045   3.853 -1.8097  1.3647  1.5937
  696MOL0     H93934  -1.870   0.845   3.862  1.7710 -0.3553 -0.4874
  696MOL0     H93935  -1.922   0.959   3.988  0.0878 -0.2034 -0.6028
  696MOL0     H93936  -1.775   0.700   4.012 -0.7483 -2.9633  2.6313
  696MOL0     H93937  -1.747   0.807   4.148 -1.5404 -1.3547  1.7622
  696MOL0     H93938  -2.031   0.735   4.052  0.6212  1.5737 -0.3570
  696MOL0     H93939  -1.998   0.825   4.199 -1.8128 -2.5098  2.7593
  696MOL0     H93940  -1.881   0.544   4.140  1.0029  0.8429  1.4878
  696MOL0     H93941  -2.033   0.565   4.225 -0.4449 -0.9275  0.0816
  696MOL0     H93942  -1.443   0.918   3.377  0.7711  3.1770  0.8664
  696MOL0     H93943  -1.262   0.887   3.194  2.4410  2.6856 -0.2067
  696MOL0     H93944  -1.050   0.468   2.976 -1.4704  1.7811  1.9669
  696MOL0     H93945  -0.875   0.395   2.827  1.3017 -0.1356 -1.3967
  696MOL0     H93946   0.716   0.802   3.644  2.4226 -0.3569 -1.5156
  696MOL0     H93947   0.963   0.835   3.651 -1.1735 -0.0483 -1.0485
  696MOL0     H93948   1.325   1.229   3.988  0.0318 -0.0864  0.0447
  696MOL0     H93949   1.570   1.258   3.920  2.2738 -0.3430  1.7435
  696MOL0     H93950   1.802   0.925   3.911  0.9075  0.2736 -0.3333
  696MOL0     H93951   1.823   0.936   3.732  0.6095 -0.3463  0.5104
  696MOL0     H93952   1.924   1.151   3.919  3.0367 -0.2495  0.8311
  696MOL0     H93953   1.981   1.096   3.762  1.7330  1.7146  0.7403
  696MOL0     H93954   2.089   0.897   3.862  0.4173 -1.6229  2.6980
  696MOL0     H93955   2.016   0.929   4.015 -0.6732 -0.2599 -0.9752
  696MOL0     H93956   2.141   1.132   4.035  0.3890  0.2822  0.9476
  696MOL0     H93957   2.229   1.113   3.884  2.0562 -1.1778  1.6012
  696MOL0     H93958   2.461   0.857   4.103  1.6269  2.1784  0.9861
  696MOL0     H93959   1.598   0.859   3.785  0.8171  1.2223  0.8336
  696MOL0     H93960   1.354   0.825   3.817  2.7453 -0.4483 -1.2100
  697MOL0     O93961   4.421   9.692   9.523 -0.3904 -0.2062  0.1889
  697MOL0     C93962   4.523   9.753   9.484  0.0133 -0.7656 -0.6045
  697MOL0     O93963   4.551   9.793   9.357  0.8978  0.4415 -0.0146
  697MOL0     C93964   4.446   9.808   9.268  0.7782  0.3889  0.1615
  697MOL0     C93965   4.462   9.771   9.138  0.4212 -0.7687 -0.2629
  697MOL0     C93966   4.368   9.801   9.038  0.0304 -0.1709 -0.6914
  697MOL0     C93967   4.249   9.863   9.080  0.2207  0.7941 -0.1978
  697MOL0     O93968   4.160   9.879   8.981 -0.9587 -0.8673 -0.1576
  697MOL0     C93969   4.077   9.994   8.994 -0.3758  0.4504 -0.6629
  697MOL0     C93970   3.971   9.998   8.887  0.2952 -1.1363  0.1872
  697MOL0     C93971   3.867  10.105   8.920  0.2054 -0.4060  0.4571
  697MOL0     C93972   3.742  10.051   8.851  1.1557  0.2828 -0.3028
  697MOL0     C93973   3.605  10.118   8.898  0.6066 -0.7976 -0.0375
  697MOL0     C93974   3.490  10.065   8.816 -0.0244 -0.0460  0.6717
  697MOL0     C93975   3.353  10.127   8.845  0.4407  0.2904 -0.9336
  697MOL0     C93976   3.346  10.280   8.819  0.5332 -0.0114 -0.6270
  697MOL0     N93977   3.373  10.327   8.683  0.5131 -0.6089 -0.4034
  697MOL0     C93978   3.306  10.278   8.572  0.4526  0.0712  0.4185
  697MOL0     C93979   3.347  10.361   8.473 -0.4774  0.1520 -0.2715
  697MOL0     C93980   3.310  10.332   8.327 -0.2793  1.1009 -0.5615
  697MOL0     C93981   3.156  10.336   8.311 -0.5334  0.1478 -0.6879
  697MOL0     C93982   3.120  10.319   8.166 -0.8453  0.4849  0.5532
  697MOL0     C93983   2.976  10.340   8.141 -0.1143 -0.4929  0.4787
  697MOL0     O93984   2.905  10.229   8.180  0.2310 -0.1492 -0.1465
  697MOL0     C93985   2.769  10.219   8.154  0.3261  0.6387  0.9477
  697MOL0     C93986   2.707  10.299   8.050  0.7839 -0.5167  0.3532
  697MOL0     C93987   2.561  10.289   8.033  0.0846 -0.3882  0.4413
  697MOL0     C93988   2.494  10.388   7.936  0.3140  0.0571 -0.3064
  697MOL0     C93989   2.496  10.173   8.099 -0.2234 -0.2861 -0.0547
  697MOL0     C93990   2.353  10.142   8.076  0.9514  0.7459 -0.0060
  697MOL0     O93991   2.302  10.191   7.960  0.0193  0.2535  0.3377
  697MOL0     C93992   2.170  10.169   7.915 -0.0825 -0.2039 -1.0687
  697MOL0     C93993   2.059  10.121   7.987  0.7906  0.9000 -0.2204
  697MOL0     C93994   1.924  10.128   7.937  0.4179 -0.0394 -0.4905
  697MOL0     C93995   1.904  10.171   7.807 -0.4448 -0.4963  0.3788
  697MOL0     O93996   1.788  10.160   7.741 -0.0384 -0.4907  0.2319
  697MOL0     C93997   1.737  10.027   7.734  0.4217 -0.2785 -0.2192
  697MOL0     C93998   1.623  10.030   7.636  0.6702  0.5232 -0.2125
  697MOL0     C93999   1.496  10.087   7.699  0.8247  0.9300 -0.3602
  697MOL0     C94000   1.367  10.046   7.630  0.0200 -0.3633 -0.2438
  697MOL0     C94001   1.257  10.126   7.684  0.2660  0.2246  0.7408
  697MOL0     C94002   1.111  10.069   7.663 -0.2212  0.4120  0.1391
  697MOL0     C94003   1.061  10.078   7.522 -0.7748 -0.4094  0.7674
  697MOL0     C94004   0.907  10.096   7.506 -0.6780  0.1435  0.7384
  697MOL0    Cl94005   0.830   9.974   7.593 -0.5779  0.1727  0.1593
  697MOL0     C94006   2.008  10.216   7.727 -0.0649 -0.2795  0.1038
  697MOL0     C94007   2.138  10.217   7.783  0.1751  0.9143 -0.7017
  697MOL0     O94008   2.283  10.071   8.158  0.0889  0.5196 -0.1204
  697MOL0     C94009   2.566  10.100   8.196  0.2039 -0.1242  0.3028
  697MOL0     C94010   2.701  10.122   8.222  0.3517  0.2578  0.7618
  697MOL0     N94011   3.445  10.442   8.519 -0.4510  0.3215  0.2528
  697MOL0     N94012   3.459  10.429   8.648 -0.3312  0.5791  0.6791
  697MOL0     C94013   4.222   9.875   9.215  0.7139 -0.7263  0.7041
  697MOL0     C94014   4.322   9.858   9.306  1.3917 -0.1820  0.2016
  697MOL0     C94015   4.640   9.765   9.589  0.4581 -0.3011  0.2125
  697MOL0     C94016   4.765   9.797   9.541  0.0631 -0.0098  0.2942
  697MOL0     C94017   4.878   9.801   9.620 -0.1883 -0.2041  0.4513
  697MOL0     C94018   4.872   9.780   9.753 -0.2522 -0.5397  0.1100
  697MOL0     O94019   4.986   9.776   9.831  0.0566  0.1197 -0.5859
  697MOL0     C94020   5.118   9.817   9.785 -0.0497  0.6129  0.0139
  697MOL0     C94021   5.197   9.839   9.905 -0.6252 -1.2085  0.5124
  697MOL0     C94022   5.349   9.849   9.875 -0.4774  0.5042  0.3551
  697MOL0     C94023   5.430   9.832  10.002  0.7405  0.4790 -0.4798
  697MOL0     C94024   5.423   9.950  10.091  0.4454 -0.9582 -0.9262
  697MOL0     C94025   5.434  10.054  10.159  0.7686  0.3308  1.0475
  697MOL0     C94026   4.743   9.766   9.809 -0.8499 -0.4778  0.5745
  697MOL0     C94027   4.632   9.754   9.727 -0.1783 -0.8808 -0.3716
  697MOL0     H94028   4.556   9.723   9.114  1.2158  0.3352  0.5387
  697MOL0     H94029   4.386   9.788   8.932 -1.4785  1.1073 -1.1444
  697MOL0     H94030   4.019   9.976   9.085  1.4994 -3.2563 -0.0202
  697MOL0     H94031   4.127  10.089   9.014 -3.2519  1.5220  2.4597
  697MOL0     H94032   4.014  10.017   8.789  0.1105  0.8768  0.4434
  697MOL0     H94033   3.920   9.901   8.889 -0.8355 -0.5633 -0.0750
  697MOL0     H94034   3.851  10.105   9.028  3.0380  2.9435  1.0692
  697MOL0     H94035   3.900  10.204   8.886  0.4383 -1.0005 -1.1398
  697MOL0     H94036   3.755  10.071   8.744  0.0624  0.1248 -0.4718
  697MOL0     H94037   3.727   9.945   8.869  0.9324  0.1584 -1.1905
  697MOL0     H94038   3.592  10.104   9.006  2.9509  0.9204  0.5455
  697MOL0     H94039   3.615  10.225   8.880  1.4515 -0.3129  2.8051
  697MOL0     H94040   3.508  10.070   8.708 -0.7163 -1.6007  0.4488
  697MOL0     H94041   3.489   9.961   8.849 -2.8142 -0.5378 -0.6557
  697MOL0     H94042   3.285  10.072   8.779  0.5697 -0.9877 -0.0458
  697MOL0     H94043   3.311  10.102   8.943 -1.0277 -3.8850 -2.4065
  697MOL0     H94044   3.409  10.332   8.892 -0.6795 -0.0297  0.4565
  697MOL0     H94045   3.243  10.309   8.839  0.8515 -0.0802  1.3311
  697MOL0     H94046   3.237  10.194   8.568  0.9435 -0.4246  1.6323
  697MOL0     H94047   3.369  10.409   8.277  1.4597  1.8821  2.4070
  697MOL0     H94048   3.335  10.229   8.300 -4.4939 -0.1561 -0.3651
  697MOL0     H94049   3.122  10.431   8.352  0.5862  0.7696 -1.1652
  697MOL0     H94050   3.120  10.252   8.371  1.5159  1.1156  2.0906
  697MOL0     H94051   3.140  10.214   8.139  0.0719  0.4658  1.2720
  697MOL0     H94052   3.184  10.377   8.099 -2.0699  1.1827 -0.0401
  697MOL0     H94053   2.973  10.350   8.032  1.4301  2.6603  0.6051
  697MOL0     H94054   2.942  10.427   8.198  1.3047  0.6125 -0.2895
  697MOL0     H94055   2.765  10.377   8.003  0.9649 -2.0778 -2.2207
  697MOL0     H94056   2.426  10.457   7.987  1.5952  0.1853  1.3347
  697MOL0     H94057   2.566  10.456   7.890 -0.3239 -0.5193 -2.2541
  697MOL0     H94058   2.451  10.342   7.847  1.6286 -0.2482 -0.8042
  697MOL0     H94059   2.064  10.093   8.091 -0.7358  0.7542 -0.1652
  697MOL0     H94060   1.845  10.092   8.002 -0.6290 -1.2319 -2.3255
  697MOL0     H94061   1.815   9.962   7.694 -1.0026 -1.8201 -0.6020
  697MOL0     H94062   1.720   9.983   7.833  0.1796  1.1091  0.3825
  697MOL0     H94063   1.641  10.092   7.547 -0.5015 -1.2641 -1.7456
  697MOL0     H94064   1.589   9.933   7.599 -1.9381  1.2774  0.0120
  697MOL0     H94065   1.507  10.195   7.689  0.4779  1.2462  2.1203
  697MOL0     H94066   1.486  10.068   7.806  1.4193  1.7362 -0.1469
  697MOL0     H94067   1.375  10.043   7.521  0.9791  1.9531 -0.2922
  697MOL0     H94068   1.360   9.940   7.655 -0.1519 -0.9219 -2.4066
  697MOL0     H94069   1.272  10.230   7.652 -1.6320  0.3204  0.0261
  697MOL0     H94070   1.260  10.129   7.794 -2.1261 -0.1836  0.8641
  697MOL0     H94071   1.107   9.968   7.706 -0.4914  0.0641 -0.6782
  697MOL0     H94072   1.046  10.131   7.725 -1.8541  1.5408 -2.5298
  697MOL0     H94073   1.095   9.991   7.466 -1.7254  0.9195 -2.0960
  697MOL0     H94074   1.093  10.175   7.481 -1.6040  0.7032  2.6203
  697MOL0     H94075   0.881  10.089   7.401  0.9536 -1.0313  0.3646
  697MOL0     H94076   0.889  10.199   7.536  3.2073  1.6116 -1.3418
  697MOL0     H94077   1.990  10.254   7.627 -0.2631  1.3611  0.7378
  697MOL0     H94078   2.220  10.266   7.731  0.4425  1.4298  0.1894
  697MOL0     H94079   2.519  10.016   8.246 -0.4787  0.6374  0.9731
  697MOL0     H94080   2.748  10.054   8.292 -0.5962 -2.0375 -0.6876
  697MOL0     H94081   4.126   9.906   9.255 -0.5149 -1.6165 -1.3759
  697MOL0     H94082   4.291   9.874   9.409  1.6472  2.2565 -0.0287
  697MOL0     H94083   4.791   9.818   9.438 -0.3511 -0.4944  0.0845
  697MOL0     H94084   4.976   9.813   9.576 -0.5575 -0.8851 -0.5906
  697MOL0     H94085   5.152   9.730   9.728 -3.9683 -1.7366  0.8911
  697MOL0     H94086   5.121   9.904   9.719 -1.1338  1.0314  0.4989
  697MOL0     H94087   5.174   9.753   9.969  0.7030 -2.0250 -0.0515
  697MOL0     H94088   5.164   9.925   9.965  5.1341  1.0146  1.1690
  697MOL0     H94089   5.381   9.940   9.823 -1.8117  0.7055 -0.1452
  697MOL0     H94090   5.357   9.757   9.816  0.5420  1.2957 -0.8108
  697MOL0     H94091   5.534   9.821   9.969  0.7784  0.3155 -0.3093
  697MOL0     H94092   5.408   9.740  10.058  1.1998  0.0850 -0.9396
  697MOL0     H94093   5.424  10.136  10.226  2.0565 -0.6151  2.4855
  697MOL0     H94094   4.739   9.774   9.917  0.1162  0.8146  0.5251
  697MOL0     H94095   4.537   9.732   9.775  0.7590 -1.6132  1.2388
  698MOL0     O94096   1.101   7.964   4.696 -0.0293 -0.4319  0.2419
  698MOL0     C94097   1.125   8.075   4.749  0.3308 -0.3818 -0.7577
  698MOL0     O94098   1.083   8.200   4.721 -0.9707  0.4045  0.1950
  698MOL0     C94099   0.980   8.211   4.625 -0.3875  1.3812 -0.4667
  698MOL0     C94100   1.003   8.273   4.509  0.0026  0.2845 -0.4994
  698MOL0     C94101   0.893   8.284   4.416  0.4445  0.3124 -0.0084
  698MOL0     C94102   0.757   8.244   4.446 -1.5334 -0.0653  0.4766
  698MOL0     O94103   0.668   8.262   4.345 -1.3766  0.3699  0.9952
  698MOL0     C94104   0.565   8.158   4.324  1.1253 -0.5943 -0.3535
  698MOL0     C94105   0.436   8.231   4.273 -0.0244  0.0840  0.5762
  698MOL0     C94106   0.328   8.252   4.378  0.4690  0.9848 -0.1212
  698MOL0     C94107   0.206   8.316   4.305  0.2557 -0.4193  0.4035
  698MOL0     C94108   0.092   8.367   4.397 -0.1994 -0.4286  1.1443
  698MOL0     C94109  -0.017   8.445   4.326  0.8495  0.6708 -0.6225
  698MOL0     C94110  -0.142   8.484   4.411 -0.5361  0.0422  0.6321
  698MOL0     C94111  -0.241   8.373   4.422 -0.1667  0.2336 -0.1086
  698MOL0     N94112  -0.362   8.406   4.500  0.2184 -0.5066  1.1546
  698MOL0     C94113  -0.471   8.331   4.514  0.3645 -0.6823 -0.4766
  698MOL0     C94114  -0.572   8.415   4.563 -0.7722  1.5138 -0.2390
  698MOL0     C94115  -0.723   8.381   4.589 -0.1345 -0.6038  0.4012
  698MOL0     C94116  -0.821   8.472   4.516 -0.4365 -0.0874 -0.1515
  698MOL0     C94117  -0.963   8.424   4.557  0.0850  0.5179 -0.2737
  698MOL0     C94118  -1.072   8.527   4.572  0.9402  0.3510  0.2739
  698MOL0     O94119  -1.204   8.462   4.574 -0.3764 -0.0439 -0.1867
  698MOL0     C94120  -1.303   8.548   4.619 -1.0779  0.8724  0.1442
  698MOL0     C94121  -1.291   8.688   4.608  0.1608  0.0914 -0.1976
  698MOL0     C94122  -1.397   8.773   4.640 -1.1335 -0.1443  0.6499
  698MOL0     C94123  -1.371   8.919   4.617  0.1218  0.0513 -0.2481
  698MOL0     C94124  -1.513   8.718   4.700 -0.2481  0.1545 -0.2037
  698MOL0     C94125  -1.633   8.800   4.738 -0.2315  0.3075 -0.7406
  698MOL0     O94126  -1.711   8.735   4.823 -0.2288  0.2558 -1.2130
  698MOL0     C94127  -1.832   8.779   4.869  0.1096 -0.1772 -0.0601
  698MOL0     C94128  -1.841   8.773   5.013  0.0010 -0.7411 -0.1330
  698MOL0     C94129  -1.972   8.808   5.070 -0.1753  0.8840 -0.1322
  698MOL0     C94130  -2.080   8.849   4.990 -0.6919 -0.4752  0.2988
  698MOL0     O94131  -2.196   8.883   5.050  0.4194  0.5971 -0.5730
  698MOL0     C94132  -2.325   8.869   4.988  0.9019  0.9002  0.2838
  698MOL0     C94133  -2.335   8.725   4.939  0.7984  0.0745 -0.7110
  698MOL0     C94134  -2.481   8.672   4.957 -0.5273  0.0259 -0.1384
  698MOL0     C94135  -2.568   8.720   4.837 -0.1605 -0.5169 -0.1422
  698MOL0     C94136  -2.634   8.861   4.855 -0.8442  0.3777 -0.7174
  698MOL0     C94137  -2.727   8.896   4.741 -1.0204  0.2786  0.1679
  698MOL0     C94138  -2.802   9.019   4.757  0.5189  0.2631  0.2365
  698MOL0     C94139  -2.926   8.992   4.849  0.0540 -0.5673 -0.0146
  698MOL0    Cl94140  -3.038   9.127   4.825 -0.0817 -0.2579  0.2099
  698MOL0     C94141  -2.063   8.846   4.853 -0.3214  0.1423  0.1190
  698MOL0     C94142  -1.938   8.811   4.781 -0.6733 -0.0252 -1.0330
  698MOL0     O94143  -1.653   8.914   4.696 -0.3604 -0.2045 -0.5023
  698MOL0     C94144  -1.516   8.579   4.733 -0.0328  0.5963 -0.2635
  698MOL0     C94145  -1.416   8.497   4.684 -0.4760 -0.0281 -0.0330
  698MOL0     N94146  -0.518   8.542   4.570 -0.2033  0.5146  0.0399
  698MOL0     N94147  -0.400   8.535   4.526  0.4323  0.0097 -0.1654
  698MOL0     C94148   0.736   8.181   4.575  0.2845  0.7656  0.4374
  698MOL0     C94149   0.849   8.178   4.665  0.1947  1.1280  0.0475
  698MOL0     C94150   1.235   8.084   4.844 -0.2846 -0.1409  0.1836
  698MOL0     C94151   1.327   7.968   4.850 -0.2751  0.3488 -1.7933
  698MOL0     C94152   1.436   7.981   4.942  0.9483 -0.4112  0.3721
  698MOL0     C94153   1.442   8.097   5.026 -0.6833  0.9559 -0.7688
  698MOL0     O94154   1.538   8.107   5.125  0.1649 -0.2585 -0.0158
  698MOL0     C94155   1.653   8.025   5.120  0.5620 -0.7211 -0.1214
  698MOL0     C94156   1.765   8.082   5.205 -0.6612 -0.4084 -0.8803
  698MOL0     C94157   1.814   8.230   5.169  0.5692  0.6672 -0.2027
  698MOL0     C94158   1.940   8.268   5.248 -0.3137  0.6411 -0.4952
  698MOL0     C94159   2.057   8.190   5.204  0.0723  0.8356  0.7388
  698MOL0     C94160   2.136   8.113   5.150  0.6663  0.7888  0.6663
  698MOL0     C94161   1.351   8.204   5.026  0.5669  0.3787  0.3695
  698MOL0     C94162   1.252   8.195   4.931 -0.1182  0.0187  0.8562
  698MOL0     H94163   1.104   8.303   4.481  0.0024  3.2346  2.0882
  698MOL0     H94164   0.915   8.326   4.319 -0.4932  0.2063 -0.2850
  698MOL0     H94165   0.595   8.090   4.244 -0.9144 -0.8719 -0.9394
  698MOL0     H94166   0.548   8.089   4.407  1.9007 -0.1759  0.1697
  698MOL0     H94167   0.469   8.325   4.226 -0.3601  0.7760  1.6888
  698MOL0     H94168   0.393   8.178   4.188 -2.1106  2.2222  0.1728
  698MOL0     H94169   0.309   8.158   4.429  1.6968  0.0175 -1.3545
  698MOL0     H94170   0.374   8.326   4.444  2.3444 -1.8244  1.9057
  698MOL0     H94171   0.242   8.397   4.241  0.1351 -1.6517 -1.3317
  698MOL0     H94172   0.173   8.238   4.235 -0.3541  0.4055 -0.2409
  698MOL0     H94173   0.048   8.277   4.441 -2.9135 -1.2406 -2.7258
  698MOL0     H94174   0.140   8.427   4.475  0.8823 -0.3909  0.4668
  698MOL0     H94175   0.026   8.535   4.281 -3.4425  2.3027 -1.9686
  698MOL0     H94176  -0.062   8.393   4.241 -3.3179  3.8635 -0.6896
  698MOL0     H94177  -0.097   8.508   4.508  1.2474 -0.3955 -0.0465
  698MOL0     H94178  -0.194   8.572   4.372 -4.0303 -1.1804  2.1187
  698MOL0     H94179  -0.184   8.294   4.472  0.9047  1.2425  0.3045
  698MOL0     H94180  -0.282   8.342   4.325 -1.5354 -1.9332  1.0694
  698MOL0     H94181  -0.489   8.226   4.491 -2.3819 -0.5064  0.5598
  698MOL0     H94182  -0.752   8.282   4.553 -3.2287  0.9772 -1.9163
  698MOL0     H94183  -0.741   8.396   4.697  0.0427 -2.0746  0.6477
  698MOL0     H94184  -0.809   8.465   4.408  1.4601  1.0729 -0.0677
  698MOL0     H94185  -0.801   8.575   4.549  0.9336 -1.1048  2.5150
  698MOL0     H94186  -0.955   8.370   4.651 -2.5312  2.1249  0.9985
  698MOL0     H94187  -0.991   8.355   4.477  0.8928 -0.3692  0.1923
  698MOL0     H94188  -1.068   8.590   4.482 -2.1539  0.3040 -0.0018
  698MOL0     H94189  -1.052   8.589   4.660  1.5800 -1.0903  1.1686
  698MOL0     H94190  -1.208   8.724   4.547 -2.1067  0.1680 -3.4996
  698MOL0     H94191  -1.265   8.941   4.636 -0.4777  0.7904  2.6416
  698MOL0     H94192  -1.405   8.959   4.521  0.1614 -1.0342 -0.7232
  698MOL0     H94193  -1.417   8.981   4.695 -0.2034  0.5063 -0.7952
  698MOL0     H94194  -1.771   8.742   5.090 -3.0662 -1.2236  2.7234
  698MOL0     H94195  -1.996   8.809   5.176 -0.2961 -0.3623 -0.1284
  698MOL0     H94196  -2.400   8.883   5.066  0.1726 -3.6556  0.7067
  698MOL0     H94197  -2.358   8.936   4.909  1.5363 -1.1091 -1.8041
  698MOL0     H94198  -2.295   8.712   4.838  2.0770 -0.9728 -0.1004
  698MOL0     H94199  -2.280   8.660   5.008  0.3523 -0.2249 -0.6282
  698MOL0     H94200  -2.526   8.698   5.053  0.7370  1.6742  0.0499
  698MOL0     H94201  -2.467   8.563   4.952  3.0458  0.3837 -0.4508
  698MOL0     H94202  -2.506   8.718   4.747 -1.3883  2.8540 -1.2097
  698MOL0     H94203  -2.641   8.639   4.825 -0.8722  0.4173 -3.0094
  698MOL0     H94204  -2.560   8.941   4.863  0.3619 -0.7834  0.3786
  698MOL0     H94205  -2.702   8.865   4.940 -1.1953 -1.6778 -0.8545
  698MOL0     H94206  -2.668   8.897   4.649 -0.4348  0.8086  0.5374
  698MOL0     H94207  -2.789   8.808   4.723 -1.1747  0.0857  1.5031
  698MOL0     H94208  -2.828   9.046   4.654  0.9847 -2.6660 -0.7335
  698MOL0     H94209  -2.737   9.102   4.789  2.4752 -1.0233 -0.2603
  698MOL0     H94210  -2.894   8.997   4.953 -0.7899  1.8889  0.1742
  698MOL0     H94211  -2.980   8.899   4.826  0.0357  0.0302 -2.7609
  698MOL0     H94212  -2.146   8.883   4.795 -1.7971 -0.1497  1.9492
  698MOL0     H94213  -1.923   8.806   4.674 -0.0745 -0.7166 -0.9263
  698MOL0     H94214  -1.611   8.540   4.767 -1.9468  3.2386 -2.1250
  698MOL0     H94215  -1.403   8.390   4.699  1.0308  0.3433  1.6482
  698MOL0     H94216   0.634   8.157   4.605  0.5332 -2.2614 -0.7822
  698MOL0     H94217   0.835   8.133   4.763 -0.0200  0.2877 -0.3600
  698MOL0     H94218   1.304   7.878   4.794  0.6974 -2.6018  2.1147
  698MOL0     H94219   1.511   7.902   4.944  1.1863 -0.2096 -0.2464
  698MOL0     H94220   1.623   7.927   5.159  0.1574  0.6222  3.3279
  698MOL0     H94221   1.696   8.016   5.020 -0.3528 -0.8058 -0.5250
  698MOL0     H94222   1.857   8.023   5.197 -0.7713 -0.5753 -0.9429
  698MOL0     H94223   1.734   8.081   5.310  0.9820  1.4806 -0.3121
  698MOL0     H94224   1.737   8.307   5.177 -1.0073 -0.8538 -0.0344
  698MOL0     H94225   1.838   8.222   5.063 -0.7913 -3.5403 -0.3828
  698MOL0     H94226   1.922   8.259   5.355 -0.2178  2.5883 -0.2698
  698MOL0     H94227   1.960   8.374   5.232 -2.4493  1.1876  0.0441
  698MOL0     H94228   2.200   8.049   5.092 -0.7007 -0.3053  0.3237
  698MOL0     H94229   1.356   8.298   5.080 -2.0981  1.8875 -1.6744
  698MOL0     H94230   1.195   8.285   4.911  0.4966 -0.2475 -2.7690
  699MOL0     O94231  10.499   3.139   9.336 -0.6765 -0.1208  0.6776
  699MOL0     C94232  10.597   3.098   9.280  0.7326  0.3723  1.5373
  699MOL0     O94233  10.594   3.068   9.145 -0.2092  0.1543  0.0780
  699MOL0     C94234  10.470   3.022   9.092 -0.4591  0.5442  0.1035
  699MOL0     C94235  10.436   2.887   9.097 -0.6907  0.2444  0.5896
  699MOL0     C94236  10.321   2.842   9.036  0.0843 -0.8916 -1.1294
  699MOL0     C94237  10.231   2.922   8.975 -0.2558  0.6272 -0.3877
  699MOL0     O94238  10.129   2.841   8.923  0.0398  0.1833  0.6142
  699MOL0     C94239  10.030   2.897   8.843  0.4245  0.0610  0.0389
  699MOL0     C94240   9.947   2.785   8.769 -0.5496  0.1828  0.1870
  699MOL0     C94241   9.904   2.670   8.854  0.1799 -0.1985  0.4275
  699MOL0     C94242   9.849   2.560   8.764  0.1157 -0.4222 -2.1535
  699MOL0     C94243   9.717   2.517   8.828  0.3899  0.6477  0.1599
  699MOL0     C94244   9.694   2.369   8.797  0.3776  0.5067  0.7299
  699MOL0     C94245   9.548   2.330   8.826 -0.5890 -0.0598  0.1912
  699MOL0     C94246   9.458   2.369   8.706  0.8368 -0.4055  1.0083
  699MOL0     N94247   9.314   2.341   8.730  0.2477 -0.1577 -0.2329
  699MOL0     C94248   9.246   2.271   8.835  0.0202 -0.3486  0.0809
  699MOL0     C94249   9.123   2.253   8.781 -0.0709  0.3556 -0.7822
  699MOL0     C94250   9.008   2.187   8.866 -0.3709 -0.0518 -0.4109
  699MOL0     C94251   9.037   2.038   8.887  0.0969 -1.1870  0.3298
  699MOL0     C94252   8.996   1.957   8.761  0.2017  0.5851  0.0805
  699MOL0     C94253   9.042   1.812   8.776  0.4182  0.0560 -0.7408
  699MOL0     O94254   9.013   1.735   8.658  0.0002 -0.5436 -0.0418
  699MOL0     C94255   8.880   1.705   8.635 -0.0454 -0.5118  0.5923
  699MOL0     C94256   8.854   1.642   8.510 -0.0964 -0.5808 -0.2964
  699MOL0     C94257   8.724   1.594   8.482 -0.5600 -0.4802  0.5832
  699MOL0     C94258   8.722   1.530   8.346  0.5132 -0.0484 -0.2736
  699MOL0     C94259   8.618   1.610   8.571  0.0106 -0.6244  0.5627
  699MOL0     C94260   8.488   1.545   8.554  0.5709 -0.3558 -1.4749
  699MOL0     O94261   8.442   1.518   8.435 -0.1684 -1.3257 -0.0542
  699MOL0     C94262   8.333   1.452   8.418  0.0585  0.5669 -0.8027
  699MOL0     C94263   8.345   1.312   8.379  0.1497 -1.0139 -0.3896
  699MOL0     C94264   8.233   1.228   8.376  0.1843  0.1367  0.8283
  699MOL0     C94265   8.107   1.278   8.416 -0.3167 -0.8977  0.4578
  699MOL0     O94266   8.001   1.193   8.398  0.0134 -0.2278 -0.1454
  699MOL0     C94267   7.865   1.249   8.411 -1.0045  0.0616  0.8166
  699MOL0     C94268   7.770   1.140   8.362  0.9617 -0.5628  1.2941
  699MOL0     C94269   7.622   1.188   8.377 -0.6336 -0.3846  0.4391
  699MOL0     C94270   7.516   1.081   8.350 -0.1300 -0.0071  0.2644
  699MOL0     C94271   7.384   1.112   8.424  0.3162 -1.1256  0.5535
  699MOL0     C94272   7.254   1.068   8.358 -0.4218  0.0706 -0.4315
  699MOL0     C94273   7.250   0.916   8.336  0.1153 -0.4272 -0.4613
  699MOL0     C94274   7.105   0.886   8.280 -0.6254  0.0550  0.0574
  699MOL0    Cl94275   6.990   0.906   8.402  0.2916 -0.0599  0.3146
  699MOL0     C94276   8.097   1.418   8.456  0.0787 -0.3115  0.9189
  699MOL0     C94277   8.209   1.504   8.455  0.3050  0.4681  0.3285
  699MOL0     O94278   8.455   1.489   8.655  0.1506  0.1457  0.4941
  699MOL0     C94279   8.646   1.659   8.697 -0.3026  0.8483 -0.0614
  699MOL0     C94280   8.778   1.696   8.729 -0.4817  0.1759  0.6168
  699MOL0     N94281   9.112   2.324   8.665  0.1584  1.0399 -0.3190
  699MOL0     N94282   9.227   2.370   8.633  0.0675 -0.0018  0.2888
  699MOL0     C94283  10.252   3.059   8.976 -0.0311  0.8252 -0.1842
  699MOL0     C94284  10.368   3.112   9.036  0.0018  0.4575 -0.0086
  699MOL0     C94285  10.721   3.098   9.350 -0.0432 -0.9406 -0.9828
  699MOL0     C94286  10.840   3.063   9.297  0.0358 -0.5761  0.0786
  699MOL0     C94287  10.949   3.035   9.371 -0.8507 -0.7034 -0.1057
  699MOL0     C94288  10.960   3.069   9.505  1.6438 -0.4418 -0.5461
  699MOL0     O94289  11.069   3.060   9.578 -0.1285  0.5927  0.5561
  699MOL0     C94290  11.197   3.066   9.509  1.1377  0.5148 -0.4885
  699MOL0     C94291  11.300   3.095   9.614 -0.0308  0.0141  0.1032
  699MOL0     C94292  11.433   3.047   9.550  0.3564 -0.2781 -0.2414
  699MOL0     C94293  11.553   3.083   9.623  0.4113  0.3131  0.1514
  699MOL0     C94294  11.559   3.015   9.755 -0.1115 -0.5130  0.7376
  699MOL0     C94295  11.567   2.970   9.869  0.1658  0.0567 -1.6829
  699MOL0     C94296  10.836   3.107   9.565  0.5219  0.1142 -0.2076
  699MOL0     C94297  10.718   3.122   9.492  0.3761 -0.5163  0.0868
  699MOL0     H94298  10.516   2.831   9.145 -1.7209  0.8047  3.1656
  699MOL0     H94299  10.292   2.738   9.052 -3.0910  0.4076  4.4800
  699MOL0     H94300   9.972   2.960   8.911 -1.8512 -0.1555 -1.5788
  699MOL0     H94301  10.070   2.967   8.768 -1.1340 -0.9044 -1.7748
  699MOL0     H94302   9.858   2.821   8.717 -1.7355 -4.1902 -1.2269
  699MOL0     H94303  10.010   2.742   8.690  0.6046 -0.3449  1.3473
  699MOL0     H94304   9.984   2.626   8.914  0.7767  0.1447 -0.0989
  699MOL0     H94305   9.829   2.715   8.918 -0.3573 -0.6411  0.1175
  699MOL0     H94306   9.834   2.580   8.658  1.0709  2.2843 -1.8659
  699MOL0     H94307   9.914   2.471   8.771  2.8392  1.3151 -3.5146
  699MOL0     H94308   9.718   2.525   8.937  0.5145 -0.7711  0.2729
  699MOL0     H94309   9.638   2.581   8.787 -0.8904 -1.5967 -1.1162
  699MOL0     H94310   9.713   2.354   8.691  2.8011  0.9280  1.0565
  699MOL0     H94311   9.768   2.309   8.851  1.2189  1.1019  0.2468
  699MOL0     H94312   9.547   2.221   8.838  1.5794 -0.0527  0.8162
  699MOL0     H94313   9.506   2.371   8.918 -1.1449  1.3224 -0.6599
  699MOL0     H94314   9.483   2.302   8.624  0.4009  1.6805 -0.9358
  699MOL0     H94315   9.475   2.472   8.673  0.2565 -0.6606 -0.1233
  699MOL0     H94316   9.289   2.217   8.919 -0.9583 -0.2274  0.6738
  699MOL0     H94317   9.009   2.239   8.963 -0.8781  0.0001 -0.4338
  699MOL0     H94318   8.908   2.197   8.822 -0.0940 -1.6334 -1.4607
  699MOL0     H94319   8.978   1.993   8.967 -0.3744 -0.2408  0.5359
  699MOL0     H94320   9.143   2.019   8.909  0.5196  0.3457 -0.2398
  699MOL0     H94321   9.045   2.011   8.679  2.1378  1.7918  1.9525
  699MOL0     H94322   8.889   1.955   8.738  0.6110 -2.2434 -2.2483
  699MOL0     H94323   8.998   1.764   8.863  1.1912  1.1081  0.2660
  699MOL0     H94324   9.150   1.811   8.793  0.6965 -2.4881 -2.1268
  699MOL0     H94325   8.943   1.634   8.448 -0.6548 -0.3514 -1.1470
  699MOL0     H94326   8.655   1.578   8.275  0.4792  0.1449 -0.1109
  699MOL0     H94327   8.814   1.548   8.289 -0.5463  0.3468 -1.9546
  699MOL0     H94328   8.704   1.424   8.364  0.7913 -0.0088  0.2793
  699MOL0     H94329   8.446   1.280   8.357  1.7749  0.7480  3.6040
  699MOL0     H94330   8.231   1.127   8.336 -1.4999  0.2379  0.5586
  699MOL0     H94331   7.844   1.270   8.517 -0.4492 -1.5323  1.2766
  699MOL0     H94332   7.854   1.339   8.351  0.2688 -0.1284  0.2862
  699MOL0     H94333   7.796   1.124   8.257  0.0795  0.4421  0.9028
  699MOL0     H94334   7.779   1.044   8.414  0.8337 -2.6007 -2.1377
  699MOL0     H94335   7.614   1.273   8.310 -0.4723 -0.1252  0.7441
  699MOL0     H94336   7.612   1.234   8.476 -0.0406  0.2274  0.2170
  699MOL0     H94337   7.493   1.080   8.243  0.9723  0.2588  0.0183
  699MOL0     H94338   7.548   0.982   8.385 -2.5789 -1.0109 -0.0992
  699MOL0     H94339   7.383   1.221   8.432  0.0777 -0.9107 -1.6754
  699MOL0     H94340   7.389   1.079   8.528 -0.7817  3.2938  2.2405
  699MOL0     H94341   7.167   1.100   8.415  0.2634 -1.3880  1.5338
  699MOL0     H94342   7.250   1.119   8.261  0.5759 -0.7092 -0.9062
  699MOL0     H94343   7.258   0.862   8.431 -1.2144 -1.4832 -0.9192
  699MOL0     H94344   7.333   0.893   8.269 -1.5681 -2.2478 -2.0732
  699MOL0     H94345   7.100   0.785   8.237 -0.8817 -0.0758  0.3883
  699MOL0     H94346   7.078   0.937   8.187 -2.0246 -0.1563  0.3272
  699MOL0     H94347   7.998   1.452   8.483  0.1676  1.8897 -1.2045
  699MOL0     H94348   8.195   1.608   8.483  0.5565 -0.5131  4.9792
  699MOL0     H94349   8.570   1.673   8.773  2.5355  2.5794  2.6849
  699MOL0     H94350   8.794   1.735   8.829 -1.0560  0.0727  0.7507
  699MOL0     H94351  10.175   3.131   8.947 -0.8323 -0.3570 -1.0669
  699MOL0     H94352  10.380   3.219   9.043 -3.6087  0.9921 -0.3499
  699MOL0     H94353  10.838   3.047   9.190 -1.4928 -1.6394  0.2294
  699MOL0     H94354  11.026   2.979   9.319 -0.2971 -0.1109  0.0667
  699MOL0     H94355  11.215   2.969   9.462 -2.1708  1.4544 -4.1926
  699MOL0     H94356  11.197   3.141   9.430  1.5644 -0.2618 -1.2430
  699MOL0     H94357  11.276   3.055   9.712  0.1256 -2.2980 -0.7491
  699MOL0     H94358  11.292   3.203   9.629 -1.5805  0.1127 -1.1172
  699MOL0     H94359  11.442   3.083   9.447 -1.5840  1.5121  0.1478
  699MOL0     H94360  11.441   2.938   9.551  1.1040 -0.2542  1.8762
  699MOL0     H94361  11.574   3.189   9.633  2.5321 -0.0584 -0.0225
  699MOL0     H94362  11.646   3.044   9.582 -0.0291 -0.7694  0.1370
  699MOL0     H94363  11.568   2.929   9.968  0.7131  2.6800 -0.5334
  699MOL0     H94364  10.835   3.128   9.671 -1.7780 -0.4068 -0.0728
  699MOL0     H94365  10.628   3.147   9.547 -0.3776 -1.4651 -0.6776
  700MOL0     O94366   3.304   7.009  10.765 -0.2746 -0.0911  0.0868
  700MOL0     C94367   3.299   6.887  10.765 -0.0613 -0.5696 -1.5283
  700MOL0     O94368   3.206   6.810  10.837 -0.3874  0.9312  0.1461
  700MOL0     C94369   3.100   6.881  10.879 -0.2276 -0.3706 -0.5032
  700MOL0     C94370   2.990   6.900  10.806  0.2964  0.3655  1.0625
  700MOL0     C94371   2.884   6.978  10.852  0.6018  0.6151 -0.0133
  700MOL0     C94372   2.888   7.028  10.986  0.6705 -0.7810 -0.1134
  700MOL0     O94373   2.773   7.081  11.031  0.2337  0.4684  0.1934
  700MOL0     C94374   2.754   7.108  11.174  0.1174  0.6590  0.5288
  700MOL0     C94375   2.614   7.179  11.198 -1.2418 -0.1935  0.4589
  700MOL0     C94376   2.502   7.077  11.177  0.1247  1.0650  0.4094
  700MOL0     C94377   2.373   7.154  11.220 -0.2667 -0.2724 -1.1200
  700MOL0     C94378   2.246   7.064  11.216 -0.7123  0.2456 -0.7766
  700MOL0     C94379   2.131   7.150  11.283 -0.2919  0.1163  0.3649
  700MOL0     C94380   1.993   7.090  11.257  0.1688 -0.0211 -0.0066
  700MOL0     C94381   1.889   7.173  11.335  0.0266 -0.5154 -0.2890
  700MOL0     N94382   1.756   7.121  11.315 -1.4778 -0.3218  0.0032
  700MOL0     C94383   1.713   7.001  11.366  0.3845 -0.0425 -0.4312
  700MOL0     C94384   1.584   6.998  11.323 -1.0534 -0.1164  0.0385
  700MOL0     C94385   1.476   6.898  11.363  0.4053  0.0348 -0.3559
  700MOL0     C94386   1.398   6.948  11.487  0.4157  0.1966 -0.4727
  700MOL0     C94387   1.348   6.826  11.568 -0.0813  0.3732  0.1686
  700MOL0     C94388   1.308   6.874  11.712 -0.2274 -0.5093 -0.0155
  700MOL0     O94389   1.227   6.775  11.788  0.3026 -0.1836 -0.0640
  700MOL0     C94390   1.090   6.783  11.788  0.0682  0.4782 -0.7065
  700MOL0     C94391   1.017   6.698  11.883 -0.7504  0.5456 -0.1672
  700MOL0     C94392   0.884   6.667  11.873 -1.0311  0.5605  0.4957
  700MOL0     C94393   0.824   6.550  11.959 -0.2157 -0.4082  0.2612
  700MOL0     C94394   0.810   6.739  11.776  0.5215 -0.4923  0.2982
  700MOL0     C94395   0.661   6.732  11.761 -0.2547  0.3995 -0.0127
  700MOL0     O94396   0.602   6.824  11.681 -0.1732  0.0253  0.5362
  700MOL0     C94397   0.462   6.823  11.669 -0.6598 -0.5351 -0.1619
  700MOL0     C94398   0.376   6.907  11.737  0.4987 -0.0410  0.5669
  700MOL0     C94399   0.237   6.905  11.712  0.1159 -0.4645  0.2050
  700MOL0     C94400   0.183   6.826  11.612  0.1704  0.2371  0.4332
  700MOL0     O94401   0.040   6.838  11.578  0.3723  0.0241 -0.5040
  700MOL0     C94402   0.018   6.879  11.443  0.5351  0.6688  0.4575
  700MOL0     C94403  -0.129   6.885  11.393 -0.1050  0.3318  1.1229
  700MOL0     C94404  -0.208   7.005  11.451 -0.1884  0.5989 -0.5475
  700MOL0     C94405  -0.346   7.011  11.382  0.4062 -0.6668 -0.3588
  700MOL0     C94406  -0.419   7.134  11.445  0.0347  0.0090  0.7838
  700MOL0     C94407  -0.577   7.126  11.419 -0.2185 -0.6284  0.5027
  700MOL0     C94408  -0.634   7.262  11.459  0.2527 -0.1986 -0.6056
  700MOL0     C94409  -0.626   7.355  11.343 -0.2026  0.0886  0.0612
  700MOL0    Cl94410  -0.753   7.309  11.215  0.2021  0.1769  0.2865
  700MOL0     C94411   0.270   6.753  11.536 -0.0859  0.6350 -0.3269
  700MOL0     C94412   0.408   6.745  11.566  0.1852 -0.1201 -0.5814
  700MOL0     O94413   0.590   6.647  11.824 -0.5191  0.6382  0.7103
  700MOL0     C94414   0.873   6.839  11.700  1.2750  0.1596 -0.2112
  700MOL0     C94415   1.007   6.851  11.696 -0.0042 -1.2237 -0.0247
  700MOL0     N94416   1.556   7.101  11.238 -0.3028 -0.2728 -0.2425
  700MOL0     N94417   1.662   7.172  11.230 -0.1938 -0.3493 -0.2939
  700MOL0     C94418   2.996   7.006  11.068  0.1416  0.4513  1.1195
  700MOL0     C94419   3.100   6.936  11.011 -0.2638  0.4893  0.5421
  700MOL0     C94420   3.399   6.810  10.692  0.3240  0.0083  0.7004
  700MOL0     C94421   3.501   6.872  10.619  0.3043  0.4622  0.4025
  700MOL0     C94422   3.600   6.801  10.545 -0.0453  0.1025 -0.0208
  700MOL0     C94423   3.600   6.663  10.542  0.7220  0.6358  0.2721
  700MOL0     O94424   3.673   6.584  10.465  0.1876 -0.1666  0.4637
  700MOL0     C94425   3.800   6.551  10.536  0.2113 -0.1703  0.4845
  700MOL0     C94426   3.852   6.429  10.456  0.0205  0.2525 -0.3386
  700MOL0     C94427   3.988   6.393  10.495 -0.1994  0.1428  0.2608
  700MOL0     C94428   4.050   6.280  10.413 -0.0131 -0.1832 -0.5278
  700MOL0     C94429   4.071   6.331  10.275  0.8542 -0.1996 -0.4343
  700MOL0     C94430   4.075   6.372  10.164 -0.3594 -0.0001  0.2552
  700MOL0     C94431   3.498   6.599  10.604  0.3735 -0.0981 -0.5821
  700MOL0     C94432   3.400   6.670  10.685  0.2539 -0.2677 -0.2986
  700MOL0     H94433   2.986   6.851  10.709 -2.5244 -2.4066  2.4275
  700MOL0     H94434   2.806   6.994  10.779 -0.7030 -0.7988  1.0007
  700MOL0     H94435   2.749   7.016  11.233 -0.1553  1.3270  1.5799
  700MOL0     H94436   2.829   7.178  11.212 -0.0290  0.7602  0.6317
  700MOL0     H94437   2.612   7.222  11.298 -2.3759  0.7520  0.0582
  700MOL0     H94438   2.600   7.259  11.124 -0.6517 -0.4363  0.0799
  700MOL0     H94439   2.501   7.054  11.070 -0.0353 -0.2610  0.6818
  700MOL0     H94440   2.522   6.987  11.236  1.1618  2.2284  1.9077
  700MOL0     H94441   2.390   7.180  11.325 -0.1993  2.2306 -1.6993
  700MOL0     H94442   2.356   7.246  11.164 -1.9465 -0.9803 -1.8557
  700MOL0     H94443   2.227   7.041  11.111 -2.4906 -1.0892 -0.2309
  700MOL0     H94444   2.278   6.972  11.267  2.3436  0.2692 -2.4056
  700MOL0     H94445   2.147   7.145  11.391 -1.9893 -0.0083  0.6496
  700MOL0     H94446   2.131   7.253  11.245 -4.0563  0.3365  0.5342
  700MOL0     H94447   1.968   7.084  11.151  1.0877 -1.0660 -0.1792
  700MOL0     H94448   1.996   6.989  11.298 -1.9905  0.1090  0.5983
  700MOL0     H94449   1.882   7.279  11.305 -1.6088 -1.1599 -2.4235
  700MOL0     H94450   1.921   7.169  11.440 -0.2280 -2.3473 -0.2581
  700MOL0     H94451   1.764   6.925  11.424  1.0244  1.7349  1.4440
  700MOL0     H94452   1.408   6.898  11.277 -1.2730 -1.3875  0.8997
  700MOL0     H94453   1.522   6.800  11.378  0.8786  0.2765 -0.2209
  700MOL0     H94454   1.321   7.022  11.461  2.1266  2.2037 -0.0275
  700MOL0     H94455   1.471   7.004  11.545  0.2449  0.4265 -0.4764
  700MOL0     H94456   1.422   6.746  11.572 -3.3708 -2.8678  1.7480
  700MOL0     H94457   1.264   6.767  11.530  1.5410 -2.3324  0.5351
  700MOL0     H94458   1.248   6.965  11.707  2.3194  1.4898  2.4967
  700MOL0     H94459   1.396   6.914  11.763 -0.3113 -0.1888 -0.1169
  700MOL0     H94460   1.078   6.636  11.949  3.3989 -0.1732 -4.1457
  700MOL0     H94461   0.796   6.467  11.893  2.6753  0.2768 -2.0131
  700MOL0     H94462   0.897   6.516  12.033 -2.3972  2.1512  3.9236
  700MOL0     H94463   0.738   6.586  12.017  0.7449 -1.0690  2.1917
  700MOL0     H94464   0.421   6.958  11.821 -1.8742 -1.4007  2.8335
  700MOL0     H94465   0.165   6.958  11.774  0.2587 -2.0702  1.8126
  700MOL0     H94466   0.077   6.972  11.437  1.0273  0.3145 -0.3602
  700MOL0     H94467   0.064   6.816  11.366  0.6350 -0.1836  1.1998
  700MOL0     H94468  -0.123   6.881  11.283 -1.5499  0.5984  1.0188
  700MOL0     H94469  -0.184   6.795  11.419 -2.5705  1.8860  1.6348
  700MOL0     H94470  -0.150   7.098  11.443  1.8416 -0.2452  2.5123
  700MOL0     H94471  -0.216   6.987  11.559  1.7943 -0.8208 -0.5673
  700MOL0     H94472  -0.335   7.008  11.274  1.8370 -0.9765 -0.2236
  700MOL0     H94473  -0.396   6.917  11.408  0.1489 -0.2867  0.5991
  700MOL0     H94474  -0.379   7.223  11.393 -0.6286 -0.9270 -1.4580
  700MOL0     H94475  -0.412   7.144  11.553  0.1990  0.2965  0.7493
  700MOL0     H94476  -0.592   7.100  11.313 -1.0119  2.6991 -0.2952
  700MOL0     H94477  -0.618   7.054  11.490  0.1084 -2.6355 -1.2335
  700MOL0     H94478  -0.581   7.297  11.549  0.0453  1.4399 -1.0862
  700MOL0     H94479  -0.735   7.255  11.500  0.5397  1.0291  0.3915
  700MOL0     H94480  -0.528   7.357  11.294 -0.4514 -2.7966 -0.7534
  700MOL0     H94481  -0.650   7.450  11.393  0.9449  0.1799  0.4624
  700MOL0     H94482   0.244   6.698  11.446 -0.0544  3.3789 -2.1404
  700MOL0     H94483   0.474   6.677  11.513  0.4268  1.4362 -2.3649
  700MOL0     H94484   0.814   6.894  11.627 -0.0946 -1.6555 -0.5177
  700MOL0     H94485   1.052   6.915  11.621 -1.2929  0.8374  0.8765
  700MOL0     H94486   2.994   7.026  11.174  0.6758 -0.6127  1.3540
  700MOL0     H94487   3.188   6.916  11.071 -0.2160 -0.2328  0.2427
  700MOL0     H94488   3.507   6.981  10.615  0.3851  0.4297 -0.4424
  700MOL0     H94489   3.672   6.852  10.482 -0.7587 -0.4140 -1.2778
  700MOL0     H94490   3.872   6.633  10.541  0.6640 -0.5938  1.0932
  700MOL0     H94491   3.780   6.517  10.638 -2.8910 -0.1287 -0.0206
  700MOL0     H94492   3.847   6.456  10.351 -0.6653  0.2158 -0.3209
  700MOL0     H94493   3.785   6.345  10.481 -0.2782  0.2794 -1.0178
  700MOL0     H94494   3.984   6.362  10.599  3.6835 -0.9184  0.2278
  700MOL0     H94495   4.062   6.473  10.488 -0.9357  0.7841 -0.5041
  700MOL0     H94496   3.978   6.199  10.424 -0.0831  0.0311  0.6812
  700MOL0     H94497   4.145   6.253  10.460 -0.4289 -0.5358  0.1176
  700MOL0     H94498   4.056   6.409  10.065  1.4037 -1.7673 -0.8418
  700MOL0     H94499   3.496   6.491  10.609  2.1733 -0.1276  4.4535
  700MOL0     H94500   3.332   6.616  10.751  1.4607  0.6281  1.7908
  701MOL0     O94501   1.331   6.464   8.967 -0.3734 -0.2205 -0.1758
  701MOL0     C94502   1.403   6.453   9.073  0.4880 -0.0236 -0.4323
  701MOL0     O94503   1.380   6.507   9.199  0.0691 -0.4274 -0.1905
  701MOL0     C94504   1.249   6.532   9.231  0.0410  0.4610 -0.1178
  701MOL0     C94505   1.138   6.460   9.181  0.0003 -0.1611 -0.2403
  701MOL0     C94506   1.012   6.499   9.213  0.4266  0.2640  0.1767
  701MOL0     C94507   0.988   6.598   9.302  0.1570  0.1699 -0.2823
  701MOL0     O94508   0.852   6.629   9.318  0.0199 -0.2539 -0.1529
  701MOL0     C94509   0.814   6.689   9.438 -0.0880 -0.5389 -0.6102
  701MOL0     C94510   0.707   6.796   9.407 -0.4820 -1.0841  0.1904
  701MOL0     C94511   0.573   6.741   9.380  0.5472 -0.2151  0.1061
  701MOL0     C94512   0.484   6.728   9.497 -0.4393  0.0598 -0.4158
  701MOL0     C94513   0.354   6.651   9.462 -0.2083 -0.2670 -0.1121
  701MOL0     C94514   0.256   6.621   9.580 -0.5009  0.4462 -0.0141
  701MOL0     C94515   0.136   6.527   9.540 -0.1405 -0.1515  0.1058
  701MOL0     C94516   0.030   6.518   9.653 -0.0478  0.0331  0.1044
  701MOL0     N94517  -0.034   6.386   9.634 -0.6636  0.1485 -0.2210
  701MOL0     C94518  -0.141   6.365   9.553 -0.0568  1.1032  0.4692
  701MOL0     C94519  -0.151   6.227   9.550  0.3086 -0.1935  0.0349
  701MOL0     C94520  -0.249   6.148   9.469 -0.8540 -0.1228  0.6929
  701MOL0     C94521  -0.227   6.149   9.307 -0.1872 -0.0221 -0.4094
  701MOL0     C94522  -0.323   6.043   9.240 -0.7373 -0.2203 -0.0027
  701MOL0     C94523  -0.470   6.084   9.222 -0.3040  0.1508 -0.1410
  701MOL0     O94524  -0.551   5.960   9.211  0.5207 -0.2815 -0.1696
  701MOL0     C94525  -0.669   5.960   9.283  0.2293 -0.2993 -0.4622
  701MOL0     C94526  -0.730   5.836   9.318  0.4751 -0.5410  0.1563
  701MOL0     C94527  -0.861   5.826   9.361 -0.0805 -0.1812  0.2939
  701MOL0     C94528  -0.904   5.683   9.393  1.0809  0.2172 -0.3833
  701MOL0     C94529  -0.927   5.945   9.398  0.4631 -0.2270 -0.7830
  701MOL0     C94530  -1.060   5.953   9.467 -0.6275 -0.0049  0.2663
  701MOL0     O94531  -1.135   6.060   9.425 -0.1655 -0.3741  0.6036
  701MOL0     C94532  -1.271   6.040   9.426  0.1716 -0.0848 -0.2896
  701MOL0     C94533  -1.331   5.940   9.355 -0.3712 -0.4222 -0.5037
  701MOL0     C94534  -1.470   5.919   9.379  0.0946  0.0045  0.6468
  701MOL0     C94535  -1.548   6.001   9.463  0.0579 -0.4797  0.1771
  701MOL0     O94536  -1.681   5.970   9.467 -0.3408  0.2370 -0.0769
  701MOL0     C94537  -1.765   6.073   9.527 -0.0211 -0.3821  0.1816
  701MOL0     C94538  -1.909   6.031   9.517  1.0801 -0.0398 -0.0615
  701MOL0     C94539  -1.944   5.900   9.590 -0.2667  0.5937 -1.0882
  701MOL0     C94540  -2.094   5.864   9.581  0.1505  0.5655  0.2969
  701MOL0     C94541  -2.131   5.727   9.654  0.2016  1.3452 -0.3636
  701MOL0     C94542  -2.281   5.710   9.673 -0.1062  0.4376 -0.7885
  701MOL0     C94543  -2.343   5.638   9.553 -0.1023 -0.1265 -0.3557
  701MOL0     C94544  -2.490   5.611   9.595  0.3990 -0.5221  0.8299
  701MOL0    Cl94545  -2.518   5.460   9.697 -0.3872 -0.1030  0.2531
  701MOL0     C94546  -1.483   6.109   9.528 -0.3973  0.1360  0.9030
  701MOL0     C94547  -1.348   6.130   9.502  0.6029  0.4488 -0.5661
  701MOL0     O94548  -1.094   5.868   9.546  0.2741  0.3173 -0.0740
  701MOL0     C94549  -0.865   6.072   9.363 -0.3313  0.1838  0.6058
  701MOL0     C94550  -0.738   6.078   9.304 -0.4078 -0.5555  0.8952
  701MOL0     N94551  -0.060   6.171   9.637  0.2653  0.1888 -0.6958
  701MOL0     N94552   0.006   6.268   9.689 -0.6486 -0.0699 -0.2842
  701MOL0     C94553   1.103   6.662   9.359 -0.1783 -0.2715  0.9750
  701MOL0     C94554   1.225   6.629   9.327 -0.3584  0.2264  0.2284
  701MOL0     C94555   1.539   6.392   9.059  0.1306  0.1700  0.1378
  701MOL0     C94556   1.633   6.402   9.163 -0.8343  0.0961  0.4091
  701MOL0     C94557   1.772   6.357   9.142 -0.9450 -1.1691  0.2363
  701MOL0     C94558   1.810   6.290   9.011  0.5463 -0.3889 -0.3958
  701MOL0     O94559   1.926   6.244   8.961 -0.2570 -0.3891  0.3274
  701MOL0     C94560   2.040   6.218   9.032  0.1123  0.2769  0.2195
  701MOL0     C94561   2.137   6.140   8.948  0.7914  0.4147 -0.2457
  701MOL0     C94562   2.240   6.059   9.022  0.0333  0.3957  0.0745
  701MOL0     C94563   2.328   6.155   9.105  0.4483 -0.0959  0.3895
  701MOL0     C94564   2.423   6.227   9.018  0.2794  0.7576  0.3522
  701MOL0     C94565   2.485   6.293   8.942 -0.1881  0.9950 -1.0780
  701MOL0     C94566   1.705   6.285   8.914 -0.5881  0.3987 -0.9709
  701MOL0     C94567   1.579   6.333   8.937  0.1223  0.9177 -0.2016
  701MOL0     H94568   1.144   6.378   9.110  0.4177 -0.5248  0.2096
  701MOL0     H94569   0.926   6.456   9.162  0.8261 -1.4884  0.9163
  701MOL0     H94570   0.767   6.617   9.505  0.4720 -0.3163  0.0309
  701MOL0     H94571   0.897   6.738   9.491 -0.6261  0.1795 -0.4126
  701MOL0     H94572   0.692   6.871   9.486  1.4472 -0.9157  0.4492
  701MOL0     H94573   0.753   6.846   9.322  3.0560 -1.8961  1.4487
  701MOL0     H94574   0.531   6.816   9.313 -0.3819  1.0894  2.0588
  701MOL0     H94575   0.586   6.651   9.318  1.5779  0.2031 -0.2918
  701MOL0     H94576   0.534   6.672   9.577 -2.7789 -1.0831  0.3392
  701MOL0     H94577   0.458   6.823   9.545  3.3454  0.2741  1.5642
  701MOL0     H94578   0.293   6.715   9.397 -1.4123  1.9547  2.9721
  701MOL0     H94579   0.375   6.555   9.414  1.5323 -0.3204  0.6979
  701MOL0     H94580   0.314   6.588   9.666 -0.3517 -0.6455 -0.5128
  701MOL0     H94581   0.200   6.711   9.609 -2.3998 -0.3768 -0.9159
  701MOL0     H94582   0.087   6.561   9.448 -0.4624 -2.2663 -0.5536
  701MOL0     H94583   0.165   6.427   9.507  1.1646  0.6597 -1.3824
  701MOL0     H94584  -0.038   6.601   9.632  2.0080  1.4840 -1.2262
  701MOL0     H94585   0.085   6.519   9.747  0.5175  0.4145 -0.2243
  701MOL0     H94586  -0.202   6.428   9.489 -0.7363 -1.7380 -1.8930
  701MOL0     H94587  -0.248   6.044   9.504  1.5844  0.1041  1.5054
  701MOL0     H94588  -0.349   6.191   9.481 -0.8480  0.7088 -1.6739
  701MOL0     H94589  -0.123   6.123   9.287  0.2860 -0.6917  2.4426
  701MOL0     H94590  -0.236   6.250   9.265  3.4547  0.9789  0.8793
  701MOL0     H94591  -0.332   5.952   9.298 -0.1894 -1.0409 -1.1494
  701MOL0     H94592  -0.277   6.011   9.145  0.0688 -2.0865  0.9760
  701MOL0     H94593  -0.493   6.142   9.132  0.1596 -1.3390 -1.2761
  701MOL0     H94594  -0.497   6.135   9.314  1.2893  1.2097 -0.2267
  701MOL0     H94595  -0.671   5.750   9.291 -0.7228 -1.2506 -0.2610
  701MOL0     H94596  -0.868   5.608   9.323  1.3804  1.6521 -1.8282
  701MOL0     H94597  -0.869   5.660   9.494 -0.5090  0.8632  0.3526
  701MOL0     H94598  -1.013   5.682   9.402  1.0688  0.3454 -0.5152
  701MOL0     H94599  -1.274   5.877   9.286  0.6387  1.4987 -1.4973
  701MOL0     H94600  -1.521   5.844   9.319 -0.2492  2.6093 -2.5850
  701MOL0     H94601  -1.733   6.079   9.631  4.7157  3.2931 -1.1247
  701MOL0     H94602  -1.756   6.175   9.488 -3.5282  0.8924  2.2620
  701MOL0     H94603  -1.972   6.110   9.558 -0.8140 -1.5998  0.2200
  701MOL0     H94604  -1.930   6.019   9.411  4.1448 -0.4718 -0.7159
  701MOL0     H94605  -1.914   5.910   9.695  0.6492  2.4893 -1.4812
  701MOL0     H94606  -1.889   5.818   9.542 -0.3547 -0.3265  0.3002
  701MOL0     H94607  -2.154   5.944   9.625 -0.4745  0.4209 -0.2795
  701MOL0     H94608  -2.127   5.857   9.477 -1.1053 -0.3164  0.7369
  701MOL0     H94609  -2.079   5.723   9.750  0.4954  1.5950 -0.5119
  701MOL0     H94610  -2.093   5.647   9.590  4.0163  1.4158  1.5213
  701MOL0     H94611  -2.300   5.656   9.765  0.3225  1.6026  0.0145
  701MOL0     H94612  -2.332   5.806   9.688  2.1567  1.4267  1.3039
  701MOL0     H94613  -2.308   5.535   9.536 -1.2470 -1.4060  3.9535
  701MOL0     H94614  -2.337   5.704   9.466  0.4877  1.8671  1.1258
  701MOL0     H94615  -2.537   5.586   9.500  0.7573 -1.2947  0.8474
  701MOL0     H94616  -2.537   5.703   9.629  2.3769  1.1373 -0.6552
  701MOL0     H94617  -1.535   6.179   9.592  1.7629  0.9355  1.8634
  701MOL0     H94618  -1.300   6.219   9.543 -0.4100  1.8801 -2.3269
  701MOL0     H94619  -0.914   6.166   9.384 -1.7371 -0.7615  1.7284
  701MOL0     H94620  -0.697   6.170   9.263  0.1419 -1.3386 -0.3860
  701MOL0     H94621   1.079   6.742   9.429 -2.4532  1.7012 -1.8334
  701MOL0     H94622   1.303   6.675   9.387 -1.2436  0.1045  1.5102
  701MOL0     H94623   1.599   6.439   9.259 -3.6546 -2.3138  0.4748
  701MOL0     H94624   1.850   6.363   9.217  1.0176  2.4691 -1.8559
  701MOL0     H94625   2.079   6.314   9.067 -0.6465  0.5728  0.2810
  701MOL0     H94626   2.011   6.155   9.116 -1.7109  1.1377  0.3020
  701MOL0     H94627   2.189   6.210   8.883  1.0804 -0.1023 -0.5803
  701MOL0     H94628   2.081   6.080   8.876 -1.2829  1.7641  0.1740
  701MOL0     H94629   2.296   5.990   8.958  0.1700  1.1496 -0.6404
  701MOL0     H94630   2.182   5.998   9.092  0.3741  1.9155  1.7286
  701MOL0     H94631   2.379   6.088   9.175  2.8068  0.0131 -1.0928
  701MOL0     H94632   2.267   6.227   9.160  0.1498 -0.2347  0.2415
  701MOL0     H94633   2.560   6.351   8.891  1.3976  0.2133  0.2640
  701MOL0     H94634   1.733   6.228   8.826  1.8137  0.5232 -0.3841
  701MOL0     H94635   1.512   6.331   8.852 -0.3840  6.0745 -0.2807
  702MOL0     O94636   1.042   7.246  10.131  0.7748 -0.8682 -0.1335
  702MOL0     C94637   1.090   7.233  10.244 -0.2814 -1.1835  0.2713
  702MOL0     O94638   1.029   7.182  10.357 -0.0814  0.3316  0.1982
  702MOL0     C94639   0.896   7.150  10.344  0.5052  0.3434  0.0610
  702MOL0     C94640   0.866   7.032  10.408  0.3226 -0.6774  1.4656
  702MOL0     C94641   0.731   6.991  10.420 -0.1637 -0.2921 -0.4068
  702MOL0     C94642   0.630   7.058  10.342  0.6097  0.4516 -0.4850
  702MOL0     O94643   0.498   7.013  10.324 -0.0766  0.1955  0.0705
  702MOL0     C94644   0.478   6.870  10.323 -0.0212  0.6393 -0.2212
  702MOL0     C94645   0.423   6.807  10.446 -0.9007 -0.2830  0.0592
  702MOL0     C94646   0.277   6.791  10.432  0.8346 -0.0330 -0.2036
  702MOL0     C94647   0.203   6.765  10.564  0.7686  0.0903 -0.6346
  702MOL0     C94648   0.049   6.749  10.524  0.2149  0.5562  0.4696
  702MOL0     C94649  -0.035   6.684  10.629  0.0262 -0.7483  0.0035
  702MOL0     C94650  -0.185   6.699  10.605  0.3416 -0.7147  0.3310
  702MOL0     C94651  -0.254   6.831  10.631 -0.0979 -0.5289  1.1249
  702MOL0     N94652  -0.287   6.852  10.774  0.2220 -0.0414  0.2916
  702MOL0     C94653  -0.406   6.915  10.812  0.0218  0.1562 -0.3449
  702MOL0     C94654  -0.394   6.933  10.949  0.2189  0.9468  0.1690
  702MOL0     C94655  -0.504   6.990  11.031  0.6646 -1.0461  0.5547
  702MOL0     C94656  -0.588   6.885  11.098 -0.2501  0.6024 -0.3311
  702MOL0     C94657  -0.659   6.790  10.995  0.2760  0.1386  0.2989
  702MOL0     C94658  -0.744   6.847  10.889  0.0944 -1.6398 -0.0608
  702MOL0     O94659  -0.835   6.929  10.963  0.0750  0.1233 -0.4760
  702MOL0     C94660  -0.968   6.920  10.939  1.0228  0.2068  0.8151
  702MOL0     C94661  -1.036   6.837  10.844  0.3733 -0.4758 -0.2669
  702MOL0     C94662  -1.171   6.859  10.803  0.0545  0.4192 -0.6416
  702MOL0     C94663  -1.235   6.760  10.703  0.2950 -0.4521 -0.9587
  702MOL0     C94664  -1.233   6.968  10.856  0.1542 -0.2553 -0.2624
  702MOL0     C94665  -1.378   7.001  10.824 -1.9581 -0.1440 -0.6932
  702MOL0     O94666  -1.480   6.910  10.832 -0.6138  0.4664  0.4808
  702MOL0     C94667  -1.607   6.947  10.806  0.1104 -0.3042  0.1832
  702MOL0     C94668  -1.698   6.945  10.918 -0.8764  0.0623  0.1606
  702MOL0     C94669  -1.826   6.986  10.895 -1.0206  0.6064 -0.6321
  702MOL0     C94670  -1.876   7.021  10.777  0.1114  0.3471 -0.3070
  702MOL0     O94671  -2.000   7.075  10.766 -0.2168  0.0511  1.1974
  702MOL0     C94672  -2.000   7.204  10.840  0.2789 -0.4401 -0.6876
  702MOL0     C94673  -1.968   7.315  10.745 -0.7317 -0.6798 -0.1026
  702MOL0     C94674  -2.085   7.331  10.641 -0.6134  0.1455 -0.5438
  702MOL0     C94675  -2.067   7.458  10.564  0.8297 -0.0659  0.6859
  702MOL0     C94676  -2.160   7.477  10.440 -0.1249  0.4524 -0.6386
  702MOL0     C94677  -2.312   7.453  10.458 -0.3239  0.2023 -0.4499
  702MOL0     C94678  -2.403   7.456  10.340  0.4099  0.1882 -0.1781
  702MOL0     C94679  -2.531   7.380  10.372 -0.2521 -1.0854  0.1400
  702MOL0    Cl94680  -2.653   7.403  10.251 -0.1723  0.5261  0.3739
  702MOL0     C94681  -1.789   7.023  10.670  0.1273 -0.0606  0.5409
  702MOL0     C94682  -1.653   6.995  10.682  0.7209 -0.3638 -0.2954
  702MOL0     O94683  -1.393   7.123  10.800  0.0908 -0.8798 -0.6260
  702MOL0     C94684  -1.158   7.053  10.940  0.3544  0.3508 -1.1767
  702MOL0     C94685  -1.038   7.027  10.988 -0.2584  0.7383 -0.2537
  702MOL0     N94686  -0.284   6.866  10.999 -0.3525  0.0637 -0.7219
  702MOL0     N94687  -0.219   6.825  10.890  0.4475 -0.5733  0.4888
  702MOL0     C94688   0.660   7.178  10.282 -0.5938 -0.2308  0.5776
  702MOL0     C94689   0.794   7.220  10.286 -1.1897  0.3428 -0.3238
  702MOL0     C94690   1.226   7.262  10.257 -1.0169 -0.9698  0.0358
  702MOL0     C94691   1.281   7.279  10.380 -0.2654 -1.1362 -0.3094
  702MOL0     C94692   1.417   7.302  10.400 -0.5153 -0.3495  1.0109
  702MOL0     C94693   1.507   7.315  10.289  0.4834  0.3226 -0.5212
  702MOL0     O94694   1.640   7.338  10.312  0.5300  1.2402 -0.6723
  702MOL0     C94695   1.742   7.298  10.217  0.8616 -0.6532 -0.0125
  702MOL0     C94696   1.881   7.274  10.269 -0.1441  0.1527  0.6640
  702MOL0     C94697   1.896   7.132  10.335  0.0335  0.5358  0.0322
  702MOL0     C94698   2.040   7.111  10.375  0.1616  0.1138  0.1959
  702MOL0     C94699   2.042   6.984  10.449 -0.4826  0.1410  0.4757
  702MOL0     C94700   2.030   6.878  10.518 -0.0696  0.4719  0.2370
  702MOL0     C94701   1.449   7.305  10.162  0.6905  0.3949 -0.5862
  702MOL0     C94702   1.314   7.280  10.151  0.6416 -0.4923  0.0419
  702MOL0     H94703   0.949   6.973  10.446  1.8678  0.4630 -0.0047
  702MOL0     H94704   0.702   6.901  10.473 -1.0998  0.2654  0.0591
  702MOL0     H94705   0.416   6.848  10.236 -0.1328  0.4735 -0.0996
  702MOL0     H94706   0.574   6.819  10.311 -0.8048 -1.9706  3.1076
  702MOL0     H94707   0.467   6.710  10.472 -1.7294 -0.9066 -0.7956
  702MOL0     H94708   0.456   6.876  10.524 -1.5753 -0.4766  0.5360
  702MOL0     H94709   0.242   6.887  10.392  0.6757  0.6080  1.3942
  702MOL0     H94710   0.255   6.713  10.359  3.0036 -0.8168 -0.0700
  702MOL0     H94711   0.235   6.668  10.602 -0.9984  0.4210  1.9727
  702MOL0     H94712   0.225   6.832  10.648  1.3237  0.9693 -1.4729
  702MOL0     H94713   0.006   6.846  10.502  0.9600  0.7001 -0.4187
  702MOL0     H94714   0.043   6.681  10.439 -4.0642  1.5055 -0.2032
  702MOL0     H94715  -0.003   6.580  10.629  0.4601 -0.6818  2.9321
  702MOL0     H94716  -0.022   6.713  10.733  1.4317 -2.3385  0.3195
  702MOL0     H94717  -0.199   6.677  10.499 -0.6482 -2.4995  0.7861
  702MOL0     H94718  -0.243   6.621  10.656  1.7277 -0.5624  2.2855
  702MOL0     H94719  -0.346   6.835  10.572  0.7542 -1.4915 -0.3361
  702MOL0     H94720  -0.181   6.909  10.609  1.3446 -2.1293 -0.0900
  702MOL0     H94721  -0.482   6.954  10.745  1.1511  1.2717 -1.0187
  702MOL0     H94722  -0.468   7.063  11.104  0.6625 -0.7275  0.2405
  702MOL0     H94723  -0.570   7.046  10.965 -0.2712 -0.7407  1.7176
  702MOL0     H94724  -0.659   6.925  11.170  2.0424  1.3535  1.6087
  702MOL0     H94725  -0.523   6.832  11.168  0.8351 -1.9975 -3.0774
  702MOL0     H94726  -0.723   6.717  11.045  0.1725 -0.1389 -0.2317
  702MOL0     H94727  -0.580   6.730  10.949 -0.6021 -1.5613  0.9153
  702MOL0     H94728  -0.785   6.777  10.815 -0.5746 -0.6013 -0.6917
  702MOL0     H94729  -0.690   6.920  10.829 -1.3995  1.3823  2.0346
  702MOL0     H94730  -0.980   6.752  10.806 -1.3982 -3.1941  2.6246
  702MOL0     H94731  -1.259   6.799  10.603 -1.5630  1.5782  0.2034
  702MOL0     H94732  -1.164   6.677  10.695 -1.2207 -1.8010 -0.9999
  702MOL0     H94733  -1.331   6.718  10.734 -0.1338  1.4025  0.3983
  702MOL0     H94734  -1.670   6.910  11.017 -0.3993  3.1472  1.2269
  702MOL0     H94735  -1.887   6.994  10.985  2.1351  0.4395  1.6816
  702MOL0     H94736  -2.101   7.232  10.871  0.9790  1.7462 -0.2074
  702MOL0     H94737  -1.937   7.211  10.928  0.2020 -0.4203 -0.6335
  702MOL0     H94738  -1.953   7.407  10.803  0.6325 -0.7570 -0.3041
  702MOL0     H94739  -1.873   7.296  10.694  0.6481  0.4181  1.9467
  702MOL0     H94740  -2.175   7.338  10.703  0.4504  3.3542  0.8909
  702MOL0     H94741  -2.086   7.244  10.575 -3.0970 -0.4628  0.2094
  702MOL0     H94742  -2.088   7.541  10.633 -3.7097  0.1511 -0.5816
  702MOL0     H94743  -1.964   7.455  10.530  0.9861  0.9296  1.0279
  702MOL0     H94744  -2.128   7.404  10.365  1.5651 -0.0792  0.5421
  702MOL0     H94745  -2.131   7.572  10.393 -3.4538  1.7174 -0.3977
  702MOL0     H94746  -2.327   7.352  10.497 -0.4050 -0.3123 -1.7811
  702MOL0     H94747  -2.346   7.527  10.532  1.6824  0.2606  0.4830
  702MOL0     H94748  -2.354   7.414  10.252 -0.7877  2.3975 -2.0173
  702MOL0     H94749  -2.425   7.562  10.322 -1.9345  0.1593  1.9775
  702MOL0     H94750  -2.564   7.402  10.474  0.5028 -0.4542  0.2560
  702MOL0     H94751  -2.509   7.273  10.371 -2.3462 -1.5568  0.5581
  702MOL0     H94752  -1.823   7.056  10.572 -0.6880  2.3094  1.5523
  702MOL0     H94753  -1.581   7.004  10.601 -0.6868 -0.6840 -1.6326
  702MOL0     H94754  -1.206   7.146  10.970  0.6957 -0.2951  1.6484
  702MOL0     H94755  -0.989   7.105  11.046 -0.7510  1.7538 -1.1630
  702MOL0     H94756   0.586   7.239  10.230 -1.7818 -0.6771  1.6891
  702MOL0     H94757   0.818   7.318  10.247  1.2589 -0.4476 -0.9568
  702MOL0     H94758   1.221   7.279  10.472  2.8040  1.4287  1.9087
  702MOL0     H94759   1.446   7.297  10.505  0.3543 -1.8921  0.7207
  702MOL0     H94760   1.714   7.203  10.171  1.2873 -1.2719  0.9754
  702MOL0     H94761   1.752   7.376  10.141  0.3304  0.2726  0.8421
  702MOL0     H94762   1.918   7.349  10.339 -1.6862  1.3731  0.2332
  702MOL0     H94763   1.940   7.279  10.177  0.8854 -0.5529  1.2641
  702MOL0     H94764   1.867   7.049  10.270  0.9860 -0.3317  0.6991
  702MOL0     H94765   1.827   7.127  10.420 -1.6252  0.0049 -1.2902
  702MOL0     H94766   2.062   7.181  10.456 -0.2983  1.2187 -0.6116
  702MOL0     H94767   2.123   7.110  10.304  1.9366 -1.4801  2.1803
  702MOL0     H94768   2.018   6.786  10.571  0.3622 -0.0310 -0.5239
  702MOL0     H94769   1.514   7.313  10.075  1.5879  2.0134  0.1860
  702MOL0     H94770   1.263   7.286  10.055 -2.3133  2.0357  1.5776
  703MOL0     O94771   1.946   7.184   3.518  0.4892 -0.3813 -0.2253
  703MOL0     C94772   2.014   7.228   3.420  0.2807  0.1377  0.5567
  703MOL0     O94773   1.950   7.298   3.319  0.1159 -0.1080 -0.5792
  703MOL0     C94774   1.823   7.348   3.343  0.3213  0.5389  0.5607
  703MOL0     C94775   1.718   7.297   3.259  0.5058 -0.3583  0.4881
  703MOL0     C94776   1.589   7.341   3.272  0.5193 -0.0270  0.6505
  703MOL0     C94777   1.561   7.437   3.363 -0.4392 -0.3440 -0.3828
  703MOL0     O94778   1.442   7.504   3.375  0.6170 -0.0667  0.1215
  703MOL0     C94779   1.323   7.480   3.283  0.0799  0.3449 -0.4768
  703MOL0     C94780   1.198   7.533   3.350  0.5834  0.1253 -0.2051
  703MOL0     C94781   1.140   7.469   3.482 -0.2701  0.0399 -0.0106
  703MOL0     C94782   1.018   7.540   3.535  0.1206 -0.0770 -0.2085
  703MOL0     C94783   0.956   7.479   3.662  0.2708  0.2591  0.1633
  703MOL0     C94784   0.852   7.373   3.619 -0.8176 -0.7807  1.0178
  703MOL0     C94785   0.788   7.307   3.737  0.6082  0.3707 -0.0801
  703MOL0     C94786   0.686   7.205   3.693  0.2720  0.9466 -0.1839
  703MOL0     N94787   0.575   7.256   3.618 -0.5551 -0.1980 -0.6652
  703MOL0     C94788   0.568   7.251   3.489  0.0948  0.0412 -0.6277
  703MOL0     C94789   0.446   7.294   3.465 -0.3815 -0.9780 -0.0764
  703MOL0     C94790   0.400   7.318   3.320 -0.1699  0.2208 -0.6946
  703MOL0     C94791   0.252   7.291   3.323  0.1470 -0.0969 -0.0351
  703MOL0     C94792   0.192   7.320   3.181  0.7558 -0.2919  0.2124
  703MOL0     C94793   0.041   7.312   3.198 -0.2885 -0.2441  0.1167
  703MOL0     O94794  -0.010   7.367   3.076  0.3682 -0.5860  0.0233
  703MOL0     C94795  -0.145   7.341   3.047 -1.1144 -0.0506 -0.0517
  703MOL0     C94796  -0.189   7.372   2.918 -0.8737 -0.2190 -0.6679
  703MOL0     C94797  -0.315   7.332   2.870  0.4470  0.7601  0.0489
  703MOL0     C94798  -0.342   7.341   2.725  0.4134 -0.1806 -0.3550
  703MOL0     C94799  -0.402   7.255   2.957  0.0126 -0.6331 -0.7959
  703MOL0     C94800  -0.527   7.201   2.912  0.4658  1.0654 -0.4148
  703MOL0     O94801  -0.625   7.203   3.003  0.3552 -0.3007 -0.5289
  703MOL0     C94802  -0.748   7.166   2.960  0.9787  0.1322  0.2526
  703MOL0     C94803  -0.830   7.242   2.877  0.6078 -0.9068  0.2248
  703MOL0     C94804  -0.960   7.196   2.851  0.7280  0.5708 -0.1227
  703MOL0     C94805  -1.022   7.093   2.926  0.6159 -0.0862  0.7502
  703MOL0     O94806  -1.155   7.060   2.901  0.0075  0.7378  0.5590
  703MOL0     C94807  -1.235   7.003   3.008 -0.5082 -0.5594 -0.9958
  703MOL0     C94808  -1.277   7.098   3.118 -0.1572 -0.2612 -0.0082
  703MOL0     C94809  -1.377   7.213   3.074 -0.3847  0.3494 -0.1217
  703MOL0     C94810  -1.531   7.175   3.063  1.3010 -0.3517 -0.5820
  703MOL0     C94811  -1.625   7.295   3.066  0.5037 -1.2378  0.3984
  703MOL0     C94812  -1.642   7.355   3.209 -0.5729  0.3536 -0.4153
  703MOL0     C94813  -1.687   7.504   3.220  0.6439  0.5108  1.0173
  703MOL0     C94814  -1.843   7.516   3.229  0.2603  0.9484  0.7214
  703MOL0    Cl94815  -1.930   7.484   3.072 -0.1634 -0.3879  0.2788
  703MOL0     C94816  -0.937   7.021   3.015  0.0222 -0.6748  0.1274
  703MOL0     C94817  -0.799   7.059   3.030  0.4325  0.1297  0.5578
  703MOL0     O94818  -0.546   7.182   2.795  0.6685 -0.0492  0.3988
  703MOL0     C94819  -0.361   7.228   3.093  0.2703  0.4423 -0.4972
  703MOL0     C94820  -0.236   7.281   3.137  0.2373 -0.4487  0.7274
  703MOL0     N94821   0.376   7.324   3.580  0.0239 -0.2452 -0.9729
  703MOL0     N94822   0.458   7.301   3.682  0.6383 -0.2653  0.4075
  703MOL0     C94823   1.657   7.479   3.458 -0.9813 -0.5065  0.1397
  703MOL0     C94824   1.793   7.436   3.445  0.2392  0.6951 -0.5835
  703MOL0     C94825   2.164   7.208   3.409  0.1396 -0.1015  0.0434
  703MOL0     C94826   2.241   7.254   3.302 -0.8268  0.1938 -0.1945
  703MOL0     C94827   2.380   7.220   3.304  0.8196 -0.3672 -0.0895
  703MOL0     C94828   2.436   7.132   3.397  0.1503  0.8352  0.3494
  703MOL0     O94829   2.570   7.119   3.390 -0.5498 -0.4632 -0.0129
  703MOL0     C94830   2.620   6.989   3.401 -0.3867 -0.0505 -0.4019
  703MOL0     C94831   2.666   6.962   3.550  0.1256  1.1203 -0.3147
  703MOL0     C94832   2.736   7.080   3.620 -0.8157  0.4597  0.4905
  703MOL0     C94833   2.875   7.122   3.546  1.3948  0.6728  0.3030
  703MOL0     C94834   2.948   6.999   3.503 -0.1044 -0.0701  0.2391
  703MOL0     C94835   3.007   6.904   3.460  0.7240 -0.0076 -0.2098
  703MOL0     C94836   2.347   7.073   3.485 -0.6961 -0.0695  0.1871
  703MOL0     C94837   2.213   7.120   3.498 -0.9038 -0.3469 -0.5981
  703MOL0     H94838   1.734   7.219   3.185 -0.9404  0.1990 -0.4665
  703MOL0     H94839   1.521   7.316   3.191  2.6789  1.4383 -1.7855
  703MOL0     H94840   1.332   7.532   3.187  0.3003 -0.4857 -0.9113
  703MOL0     H94841   1.320   7.373   3.262  1.1968 -0.0862  1.4015
  703MOL0     H94842   1.214   7.639   3.374 -0.6426  0.4273 -0.6159
  703MOL0     H94843   1.124   7.535   3.270  1.2756  0.9364 -0.8439
  703MOL0     H94844   1.118   7.362   3.478  0.0081 -0.0227  0.1499
  703MOL0     H94845   1.214   7.474   3.562 -0.2166  0.0697 -0.0613
  703MOL0     H94846   1.043   7.642   3.566  1.8463 -1.6107  4.2822
  703MOL0     H94847   0.943   7.553   3.456 -1.0041 -1.1565  0.6330
  703MOL0     H94848   1.037   7.433   3.719 -0.3096 -2.4219 -1.0169
  703MOL0     H94849   0.904   7.562   3.711 -2.4247 -1.5627  0.5507
  703MOL0     H94850   0.769   7.424   3.570  0.5085 -1.3265 -1.9845
  703MOL0     H94851   0.902   7.310   3.545  0.5545  0.0235  1.2282
  703MOL0     H94852   0.860   7.245   3.791 -0.5449 -1.8386 -0.9577
  703MOL0     H94853   0.736   7.378   3.802 -1.9386 -0.2559 -1.3314
  703MOL0     H94854   0.640   7.156   3.779 -0.9832  0.2149 -1.2244
  703MOL0     H94855   0.736   7.124   3.640 -0.5871 -1.3388  2.2889
  703MOL0     H94856   0.649   7.221   3.424 -1.0332 -0.9255 -1.6195
  703MOL0     H94857   0.429   7.416   3.281  0.5735  0.4212  0.3149
  703MOL0     H94858   0.456   7.254   3.251 -1.5148  0.2385 -1.8564
  703MOL0     H94859   0.210   7.360   3.397  3.6883  2.5089 -0.1860
  703MOL0     H94860   0.230   7.186   3.343  2.2823 -0.9516 -1.7692
  703MOL0     H94861   0.233   7.259   3.100  0.2898  2.7021 -2.4610
  703MOL0     H94862   0.213   7.422   3.150  0.3758 -0.1854  0.2988
  703MOL0     H94863   0.004   7.364   3.286 -1.2224 -0.7207  0.0191
  703MOL0     H94864   0.010   7.207   3.209 -2.6112  0.2521 -1.1279
  703MOL0     H94865  -0.124   7.429   2.852 -0.5743 -0.4035 -0.5406
  703MOL0     H94866  -0.263   7.400   2.676  1.1501 -0.6340  0.2550
  703MOL0     H94867  -0.355   7.242   2.680  1.3336 -0.7825  0.6421
  703MOL0     H94868  -0.439   7.389   2.715  0.7023  0.0707 -2.6047
  703MOL0     H94869  -0.789   7.323   2.817  0.8005  0.5032  2.1813
  703MOL0     H94870  -1.019   7.249   2.777 -0.4752 -1.0208 -0.3575
  703MOL0     H94871  -1.330   6.979   2.959 -2.7224  3.4438  0.8253
  703MOL0     H94872  -1.184   6.914   3.044 -0.7016 -1.4759 -2.8417
  703MOL0     H94873  -1.313   7.035   3.200 -0.4606 -0.4333 -0.2717
  703MOL0     H94874  -1.192   7.159   3.150  0.3285 -0.6960 -0.4483
  703MOL0     H94875  -1.341   7.260   2.983  1.8441  0.2104  0.6379
  703MOL0     H94876  -1.371   7.296   3.145 -1.6956 -0.1443  0.6230
  703MOL0     H94877  -1.561   7.117   2.976 -1.2093 -2.2003  1.3537
  703MOL0     H94878  -1.565   7.126   3.155  0.6568  1.1831  0.0349
  703MOL0     H94879  -1.723   7.260   3.030 -0.2934 -0.8456  2.1127
  703MOL0     H94880  -1.595   7.383   3.008 -2.5006  2.8152  4.3224
  703MOL0     H94881  -1.692   7.288   3.280  0.4056 -0.2807 -0.3084
  703MOL0     H94882  -1.537   7.363   3.237 -0.0817 -2.5198 -1.0859
  703MOL0     H94883  -1.631   7.563   3.147  0.6482 -0.8912 -0.1733
  703MOL0     H94884  -1.652   7.534   3.320  2.6939 -1.3105  0.9215
  703MOL0     H94885  -1.862   7.614   3.273  2.4073  2.0396 -0.6318
  703MOL0     H94886  -1.874   7.438   3.301  0.1843 -1.8670 -2.1441
  703MOL0     H94887  -0.967   6.941   3.082  5.5937 -2.0250  1.4967
  703MOL0     H94888  -0.731   7.003   3.093  1.6620  0.1457 -0.7244
  703MOL0     H94889  -0.425   7.160   3.148 -0.6587  0.4424 -1.5255
  703MOL0     H94890  -0.208   7.267   3.241  1.6655 -0.4536  0.3519
  703MOL0     H94891   1.640   7.545   3.542 -0.1220 -0.6154  0.3985
  703MOL0     H94892   1.870   7.470   3.514 -0.6494  6.2057 -1.9167
  703MOL0     H94893   2.202   7.315   3.221 -3.7008  0.6337  1.3776
  703MOL0     H94894   2.443   7.257   3.223  0.1117 -1.3092 -1.1037
  703MOL0     H94895   2.558   6.912   3.356  1.2299 -1.2900 -0.6084
  703MOL0     H94896   2.709   6.996   3.339  0.6303  2.5454  1.1879
  703MOL0     H94897   2.741   6.883   3.552 -0.4922  0.5229  0.1735
  703MOL0     H94898   2.585   6.919   3.611  0.1763  0.7013 -0.5366
  703MOL0     H94899   2.767   7.032   3.713  0.6229  0.2337 -0.0928
  703MOL0     H94900   2.677   7.172   3.633  0.6988  1.3455  1.2812
  703MOL0     H94901   2.931   7.181   3.620 -1.6373 -0.1051  3.4847
  703MOL0     H94902   2.850   7.186   3.461 -0.0063 -0.6761 -0.3451
  703MOL0     H94903   3.070   6.826   3.422 -0.2868  0.1864 -2.5070
  703MOL0     H94904   2.382   6.998   3.555  0.9304 -1.3725 -1.9287
  703MOL0     H94905   2.152   7.098   3.585 -0.6236 -1.0343 -0.5733
  704MOL0     O94906  10.443  11.172   6.180 -0.4028  0.5476 -0.0593
  704MOL0     C94907  10.444  11.255   6.268  0.9374  0.6156 -0.6777
  704MOL0     O94908  10.340  11.281   6.352  0.5071  0.0365  0.7836
  704MOL0     C94909  10.222  11.211   6.353 -0.5885 -0.0205 -0.5910
  704MOL0     C94910  10.111  11.295   6.364 -0.0008  0.4545  0.0319
  704MOL0     C94911   9.987  11.237   6.379 -0.1075  0.1248 -0.5487
  704MOL0     C94912   9.970  11.104   6.368  0.4603 -0.3125 -0.1428
  704MOL0     O94913   9.850  11.031   6.371  0.1566  0.2862  0.2720
  704MOL0     C94914   9.733  11.098   6.333 -0.4572 -0.7952 -0.5855
  704MOL0     C94915   9.619  10.996   6.302 -0.2343  0.2975  0.0043
  704MOL0     C94916   9.487  11.057   6.259 -0.6385  0.0472  0.4443
  704MOL0     C94917   9.418  11.126   6.373  1.0023  0.6513  0.3977
  704MOL0     C94918   9.271  11.164   6.343  0.9682 -0.0776  0.3102
  704MOL0     C94919   9.209  11.237   6.461  0.3241  0.0273  0.0819
  704MOL0     C94920   9.054  11.244   6.459 -0.0604 -0.4484  0.1206
  704MOL0     C94921   9.012  11.386   6.419 -1.0253  0.2207 -0.2023
  704MOL0     N94922   8.869  11.391   6.414 -1.1152 -0.7091  0.3237
  704MOL0     C94923   8.788  11.396   6.522  0.2216 -0.1678 -0.1555
  704MOL0     C94924   8.663  11.402   6.474  0.1858  0.0283 -0.7649
  704MOL0     C94925   8.530  11.422   6.554  0.3606  0.0945  1.6854
  704MOL0     C94926   8.483  11.289   6.613  0.2039  0.1608 -0.2217
  704MOL0     C94927   8.422  11.195   6.503 -0.0438 -0.4649  0.7981
  704MOL0     C94928   8.275  11.199   6.511 -0.2921 -0.9814  0.1078
  704MOL0     O94929   8.232  11.109   6.403 -0.7446 -0.4484 -0.1910
  704MOL0     C94930   8.098  11.076   6.412  0.5954 -0.0166  0.4909
  704MOL0     C94931   8.047  10.991   6.306  0.4860  0.7448  0.3314
  704MOL0     C94932   7.922  10.927   6.305 -0.5495 -0.1394  0.1801
  704MOL0     C94933   7.904  10.834   6.192 -0.0980 -0.2518 -0.3809
  704MOL0     C94934   7.828  10.966   6.406 -0.3723 -0.4094  0.8354
  704MOL0     C94935   7.693  10.905   6.412  0.5690  0.3616  0.6027
  704MOL0     O94936   7.603  10.973   6.476 -0.0245 -0.6085 -0.1335
  704MOL0     C94937   7.474  10.929   6.498 -0.2292  0.7437 -0.7493
  704MOL0     C94938   7.374  10.956   6.405  1.3808  0.0036 -0.1460
  704MOL0     C94939   7.251  10.893   6.420 -0.5479  0.0172 -0.2197
  704MOL0     C94940   7.225  10.794   6.517 -0.0328 -0.1368  0.4307
  704MOL0     O94941   7.105  10.729   6.516  1.0420 -0.4680 -0.1633
  704MOL0     C94942   6.990  10.769   6.438 -0.8129 -0.4975  0.1723
  704MOL0     C94943   6.982  10.669   6.315 -0.3527  0.1309 -0.6149
  704MOL0     C94944   6.945  10.525   6.343 -1.1863  0.3755 -0.1600
  704MOL0     C94945   6.796  10.507   6.352  0.0813 -0.4495 -0.0881
  704MOL0     C94946   6.749  10.404   6.456 -0.1440 -0.5934 -1.1283
  704MOL0     C94947   6.602  10.417   6.506 -0.4697  0.2732 -0.1544
  704MOL0     C94948   6.485  10.391   6.400  0.1154 -0.8287 -0.5987
  704MOL0     C94949   6.347  10.431   6.439  0.3641 -0.5918  0.2220
  704MOL0    Cl94950   6.275  10.321   6.559 -0.3533  0.1939  0.5966
  704MOL0     C94951   7.322  10.775   6.613  0.5675  0.1471 -0.3729
  704MOL0     C94952   7.446  10.839   6.607  0.5325  0.0146 -0.0014
  704MOL0     O94953   7.680  10.783   6.381  0.9245  0.4655 -0.8524
  704MOL0     C94954   7.863  11.063   6.498  0.4723 -0.6742  0.1916
  704MOL0     C94955   7.994  11.112   6.505 -0.1227  0.5688 -0.2210
  704MOL0     N94956   8.664  11.412   6.346  0.2124 -0.3386 -1.1416
  704MOL0     N94957   8.788  11.399   6.304 -0.2805  0.4448  0.2680
  704MOL0     C94958  10.078  11.025   6.332 -0.2833  0.2435 -0.3536
  704MOL0     C94959  10.206  11.072   6.328  0.0021  0.1037  0.2506
  704MOL0     C94960  10.568  11.328   6.295 -0.9320  0.3886  0.7765
  704MOL0     C94961  10.676  11.321   6.209  0.3122 -0.3324  0.0596
  704MOL0     C94962  10.785  11.408   6.215  0.1679  0.3816  0.2932
  704MOL0     C94963  10.789  11.510   6.308  0.8237  0.3978  1.1299
  704MOL0     O94964  10.892  11.598   6.299  0.4559  0.2568  0.0574
  704MOL0     C94965  10.924  11.694   6.407  0.2871  0.5961  0.1304
  704MOL0     C94966  11.073  11.726   6.406  0.1875 -0.2214  0.2527
  704MOL0     C94967  11.161  11.596   6.380 -0.7394 -0.4318 -0.3316
  704MOL0     C94968  11.305  11.616   6.422  0.8999 -0.2038 -0.2509
  704MOL0     C94969  11.368  11.742   6.417  0.5725  0.0679  0.0097
  704MOL0     C94970  11.409  11.857   6.400  0.2359  1.4183 -0.4506
  704MOL0     C94971  10.689  11.511   6.403 -0.0971  0.2793 -0.9046
  704MOL0     C94972  10.576  11.429   6.395  0.5810 -0.0015 -0.3333
  704MOL0     H94973  10.123  11.403   6.364 -0.6601  0.5534  1.8090
  704MOL0     H94974   9.895  11.293   6.396 -1.4205 -2.4132  1.5496
  704MOL0     H94975   9.707  11.168   6.413  3.3776  0.2307 -0.0819
  704MOL0     H94976   9.743  11.158   6.242 -0.6541 -2.5827 -1.8597
  704MOL0     H94977   9.648  10.927   6.222 -2.0003  0.8697 -1.1877
  704MOL0     H94978   9.610  10.929   6.388  3.0905 -0.5904 -0.1987
  704MOL0     H94979   9.522  11.124   6.180  1.4696 -1.0702  0.3664
  704MOL0     H94980   9.419  10.981   6.218 -0.4358  0.3647 -0.5183
  704MOL0     H94981   9.417  11.051   6.454 -1.1704  0.3118  0.0958
  704MOL0     H94982   9.481  11.208   6.408  1.5614  1.5197 -2.4555
  704MOL0     H94983   9.262  11.236   6.262 -0.2141  2.7160  2.7274
  704MOL0     H94984   9.215  11.071   6.330  0.9727 -0.1201  0.5768
  704MOL0     H94985   9.235  11.188   6.555  1.8056  1.2765  0.3779
  704MOL0     H94986   9.247  11.340   6.460 -2.1503  0.9879 -0.8352
  704MOL0     H94987   9.013  11.175   6.384  0.3547  0.5490 -1.0696
  704MOL0     H94988   9.012  11.217   6.556 -3.1043  0.4966 -0.8165
  704MOL0     H94989   9.046  11.399   6.316  0.9769 -0.6427  0.3075
  704MOL0     H94990   9.041  11.453   6.501 -0.5565 -0.8283  0.5170
  704MOL0     H94991   8.812  11.384   6.627  0.3741 -0.8753 -0.2713
  704MOL0     H94992   8.552  11.485   6.641 -0.1338  2.1540  0.4019
  704MOL0     H94993   8.455  11.476   6.496  1.9563  1.2982  0.6537
  704MOL0     H94994   8.409  11.301   6.692 -0.7713 -0.6798 -0.9781
  704MOL0     H94995   8.572  11.237   6.651  1.3424 -0.8091 -3.7834
  704MOL0     H94996   8.442  11.088   6.513 -2.2890 -1.2440 -1.6959
  704MOL0     H94997   8.446  11.225   6.400 -1.7017 -0.1751  0.4664
  704MOL0     H94998   8.247  11.303   6.489  2.0459 -0.4028 -0.5418
  704MOL0     H94999   8.247  11.166   6.611 -1.8435 -0.3449 -0.0884
  704MOL0     H95000   8.119  10.954   6.234  1.3511  0.5971  1.2568
  704MOL0     H95001   7.904  10.733   6.232  0.7668  0.8383  2.6507
  704MOL0     H95002   7.807  10.853   6.144 -0.1162  0.2014 -0.1747
  704MOL0     H95003   7.978  10.832   6.112 -0.3993 -4.5911 -0.7778
  704MOL0     H95004   7.382  11.022   6.319 -1.2939 -0.2978 -0.7069
  704MOL0     H95005   7.172  10.903   6.346 -0.6145 -1.6553 -0.4113
  704MOL0     H95006   6.904  10.744   6.501 -1.5212  0.1310 -0.5289
  704MOL0     H95007   6.986  10.877   6.421  0.7585 -0.1121  1.9730
  704MOL0     H95008   6.916  10.712   6.239 -1.3891  3.3593  1.8915
  704MOL0     H95009   7.082  10.673   6.271 -0.3005 -0.9752 -0.6102
  704MOL0     H95010   6.996  10.507   6.438  0.3696  0.1558 -1.0084
  704MOL0     H95011   6.981  10.457   6.265  1.5100  1.4717  0.0243
  704MOL0     H95012   6.762  10.603   6.392  2.5496  0.7709 -0.7321
  704MOL0     H95013   6.761  10.484   6.251  1.3200  0.5106 -0.7764
  704MOL0     H95014   6.814  10.403   6.544 -1.1100  2.4310 -0.2789
  704MOL0     H95015   6.766  10.304   6.415  1.5404 -2.0488  2.6251
  704MOL0     H95016   6.600  10.356   6.597  1.9454 -1.0747 -0.9034
  704MOL0     H95017   6.590  10.519   6.543  1.1839 -0.8647  4.0279
  704MOL0     H95018   6.482  10.288   6.364 -0.9275 -0.6204 -1.1658
  704MOL0     H95019   6.513  10.457   6.317  2.8500  0.4042  1.1779
  704MOL0     H95020   6.282  10.430   6.351 -0.6043  0.5433  0.8862
  704MOL0     H95021   6.342  10.531   6.483 -1.8033 -0.0734 -1.0625
  704MOL0     H95022   7.298  10.700   6.687  1.0915 -1.2448 -1.5513
  704MOL0     H95023   7.517  10.817   6.686 -3.7089  2.5289  5.0885
  704MOL0     H95024   7.795  11.091   6.577  0.9478  1.9599 -0.2485
  704MOL0     H95025   8.014  11.184   6.584  1.4917  0.2365 -0.3059
  704MOL0     H95026  10.072  10.920   6.303  0.1531  1.1736 -4.2735
  704MOL0     H95027  10.292  11.008   6.312  1.9383  2.7095 -0.4340
  704MOL0     H95028  10.682  11.268   6.115  1.1071  0.6150 -0.4471
  704MOL0     H95029  10.855  11.398   6.133 -0.6793 -2.1012 -0.2276
  704MOL0     H95030  10.861  11.783   6.397 -3.4998 -1.9145 -0.6188
  704MOL0     H95031  10.904  11.651   6.505  1.0197  2.3357  1.0789
  704MOL0     H95032  11.092  11.778   6.501  1.8165  0.7502 -0.5696
  704MOL0     H95033  11.099  11.799   6.329  2.0329 -2.6805 -1.5870
  704MOL0     H95034  11.159  11.559   6.277 -1.0008 -1.3281 -0.0130
  704MOL0     H95035  11.121  11.510   6.435 -2.4084  1.3361  1.3997
  704MOL0     H95036  11.371  11.547   6.369  1.7934 -0.6849  1.4362
  704MOL0     H95037  11.309  11.574   6.523  0.6323 -2.2640 -1.0366
  704MOL0     H95038  11.464  11.947   6.377  1.6957  0.6136 -0.1974
  704MOL0     H95039  10.688  11.592   6.476 -2.3114 -1.6014  1.3468
  704MOL0     H95040  10.496  11.451   6.465 -2.3442 -0.5883 -3.1903
  705MOL0     O95041   1.118   9.913   2.592 -0.6157 -0.2633 -0.5690
  705MOL0     C95042   1.118   9.805   2.535  0.2305 -0.4474 -1.0091
  705MOL0     O95043   1.024   9.761   2.460  0.5127  0.3123  0.4083
  705MOL0     C95044   0.919   9.842   2.411  0.0144  0.5927  0.6327
  705MOL0     C95045   0.910   9.985   2.422  0.2027 -0.6889  0.1856
  705MOL0     C95046   0.797  10.054   2.373 -0.0254  1.0868  0.8379
  705MOL0     C95047   0.689   9.980   2.328 -0.9874  0.0542  0.3287
  705MOL0     O95048   0.589  10.047   2.269 -0.2765 -0.2235  0.0020
  705MOL0     C95049   0.450  10.004   2.269 -0.2113 -0.2362  0.0316
  705MOL0     C95050   0.389  10.057   2.139 -0.1132 -0.0138  0.3238
  705MOL0     C95051   0.244  10.008   2.118 -0.7632  0.0875  0.2502
  705MOL0     C95052   0.180  10.069   1.995 -0.0090  0.3811  0.1274
  705MOL0     C95053   0.032  10.040   1.999 -0.4934 -0.6667 -0.5874
  705MOL0     C95054  -0.040  10.066   1.863  0.0064  0.6830  0.1441
  705MOL0     C95055  -0.186  10.031   1.881 -0.1739 -0.4444  0.7145
  705MOL0     C95056  -0.274  10.051   1.754 -0.1369  0.8346 -0.1356
  705MOL0     N95057  -0.377  10.148   1.777 -0.1647  0.3940  0.4921
  705MOL0     C95058  -0.385  10.269   1.711  0.0974 -1.0953 -0.4125
  705MOL0     C95059  -0.505  10.310   1.758  0.1576 -0.3929 -0.1502
  705MOL0     C95060  -0.571  10.439   1.729 -0.8252 -0.2177  0.7527
  705MOL0     C95061  -0.634  10.421   1.592  0.5438  0.5690  0.7946
  705MOL0     C95062  -0.667  10.558   1.537  0.8574 -0.1420 -0.8831
  705MOL0     C95063  -0.755  10.564   1.412  0.0059 -0.0701  0.4325
  705MOL0     O95064  -0.877  10.489   1.427 -0.3560 -0.3811 -0.3621
  705MOL0     C95065  -0.997  10.537   1.472  0.1172  1.2484  0.9231
  705MOL0     C95066  -1.005  10.663   1.539 -0.4575  0.2732  0.3971
  705MOL0     C95067  -1.120  10.708   1.598 -0.3125 -0.3694  0.0430
  705MOL0     C95068  -1.135  10.855   1.638 -0.7577  0.3154  0.6143
  705MOL0     C95069  -1.236  10.624   1.584 -0.2242  0.6910 -0.4880
  705MOL0     C95070  -1.374  10.666   1.631  0.6104 -0.5179  0.6057
  705MOL0     O95071  -1.474  10.572   1.612 -0.1907 -0.8193  0.0769
  705MOL0     C95072  -1.600  10.589   1.666  0.0858 -0.0504  0.6063
  705MOL0     C95073  -1.663  10.709   1.670 -0.0807 -0.0250  0.0724
  705MOL0     C95074  -1.795  10.723   1.720 -0.4335 -0.6914  0.1570
  705MOL0     C95075  -1.862  10.608   1.757  0.2536 -0.3121  0.3993
  705MOL0     O95076  -1.994  10.631   1.790 -0.3896  0.2500 -0.6060
  705MOL0     C95077  -2.074  10.527   1.839  0.9161 -0.1136  0.1771
  705MOL0     C95078  -2.221  10.575   1.838  0.1076  0.1730  0.5065
  705MOL0     C95079  -2.316  10.491   1.747 -0.0820 -0.3470 -0.3632
  705MOL0     C95080  -2.354  10.355   1.792 -0.4429 -0.7638 -0.4574
  705MOL0     C95081  -2.484  10.313   1.727 -0.0167 -0.0003  0.8888
  705MOL0     C95082  -2.624  10.366   1.790 -0.7861 -0.1953  0.4248
  705MOL0     C95083  -2.751  10.325   1.721 -0.1909  1.8574  0.3503
  705MOL0     C95084  -2.875  10.352   1.801 -0.1479 -0.6115  0.2039
  705MOL0    Cl95085  -2.890  10.240   1.929 -0.4083  0.0294 -0.2663
  705MOL0     C95086  -1.805  10.481   1.738 -0.4377 -0.1546  0.4229
  705MOL0     C95087  -1.673  10.471   1.692  0.0035  0.3493  0.0165
  705MOL0     O95088  -1.382  10.772   1.694  0.3755 -0.3030 -0.5833
  705MOL0     C95089  -1.222  10.499   1.519 -0.7825 -0.3398  0.6861
  705MOL0     C95090  -1.109  10.457   1.452  0.3053  0.5250  0.3773
  705MOL0     N95091  -0.560  10.230   1.856 -0.0584  0.5190 -0.8436
  705MOL0     N95092  -0.496  10.122   1.840  0.6621  0.7587 -0.0878
  705MOL0     C95093   0.696   9.841   2.333 -0.3670  0.4786  0.3426
  705MOL0     C95094   0.811   9.773   2.368  0.4649 -0.6449 -0.1340
  705MOL0     C95095   1.219   9.699   2.587  0.6169 -0.4725  0.2447
  705MOL0     C95096   1.332   9.738   2.659  0.5370 -0.1286  0.2502
  705MOL0     C95097   1.420   9.642   2.709 -0.0409 -0.5832  0.2667
  705MOL0     C95098   1.389   9.506   2.690 -0.2974  0.3697  0.4252
  705MOL0     O95099   1.490   9.413   2.719 -0.0605  0.1462  0.2979
  705MOL0     C95100   1.464   9.320   2.821  0.5778 -1.0712  0.1456
  705MOL0     C95101   1.593   9.266   2.872  0.3145 -0.2314 -0.9807
  705MOL0     C95102   1.672   9.387   2.922  0.2909  0.3904 -0.2528
  705MOL0     C95103   1.816   9.357   2.980  0.2732  0.8378  0.4378
  705MOL0     C95104   1.816   9.269   3.103 -0.1521 -0.7050 -0.9290
  705MOL0     C95105   1.811   9.201   3.203  0.4868 -1.0933  0.2139
  705MOL0     C95106   1.268   9.463   2.624 -0.0745  0.1169  1.2353
  705MOL0     C95107   1.193   9.564   2.561  0.1346 -0.2154  0.5846
  705MOL0     H95108   0.997  10.037   2.460  0.1093 -0.0423 -0.4563
  705MOL0     H95109   0.796  10.162   2.377 -0.4084  1.1073  0.2969
  705MOL0     H95110   0.450   9.895   2.261  0.7684 -0.1854 -0.9901
  705MOL0     H95111   0.395  10.031   2.360  1.0657  0.9227  0.4917
  705MOL0     H95112   0.388  10.166   2.144 -0.0189  0.0131 -0.1625
  705MOL0     H95113   0.449  10.023   2.054  0.2520 -0.7942  0.8789
  705MOL0     H95114   0.255   9.900   2.101 -2.1961  0.2050 -1.7950
  705MOL0     H95115   0.183  10.033   2.205 -0.3270  1.9777  0.0532
  705MOL0     H95116   0.188  10.178   1.990  0.3168  0.2974 -2.0833
  705MOL0     H95117   0.236  10.033   1.908  0.4215  1.7097 -0.1707
  705MOL0     H95118   0.029   9.932   2.017 -0.4735 -0.9943 -2.3098
  705MOL0     H95119  -0.008  10.085   2.090 -0.0200 -0.5933 -0.4114
  705MOL0     H95120  -0.040  10.171   1.832 -3.8696  0.7408 -0.1742
  705MOL0     H95121  -0.004  10.000   1.784  1.5843  0.8564  0.6885
  705MOL0     H95122  -0.189   9.929   1.921  3.0542 -0.3724  1.4084
  705MOL0     H95123  -0.213  10.092   1.968 -2.5408 -1.7821  1.0032
  705MOL0     H95124  -0.312   9.955   1.717  0.5442 -0.6265  2.7167
  705MOL0     H95125  -0.205  10.081   1.675 -0.4146 -0.1565 -0.7803
  705MOL0     H95126  -0.315  10.320   1.644 -0.8393  2.1596  0.9027
  705MOL0     H95127  -0.643  10.467   1.807 -0.1322  2.8265  0.4266
  705MOL0     H95128  -0.488  10.510   1.731 -0.9596 -0.0229  3.1439
  705MOL0     H95129  -0.724  10.363   1.614 -0.4628  2.8381  3.2157
  705MOL0     H95130  -0.578  10.358   1.522  1.1271 -0.1632  1.8870
  705MOL0     H95131  -0.570  10.603   1.513  0.0876  1.7026 -0.7064
  705MOL0     H95132  -0.709  10.614   1.622  1.9033 -0.7364  0.0631
  705MOL0     H95133  -0.710  10.501   1.335  0.9202  0.5569  0.4362
  705MOL0     H95134  -0.761  10.669   1.384  3.7692  0.4962  1.1919
  705MOL0     H95135  -0.918  10.724   1.560 -0.4006 -0.3539  2.1231
  705MOL0     H95136  -1.213  10.903   1.577 -1.3780 -0.6940  0.5916
  705MOL0     H95137  -1.169  10.865   1.742 -3.7532  0.2631 -0.2542
  705MOL0     H95138  -1.041  10.909   1.625 -0.0945 -0.7700  0.7834
  705MOL0     H95139  -1.616  10.802   1.640  1.6930 -0.8977 -0.0052
  705MOL0     H95140  -1.849  10.816   1.728  1.9105  1.0085 -2.2452
  705MOL0     H95141  -2.068  10.440   1.772 -0.9826  2.3432 -3.5597
  705MOL0     H95142  -2.050  10.513   1.945 -1.4033  0.0700  0.7686
  705MOL0     H95143  -2.265  10.568   1.938 -1.3814 -0.2449 -0.1613
  705MOL0     H95144  -2.216  10.675   1.793  0.5420 -1.0413 -2.3827
  705MOL0     H95145  -2.264  10.478   1.652  1.0468  2.3281 -0.1898
  705MOL0     H95146  -2.403  10.550   1.716 -1.5332 -1.7554  0.8461
  705MOL0     H95147  -2.276  10.284   1.764  0.6445  0.5464 -0.9125
  705MOL0     H95148  -2.354  10.354   1.902  0.3753 -0.5357 -0.4447
  705MOL0     H95149  -2.485  10.204   1.715  0.3338  0.0640  0.2250
  705MOL0     H95150  -2.488  10.357   1.627  0.2124  1.2635  1.4141
  705MOL0     H95151  -2.635  10.325   1.891  0.9274  1.5516  1.3915
  705MOL0     H95152  -2.615  10.474   1.802  1.4531 -0.2742 -0.0795
  705MOL0     H95153  -2.747  10.221   1.686  2.3228 -0.1206  5.4723
  705MOL0     H95154  -2.759  10.384   1.629 -1.2873  0.1168 -0.7185
  705MOL0     H95155  -2.963  10.347   1.736 -1.6877  1.5616  1.9718
  705MOL0     H95156  -2.882  10.454   1.841 -1.2947 -0.6534  0.1636
  705MOL0     H95157  -1.847  10.383   1.761  1.6423 -0.8241  1.6704
  705MOL0     H95158  -1.621  10.376   1.682 -0.1547  0.4869 -3.1614
  705MOL0     H95159  -1.312  10.438   1.524 -1.6556  0.9657  1.1938
  705MOL0     H95160  -1.107  10.361   1.401 -1.4442  0.2070  0.8413
  705MOL0     H95161   0.610   9.781   2.305 -0.1488  0.3008  0.0423
  705MOL0     H95162   0.812   9.665   2.359 -1.0538 -0.6428 -0.5932
  705MOL0     H95163   1.352   9.841   2.685 -1.9679  0.4417  0.1723
  705MOL0     H95164   1.516   9.663   2.756  0.2121 -1.5759  0.2157
  705MOL0     H95165   1.407   9.359   2.906  0.7712 -0.4805  0.0068
  705MOL0     H95166   1.408   9.232   2.788  2.0451 -2.2360  0.6509
  705MOL0     H95167   1.651   9.222   2.790  1.9271  2.8032 -1.6229
  705MOL0     H95168   1.570   9.202   2.958 -3.0286  0.8932 -0.9009
  705MOL0     H95169   1.608   9.431   3.000  1.0032 -0.4312  0.8272
  705MOL0     H95170   1.696   9.456   2.841  1.0043  0.4876  0.0392
  705MOL0     H95171   1.878   9.445   3.000 -2.0703  3.1005 -1.5710
  705MOL0     H95172   1.866   9.301   2.901  1.5196  1.9038  0.4312
  705MOL0     H95173   1.823   9.138   3.290  2.1165 -0.3979  0.5289
  705MOL0     H95174   1.250   9.359   2.601 -0.3390  0.4758 -0.3046
  705MOL0     H95175   1.104   9.541   2.502  0.7747  0.8590 -0.8446
  706MOL0     O95176   0.641   8.391   1.520  1.0092 -0.3996 -0.6782
  706MOL0     C95177   0.727   8.456   1.573 -0.6778 -0.6548 -0.0821
  706MOL0     O95178   0.712   8.565   1.658  0.5885 -0.0011  0.0859
  706MOL0     C95179   0.594   8.629   1.663  0.9032  0.3628  0.5939
  706MOL0     C95180   0.521   8.640   1.780 -0.0902  0.2057 -1.0150
  706MOL0     C95181   0.386   8.686   1.761 -0.8724  0.7429  0.2606
  706MOL0     C95182   0.339   8.729   1.631 -0.2152 -0.9125 -0.3093
  706MOL0     O95183   0.208   8.782   1.647  0.4595 -0.9982  0.0621
  706MOL0     C95184   0.140   8.831   1.523 -0.0210  0.3445 -0.5474
  706MOL0     C95185  -0.010   8.841   1.560  0.2733  0.9890 -0.4149
  706MOL0     C95186  -0.055   8.988   1.599  0.0613  0.3653  0.3815
  706MOL0     C95187  -0.203   9.008   1.634  0.3019 -0.1450 -0.5910
  706MOL0     C95188  -0.264   8.910   1.735  0.5418 -0.4099 -1.0036
  706MOL0     C95189  -0.191   8.911   1.869  0.3376 -0.7725 -0.0120
  706MOL0     C95190  -0.197   9.039   1.951  0.0711 -0.4249  0.3031
  706MOL0     C95191  -0.105   9.019   2.073  0.0866 -0.0144  1.0661
  706MOL0     N95192  -0.179   8.942   2.175  0.6368  0.2199 -0.2000
  706MOL0     C95193  -0.179   8.812   2.193  0.0465  0.6561  0.0236
  706MOL0     C95194  -0.265   8.790   2.298  0.4312 -0.2339 -0.3247
  706MOL0     C95195  -0.297   8.657   2.358 -0.2388 -0.1521 -0.2740
  706MOL0     C95196  -0.380   8.570   2.259 -0.3108 -0.1483  0.2337
  706MOL0     C95197  -0.437   8.445   2.333 -0.2610 -0.0784  0.0416
  706MOL0     C95198  -0.533   8.481   2.448 -0.6347 -0.7261  0.1431
  706MOL0     O95199  -0.609   8.590   2.391 -0.7391 -0.1701 -0.5893
  706MOL0     C95200  -0.686   8.675   2.464  1.3701  0.0345  0.5908
  706MOL0     C95201  -0.707   8.797   2.402  0.4351  0.3275 -1.1126
  706MOL0     C95202  -0.787   8.894   2.467  0.3359  0.2503 -0.1060
  706MOL0     C95203  -0.799   9.024   2.391  0.1442  0.5257 -0.1953
  706MOL0     C95204  -0.857   8.862   2.587  0.3774 -0.9387  0.2365
  706MOL0     C95205  -0.932   8.963   2.661  0.0703 -0.4200  0.9474
  706MOL0     O95206  -1.047   8.910   2.713  0.2162  0.3752  0.4053
  706MOL0     C95207  -1.138   8.989   2.780  0.2704  0.0369  0.9985
  706MOL0     C95208  -1.272   8.945   2.775 -0.0686  0.8257  0.0119
  706MOL0     C95209  -1.379   9.010   2.835 -0.3001 -0.0462 -0.5298
  706MOL0     C95210  -1.344   9.125   2.912  0.0785  0.1662 -0.6020
  706MOL0     O95211  -1.455   9.164   2.986 -1.0653  0.1191  0.0098
  706MOL0     C95212  -1.447   9.291   3.057  0.2040 -0.8113 -0.1068
  706MOL0     C95213  -1.588   9.330   3.100 -0.3913  0.1708  0.0864
  706MOL0     C95214  -1.589   9.452   3.197 -0.6871  0.6619 -0.4961
  706MOL0     C95215  -1.712   9.440   3.280 -0.5413 -0.4371  0.0897
  706MOL0     C95216  -1.716   9.577   3.361 -0.1217  0.0099  0.4760
  706MOL0     C95217  -1.811   9.574   3.482  0.3976 -0.2263 -0.1103
  706MOL0     C95218  -1.822   9.720   3.532 -0.3531 -0.4495 -0.3783
  706MOL0     C95219  -1.891   9.725   3.664  0.4188 -0.3041 -0.0932
  706MOL0    Cl95220  -1.910   9.899   3.716  0.6007 -0.7559 -0.0010
  706MOL0     C95221  -1.209   9.174   2.929  0.0446  0.6389 -0.2479
  706MOL0     C95222  -1.109   9.113   2.850 -0.2883  0.1442 -0.4624
  706MOL0     O95223  -0.898   9.082   2.649 -0.3962  0.0881  0.0550
  706MOL0     C95224  -0.856   8.732   2.634 -0.0615  0.1364  0.1889
  706MOL0     C95225  -0.763   8.635   2.575 -0.1760 -0.6681 -0.2154
  706MOL0     N95226  -0.298   8.910   2.354 -0.0983 -0.3070  0.0162
  706MOL0     N95227  -0.261   8.999   2.270  0.0600 -0.5097  0.5856
  706MOL0     C95228   0.426   8.729   1.521  0.5203 -0.5888  0.8333
  706MOL0     C95229   0.549   8.674   1.540  0.1450 -0.6512 -0.3552
  706MOL0     C95230   0.865   8.409   1.548  0.0215 -0.7145  0.8273
  706MOL0     C95231   0.889   8.281   1.485 -0.2020 -0.6415  0.7675
  706MOL0     C95232   1.026   8.247   1.451  0.0341  0.5828 -0.3713
  706MOL0     C95233   1.140   8.323   1.489 -0.0469 -0.8859  0.1089
  706MOL0     O95234   1.264   8.280   1.480  0.1967  0.5859 -0.0885
  706MOL0     C95235   1.294   8.148   1.442  0.5109  0.8089 -0.1649
  706MOL0     C95236   1.442   8.134   1.480  0.0082  0.1233  0.1755
  706MOL0     C95237   1.444   8.114   1.632 -0.3349 -0.6337  0.0803
  706MOL0     C95238   1.572   8.066   1.686  0.1008 -0.0934 -0.1145
  706MOL0     C95239   1.686   8.147   1.643 -0.1061 -0.0183  0.3592
  706MOL0     C95240   1.788   8.201   1.617  0.4695 -0.3639  0.4669
  706MOL0     C95241   1.108   8.449   1.551 -0.0503 -0.3415  0.4177
  706MOL0     C95242   0.977   8.489   1.575 -0.2092 -0.0407  0.1183
  706MOL0     H95243   0.562   8.619   1.878 -0.2747  1.2902 -0.6947
  706MOL0     H95244   0.324   8.704   1.849  0.7776  0.5890  1.4934
  706MOL0     H95245   0.170   8.931   1.489 -0.8882  0.9836  0.5173
  706MOL0     H95246   0.160   8.757   1.445  1.7101 -2.4642  2.3622
  706MOL0     H95247  -0.068   8.799   1.477  0.0021  1.9672 -0.7264
  706MOL0     H95248  -0.019   8.777   1.648  1.1191  2.0141  0.4435
  706MOL0     H95249   0.001   9.038   1.679  1.0870  0.7244 -0.5429
  706MOL0     H95250  -0.028   9.045   1.510  2.4554 -1.2457  0.0004
  706MOL0     H95251  -0.222   9.113   1.657  1.1645 -0.0149 -0.4557
  706MOL0     H95252  -0.267   8.994   1.546 -2.5147 -2.4038  1.5797
  706MOL0     H95253  -0.362   8.953   1.759  1.7995  3.0748 -1.4982
  706MOL0     H95254  -0.260   8.812   1.688  1.9692 -1.8586  1.8470
  706MOL0     H95255  -0.235   8.830   1.928 -0.6224 -2.6653 -3.1045
  706MOL0     H95256  -0.085   8.897   1.846 -0.6516 -3.0647 -4.1998
  706MOL0     H95257  -0.166   9.126   1.891  1.8339 -1.6429 -0.6334
  706MOL0     H95258  -0.298   9.059   1.989  0.2018  1.5716 -0.2729
  706MOL0     H95259  -0.072   9.117   2.108 -1.8090  1.1801 -0.2763
  706MOL0     H95260  -0.017   8.962   2.043 -0.2150 -0.2833  0.6867
  706MOL0     H95261  -0.110   8.747   2.141  1.7743  2.2303  0.2417
  706MOL0     H95262  -0.211   8.599   2.393  0.0720  1.3982  1.6793
  706MOL0     H95263  -0.360   8.686   2.442 -1.4646  0.3183 -1.3292
  706MOL0     H95264  -0.299   8.545   2.191 -0.5741  2.1858 -1.0643
  706MOL0     H95265  -0.458   8.624   2.203 -1.4561 -0.0777  1.8141
  706MOL0     H95266  -0.359   8.374   2.363 -0.7553 -1.7673 -2.3979
  706MOL0     H95267  -0.504   8.393   2.264 -0.0435 -1.2694  0.7061
  706MOL0     H95268  -0.483   8.501   2.543  0.2174  1.9259 -0.7906
  706MOL0     H95269  -0.603   8.400   2.472 -1.3551  0.7830  3.8921
  706MOL0     H95270  -0.648   8.825   2.315  0.1408  0.4980 -1.2568
  706MOL0     H95271  -0.779   9.010   2.284  0.7126  1.1828 -0.1821
  706MOL0     H95272  -0.890   9.084   2.395  0.0789  0.6770 -2.5481
  706MOL0     H95273  -0.726   9.093   2.434  1.8526 -2.2938  1.7479
  706MOL0     H95274  -1.280   8.856   2.713  1.3888 -1.6783  3.1493
  706MOL0     H95275  -1.480   8.971   2.825 -0.2217 -0.7873  1.1767
  706MOL0     H95276  -1.379   9.273   3.142  1.0026 -1.7872 -0.9206
  706MOL0     H95277  -1.403   9.370   2.997  0.0465 -0.0387  0.7731
  706MOL0     H95278  -1.646   9.345   3.009 -1.5702 -2.0076  0.4012
  706MOL0     H95279  -1.638   9.242   3.143 -1.4749  1.0242  0.6473
  706MOL0     H95280  -1.589   9.545   3.139 -0.4444  0.3377 -1.0237
  706MOL0     H95281  -1.502   9.462   3.262 -0.8673  1.9030 -0.4234
  706MOL0     H95282  -1.798   9.427   3.213  0.0677 -0.6859 -0.6637
  706MOL0     H95283  -1.711   9.349   3.341 -0.5881  0.4967  1.5209
  706MOL0     H95284  -1.750   9.656   3.293  1.2126 -0.0402 -0.2800
  706MOL0     H95285  -1.614   9.606   3.388 -0.2599  1.0965 -0.0811
  706MOL0     H95286  -1.906   9.537   3.442  0.7146 -0.3146 -0.8002
  706MOL0     H95287  -1.782   9.509   3.564  2.8466 -0.2603 -0.9215
  706MOL0     H95288  -1.879   9.771   3.455 -0.7172 -1.0305 -0.5022
  706MOL0     H95289  -1.719   9.756   3.533  1.5210 -4.9438 -2.1564
  706MOL0     H95290  -1.832   9.660   3.728  1.6781 -1.4097 -2.2900
  706MOL0     H95291  -1.993   9.688   3.653 -0.2455  1.9081 -2.4843
  706MOL0     H95292  -1.177   9.253   2.996 -2.7221 -0.0926  2.1735
  706MOL0     H95293  -1.006   9.143   2.865 -0.1126  1.4333 -3.4347
  706MOL0     H95294  -0.923   8.699   2.712 -2.2334 -1.6211 -2.2110
  706MOL0     H95295  -0.750   8.538   2.622  2.8796 -0.5193 -0.5752
  706MOL0     H95296   0.392   8.752   1.421 -2.7331  0.7841  2.0848
  706MOL0     H95297   0.609   8.650   1.452  1.6997 -1.5180  0.8897
  706MOL0     H95298   0.807   8.217   1.454 -1.4172  1.9616 -1.8822
  706MOL0     H95299   1.039   8.154   1.397  2.2974  1.3346 -1.2359
  706MOL0     H95300   1.234   8.087   1.509  1.1686  2.4188  2.0268
  706MOL0     H95301   1.267   8.128   1.338 -0.8299  1.3894  0.0454
  706MOL0     H95302   1.501   8.218   1.443  1.5609 -1.3427 -0.8832
  706MOL0     H95303   1.496   8.051   1.433  2.5200  2.3701 -1.1576
  706MOL0     H95304   1.369   8.046   1.675  0.4519  0.2832  3.0668
  706MOL0     H95305   1.421   8.214   1.670  1.0439 -0.6544  1.0046
  706MOL0     H95306   1.577   7.961   1.654  1.8947  0.0580 -0.4856
  706MOL0     H95307   1.571   8.049   1.794  0.5907  2.7179  0.4177
  706MOL0     H95308   1.883   8.229   1.576  0.3224  0.1297  0.4640
  706MOL0     H95309   1.192   8.516   1.564  0.1347 -0.3869 -0.4788
  706MOL0     H95310   0.969   8.585   1.624  0.8643 -0.0125  0.2607
  707MOL0     O95311   1.933   7.560   4.939  0.0403 -0.0595  0.8435
  707MOL0     C95312   1.904   7.653   5.010 -0.7034 -0.9912  0.4135
  707MOL0     O95313   1.776   7.691   5.050 -0.3022  0.6033 -0.4891
  707MOL0     C95314   1.663   7.653   4.983 -0.5167 -0.1766 -0.1232
  707MOL0     C95315   1.543   7.637   5.047 -0.0769  0.0058  0.7257
  707MOL0     C95316   1.429   7.593   4.975 -0.2207  0.7611 -0.4640
  707MOL0     C95317   1.429   7.576   4.836  0.3161 -0.2961  0.3059
  707MOL0     O95318   1.308   7.547   4.778 -0.3140  0.1438  0.2629
  707MOL0     C95319   1.300   7.555   4.632  0.3165 -0.0048  0.3875
  707MOL0     C95320   1.150   7.558   4.592 -0.1419  0.3413 -0.0293
  707MOL0     C95321   1.095   7.421   4.630  0.5702  0.0841 -0.1854
  707MOL0     C95322   0.953   7.403   4.574 -0.6526  0.3363  0.3087
  707MOL0     C95323   0.914   7.251   4.566  0.4172 -0.8109  0.0319
  707MOL0     C95324   0.765   7.235   4.551 -0.8781 -0.0546 -0.5140
  707MOL0     C95325   0.731   7.093   4.505  0.1189 -0.2052  0.3134
  707MOL0     C95326   0.615   7.016   4.577  0.0998  0.2208 -0.1091
  707MOL0     N95327   0.490   7.089   4.560  0.1406 -0.4739  0.1148
  707MOL0     C95328   0.430   7.182   4.643  0.5461 -0.1357  0.0606
  707MOL0     C95329   0.328   7.236   4.563 -0.3936  0.4956 -0.5929
  707MOL0     C95330   0.227   7.340   4.617 -0.6070  0.3820  0.6812
  707MOL0     C95331   0.237   7.481   4.551  0.1109 -0.1977  0.5766
  707MOL0     C95332   0.225   7.492   4.400  0.3297 -0.0512  0.1109
  707MOL0     C95333   0.089   7.450   4.343 -0.0788 -0.9047 -0.2403
  707MOL0     O95334  -0.005   7.526   4.413 -0.1745 -0.9182 -0.1592
  707MOL0     C95335  -0.136   7.500   4.391 -0.6527  0.1114  0.2115
  707MOL0     C95336  -0.182   7.379   4.322 -0.1291 -0.6086 -0.2432
  707MOL0     C95337  -0.322   7.355   4.306  0.4777  0.2850  0.5889
  707MOL0     C95338  -0.357   7.226   4.232 -0.2243  0.1872  0.0842
  707MOL0     C95339  -0.414   7.451   4.362  0.4514 -0.2561  0.0721
  707MOL0     C95340  -0.561   7.430   4.354  0.2053 -0.1201  0.1017
  707MOL0     O95341  -0.599   7.304   4.346 -0.3615  0.2653  0.4814
  707MOL0     C95342  -0.730   7.278   4.340  0.1981  0.6943  0.4479
  707MOL0     C95343  -0.805   7.225   4.444 -0.1750  0.3206 -0.0847
  707MOL0     C95344  -0.934   7.175   4.433 -0.0720  0.2934 -0.0002
  707MOL0     C95345  -1.003   7.188   4.307  0.8026  0.5927 -0.3128
  707MOL0     O95346  -1.134   7.146   4.278 -0.3699  0.3481  0.5692
  707MOL0     C95347  -1.211   7.056   4.360 -0.4376 -0.1386 -0.3917
  707MOL0     C95348  -1.220   6.919   4.300  0.1235 -0.1936 -0.2729
  707MOL0     C95349  -1.287   6.912   4.160  0.0851  0.2023 -0.1993
  707MOL0     C95350  -1.287   6.768   4.112  0.5460 -0.1846 -0.0839
  707MOL0     C95351  -1.164   6.733   4.033  1.1597 -0.4456 -0.1447
  707MOL0     C95352  -1.159   6.791   3.892 -0.0543  0.4308  0.4258
  707MOL0     C95353  -1.006   6.799   3.853 -0.0962  0.3647 -0.5319
  707MOL0     C95354  -0.940   6.664   3.838  0.1142  0.0986 -0.0302
  707MOL0    Cl95355  -0.801   6.687   3.720 -0.0492 -0.4540 -0.1559
  707MOL0     C95356  -0.937   7.262   4.206 -0.2562  1.3064  0.8465
  707MOL0     C95357  -0.803   7.306   4.219 -0.1609  0.3991 -0.5516
  707MOL0     O95358  -0.641   7.518   4.377  0.2318 -0.0211  0.0974
  707MOL0     C95359  -0.364   7.563   4.434  0.2849  1.5500  0.5310
  707MOL0     C95360  -0.222   7.580   4.448  0.8533  0.4977  0.2407
  707MOL0     N95361   0.329   7.165   4.440  0.1170 -0.1539  0.5380
  707MOL0     N95362   0.429   7.089   4.441 -0.5626 -0.4566 -0.4090
  707MOL0     C95363   1.543   7.602   4.770 -0.9559 -0.5887  0.0776
  707MOL0     C95364   1.660   7.638   4.839 -0.1771 -0.7780 -0.1564
  707MOL0     C95365   2.020   7.713   5.085 -0.3631 -0.7612  0.2892
  707MOL0     C95366   2.150   7.683   5.063  0.0813  1.1785 -0.4827
  707MOL0     C95367   2.255   7.722   5.146 -0.5354  0.7800 -0.5000
  707MOL0     C95368   2.224   7.798   5.259 -0.0353 -0.2280 -0.8381
  707MOL0     O95369   2.322   7.841   5.351  1.2176 -0.1063  0.1083
  707MOL0     C95370   2.431   7.745   5.387  0.4823  0.4865  0.5966
  707MOL0     C95371   2.512   7.820   5.478 -0.0649 -0.4513 -0.4259
  707MOL0     C95372   2.653   7.771   5.516  0.2360  0.4590  0.5547
  707MOL0     C95373   2.657   7.621   5.566 -0.9187  0.0389 -0.7052
  707MOL0     C95374   2.798   7.584   5.544 -0.0224  0.3926 -0.2772
  707MOL0     C95375   2.913   7.537   5.531  0.1261 -0.5856  0.2053
  707MOL0     C95376   2.094   7.831   5.287  0.0468  0.0637 -0.3999
  707MOL0     C95377   1.995   7.786   5.205  0.3574  1.3374  0.2801
  707MOL0     H95378   1.527   7.648   5.154 -1.7201 -2.6555  0.8433
  707MOL0     H95379   1.338   7.577   5.033 -0.0883  1.4322 -0.0652
  707MOL0     H95380   1.349   7.641   4.587 -0.2466 -0.5607 -1.3748
  707MOL0     H95381   1.356   7.468   4.595  0.6463  0.6032 -0.5807
  707MOL0     H95382   1.106   7.648   4.636 -1.8903 -0.5898  0.1943
  707MOL0     H95383   1.134   7.569   4.484  0.5181 -0.0471 -0.1708
  707MOL0     H95384   1.163   7.350   4.582 -0.1698  1.4519 -3.5338
  707MOL0     H95385   1.099   7.406   4.739  3.7493  0.8597 -0.1294
  707MOL0     H95386   0.887   7.445   4.650 -1.4495 -0.1079 -0.1252
  707MOL0     H95387   0.937   7.456   4.479  0.5996  1.3275  0.6247
  707MOL0     H95388   0.956   7.217   4.471  0.9603  1.3471 -0.5702
  707MOL0     H95389   0.962   7.194   4.646  1.4455 -3.2087 -2.1802
  707MOL0     H95390   0.717   7.256   4.647  1.3010  0.9459  0.4105
  707MOL0     H95391   0.726   7.303   4.475  0.6903  1.1754 -0.2621
  707MOL0     H95392   0.703   7.108   4.401 -0.4563 -0.0265  0.4899
  707MOL0     H95393   0.813   7.021   4.501  0.2125 -0.0407 -2.1042
  707MOL0     H95394   0.631   6.999   4.684  0.3763  1.8339  0.1246
  707MOL0     H95395   0.609   6.918   4.529  0.5134 -0.9009  1.9977
  707MOL0     H95396   0.436   7.197   4.751  0.1081  1.8427 -0.1567
  707MOL0     H95397   0.125   7.300   4.616 -0.6166  0.3194  1.9380
  707MOL0     H95398   0.254   7.349   4.723 -3.7536 -0.2544  1.6584
  707MOL0     H95399   0.337   7.521   4.568 -0.4952  1.3665  0.6033
  707MOL0     H95400   0.160   7.542   4.600  0.0843  1.6785 -1.6292
  707MOL0     H95401   0.299   7.421   4.360  0.9110  0.0368  1.0106
  707MOL0     H95402   0.252   7.591   4.362 -0.2888  1.1862  2.6772
  707MOL0     H95403   0.090   7.341   4.350  3.2757 -1.5762 -5.6570
  707MOL0     H95404   0.088   7.486   4.240  0.8004  2.8910  0.9223
  707MOL0     H95405  -0.114   7.297   4.304  0.0270 -0.6553  0.5089
  707MOL0     H95406  -0.276   7.183   4.171 -0.0779 -3.0730  2.2921
  707MOL0     H95407  -0.391   7.144   4.296 -1.1292 -0.1625 -0.8158
  707MOL0     H95408  -0.437   7.244   4.160  0.5283  2.8787 -0.1884
  707MOL0     H95409  -0.760   7.193   4.538 -3.2424 -2.4659  0.6480
  707MOL0     H95410  -0.978   7.135   4.524 -0.5541  0.4227 -0.1721
  707MOL0     H95411  -1.177   7.063   4.464  0.8474  0.1292 -0.8183
  707MOL0     H95412  -1.311   7.100   4.351 -0.5567 -0.7027 -2.0044
  707MOL0     H95413  -1.121   6.871   4.297 -0.0556 -0.8652  2.5103
  707MOL0     H95414  -1.278   6.856   4.368  1.2460  0.7302  1.6085
  707MOL0     H95415  -1.238   6.977   4.086  1.4264 -1.7071 -1.0544
  707MOL0     H95416  -1.393   6.941   4.153  0.1458  0.1144 -1.8036
  707MOL0     H95417  -1.308   6.701   4.195 -2.9037 -0.5797 -1.1235
  707MOL0     H95418  -1.372   6.758   4.044  0.8456  1.6548 -0.7994
  707MOL0     H95419  -1.151   6.624   4.040  1.0093 -0.3905  1.6320
  707MOL0     H95420  -1.086   6.790   4.084 -0.7958 -0.4818  3.1709
  707MOL0     H95421  -1.218   6.733   3.820  0.4003  0.7446 -0.2065
  707MOL0     H95422  -1.203   6.891   3.887 -0.1894  0.5969  3.2360
  707MOL0     H95423  -0.952   6.865   3.922  1.2440  0.3995 -1.5487
  707MOL0     H95424  -0.996   6.837   3.750  1.5411  0.8607 -0.2149
  707MOL0     H95425  -1.007   6.589   3.793  0.0560  0.1663 -0.0561
  707MOL0     H95426  -0.904   6.631   3.936 -4.3013 -0.6529  1.5803
  707MOL0     H95427  -0.981   7.284   4.109 -0.3400 -0.2676  0.5117
  707MOL0     H95428  -0.753   7.363   4.142 -0.1166  0.1989 -0.6740
  707MOL0     H95429  -0.425   7.641   4.479  0.9536  1.7547  1.0863
  707MOL0     H95430  -0.194   7.666   4.508  0.1811  0.1966  1.0000
  707MOL0     H95431   1.556   7.600   4.662  2.4428  1.3904  0.3430
  707MOL0     H95432   1.756   7.645   4.790  0.3219  1.2990  0.9944
  707MOL0     H95433   2.179   7.618   4.981  1.5540  0.1672  0.7929
  707MOL0     H95434   2.358   7.694   5.125 -0.3649 -0.9080  2.1994
  707MOL0     H95435   2.379   7.664   5.440  0.6822 -1.4355 -1.9389
  707MOL0     H95436   2.488   7.703   5.304 -0.6112 -1.0393  0.5735
  707MOL0     H95437   2.459   7.829   5.574  2.2537 -1.5734  1.0510
  707MOL0     H95438   2.531   7.916   5.430  0.5660 -0.9647 -1.2216
  707MOL0     H95439   2.695   7.839   5.591  3.4592 -1.2437  0.4591
  707MOL0     H95440   2.716   7.787   5.428  0.6805 -1.9658  0.3754
  707MOL0     H95441   2.591   7.551   5.514  0.9201 -1.5295 -1.0404
  707MOL0     H95442   2.636   7.608   5.673  1.2990  0.8971 -0.1146
  707MOL0     H95443   3.018   7.521   5.519  0.4700  2.8504 -3.2831
  707MOL0     H95444   2.072   7.894   5.372  1.2118  4.2819 -2.9130
  707MOL0     H95445   1.895   7.815   5.235 -0.8589 -0.2982 -1.8513
  708MOL0     O95446  11.028  10.290   6.549  0.0374 -0.1317  0.0745
  708MOL0     C95447  11.151  10.285   6.577 -0.3770 -0.5757  0.0813
  708MOL0     O95448  11.196  10.320   6.701 -0.0331  0.0532  1.0082
  708MOL0     C95449  11.114  10.349   6.809  0.2554  0.5083 -0.4958
  708MOL0     C95450  11.169  10.426   6.912  0.5829 -0.8426 -0.0467
  708MOL0     C95451  11.105  10.474   7.019 -0.8639  0.0532  0.6942
  708MOL0     C95452  10.972  10.455   7.025 -0.2405 -0.0828 -0.5847
  708MOL0     O95453  10.910  10.517   7.129  0.1369  0.1273  0.0541
  708MOL0     C95454  10.778  10.481   7.170 -0.8509 -0.4266  0.3746
  708MOL0     C95455  10.739  10.585   7.266 -0.0326 -0.2256 -0.6795
  708MOL0     C95456  10.601  10.541   7.321 -0.3032  0.4748 -0.5069
  708MOL0     C95457  10.556  10.642   7.425  1.0755 -0.1256  0.1563
  708MOL0     C95458  10.415  10.606   7.464  0.4363 -0.0555 -0.1914
  708MOL0     C95459  10.314  10.642   7.350  0.2302 -0.6009 -0.3780
  708MOL0     C95460  10.167  10.643   7.402  0.0860 -0.1113 -0.0944
  708MOL0     C95461  10.078  10.690   7.279  0.4075  0.4377 -0.5517
  708MOL0     N95462   9.932  10.687   7.310  0.2527 -0.1290  0.8992
  708MOL0     C95463   9.862  10.811   7.331  0.3778  0.4324  0.0191
  708MOL0     C95464   9.741  10.763   7.371 -0.5547  0.0458  0.0510
  708MOL0     C95465   9.613  10.839   7.396  0.8756 -0.3221 -0.5688
  708MOL0     C95466   9.609  10.925   7.523  0.8612 -0.3833  0.1711
  708MOL0     C95467   9.611  10.840   7.654  0.7849 -0.4336  0.0784
  708MOL0     C95468   9.488  10.761   7.682 -0.8903  0.6109 -0.8050
  708MOL0     O95469   9.508  10.709   7.818  0.2114  0.0895 -0.0367
  708MOL0     C95470   9.406  10.640   7.878 -0.2873 -0.0661  0.1354
  708MOL0     C95471   9.310  10.566   7.809  0.3628 -0.1317  0.2080
  708MOL0     C95472   9.223  10.485   7.869 -0.1114 -1.1896 -0.3522
  708MOL0     C95473   9.144  10.393   7.784  0.2145 -0.5468  0.4471
  708MOL0     C95474   9.212  10.486   8.011 -0.0646 -0.6033  0.9275
  708MOL0     C95475   9.106  10.403   8.081  0.0205  0.0840  0.0261
  708MOL0     O95476   8.986  10.405   8.023  0.3315  0.5833  0.1685
  708MOL0     C95477   8.875  10.354   8.077 -0.0172  0.2478  0.1172
  708MOL0     C95478   8.759  10.384   8.010  1.0767  0.0204 -0.1386
  708MOL0     C95479   8.634  10.326   8.034  1.0949 -0.4452  1.4887
  708MOL0     C95480   8.621  10.233   8.135  0.4033 -0.1570  0.2090
  708MOL0     O95481   8.501  10.173   8.151  0.6266 -0.5495  0.2533
  708MOL0     C95482   8.478  10.073   8.251 -0.1992  0.1463 -0.2203
  708MOL0     C95483   8.330  10.035   8.265  0.5100  0.0010  0.0125
  708MOL0     C95484   8.232  10.151   8.284  0.7181 -0.2285 -0.1542
  708MOL0     C95485   8.099  10.101   8.353  0.3086  0.4826 -1.1868
  708MOL0     C95486   8.004  10.216   8.405 -0.6630 -0.2448  0.3220
  708MOL0     C95487   7.862  10.173   8.432  0.3147 -0.9922 -0.1045
  708MOL0     C95488   7.857  10.068   8.538  0.2255 -0.3241 -0.2337
  708MOL0     C95489   7.857  10.127   8.684 -0.0477 -0.3525  0.0729
  708MOL0    Cl95490   7.812  10.011   8.814 -0.1494 -0.3256 -0.3256
  708MOL0     C95491   8.737  10.196   8.199  0.0327 -0.4053 -0.2677
  708MOL0     C95492   8.860  10.257   8.178 -0.1434  0.2428  0.4289
  708MOL0     O95493   9.133  10.351   8.190 -0.1350  0.1822  0.0420
  708MOL0     C95494   9.301  10.553   8.090 -0.6053  0.5946 -0.9798
  708MOL0     C95495   9.402  10.633   8.022 -0.1968 -0.1333 -0.1532
  708MOL0     N95496   9.736  10.624   7.377 -0.1396 -0.1119 -0.6460
  708MOL0     N95497   9.851  10.582   7.344  0.6665  0.0821  0.4855
  708MOL0     C95498  10.901  10.372   6.927 -0.1673  0.2744  0.0337
  708MOL0     C95499  10.977  10.313   6.825  0.5750 -0.8529  0.2940
  708MOL0     C95500  11.247  10.268   6.476  0.4279  0.5670  0.7544
  708MOL0     C95501  11.385  10.302   6.490  0.0803 -0.0001 -0.7072
  708MOL0     C95502  11.473  10.312   6.389 -0.3519  0.1935 -0.3825
  708MOL0     C95503  11.431  10.278   6.264 -0.0735  0.2564  0.6242
  708MOL0     O95504  11.511  10.290   6.152 -0.5611 -0.0845  0.3046
  708MOL0     C95505  11.651  10.309   6.168  0.1884 -0.5038  0.7296
  708MOL0     C95506  11.714  10.312   6.028 -0.4971  0.3166  0.2285
  708MOL0     C95507  11.709  10.164   5.978 -0.1259 -0.2179  0.2998
  708MOL0     C95508  11.770  10.165   5.841  0.0104 -0.4378  0.3672
  708MOL0     C95509  11.739  10.033   5.779 -0.0266  0.7191  0.1335
  708MOL0     C95510  11.721   9.927   5.722 -0.1865 -0.0468  0.1675
  708MOL0     C95511  11.304  10.230   6.247  0.5074 -0.2453 -0.1994
  708MOL0     C95512  11.213  10.226   6.349  0.2664  0.8551 -0.3688
  708MOL0     H95513  11.276  10.447   6.903  0.2959  1.1424  0.5605
  708MOL0     H95514  11.170  10.522   7.092 -1.0060  0.7981  0.3430
  708MOL0     H95515  10.702  10.467   7.092  0.1299 -0.5793 -0.5810
  708MOL0     H95516  10.783  10.385   7.222 -0.4209 -2.1085 -2.5354
  708MOL0     H95517  10.824  10.594   7.335 -0.9625 -1.0964  0.6175
  708MOL0     H95518  10.722  10.681   7.217  0.8365  0.0047 -0.5626
  708MOL0     H95519  10.538  10.539   7.233  1.9242 -1.1512 -2.1898
  708MOL0     H95520  10.600  10.440   7.364 -0.3033 -0.2817 -2.2273
  708MOL0     H95521  10.621  10.641   7.514 -0.7501 -1.2413  1.5485
  708MOL0     H95522  10.559  10.741   7.380 -0.0341 -0.9408 -1.8521
  708MOL0     H95523  10.396  10.500   7.482  1.5369 -0.1151  0.7548
  708MOL0     H95524  10.389  10.654   7.559  1.2353 -0.9251  0.4850
  708MOL0     H95525  10.339  10.743   7.315  3.3551 -0.5256  1.6408
  708MOL0     H95526  10.329  10.570   7.269  3.8430  0.6449 -0.9896
  708MOL0     H95527  10.132  10.547   7.441  1.7542 -0.2712  1.0901
  708MOL0     H95528  10.151  10.717   7.481  1.5463 -0.8308  0.9004
  708MOL0     H95529  10.113  10.625   7.198 -0.4764 -2.2841  1.0989
  708MOL0     H95530  10.098  10.796   7.261  0.8860  0.9589  2.4085
  708MOL0     H95531   9.897  10.913   7.317 -0.1394  0.3501 -2.2465
  708MOL0     H95532   9.587  10.901   7.309 -1.8283  0.2016  0.5103
  708MOL0     H95533   9.525  10.775   7.398  1.5449 -1.7390 -5.1410
  708MOL0     H95534   9.517  10.983   7.535 -0.3115 -2.3686  1.3653
  708MOL0     H95535   9.702  10.982   7.523  0.5867  0.1462 -2.4786
  708MOL0     H95536   9.604  10.914   7.734  0.0239 -2.7986  2.3272
  708MOL0     H95537   9.703  10.782   7.668  1.3834  0.2430 -0.8991
  708MOL0     H95538   9.486  10.691   7.598  1.6480  1.7383 -1.9119
  708MOL0     H95539   9.401  10.827   7.684 -1.3998 -0.0059  2.0194
  708MOL0     H95540   9.329  10.563   7.703  2.4959  1.2983  0.4797
  708MOL0     H95541   9.041  10.427   7.775 -0.0378 -0.3443  3.1544
  708MOL0     H95542   9.179  10.392   7.681  0.3870 -0.0935  0.4962
  708MOL0     H95543   9.154  10.294   7.830 -1.7904 -1.3747 -0.7894
  708MOL0     H95544   8.756  10.462   7.935 -1.6278  0.1672 -0.0012
  708MOL0     H95545   8.547  10.357   7.976  0.9788 -0.6059  1.5763
  708MOL0     H95546   8.537   9.989   8.213  1.1040 -0.6344  3.1260
  708MOL0     H95547   8.513  10.103   8.350 -1.7438  0.8584  0.1449
  708MOL0     H95548   8.301   9.979   8.175  1.5909  2.1987 -1.7814
  708MOL0     H95549   8.314   9.967   8.350 -2.0137  0.8329  0.3097
  708MOL0     H95550   8.201  10.185   8.185 -0.0334 -0.8415 -0.1357
  708MOL0     H95551   8.285  10.236   8.328 -2.1366  0.5824  2.0734
  708MOL0     H95552   8.056  10.030   8.281 -0.1989 -0.5663  0.1167
  708MOL0     H95553   8.134  10.041   8.438 -2.8503 -2.1965 -1.5475
  708MOL0     H95554   7.996  10.286   8.321  0.0400 -1.1825 -0.5682
  708MOL0     H95555   8.051  10.265   8.491  1.2397  0.3694 -0.9863
  708MOL0     H95556   7.790  10.251   8.459  1.5362  0.0901  0.0889
  708MOL0     H95557   7.827  10.123   8.341  2.4304 -3.9703  0.5708
  708MOL0     H95558   7.927   9.985   8.538 -1.1223 -1.5843  2.3484
  708MOL0     H95559   7.757  10.026   8.525 -0.5008  1.0701  0.6329
  708MOL0     H95560   7.778  10.201   8.699 -2.3836 -2.5570 -0.6608
  708MOL0     H95561   7.954  10.175   8.702  0.6964 -1.2553 -1.3673
  708MOL0     H95562   8.723  10.113   8.269  1.1360 -0.4914 -0.1318
  708MOL0     H95563   8.942  10.221   8.240 -0.0323  1.0501  0.7676
  708MOL0     H95564   9.307  10.542   8.198  0.1646 -0.6188 -1.1290
  708MOL0     H95565   9.478  10.672   8.089  0.2045 -0.8716 -0.1699
  708MOL0     H95566  10.799  10.341   6.946  0.2791 -2.1544 -1.1109
  708MOL0     H95567  10.927  10.253   6.749 -1.4718  2.8176 -1.5124
  708MOL0     H95568  11.418  10.336   6.588 -1.6508  0.7317 -0.3342
  708MOL0     H95569  11.575  10.329   6.422 -0.2492 -0.3832 -0.3936
  708MOL0     H95570  11.686  10.397   6.223 -1.4594  1.2122 -0.8559
  708MOL0     H95571  11.683  10.223   6.228 -0.9170  1.1405  3.8920
  708MOL0     H95572  11.814  10.349   6.051 -0.4166  0.9615 -1.0817
  708MOL0     H95573  11.654  10.376   5.963 -1.8066 -0.1224  0.9684
  708MOL0     H95574  11.602  10.143   5.970 -0.2963  0.3124  0.9883
  708MOL0     H95575  11.753  10.089   6.045  1.3767  0.5171  0.1866
  708MOL0     H95576  11.879  10.166   5.852 -0.0452 -0.4453  0.9669
  708MOL0     H95577  11.736  10.246   5.776 -1.0120 -0.1250  1.2709
  708MOL0     H95578  11.708   9.832   5.674 -0.3617  0.6492 -1.2322
  708MOL0     H95579  11.274  10.201   6.147  2.5132  0.8068 -1.1649
  708MOL0     H95580  11.110  10.201   6.326  0.7665 -0.0061 -1.8390
  709MOL0     O95581   5.273   5.894   6.831 -0.6338  0.5865 -0.1989
  709MOL0     C95582   5.305   5.776   6.823 -1.1836 -0.0109 -0.3258
  709MOL0     O95583   5.217   5.665   6.837 -0.2311  0.3171  0.6297
  709MOL0     C95584   5.091   5.688   6.883  0.3174  0.1988 -0.4743
  709MOL0     C95585   5.068   5.764   7.002  0.0420 -0.2855 -0.2116
  709MOL0     C95586   4.935   5.793   7.042  0.3084 -0.3263  0.1906
  709MOL0     C95587   4.829   5.736   6.976  0.0768  1.0557  0.3857
  709MOL0     O95588   4.710   5.749   7.048  0.1991 -0.5005  0.7214
  709MOL0     C95589   4.601   5.665   6.996 -0.8727 -0.3805  0.0900
  709MOL0     C95590   4.497   5.665   7.099  0.9492  0.0815 -0.3320
  709MOL0     C95591   4.400   5.781   7.117  0.4990  0.2047  0.8798
  709MOL0     C95592   4.282   5.739   7.207  0.7420 -0.2483 -0.1738
  709MOL0     C95593   4.183   5.850   7.221 -0.2971 -0.4332  0.4698
  709MOL0     C95594   4.071   5.815   7.321 -0.3126  0.3124  0.0489
  709MOL0     C95595   3.958   5.912   7.323  0.7813 -0.1278 -0.4039
  709MOL0     C95596   3.866   5.901   7.206  0.4121 -0.7051  0.0752
  709MOL0     N95597   3.734   5.947   7.245  0.2613  0.7317  1.1260
  709MOL0     C95598   3.646   5.862   7.322  1.1617 -0.7372  0.5519
  709MOL0     C95599   3.526   5.919   7.294  0.4252 -0.7203  0.4924
  709MOL0     C95600   3.404   5.857   7.355 -0.3380  0.4504 -0.0520
  709MOL0     C95601   3.287   5.960   7.366 -0.1163 -0.6317 -0.0075
  709MOL0     C95602   3.202   5.984   7.247 -0.6392  0.5572  0.1732
  709MOL0     C95603   3.062   6.048   7.282  0.5146 -1.2969 -0.2064
  709MOL0     O95604   3.001   6.112   7.165 -0.2789  0.4378  0.4885
  709MOL0     C95605   2.865   6.104   7.165 -0.4980  0.1868 -1.6497
  709MOL0     C95606   2.803   5.978   7.158  0.4202  0.7595 -0.5769
  709MOL0     C95607   2.664   5.961   7.172  0.1025  0.1338  0.2673
  709MOL0     C95608   2.617   5.813   7.160 -0.2242  0.4531 -0.2092
  709MOL0     C95609   2.582   6.078   7.175 -0.5880  0.5590 -0.6592
  709MOL0     C95610   2.439   6.075   7.200  0.1615  0.0023 -0.2675
  709MOL0     O95611   2.366   5.972   7.142  0.0978 -0.6601 -0.2273
  709MOL0     C95612   2.228   5.960   7.165 -0.2379 -0.1453  0.2677
  709MOL0     C95613   2.159   5.966   7.289  0.0218  0.1321  0.3834
  709MOL0     C95614   2.019   5.942   7.305  0.1084 -0.0611  0.1199
  709MOL0     C95615   1.942   5.908   7.195  0.3711  0.5610  0.7062
  709MOL0     O95616   1.801   5.888   7.192 -0.0054  0.0624  0.5237
  709MOL0     C95617   1.718   5.884   7.311 -0.8449  0.3613  0.2439
  709MOL0     C95618   1.568   5.894   7.277  0.4814  0.0990  1.5721
  709MOL0     C95619   1.489   5.988   7.363  0.3064 -0.6663  0.5344
  709MOL0     C95620   1.332   5.958   7.349 -0.7007  0.1360 -0.2088
  709MOL0     C95621   1.234   6.058   7.424 -0.5047 -0.4321  0.1201
  709MOL0     C95622   1.085   6.001   7.410 -1.0101  0.3934  0.1134
  709MOL0     C95623   0.990   6.050   7.508  0.2851 -0.7408 -0.2296
  709MOL0     C95624   0.869   5.967   7.505  0.2218  0.5570 -0.8050
  709MOL0    Cl95625   0.762   5.987   7.361  0.4369 -0.3509 -0.1642
  709MOL0     C95626   2.002   5.901   7.071 -1.1893 -0.5685 -0.0349
  709MOL0     C95627   2.146   5.920   7.059 -0.2268 -0.1454  0.0739
  709MOL0     O95628   2.392   6.161   7.281  0.1816 -0.0815  0.0871
  709MOL0     C95629   2.645   6.207   7.174  0.3036 -0.2169  1.2016
  709MOL0     C95630   2.783   6.213   7.171 -1.1734 -0.2880  0.1593
  709MOL0     N95631   3.540   6.036   7.213  0.0201 -0.1656 -0.2392
  709MOL0     N95632   3.660   6.045   7.190 -0.4460 -0.1605  0.2958
  709MOL0     C95633   4.856   5.675   6.853  0.0572 -0.2689  0.9538
  709MOL0     C95634   4.982   5.647   6.810 -0.7067 -0.6924  0.5853
  709MOL0     C95635   5.438   5.732   6.774  0.2032 -0.7476  0.1836
  709MOL0     C95636   5.478   5.598   6.767  0.5928  1.2542  0.5529
  709MOL0     C95637   5.607   5.556   6.724  0.6995  0.7078  1.5183
  709MOL0     C95638   5.698   5.651   6.686  1.4550 -0.3064 -0.3116
  709MOL0     O95639   5.825   5.611   6.665  0.0681 -0.2328 -0.1224
  709MOL0     C95640   5.930   5.699   6.618 -0.3700 -0.4089 -0.5641
  709MOL0     C95641   6.057   5.622   6.612 -0.9281 -1.0385 -0.5936
  709MOL0     C95642   6.150   5.705   6.518  0.0680 -0.1325  0.2315
  709MOL0     C95643   6.299   5.702   6.552  0.2284 -0.2950  0.2434
  709MOL0     C95644   6.349   5.561   6.565 -0.1162 -0.8811  0.1481
  709MOL0     C95645   6.381   5.448   6.580  0.4419 -0.2331 -0.3750
  709MOL0     C95646   5.661   5.787   6.695  0.2881 -0.2646  0.3375
  709MOL0     C95647   5.534   5.818   6.746 -0.2617 -0.7884  0.8100
  709MOL0     H95648   5.148   5.812   7.058 -0.1734  1.4963 -1.3380
  709MOL0     H95649   4.912   5.845   7.135 -1.8982 -0.4557 -0.2516
  709MOL0     H95650   4.569   5.689   6.895 -0.6112 -2.6570 -0.5780
  709MOL0     H95651   4.639   5.563   6.990  2.0771  0.5127  1.3766
  709MOL0     H95652   4.433   5.579   7.077  1.8621 -0.5398 -0.6067
  709MOL0     H95653   4.547   5.651   7.195  1.3543 -0.5937 -0.6387
  709MOL0     H95654   4.454   5.863   7.164  0.5144  0.4836  0.3799
  709MOL0     H95655   4.359   5.816   7.021 -1.1319  0.9869  1.8073
  709MOL0     H95656   4.234   5.647   7.172 -0.7852  0.5426 -0.2680
  709MOL0     H95657   4.317   5.722   7.309  1.7024  1.8890 -0.0973
  709MOL0     H95658   4.234   5.942   7.250 -0.0191 -0.5143  0.2511
  709MOL0     H95659   4.130   5.846   7.125 -1.1580 -1.2318  0.9600
  709MOL0     H95660   4.041   5.713   7.296  2.1144 -0.3285 -0.4547
  709MOL0     H95661   4.118   5.809   7.420 -1.7289 -3.4944  0.6729
  709MOL0     H95662   3.910   5.884   7.418  1.6337 -3.7603 -0.9132
  709MOL0     H95663   3.984   6.018   7.334  0.4136 -0.0818  0.0952
  709MOL0     H95664   3.862   5.795   7.179 -2.2407 -0.8684  0.8423
  709MOL0     H95665   3.905   5.952   7.118  0.4596 -0.5660  0.1753
  709MOL0     H95666   3.667   5.767   7.369  1.0696 -1.0352  0.0005
  709MOL0     H95667   3.376   5.762   7.308  2.0909 -0.1846 -0.3374
  709MOL0     H95668   3.438   5.841   7.458 -0.9383  3.9679  0.8322
  709MOL0     H95669   3.318   6.056   7.407 -0.2030 -0.1087 -1.1398
  709MOL0     H95670   3.225   5.922   7.447 -0.3000  1.0203  0.6507
  709MOL0     H95671   3.184   5.891   7.194  2.2293  0.5656 -1.0009
  709MOL0     H95672   3.257   6.054   7.183  0.4404 -0.8220 -0.4520
  709MOL0     H95673   3.071   6.131   7.352  0.7481  0.1575 -1.8755
  709MOL0     H95674   2.993   5.979   7.331  1.0874 -1.1375  0.8483
  709MOL0     H95675   2.860   5.888   7.140  0.1725  0.8055 -1.6481
  709MOL0     H95676   2.520   5.798   7.207  0.0817  1.4689  0.7783
  709MOL0     H95677   2.621   5.764   7.062 -0.2970  1.2502 -0.6258
  709MOL0     H95678   2.677   5.756   7.231 -1.4095  0.5185  0.8686
  709MOL0     H95679   2.224   5.978   7.375  0.8607  2.1345 -0.4572
  709MOL0     H95680   1.981   5.949   7.407 -0.5797 -0.5682 -0.0966
  709MOL0     H95681   1.738   5.793   7.368  0.7379  1.1084  0.9418
  709MOL0     H95682   1.738   5.973   7.370 -0.2201  1.9116 -2.1740
  709MOL0     H95683   1.565   5.925   7.171 -0.3623 -0.1495  1.5223
  709MOL0     H95684   1.518   5.797   7.283  0.1868 -0.0415 -1.4017
  709MOL0     H95685   1.503   6.093   7.335  0.4625  0.0308  3.0400
  709MOL0     H95686   1.525   5.991   7.466  4.5284  3.4786 -0.6997
  709MOL0     H95687   1.311   5.953   7.242 -0.5124 -1.4290 -0.2027
  709MOL0     H95688   1.325   5.860   7.397  3.7843  1.0336  3.0142
  709MOL0     H95689   1.227   6.152   7.369  0.8558  0.2764  1.1143
  709MOL0     H95690   1.257   6.067   7.531 -2.7155 -0.6164  0.6608
  709MOL0     H95691   1.052   6.018   7.307  2.9523 -0.1724 -1.4668
  709MOL0     H95692   1.093   5.892   7.415 -2.5358  0.2377 -0.5205
  709MOL0     H95693   0.967   6.153   7.480  0.4615 -0.9724 -1.2887
  709MOL0     H95694   1.029   6.056   7.610  1.5100  2.0019 -0.7707
  709MOL0     H95695   0.829   5.994   7.603 -0.6603 -2.2192 -0.2852
  709MOL0     H95696   0.890   5.859   7.514 -0.7211  0.3903 -0.4746
  709MOL0     H95697   1.938   5.890   6.984 -0.8891 -0.5139 -0.2631
  709MOL0     H95698   2.191   5.904   6.962  1.2756 -1.5011  0.9465
  709MOL0     H95699   2.593   6.302   7.172  0.7717  0.0753 -1.7750
  709MOL0     H95700   2.842   6.304   7.173  1.5542 -1.7754 -3.0333
  709MOL0     H95701   4.777   5.647   6.784  2.2046 -1.1720 -1.2979
  709MOL0     H95702   4.999   5.603   6.712  0.1756  2.4625 -0.7973
  709MOL0     H95703   5.408   5.521   6.798  2.3649  0.3086  2.5272
  709MOL0     H95704   5.633   5.452   6.704 -1.3134  0.5782 -0.9412
  709MOL0     H95705   5.905   5.721   6.514 -2.3802  1.9078  0.3298
  709MOL0     H95706   5.935   5.784   6.686 -1.9002 -1.8271  1.4567
  709MOL0     H95707   6.033   5.521   6.576 -2.2614 -2.2204  3.1755
  709MOL0     H95708   6.097   5.616   6.714  2.3584 -0.3686 -1.7123
  709MOL0     H95709   6.113   5.808   6.520 -0.7856 -0.4192 -0.4251
  709MOL0     H95710   6.143   5.652   6.423 -2.1306  0.1704  0.1836
  709MOL0     H95711   6.304   5.755   6.647 -0.7667 -0.5390  0.4422
  709MOL0     H95712   6.366   5.743   6.476  1.0494 -2.0227 -0.0146
  709MOL0     H95713   6.413   5.347   6.600 -0.7628 -0.8116 -1.2200
  709MOL0     H95714   5.730   5.869   6.676  0.6310 -0.2245  1.6767
  709MOL0     H95715   5.509   5.921   6.769  1.3790 -0.1628 -0.0401
  710MOL0     O95716   0.159   1.644   1.952  0.1924  0.6591 -0.1256
  710MOL0     C95717   0.123   1.710   2.054  0.5728 -0.2997 -0.0794
  710MOL0     O95718   0.204   1.768   2.147 -0.2685 -0.2643 -0.0921
  710MOL0     C95719   0.337   1.761   2.119 -0.5961 -0.1543  0.0227
  710MOL0     C95720   0.420   1.695   2.206 -0.1748  0.2126 -0.8481
  710MOL0     C95721   0.558   1.690   2.195 -0.2796 -0.4160 -0.2228
  710MOL0     C95722   0.615   1.743   2.080 -0.7813  0.3746 -0.1721
  710MOL0     O95723   0.752   1.759   2.055  0.3534 -0.5482 -0.6572
  710MOL0     C95724   0.841   1.696   2.145  0.1968  0.3571 -0.5866
  710MOL0     C95725   0.985   1.735   2.140 -0.2713  0.0627  0.2903
  710MOL0     C95726   1.075   1.661   2.241  0.0918  0.3758  0.1970
  710MOL0     C95727   1.216   1.659   2.199  0.3504 -0.3143  0.0682
  710MOL0     C95728   1.319   1.628   2.304 -0.1401 -1.0475 -0.3494
  710MOL0     C95729   1.305   1.484   2.362 -0.8284  0.1235 -0.1624
  710MOL0     C95730   1.423   1.450   2.463 -0.2481  0.4508 -0.3905
  710MOL0     C95731   1.415   1.538   2.594 -0.0474 -0.1062  0.3026
  710MOL0     N95732   1.278   1.536   2.660 -0.3051 -0.1027  0.5641
  710MOL0     C95733   1.185   1.642   2.651  0.6158  0.6709  1.0693
  710MOL0     C95734   1.076   1.591   2.704  0.5487 -0.4050  0.0957
  710MOL0     C95735   0.939   1.653   2.694  0.6617  0.1984 -0.0653
  710MOL0     C95736   0.861   1.557   2.599 -0.7500 -0.6114 -0.0704
  710MOL0     C95737   0.740   1.628   2.535 -0.2135  0.0258 -0.3232
  710MOL0     C95738   0.601   1.610   2.601 -0.5918 -0.5783 -0.2421
  710MOL0     O95739   0.495   1.667   2.512  0.2128  0.5648  0.3708
  710MOL0     C95740   0.365   1.659   2.561 -0.4235 -0.8299 -0.3043
  710MOL0     C95741   0.278   1.761   2.522  0.2631  0.8749  1.4126
  710MOL0     C95742   0.145   1.766   2.573  0.3915  0.7986  0.4962
  710MOL0     C95743   0.057   1.885   2.549  0.5100 -0.8389  0.3446
  710MOL0     C95744   0.096   1.661   2.651  0.5162 -0.2544  0.3946
  710MOL0     C95745  -0.044   1.640   2.689  0.1359 -0.6899 -0.3573
  710MOL0     O95746  -0.132   1.676   2.591  0.3475  0.4058 -0.1074
  710MOL0     C95747  -0.267   1.697   2.620 -0.3719 -1.8164 -0.7435
  710MOL0     C95748  -0.330   1.682   2.748  0.3059  0.5325  1.0472
  710MOL0     C95749  -0.465   1.727   2.754  0.0304  0.0932 -0.0845
  710MOL0     C95750  -0.535   1.774   2.646 -0.6896 -1.1635 -0.4500
  710MOL0     O95751  -0.668   1.801   2.674  0.2243 -0.1697 -0.4122
  710MOL0     C95752  -0.729   1.914   2.602 -0.2664  0.9769 -0.8566
  710MOL0     C95753  -0.847   1.947   2.677 -0.2083 -0.0724  0.2817
  710MOL0     C95754  -0.912   2.055   2.596  1.1021 -0.8373 -1.0021
  710MOL0     C95755  -1.035   2.121   2.660 -0.3883 -0.0090  0.7399
  710MOL0     C95756  -1.090   2.226   2.563 -0.7758 -0.0218 -0.6409
  710MOL0     C95757  -1.221   2.277   2.613  0.6330 -0.0914  0.1970
  710MOL0     C95758  -1.285   2.381   2.520 -0.8403 -0.3508  0.8552
  710MOL0     C95759  -1.414   2.446   2.572 -0.5934 -0.2676 -1.0282
  710MOL0    Cl95760  -1.395   2.505   2.743  0.5166 -0.1023  0.3151
  710MOL0     C95761  -0.469   1.787   2.522  0.2053  0.1111  0.0721
  710MOL0     C95762  -0.336   1.746   2.517  0.3914 -0.4388  0.7876
  710MOL0     O95763  -0.066   1.582   2.792 -0.1040  0.5137 -0.3960
  710MOL0     C95764   0.191   1.564   2.695  0.5239 -1.5812 -1.1136
  710MOL0     C95765   0.322   1.562   2.645  0.1100  0.2306  0.9032
  710MOL0     N95766   1.098   1.465   2.749  0.5352  0.3577 -0.4479
  710MOL0     N95767   1.221   1.435   2.723  0.0716 -0.4259  0.2172
  710MOL0     C95768   0.533   1.790   1.975 -0.1190 -0.0077 -0.8948
  710MOL0     C95769   0.392   1.806   1.993 -0.2085  0.1941 -0.6124
  710MOL0     C95770  -0.026   1.738   2.069 -0.2348 -0.1048  0.1296
  710MOL0     C95771  -0.075   1.820   2.171 -0.4421  0.0864  0.1481
  710MOL0     C95772  -0.203   1.854   2.193  0.6924 -0.1324  0.0438
  710MOL0     C95773  -0.300   1.790   2.116 -0.5432 -0.6634 -0.0697
  710MOL0     O95774  -0.432   1.823   2.146 -0.1653  0.4015  0.8288
  710MOL0     C95775  -0.505   1.895   2.046  0.6034  0.5964  0.3245
  710MOL0     C95776  -0.578   2.019   2.111 -1.2490  0.1760 -0.3938
  710MOL0     C95777  -0.696   1.991   2.202  0.3933 -1.0970 -0.0490
  710MOL0     C95778  -0.830   1.941   2.141  0.0488 -0.0287 -0.5635
  710MOL0     C95779  -0.904   2.031   2.047  1.0302 -0.6245  0.1600
  710MOL0     C95780  -0.959   2.099   1.960  0.4919 -0.3815 -0.6691
  710MOL0     C95781  -0.262   1.710   2.011 -0.4379 -0.9055  0.3030
  710MOL0     C95782  -0.125   1.676   1.993  0.3894 -0.2925 -0.0114
  710MOL0     H95783   0.369   1.651   2.291 -1.9979  2.5303 -0.6384
  710MOL0     H95784   0.618   1.649   2.275 -0.5961 -2.5191 -1.0144
  710MOL0     H95785   0.806   1.709   2.248 -0.0353 -0.7952 -0.5121
  710MOL0     H95786   0.843   1.589   2.122  0.6197  0.6137 -1.8392
  710MOL0     H95787   1.034   1.723   2.043 -0.3144 -1.1287  0.4101
  710MOL0     H95788   0.986   1.841   2.168 -1.7748 -0.0130  0.6976
  710MOL0     H95789   1.066   1.722   2.331 -2.3256 -0.6965  0.7563
  710MOL0     H95790   1.033   1.564   2.269 -1.6083  1.5695  2.0678
  710MOL0     H95791   1.225   1.593   2.112 -1.2211 -0.7580  0.2040
  710MOL0     H95792   1.219   1.763   2.163 -2.3809 -0.3857 -0.5894
  710MOL0     H95793   1.421   1.623   2.264  0.8582 -1.7089  2.0591
  710MOL0     H95794   1.324   1.712   2.375  3.1974  0.7093 -2.3717
  710MOL0     H95795   1.204   1.472   2.402 -0.7790  0.6587  0.1423
  710MOL0     H95796   1.309   1.408   2.284  0.5489 -0.7585  0.7205
  710MOL0     H95797   1.406   1.346   2.492 -1.6637  1.6687  3.9779
  710MOL0     H95798   1.518   1.441   2.410 -1.2459 -0.2395 -2.1309
  710MOL0     H95799   1.440   1.644   2.586 -0.7039 -0.0407 -1.1340
  710MOL0     H95800   1.478   1.490   2.669 -0.3845 -0.2688  0.4833
  710MOL0     H95801   1.188   1.742   2.608 -1.0650  1.9152  3.5829
  710MOL0     H95802   0.903   1.652   2.797  2.6792 -0.1532  0.6789
  710MOL0     H95803   0.938   1.755   2.653 -2.7701  0.2439 -0.1315
  710MOL0     H95804   0.816   1.472   2.650 -1.7901  0.6137  1.1351
  710MOL0     H95805   0.930   1.531   2.518 -0.5223 -2.5468  0.7039
  710MOL0     H95806   0.736   1.582   2.436 -3.4286  0.2120 -0.3767
  710MOL0     H95807   0.760   1.734   2.519  0.8574 -0.1341 -0.0809
  710MOL0     H95808   0.603   1.648   2.704  1.5340 -3.0416  0.7579
  710MOL0     H95809   0.583   1.502   2.607  1.6357 -1.0025 -0.3456
  710MOL0     H95810   0.309   1.842   2.457 -0.0134  1.0958  1.5545
  710MOL0     H95811  -0.002   1.905   2.639  1.2090 -0.1001  0.6568
  710MOL0     H95812   0.125   1.971   2.537  0.4324 -0.4518  2.3075
  710MOL0     H95813  -0.015   1.876   2.468  0.4791 -1.2240  0.4116
  710MOL0     H95814  -0.288   1.653   2.843 -1.2393  0.4124  1.7341
  710MOL0     H95815  -0.512   1.734   2.852  1.4796  3.4314  0.5325
  710MOL0     H95816  -0.652   1.992   2.600  0.2444  0.5792  1.0701
  710MOL0     H95817  -0.755   1.894   2.498  1.1134  1.8684 -1.3985
  710MOL0     H95818  -0.909   1.859   2.697  0.7591 -1.7292 -3.2044
  710MOL0     H95819  -0.822   1.994   2.773 -1.1289  0.0401  0.4823
  710MOL0     H95820  -0.946   2.011   2.501 -0.2438  0.0114 -0.9540
  710MOL0     H95821  -0.846   2.142   2.588  1.5403 -1.0340  0.3227
  710MOL0     H95822  -1.116   2.048   2.669 -1.6328  0.7950 -2.4330
  710MOL0     H95823  -1.019   2.171   2.756 -0.4059  0.8033  0.3307
  710MOL0     H95824  -1.104   2.186   2.462  0.2795 -1.4150 -0.2690
  710MOL0     H95825  -1.026   2.313   2.548 -0.0166 -0.4997 -0.2456
  710MOL0     H95826  -1.290   2.195   2.634  0.8446 -0.2252  0.3744
  710MOL0     H95827  -1.191   2.325   2.707 -0.6050  3.4657 -1.0511
  710MOL0     H95828  -1.320   2.328   2.430 -2.0292 -1.0130  1.6756
  710MOL0     H95829  -1.213   2.460   2.495 -0.8625  0.2171  2.4429
  710MOL0     H95830  -1.495   2.373   2.569 -1.2404  0.2625  1.3407
  710MOL0     H95831  -1.437   2.523   2.498 -2.1273 -0.2853 -0.6012
  710MOL0     H95832  -0.522   1.811   2.431 -0.8045 -0.6025  0.4603
  710MOL0     H95833  -0.283   1.756   2.422  0.5376 -0.4915  0.8638
  710MOL0     H95834   0.158   1.480   2.756 -3.9894 -0.3528 -1.4898
  710MOL0     H95835   0.381   1.473   2.660 -1.3309 -0.8162  0.6033
  710MOL0     H95836   0.578   1.848   1.895  0.3231 -0.4991 -1.0112
  710MOL0     H95837   0.328   1.847   1.915 -1.5480 -2.0511 -0.7816
  710MOL0     H95838  -0.008   1.875   2.237 -0.1244 -0.6379  0.4373
  710MOL0     H95839  -0.226   1.919   2.277 -0.1276 -2.9418  2.1405
  710MOL0     H95840  -0.438   1.940   1.972  2.5792 -0.1637  1.5671
  710MOL0     H95841  -0.580   1.832   1.997  1.4837  0.4067 -0.7968
  710MOL0     H95842  -0.597   2.097   2.036  0.7501 -0.8045 -1.9903
  710MOL0     H95843  -0.512   2.067   2.183 -0.0598 -4.3187  1.8496
  710MOL0     H95844  -0.720   2.091   2.241  3.0023  1.5811 -4.3800
  710MOL0     H95845  -0.677   1.912   2.275 -2.0001 -2.6676 -0.9962
  710MOL0     H95846  -0.892   1.904   2.224  2.2248  1.9297  2.1332
  710MOL0     H95847  -0.810   1.848   2.087 -0.4605 -0.6599  0.2896
  710MOL0     H95848  -1.009   2.168   1.895  0.2183  0.1270  0.0520
  710MOL0     H95849  -0.341   1.678   1.944  1.7173  0.7641 -3.3540
  710MOL0     H95850  -0.098   1.612   1.910  1.1159 -1.1686  0.8884
  711MOL0     O95851   1.822   1.990   3.733  0.1696 -0.3077  0.2771
  711MOL0     C95852   1.842   2.049   3.624  0.0222 -0.4202  0.4505
  711MOL0     O95853   1.956   2.027   3.548  0.0685  0.5511 -0.6178
  711MOL0     C95854   2.063   1.950   3.585 -0.3066 -0.1471  0.7102
  711MOL0     C95855   2.114   1.945   3.714 -0.8099  0.7719 -0.5365
  711MOL0     C95856   2.235   1.869   3.733  0.4186  0.0589 -0.3221
  711MOL0     C95857   2.292   1.795   3.628  0.1642  0.3982 -0.2704
  711MOL0     O95858   2.409   1.721   3.645 -0.0142 -0.0690  0.5186
  711MOL0     C95859   2.472   1.710   3.780  0.2413 -0.4228 -0.0598
  711MOL0     C95860   2.603   1.625   3.773  1.1008  0.2277  0.1069
  711MOL0     C95861   2.571   1.484   3.727 -0.0468  0.4680  0.7638
  711MOL0     C95862   2.687   1.383   3.739  0.1260  0.2412 -0.5286
  711MOL0     C95863   2.670   1.234   3.692  0.4031  0.2500 -0.4146
  711MOL0     C95864   2.555   1.157   3.763  0.2663 -0.1116 -0.3021
  711MOL0     C95865   2.533   1.015   3.701 -0.8843  0.4559  0.3812
  711MOL0     C95866   2.633   0.903   3.741  0.6967 -0.2005  0.0824
  711MOL0     N95867   2.671   0.891   3.880 -0.3760 -0.2929  0.2418
  711MOL0     C95868   2.739   0.987   3.953 -0.0582 -0.2789 -0.8738
  711MOL0     C95869   2.768   0.921   4.072 -0.4564 -0.0994  0.4694
  711MOL0     C95870   2.844   0.977   4.190 -0.4721  0.6054  0.1197
  711MOL0     C95871   2.970   0.898   4.217 -0.4030  0.2545  0.3669
  711MOL0     C95872   3.059   0.952   4.328 -0.6739 -0.6193  0.4008
  711MOL0     C95873   2.993   0.964   4.471  0.3432 -0.6688  0.3607
  711MOL0     O95874   2.953   0.833   4.519 -0.1744 -0.3580 -0.3030
  711MOL0     C95875   2.864   0.818   4.624 -0.2647 -0.5717  0.2552
  711MOL0     C95876   2.831   0.917   4.722 -0.2290  0.5178  0.8728
  711MOL0     C95877   2.736   0.885   4.817 -0.4158  0.1729 -0.4145
  711MOL0     C95878   2.694   1.003   4.908  0.2348  0.3270 -0.0034
  711MOL0     C95879   2.671   0.753   4.826 -1.2614  0.0064  0.1127
  711MOL0     C95880   2.576   0.719   4.930  0.0566  1.1407  0.5620
  711MOL0     O95881   2.486   0.614   4.911 -0.1225  0.5067  0.4202
  711MOL0     C95882   2.389   0.582   5.004 -0.5191 -0.6976  0.0726
  711MOL0     C95883   2.358   0.453   5.040 -1.0939  0.4175  0.7967
  711MOL0     C95884   2.265   0.423   5.122 -0.2309 -0.3224 -0.5742
  711MOL0     C95885   2.186   0.516   5.189 -0.4896  0.3028 -0.4998
  711MOL0     O95886   2.082   0.496   5.274 -0.0856 -0.4506 -0.3289
  711MOL0     C95887   2.029   0.365   5.273 -0.2392  0.3865  0.0205
  711MOL0     C95888   1.898   0.356   5.358  0.6392  0.4604 -1.5376
  711MOL0     C95889   1.931   0.384   5.505 -0.8107 -0.7529 -0.5611
  711MOL0     C95890   1.831   0.314   5.597 -0.0762 -0.5885  0.5558
  711MOL0     C95891   1.868   0.358   5.740 -0.6902 -0.5304  0.2143
  711MOL0     C95892   1.789   0.267   5.831  0.4957  0.0291 -1.1858
  711MOL0     C95893   1.783   0.330   5.974  0.1688  0.0210 -0.0646
  711MOL0     C95894   1.671   0.282   6.064  0.6617 -0.3851 -1.1457
  711MOL0    Cl95895   1.508   0.322   5.996 -0.3232  0.4119  0.0283
  711MOL0     C95896   2.218   0.645   5.162 -0.1234 -0.2033 -0.0650
  711MOL0     C95897   2.314   0.675   5.072 -0.0188 -0.1064  0.7747
  711MOL0     O95898   2.593   0.775   5.040  0.1920  0.5483 -0.5685
  711MOL0     C95899   2.697   0.668   4.721  0.7118 -0.0013 -0.2370
  711MOL0     C95900   2.798   0.696   4.623 -0.3436  0.8126  0.0673
  711MOL0     N95901   2.717   0.792   4.067  0.9598 -0.0242 -0.1545
  711MOL0     N95902   2.653   0.777   3.954  0.0846 -0.6993 -0.4066
  711MOL0     C95903   2.239   1.807   3.501  0.0044 -0.4032 -0.1443
  711MOL0     C95904   2.129   1.883   3.483  0.3576  1.1225 -0.0528
  711MOL0     C95905   1.726   2.119   3.567  0.1055 -1.1013  0.1411
  711MOL0     C95906   1.606   2.144   3.635  0.4724  0.3001 -0.4216
  711MOL0     C95907   1.499   2.212   3.570  0.3636 -0.1418  0.3887
  711MOL0     C95908   1.509   2.254   3.442 -0.7894 -0.2403  0.9509
  711MOL0     O95909   1.406   2.313   3.376 -0.5295  0.0779  0.9000
  711MOL0     C95910   1.330   2.207   3.314  0.3337 -0.4722  0.3164
  711MOL0     C95911   1.180   2.253   3.296  0.2266 -0.0585 -0.6456
  711MOL0     C95912   1.094   2.257   3.420  0.4075  0.1525 -0.1309
  711MOL0     C95913   0.962   2.332   3.401 -0.1610 -0.3857  0.1944
  711MOL0     C95914   0.880   2.271   3.302  0.5852  0.5227 -0.3747
  711MOL0     C95915   0.823   2.195   3.228  0.6261  0.0856  1.0842
  711MOL0     C95916   1.619   2.219   3.364  0.0176  0.4336 -0.4750
  711MOL0     C95917   1.735   2.160   3.436  0.2280 -0.6115  0.1459
  711MOL0     H95918   2.077   2.008   3.795  0.6365  2.0423 -0.7991
  711MOL0     H95919   2.277   1.866   3.833 -0.3167  1.8760  0.0856
  711MOL0     H95920   2.494   1.806   3.828 -1.4323  0.4407 -0.9447
  711MOL0     H95921   2.404   1.671   3.856 -0.4646  2.6975  1.0693
  711MOL0     H95922   2.669   1.654   3.691  2.3426 -0.0227  0.9927
  711MOL0     H95923   2.669   1.633   3.860  2.1005 -2.8510 -0.2578
  711MOL0     H95924   2.485   1.443   3.781 -0.1046 -2.4170 -1.2581
  711MOL0     H95925   2.532   1.488   3.624  0.4086  1.6114  0.6188
  711MOL0     H95926   2.776   1.419   3.686  0.7229 -1.5038 -0.7579
  711MOL0     H95927   2.702   1.377   3.847 -0.2657  0.8349 -0.4326
  711MOL0     H95928   2.652   1.234   3.584  1.8125 -0.7688 -0.6884
  711MOL0     H95929   2.766   1.184   3.705 -0.8380 -2.2578 -0.2310
  711MOL0     H95930   2.559   1.153   3.872 -2.1486 -1.6975 -0.2025
  711MOL0     H95931   2.465   1.213   3.735  0.1285 -1.3456 -2.5290
  711MOL0     H95932   2.433   0.990   3.739 -0.8033  3.6395  3.2828
  711MOL0     H95933   2.524   1.023   3.593 -3.9007  1.9746  0.6154
  711MOL0     H95934   2.719   0.912   3.673 -0.2790  2.2761 -0.9638
  711MOL0     H95935   2.578   0.811   3.719  1.2952  0.0629 -3.0071
  711MOL0     H95936   2.754   1.091   3.925 -1.0413  0.5497  1.3450
  711MOL0     H95937   2.866   1.082   4.168  1.8193  0.1315 -0.0978
  711MOL0     H95938   2.772   0.984   4.271  1.1163  2.8265  1.4719
  711MOL0     H95939   3.039   0.884   4.134 -0.8392 -0.8907  0.1842
  711MOL0     H95940   2.935   0.797   4.240 -0.5766  0.4678  1.0417
  711MOL0     H95941   3.104   1.048   4.302 -2.9959  0.0796 -1.3938
  711MOL0     H95942   3.143   0.883   4.327  0.9253  1.1725 -2.5866
  711MOL0     H95943   2.908   1.031   4.458 -1.0318 -2.5406 -0.7904
  711MOL0     H95944   3.068   0.995   4.544  0.2802  3.2758 -1.0199
  711MOL0     H95945   2.861   1.022   4.725  2.8119 -0.0036 -3.0452
  711MOL0     H95946   2.725   1.097   4.862 -0.2002  0.8281  0.7178
  711MOL0     H95947   2.585   1.002   4.916  0.2587  1.2775  0.5341
  711MOL0     H95948   2.730   0.987   5.010  0.6493 -0.3829 -0.2519
  711MOL0     H95949   2.419   0.380   4.987 -0.8090  0.7962  0.5873
  711MOL0     H95950   2.249   0.317   5.140  1.2038 -0.5512 -0.4767
  711MOL0     H95951   2.005   0.328   5.173  0.4414 -0.8012  0.2770
  711MOL0     H95952   2.096   0.294   5.321 -3.2258 -1.9831  1.0147
  711MOL0     H95953   1.830   0.430   5.316 -0.6136 -1.7932 -3.7313
  711MOL0     H95954   1.846   0.260   5.350 -0.5747  0.8639  0.5911
  711MOL0     H95955   1.934   0.490   5.531  2.1754 -0.3923 -1.9201
  711MOL0     H95956   2.033   0.362   5.537 -1.4248  2.3887  4.6455
  711MOL0     H95957   1.731   0.353   5.575  1.8087  4.9383  0.1904
  711MOL0     H95958   1.841   0.206   5.586  0.5371 -0.6213  1.3914
  711MOL0     H95959   1.838   0.463   5.750 -0.2674 -0.5653  2.2012
  711MOL0     H95960   1.974   0.352   5.767 -0.8355  1.6209  1.5120
  711MOL0     H95961   1.688   0.254   5.792 -0.8303 -0.4718  2.0805
  711MOL0     H95962   1.839   0.169   5.836  1.4009  0.4848 -1.0812
  711MOL0     H95963   1.762   0.436   5.954 -1.6432 -0.1907  0.6208
  711MOL0     H95964   1.877   0.317   6.029 -0.2314  1.5976  1.0749
  711MOL0     H95965   1.688   0.331   6.160  0.1519 -1.4364 -0.5043
  711MOL0     H95966   1.681   0.174   6.082  1.8924  0.1435  1.8861
  711MOL0     H95967   2.177   0.727   5.220 -0.4147  0.8215 -1.6572
  711MOL0     H95968   2.334   0.779   5.048 -0.4834 -0.5421 -1.7475
  711MOL0     H95969   2.642   0.576   4.705 -0.8096  1.0857 -1.6275
  711MOL0     H95970   2.830   0.636   4.538  0.6591  1.3830  0.0178
  711MOL0     H95971   2.286   1.755   3.418  1.8969 -2.3612  2.0207
  711MOL0     H95972   2.085   1.876   3.384  0.6314 -0.6072 -0.0744
  711MOL0     H95973   1.594   2.115   3.739 -1.4215  1.2232 -0.3317
  711MOL0     H95974   1.404   2.232   3.619  0.2160 -0.2361  0.1432
  711MOL0     H95975   1.382   2.197   3.219 -1.2168 -1.5200 -0.4773
  711MOL0     H95976   1.340   2.110   3.365 -2.2498 -2.3249 -2.3020
  711MOL0     H95977   1.129   2.183   3.229 -1.4246 -0.4512  0.9388
  711MOL0     H95978   1.185   2.350   3.245  3.6317  0.4460  0.4009
  711MOL0     H95979   1.152   2.298   3.503  1.2232 -1.4589  0.1512
  711MOL0     H95980   1.074   2.153   3.448 -2.1527 -0.0039 -2.1871
  711MOL0     H95981   0.984   2.432   3.363 -3.0696  1.2243  2.2896
  711MOL0     H95982   0.904   2.332   3.494  0.5811 -1.3548  0.6752
  711MOL0     H95983   0.772   2.133   3.157  2.1992 -1.4627  1.2490
  711MOL0     H95984   1.627   2.243   3.259 -1.2222 -0.7688 -0.8735
  711MOL0     H95985   1.820   2.142   3.371  0.1507  0.7835 -0.3839
  712MOL0     O95986   7.187   7.639   3.154 -0.8575 -1.2413  0.1148
  712MOL0     C95987   7.176   7.725   3.069  0.0033 -0.8908 -0.5320
  712MOL0     O95988   7.055   7.775   3.015 -0.2334 -0.4225  0.0145
  712MOL0     C95989   6.947   7.723   3.072 -0.2683  0.3299  0.5020
  712MOL0     C95990   6.889   7.598   3.047 -0.4261  0.5892  0.1299
  712MOL0     C95991   6.785   7.551   3.128  0.6312 -0.2289  0.8957
  712MOL0     C95992   6.731   7.639   3.222 -0.3103 -0.4069 -0.1015
  712MOL0     O95993   6.625   7.600   3.301 -0.1057 -0.9492 -0.4207
  712MOL0     C95994   6.646   7.477   3.356  0.7833 -0.9395 -0.6327
  712MOL0     C95995   6.555   7.469   3.487 -0.1460 -0.0333  0.4572
  712MOL0     C95996   6.403   7.453   3.460 -0.1646 -0.2283 -0.4268
  712MOL0     C95997   6.366   7.310   3.413 -0.3007 -0.0213 -0.0270
  712MOL0     C95998   6.219   7.286   3.386 -0.2750 -0.3158  0.2149
  712MOL0     C95999   6.187   7.157   3.313  0.6266  0.1271  0.3779
  712MOL0     C96000   6.233   7.030   3.393 -0.6645 -0.3488 -0.1150
  712MOL0     C96001   6.204   6.908   3.306 -0.2847  0.2196  0.2800
  712MOL0     N96002   6.307   6.876   3.216  0.8733 -0.5485  0.6471
  712MOL0     C96003   6.386   6.762   3.213 -0.4155 -0.3910  0.4710
  712MOL0     C96004   6.447   6.745   3.095 -0.5665  0.0197  0.0825
  712MOL0     C96005   6.546   6.638   3.062 -0.3214  0.6364 -0.2540
  712MOL0     C96006   6.470   6.542   2.967  0.1807 -0.0993  1.0117
  712MOL0     C96007   6.574   6.432   2.937  0.1840  0.1442  0.4202
  712MOL0     C96008   6.537   6.322   2.832 -0.3485 -0.6830  0.5926
  712MOL0     O96009   6.440   6.229   2.896 -0.3589  0.4372 -0.3590
  712MOL0     C96010   6.301   6.243   2.886  0.1225 -0.6769 -0.3724
  712MOL0     C96011   6.218   6.184   2.979 -0.0481  0.1701 -0.5477
  712MOL0     C96012   6.078   6.168   2.954 -0.0963  0.0438 -0.3608
  712MOL0     C96013   5.988   6.076   3.042  0.2806  0.1414 -0.6736
  712MOL0     C96014   6.012   6.243   2.846 -0.8175 -0.1929  0.3063
  712MOL0     C96015   5.865   6.260   2.826  0.1227 -0.2885 -0.0899
  712MOL0     O96016   5.777   6.170   2.861  0.4859 -0.5414  0.9910
  712MOL0     C96017   5.640   6.182   2.835  0.2319 -0.4265 -0.5985
  712MOL0     C96018   5.561   6.069   2.817 -0.9589 -0.6817  0.1767
  712MOL0     C96019   5.422   6.078   2.802  0.1047 -0.9078  0.2642
  712MOL0     C96020   5.363   6.201   2.795 -0.1732 -0.6362 -0.2512
  712MOL0     O96021   5.232   6.197   2.766  0.3974  0.2106  0.2263
  712MOL0     C96022   5.162   6.317   2.744 -0.1280  0.0485  0.8172
  712MOL0     C96023   5.023   6.292   2.699  0.3255  0.3691 -0.5579
  712MOL0     C96024   4.933   6.217   2.806 -0.7772 -0.6648 -0.4479
  712MOL0     C96025   4.810   6.178   2.735  0.8466  1.1117  0.9051
  712MOL0     C96026   4.723   6.096   2.847 -0.1658 -0.3413 -0.1169
  712MOL0     C96027   4.579   6.101   2.801 -0.0208  0.4962 -0.3327
  712MOL0     C96028   4.485   6.048   2.905 -0.1343 -0.1238 -0.0185
  712MOL0     C96029   4.454   5.903   2.878  0.3866  0.3866  0.7961
  712MOL0    Cl96030   4.590   5.796   2.897 -0.2159 -0.3123  0.0538
  712MOL0     C96031   5.431   6.312   2.845 -0.0565 -0.5961 -0.6184
  712MOL0     C96032   5.569   6.308   2.851 -0.5003  0.3754 -0.3093
  712MOL0     O96033   5.831   6.366   2.771 -0.7369 -0.8223  0.4597
  712MOL0     C96034   6.105   6.310   2.765  0.3829 -0.4693 -0.4191
  712MOL0     C96035   6.240   6.313   2.781  0.1103  0.0452  0.0801
  712MOL0     N96036   6.419   6.860   3.032 -0.6542 -0.3769  0.2196
  712MOL0     N96037   6.332   6.926   3.095  0.9470  0.3173  0.1267
  712MOL0     C96038   6.783   7.767   3.241  0.1745  0.6148  0.3325
  712MOL0     C96039   6.893   7.800   3.174 -1.1967  0.0516 -0.2739
  712MOL0     C96040   7.307   7.784   3.019  0.4998  0.6235 -0.5501
  712MOL0     C96041   7.308   7.878   2.916  0.8762  0.0912  0.2182
  712MOL0     C96042   7.420   7.933   2.861  0.1173  0.5176  0.6128
  712MOL0     C96043   7.547   7.879   2.905  1.1005 -1.5562  0.1782
  712MOL0     O96044   7.665   7.898   2.839  0.2327 -0.5267 -0.2263
  712MOL0     C96045   7.672   8.008   2.747  0.5040 -0.3738 -0.3990
  712MOL0     C96046   7.683   8.142   2.814 -0.1364  0.5255  0.0284
  712MOL0     C96047   7.694   8.251   2.704  0.1396  0.4167  0.1351
  712MOL0     C96048   7.742   8.384   2.785  0.1105 -0.0713 -0.4652
  712MOL0     C96049   7.742   8.507   2.713  0.4614 -0.1735  0.5817
  712MOL0     C96050   7.766   8.610   2.655  0.2646 -0.4269  0.5842
  712MOL0     C96051   7.551   7.781   2.999 -0.0298 -0.4338 -0.4702
  712MOL0     C96052   7.433   7.729   3.062  0.1789 -0.9591 -0.0194
  712MOL0     H96053   6.920   7.544   2.958 -1.4619  0.2650 -0.0426
  712MOL0     H96054   6.748   7.451   3.108 -1.7284  0.7461  0.0793
  712MOL0     H96055   6.629   7.393   3.288 -1.3631 -0.1386 -1.1771
  712MOL0     H96056   6.750   7.473   3.388  1.8546  3.9102 -2.5962
  712MOL0     H96057   6.581   7.393   3.561 -2.6942 -1.1691  0.2875
  712MOL0     H96058   6.566   7.561   3.544  2.7089  0.9394 -1.4312
  712MOL0     H96059   6.344   7.467   3.551  2.0448 -0.8789  1.1756
  712MOL0     H96060   6.379   7.524   3.380  1.3960  2.2416  1.1772
  712MOL0     H96061   6.415   7.292   3.316  0.3516  0.7259  0.1512
  712MOL0     H96062   6.399   7.238   3.488 -1.2866 -1.4420 -0.9207
  712MOL0     H96063   6.169   7.282   3.483 -1.3011  3.0818 -0.0330
  712MOL0     H96064   6.177   7.374   3.335 -2.4829 -1.3186  0.2331
  712MOL0     H96065   6.079   7.146   3.304  0.8498 -0.7062 -1.8726
  712MOL0     H96066   6.234   7.168   3.214 -0.3365 -0.6653 -0.1834
  712MOL0     H96067   6.339   7.028   3.420 -0.7994  1.2659  0.6314
  712MOL0     H96068   6.173   7.026   3.484 -0.9303  2.0288 -0.1353
  712MOL0     H96069   6.112   6.919   3.248  0.4324 -0.1657 -0.9604
  712MOL0     H96070   6.189   6.826   3.377 -0.0985  0.0307  0.1013
  712MOL0     H96071   6.383   6.681   3.286 -2.4569  0.0959  0.9920
  712MOL0     H96072   6.625   6.682   3.000 -1.0608 -1.8068 -3.2104
  712MOL0     H96073   6.581   6.579   3.147  2.5497 -0.1650 -1.8641
  712MOL0     H96074   6.443   6.608   2.884 -0.2617 -2.2262 -0.6132
  712MOL0     H96075   6.376   6.505   3.007 -1.9207  1.8021 -1.7792
  712MOL0     H96076   6.592   6.383   3.033  0.0929  0.3771  0.5575
  712MOL0     H96077   6.670   6.476   2.910 -0.7659  0.8070 -2.1599
  712MOL0     H96078   6.620   6.263   2.793 -0.5814 -0.7376  0.1802
  712MOL0     H96079   6.497   6.371   2.743 -0.0315  0.4553  1.0517
  712MOL0     H96080   6.268   6.129   3.058 -2.4721 -1.0564  0.2592
  712MOL0     H96081   5.904   6.134   3.084  2.2700  3.0637 -0.4060
  712MOL0     H96082   5.943   5.998   2.981  0.2701 -0.6350  0.3019
  712MOL0     H96083   6.053   6.027   3.115 -1.9594 -1.0150  0.6471
  712MOL0     H96084   5.604   5.969   2.810 -0.6169 -0.4348 -1.5157
  712MOL0     H96085   5.371   5.984   2.789  0.6512 -1.1233 -0.3558
  712MOL0     H96086   5.162   6.367   2.841  1.5744 -0.9127  1.3578
  712MOL0     H96087   5.215   6.388   2.680 -0.1298 -1.4310 -0.8945
  712MOL0     H96088   4.978   6.379   2.652 -0.9561  0.0186 -0.0214
  712MOL0     H96089   5.032   6.221   2.616 -1.5748  0.2917 -0.7418
  712MOL0     H96090   4.913   6.286   2.888 -0.7715  0.1536 -1.1235
  712MOL0     H96091   4.998   6.138   2.845  1.6733  1.7345  0.7134
  712MOL0     H96092   4.760   6.264   2.688  0.3008  0.1716 -0.2807
  712MOL0     H96093   4.823   6.102   2.658  0.9214  1.6516  0.3714
  712MOL0     H96094   4.730   6.147   2.943 -0.5037 -1.4525  0.5111
  712MOL0     H96095   4.765   5.996   2.853  0.0827 -0.1797  1.3183
  712MOL0     H96096   4.553   6.206   2.790 -0.9773  0.0707 -2.7626
  712MOL0     H96097   4.569   6.050   2.704  1.1531 -0.1637 -0.1291
  712MOL0     H96098   4.393   6.107   2.894  0.6863  1.0873 -0.5979
  712MOL0     H96099   4.513   6.053   3.010 -0.0488  1.5955 -0.0864
  712MOL0     H96100   4.409   5.886   2.780  0.9151 -2.3598  0.9398
  712MOL0     H96101   4.385   5.860   2.951 -0.7152  0.1504 -0.3425
  712MOL0     H96102   5.374   6.395   2.886 -0.9971 -0.7932 -1.4828
  712MOL0     H96103   5.609   6.400   2.890  0.1702  0.4471 -1.1530
  712MOL0     H96104   6.071   6.358   2.674  1.3045  1.0161 -0.0197
  712MOL0     H96105   6.294   6.364   2.702 -2.2543  0.2457 -1.4779
  712MOL0     H96106   6.743   7.832   3.318 -1.3999 -0.4738  0.4801
  712MOL0     H96107   6.945   7.895   3.190  0.4637 -0.8830  0.1431
  712MOL0     H96108   7.216   7.925   2.883  0.3689  0.1351  1.6037
  712MOL0     H96109   7.419   8.001   2.777 -0.3327 -1.8443 -1.4046
  712MOL0     H96110   7.759   7.977   2.689 -1.0030 -0.1343 -2.9136
  712MOL0     H96111   7.585   8.016   2.682 -0.4191 -1.0292  0.7261
  712MOL0     H96112   7.774   8.146   2.875  0.3965 -0.5472 -0.6708
  712MOL0     H96113   7.588   8.156   2.866 -1.3749 -2.7896 -1.0559
  712MOL0     H96114   7.594   8.267   2.663 -0.0352 -0.6020  0.1528
  712MOL0     H96115   7.772   8.233   2.629  2.1787  1.1210  1.9878
  712MOL0     H96116   7.842   8.359   2.822  0.6112  0.5491 -1.3815
  712MOL0     H96117   7.674   8.392   2.870 -0.1938 -1.4741 -0.5549
  712MOL0     H96118   7.786   8.704   2.606  0.3243  0.5026  2.3221
  712MOL0     H96119   7.648   7.743   3.029 -1.0515 -2.7646  0.0728
  712MOL0     H96120   7.440   7.649   3.135  0.1244 -1.3474 -0.4366
  713MOL0     O96121   6.187   0.515   0.328 -0.3038 -0.2426  0.1706
  713MOL0     C96122   6.253   0.582   0.408  0.4398 -0.1753 -0.4725
  713MOL0     O96123   6.195   0.662   0.507  0.4767  0.1624  0.7352
  713MOL0     C96124   6.057   0.667   0.503 -0.2639  0.2558  0.7469
  713MOL0     C96125   5.970   0.575   0.560 -0.2695  0.3695  0.2827
  713MOL0     C96126   5.829   0.591   0.565 -0.7353 -0.1577 -0.6748
  713MOL0     C96127   5.781   0.709   0.519 -0.2952 -0.5933 -0.0687
  713MOL0     O96128   5.647   0.745   0.519 -0.1987  0.1982 -0.4682
  713MOL0     C96129   5.551   0.636   0.539 -0.2513 -0.7380  0.7206
  713MOL0     C96130   5.411   0.689   0.497 -0.0829  0.1654  0.1741
  713MOL0     C96131   5.295   0.604   0.553  0.4182 -0.5412  0.2113
  713MOL0     C96132   5.165   0.670   0.515  0.9981  0.3617  0.4181
  713MOL0     C96133   5.045   0.579   0.550  0.5559  0.2676  0.6207
  713MOL0     C96134   4.923   0.654   0.502  0.8440  0.8452  0.4067
  713MOL0     C96135   4.808   0.554   0.489 -0.1061  0.8118 -0.7057
  713MOL0     C96136   4.744   0.508   0.623  0.5028 -0.1550  1.1610
  713MOL0     N96137   4.608   0.465   0.604 -0.3673  0.5473  0.2931
  713MOL0     C96138   4.532   0.423   0.713  0.7266  0.0044  0.9483
  713MOL0     C96139   4.415   0.371   0.665 -0.1008 -0.0194 -0.1384
  713MOL0     C96140   4.294   0.314   0.752  0.4360 -0.4002 -0.1387
  713MOL0     C96141   4.342   0.209   0.860 -0.1773  0.1566  0.0561
  713MOL0     C96142   4.258   0.079   0.850 -0.6472  1.1841  0.1346
  713MOL0     C96143   4.108   0.093   0.878  0.9064  0.5030 -0.4854
  713MOL0     O96144   4.087   0.104   1.027 -0.3643 -0.2698 -0.1711
  713MOL0     C96145   3.956   0.117   1.072  0.3722 -0.2005  0.1241
  713MOL0     C96146   3.834   0.087   0.998 -0.2128 -0.5658  0.0410
  713MOL0     C96147   3.701   0.096   1.043 -0.3643 -0.3640  0.5739
  713MOL0     C96148   3.588   0.072   0.953  0.4085  0.3043 -0.4152
  713MOL0     C96149   3.684   0.144   1.173 -0.1379 -0.3482 -0.3280
  713MOL0     C96150   3.550   0.159   1.239  0.5183  0.1821 -1.0096
  713MOL0     O96151   3.433   0.106   1.189 -0.4473 -0.7731 -0.0627
  713MOL0     C96152   3.314   0.154   1.234 -0.1212  0.2964 -0.1304
  713MOL0     C96153   3.232   0.205   1.134 -0.1031 -0.3015  0.5297
  713MOL0     C96154   3.102   0.254   1.171 -0.0290  0.3096  0.5288
  713MOL0     C96155   3.051   0.237   1.301 -0.1796  0.3357 -0.5756
  713MOL0     O96156   2.913   0.264   1.328 -0.3384  0.4541  0.5425
  713MOL0     C96157   2.865   0.394   1.285  0.1340  0.5895  0.5888
  713MOL0     C96158   2.749   0.419   1.373 -1.0233 -0.2935  0.6167
  713MOL0     C96159   2.807   0.457   1.508 -0.2371  0.1013 -0.5940
  713MOL0     C96160   2.691   0.508   1.600 -1.1097 -0.1744  0.0658
  713MOL0     C96161   2.734   0.548   1.741  0.2165  0.0614 -0.0466
  713MOL0     C96162   2.781   0.428   1.813  0.0011 -0.0918 -0.5005
  713MOL0     C96163   2.793   0.443   1.969  0.5650 -0.8925  0.1186
  713MOL0     C96164   2.890   0.553   2.008 -0.9013 -0.3970  0.9492
  713MOL0    Cl96165   3.069   0.511   1.962 -0.1039  0.2874  0.6370
  713MOL0     C96166   3.137   0.183   1.403  0.0547  0.0172  0.0677
  713MOL0     C96167   3.267   0.142   1.366 -0.3854 -0.5306  0.6690
  713MOL0     O96168   3.546   0.221   1.351  0.0217 -0.4416  0.7060
  713MOL0     C96169   3.802   0.182   1.245  0.9787 -0.1307 -0.3261
  713MOL0     C96170   3.934   0.174   1.197  0.6443  0.9608  0.0387
  713MOL0     N96171   4.420   0.399   0.528  0.6900 -0.2099  0.2461
  713MOL0     N96172   4.537   0.453   0.489 -0.1006 -0.1662 -0.0989
  713MOL0     C96173   5.868   0.816   0.471  0.2410  0.6503 -0.6628
  713MOL0     C96174   6.009   0.793   0.462 -1.3640  0.5682 -0.0937
  713MOL0     C96175   6.405   0.582   0.412  0.0293  0.1381 -0.6963
  713MOL0     C96176   6.472   0.626   0.521 -0.1760  1.0071 -0.4844
  713MOL0     C96177   6.613   0.623   0.525  1.1336  0.5154  0.2210
  713MOL0     C96178   6.690   0.560   0.422  0.2458  0.0520 -0.4455
  713MOL0     O96179   6.820   0.541   0.432  0.6116 -0.6949  0.8075
  713MOL0     C96180   6.887   0.595   0.546  0.2282  0.2261 -0.2164
  713MOL0     C96181   7.034   0.544   0.545  0.0002  0.5278  0.1645
  713MOL0     C96182   7.126   0.594   0.425 -0.0088 -0.2236 -0.7071
  713MOL0     C96183   7.260   0.518   0.419  0.0672  0.4828 -0.9976
  713MOL0     C96184   7.351   0.580   0.329  0.4864 -0.7422 -0.3566
  713MOL0     C96185   7.423   0.639   0.251  0.3363 -0.1119  0.6679
  713MOL0     C96186   6.620   0.501   0.315  0.1175 -0.1881  0.2480
  713MOL0     C96187   6.482   0.517   0.313  0.9165 -0.2919 -0.0789
  713MOL0     H96188   6.009   0.478   0.591  2.6495  2.3586  3.6405
  713MOL0     H96189   5.769   0.510   0.606 -1.6404  2.7444  4.5758
  713MOL0     H96190   5.564   0.549   0.474 -1.0627  0.5534 -1.2458
  713MOL0     H96191   5.538   0.610   0.644 -0.6683 -0.1961  0.8086
  713MOL0     H96192   5.395   0.787   0.543  1.1113 -0.1257  1.2605
  713MOL0     H96193   5.402   0.695   0.388 -2.0534 -3.4252 -0.0177
  713MOL0     H96194   5.301   0.499   0.521  1.9854 -0.9326  1.6149
  713MOL0     H96195   5.300   0.599   0.662 -0.7721 -4.1289  0.2402
  713MOL0     H96196   5.150   0.767   0.564 -0.7231  0.4201 -0.1679
  713MOL0     H96197   5.169   0.685   0.407 -2.4117  1.5121  0.3376
  713MOL0     H96198   5.054   0.484   0.498  0.6456  1.9024 -2.5645
  713MOL0     H96199   5.036   0.552   0.656  0.7043  0.4232  0.6746
  713MOL0     H96200   4.902   0.743   0.562 -2.5289  0.4819 -0.0269
  713MOL0     H96201   4.950   0.698   0.405  0.6909  1.3622  0.5917
  713MOL0     H96202   4.726   0.603   0.436 -0.7453  1.7874  1.1026
  713MOL0     H96203   4.835   0.472   0.422 -0.1150 -0.6329  1.0038
  713MOL0     H96204   4.743   0.594   0.690  0.0909  0.9301 -0.1828
  713MOL0     H96205   4.815   0.428   0.649  2.6235  1.0027 -0.6559
  713MOL0     H96206   4.553   0.420   0.819  1.6888  2.6468  0.9019
  713MOL0     H96207   4.246   0.400   0.800 -0.3241 -1.7132  1.5358
  713MOL0     H96208   4.213   0.271   0.693 -1.4877  2.8682 -0.1687
  713MOL0     H96209   4.345   0.257   0.958  0.0348  0.9467 -0.3307
  713MOL0     H96210   4.442   0.165   0.848 -0.7708 -1.9622  2.1123
  713MOL0     H96211   4.299   0.013   0.927  0.6391  1.1404 -0.5671
  713MOL0     H96212   4.268   0.024   0.756  0.8764 -0.2044  1.0488
  713MOL0     H96213   4.050   0.007   0.843  1.7368 -1.3294  2.2772
  713MOL0     H96214   4.068   0.188   0.840 -0.9148 -0.1023 -0.1784
  713MOL0     H96215   3.851   0.046   0.899  0.9487 -0.7624  0.3091
  713MOL0     H96216   3.527   0.163   0.950  0.4663  0.8184  5.0531
  713MOL0     H96217   3.619   0.050   0.850  0.6285 -1.1758 -0.0554
  713MOL0     H96218   3.523  -0.008   0.991 -1.4827  2.1487  0.4345
  713MOL0     H96219   3.268   0.204   1.031  1.9628 -0.4914  1.2034
  713MOL0     H96220   3.040   0.280   1.086  1.9778  0.0382 -1.0890
  713MOL0     H96221   2.927   0.484   1.283  1.4136 -0.2783 -0.3367
  713MOL0     H96222   2.819   0.384   1.186  0.6672  0.5018  0.3469
  713MOL0     H96223   2.688   0.492   1.320  0.3235 -1.4481 -2.8051
  713MOL0     H96224   2.686   0.330   1.383 -0.9339 -0.3578  0.6118
  713MOL0     H96225   2.884   0.534   1.513 -0.3312  0.1995 -0.6435
  713MOL0     H96226   2.858   0.368   1.547  2.0737  1.2214 -0.8754
  713MOL0     H96227   2.658   0.601   1.553 -2.1938 -0.6843 -0.2235
  713MOL0     H96228   2.607   0.438   1.604 -0.2302 -1.2506  0.1734
  713MOL0     H96229   2.655   0.604   1.792 -2.2521 -1.8542 -1.5518
  713MOL0     H96230   2.814   0.624   1.736 -3.0049  3.7391 -0.9521
  713MOL0     H96231   2.710   0.345   1.800 -0.1902 -0.2483  1.2749
  713MOL0     H96232   2.878   0.397   1.773 -0.5619  2.0688 -4.0008
  713MOL0     H96233   2.822   0.351   2.020  2.0141 -1.2576 -1.2700
  713MOL0     H96234   2.696   0.470   2.010  1.0650  2.4402 -0.5554
  713MOL0     H96235   2.888   0.558   2.117  0.9319  1.0424  0.9780
  713MOL0     H96236   2.864   0.647   1.958  0.1550 -0.8635 -0.5528
  713MOL0     H96237   3.108   0.177   1.507  3.2874  3.9113  1.4523
  713MOL0     H96238   3.332   0.119   1.450  0.7232 -0.8022 -0.2479
  713MOL0     H96239   3.768   0.232   1.336  0.0215  1.2335 -1.3892
  713MOL0     H96240   4.023   0.212   1.245  1.1664 -0.0656 -0.0800
  713MOL0     H96241   5.824   0.912   0.445 -0.9448 -0.2529 -2.1779
  713MOL0     H96242   6.068   0.878   0.430  0.3995 -0.4253  0.3992
  713MOL0     H96243   6.421   0.671   0.606 -0.3027  1.4491 -0.7922
  713MOL0     H96244   6.656   0.669   0.613 -3.3785 -0.3285  3.2031
  713MOL0     H96245   6.894   0.703   0.558 -0.5871  0.2217  0.3924
  713MOL0     H96246   6.839   0.564   0.639 -2.3394  2.8014 -0.5606
  713MOL0     H96247   7.031   0.435   0.553  1.4464  0.5491  1.9166
  713MOL0     H96248   7.082   0.563   0.642  1.5209 -0.6130 -0.3305
  713MOL0     H96249   7.131   0.701   0.446 -1.0498 -0.1334 -0.8243
  713MOL0     H96250   7.073   0.592   0.329  1.5032 -0.0233 -1.5638
  713MOL0     H96251   7.251   0.416   0.381  0.5671 -0.9294  2.3899
  713MOL0     H96252   7.302   0.512   0.519  0.2141  0.9254 -1.0314
  713MOL0     H96253   7.495   0.677   0.182  0.1281 -0.3367  0.3175
  713MOL0     H96254   6.660   0.445   0.231 -1.2088 -1.4048  0.3865
  713MOL0     H96255   6.425   0.468   0.235 -2.1574 -1.3323  2.5560
  714MOL0     O96256   8.000   9.584   4.829 -0.2656  0.2361 -0.3906
  714MOL0     C96257   8.084   9.669   4.798  1.0093  1.1015 -0.2807
  714MOL0     O96258   8.060   9.793   4.746  0.4287 -0.4130 -0.4752
  714MOL0     C96259   7.932   9.830   4.751 -0.2572 -0.2081  0.2901
  714MOL0     C96260   7.857   9.862   4.860  0.0638 -0.0651 -0.0858
  714MOL0     C96261   7.723   9.909   4.851 -0.9086 -0.0595  0.2522
  714MOL0     C96262   7.675   9.933   4.719 -0.0417  1.5374  1.1159
  714MOL0     O96263   7.552   9.976   4.691  0.5591  0.0369 -0.0533
  714MOL0     C96264   7.464  10.009   4.794 -0.2024  0.9777  0.4675
  714MOL0     C96265   7.325  10.039   4.742  0.7071  0.1089  0.4301
  714MOL0     C96266   7.248   9.924   4.672  0.4587  1.1692 -1.1404
  714MOL0     C96267   7.127   9.981   4.593  1.1044  0.0386  0.0827
  714MOL0     C96268   7.147  10.002   4.445  0.2705  0.4282  0.5550
  714MOL0     C96269   7.159   9.870   4.359  0.8298  0.2596 -0.2411
  714MOL0     C96270   7.033   9.778   4.357  0.1517 -0.0775  0.9501
  714MOL0     C96271   6.898   9.846   4.324 -0.0516  0.2415  0.3125
  714MOL0     N96272   6.866   9.849   4.184 -0.3492  0.4656  0.3774
  714MOL0     C96273   6.846   9.738   4.106 -0.2774  0.1344  0.5987
  714MOL0     C96274   6.811   9.787   3.984 -0.1988 -0.0262  0.3800
  714MOL0     C96275   6.781   9.712   3.857  0.3913 -0.1476 -0.1937
  714MOL0     C96276   6.679   9.601   3.876  0.3469  0.0414  1.2509
  714MOL0     C96277   6.534   9.651   3.898  0.1501  0.2378  0.6628
  714MOL0     C96278   6.442   9.634   3.770  0.3125  0.8230 -0.2339
  714MOL0     O96279   6.413   9.500   3.738 -0.1334 -0.2028  0.4321
  714MOL0     C96280   6.331   9.457   3.632  0.1451  0.5723 -0.3814
  714MOL0     C96281   6.326   9.320   3.607 -1.0715 -0.0124  0.0656
  714MOL0     C96282   6.245   9.263   3.508 -0.1775  0.7695 -0.7920
  714MOL0     C96283   6.254   9.114   3.494 -0.2511  0.0561  1.0085
  714MOL0     C96284   6.162   9.343   3.423 -0.1038  0.6225  0.1497
  714MOL0     C96285   6.072   9.296   3.313 -0.4343  0.1185  0.0267
  714MOL0     O96286   5.998   9.394   3.243  0.3619 -0.7154 -0.4884
  714MOL0     C96287   5.936   9.353   3.126 -0.0908  0.1661  0.4323
  714MOL0     C96288   6.015   9.315   3.017 -0.6803  0.2341  0.2303
  714MOL0     C96289   5.962   9.241   2.905  0.0355  0.1340 -0.2598
  714MOL0     C96290   5.829   9.202   2.902  0.4625  0.3556  0.1902
  714MOL0     O96291   5.784   9.130   2.789  0.2987 -0.4054  0.0270
  714MOL0     C96292   5.688   9.203   2.708  0.8809 -0.9585 -0.7943
  714MOL0     C96293   5.642   9.126   2.581  0.2364 -0.2039  0.8320
  714MOL0     C96294   5.577   8.992   2.613 -0.3007  0.0081  0.0205
  714MOL0     C96295   5.515   8.912   2.494  0.0681 -0.0641  0.4254
  714MOL0     C96296   5.457   8.771   2.538 -0.0261  0.1376  0.3199
  714MOL0     C96297   5.307   8.766   2.583  0.1460  0.1482 -0.8826
  714MOL0     C96298   5.273   8.635   2.651  0.0368 -0.2295  0.4162
  714MOL0     C96299   5.132   8.638   2.704 -0.3202  0.5883  0.3058
  714MOL0    Cl96300   5.087   8.486   2.783  0.1327  0.6650 -0.1883
  714MOL0     C96301   5.745   9.249   3.005  1.0005  0.1285  0.2294
  714MOL0     C96302   5.800   9.318   3.116  0.0576  0.1282  0.3381
  714MOL0     O96303   6.068   9.177   3.289 -0.4986 -0.0231 -0.6878
  714MOL0     C96304   6.179   9.487   3.444  0.0703 -0.8723 -0.0667
  714MOL0     C96305   6.254   9.543   3.549 -0.6834  0.7556  0.0215
  714MOL0     N96306   6.818   9.927   3.987  0.4811  0.3426 -0.6218
  714MOL0     N96307   6.847   9.960   4.107 -0.3220 -0.4971 -1.0544
  714MOL0     C96308   7.741   9.879   4.611 -0.5489 -1.0966 -0.0790
  714MOL0     C96309   7.870   9.831   4.620 -0.4975  0.8866 -0.3107
  714MOL0     C96310   8.221   9.612   4.808 -0.3782 -0.0582 -0.2631
  714MOL0     C96311   8.254   9.489   4.871  0.0792  0.1199  0.0835
  714MOL0     C96312   8.389   9.441   4.884 -0.0939 -0.1985 -0.4964
  714MOL0     C96313   8.496   9.518   4.849  1.0032  0.1960  0.1921
  714MOL0     O96314   8.616   9.460   4.867 -0.4876  0.6115 -0.3442
  714MOL0     C96315   8.740   9.526   4.821 -1.4301 -0.1451 -0.3030
  714MOL0     C96316   8.866   9.438   4.842  0.4865  0.2450  0.5939
  714MOL0     C96317   8.842   9.303   4.777 -0.7919  0.6913  0.9184
  714MOL0     C96318   8.969   9.251   4.699  0.4150  0.0914  0.2847
  714MOL0     C96319   8.951   9.117   4.647 -0.5196 -0.5235 -0.9953
  714MOL0     C96320   8.947   9.000   4.616 -0.8315 -0.1848 -0.4873
  714MOL0     C96321   8.460   9.643   4.798  0.7212  0.3993  0.3816
  714MOL0     C96322   8.326   9.690   4.785  0.2227  0.0968 -0.0664
  714MOL0     H96323   7.892   9.851   4.962  0.2588 -1.0070 -0.2372
  714MOL0     H96324   7.665   9.963   4.925 -2.0082  0.3271 -0.8527
  714MOL0     H96325   7.464   9.919   4.857  0.7096 -0.2587 -1.2310
  714MOL0     H96326   7.500  10.092   4.854 -1.5107  2.3400 -0.5639
  714MOL0     H96327   7.266  10.089   4.819 -0.4223  1.4460 -1.2555
  714MOL0     H96328   7.338  10.124   4.675 -0.8778  0.7446  0.8912
  714MOL0     H96329   7.313   9.861   4.611  0.3496  0.5598 -0.6345
  714MOL0     H96330   7.215   9.865   4.758  0.6899 -1.5359 -2.8154
  714MOL0     H96331   7.042   9.914   4.609  0.0804  1.0855 -0.8159
  714MOL0     H96332   7.100  10.077   4.639 -0.9518 -0.3320 -0.2617
  714MOL0     H96333   7.067  10.062   4.400 -0.3694 -2.1930 -2.2192
  714MOL0     H96334   7.240  10.054   4.423 -0.3406  1.7232  0.9801
  714MOL0     H96335   7.181   9.902   4.257 -0.1636  1.5250 -0.0888
  714MOL0     H96336   7.248   9.814   4.389  2.6358  0.8889 -3.9433
  714MOL0     H96337   7.055   9.698   4.287 -2.7228 -1.6640  1.6886
  714MOL0     H96338   7.020   9.730   4.454 -1.2342  0.4364  1.0459
  714MOL0     H96339   6.900   9.948   4.363 -1.0404  0.3163  0.1816
  714MOL0     H96340   6.829   9.782   4.380  1.4288 -0.0838  1.8527
  714MOL0     H96341   6.861   9.635   4.137 -0.8062 -0.4231 -0.9195
  714MOL0     H96342   6.740   9.780   3.781 -0.8828 -1.9633 -1.2273
  714MOL0     H96343   6.874   9.672   3.816  0.2181  0.3702 -1.1310
  714MOL0     H96344   6.710   9.540   3.961  0.0162  0.6312  1.8118
  714MOL0     H96345   6.680   9.532   3.791  0.0593  1.4971  0.0268
  714MOL0     H96346   6.526   9.755   3.934 -2.2229  1.0033 -1.7464
  714MOL0     H96347   6.486   9.592   3.976  1.7796  1.3996  2.6600
  714MOL0     H96348   6.489   9.691   3.689  1.4316  1.1357  0.6021
  714MOL0     H96349   6.344   9.674   3.796 -0.0133 -0.7042  0.9815
  714MOL0     H96350   6.396   9.264   3.668 -0.2177  0.8265 -0.1190
  714MOL0     H96351   6.174   9.065   3.550 -0.8009  0.1022  0.2735
  714MOL0     H96352   6.269   9.080   3.391  0.4147  1.3888  0.6273
  714MOL0     H96353   6.349   9.076   3.532  0.5770 -2.0666 -2.6569
  714MOL0     H96354   6.123   9.320   3.020 -0.4235 -1.9853 -1.8254
  714MOL0     H96355   6.033   9.210   2.829 -0.6592  0.5171 -1.0795
  714MOL0     H96356   5.596   9.210   2.767  0.9243 -3.0743 -0.4063
  714MOL0     H96357   5.718   9.306   2.685  0.7571 -0.8980 -0.6821
  714MOL0     H96358   5.567   9.183   2.525  2.0750 -1.4336 -3.3045
  714MOL0     H96359   5.728   9.126   2.513  1.3307  2.1805  2.0683
  714MOL0     H96360   5.495   9.006   2.684 -3.8196 -2.6038 -3.1014
  714MOL0     H96361   5.657   8.935   2.663 -1.4247 -0.7070  1.0397
  714MOL0     H96362   5.434   8.972   2.452 -0.2592 -1.0544 -0.4247
  714MOL0     H96363   5.597   8.900   2.422  0.8700 -1.7693  1.5711
  714MOL0     H96364   5.515   8.738   2.625  0.4964  0.3038  0.0390
  714MOL0     H96365   5.478   8.697   2.461 -0.9628 -1.1015  1.2000
  714MOL0     H96366   5.285   8.844   2.657 -1.4847 -1.2465  0.1688
  714MOL0     H96367   5.244   8.780   2.496  0.3727 -0.3986 -1.1377
  714MOL0     H96368   5.339   8.622   2.737 -0.3025  2.3349  1.1648
  714MOL0     H96369   5.269   8.559   2.573 -1.1183  2.8435 -2.7888
  714MOL0     H96370   5.049   8.655   2.634 -1.0157  0.3795  1.0637
  714MOL0     H96371   5.136   8.724   2.772 -2.5500  1.3902 -0.4804
  714MOL0     H96372   5.637   9.242   3.005  0.8725  1.5456  1.7730
  714MOL0     H96373   5.736   9.337   3.201 -0.3384  1.0238 -0.1486
  714MOL0     H96374   6.133   9.552   3.371  3.8408  0.1216 -1.8242
  714MOL0     H96375   6.270   9.650   3.551  0.8917  0.5388  0.2136
  714MOL0     H96376   7.695   9.886   4.513  0.0778  0.9673 -0.2636
  714MOL0     H96377   7.921   9.802   4.529  0.0427  0.6490  0.0598
  714MOL0     H96378   8.176   9.421   4.902 -1.1326  0.9954 -0.9141
  714MOL0     H96379   8.408   9.340   4.919  1.0049  0.0878 -0.2311
  714MOL0     H96380   8.720   9.559   4.718 -0.3781  2.0406  0.1502
  714MOL0     H96381   8.762   9.615   4.881 -3.2379 -1.3353  2.3283
  714MOL0     H96382   8.864   9.419   4.949 -2.9666  1.8716  0.9719
  714MOL0     H96383   8.956   9.488   4.806  1.1393  1.1362  3.2577
  714MOL0     H96384   8.754   9.309   4.711  1.6064  0.5625 -2.5633
  714MOL0     H96385   8.810   9.232   4.853 -1.5926 -1.5255 -1.3452
  714MOL0     H96386   9.058   9.245   4.764  2.5246 -0.3511 -2.4573
  714MOL0     H96387   8.990   9.318   4.616 -0.8690  0.2076  0.0352
  714MOL0     H96388   8.949   8.898   4.583 -1.5511  0.1452 -1.6005
  714MOL0     H96389   8.536   9.712   4.765  0.6928  1.6569  2.7384
  714MOL0     H96390   8.313   9.790   4.746 -0.1110 -0.9980 -3.0726
  715MOL0     O96391  10.881   1.921   7.702 -0.5335 -0.9382 -0.0963
  715MOL0     C96392  10.944   1.927   7.593  0.0147 -0.2174  0.3136
  715MOL0     O96393  10.908   1.880   7.476 -1.2958  0.5479  0.3893
  715MOL0     C96394  10.787   1.817   7.477 -0.4195 -0.4288 -0.6405
  715MOL0     C96395  10.697   1.865   7.389 -0.3534  0.6865  1.3376
  715MOL0     C96396  10.560   1.805   7.375 -0.5661  0.9083 -0.2982
  715MOL0     C96397  10.532   1.689   7.455 -0.2970  0.3247  0.1209
  715MOL0     O96398  10.409   1.632   7.443 -0.3560 -0.2916  0.4684
  715MOL0     C96399  10.348   1.599   7.568  0.3652  0.5894 -0.2373
  715MOL0     C96400  10.205   1.564   7.539  0.3238 -0.0866 -0.3279
  715MOL0     C96401  10.127   1.519   7.661  0.1089 -0.1735 -0.4625
  715MOL0     C96402   9.980   1.503   7.616 -0.2732  0.3774  0.3101
  715MOL0     C96403   9.896   1.437   7.722  0.1926  0.0361  0.6150
  715MOL0     C96404   9.749   1.443   7.685 -0.3083  0.2825  0.3816
  715MOL0     C96405   9.668   1.323   7.741 -0.4130 -0.0365 -0.2904
  715MOL0     C96406   9.521   1.332   7.711  0.1300  0.1966 -0.0360
  715MOL0     N96407   9.445   1.230   7.775 -0.3417  0.6425 -0.5907
  715MOL0     C96408   9.405   1.113   7.715 -0.0077 -0.0095 -0.0540
  715MOL0     C96409   9.312   1.058   7.794  0.7919  0.1638 -0.7340
  715MOL0     C96410   9.259   0.924   7.775  0.6032  0.2164 -0.5971
  715MOL0     C96411   9.149   0.911   7.673 -0.0673  0.0818 -0.2240
  715MOL0     C96412   9.023   0.978   7.725  0.7011 -0.4833  0.3377
  715MOL0     C96413   8.953   0.889   7.823  0.2524  0.1363 -0.7352
  715MOL0     O96414   8.895   0.781   7.753 -0.2379 -0.3529  0.3008
  715MOL0     C96415   8.796   0.703   7.808  0.3792 -0.6234 -0.2418
  715MOL0     C96416   8.788   0.669   7.938  0.2519 -0.3595 -0.0852
  715MOL0     C96417   8.707   0.568   7.996  1.5685 -0.1124  1.0168
  715MOL0     C96418   8.730   0.539   8.138 -0.2938  1.2320  0.4878
  715MOL0     C96419   8.613   0.506   7.913  0.5238 -0.0117 -0.4041
  715MOL0     C96420   8.517   0.395   7.960 -0.3018  0.1385 -0.1433
  715MOL0     O96421   8.412   0.363   7.873 -0.7085 -0.2869 -0.2581
  715MOL0     C96422   8.347   0.250   7.900 -0.0555  0.0531 -0.7819
  715MOL0     C96423   8.355   0.142   7.814  0.4644 -1.5677  0.4751
  715MOL0     C96424   8.285   0.024   7.844  0.3179 -0.5214  1.3176
  715MOL0     C96425   8.194   0.014   7.950 -0.1340  0.5472 -0.7461
  715MOL0     O96426   8.104  -0.087   7.952 -0.6074  0.1518  0.0744
  715MOL0     C96427   8.018  -0.087   8.063  0.4371 -1.0193 -0.3370
  715MOL0     C96428   7.905  -0.200   8.046 -1.0952 -0.0110 -0.6595
  715MOL0     C96429   7.825  -0.176   7.917  0.2326  0.2353 -0.2934
  715MOL0     C96430   7.686  -0.249   7.908 -0.4436 -0.1051 -0.4808
  715MOL0     C96431   7.580  -0.164   7.843  0.4462  0.0906 -0.0316
  715MOL0     C96432   7.582  -0.165   7.684  0.1354  0.2722  0.3855
  715MOL0     C96433   7.570  -0.307   7.623  0.0748 -0.9536  0.7497
  715MOL0     C96434   7.623  -0.318   7.481 -0.7431  0.2881  0.9850
  715MOL0    Cl96435   7.611  -0.488   7.406 -0.2144  0.0541 -0.4450
  715MOL0     C96436   8.194   0.120   8.044 -0.4488  0.4735 -0.1845
  715MOL0     C96437   8.268   0.234   8.014 -0.4640  0.2515 -0.5313
  715MOL0     O96438   8.555   0.327   8.054 -0.1053 -0.2716 -0.0889
  715MOL0     C96439   8.609   0.549   7.781  0.3874  0.2874 -0.4971
  715MOL0     C96440   8.699   0.647   7.728 -0.7833  0.1005  0.2439
  715MOL0     N96441   9.284   1.139   7.902 -0.5552 -0.1140 -0.6655
  715MOL0     N96442   9.379   1.231   7.896  0.5378  0.2189  0.1117
  715MOL0     C96443  10.627   1.650   7.554  0.3190 -0.2151 -0.1301
  715MOL0     C96444  10.752   1.711   7.564  0.1807 -0.1522 -0.4171
  715MOL0     C96445  11.077   1.986   7.599 -0.6250 -0.2456  0.3896
  715MOL0     C96446  11.188   1.935   7.518 -0.2805  0.2718 -0.2570
  715MOL0     C96447  11.318   1.972   7.543 -0.7464 -1.1656 -0.2190
  715MOL0     C96448  11.342   2.083   7.625  1.0634 -0.5483 -0.5506
  715MOL0     O96449  11.466   2.126   7.647 -0.8115 -0.4200 -0.4527
  715MOL0     C96450  11.501   2.224   7.742  0.1312  1.1687 -0.6276
  715MOL0     C96451  11.654   2.241   7.732 -0.5325  0.8146 -0.5296
  715MOL0     C96452  11.728   2.117   7.771 -0.1670 -0.0606  0.0977
  715MOL0     C96453  11.870   2.131   7.805 -0.8918  1.1447 -0.0443
  715MOL0     C96454  11.952   2.172   7.686  0.8243  0.4181 -0.4542
  715MOL0     C96455  12.040   2.182   7.600  0.1558  0.7124 -1.0599
  715MOL0     C96456  11.229   2.149   7.680  0.3408 -0.3158  0.0929
  715MOL0     C96457  11.101   2.098   7.681 -0.6191  0.0382  0.4718
  715MOL0     H96458  10.720   1.953   7.329 -0.5897  0.0742  0.3209
  715MOL0     H96459  10.483   1.853   7.316 -1.3254 -2.1827 -2.0509
  715MOL0     H96460  10.399   1.511   7.607  1.5481  0.3726 -2.1487
  715MOL0     H96461  10.359   1.680   7.640 -2.8368 -0.1994  1.3142
  715MOL0     H96462  10.160   1.648   7.486  1.3546 -0.4750 -1.8870
  715MOL0     H96463  10.212   1.480   7.470  0.0014 -1.5330  1.3410
  715MOL0     H96464  10.172   1.435   7.714 -0.6641 -0.4793 -0.2852
  715MOL0     H96465  10.121   1.599   7.736 -0.7971 -0.4162 -0.2664
  715MOL0     H96466   9.937   1.601   7.592  0.4894  0.8551  0.8591
  715MOL0     H96467   9.976   1.448   7.521 -0.3281  3.1469 -1.4117
  715MOL0     H96468   9.925   1.332   7.733 -3.5456 -1.1413  0.6092
  715MOL0     H96469   9.908   1.481   7.822 -1.6747 -0.6107  1.1759
  715MOL0     H96470   9.714   1.533   7.737  1.7252  0.0681  2.2508
  715MOL0     H96471   9.727   1.441   7.578 -3.4549 -1.2587  0.9197
  715MOL0     H96472   9.709   1.231   7.698  1.2724 -0.2630  1.6626
  715MOL0     H96473   9.686   1.310   7.848 -0.9012 -2.1648 -0.4301
  715MOL0     H96474   9.504   1.316   7.604 -2.5275 -0.1984  0.3665
  715MOL0     H96475   9.487   1.434   7.732  1.4800  0.7415 -0.3807
  715MOL0     H96476   9.449   1.070   7.626  0.2919 -2.0402  1.0081
  715MOL0     H96477   9.345   0.866   7.742  0.7226  0.5344 -0.8441
  715MOL0     H96478   9.220   0.885   7.870 -2.1113 -0.2904 -1.8147
  715MOL0     H96479   9.138   0.804   7.655  1.1618 -0.2219  0.6978
  715MOL0     H96480   9.177   0.954   7.576 -0.4940  1.0744  0.0799
  715MOL0     H96481   8.953   1.007   7.646  0.5933  0.0423  0.6246
  715MOL0     H96482   9.051   1.072   7.772  1.0245 -0.0639 -0.6660
  715MOL0     H96483   8.889   0.948   7.889  1.0274 -0.3823  0.5221
  715MOL0     H96484   9.022   0.847   7.897  0.8196  1.4297 -0.4958
  715MOL0     H96485   8.870   0.711   7.996  0.8675  1.5022 -2.1566
  715MOL0     H96486   8.752   0.432   8.144  1.0910  1.3487 -1.4659
  715MOL0     H96487   8.820   0.588   8.179  0.1028  0.3126  0.7372
  715MOL0     H96488   8.643   0.571   8.195 -1.7620  1.9935 -2.0251
  715MOL0     H96489   8.421   0.149   7.728 -0.1965  1.1757  0.1132
  715MOL0     H96490   8.294  -0.051   7.766  0.7626 -0.9746  1.7965
  715MOL0     H96491   8.076  -0.098   8.155  1.1987 -1.2964 -0.8484
  715MOL0     H96492   7.962   0.007   8.074 -0.7126 -1.7403  0.1659
  715MOL0     H96493   7.953  -0.298   8.036 -2.5080 -0.7540 -0.4532
  715MOL0     H96494   7.829  -0.197   8.125 -1.6746 -1.3993 -1.1219
  715MOL0     H96495   7.884  -0.209   7.832 -1.8110 -0.8200 -1.3824
  715MOL0     H96496   7.808  -0.068   7.912  2.5585  0.6515  0.0210
  715MOL0     H96497   7.698  -0.353   7.877  1.8588  0.7236 -2.6252
  715MOL0     H96498   7.652  -0.248   8.012  1.4135  1.7301  0.1728
  715MOL0     H96499   7.583  -0.060   7.878 -0.4806 -1.2178  4.5891
  715MOL0     H96500   7.480  -0.196   7.872  0.3308 -2.9846 -3.2115
  715MOL0     H96501   7.504  -0.096   7.652 -0.8205 -2.0040 -2.4951
  715MOL0     H96502   7.679  -0.129   7.648 -0.8510  0.7861 -1.9124
  715MOL0     H96503   7.466  -0.339   7.620 -0.6202  0.9789  2.2623
  715MOL0     H96504   7.632  -0.377   7.680 -2.3021 -1.1406  3.2866
  715MOL0     H96505   7.728  -0.287   7.479 -1.0689  1.4242  0.2945
  715MOL0     H96506   7.569  -0.256   7.408  0.0501  0.1084  0.2363
  715MOL0     H96507   8.127   0.139   8.127  0.2972  1.5800  0.1873
  715MOL0     H96508   8.261   0.316   8.084  0.4102  0.9377 -1.2334
  715MOL0     H96509   8.539   0.513   7.707  0.4810 -1.1425  0.0690
  715MOL0     H96510   8.699   0.661   7.620 -3.6661 -0.0109  0.1545
  715MOL0     H96511  10.606   1.579   7.634 -1.6719 -1.3532 -1.5755
  715MOL0     H96512  10.823   1.680   7.639 -0.1038 -0.5592 -0.3090
  715MOL0     H96513  11.165   1.857   7.446  0.9806  0.7242 -1.1760
  715MOL0     H96514  11.413   1.938   7.504  0.2668  0.8985  0.2813
  715MOL0     H96515  11.453   2.320   7.724 -1.0826  1.2950  2.6582
  715MOL0     H96516  11.484   2.185   7.842  2.7722 -1.3785 -1.0433
  715MOL0     H96517  11.682   2.326   7.794  0.1139 -0.2999  0.7502
  715MOL0     H96518  11.669   2.261   7.625 -4.1783 -1.3087 -1.6508
  715MOL0     H96519  11.721   2.046   7.688  4.0670 -0.6257 -0.0338
  715MOL0     H96520  11.678   2.075   7.859 -3.1068  1.6814 -0.6184
  715MOL0     H96521  11.894   2.031   7.841  0.6984  1.3741 -0.3764
  715MOL0     H96522  11.885   2.196   7.892  1.6334 -0.7201  1.0437
  715MOL0     H96523  12.120   2.197   7.531 -0.6055 -2.1560 -2.7142
  715MOL0     H96524  11.244   2.243   7.732 -0.6600 -0.2748  0.3303
  715MOL0     H96525  11.018   2.153   7.723 -0.0215  0.7456  0.7508
  716MOL0     O96526   0.074   7.504   5.481  0.2220  0.5054 -0.6411
  716MOL0     C96527   0.110   7.618   5.515 -0.9253  0.2964 -0.7221
  716MOL0     O96528   0.044   7.736   5.471 -0.1315 -0.1523 -0.0506
  716MOL0     C96529  -0.065   7.720   5.386 -0.5320  0.0738  0.5687
  716MOL0     C96530  -0.043   7.686   5.253 -0.2870 -0.7087 -0.1102
  716MOL0     C96531  -0.152   7.679   5.171 -0.8327 -0.2781 -0.1405
  716MOL0     C96532  -0.280   7.708   5.212  0.1779 -0.2644  0.4441
  716MOL0     O96533  -0.368   7.699   5.108  0.5118  0.3948  0.8367
  716MOL0     C96534  -0.494   7.759   5.121  0.3802 -0.2297 -0.1467
  716MOL0     C96535  -0.566   7.764   4.989  0.2081 -0.4825  0.3939
  716MOL0     C96536  -0.592   7.625   4.937 -0.0975  0.7230  0.0341
  716MOL0     C96537  -0.651   7.622   4.793  0.3817 -0.1094 -0.8567
  716MOL0     C96538  -0.661   7.480   4.724 -0.3949 -0.0471  0.3630
  716MOL0     C96539  -0.767   7.391   4.787  0.0047  0.7569 -0.0724
  716MOL0     C96540  -0.907   7.406   4.728 -0.4133 -0.2970  0.4665
  716MOL0     C96541  -1.014   7.299   4.773 -0.7756  0.4764 -0.1067
  716MOL0     N96542  -1.133   7.294   4.688  1.2786  0.2627 -0.8930
  716MOL0     C96543  -1.179   7.359   4.580 -0.2849  0.0864  0.4706
  716MOL0     C96544  -1.299   7.317   4.542  0.0803 -0.5279  0.4300
  716MOL0     C96545  -1.359   7.375   4.414 -1.0489  0.1696  0.9899
  716MOL0     C96546  -1.446   7.496   4.425  0.0668  0.5645 -0.4281
  716MOL0     C96547  -1.488   7.556   4.287 -0.2383 -0.1232 -0.2710
  716MOL0     C96548  -1.506   7.709   4.290  0.5573  0.5960  0.4400
  716MOL0     O96549  -1.613   7.716   4.394 -0.5950 -0.2270 -0.4601
  716MOL0     C96550  -1.744   7.696   4.379  0.5550  0.4406  0.6271
  716MOL0     C96551  -1.799   7.702   4.252 -0.1208 -1.1296 -0.5131
  716MOL0     C96552  -1.933   7.670   4.221 -0.7204 -1.3433  0.9311
  716MOL0     C96553  -1.981   7.657   4.074  0.1114 -0.5998  0.2332
  716MOL0     C96554  -2.025   7.657   4.330  0.1719  0.0585 -0.6291
  716MOL0     C96555  -2.174   7.644   4.318 -0.1180  0.1093 -0.1779
  716MOL0     O96556  -2.232   7.663   4.202  0.1937 -0.6509  0.1136
  716MOL0     C96557  -2.364   7.696   4.192 -0.0293  0.1755 -0.1307
  716MOL0     C96558  -2.470   7.657   4.278  0.0491 -0.1770  0.1472
  716MOL0     C96559  -2.601   7.690   4.251 -0.7359  0.7261 -0.3835
  716MOL0     C96560  -2.629   7.758   4.134  1.1335  0.5472 -0.0803
  716MOL0     O96561  -2.757   7.792   4.108 -0.3681  0.4680  0.6760
  716MOL0     C96562  -2.806   7.722   3.994 -0.3788  0.6638  0.2497
  716MOL0     C96563  -2.951   7.701   4.003  0.4404 -0.1614  0.6341
  716MOL0     C96564  -3.006   7.643   3.876 -0.2544 -0.4704 -0.6142
  716MOL0     C96565  -3.001   7.725   3.738  0.9713  0.2414  0.2663
  716MOL0     C96566  -3.082   7.653   3.625 -0.5678  0.4608  0.4468
  716MOL0     C96567  -3.054   7.691   3.482 -0.7438 -0.7751  0.1130
  716MOL0     C96568  -3.025   7.842   3.470 -0.5727 -0.0687 -0.0059
  716MOL0     C96569  -3.028   7.907   3.329  0.4284  0.2329  0.4310
  716MOL0    Cl96570  -3.191   7.926   3.253 -0.5082  0.2025 -0.6159
  716MOL0     C96571  -2.524   7.800   4.052 -0.0491 -0.3645  0.6334
  716MOL0     C96572  -2.389   7.768   4.072 -0.1765 -0.4083 -0.5636
  716MOL0     O96573  -2.235   7.616   4.422  0.3579  0.1986 -0.2864
  716MOL0     C96574  -1.963   7.665   4.465 -0.4717  0.1212  0.2790
  716MOL0     C96575  -1.826   7.682   4.491 -0.1723  0.1004 -0.8650
  716MOL0     N96576  -1.343   7.220   4.625  0.2738 -0.1740 -0.1985
  716MOL0     N96577  -1.248   7.210   4.717 -0.5008 -0.0829  0.4511
  716MOL0     C96578  -0.297   7.751   5.352 -0.3952 -0.6337  0.5116
  716MOL0     C96579  -0.194   7.745   5.439 -0.4191  1.1691  0.0630
  716MOL0     C96580   0.237   7.621   5.602  0.3891 -0.5435 -0.5726
  716MOL0     C96581   0.298   7.742   5.639 -0.5780  0.3224 -0.1857
  716MOL0     C96582   0.415   7.746   5.714  0.3073  0.2448 -0.7726
  716MOL0     C96583   0.480   7.625   5.756 -0.3664 -0.3734  0.0389
  716MOL0     O96584   0.595   7.632   5.829  0.1449  0.6560 -0.0756
  716MOL0     C96585   0.655   7.501   5.865 -0.3085  0.4732 -0.6484
  716MOL0     C96586   0.778   7.539   5.954  0.2320  0.5752  0.4724
  716MOL0     C96587   0.751   7.568   6.096  0.4275  0.7729 -0.3034
  716MOL0     C96588   0.889   7.569   6.166  0.1438  0.4084 -0.2280
  716MOL0     C96589   0.872   7.615   6.305  0.5735  0.5170 -0.6506
  716MOL0     C96590   0.856   7.646   6.413  0.3136  0.4252 -0.5972
  716MOL0     C96591   0.416   7.499   5.719 -0.5241 -0.2794 -0.0993
  716MOL0     C96592   0.293   7.499   5.642  0.1344  0.8647 -0.0516
  716MOL0     H96593   0.053   7.662   5.210  0.0937  0.4456  0.0674
  716MOL0     H96594  -0.123   7.644   5.072  0.0338  2.6512 -1.0355
  716MOL0     H96595  -0.555   7.695   5.186  0.7225 -3.0380 -2.3732
  716MOL0     H96596  -0.486   7.857   5.168 -2.0050 -1.2303  2.7019
  716MOL0     H96597  -0.659   7.818   5.009  0.7565  0.4554  0.4443
  716MOL0     H96598  -0.508   7.821   4.916 -3.0569  1.7664 -0.6717
  716MOL0     H96599  -0.496   7.573   4.942 -0.9432 -0.8427  0.7486
  716MOL0     H96600  -0.651   7.569   5.010 -0.9946 -4.0241 -3.8276
  716MOL0     H96601  -0.748   7.671   4.784  0.7504  0.6753 -0.7087
  716MOL0     H96602  -0.584   7.677   4.726  0.6643 -1.6438 -1.8920
  716MOL0     H96603  -0.680   7.499   4.618 -0.4416  2.2397  0.7279
  716MOL0     H96604  -0.562   7.433   4.724  1.3036  3.2083 -0.9426
  716MOL0     H96605  -0.738   7.289   4.762  2.1293  1.7123 -1.7788
  716MOL0     H96606  -0.785   7.394   4.895 -2.3773  1.7766 -0.4187
  716MOL0     H96607  -0.949   7.507   4.736 -0.7752 -0.3857 -0.2934
  716MOL0     H96608  -0.888   7.389   4.622 -0.2004 -1.3379  0.6637
  716MOL0     H96609  -1.048   7.320   4.874 -0.6920 -1.2990  0.3348
  716MOL0     H96610  -0.975   7.197   4.779 -1.2666  0.3083  0.3180
  716MOL0     H96611  -1.117   7.428   4.523  1.0507 -1.6894 -0.3364
  716MOL0     H96612  -1.284   7.392   4.337 -4.7257  0.8425 -2.8652
  716MOL0     H96613  -1.427   7.298   4.376 -3.8319  1.4419  2.9971
  716MOL0     H96614  -1.379   7.556   4.488  0.6942 -1.4699  0.9438
  716MOL0     H96615  -1.536   7.478   4.484 -1.0983  0.0773 -2.2701
  716MOL0     H96616  -1.585   7.516   4.255 -0.4754  0.6130 -0.5019
  716MOL0     H96617  -1.406   7.531   4.220  3.0306  2.6855  2.2939
  716MOL0     H96618  -1.516   7.764   4.196 -1.3586 -1.4092 -0.6150
  716MOL0     H96619  -1.417   7.757   4.332 -0.1004  3.2241 -0.9402
  716MOL0     H96620  -1.741   7.726   4.164 -1.5835 -3.2695 -2.1833
  716MOL0     H96621  -2.063   7.587   4.057  1.0328 -1.3446 -1.3676
  716MOL0     H96622  -2.021   7.750   4.033  3.5728  0.2011 -1.7526
  716MOL0     H96623  -1.893   7.638   4.012  1.3607  2.0927  1.0264
  716MOL0     H96624  -2.461   7.602   4.371 -2.8534  0.7975  1.1152
  716MOL0     H96625  -2.684   7.658   4.313 -0.6632  2.8459  0.9083
  716MOL0     H96626  -2.784   7.774   3.900 -1.2957 -1.3978 -1.1815
  716MOL0     H96627  -2.766   7.625   3.965 -1.3951  0.1301  0.5497
  716MOL0     H96628  -2.981   7.632   4.083 -1.9742 -0.8706 -0.7824
  716MOL0     H96629  -2.991   7.802   4.018 -1.0107 -0.6053  0.0258
  716MOL0     H96630  -3.114   7.636   3.893 -0.1990  0.7989  0.4192
  716MOL0     H96631  -2.964   7.543   3.862 -0.7931 -0.6552 -0.9371
  716MOL0     H96632  -3.048   7.823   3.753 -2.8389 -1.5168  0.8766
  716MOL0     H96633  -2.896   7.734   3.706  1.3623  0.3931  1.5312
  716MOL0     H96634  -3.187   7.676   3.647 -0.8734  1.8210 -2.0624
  716MOL0     H96635  -3.080   7.546   3.644 -0.4591  0.0962 -1.4502
  716MOL0     H96636  -2.961   7.641   3.453  0.3239  0.7944  0.7102
  716MOL0     H96637  -3.133   7.652   3.416  0.5232 -0.7503 -1.4654
  716MOL0     H96638  -2.930   7.868   3.518 -1.3277  0.9565  1.0129
  716MOL0     H96639  -3.103   7.898   3.523  0.2146  1.5395 -0.4988
  716MOL0     H96640  -2.958   7.863   3.258  1.2051  1.6825  0.2591
  716MOL0     H96641  -2.992   8.009   3.347 -1.8759  0.7944  2.4841
  716MOL0     H96642  -2.558   7.865   3.972  1.7741 -0.0244  0.0919
  716MOL0     H96643  -2.308   7.799   4.007 -0.0560 -1.2562 -0.8368
  716MOL0     H96644  -2.024   7.642   4.551  1.6877  0.0091  1.8647
  716MOL0     H96645  -1.786   7.670   4.591 -0.4822 -1.3390 -0.8920
  716MOL0     H96646  -0.391   7.792   5.387  0.4757  1.4179  0.5935
  716MOL0     H96647  -0.203   7.758   5.546  1.1944  2.0188  0.1377
  716MOL0     H96648   0.242   7.833   5.624 -1.9165 -0.6938 -1.7318
  716MOL0     H96649   0.452   7.841   5.752 -1.7668  1.2074 -1.0439
  716MOL0     H96650   0.587   7.438   5.924  1.2150 -0.2484  0.3993
  716MOL0     H96651   0.682   7.437   5.781  1.9139 -2.5837  2.1248
  716MOL0     H96652   0.823   7.629   5.910  0.4494  0.4616  0.4641
  716MOL0     H96653   0.840   7.450   5.946 -1.4211 -0.4756 -2.1045
  716MOL0     H96654   0.696   7.486   6.142  0.2531  0.2313 -1.4500
  716MOL0     H96655   0.700   7.661   6.122 -0.8584 -0.2707  1.1007
  716MOL0     H96656   0.954   7.636   6.109 -1.1021 -0.9593 -3.5114
  716MOL0     H96657   0.936   7.471   6.167 -1.0675 -0.1999 -0.8145
  716MOL0     H96658   0.837   7.671   6.515  0.4157 -1.1859 -0.1649
  716MOL0     H96659   0.459   7.409   5.759  0.7324  0.1543 -0.4367
  716MOL0     H96660   0.248   7.404   5.616 -1.6167  1.8641 -0.8635
  717MOL0     O96661  10.839  11.050   4.737 -0.9045 -0.5284 -0.6560
  717MOL0     C96662  10.944  11.103   4.708 -1.2223 -0.2964 -0.0096
  717MOL0     O96663  10.965  11.175   4.598  0.5395  0.3032  0.3554
  717MOL0     C96664  10.853  11.211   4.533  0.6255  0.0190  0.4039
  717MOL0     C96665  10.817  11.357   4.511  0.6506  0.2040 -0.4053
  717MOL0     C96666  10.717  11.395   4.417 -0.0008  0.4726  0.8154
  717MOL0     C96667  10.655  11.295   4.333 -0.6138 -0.2570 -0.6328
  717MOL0     O96668  10.563  11.336   4.236 -0.2096  0.0451  0.0812
  717MOL0     C96669  10.453  11.249   4.217  0.1422  1.7006 -0.0412
  717MOL0     C96670  10.355  11.311   4.122 -0.6404 -0.3720  0.2750
  717MOL0     C96671  10.292  11.443   4.168 -0.1936 -0.1032  1.1050
  717MOL0     C96672  10.185  11.494   4.065 -0.4555  0.1743  0.7954
  717MOL0     C96673  10.081  11.580   4.132  0.2952  0.1927  0.3361
  717MOL0     C96674   9.933  11.519   4.118  0.4609  1.1361  0.4458
  717MOL0     C96675   9.909  11.425   4.245 -0.6463  0.0461 -0.3733
  717MOL0     C96676   9.780  11.350   4.216 -0.3484  0.5582  0.6555
  717MOL0     N96677   9.667  11.435   4.241 -0.1177  0.3797 -0.0150
  717MOL0     C96678   9.619  11.469   4.367 -0.3480 -0.4662 -0.0774
  717MOL0     C96679   9.516  11.551   4.347  0.3981 -0.2323 -0.5100
  717MOL0     C96680   9.437  11.634   4.450  0.1162  0.2709  0.4943
  717MOL0     C96681   9.373  11.550   4.562  0.2777 -0.5643 -0.2114
  717MOL0     C96682   9.298  11.416   4.516 -1.0114  0.1007 -0.5527
  717MOL0     C96683   9.190  11.449   4.415  0.3757 -0.0705  0.2916
  717MOL0     O96684   9.086  11.347   4.397 -0.0360  0.8267  0.0103
  717MOL0     C96685   9.107  11.224   4.330  0.2937 -0.7196 -1.2338
  717MOL0     C96686   8.990  11.139   4.341  0.1883 -0.2553 -0.0369
  717MOL0     C96687   8.987  11.007   4.295 -0.9840  0.4535  0.4658
  717MOL0     C96688   8.851  10.949   4.288 -0.2261 -0.6312  0.5664
  717MOL0     C96689   9.118  10.943   4.276 -0.2711 -0.1110  0.2887
  717MOL0     C96690   9.136  10.802   4.233 -0.4641 -0.2680 -0.2980
  717MOL0     O96691   9.030  10.716   4.222 -0.2152 -0.1881  0.8445
  717MOL0     C96692   9.077  10.582   4.216 -0.9573 -0.1615  0.9775
  717MOL0     C96693   9.136  10.523   4.102 -0.5211  0.2655  0.0180
  717MOL0     C96694   9.156  10.381   4.104 -0.5889 -0.1086 -0.5973
  717MOL0     C96695   9.134  10.311   4.218 -0.3208  0.2212  0.6573
  717MOL0     O96696   9.174  10.179   4.222  0.2686  0.4731 -0.8062
  717MOL0     C96697   9.158  10.112   4.348 -0.1273 -0.3749  0.0529
  717MOL0     C96698   9.222   9.975   4.335 -0.1566 -0.6625  0.4156
  717MOL0     C96699   9.153   9.894   4.222 -0.6801  0.2450  0.7739
  717MOL0     C96700   9.074   9.775   4.276  0.4209  0.3864 -0.3769
  717MOL0     C96701   9.035   9.682   4.154 -0.3635  0.1851 -0.4233
  717MOL0     C96702   9.153   9.619   4.076 -0.3972  0.1661  0.2027
  717MOL0     C96703   9.094   9.515   3.974 -0.2837 -0.5399  0.2020
  717MOL0     C96704   9.194   9.457   3.868  0.3214 -0.1394 -0.0144
  717MOL0    Cl96705   9.342   9.397   3.950  0.1672  0.1056 -0.1950
  717MOL0     C96706   9.059  10.363   4.330 -0.8480  0.4999  0.2560
  717MOL0     C96707   9.046  10.506   4.334 -0.1694  0.4206 -0.2818
  717MOL0     O96708   9.248  10.781   4.183  0.3622  0.2181 -0.2355
  717MOL0     C96709   9.230  11.032   4.287  0.3434  0.3104  0.4504
  717MOL0     C96710   9.227  11.171   4.305 -0.5409 -0.3018  0.6336
  717MOL0     N96711   9.496  11.566   4.212 -0.6118 -0.3217  0.2968
  717MOL0     N96712   9.594  11.496   4.151  0.1025 -0.1726  0.5340
  717MOL0     C96713  10.688  11.159   4.362  0.6606  0.4984  0.3528
  717MOL0     C96714  10.784  11.122   4.455  0.2300  0.5465  0.3028
  717MOL0     C96715  11.049  11.106   4.817 -0.6202  0.0506  0.0276
  717MOL0     C96716  11.117  11.229   4.851 -0.1705  0.1374  0.2819
  717MOL0     C96717  11.208  11.238   4.962  0.0864  0.5628  0.2715
  717MOL0     C96718  11.212  11.137   5.062 -0.8448 -0.2952  0.7760
  717MOL0     O96719  11.276  11.133   5.180 -0.2761  0.4794 -0.1602
  717MOL0     C96720  11.351  11.246   5.230  0.3315 -0.7068 -0.0935
  717MOL0     C96721  11.458  11.191   5.324  0.2224  0.6129  0.1475
  717MOL0     C96722  11.545  11.284   5.400 -0.4887  0.2916 -0.1905
  717MOL0     C96723  11.671  11.320   5.323 -0.2352 -0.0130 -0.9165
  717MOL0     C96724  11.734  11.446   5.376 -0.1667 -0.0111  0.3583
  717MOL0     C96725  11.776  11.559   5.412 -0.1890 -0.1066  0.4668
  717MOL0     C96726  11.150  11.018   5.018  0.2423  0.2896 -0.9624
  717MOL0     C96727  11.065  10.998   4.901  0.2173 -0.4185  0.1605
  717MOL0     H96728  10.864  11.436   4.569 -1.7123  1.0659  0.4345
  717MOL0     H96729  10.697  11.498   4.390 -0.0655 -0.1786 -1.8743
  717MOL0     H96730  10.491  11.154   4.179 -0.8881  0.2258  2.3561
  717MOL0     H96731  10.400  11.229   4.311 -1.3347  1.3233 -0.9286
  717MOL0     H96732  10.404  11.322   4.025 -2.6718 -0.1166 -0.7861
  717MOL0     H96733  10.271  11.243   4.106 -2.1106  0.4310  3.5818
  717MOL0     H96734  10.258  11.433   4.272  1.1398  3.8670  2.1313
  717MOL0     H96735  10.373  11.516   4.174 -0.5753  0.3365  0.9670
  717MOL0     H96736  10.239  11.537   3.981  0.5554 -0.8756  0.8829
  717MOL0     H96737  10.131  11.403   4.035 -0.0255 -0.6234  2.3262
  717MOL0     H96738  10.109  11.587   4.237  0.5455  1.1070  0.2135
  717MOL0     H96739  10.071  11.675   4.079 -0.4712 -1.2807 -2.3406
  717MOL0     H96740   9.848  11.587   4.127  0.6467  1.1429  2.5577
  717MOL0     H96741   9.922  11.476   4.018  0.7984  1.2295  0.3659
  717MOL0     H96742   9.984  11.346   4.255  1.4591  2.0587  0.5269
  717MOL0     H96743   9.903  11.486   4.335  1.0925  2.2097 -1.6421
  717MOL0     H96744   9.759  11.261   4.275 -2.5633  0.1187 -0.6789
  717MOL0     H96745   9.790  11.319   4.112  1.8078  1.5996  0.4808
  717MOL0     H96746   9.652  11.446   4.468 -0.1297  0.4219  0.0604
  717MOL0     H96747   9.500  11.713   4.491 -0.3766  0.3936  1.0248
  717MOL0     H96748   9.359  11.678   4.388  1.7274  2.8383  0.1539
  717MOL0     H96749   9.296  11.608   4.613  0.0917 -0.4188 -0.6532
  717MOL0     H96750   9.452  11.519   4.632  1.7170  2.3956 -0.3360
  717MOL0     H96751   9.246  11.366   4.598  0.2706 -1.2406 -0.5172
  717MOL0     H96752   9.370  11.349   4.469 -0.8234 -1.2148  1.5134
  717MOL0     H96753   9.226  11.484   4.318  1.9490  2.7245  1.7375
  717MOL0     H96754   9.137  11.539   4.448  1.6426 -0.2752  3.1811
  717MOL0     H96755   8.894  11.183   4.367 -0.9421 -1.1346 -2.4554
  717MOL0     H96756   8.779  11.024   4.252 -0.5683 -1.8967 -1.5069
  717MOL0     H96757   8.834  10.870   4.215  1.0364 -0.5734  0.2002
  717MOL0     H96758   8.834  10.915   4.391 -5.4000  0.0393  0.2035
  717MOL0     H96759   9.154  10.590   4.018  1.2960  1.0345  0.9420
  717MOL0     H96760   9.206  10.327   4.025 -0.8509 -1.0729 -0.1112
  717MOL0     H96761   9.200  10.153   4.439  1.9698 -1.4574 -0.3640
  717MOL0     H96762   9.052  10.085   4.362  0.7710 -3.2178  2.3973
  717MOL0     H96763   9.326   9.994   4.310 -0.7804 -0.0368 -1.9178
  717MOL0     H96764   9.241   9.920   4.428  1.1311 -3.0090 -1.1361
  717MOL0     H96765   9.232   9.853   4.159 -2.0982 -2.2608  0.5112
  717MOL0     H96766   9.089   9.963   4.166 -0.3423 -0.3154 -0.3131
  717MOL0     H96767   9.134   9.710   4.340 -2.3424 -1.9562  0.1007
  717MOL0     H96768   8.984   9.813   4.326 -1.6794 -0.2308 -3.3811
  717MOL0     H96769   8.972   9.746   4.091 -1.0166  1.7136  1.6747
  717MOL0     H96770   8.967   9.607   4.198 -0.2811  0.7226  0.6351
  717MOL0     H96771   9.188   9.701   4.011 -3.4512  0.3640 -1.3556
  717MOL0     H96772   9.233   9.573   4.135  0.3014  0.9821 -0.0802
  717MOL0     H96773   9.014   9.562   3.915  0.9423 -1.0703 -1.9719
  717MOL0     H96774   9.043   9.438   4.032  0.3502 -0.1581  1.2975
  717MOL0     H96775   9.215   9.534   3.792 -2.0717  1.2625  0.6366
  717MOL0     H96776   9.126   9.383   3.825 -1.2543  0.2763  1.6662
  717MOL0     H96777   9.041  10.307   4.422  1.2150 -0.3844  0.1884
  717MOL0     H96778   9.008  10.559   4.420  2.2064 -0.9796  1.7637
  717MOL0     H96779   9.332  11.002   4.262  0.3990  0.1286  0.9001
  717MOL0     H96780   9.317  11.232   4.299  0.0172 -1.2755 -2.4210
  717MOL0     H96781  10.644  11.081   4.301 -0.7860  2.2142 -0.8753
  717MOL0     H96782  10.832  11.024   4.458 -1.1802 -0.4232 -3.2775
  717MOL0     H96783  11.110  11.318   4.790 -1.9728  1.3529  2.1507
  717MOL0     H96784  11.272  11.324   4.982  0.1372  0.6650 -0.3176
  717MOL0     H96785  11.402  11.284   5.141 -1.4418 -1.9075 -1.6979
  717MOL0     H96786  11.279  11.314   5.277  0.7021 -1.0106  0.9309
  717MOL0     H96787  11.509  11.106   5.278 -0.8830 -0.3937  0.7028
  717MOL0     H96788  11.402  11.140   5.404 -0.9238  0.5542 -0.6591
  717MOL0     H96789  11.578  11.236   5.492  2.2010  2.1033 -0.1094
  717MOL0     H96790  11.486  11.374   5.422 -0.6700  0.2751 -0.5925
  717MOL0     H96791  11.630  11.347   5.225 -0.5821 -0.6793 -0.9552
  717MOL0     H96792  11.736  11.235   5.301  0.9854 -0.2682  3.0255
  717MOL0     H96793  11.819  11.652   5.442  0.6707 -0.0756 -0.7774
  717MOL0     H96794  11.168  10.933   5.084 -1.1270  1.1881  0.6581
  717MOL0     H96795  10.999  10.912   4.901 -0.3072 -0.0294  0.9547
  718MOL0     O96796   8.438   2.781   1.024 -0.1693  0.1844 -0.3187
  718MOL0     C96797   8.488   2.895   1.050  1.1426 -0.4973  0.5415
  718MOL0     O96798   8.419   3.014   1.071  0.1773  0.7289 -0.2138
  718MOL0     C96799   8.282   3.012   1.084  0.2458  0.1480  0.5655
  718MOL0     C96800   8.232   3.138   1.070  0.2195 -0.5513 -0.0752
  718MOL0     C96801   8.096   3.165   1.095 -0.0580 -0.1512  0.5300
  718MOL0     C96802   8.012   3.070   1.152 -0.0505  0.5866 -1.1349
  718MOL0     O96803   7.879   3.107   1.167 -0.4954  0.6663 -0.1424
  718MOL0     C96804   7.784   3.010   1.205  0.6417 -0.0600 -0.1828
  718MOL0     C96805   7.641   3.050   1.166  0.8166 -0.0396 -0.0436
  718MOL0     C96806   7.540   2.952   1.222 -1.1365 -0.8048 -0.2386
  718MOL0     C96807   7.415   3.032   1.245 -0.2088 -0.9787 -0.4241
  718MOL0     C96808   7.346   3.076   1.116 -0.3635  0.4642  0.1316
  718MOL0     C96809   7.212   3.144   1.143 -0.2790 -0.6918  0.1165
  718MOL0     C96810   7.116   3.149   1.030  0.0252 -0.6689  0.3293
  718MOL0     C96811   6.979   3.192   1.082 -0.3408  0.8512  0.0330
  718MOL0     N96812   6.873   3.149   0.987  0.1539  0.3495  0.3763
  718MOL0     C96813   6.829   3.020   0.968 -0.1672 -0.3417 -0.3208
  718MOL0     C96814   6.743   3.033   0.862  0.1541  0.1145 -0.2725
  718MOL0     C96815   6.672   2.920   0.793  0.5182  0.3589  0.8098
  718MOL0     C96816   6.517   2.957   0.798 -0.2954 -0.2724  0.2550
  718MOL0     C96817   6.466   2.916   0.938 -0.6828  0.3702  0.1270
  718MOL0     C96818   6.311   2.931   0.938  0.5173  0.3708 -0.1385
  718MOL0     O96819   6.257   2.793   0.957 -0.8923 -0.1033 -0.5466
  718MOL0     C96820   6.117   2.780   0.962  0.3416  0.5592 -0.0381
  718MOL0     C96821   6.018   2.879   0.951 -0.7318 -0.9256  0.0204
  718MOL0     C96822   5.883   2.853   0.970  0.9517 -0.4008  0.4148
  718MOL0     C96823   5.787   2.975   0.961 -0.0329  0.2747 -0.1411
  718MOL0     C96824   5.834   2.717   0.979 -0.5482 -0.0316  0.8245
  718MOL0     C96825   5.691   2.666   1.002 -0.3715 -0.3701  0.7112
  718MOL0     O96826   5.677   2.535   1.020  0.0849 -0.0037  0.5497
  718MOL0     C96827   5.566   2.471   1.060  0.1809 -1.3569 -0.3215
  718MOL0     C96828   5.451   2.449   0.985 -0.1305 -1.3197 -0.1207
  718MOL0     C96829   5.345   2.375   1.034  0.1553  0.0004  0.3955
  718MOL0     C96830   5.338   2.324   1.161  0.3308 -0.2157  0.4337
  718MOL0     O96831   5.225   2.267   1.205  0.1074 -1.1233  0.5123
  718MOL0     C96832   5.231   2.182   1.309 -0.5320  0.1385  0.0436
  718MOL0     C96833   5.094   2.124   1.354 -0.6489 -0.3867  0.1168
  718MOL0     C96834   4.983   2.237   1.381 -0.3659 -0.1521 -0.1371
  718MOL0     C96835   4.841   2.204   1.334 -0.5212 -0.6018  0.2240
  718MOL0     C96836   4.810   2.252   1.195  0.5605  0.7011 -0.3470
  718MOL0     C96837   4.652   2.281   1.165  0.3495 -0.2233 -0.1490
  718MOL0     C96838   4.573   2.152   1.130 -0.4316  0.3414  0.2613
  718MOL0     C96839   4.429   2.153   1.190  0.3669  0.4480  0.0205
  718MOL0    Cl96840   4.329   2.280   1.107 -0.3124 -0.5938  0.0380
  718MOL0     C96841   5.459   2.331   1.234 -0.5231 -0.4861 -0.8646
  718MOL0     C96842   5.570   2.415   1.193 -0.4019  0.3244  0.2150
  718MOL0     O96843   5.601   2.748   1.003 -0.4172 -0.2717  0.1760
  718MOL0     C96844   5.928   2.618   0.983 -0.6821 -0.0572 -0.0318
  718MOL0     C96845   6.070   2.646   0.971  0.0688 -0.3385 -0.7746
  718MOL0     N96846   6.736   3.162   0.818  0.1498 -0.2974  0.4452
  718MOL0     N96847   6.807   3.233   0.900  0.1434  0.6900  1.1786
  718MOL0     C96848   8.071   2.943   1.169 -0.2283 -0.3443 -0.3189
  718MOL0     C96849   8.200   2.914   1.145  0.2396 -0.1302  0.6738
  718MOL0     C96850   8.634   2.900   1.069 -0.5670 -0.5630 -0.5415
  718MOL0     C96851   8.692   3.027   1.093 -0.5064 -0.2279 -0.2173
  718MOL0     C96852   8.831   3.021   1.104  0.1901 -0.3816 -0.3517
  718MOL0     C96853   8.909   2.902   1.103 -0.9144 -0.3288  1.1374
  718MOL0     O96854   9.043   2.914   1.108  0.2784  0.4694  0.5130
  718MOL0     C96855   9.122   2.793   1.093  0.3554 -0.0011 -0.3773
  718MOL0     C96856   9.269   2.841   1.089  0.9743  0.6966  0.3779
  718MOL0     C96857   9.336   2.862   1.230  0.1261  0.7373  0.1512
  718MOL0     C96858   9.487   2.880   1.216 -0.2495 -1.2874 -0.0762
  718MOL0     C96859   9.537   3.008   1.153 -0.2690  0.1421 -0.2736
  718MOL0     C96860   9.564   3.108   1.094 -0.1760 -0.1393 -0.4208
  718MOL0     C96861   8.851   2.782   1.085  0.6886  0.7605  0.2855
  718MOL0     C96862   8.713   2.781   1.064 -0.6356 -0.4810 -0.5506
  718MOL0     H96863   8.293   3.221   1.036  0.9777 -1.2797 -0.5382
  718MOL0     H96864   8.055   3.264   1.080 -0.9571 -0.5782  0.0489
  718MOL0     H96865   7.802   2.923   1.141  0.6530  1.8472 -2.9985
  718MOL0     H96866   7.781   2.996   1.313 -0.8699  2.0076  0.1051
  718MOL0     H96867   7.619   3.153   1.195  1.0293  1.0755 -3.3823
  718MOL0     H96868   7.632   3.042   1.057  0.9396 -0.5416 -0.0181
  718MOL0     H96869   7.524   2.872   1.148 -0.0977  0.6845 -2.1687
  718MOL0     H96870   7.571   2.914   1.320 -3.8467  0.2120  1.1182
  718MOL0     H96871   7.347   2.968   1.303 -0.3675  1.0376  1.7513
  718MOL0     H96872   7.437   3.123   1.301 -0.1774 -2.1281  1.5512
  718MOL0     H96873   7.404   3.153   1.066  2.3211 -0.7945  1.0996
  718MOL0     H96874   7.335   2.990   1.049  0.6482 -0.1066  0.6690
  718MOL0     H96875   7.167   3.103   1.234 -1.2387  3.3081  1.6600
  718MOL0     H96876   7.225   3.250   1.166 -2.2626 -0.1378 -1.0760
  718MOL0     H96877   7.162   3.209   0.951 -0.9324 -0.6009 -0.1951
  718MOL0     H96878   7.106   3.049   0.988  2.6885 -0.3752 -1.2269
  718MOL0     H96879   6.974   3.301   1.078 -1.4104  0.8400  0.6828
  718MOL0     H96880   6.963   3.139   1.176 -0.4131 -1.2198 -1.0934
  718MOL0     H96881   6.851   2.926   1.017 -1.6074 -2.0258 -2.7305
  718MOL0     H96882   6.703   2.913   0.689  0.2983 -1.1939  0.8245
  718MOL0     H96883   6.701   2.826   0.842  1.7675  1.1199  1.5683
  718MOL0     H96884   6.465   2.879   0.741 -3.0279 -0.6094  2.9200
  718MOL0     H96885   6.493   3.055   0.755  0.3939 -1.1584 -2.2627
  718MOL0     H96886   6.514   2.982   1.011  0.7302 -0.8813  0.3895
  718MOL0     H96887   6.488   2.814   0.969 -2.9539  0.2220  1.4665
  718MOL0     H96888   6.281   2.965   0.838 -1.3585 -2.2889 -0.6188
  718MOL0     H96889   6.274   2.988   1.023  0.5821 -2.7455  2.1717
  718MOL0     H96890   6.039   2.984   0.934 -2.6154 -0.3634  0.9219
  718MOL0     H96891   5.847   3.065   0.951  0.1351  0.2033  0.2029
  718MOL0     H96892   5.723   2.967   0.873 -1.8030  0.0904  1.0845
  718MOL0     H96893   5.724   2.991   1.050  0.3894  1.5162 -0.0459
  718MOL0     H96894   5.455   2.492   0.885 -0.3366 -0.4879  0.2216
  718MOL0     H96895   5.253   2.377   0.977  0.8918  2.3381 -0.8495
  718MOL0     H96896   5.300   2.102   1.279 -1.2320 -0.0249 -1.1962
  718MOL0     H96897   5.271   2.230   1.399 -0.4363  2.4447 -1.1513
  718MOL0     H96898   5.053   2.067   1.270 -0.8015 -3.0153  1.8363
  718MOL0     H96899   5.106   2.051   1.435  1.7467  1.7310  1.8208
  718MOL0     H96900   5.016   2.335   1.344 -1.2861  0.2620  0.1155
  718MOL0     H96901   4.985   2.253   1.489 -2.5659  2.1023 -0.3224
  718MOL0     H96902   4.815   2.099   1.350 -1.0453 -0.4368  0.4911
  718MOL0     H96903   4.775   2.255   1.404  1.8008  0.0073  2.0942
  718MOL0     H96904   4.853   2.188   1.117  2.4270  0.8028  0.5420
  718MOL0     H96905   4.868   2.342   1.172 -0.0688  1.2354  0.1034
  718MOL0     H96906   4.598   2.312   1.255 -0.8039 -2.2748 -0.0792
  718MOL0     H96907   4.641   2.367   1.098  4.1789  0.6208  0.0616
  718MOL0     H96908   4.631   2.062   1.156 -2.6498 -1.5791 -1.0646
  718MOL0     H96909   4.573   2.147   1.020 -1.6316  1.8534  0.1713
  718MOL0     H96910   4.428   2.173   1.297 -3.9362  0.2951  0.2053
  718MOL0     H96911   4.376   2.059   1.170 -1.7326  1.8489 -1.5051
  718MOL0     H96912   5.464   2.295   1.336 -0.5434  2.3522  0.2335
  718MOL0     H96913   5.664   2.429   1.246  0.5690  2.4926 -1.8612
  718MOL0     H96914   5.902   2.514   1.000  1.7520 -0.4818  1.6165
  718MOL0     H96915   6.139   2.563   0.978 -0.4553 -0.8795 -1.6915
  718MOL0     H96916   8.008   2.862   1.204 -0.2541 -1.2884 -2.3923
  718MOL0     H96917   8.254   2.825   1.177  1.5931  0.0951 -0.8467
  718MOL0     H96918   8.638   3.120   1.104 -1.1178 -0.5605 -0.3818
  718MOL0     H96919   8.883   3.116   1.120 -1.0715  0.1301  0.8979
  718MOL0     H96920   9.102   2.723   1.174 -0.9381  1.1921  0.3650
  718MOL0     H96921   9.102   2.741   0.999 -1.4108  1.1073 -0.6487
  718MOL0     H96922   9.271   2.941   1.044 -1.5082  1.1266  1.0353
  718MOL0     H96923   9.323   2.772   1.025  3.4880  0.7925  2.2555
  718MOL0     H96924   9.316   2.768   1.283 -0.5320 -0.1924 -1.6471
  718MOL0     H96925   9.305   2.950   1.287  1.6621  0.9629  0.6785
  718MOL0     H96926   9.537   2.795   1.168 -0.2869 -0.3376 -1.8991
  718MOL0     H96927   9.526   2.895   1.317  0.6357 -0.4085 -0.5328
  718MOL0     H96928   9.572   3.196   1.033 -2.1460 -0.7807 -1.7036
  718MOL0     H96929   8.892   2.682   1.091  0.5587  0.6990  0.1588
  718MOL0     H96930   8.670   2.688   1.028  1.5446 -1.8604  0.2408
  719MOL0     O96931  11.186   2.869   1.086  0.5330  0.1856  0.4100
  719MOL0     C96932  11.251   2.968   1.062  0.6939 -0.6403  1.0924
  719MOL0     O96933  11.213   3.065   0.973 -0.2718  0.4903 -0.4477
  719MOL0     C96934  11.083   3.108   0.954  0.7680  0.3652 -0.3531
  719MOL0     C96935  11.048   3.187   0.845  0.4486 -0.1519  1.2031
  719MOL0     C96936  10.920   3.237   0.826  0.2881  0.2847 -0.3084
  719MOL0     C96937  10.808   3.203   0.903 -0.2250  0.7177 -0.4343
  719MOL0     O96938  10.678   3.256   0.880  0.7557 -0.2405 -0.2713
  719MOL0     C96939  10.661   3.349   0.769 -0.3715 -0.1089  0.1652
  719MOL0     C96940  10.513   3.405   0.769  0.0549  0.6691 -0.1163
  719MOL0     C96941  10.429   3.291   0.707 -0.7003 -0.0301  0.2226
  719MOL0     C96942  10.286   3.334   0.688 -0.7766  0.1147  0.1675
  719MOL0     C96943  10.264   3.385   0.550  0.2776 -1.6275  0.0530
  719MOL0     C96944  10.140   3.476   0.561 -0.0206  0.1416  1.0737
  719MOL0     C96945  10.086   3.521   0.420 -0.3643 -0.2213 -0.0647
  719MOL0     C96946   9.975   3.630   0.421 -0.7574 -0.7454  0.5722
  719MOL0     N96947   9.852   3.605   0.497 -0.0104 -0.1241  0.1957
  719MOL0     C96948   9.752   3.523   0.448 -0.2683 -0.0775 -0.1799
  719MOL0     C96949   9.640   3.568   0.505 -0.4168 -1.2060  1.6202
  719MOL0     C96950   9.499   3.530   0.458  0.5110 -0.0707 -0.3728
  719MOL0     C96951   9.433   3.431   0.549 -0.4912 -0.6600 -0.5693
  719MOL0     C96952   9.303   3.369   0.501 -0.4820  0.0591  0.1823
  719MOL0     C96953   9.192   3.470   0.495  0.3818  0.9726 -0.6024
  719MOL0     O96954   9.094   3.415   0.406 -0.2474  0.5079 -0.0716
  719MOL0     C96955   8.961   3.445   0.427 -0.7894 -0.6468  0.2363
  719MOL0     C96956   8.905   3.504   0.546  0.0290 -0.6030 -0.0482
  719MOL0     C96957   8.770   3.544   0.563  0.0366 -0.3434  0.2641
  719MOL0     C96958   8.710   3.617   0.688 -1.0219  0.0770  0.2689
  719MOL0     C96959   8.678   3.522   0.447 -0.2948 -0.0594  0.5235
  719MOL0     C96960   8.535   3.557   0.440 -0.2691 -0.6541  0.1429
  719MOL0     O96961   8.487   3.590   0.318 -0.2036 -0.4131 -0.5579
  719MOL0     C96962   8.364   3.650   0.313  0.8544  0.1210  0.2511
  719MOL0     C96963   8.333   3.782   0.354  0.7556  0.6879  0.1349
  719MOL0     C96964   8.210   3.830   0.340 -0.1053 -0.8086  0.0606
  719MOL0     C96965   8.106   3.763   0.282  0.2594 -0.2121  0.3373
  719MOL0     O96966   7.995   3.841   0.261 -0.1504 -0.0110  0.2653
  719MOL0     C96967   7.884   3.790   0.187  0.0704 -0.6216 -0.0804
  719MOL0     C96968   7.768   3.891   0.188 -0.5926 -0.6737  0.0856
  719MOL0     C96969   7.642   3.847   0.116  0.1524 -0.3789  0.2306
  719MOL0     C96970   7.656   3.840  -0.038  0.0503  0.0051  0.1042
  719MOL0     C96971   7.533   3.764  -0.096 -0.3650 -0.3311 -0.6071
  719MOL0     C96972   7.477   3.824  -0.226 -0.1560 -0.2332  0.1880
  719MOL0     C96973   7.585   3.841  -0.326 -0.0411  0.2835  0.8616
  719MOL0     C96974   7.531   3.853  -0.472  0.4688  0.4883  0.1975
  719MOL0    Cl96975   7.427   3.994  -0.479  0.1353 -0.0255 -0.0654
  719MOL0     C96976   8.126   3.630   0.243 -0.1317  0.2354  0.4096
  719MOL0     C96977   8.255   3.574   0.267 -0.6569  0.7026  0.8963
  719MOL0     O96978   8.473   3.551   0.546  0.0894  0.0189  0.5716
  719MOL0     C96979   8.740   3.467   0.330 -0.3167 -0.7344  0.3434
  719MOL0     C96980   8.871   3.416   0.327  0.3758  0.0728  0.2630
  719MOL0     N96981   9.675   3.663   0.597  0.6547 -0.2485 -0.4410
  719MOL0     N96982   9.803   3.699   0.587 -0.6865  1.4374 -0.1354
  719MOL0     C96983  10.841   3.119   1.013 -0.6527 -0.2836  0.1203
  719MOL0     C96984  10.974   3.069   1.037  0.5564  0.4328  0.8029
  719MOL0     C96985  11.401   2.977   1.084  0.3868 -0.2184 -0.3449
  719MOL0     C96986  11.464   2.884   1.168 -0.4506  0.5434  0.0978
  719MOL0     C96987  11.594   2.898   1.209 -0.1609 -0.3293 -0.1873
  719MOL0     C96988  11.674   3.009   1.161  0.2320  0.3195  0.0190
  719MOL0     O96989  11.803   3.006   1.198  0.2205 -0.7521 -0.0335
  719MOL0     C96990  11.891   3.112   1.161  0.6129  0.5114  0.0320
  719MOL0     C96991  12.031   3.059   1.197 -0.4080 -0.1503 -1.0071
  719MOL0     C96992  12.134   3.171   1.166  0.4023  0.1051  1.0962
  719MOL0     C96993  12.167   3.178   1.015 -1.0833  1.0899  0.6901
  719MOL0     C96994  12.225   3.051   0.975 -0.0616  0.2280  1.0029
  719MOL0     C96995  12.273   2.946   0.940  0.0269  0.3475 -0.8890
  719MOL0     C96996  11.614   3.097   1.070 -0.3322 -0.4153 -0.4602
  719MOL0     C96997  11.480   3.087   1.045 -0.4987  0.0450 -0.0809
  719MOL0     H96998  11.133   3.220   0.787  2.3350 -1.9935  2.7668
  719MOL0     H96999  10.915   3.305   0.741 -1.3795 -1.4120 -1.6696
  719MOL0     H97000  10.738   3.425   0.782  1.9295 -2.7761  4.4015
  719MOL0     H97001  10.686   3.298   0.675 -0.1821  1.9038 -0.9240
  719MOL0     H97002  10.471   3.452   0.858  0.8262 -1.0732  1.2404
  719MOL0     H97003  10.513   3.486   0.696 -0.0008 -0.3641 -1.3106
  719MOL0     H97004  10.476   3.249   0.617  1.9136  0.8478  1.0930
  719MOL0     H97005  10.428   3.205   0.774 -2.2074  0.5979  1.0508
  719MOL0     H97006  10.223   3.246   0.698 -0.5512  0.0050  0.6255
  719MOL0     H97007  10.258   3.404   0.767 -1.0853 -0.0357  0.1909
  719MOL0     H97008  10.336   3.464   0.523 -1.4623  0.6241  1.6123
  719MOL0     H97009  10.243   3.305   0.478 -2.6318 -2.1578  1.3822
  719MOL0     H97010  10.059   3.415   0.602 -0.8596 -1.8955 -3.0715
  719MOL0     H97011  10.145   3.563   0.627  0.5374  2.0866 -1.3727
  719MOL0     H97012  10.164   3.563   0.355  2.4547 -0.8817  2.6127
  719MOL0     H97013  10.039   3.432   0.377  0.6403 -0.3763 -0.9038
  719MOL0     H97014   9.951   3.654   0.317 -2.4042 -1.1932  0.8220
  719MOL0     H97015  10.015   3.723   0.462  0.2228 -0.9927  0.2161
  719MOL0     H97016   9.750   3.445   0.372 -0.7260 -0.1265 -0.1203
  719MOL0     H97017   9.442   3.623   0.444  2.0433  0.8035 -1.0765
  719MOL0     H97018   9.504   3.477   0.363  0.8592 -2.6851  1.0193
  719MOL0     H97019   9.423   3.470   0.651  2.1161  1.4544 -1.0018
  719MOL0     H97020   9.501   3.347   0.563 -1.2150 -0.9120  2.1284
  719MOL0     H97021   9.282   3.282   0.565  1.5654 -0.0667  0.7813
  719MOL0     H97022   9.321   3.333   0.400  1.2907 -1.9141  1.1065
  719MOL0     H97023   9.229   3.566   0.460  0.2114  0.4574 -2.3125
  719MOL0     H97024   9.152   3.487   0.595  0.1194  1.0438 -0.7186
  719MOL0     H97025   8.963   3.518   0.636  1.0484  0.8125 -0.8893
  719MOL0     H97026   8.651   3.543   0.744 -0.5357 -0.3421  0.2325
  719MOL0     H97027   8.798   3.648   0.745 -0.2334 -0.8393 -0.3997
  719MOL0     H97028   8.647   3.705   0.674 -1.3150 -0.2502 -0.5163
  719MOL0     H97029   8.406   3.847   0.402 -3.3217  3.3477  3.5583
  719MOL0     H97030   8.195   3.933   0.370  0.4685 -0.8177  0.3903
  719MOL0     H97031   7.916   3.774   0.083  1.0769  0.5758  0.0263
  719MOL0     H97032   7.854   3.700   0.241  0.6434  0.9559  3.0940
  719MOL0     H97033   7.734   3.919   0.288  1.4453  0.5671  0.4944
  719MOL0     H97034   7.804   3.985   0.145  1.4464 -1.1958  0.5356
  719MOL0     H97035   7.567   3.921   0.145  0.1138 -0.9633  1.6820
  719MOL0     H97036   7.611   3.746   0.144 -1.7058 -0.0293 -0.4055
  719MOL0     H97037   7.670   3.941  -0.077  0.4037  0.8885  2.3574
  719MOL0     H97038   7.750   3.788  -0.060  1.1616  1.1533  1.8143
  719MOL0     H97039   7.444   3.755  -0.034  0.0137  1.4166  0.2200
  719MOL0     H97040   7.564   3.660  -0.111  1.0758  0.0470 -0.3327
  719MOL0     H97041   7.407   3.751  -0.266  0.7105  0.2974 -2.5387
  719MOL0     H97042   7.435   3.923  -0.204 -0.1600  0.2068 -1.6698
  719MOL0     H97043   7.669   3.773  -0.310  0.2083  0.5072  0.5402
  719MOL0     H97044   7.635   3.936  -0.302  2.5495 -0.2363 -1.9045
  719MOL0     H97045   7.482   3.759  -0.496 -0.7404  1.1699 -0.0641
  719MOL0     H97046   7.612   3.868  -0.545 -0.3773 -0.1527 -0.8927
  719MOL0     H97047   8.055   3.576   0.181  1.6683 -1.7871 -0.0187
  719MOL0     H97048   8.268   3.472   0.233  0.4543  1.6191 -1.7656
  719MOL0     H97049   8.688   3.457   0.235  0.0063 -1.3884  0.2316
  719MOL0     H97050   8.912   3.366   0.239  0.0420 -0.4808  0.4121
  719MOL0     H97051  10.775   3.091   1.095  2.9181 -1.3793  2.9109
  719MOL0     H97052  10.993   2.997   1.115  1.7205  1.6646  1.6994
  719MOL0     H97053  11.399   2.801   1.194  0.1611 -0.7654 -2.2223
  719MOL0     H97054  11.641   2.826   1.275 -0.8277 -1.3331 -0.7940
  719MOL0     H97055  11.883   3.136   1.054 -0.6687  0.0809  0.0080
  719MOL0     H97056  11.868   3.206   1.214  2.5867  2.6757 -2.6343
  719MOL0     H97057  12.054   2.965   1.147 -0.0802  0.3477 -1.8175
  719MOL0     H97058  12.034   3.034   1.304  2.8545 -0.3470 -1.0632
  719MOL0     H97059  12.229   3.165   1.220  0.5117  1.9380  1.1697
  719MOL0     H97060  12.086   3.265   1.197  1.5529  1.0398  0.1738
  719MOL0     H97061  12.231   3.262   0.986 -1.3014  1.2197  0.5775
  719MOL0     H97062  12.079   3.182   0.950  0.6914  0.6156 -1.8880
  719MOL0     H97063  12.319   2.853   0.913 -0.1814  0.0377 -0.1971
  719MOL0     H97064  11.665   3.166   1.004 -2.3564 -0.2988 -1.9996
  719MOL0     H97065  11.447   3.166   0.978  1.5991  0.7992 -0.2698
  720MOL0     O97066   5.792   2.064   9.965 -0.3375 -0.1843 -0.2070
  720MOL0     C97067   5.757   1.948   9.951 -0.0807  0.9661  0.8993
  720MOL0     O97068   5.636   1.918   9.898  0.3751  0.2321  0.4784
  720MOL0     C97069   5.530   2.010   9.912  0.9247  0.1369 -0.5308
  720MOL0     C97070   5.409   1.965   9.960 -0.1685 -0.2405 -0.0756
  720MOL0     C97071   5.302   2.051   9.976  0.9627  0.7784  0.4359
  720MOL0     C97072   5.304   2.181   9.915 -0.0567 -0.2078 -1.5168
  720MOL0     O97073   5.190   2.258   9.916 -0.0764 -0.1928  0.2196
  720MOL0     C97074   5.166   2.317  10.038  0.2940 -0.0620 -0.8343
  720MOL0     C97075   5.014   2.316  10.061 -0.1736 -0.3635 -0.3005
  720MOL0     C97076   4.962   2.403  10.179 -0.2318  0.1483  1.0551
  720MOL0     C97077   5.004   2.330  10.302  0.0807  0.6081 -0.7092
  720MOL0     C97078   4.964   2.417  10.432 -0.6714  0.4909  1.0498
  720MOL0     C97079   4.992   2.338  10.557  0.0393  0.0919 -0.2843
  720MOL0     C97080   5.011   2.443  10.681 -0.0545  0.0518 -0.1359
  720MOL0     C97081   4.896   2.546  10.702 -0.8339 -0.8370 -0.0014
  720MOL0     N97082   4.773   2.485  10.737  1.1414 -0.6027  0.1657
  720MOL0     C97083   4.652   2.506  10.670 -0.5816  0.1150 -0.1853
  720MOL0     C97084   4.574   2.398  10.712  0.2054  0.0776 -0.5240
  720MOL0     C97085   4.430   2.383  10.678  0.0315  0.7815  0.3890
  720MOL0     C97086   4.385   2.237  10.650 -0.0764  0.5633  0.2095
  720MOL0     C97087   4.254   2.221  10.575 -0.0901 -1.7846 -0.2963
  720MOL0     C97088   4.130   2.286  10.622  0.1199 -0.0748 -0.7430
  720MOL0     O97089   4.079   2.406  10.566  0.4336 -0.1545 -0.5302
  720MOL0     C97090   3.942   2.428  10.566 -0.4949  0.4981 -0.5461
  720MOL0     C97091   3.892   2.487  10.451 -0.4779 -0.4807  0.3426
  720MOL0     C97092   3.758   2.510  10.429 -0.0638  0.2707  0.1686
  720MOL0     C97093   3.723   2.568  10.294  0.1663  0.4953 -0.3186
  720MOL0     C97094   3.666   2.469  10.531 -0.0905  0.3467 -0.2130
  720MOL0     C97095   3.523   2.491  10.520  0.3992  0.0329 -0.3008
  720MOL0     O97096   3.443   2.399  10.569 -0.0315  0.1543 -0.0812
  720MOL0     C97097   3.307   2.418  10.548  0.4967 -0.6926  0.0211
  720MOL0     C97098   3.220   2.431  10.658 -0.4616 -0.3970 -0.2029
  720MOL0     C97099   3.082   2.456  10.647 -0.1887 -0.4645  0.2183
  720MOL0     C97100   3.023   2.453  10.520 -0.2648 -0.0495 -0.1965
  720MOL0     O97101   2.886   2.471  10.497  0.0455 -0.4813 -0.3473
  720MOL0     C97102   2.794   2.468  10.609  0.5001  0.2042  0.4025
  720MOL0     C97103   2.649   2.437  10.564 -0.7548  0.6771  0.7121
  720MOL0     C97104   2.655   2.297  10.500  0.3022 -0.4441  0.0508
  720MOL0     C97105   2.521   2.258  10.444  0.1205  0.4192  0.5596
  720MOL0     C97106   2.500   2.104  10.416  0.1224 -0.2688 -0.1999
  720MOL0     C97107   2.353   2.077  10.376  0.3019 -0.3540 -0.8101
  720MOL0     C97108   2.329   1.932  10.340  0.0738  0.0263  0.0508
  720MOL0     C97109   2.235   1.865  10.436  0.9275 -0.1934  0.0577
  720MOL0    Cl97110   2.077   1.940  10.425  0.0954  0.0994 -0.0210
  720MOL0     C97111   3.106   2.436  10.410 -0.2547  0.0560 -0.3634
  720MOL0     C97112   3.243   2.410  10.424 -0.9010 -0.2474 -0.9120
  720MOL0     O97113   3.482   2.597  10.470 -0.1493  0.1653 -0.1749
  720MOL0     C97114   3.714   2.397  10.642  0.1812  0.6615 -0.2647
  720MOL0     C97115   3.848   2.378  10.656 -0.1445  0.2578 -0.1669
  720MOL0     N97116   4.646   2.321  10.803  0.5230  0.5145 -0.6613
  720MOL0     N97117   4.762   2.369  10.810  0.5945 -0.3505 -0.4595
  720MOL0     C97118   5.419   2.226   9.856 -0.1880  0.2717 -0.4786
  720MOL0     C97119   5.531   2.143   9.861 -0.0233 -0.0593  0.4680
  720MOL0     C97120   5.846   1.835  10.004 -0.5052  0.2504 -0.4560
  720MOL0     C97121   5.955   1.865  10.089 -0.1012 -0.2583  0.6841
  720MOL0     C97122   6.058   1.780  10.121 -0.8223 -0.3327  0.6860
  720MOL0     C97123   6.051   1.650  10.070 -0.1855  0.4274  0.7271
  720MOL0     O97124   6.126   1.542  10.098 -0.4645  0.2603 -0.4179
  720MOL0     C97125   6.243   1.577  10.176  0.7316  0.0307  0.0230
  720MOL0     C97126   6.347   1.470  10.155 -0.2266 -0.7704 -0.5488
  720MOL0     C97127   6.404   1.494  10.021 -0.4610 -0.4600  0.0827
  720MOL0     C97128   6.449   1.363   9.962 -0.5129  0.1135 -1.4499
  720MOL0     C97129   6.580   1.320  10.008 -0.3274 -0.1505 -0.1548
  720MOL0     C97130   6.687   1.270  10.048  0.1268 -0.5683  0.1527
  720MOL0     C97131   5.934   1.603   9.998 -0.6271  0.0579 -1.0649
  720MOL0     C97132   5.833   1.701   9.973 -0.0170  0.4169 -0.2420
  720MOL0     H97133   5.407   1.869  10.011 -3.7561 -0.2698 -0.0295
  720MOL0     H97134   5.208   2.014  10.014  1.2337 -2.0946 -1.3862
  720MOL0     H97135   5.209   2.252  10.115  1.1571 -0.1104 -1.3423
  720MOL0     H97136   5.218   2.413  10.043 -1.1329  0.6634  2.3749
  720MOL0     H97137   4.969   2.368   9.977 -1.0259  3.3559  2.2073
  720MOL0     H97138   4.986   2.211  10.056 -0.2008 -0.3059 -2.1530
  720MOL0     H97139   4.994   2.508  10.177 -1.8795  0.6844  1.0611
  720MOL0     H97140   4.853   2.404  10.173 -0.3470 -0.6181  2.4521
  720MOL0     H97141   4.946   2.237  10.299 -4.7553  3.3161 -2.1841
  720MOL0     H97142   5.108   2.298  10.313 -1.7030 -5.7709  2.9059
  720MOL0     H97143   5.024   2.507  10.412 -1.5353  0.4420 -2.3439
  720MOL0     H97144   4.861   2.452  10.422 -0.9107 -0.5128 -0.3170
  720MOL0     H97145   4.905   2.275  10.578 -0.6550  1.9046  3.0563
  720MOL0     H97146   5.081   2.275  10.551  0.5290  0.7233  0.2471
  720MOL0     H97147   5.022   2.382  10.771  1.1626 -1.6064 -1.3477
  720MOL0     H97148   5.103   2.501  10.671  0.2333 -0.4966 -0.7544
  720MOL0     H97149   4.878   2.607  10.614  0.8748 -1.2949 -0.7050
  720MOL0     H97150   4.916   2.617  10.783  1.1029 -0.4516 -0.7657
  720MOL0     H97151   4.622   2.584  10.600 -1.0831  1.3923  1.3988
  720MOL0     H97152   4.368   2.426  10.756  0.4283  1.3529  0.3939
  720MOL0     H97153   4.417   2.440  10.586 -3.9629 -0.2017  0.1738
  720MOL0     H97154   4.379   2.184  10.745 -3.0316 -1.0543 -0.7668
  720MOL0     H97155   4.463   2.192  10.587  0.3962 -0.8652  1.7348
  720MOL0     H97156   4.232   2.114  10.576 -0.7304 -1.6604  1.2557
  720MOL0     H97157   4.265   2.242  10.468 -3.2145 -0.7207 -0.5110
  720MOL0     H97158   4.134   2.307  10.729 -1.3446 -2.0162 -0.2421
  720MOL0     H97159   4.057   2.205  10.618 -0.0136  0.0459 -0.7266
  720MOL0     H97160   3.954   2.515  10.366 -0.9592  2.3458  0.8263
  720MOL0     H97161   3.680   2.665  10.321 -0.1213  0.2174  0.2387
  720MOL0     H97162   3.804   2.589  10.224 -0.1931  2.3026 -0.2419
  720MOL0     H97163   3.649   2.508  10.241  1.0796  1.0308 -2.2899
  720MOL0     H97164   3.257   2.428  10.760 -3.8960  0.2823  1.1984
  720MOL0     H97165   3.021   2.469  10.735 -1.0800 -0.5343 -0.3747
  720MOL0     H97166   2.824   2.401  10.690 -0.8340  0.8916  1.5136
  720MOL0     H97167   2.790   2.569  10.652  0.8090  1.2290 -1.8633
  720MOL0     H97168   2.584   2.427  10.651 -2.2649 -0.9455 -0.5149
  720MOL0     H97169   2.603   2.508  10.495 -2.6206 -0.0377  1.1365
  720MOL0     H97170   2.679   2.225  10.579  2.2718  0.5886  0.4453
  720MOL0     H97171   2.733   2.290  10.424  0.5073  1.1079  0.0913
  720MOL0     H97172   2.444   2.289  10.515 -0.4422 -2.6371  1.4416
  720MOL0     H97173   2.509   2.321  10.355  0.8730  0.9552  0.8292
  720MOL0     H97174   2.536   2.046  10.502 -1.8107  0.9798  1.5286
  720MOL0     H97175   2.569   2.074  10.337  0.7415 -0.6370  0.4637
  720MOL0     H97176   2.291   2.108  10.460 -0.0204  1.4899 -1.6888
  720MOL0     H97177   2.321   2.152  10.303 -0.9662 -1.3602 -1.3142
  720MOL0     H97178   2.421   1.874  10.356 -1.1708 -1.1666  4.0360
  720MOL0     H97179   2.295   1.923  10.237 -0.4697 -0.0622  0.2348
  720MOL0     H97180   2.272   1.855  10.539 -2.2890 -1.9795  1.1976
  720MOL0     H97181   2.221   1.763  10.400  1.1100 -0.1486 -0.1401
  720MOL0     H97182   3.058   2.453  10.314  0.8160  6.3981 -0.2219
  720MOL0     H97183   3.298   2.405  10.331 -0.6038 -1.8555 -0.6862
  720MOL0     H97184   3.644   2.347  10.709  0.6797  0.1187 -0.1423
  720MOL0     H97185   3.871   2.312  10.740 -0.6961  0.3855  0.0914
  720MOL0     H97186   5.416   2.323   9.807 -0.3277  1.3420  1.5635
  720MOL0     H97187   5.620   2.178   9.811 -1.3641  1.0783 -1.2469
  720MOL0     H97188   5.967   1.971  10.110 -0.9015 -0.1928  0.8480
  720MOL0     H97189   6.134   1.809  10.193  1.9696 -2.9934 -0.9236
  720MOL0     H97190   6.285   1.674  10.149 -2.0525  1.1313 -0.6016
  720MOL0     H97191   6.224   1.575  10.284  1.1134 -2.4423  0.1144
  720MOL0     H97192   6.308   1.368  10.159  0.4720 -1.0195  0.4870
  720MOL0     H97193   6.424   1.479  10.233  0.6379 -2.4363 -1.1588
  720MOL0     H97194   6.489   1.559  10.043 -1.1063  0.4894 -0.1657
  720MOL0     H97195   6.337   1.546   9.953  0.6485  0.4341 -0.3526
  720MOL0     H97196   6.458   1.383   9.855  1.4623  0.4313 -1.2508
  720MOL0     H97197   6.378   1.282   9.979  0.5255 -1.0284 -2.4391
  720MOL0     H97198   6.783   1.233  10.078  0.9909  0.2748 -1.4380
  720MOL0     H97199   5.917   1.499   9.972 -3.7157  0.3140 -0.5350
  720MOL0     H97200   5.748   1.672   9.912 -0.3611 -1.3670  0.9844
  721MOL0     O97201   7.264   5.770   6.888  0.2004 -0.4444 -0.3261
  721MOL0     C97202   7.350   5.740   6.968  1.2395 -0.8289  0.7279
  721MOL0     O97203   7.330   5.703   7.096  0.4251  0.0700  0.0172
  721MOL0     C97204   7.205   5.664   7.143  0.3777 -0.2124  0.0101
  721MOL0     C97205   7.104   5.600   7.070  0.1331  0.1406 -0.4307
  721MOL0     C97206   6.974   5.584   7.126 -0.8229 -0.5672 -0.4774
  721MOL0     C97207   6.947   5.641   7.253  0.3330  0.8417  0.2236
  721MOL0     O97208   6.829   5.615   7.311  0.0036  0.4853  0.7495
  721MOL0     C97209   6.785   5.711   7.395 -0.1808  0.2559 -0.0384
  721MOL0     C97210   6.640   5.676   7.430  0.4493  0.5773  0.1693
  721MOL0     C97211   6.559   5.774   7.522  0.5361 -0.7813  0.6529
  721MOL0     C97212   6.417   5.731   7.534  0.0300 -0.1981  0.1589
  721MOL0     C97213   6.315   5.837   7.597  0.1471 -0.7204 -0.0354
  721MOL0     C97214   6.335   5.870   7.744  0.1653 -0.9438  0.8010
  721MOL0     C97215   6.356   5.757   7.842  0.4032  0.4881 -0.3574
  721MOL0     C97216   6.230   5.672   7.857 -0.1966 -0.3942 -0.7065
  721MOL0     N97217   6.109   5.744   7.917  0.0389 -1.3245 -0.0539
  721MOL0     C97218   6.023   5.814   7.839 -0.5811 -0.1852  0.1680
  721MOL0     C97219   5.915   5.840   7.925 -0.4872  0.3279  0.6285
  721MOL0     C97220   5.794   5.912   7.894 -0.0428  0.2406 -0.9098
  721MOL0     C97221   5.665   5.847   7.961  0.0480  0.6216  0.4475
  721MOL0     C97222   5.547   5.945   7.939 -0.2277  0.0545 -0.4744
  721MOL0     C97223   5.417   5.919   8.016  0.2443 -0.0930  0.2105
  721MOL0     O97224   5.316   5.955   7.915  0.2543 -0.2249  0.4402
  721MOL0     C97225   5.193   5.985   7.958  0.4334 -0.2825 -0.0411
  721MOL0     C97226   5.134   5.961   8.084 -0.2772 -0.3830  0.3425
  721MOL0     C97227   4.996   5.983   8.109 -0.0484 -0.9132  0.4667
  721MOL0     C97228   4.955   5.946   8.241 -1.0826 -0.8136  0.0895
  721MOL0     C97229   4.918   6.043   8.010 -0.6945  0.1760  0.3207
  721MOL0     C97230   4.769   6.071   8.026 -0.6652 -1.1186 -0.8920
  721MOL0     O97231   4.706   6.090   8.151 -0.4357  0.1492  0.4036
  721MOL0     C97232   4.569   6.107   8.178 -0.3478 -0.3330 -0.1843
  721MOL0     C97233   4.458   6.086   8.091 -0.6388 -0.2321 -0.1235
  721MOL0     C97234   4.327   6.116   8.136 -0.2433  0.5293  0.1716
  721MOL0     C97235   4.310   6.151   8.270 -0.1717 -0.0192 -0.1161
  721MOL0     O97236   4.183   6.172   8.307  0.3761 -0.0807 -0.1105
  721MOL0     C97237   4.133   6.092   8.417  0.2043 -0.0510 -0.1350
  721MOL0     C97238   4.045   6.165   8.528  0.0905  0.6024  0.5049
  721MOL0     C97239   3.931   6.239   8.458 -0.8391 -0.3898 -0.1466
  721MOL0     C97240   3.819   6.253   8.556  0.5285  0.0491  0.1077
  721MOL0     C97241   3.695   6.306   8.490  0.5603  0.4686  0.8404
  721MOL0     C97242   3.580   6.343   8.574 -0.4576  0.5315  0.6601
  721MOL0     C97243   3.455   6.367   8.488 -0.1019  0.0494 -0.0244
  721MOL0     C97244   3.329   6.341   8.564 -0.5779  0.5916  0.4733
  721MOL0    Cl97245   3.328   6.404   8.726  0.7555  0.1336  0.4185
  721MOL0     C97246   4.416   6.146   8.367 -0.2690  0.2283  0.9265
  721MOL0     C97247   4.548   6.135   8.316 -0.5123  0.6402 -0.3253
  721MOL0     O97248   4.710   6.071   7.915 -0.5186 -0.0975 -0.1882
  721MOL0     C97249   4.978   6.058   7.877  0.7499 -1.2044  0.0598
  721MOL0     C97250   5.113   6.031   7.858  0.9383  0.8790  0.6954
  721MOL0     N97251   5.949   5.782   8.056  0.2401  0.0544  0.2473
  721MOL0     N97252   6.061   5.718   8.040 -0.8089 -0.1681  0.9839
  721MOL0     C97253   7.053   5.699   7.325  0.8805 -0.2930  0.2907
  721MOL0     C97254   7.179   5.703   7.275  0.0162 -0.0730  0.1695
  721MOL0     C97255   7.485   5.750   6.917 -0.8534  0.3990 -0.0561
  721MOL0     C97256   7.587   5.733   7.004  0.2530 -0.5801 -0.4315
  721MOL0     C97257   7.717   5.758   6.961  0.0975  0.2984 -0.3120
  721MOL0     C97258   7.751   5.768   6.829 -0.9392 -0.1866  0.9945
  721MOL0     O97259   7.884   5.755   6.802  0.2597 -0.0411 -0.5706
  721MOL0     C97260   7.930   5.765   6.660  0.1672 -0.1763  0.0018
  721MOL0     C97261   8.083   5.743   6.659  0.3211 -0.1514  0.3857
  721MOL0     C97262   8.153   5.885   6.650 -0.2884 -0.5747  0.0409
  721MOL0     C97263   8.308   5.872   6.614  0.2606  0.5447 -0.4810
  721MOL0     C97264   8.370   5.817   6.738 -0.1237 -0.1585  0.6306
  721MOL0     C97265   8.422   5.769   6.834 -0.9627  0.1412 -0.3402
  721MOL0     C97266   7.645   5.778   6.738 -0.5373  0.2734 -1.1402
  721MOL0     C97267   7.515   5.772   6.778 -0.3369  0.3826 -0.3280
  721MOL0     H97268   7.128   5.536   6.985  2.8706 -2.1021  1.8227
  721MOL0     H97269   6.897   5.524   7.078  0.2563 -0.7172 -2.1199
  721MOL0     H97270   6.840   5.706   7.490 -3.2099 -0.5452  1.8076
  721MOL0     H97271   6.791   5.810   7.348 -2.3448  1.0784  1.2595
  721MOL0     H97272   6.581   5.663   7.338  0.8058  1.6133 -0.2314
  721MOL0     H97273   6.644   5.581   7.484 -2.3481  1.6291  2.4716
  721MOL0     H97274   6.609   5.777   7.619 -0.3248  0.8121  1.0755
  721MOL0     H97275   6.561   5.879   7.490  0.5485 -1.1834 -0.7501
  721MOL0     H97276   6.388   5.709   7.431  0.2577 -0.4148  0.1405
  721MOL0     H97277   6.410   5.641   7.596  1.9757  1.3033  2.7800
  721MOL0     H97278   6.309   5.928   7.537 -1.7184 -2.0662 -2.0565
  721MOL0     H97279   6.213   5.799   7.583 -0.1122 -0.5467  1.2683
  721MOL0     H97280   6.427   5.928   7.747 -0.7243  0.4999  2.1930
  721MOL0     H97281   6.257   5.945   7.763  1.2185  0.8900 -1.5759
  721MOL0     H97282   6.444   5.695   7.824  0.6847  1.0065 -0.7754
  721MOL0     H97283   6.371   5.802   7.941 -0.3241  0.0990 -0.0591
  721MOL0     H97284   6.253   5.598   7.935 -1.8302  1.4532  1.6869
  721MOL0     H97285   6.204   5.621   7.764  0.6698 -4.1750  0.9107
  721MOL0     H97286   6.018   5.846   7.735  1.5388  1.0999  0.4044
  721MOL0     H97287   5.805   6.010   7.942 -2.2619 -0.0071  0.2405
  721MOL0     H97288   5.791   5.923   7.785 -2.1095  1.9491 -0.7508
  721MOL0     H97289   5.675   5.838   8.069  1.6481  1.6877  0.4340
  721MOL0     H97290   5.641   5.754   7.909  1.1471  1.3860 -1.5757
  721MOL0     H97291   5.524   5.924   7.834 -0.7785 -0.4004 -0.2668
  721MOL0     H97292   5.576   6.049   7.960  0.0403 -0.2911  0.9212
  721MOL0     H97293   5.408   5.969   8.113  4.7917  2.3547 -0.3558
  721MOL0     H97294   5.423   5.813   8.039 -3.2189 -0.6578 -0.9620
  721MOL0     H97295   5.194   5.933   8.169  0.7192 -1.6989 -0.7469
  721MOL0     H97296   4.884   5.862   8.236 -1.2767 -0.8118  2.0397
  721MOL0     H97297   5.041   5.903   8.292 -0.7601  0.8431  1.0119
  721MOL0     H97298   4.920   6.035   8.294 -5.9708 -1.6873 -1.1157
  721MOL0     H97299   4.478   6.051   7.990  1.2404 -1.2987  0.5693
  721MOL0     H97300   4.238   6.095   8.077 -1.2768 -1.2522  2.2322
  721MOL0     H97301   4.064   6.015   8.381  0.7510 -2.0633  2.7594
  721MOL0     H97302   4.213   6.032   8.462 -1.0352 -1.6067  0.0970
  721MOL0     H97303   4.018   6.085   8.597 -0.2009  0.7020  0.5053
  721MOL0     H97304   4.104   6.244   8.576  1.6458 -0.0546 -0.2580
  721MOL0     H97305   3.894   6.176   8.377  0.9918 -1.4613 -0.1999
  721MOL0     H97306   3.948   6.340   8.420 -0.8101 -1.0459 -1.9614
  721MOL0     H97307   3.792   6.160   8.606  1.5226 -1.0455 -1.3119
  721MOL0     H97308   3.853   6.327   8.629  2.3969 -1.0857  0.4612
  721MOL0     H97309   3.655   6.232   8.420  2.5022  0.6188 -0.5441
  721MOL0     H97310   3.716   6.397   8.432  1.9271 -0.9225 -0.9830
  721MOL0     H97311   3.565   6.265   8.650  0.7290  1.0199  1.4326
  721MOL0     H97312   3.616   6.436   8.619 -0.7265  1.0676 -0.2163
  721MOL0     H97313   3.462   6.316   8.391  1.9218 -2.9259  1.5300
  721MOL0     H97314   3.446   6.474   8.465  0.3899  0.4341  1.4984
  721MOL0     H97315   3.328   6.232   8.570 -0.5833  0.6104  0.8220
  721MOL0     H97316   3.243   6.361   8.500  0.1911 -1.0762 -1.1630
  721MOL0     H97317   4.401   6.157   8.474 -1.5380  1.4332  0.6629
  721MOL0     H97318   4.634   6.128   8.382 -1.6191 -0.9177  1.0395
  721MOL0     H97319   4.917   6.083   7.791  1.6329 -3.4411 -1.3176
  721MOL0     H97320   5.153   6.046   7.758 -1.3676  0.3487 -0.3758
  721MOL0     H97321   7.043   5.730   7.428  0.7596 -3.0042  1.1640
  721MOL0     H97322   7.255   5.748   7.337  0.0967  1.0508 -0.6985
  721MOL0     H97323   7.562   5.694   7.103 -3.5385  1.3020 -0.4905
  721MOL0     H97324   7.789   5.738   7.039  1.4885  2.9973 -0.7614
  721MOL0     H97325   7.893   5.678   6.605  0.8093 -1.9223  2.1850
  721MOL0     H97326   7.900   5.862   6.621  0.8018 -1.0655 -2.9586
  721MOL0     H97327   8.109   5.688   6.568  1.6423  1.8545 -0.5131
  721MOL0     H97328   8.109   5.683   6.747 -0.2871  0.9971  1.3863
  721MOL0     H97329   8.142   5.929   6.749 -0.7808 -0.2306 -0.1644
  721MOL0     H97330   8.100   5.951   6.581 -2.2862 -0.9083  1.1928
  721MOL0     H97331   8.348   5.969   6.581 -0.6033  1.0044 -0.2076
  721MOL0     H97332   8.312   5.801   6.531  0.4048 -0.2928  0.2342
  721MOL0     H97333   8.490   5.733   6.909  0.0672  1.7134 -0.4660
  721MOL0     H97334   7.666   5.786   6.632 -2.2573 -2.2406 -1.7650
  721MOL0     H97335   7.430   5.786   6.712 -0.8907  0.1585  0.3255
  722MOL0     O97336   1.547  10.769   9.985  0.3625 -0.0334  0.0754
  722MOL0     C97337   1.586  10.675  10.056 -0.6645  0.3664 -0.8842
  722MOL0     O97338   1.516  10.585  10.130 -0.1683 -0.3794  0.3493
  722MOL0     C97339   1.381  10.596  10.159  0.3789  0.0553 -0.0492
  722MOL0     C97340   1.345  10.597  10.293  1.1047  0.2142 -0.2129
  722MOL0     C97341   1.217  10.627  10.335  0.0398  0.9698  0.4794
  722MOL0     C97342   1.118  10.658  10.236  0.0157 -0.5291 -0.5928
  722MOL0     O97343   0.986  10.688  10.259  0.3703  0.3625 -0.4871
  722MOL0     C97344   0.956  10.748  10.387 -0.4663 -0.3569  0.5597
  722MOL0     C97345   0.824  10.828  10.362 -0.2946  0.3850  0.0429
  722MOL0     C97346   0.711  10.746  10.299  0.5355  0.2533  0.2750
  722MOL0     C97347   0.595  10.837  10.248  0.2520 -0.5123  0.1317
  722MOL0     C97348   0.514  10.765  10.132  0.5395  0.1981  1.0466
  722MOL0     C97349   0.379  10.825  10.102  0.4827  0.3950 -1.0176
  722MOL0     C97350   0.398  10.965  10.048  0.8342  0.0434 -1.0146
  722MOL0     C97351   0.289  10.999   9.939  1.0261  0.7639 -0.3654
  722MOL0     N97352   0.157  10.991   9.996  0.0091 -0.8274 -0.8033
  722MOL0     C97353   0.109  11.054  10.112 -0.4059 -0.0131  0.2694
  722MOL0     C97354  -0.008  10.989  10.136  0.1717  0.0035  0.4429
  722MOL0     C97355  -0.108  11.018  10.242  0.6204  0.1541 -0.8689
  722MOL0     C97356  -0.124  11.173  10.239  0.0422  0.4746 -0.0387
  722MOL0     C97357  -0.233  11.228  10.333  0.2229  0.4739  0.1967
  722MOL0     C97358  -0.304  11.347  10.262  0.0046  1.1795  0.6477
  722MOL0     O97359  -0.402  11.409  10.346 -0.1696  0.0256  0.2411
  722MOL0     C97360  -0.534  11.366  10.350  0.9957 -1.3013 -0.4012
  722MOL0     C97361  -0.571  11.235  10.312  0.2367 -0.4967  0.1883
  722MOL0     C97362  -0.700  11.186  10.319  0.7743  0.0280 -0.0706
  722MOL0     C97363  -0.718  11.039  10.285  0.4890  0.2001 -0.5478
  722MOL0     C97364  -0.807  11.286  10.350  0.0746 -0.0186 -0.2472
  722MOL0     C97365  -0.958  11.247  10.360  0.6072  0.4459  0.0086
  722MOL0     O97366  -1.048  11.345  10.390  0.1289  0.0744  0.6026
  722MOL0     C97367  -1.179  11.322  10.407 -0.5082 -0.0103 -0.4244
  722MOL0     C97368  -1.252  11.236  10.322  0.3532 -0.4538  0.0668
  722MOL0     C97369  -1.390  11.225  10.350 -0.2743 -0.4022 -0.4249
  722MOL0     C97370  -1.448  11.290  10.466 -0.1537  0.9700 -0.1799
  722MOL0     O97371  -1.580  11.268  10.511 -0.7411  0.1304 -0.4075
  722MOL0     C97372  -1.649  11.150  10.459  0.0385 -0.2475  0.0425
  722MOL0     C97373  -1.794  11.123  10.497  0.5519 -0.2293  0.8102
  722MOL0     C97374  -1.883  11.245  10.486  0.0123  0.2989  1.0066
  722MOL0     C97375  -2.015  11.227  10.552 -0.0253 -0.8191  0.4613
  722MOL0     C97376  -2.117  11.340  10.530  0.8204 -0.5867  0.2190
  722MOL0     C97377  -2.226  11.329  10.638  0.5064 -0.2004  0.0651
  722MOL0     C97378  -2.372  11.359  10.593  0.3861 -0.1345 -0.0676
  722MOL0     C97379  -2.380  11.507  10.564  0.0906 -0.5134  0.4188
  722MOL0    Cl97380  -2.554  11.531  10.522  0.0641 -0.1890  0.6316
  722MOL0     C97381  -1.369  11.373  10.550  0.0639 -0.4697  0.0126
  722MOL0     C97382  -1.232  11.395  10.517  0.3231  0.3285 -0.6171
  722MOL0     O97383  -0.988  11.128  10.348 -0.2887  0.8932  0.8007
  722MOL0     C97384  -0.766  11.411  10.392 -0.4956 -0.5585 -0.3617
  722MOL0     C97385  -0.635  11.455  10.383  0.6700  0.3341 -0.5234
  722MOL0     N97386  -0.040  10.898  10.035 -0.1836 -0.3510 -0.4546
  722MOL0     N97387   0.059  10.910   9.953 -0.4113 -0.2701 -0.0825
  722MOL0     C97388   1.147  10.651  10.103 -0.4081  0.3571 -0.2759
  722MOL0     C97389   1.279  10.622  10.062 -0.8616 -0.2722  0.2950
  722MOL0     C97390   1.728  10.637  10.032  0.2055  1.7437 -0.4581
  722MOL0     C97391   1.783  10.548  10.120 -1.0743  0.3414 -0.2073
  722MOL0     C97392   1.920  10.527  10.125 -0.7302 -0.7574  0.1849
  722MOL0     C97393   2.005  10.580  10.028 -0.3050  0.2051  0.0984
  722MOL0     O97394   2.144  10.582  10.032 -1.3101  0.0302 -0.0303
  722MOL0     C97395   2.213  10.496  10.130 -0.1905 -0.1395  0.0337
  722MOL0     C97396   2.360  10.529  10.109  0.4847  0.3637 -0.3632
  722MOL0     C97397   2.444  10.423  10.184 -0.1689 -0.6019  0.4177
  722MOL0     C97398   2.431  10.446  10.337  0.2058 -0.2075  0.2074
  722MOL0     C97399   2.491  10.561  10.384 -0.4992  0.6690 -0.1146
  722MOL0     C97400   2.558  10.664  10.408 -0.1899  0.7316 -0.7414
  722MOL0     C97401   1.951  10.671   9.936  0.3216 -0.2863  0.0395
  722MOL0     C97402   1.811  10.705   9.941  0.8948  0.6362  0.2490
  722MOL0     H97403   1.419  10.581  10.371  0.2044  1.3023  0.8906
  722MOL0     H97404   1.194  10.627  10.441 -3.6663  1.3707 -0.1749
  722MOL0     H97405   0.939  10.678  10.470 -0.1171 -0.5297  0.4866
  722MOL0     H97406   1.031  10.825  10.408  0.4320  0.1039 -3.4972
  722MOL0     H97407   0.784  10.880  10.450  2.0759 -2.9137  3.4038
  722MOL0     H97408   0.850  10.909  10.294 -0.4566 -0.4708 -1.0744
  722MOL0     H97409   0.753  10.703  10.208 -1.4840 -0.4276 -0.3773
  722MOL0     H97410   0.670  10.671  10.367 -0.5813  1.2218  0.7123
  722MOL0     H97411   0.532  10.871  10.331 -1.7877  4.0409 -2.8572
  722MOL0     H97412   0.620  10.934  10.203 -2.8019  0.4391  0.2657
  722MOL0     H97413   0.569  10.765  10.038  1.2644  0.2262  1.4654
  722MOL0     H97414   0.489  10.660  10.149  1.0881  0.2163  2.0584
  722MOL0     H97415   0.336  10.765  10.021  1.4190  1.0071 -1.9935
  722MOL0     H97416   0.311  10.831  10.187  1.0431 -0.4809 -0.5031
  722MOL0     H97417   0.390  11.044  10.124 -2.4516 -1.1879  0.1098
  722MOL0     H97418   0.491  10.974   9.990  1.6967  0.0336  0.3112
  722MOL0     H97419   0.298  10.936   9.850 -3.1962 -0.4093 -0.1605
  722MOL0     H97420   0.311  11.104   9.917  2.8804  0.3022 -0.8972
  722MOL0     H97421   0.152  11.127  10.180 -3.7550  2.0725  0.3791
  722MOL0     H97422  -0.203  10.969  10.219 -0.0833 -1.8768  4.6933
  722MOL0     H97423  -0.088  10.979  10.342 -1.9794  0.8679  0.0125
  722MOL0     H97424  -0.150  11.202  10.137  0.9277  0.6261 -0.2279
  722MOL0     H97425  -0.033  11.231  10.255 -0.9612  2.1897 -0.2961
  722MOL0     H97426  -0.184  11.268  10.422 -1.8585  3.3566  0.2163
  722MOL0     H97427  -0.306  11.151  10.358 -0.0983  1.1292  1.3549
  722MOL0     H97428  -0.336  11.318  10.161  0.8742 -1.5788  1.0787
  722MOL0     H97429  -0.227  11.422  10.243  3.4194 -2.2924 -0.3597
  722MOL0     H97430  -0.501  11.160  10.276 -0.0218 -0.5759 -0.1489
  722MOL0     H97431  -0.798  11.039  10.211  0.3818  1.1208 -0.4413
  722MOL0     H97432  -0.630  10.988  10.245  0.1071 -1.2072  0.3090
  722MOL0     H97433  -0.763  10.978  10.365  2.9705 -1.0256  0.0263
  722MOL0     H97434  -1.202  11.194  10.236  1.5397  2.0509 -0.5439
  722MOL0     H97435  -1.447  11.154  10.292 -1.1521  0.1767 -0.2988
  722MOL0     H97436  -1.656  11.172  10.352 -0.8083 -1.2187 -0.1112
  722MOL0     H97437  -1.588  11.060  10.471 -2.1711 -2.0520 -1.5001
  722MOL0     H97438  -1.838  11.045  10.433 -0.7590  1.1463 -0.0228
  722MOL0     H97439  -1.785  11.089  10.600 -0.2345  0.6680  1.1850
  722MOL0     H97440  -1.901  11.274  10.382  2.1433  2.0986  1.0465
  722MOL0     H97441  -1.830  11.325  10.540 -0.0592  0.5082  0.7735
  722MOL0     H97442  -2.070  11.135  10.529 -1.6027 -0.0580  1.0793
  722MOL0     H97443  -1.988  11.226  10.658  0.1651  1.2261  0.4718
  722MOL0     H97444  -2.162  11.331  10.431  0.5021  2.5121 -0.0201
  722MOL0     H97445  -2.067  11.437  10.531 -1.6293  0.7899  2.4790
  722MOL0     H97446  -2.222  11.233  10.690  1.4308  0.0558  0.4892
  722MOL0     H97447  -2.199  11.403  10.713 -1.1069 -0.3453  0.8338
  722MOL0     H97448  -2.449  11.331  10.666  0.4833 -1.1688 -0.3422
  722MOL0     H97449  -2.397  11.306  10.501  0.3679  0.4046 -0.3782
  722MOL0     H97450  -2.312  11.533  10.482  1.4380  0.2811  1.7260
  722MOL0     H97451  -2.359  11.561  10.657 -1.7309  2.0283 -0.5394
  722MOL0     H97452  -1.424  11.411  10.635 -0.2089  0.6462 -0.6416
  722MOL0     H97453  -1.162  11.456  10.573  0.1193  0.6108 -0.6694
  722MOL0     H97454  -0.843  11.478  10.430 -0.4368 -1.4770  1.4557
  722MOL0     H97455  -0.611  11.558  10.407  0.9841  0.5968 -1.8585
  722MOL0     H97456   1.069  10.672  10.031  0.2215 -0.1826 -1.1360
  722MOL0     H97457   1.303  10.619   9.957 -2.3711 -2.5677 -0.0653
  722MOL0     H97458   1.726  10.495  10.196 -0.0675 -2.2513 -1.1265
  722MOL0     H97459   1.966  10.487  10.215 -0.3216 -1.1738 -0.2074
  722MOL0     H97460   2.181  10.523  10.231 -0.9791  1.0678 -0.5196
  722MOL0     H97461   2.198  10.389  10.114  2.2303 -0.5737  0.1581
  722MOL0     H97462   2.379  10.633  10.140 -0.1896  0.9982 -1.9435
  722MOL0     H97463   2.380  10.518  10.002  0.9835 -1.0583 -0.1405
  722MOL0     H97464   2.546  10.431  10.146 -0.3339 -4.4219 -1.3218
  722MOL0     H97465   2.402  10.324  10.162 -2.6808 -0.4561  3.7408
  722MOL0     H97466   2.488  10.368  10.389  0.0127 -1.6511 -1.6670
  722MOL0     H97467   2.330  10.452  10.378 -0.9007 -0.4328 -2.3121
  722MOL0     H97468   2.608  10.759  10.417  0.5140  0.1243  3.2574
  722MOL0     H97469   2.009  10.721   9.859  0.5649  0.8156  0.9006
  722MOL0     H97470   1.767  10.779   9.875 -1.2275 -1.6664 -1.0824
  723MOL0     O97471   8.513   5.458  10.382  0.5233 -0.6940 -0.0574
  723MOL0     C97472   8.574   5.543  10.432 -0.4186  0.3842  0.1164
  723MOL0     O97473   8.527   5.666  10.472  0.8567 -0.2568 -0.2560
  723MOL0     C97474   8.393   5.701  10.495  0.1896  0.4082 -0.5525
  723MOL0     C97475   8.361   5.838  10.522 -0.4736  0.3992  0.5148
  723MOL0     C97476   8.233   5.884  10.531  0.2589  0.9335 -0.1146
  723MOL0     C97477   8.129   5.800  10.529 -0.1724  0.2779 -0.0864
  723MOL0     O97478   7.999   5.835  10.530  0.0466  0.2807  0.6040
  723MOL0     C97479   7.901   5.766  10.443 -0.6329 -0.6139 -0.3937
  723MOL0     C97480   7.802   5.872  10.393  0.3887 -0.4530  0.2161
  723MOL0     C97481   7.693   5.895  10.499  0.6236 -0.4603 -0.4967
  723MOL0     C97482   7.571   5.985  10.462  0.1807 -0.6263 -0.6880
  723MOL0     C97483   7.440   5.946  10.537 -0.1989  0.0889  1.0150
  723MOL0     C97484   7.329   6.049  10.505  0.3276 -0.2763 -0.7291
  723MOL0     C97485   7.200   6.011  10.569 -0.4092  0.1677 -0.1255
  723MOL0     C97486   7.106   5.928  10.472 -1.2020 -0.0570 -0.9226
  723MOL0     N97487   6.972   5.930  10.525  0.2899  0.3970 -0.0130
  723MOL0     C97488   6.862   5.977  10.460 -0.1420  0.5009 -0.8690
  723MOL0     C97489   6.758   5.923  10.518 -0.2357  0.0191 -0.1206
  723MOL0     C97490   6.611   5.962  10.481 -0.9170 -1.3754  0.0667
  723MOL0     C97491   6.581   6.107  10.528 -0.2645 -0.4698  0.4047
  723MOL0     C97492   6.441   6.155  10.499 -0.2784 -0.0203 -0.5742
  723MOL0     C97493   6.399   6.289  10.552  0.1684  0.1932  0.5464
  723MOL0     O97494   6.282   6.328  10.487 -0.0305  0.0359 -1.1282
  723MOL0     C97495   6.162   6.334  10.554  0.8065 -0.5173  0.1204
  723MOL0     C97496   6.078   6.226  10.571 -0.4418  0.2667 -0.5504
  723MOL0     C97497   5.966   6.240  10.658  0.5873 -0.3955 -0.2934
  723MOL0     C97498   5.882   6.128  10.698 -0.0497 -0.6419  0.3736
  723MOL0     C97499   5.930   6.363  10.711  0.2601 -0.3405  0.0151
  723MOL0     C97500   5.807   6.395  10.772  0.1949 -0.0532  0.9002
  723MOL0     O97501   5.779   6.332  10.892 -0.5694  0.3116  1.2844
  723MOL0     C97502   5.661   6.351  10.947 -0.7220 -0.7695  0.1992
  723MOL0     C97503   5.596   6.241  10.994 -0.9404  1.0830 -0.9166
  723MOL0     C97504   5.474   6.241  11.065 -0.3998 -0.2589  0.7757
  723MOL0     C97505   5.409   6.361  11.075  0.2417 -0.2290 -0.7220
  723MOL0     O97506   5.294   6.368  11.159  0.0889 -0.9334  0.2881
  723MOL0     C97507   5.191   6.454  11.120 -0.1747 -0.2297  0.5120
  723MOL0     C97508   5.068   6.440  11.213 -0.6361 -0.2722  0.0658
  723MOL0     C97509   5.019   6.291  11.203 -0.2463 -0.2578 -0.2915
  723MOL0     C97510   4.898   6.285  11.291  0.8930  0.3657  0.7109
  723MOL0     C97511   4.824   6.159  11.271 -0.0942 -0.0097 -0.0687
  723MOL0     C97512   4.709   6.133  11.364 -0.1789  0.6155 -0.0449
  723MOL0     C97513   4.651   5.998  11.331 -0.7081 -0.3443 -0.8520
  723MOL0     C97514   4.501   5.991  11.361  0.0824  0.0551 -0.4987
  723MOL0    Cl97515   4.416   5.871  11.258  0.0751  0.0029 -0.1912
  723MOL0     C97516   5.471   6.478  11.025 -0.8512 -0.1187  0.0638
  723MOL0     C97517   5.596   6.473  10.959  0.0706  0.6782  0.7287
  723MOL0     O97518   5.739   6.475  10.711 -0.1983 -0.0161 -0.3559
  723MOL0     C97519   6.024   6.468  10.702 -0.3291  0.3323  1.0415
  723MOL0     C97520   6.130   6.458  10.621  0.1387  0.4798  0.4461
  723MOL0     N97521   6.804   5.857  10.636  0.4236 -0.4204  0.1164
  723MOL0     N97522   6.930   5.861  10.636 -0.3017 -0.0758  0.3548
  723MOL0     C97523   8.162   5.663  10.511 -0.1476  0.2547  0.2844
  723MOL0     C97524   8.286   5.615  10.491 -0.4472  0.6511  0.3742
  723MOL0     C97525   8.719   5.513  10.455  0.0828  0.3632  0.5557
  723MOL0     C97526   8.799   5.593  10.539  0.1217  0.7122 -0.3778
  723MOL0     C97527   8.930   5.547  10.577  0.1781  0.5073 -0.0028
  723MOL0     C97528   8.982   5.420  10.523  0.2071 -0.3293 -0.1340
  723MOL0     O97529   9.107   5.377  10.560  0.5035 -0.7887 -0.4650
  723MOL0     C97530   9.209   5.477  10.585  0.2416 -0.1304  0.1422
  723MOL0     C97531   9.343   5.419  10.552  0.7950 -0.3450  0.4049
  723MOL0     C97532   9.384   5.437  10.404 -0.1295 -0.6754  0.5662
  723MOL0     C97533   9.300   5.360  10.309  0.4650 -1.3998 -0.5257
  723MOL0     C97534   9.314   5.218  10.342 -0.2507 -0.6022  0.5205
  723MOL0     C97535   9.328   5.097  10.353  0.5002 -0.9297  0.0918
  723MOL0     C97536   8.902   5.355  10.429 -0.0577  0.0062 -0.3733
  723MOL0     C97537   8.774   5.395  10.399  0.2408  0.4790 -0.7124
  723MOL0     H97538   8.438   5.912  10.543  0.9631 -1.0054  0.4173
  723MOL0     H97539   8.206   5.989  10.538  0.0677  0.9711 -1.2667
  723MOL0     H97540   7.953   5.725  10.355 -0.7613  1.2272 -1.3695
  723MOL0     H97541   7.852   5.679  10.488 -2.5906  0.1495 -0.9617
  723MOL0     H97542   7.859   5.962  10.366 -1.2360  0.5395 -0.0288
  723MOL0     H97543   7.754   5.839  10.300  3.8516  1.4761 -2.4830
  723MOL0     H97544   7.648   5.798  10.524 -0.7762  0.5454  1.1679
  723MOL0     H97545   7.736   5.934  10.592 -0.1435 -2.1925  0.6377
  723MOL0     H97546   7.582   6.092  10.485 -2.5134 -0.3219 -0.4767
  723MOL0     H97547   7.551   5.979  10.354  0.2567 -1.9615 -0.6452
  723MOL0     H97548   7.409   5.843  10.515  0.1556  0.0881  0.4985
  723MOL0     H97549   7.449   5.950  10.646 -2.4352  2.2703  1.1998
  723MOL0     H97550   7.354   6.151  10.538  0.7059 -1.1059  1.7833
  723MOL0     H97551   7.316   6.056  10.397 -1.4907  0.1284 -0.5148
  723MOL0     H97552   7.214   5.951  10.660 -1.3784 -1.8495 -1.2301
  723MOL0     H97553   7.143   6.102  10.593  0.3085  1.3519 -2.6080
  723MOL0     H97554   7.154   5.830  10.471  0.2535  0.4968  2.4620
  723MOL0     H97555   7.100   5.965  10.369 -0.3801  0.5629 -0.7617
  723MOL0     H97556   6.863   6.047  10.377  4.0614  3.0735  0.9792
  723MOL0     H97557   6.596   5.959  10.373 -1.0775  0.0395  0.0264
  723MOL0     H97558   6.549   5.886  10.530 -0.0098 -2.4685 -0.4474
  723MOL0     H97559   6.652   6.177  10.482 -1.7500  1.0108  0.2796
  723MOL0     H97560   6.586   6.105  10.637 -2.1285  0.0270  0.5353
  723MOL0     H97561   6.367   6.082  10.533 -0.9070  0.7202 -0.3301
  723MOL0     H97562   6.432   6.155  10.390 -2.1821  1.7680 -0.4788
  723MOL0     H97563   6.475   6.360  10.519 -2.5422  2.0865 -2.0962
  723MOL0     H97564   6.392   6.289  10.662 -2.6134  0.3215  0.4451
  723MOL0     H97565   6.103   6.131  10.524 -0.4145 -0.1020  0.1900
  723MOL0     H97566   5.921   6.033  10.660 -0.5441 -1.8446  2.6487
  723MOL0     H97567   5.875   6.128  10.808  2.2606 -0.1454  0.5554
  723MOL0     H97568   5.780   6.142  10.659  0.6342  1.2676 -0.8633
  723MOL0     H97569   5.653   6.149  10.990 -0.4101  1.1582  2.2840
  723MOL0     H97570   5.445   6.148  11.113  2.6375 -2.6182 -1.5612
  723MOL0     H97571   5.215   6.559  11.136  1.0429 -0.0376 -2.1608
  723MOL0     H97572   5.162   6.429  11.018 -0.0751 -3.4231  1.1376
  723MOL0     H97573   5.098   6.473  11.313 -1.4306  2.1236 -0.4099
  723MOL0     H97574   4.994   6.509  11.171 -0.1249  0.5620  0.4935
  723MOL0     H97575   5.098   6.225  11.239  0.0519  0.3066  0.0997
  723MOL0     H97576   4.995   6.264  11.100 -0.4086  0.3023 -0.4027
  723MOL0     H97577   4.914   6.314  11.395 -1.2556 -0.7463  1.4251
  723MOL0     H97578   4.823   6.356  11.255  0.3779 -0.4533  0.1137
  723MOL0     H97579   4.893   6.074  11.273 -2.4922 -2.0961 -0.6950
  723MOL0     H97580   4.770   6.160  11.176 -0.8368 -0.9845  0.3279
  723MOL0     H97581   4.745   6.119  11.466 -0.2841  1.0511  0.0557
  723MOL0     H97582   4.636   6.214  11.354  0.7265  2.1505  3.9048
  723MOL0     H97583   4.703   5.921  11.390  2.4580  2.6467  0.5842
  723MOL0     H97584   4.664   5.970  11.226 -2.5444  0.9551 -1.4841
  723MOL0     H97585   4.458   6.089  11.339  1.1508  1.2959  2.3991
  723MOL0     H97586   4.488   5.976  11.469  3.0437  0.0524 -0.0409
  723MOL0     H97587   5.427   6.576  11.038  0.2988  0.4765 -0.4047
  723MOL0     H97588   5.632   6.564  10.913 -2.2110  1.1262 -0.2474
  723MOL0     H97589   5.993   6.559  10.752 -0.1490  1.0471 -0.1362
  723MOL0     H97590   6.184   6.550  10.599 -0.7022  0.3277 -2.6576
  723MOL0     H97591   8.087   5.585  10.507 -1.6604  1.6488  0.6099
  723MOL0     H97592   8.283   5.507  10.480 -3.2236  0.3236  2.9892
  723MOL0     H97593   8.749   5.672  10.594 -0.8066  0.4955 -0.8845
  723MOL0     H97594   8.985   5.594  10.657  0.4205  0.7244 -0.2939
  723MOL0     H97595   9.202   5.567  10.523  3.0294 -0.3458 -0.6327
  723MOL0     H97596   9.206   5.501  10.691 -0.0382 -0.8287  0.2982
  723MOL0     H97597   9.333   5.315  10.586 -2.8683  0.4259  2.1940
  723MOL0     H97598   9.417   5.458  10.622  1.6095  0.0866 -0.6870
  723MOL0     H97599   9.488   5.406  10.385  0.9511  2.8577  0.0297
  723MOL0     H97600   9.378   5.540  10.369 -2.8632 -1.3057 -1.1067
  723MOL0     H97601   9.327   5.374  10.205  1.5425 -1.5752 -0.2781
  723MOL0     H97602   9.195   5.390  10.314  1.0960  0.7434  1.9995
  723MOL0     H97603   9.321   4.991  10.362  0.6461 -0.8865  0.8122
  723MOL0     H97604   8.943   5.270  10.375 -1.6387  0.7357 -2.8736
  723MOL0     H97605   8.717   5.338  10.326  0.3608 -0.2080 -0.2765
  724MOL0     O97606   2.946   4.734   2.910 -0.2397 -0.1099  0.1721
  724MOL0     C97607   2.995   4.747   2.800 -0.6008 -0.6933 -0.5173
  724MOL0     O97608   2.946   4.689   2.681 -0.5420 -0.1238  0.4837
  724MOL0     C97609   2.812   4.666   2.673  0.4335  0.4309 -0.0405
  724MOL0     C97610   2.784   4.593   2.559  0.0407 -0.4723  0.6650
  724MOL0     C97611   2.654   4.552   2.526  0.6556  0.6564  0.1738
  724MOL0     C97612   2.545   4.585   2.601  0.0028 -0.1909 -0.7924
  724MOL0     O97613   2.420   4.536   2.573 -0.4571 -0.8258 -0.2412
  724MOL0     C97614   2.413   4.397   2.587 -0.0849  0.1703  1.1720
  724MOL0     C97615   2.359   4.344   2.455  0.2455  0.1274  0.3663
  724MOL0     C97616   2.219   4.406   2.431  0.7413  0.1791  0.2178
  724MOL0     C97617   2.172   4.380   2.289  0.0586 -0.3812 -0.3913
  724MOL0     C97618   2.015   4.384   2.282  1.5251 -0.4544 -0.2811
  724MOL0     C97619   1.955   4.523   2.302 -0.4905  0.0244 -0.1715
  724MOL0     C97620   1.802   4.541   2.260 -0.1901 -0.4518 -0.6139
  724MOL0     C97621   1.757   4.686   2.303 -0.3797 -0.2301 -0.3140
  724MOL0     N97622   1.619   4.713   2.272 -0.4902 -0.0912  0.1766
  724MOL0     C97623   1.574   4.721   2.138  0.8282  0.2946 -0.3793
  724MOL0     C97624   1.440   4.750   2.141  0.0097  0.0378  0.4399
  724MOL0     C97625   1.333   4.784   2.039  0.4591  0.4515 -0.5945
  724MOL0     C97626   1.225   4.689   2.034 -0.1780  0.1807 -0.1109
  724MOL0     C97627   1.151   4.692   1.903 -0.7045 -0.7573 -0.3412
  724MOL0     C97628   1.062   4.824   1.891  0.4248  0.2722  0.0783
  724MOL0     O97629   0.984   4.808   1.767 -0.2451  0.3369 -0.6558
  724MOL0     C97630   0.870   4.879   1.736  0.1216  0.4013 -0.7189
  724MOL0     C97631   0.773   4.818   1.649  0.2800  0.7110  0.3524
  724MOL0     C97632   0.662   4.888   1.605 -0.5005  0.2346  0.2150
  724MOL0     C97633   0.569   4.827   1.506 -0.7600  0.7276 -0.4183
  724MOL0     C97634   0.641   5.022   1.663  0.7461 -0.2962 -0.0675
  724MOL0     C97635   0.526   5.120   1.631 -0.1237 -0.4865  0.1090
  724MOL0     O97636   0.436   5.071   1.548  0.6509 -0.2812  0.4976
  724MOL0     C97637   0.306   5.141   1.537 -0.6131  0.4819  0.0380
  724MOL0     C97638   0.196   5.051   1.540  0.5145 -0.4022  0.1232
  724MOL0     C97639   0.066   5.105   1.531 -0.8710 -0.4781  1.0828
  724MOL0     C97640   0.043   5.243   1.510  1.1102 -0.1101 -0.2965
  724MOL0     O97641  -0.088   5.291   1.497  0.4957  0.5155 -0.4737
  724MOL0     C97642  -0.110   5.431   1.503 -0.1918 -0.7408 -0.3232
  724MOL0     C97643  -0.254   5.455   1.504  0.5262  0.0057 -0.9827
  724MOL0     C97644  -0.316   5.410   1.637 -0.7036 -0.6628 -0.5178
  724MOL0     C97645  -0.464   5.455   1.647  0.0762  0.1201  0.0295
  724MOL0     C97646  -0.541   5.415   1.771  0.2263  0.4877  0.8912
  724MOL0     C97647  -0.686   5.454   1.775  0.5162 -0.5114  0.2635
  724MOL0     C97648  -0.745   5.424   1.912  1.0684  0.4131  0.0993
  724MOL0     C97649  -0.893   5.411   1.905  0.0970 -0.6835 -0.5329
  724MOL0    Cl97650  -0.943   5.584   1.895  0.0967 -0.0654  0.0849
  724MOL0     C97651   0.154   5.324   1.491 -0.8276  0.2602  0.5492
  724MOL0     C97652   0.286   5.272   1.502 -0.1142 -0.1456 -0.3777
  724MOL0     O97653   0.519   5.224   1.694 -0.3674 -0.1259 -0.5731
  724MOL0     C97654   0.734   5.075   1.761  0.0967  0.0332  0.7285
  724MOL0     C97655   0.847   4.999   1.793 -0.2434  0.0450  0.2025
  724MOL0     N97656   1.408   4.725   2.276  0.5921  0.6675 -0.2346
  724MOL0     N97657   1.513   4.686   2.342 -0.2884 -0.7459 -0.0759
  724MOL0     C97658   2.565   4.671   2.710 -0.1047 -0.3379  0.5072
  724MOL0     C97659   2.697   4.713   2.743 -0.1908  0.6814 -0.0002
  724MOL0     C97660   3.133   4.798   2.787  0.3885  0.5600  0.1461
  724MOL0     C97661   3.223   4.802   2.891 -0.2090  0.0407 -0.3705
  724MOL0     C97662   3.360   4.833   2.869  0.4477  0.7442 -0.1037
  724MOL0     C97663   3.405   4.874   2.745 -1.1394 -0.5645 -1.3062
  724MOL0     O97664   3.539   4.877   2.705 -0.7812  0.4475  0.2942
  724MOL0     C97665   3.651   4.864   2.794  0.0855  0.4492 -0.9789
  724MOL0     C97666   3.674   4.714   2.826 -0.4917  0.0131 -0.6203
  724MOL0     C97667   3.757   4.695   2.959 -0.8146  0.9062  0.2341
  724MOL0     C97668   3.880   4.776   2.972 -0.8241  0.8512 -0.6067
  724MOL0     C97669   3.984   4.716   3.058  0.0536 -0.2189  1.2577
  724MOL0     C97670   4.055   4.658   3.135  0.2482  0.0076 -0.1699
  724MOL0     C97671   3.313   4.879   2.639 -0.3989  0.1519 -0.0253
  724MOL0     C97672   3.179   4.840   2.659 -0.2658  1.0815 -0.3241
  724MOL0     H97673   2.866   4.567   2.494 -0.3597 -3.3425  1.1962
  724MOL0     H97674   2.637   4.501   2.432 -0.5899 -1.8250  1.6437
  724MOL0     H97675   2.502   4.339   2.615 -1.3199 -1.4182  1.9223
  724MOL0     H97676   2.338   4.375   2.664 -0.2914  0.9630  1.2004
  724MOL0     H97677   2.429   4.380   2.379  0.1013  0.1922  0.2646
  724MOL0     H97678   2.350   4.235   2.454 -3.8558  0.2888 -1.4330
  724MOL0     H97679   2.151   4.352   2.498  0.7129 -1.9024 -1.3687
  724MOL0     H97680   2.215   4.510   2.464  2.0652 -1.0314  4.9976
  724MOL0     H97681   2.211   4.451   2.216  0.0640 -2.6358 -2.7348
  724MOL0     H97682   2.212   4.285   2.251  1.3928  0.0290 -0.0677
  724MOL0     H97683   1.972   4.355   2.185 -1.2243  1.2126  0.3117
  724MOL0     H97684   1.976   4.306   2.348  0.9645 -1.9212 -2.2387
  724MOL0     H97685   1.976   4.558   2.404  1.2178  3.9666 -1.6956
  724MOL0     H97686   2.012   4.590   2.237  1.8742 -2.6626 -1.0936
  724MOL0     H97687   1.780   4.534   2.154  1.5552 -0.6237 -1.0055
  724MOL0     H97688   1.734   4.470   2.308 -1.3863  1.4708  0.6695
  724MOL0     H97689   1.814   4.770   2.261 -1.0590  2.1264  2.9774
  724MOL0     H97690   1.759   4.685   2.413 -0.5987 -0.1031 -0.3071
  724MOL0     H97691   1.635   4.720   2.048  2.3489 -1.2384  0.5903
  724MOL0     H97692   1.283   4.880   2.059 -1.0166 -0.8577  2.6791
  724MOL0     H97693   1.392   4.789   1.947 -0.7541  0.1367 -1.4141
  724MOL0     H97694   1.153   4.711   2.114  0.3897 -0.0524  0.4769
  724MOL0     H97695   1.270   4.589   2.043 -1.3801 -0.4475 -0.8581
  724MOL0     H97696   1.088   4.602   1.904  1.9323 -2.7443  1.8386
  724MOL0     H97697   1.220   4.694   1.818 -0.3660  0.5216 -0.0486
  724MOL0     H97698   1.119   4.917   1.894  0.2595  0.3515  0.9562
  724MOL0     H97699   0.998   4.830   1.979  2.5092  0.0930  1.6688
  724MOL0     H97700   0.797   4.715   1.625  1.5096  0.9124  0.6570
  724MOL0     H97701   0.469   4.836   1.551  0.0616 -0.8911  1.9127
  724MOL0     H97702   0.583   4.878   1.411  2.1878 -0.0757 -0.5038
  724MOL0     H97703   0.580   4.719   1.492 -0.4660  0.6535  0.3240
  724MOL0     H97704   0.210   4.946   1.559  1.8708  0.2395  3.2303
  724MOL0     H97705  -0.022   5.043   1.548 -1.3927  0.6895  2.8385
  724MOL0     H97706  -0.061   5.483   1.586  3.1328 -1.1837 -1.8504
  724MOL0     H97707  -0.074   5.485   1.415  0.2825 -1.1189 -0.3644
  724MOL0     H97708  -0.260   5.564   1.498  0.5278 -0.0377 -1.7842
  724MOL0     H97709  -0.314   5.407   1.426 -1.6574 -0.8136  1.0811
  724MOL0     H97710  -0.254   5.463   1.709 -1.7566 -0.2362  0.0855
  724MOL0     H97711  -0.305   5.302   1.656 -0.7450 -0.4027  1.0670
  724MOL0     H97712  -0.492   5.561   1.641 -0.7370 -0.0861  0.0022
  724MOL0     H97713  -0.527   5.411   1.569 -0.9071 -0.6803  1.2235
  724MOL0     H97714  -0.494   5.472   1.853 -1.5527  2.4305  0.6562
  724MOL0     H97715  -0.541   5.307   1.788 -0.2533  0.3819  0.2532
  724MOL0     H97716  -0.692   5.558   1.742  1.0841 -0.4325  0.3855
  724MOL0     H97717  -0.732   5.387   1.702  0.3093  0.7352 -0.7691
  724MOL0     H97718  -0.719   5.507   1.978 -1.2598 -0.2874  2.0391
  724MOL0     H97719  -0.702   5.332   1.951 -1.2332 -0.3975  0.8447
  724MOL0     H97720  -0.927   5.370   2.001 -1.2647 -0.1096 -0.7376
  724MOL0     H97721  -0.937   5.353   1.824 -1.0787 -1.7813  0.8308
  724MOL0     H97722   0.136   5.427   1.463  2.0821  0.6044 -0.3026
  724MOL0     H97723   0.376   5.332   1.494 -1.2820  1.9594  0.9838
  724MOL0     H97724   0.706   5.161   1.820  2.0537  1.0744  0.2420
  724MOL0     H97725   0.920   5.047   1.858 -1.4261  4.1558 -1.1769
  724MOL0     H97726   2.477   4.695   2.768 -1.4243 -3.1195 -0.1868
  724MOL0     H97727   2.706   4.775   2.832  4.0217 -1.6831  1.4982
  724MOL0     H97728   3.198   4.754   2.985  0.9823  0.5156  0.2009
  724MOL0     H97729   3.432   4.816   2.948  0.7954  2.4589 -0.0076
  724MOL0     H97730   3.736   4.913   2.746  0.9225  0.4520  0.4496
  724MOL0     H97731   3.638   4.925   2.883  1.6251 -0.0440 -0.3783
  724MOL0     H97732   3.712   4.665   2.736  1.1324 -0.7614  0.4333
  724MOL0     H97733   3.578   4.668   2.852 -0.7726  1.8890  2.1155
  724MOL0     H97734   3.796   4.593   2.970  0.4123  1.3412  0.0400
  724MOL0     H97735   3.692   4.696   3.047 -0.0969 -5.2875  1.2675
  724MOL0     H97736   3.858   4.869   3.025  1.7086  0.4290  1.3679
  724MOL0     H97737   3.920   4.786   2.871 -0.0028 -0.6263 -0.4608
  724MOL0     H97738   4.119   4.605   3.202  0.8984  0.8262 -0.1196
  724MOL0     H97739   3.349   4.910   2.541 -1.4276  1.7916  0.0818
  724MOL0     H97740   3.107   4.831   2.579 -1.2139 -3.2070  0.7837
  725MOL0     O97741   4.046   9.259   5.838  0.0170  0.2561 -0.0622
  725MOL0     C97742   4.115   9.362   5.830  0.3717  0.7228 -0.0191
  725MOL0     O97743   4.065   9.492   5.838 -0.4462  0.4831 -0.2259
  725MOL0     C97744   3.934   9.526   5.863 -0.2132  0.1905  0.4995
  725MOL0     C97745   3.892   9.531   5.995  0.6334  0.3045  0.1052
  725MOL0     C97746   3.761   9.589   6.020  0.6901 -0.1927 -0.3032
  725MOL0     C97747   3.674   9.612   5.916  0.4759 -0.4814  0.9043
  725MOL0     O97748   3.537   9.650   5.951  0.3730 -0.0477  0.6025
  725MOL0     C97749   3.444   9.684   5.845 -0.0453 -0.2582  1.0402
  725MOL0     C97750   3.314   9.700   5.915 -0.0917 -0.5269 -0.2791
  725MOL0     C97751   3.199   9.725   5.819  0.0348 -0.3208 -0.1236
  725MOL0     C97752   3.067   9.723   5.893  0.1264  0.0678  0.6186
  725MOL0     C97753   2.941   9.755   5.800  0.0785 -0.2712  1.4590
  725MOL0     C97754   2.821   9.669   5.828 -0.7678 -0.5700  0.7825
  725MOL0     C97755   2.751   9.711   5.952 -0.1475 -0.3909 -0.1993
  725MOL0     C97756   2.646   9.620   5.999  1.1258 -0.2974 -0.0325
  725MOL0     N97757   2.536   9.584   5.904  0.6563  0.1519  0.2527
  725MOL0     C97758   2.440   9.491   5.930  0.2122  0.5264  0.5457
  725MOL0     C97759   2.344   9.509   5.840  0.2502  0.4001 -0.1439
  725MOL0     C97760   2.206   9.453   5.844  0.5066 -0.3938  0.8676
  725MOL0     C97761   2.127   9.523   5.953 -0.0506 -0.2836 -0.2405
  725MOL0     C97762   2.073   9.664   5.913  0.0885 -0.5227  1.0051
  725MOL0     C97763   1.919   9.674   5.906  0.8371  0.5334  0.2643
  725MOL0     O97764   1.860   9.567   5.823 -0.0538  0.3500  0.3830
  725MOL0     C97765   1.725   9.581   5.788  0.6314 -0.5846 -0.9721
  725MOL0     C97766   1.672   9.517   5.672  0.0966 -0.5123  0.0189
  725MOL0     C97767   1.541   9.540   5.625  0.3129 -0.2558 -0.2916
  725MOL0     C97768   1.505   9.471   5.499 -0.3375  0.0189 -0.1295
  725MOL0     C97769   1.454   9.630   5.699  0.0747 -0.1167  0.1880
  725MOL0     C97770   1.312   9.663   5.667 -0.0529  0.0189 -0.0016
  725MOL0     O97771   1.272   9.641   5.539  0.2136 -0.6867 -0.7656
  725MOL0     C97772   1.146   9.681   5.512 -0.1183 -0.6061  0.3751
  725MOL0     C97773   1.115   9.789   5.423 -0.3626 -0.3462  0.9962
  725MOL0     C97774   0.980   9.825   5.386 -0.1204 -0.3847 -0.4909
  725MOL0     C97775   0.876   9.771   5.460  1.1107  0.3273  0.3476
  725MOL0     O97776   0.746   9.800   5.454 -0.2438 -0.8759  0.3282
  725MOL0     C97777   0.711   9.919   5.376  0.0438  0.2995 -0.1618
  725MOL0     C97778   0.562   9.937   5.402  0.1993  0.5922  0.0562
  725MOL0     C97779   0.511  10.061   5.314  0.4943 -0.2123  0.4241
  725MOL0     C97780   0.382  10.127   5.373 -0.7486  0.6941 -0.5793
  725MOL0     C97781   0.348  10.249   5.293  0.1245 -0.6599  0.4467
  725MOL0     C97782   0.203  10.295   5.333 -0.2467  0.6518 -0.1066
  725MOL0     C97783   0.092  10.235   5.245  0.0515  0.7104  0.0828
  725MOL0     C97784  -0.043  10.223   5.313  0.1470 -0.1752 -0.6017
  725MOL0    Cl97785  -0.119  10.377   5.332 -0.0285 -0.0903  0.0444
  725MOL0     C97786   0.905   9.667   5.548 -0.4288  0.2441 -0.3080
  725MOL0     C97787   1.031   9.620   5.568  0.6211  0.1979  0.1015
  725MOL0     O97788   1.242   9.709   5.757  0.1120 -0.0008  0.2717
  725MOL0     C97789   1.506   9.677   5.818 -0.4927 -0.1495  0.1800
  725MOL0     C97790   1.637   9.657   5.860 -0.0582 -0.2115 -0.5835
  725MOL0     N97791   2.379   9.613   5.753 -0.2005 -0.0427 -0.8467
  725MOL0     N97792   2.499   9.656   5.790 -0.3936  0.8609  0.0355
  725MOL0     C97793   3.725   9.602   5.784  0.3122  0.1562  0.0715
  725MOL0     C97794   3.853   9.573   5.754 -0.4036  0.2336  0.3646
  725MOL0     C97795   4.257   9.345   5.809  0.1082  0.4761  0.7409
  725MOL0     C97796   4.313   9.230   5.747  0.3334  0.3411  1.0118
  725MOL0     C97797   4.445   9.212   5.729 -0.0889  0.5774  0.7727
  725MOL0     C97798   4.536   9.306   5.769  0.0068 -0.0163  0.8386
  725MOL0     O97799   4.672   9.302   5.759  0.9393 -0.1599 -0.2378
  725MOL0     C97800   4.730   9.206   5.669 -0.4328 -0.1851  1.0028
  725MOL0     C97801   4.881   9.217   5.686 -0.6219  0.6699 -0.0920
  725MOL0     C97802   4.962   9.139   5.577  0.1446  1.2287  0.6482
  725MOL0     C97803   4.983   8.994   5.621  0.4970  0.3707 -0.0883
  725MOL0     C97804   5.073   8.973   5.734 -0.5347  0.0348 -0.1161
  725MOL0     C97805   5.155   8.955   5.821  0.6106 -0.4219  0.0415
  725MOL0     C97806   4.482   9.425   5.828 -0.4256  0.1407  0.4629
  725MOL0     C97807   4.342   9.445   5.857 -0.3005  0.0492  0.2977
  725MOL0     H97808   3.964   9.512   6.073  2.7522  2.0019 -1.3234
  725MOL0     H97809   3.729   9.608   6.122  0.8170  1.9556 -0.6068
  725MOL0     H97810   3.466   9.776   5.791  0.7558  1.8688  4.6905
  725MOL0     H97811   3.435   9.601   5.774  0.3018 -0.6699  1.4712
  725MOL0     H97812   3.304   9.608   5.974 -0.8522  0.3892  1.0852
  725MOL0     H97813   3.314   9.786   5.983 -0.5930 -1.4440  0.9229
  725MOL0     H97814   3.210   9.821   5.768  3.8718 -1.1678 -1.1726
  725MOL0     H97815   3.196   9.655   5.734 -1.5087  1.6686 -1.8072
  725MOL0     H97816   3.056   9.619   5.922 -1.8545  0.4879  1.5160
  725MOL0     H97817   3.075   9.777   5.988 -1.3118  0.6483  0.4274
  725MOL0     H97818   2.919   9.862   5.801  1.4684  0.0363  1.6219
  725MOL0     H97819   2.974   9.729   5.699  1.5939  1.7994  1.3456
  725MOL0     H97820   2.745   9.676   5.750  0.3484 -2.4662 -0.5690
  725MOL0     H97821   2.848   9.563   5.828  0.7838 -0.5508 -5.0675
  725MOL0     H97822   2.830   9.723   6.027  0.8928  0.0926 -1.3409
  725MOL0     H97823   2.707   9.811   5.954  2.2130  0.7142  0.0389
  725MOL0     H97824   2.592   9.676   6.075 -0.0874  0.2683 -1.2605
  725MOL0     H97825   2.692   9.527   6.035  1.1430 -0.1897  0.2241
  725MOL0     H97826   2.449   9.422   6.014  1.7847  1.8008  1.4888
  725MOL0     H97827   2.155   9.450   5.748  1.9276  0.8190  0.0220
  725MOL0     H97828   2.212   9.346   5.868  1.2518 -0.4804  0.3465
  725MOL0     H97829   2.199   9.538   6.035  0.6602 -1.6049 -0.5869
  725MOL0     H97830   2.045   9.467   5.999 -0.7875  2.3390  1.9094
  725MOL0     H97831   2.121   9.685   5.817 -0.2614  0.9417  1.1183
  725MOL0     H97832   2.112   9.733   5.989 -0.0450 -0.0980  0.6914
  725MOL0     H97833   1.885   9.774   5.877 -1.1991 -0.3347 -0.5371
  725MOL0     H97834   1.890   9.662   6.010  2.6495  1.5570  0.9481
  725MOL0     H97835   1.743   9.461   5.612 -0.0441 -1.8550  1.0651
  725MOL0     H97836   1.496   9.547   5.421  3.7723 -0.1911 -1.0217
  725MOL0     H97837   1.587   9.404   5.472  0.2758 -0.1352  1.9668
  725MOL0     H97838   1.408   9.422   5.514 -0.6775  0.9830  0.9487
  725MOL0     H97839   1.200   9.844   5.384  0.0012 -3.1624 -2.7536
  725MOL0     H97840   0.973   9.911   5.320  0.1486  1.7086  2.0616
  725MOL0     H97841   0.768  10.006   5.409 -1.7211  1.5963 -0.3824
  725MOL0     H97842   0.732   9.908   5.269 -0.4939  1.0760 -0.3576
  725MOL0     H97843   0.498   9.852   5.375 -1.7987  1.9580  0.2222
  725MOL0     H97844   0.542   9.964   5.506 -0.6986  0.5610 -0.0978
  725MOL0     H97845   0.509  10.041   5.207  2.1260  2.3521 -0.1570
  725MOL0     H97846   0.593  10.132   5.323  0.0004  0.3288  0.7614
  725MOL0     H97847   0.301  10.054   5.360 -2.3265  1.9689  1.4565
  725MOL0     H97848   0.389  10.150   5.480 -0.4902 -0.6170 -0.2970
  725MOL0     H97849   0.358  10.231   5.185  0.7005  2.1728 -0.0320
  725MOL0     H97850   0.418  10.329   5.317 -2.2137  2.0049 -1.0271
  725MOL0     H97851   0.181  10.268   5.437 -0.1969 -3.5996 -1.0151
  725MOL0     H97852   0.208  10.404   5.335  0.2080  0.6393 -0.5032
  725MOL0     H97853   0.130  10.138   5.214  1.6996  0.6407  2.0846
  725MOL0     H97854   0.085  10.302   5.158  0.0753  1.8648  0.9391
  725MOL0     H97855  -0.038  10.177   5.413  0.8616  0.3249 -0.4040
  725MOL0     H97856  -0.113  10.158   5.258 -2.1410  0.4714  1.3647
  725MOL0     H97857   0.822   9.626   5.605 -1.2626  3.8151  1.3326
  725MOL0     H97858   1.055   9.528   5.621 -0.4647  0.7848  1.6862
  725MOL0     H97859   1.434   9.728   5.882 -0.0730  0.4801  0.1590
  725MOL0     H97860   1.673   9.707   5.949  1.4334 -0.2296 -1.1425
  725MOL0     H97861   3.653   9.622   5.706 -0.5115 -1.9882  0.1899
  725MOL0     H97862   3.894   9.579   5.653  1.4111 -2.9044  0.7759
  725MOL0     H97863   4.246   9.160   5.699  0.1270  1.9957 -1.2507
  725MOL0     H97864   4.488   9.119   5.693  0.0579 -0.4651  3.4056
  725MOL0     H97865   4.696   9.104   5.687 -1.8004 -0.2107 -1.2526
  725MOL0     H97866   4.701   9.226   5.565 -0.4866  1.2722  1.2748
  725MOL0     H97867   4.907   9.180   5.786 -0.1316 -0.8145 -0.7328
  725MOL0     H97868   4.911   9.321   5.674  2.3929 -0.1960 -0.9468
  725MOL0     H97869   5.063   9.180   5.580  2.1249 -3.1922  2.5276
  725MOL0     H97870   4.917   9.153   5.478 -0.3575 -1.1445  0.4748
  725MOL0     H97871   5.020   8.942   5.532  0.8097  0.5486 -0.0643
  725MOL0     H97872   4.889   8.953   5.659 -0.6070  1.5656 -1.4421
  725MOL0     H97873   5.241   8.949   5.885  0.4578 -1.8300  0.1589
  725MOL0     H97874   4.553   9.496   5.867  0.8594 -0.0255 -1.4224
  725MOL0     H97875   4.309   9.529   5.916 -2.2430 -0.4520 -0.0245
  726MOL0     O97876   7.354   2.663   3.856 -0.6096 -0.6429 -0.5561
  726MOL0     C97877   7.393   2.766   3.800  0.1709  0.0268  0.2923
  726MOL0     O97878   7.312   2.867   3.753 -0.8958  0.8306 -0.2181
  726MOL0     C97879   7.174   2.859   3.777 -0.1706  0.3947  0.2192
  726MOL0     C97880   7.092   2.838   3.663  0.1482  0.7526  0.4805
  726MOL0     C97881   6.955   2.826   3.687  0.0624 -0.1219 -0.1932
  726MOL0     C97882   6.897   2.842   3.817 -0.2643  0.5652 -1.0149
  726MOL0     O97883   6.763   2.839   3.840  0.5021 -0.2411 -0.1963
  726MOL0     C97884   6.694   2.714   3.871 -0.3743 -0.8465 -0.1197
  726MOL0     C97885   6.561   2.766   3.926  0.0038 -1.1146  0.7458
  726MOL0     C97886   6.463   2.819   3.824  0.5239 -0.3531 -0.6926
  726MOL0     C97887   6.314   2.785   3.843  0.1902 -0.6903  0.2283
  726MOL0     C97888   6.227   2.846   3.738  0.2388 -1.0290 -0.2210
  726MOL0     C97889   6.087   2.840   3.805  0.5472 -0.7980 -0.5394
  726MOL0     C97890   5.985   2.874   3.693  1.0064  0.1384  0.1477
  726MOL0     C97891   5.967   2.765   3.585 -0.9287 -0.6006 -0.3057
  726MOL0     N97892   5.821   2.753   3.551  0.1573 -0.5707  0.6852
  726MOL0     C97893   5.731   2.855   3.535  0.6163  0.4158  0.8241
  726MOL0     C97894   5.608   2.794   3.544 -0.1645  0.0014 -0.3888
  726MOL0     C97895   5.477   2.875   3.537  0.8499  0.1981 -0.4965
  726MOL0     C97896   5.363   2.829   3.636  0.0595  0.0116 -0.2367
  726MOL0     C97897   5.228   2.902   3.591  0.2210 -0.4636  0.3283
  726MOL0     C97898   5.123   2.864   3.695 -0.2581  0.1186  0.3245
  726MOL0     O97899   5.012   2.814   3.629 -0.4058 -0.3391 -0.2989
  726MOL0     C97900   4.895   2.864   3.669  0.7025  0.0935 -0.0325
  726MOL0     C97901   4.861   2.923   3.795 -0.5223 -0.2957 -0.0641
  726MOL0     C97902   4.729   2.958   3.830  0.0728 -0.8903  0.1281
  726MOL0     C97903   4.716   3.038   3.960 -0.1738 -0.0052  0.4980
  726MOL0     C97904   4.628   2.944   3.732  0.2092 -1.0901  0.0285
  726MOL0     C97905   4.489   2.989   3.750 -0.3731 -0.2674  0.5611
  726MOL0     O97906   4.396   2.959   3.649 -0.3080 -0.4021 -1.1848
  726MOL0     C97907   4.265   2.992   3.673  0.1371 -0.3251  0.2972
  726MOL0     C97908   4.228   3.127   3.673  0.3522 -0.3437 -0.6713
  726MOL0     C97909   4.098   3.166   3.711 -0.7382 -0.1704 -0.3260
  726MOL0     C97910   3.996   3.074   3.735 -0.4571  0.5234 -0.6703
  726MOL0     O97911   3.862   3.114   3.757  0.0455  0.4009  0.5756
  726MOL0     C97912   3.770   3.036   3.674 -0.3961  0.7144 -0.5411
  726MOL0     C97913   3.634   3.092   3.681  0.5464 -0.0745  0.3029
  726MOL0     C97914   3.525   3.016   3.595 -0.8151  0.8489 -0.4852
  726MOL0     C97915   3.379   3.074   3.620  0.9382  0.0154  0.1431
  726MOL0     C97916   3.284   2.975   3.558  0.9148  0.3591  0.7951
  726MOL0     C97917   3.152   2.984   3.624 -0.1099 -0.4782  0.6977
  726MOL0     C97918   3.144   2.894   3.752  0.4692 -0.4594 -0.0410
  726MOL0     C97919   3.009   2.925   3.826  0.5539  0.1670 -0.8162
  726MOL0    Cl97920   2.861   2.874   3.727  0.6651 -0.0343 -0.3511
  726MOL0     C97921   4.030   2.938   3.721 -0.1157 -0.2437  0.2525
  726MOL0     C97922   4.164   2.896   3.691  0.3757  0.2447 -0.7244
  726MOL0     O97923   4.462   3.057   3.853 -0.3773  0.5738 -0.8768
  726MOL0     C97924   4.668   2.889   3.604  0.9868 -0.1369  0.5655
  726MOL0     C97925   4.795   2.852   3.581  0.1438  0.0578  0.1355
  726MOL0     N97926   5.627   2.657   3.546 -0.0918  0.0093 -0.6881
  726MOL0     N97927   5.754   2.636   3.557  0.5689  0.2072  0.2012
  726MOL0     C97928   6.982   2.853   3.930 -0.0466 -0.0219 -0.0352
  726MOL0     C97929   7.119   2.853   3.904  0.0163 -0.3214  0.0213
  726MOL0     C97930   7.544   2.793   3.771  0.1089  0.8044  0.1169
  726MOL0     C97931   7.591   2.919   3.729 -0.3322 -0.7771 -0.6419
  726MOL0     C97932   7.728   2.943   3.703 -0.4972  0.2984 -0.2267
  726MOL0     C97933   7.824   2.844   3.704  0.3376  0.3647  0.1629
  726MOL0     O97934   7.951   2.858   3.666  0.1301  0.0395 -0.2424
  726MOL0     C97935   8.032   2.890   3.777  0.2324 -0.1150 -0.0340
  726MOL0     C97936   8.139   2.775   3.794  0.1473 -0.2887 -0.5121
  726MOL0     C97937   8.279   2.794   3.730 -0.4601  0.1793  0.3317
  726MOL0     C97938   8.385   2.814   3.850  0.2690  0.2120  0.5928
  726MOL0     C97939   8.520   2.838   3.804 -0.0145  1.0627 -0.9012
  726MOL0     C97940   8.626   2.865   3.755 -0.6942 -0.2441 -0.2463
  726MOL0     C97941   7.779   2.716   3.740  0.5649 -0.2838  0.2126
  726MOL0     C97942   7.646   2.693   3.773  0.6699  0.2184  0.6081
  726MOL0     H97943   7.125   2.834   3.560 -2.5811 -1.6997 -0.4546
  726MOL0     H97944   6.879   2.798   3.615 -0.6429 -1.2704  0.9331
  726MOL0     H97945   6.673   2.650   3.785  0.0748 -1.1089 -0.0380
  726MOL0     H97946   6.745   2.659   3.950  0.4950  1.4736  1.0139
  726MOL0     H97947   6.507   2.694   3.987  1.3708 -2.3819  0.5139
  726MOL0     H97948   6.586   2.851   3.990  2.7448  0.6286 -2.3193
  726MOL0     H97949   6.467   2.928   3.827  2.4713 -0.4125  1.4107
  726MOL0     H97950   6.498   2.793   3.724  0.8691  0.7555 -0.8765
  726MOL0     H97951   6.291   2.678   3.838  0.3107 -0.6714 -0.9115
  726MOL0     H97952   6.278   2.825   3.938 -0.7801  3.2905 -1.5832
  726MOL0     H97953   6.256   2.948   3.714 -2.6375 -0.4072 -1.5370
  726MOL0     H97954   6.232   2.788   3.645  0.4172 -1.0056 -0.2251
  726MOL0     H97955   6.064   2.742   3.847 -2.7208 -1.1445 -2.7427
  726MOL0     H97956   6.087   2.912   3.887  0.4950  0.2819 -1.4623
  726MOL0     H97957   5.891   2.894   3.744 -1.5896 -0.7972 -3.8063
  726MOL0     H97958   6.012   2.971   3.650  3.2765 -0.4698  0.0522
  726MOL0     H97959   6.008   2.670   3.619  1.4882 -0.2551 -1.9478
  726MOL0     H97960   6.030   2.799   3.502  0.8094  1.1657  1.5936
  726MOL0     H97961   5.762   2.957   3.517 -0.3411  0.1524 -3.3079
  726MOL0     H97962   5.500   2.981   3.557 -0.2229  0.6921 -1.7495
  726MOL0     H97963   5.441   2.859   3.435 -2.4477  1.0042  0.4042
  726MOL0     H97964   5.392   2.858   3.738  0.6039  1.2198 -0.7204
  726MOL0     H97965   5.363   2.720   3.638  0.0972 -0.0844 -2.7974
  726MOL0     H97966   5.197   2.883   3.488  0.3232  1.0192  0.0086
  726MOL0     H97967   5.251   3.009   3.598  2.5001 -0.6364 -2.6540
  726MOL0     H97968   5.100   2.959   3.745  0.1739  1.1663 -1.3683
  726MOL0     H97969   5.159   2.792   3.769 -0.7570  0.2719  0.7182
  726MOL0     H97970   4.936   2.946   3.870 -2.2661 -0.2900  1.7383
  726MOL0     H97971   4.675   3.135   3.929  0.0936 -0.8463 -2.9672
  726MOL0     H97972   4.641   2.996   4.027 -2.3971  1.3741 -0.9784
  726MOL0     H97973   4.808   3.050   4.018 -1.1334  3.9355  1.5496
  726MOL0     H97974   4.305   3.203   3.663 -0.3891  0.7845  1.4548
  726MOL0     H97975   4.072   3.268   3.735 -1.0226  0.1170 -1.7550
  726MOL0     H97976   3.803   3.031   3.570  1.1634  4.6931 -0.3993
  726MOL0     H97977   3.771   2.936   3.719  1.7434  2.1100  2.9179
  726MOL0     H97978   3.594   3.085   3.783 -0.5370  1.0228 -0.0150
  726MOL0     H97979   3.638   3.199   3.657  5.0163  0.0618  0.7279
  726MOL0     H97980   3.526   2.910   3.623 -1.6002  0.5773 -1.4581
  726MOL0     H97981   3.556   3.022   3.490  2.3009 -2.3554  0.0635
  726MOL0     H97982   3.360   3.076   3.728 -0.4300 -0.1948 -0.0756
  726MOL0     H97983   3.348   3.171   3.580 -0.8400 -0.4339  0.3652
  726MOL0     H97984   3.323   2.873   3.566  0.8367  0.3913  1.6522
  726MOL0     H97985   3.266   2.990   3.451  3.2615 -0.3245  0.2484
  726MOL0     H97986   3.126   3.089   3.634 -1.1972 -0.6548 -0.0213
  726MOL0     H97987   3.082   2.954   3.545 -0.7669 -0.2640  1.1928
  726MOL0     H97988   3.229   2.923   3.815  0.0655  3.6490 -1.1271
  726MOL0     H97989   3.144   2.786   3.733 -0.1418 -0.3399 -0.7174
  726MOL0     H97990   3.004   3.034   3.825  0.5704  0.2451 -4.3233
  726MOL0     H97991   3.006   2.879   3.926 -0.3951 -0.1981 -0.9965
  726MOL0     H97992   3.961   2.854   3.728 -1.4905  0.6357 -1.5763
  726MOL0     H97993   4.185   2.791   3.674 -0.9345  0.4451 -4.7723
  726MOL0     H97994   4.601   2.863   3.523  2.4640 -0.7292 -0.5037
  726MOL0     H97995   4.817   2.817   3.481  0.5024  1.4747 -0.3101
  726MOL0     H97996   6.938   2.857   4.029 -0.9718 -0.9018 -0.3983
  726MOL0     H97997   7.193   2.870   3.982 -0.0569 -0.1158  0.0467
  726MOL0     H97998   7.524   3.005   3.739  1.8165  1.0967 -1.5751
  726MOL0     H97999   7.767   3.037   3.667  4.6077 -1.6472 -0.6444
  726MOL0     H98000   8.092   2.980   3.762 -2.1661  1.7641  1.0223
  726MOL0     H98001   7.976   2.902   3.870 -2.0997  0.5129 -1.4626
  726MOL0     H98002   8.097   2.686   3.746 -2.9576  0.7905 -0.0192
  726MOL0     H98003   8.164   2.761   3.900  0.5162  4.0181  0.1621
  726MOL0     H98004   8.269   2.885   3.669 -3.8116 -0.3696 -0.1773
  726MOL0     H98005   8.301   2.705   3.671 -0.8927 -0.6179  1.3478
  726MOL0     H98006   8.382   2.720   3.906  0.6518  1.4778  2.8717
  726MOL0     H98007   8.366   2.896   3.921  3.8337  1.2949  0.5137
  726MOL0     H98008   8.721   2.891   3.713 -1.5991 -0.4283 -2.5848
  726MOL0     H98009   7.853   2.636   3.739  1.7831  0.7983  0.7431
  726MOL0     H98010   7.625   2.587   3.778  1.6580 -0.1525 -1.8746
  727MOL0     O98011   2.517   3.892   5.024 -0.2954  0.0771 -0.5066
  727MOL0     C98012   2.471   3.922   5.138  0.1817  0.4774  0.4873
  727MOL0     O98013   2.534   3.908   5.257  0.5501 -0.5868  0.3736
  727MOL0     C98014   2.671   3.887   5.245  0.0309 -0.5796  0.6823
  727MOL0     C98015   2.757   3.995   5.222 -0.4331 -0.1678 -0.7412
  727MOL0     C98016   2.890   3.967   5.258  0.1442 -0.4594  0.4817
  727MOL0     C98017   2.939   3.842   5.299  0.3959 -0.3481 -0.5241
  727MOL0     O98018   3.071   3.825   5.329 -0.2841  0.0313 -0.1863
  727MOL0     C98019   3.160   3.939   5.351 -0.2597 -0.4451  0.3986
  727MOL0     C98020   3.289   3.888   5.408 -0.1046  0.4831  0.4591
  727MOL0     C98021   3.408   3.986   5.399 -0.5828 -0.3206  0.4841
  727MOL0     C98022   3.532   3.932   5.467 -0.3637 -0.0332  1.0544
  727MOL0     C98023   3.658   4.021   5.462  0.8238 -1.0522  0.1478
  727MOL0     C98024   3.790   3.955   5.515 -0.4202  0.1257 -0.7492
  727MOL0     C98025   3.916   4.044   5.515  0.5598 -0.2777  0.0491
  727MOL0     C98026   3.915   4.178   5.601 -0.6062  0.2253  0.4937
  727MOL0     N98027   3.841   4.176   5.723  0.0789  0.6951 -0.6444
  727MOL0     C98028   3.872   4.101   5.831 -0.0720  0.3567 -0.4600
  727MOL0     C98029   3.781   4.122   5.923  1.0229 -0.7444 -0.0187
  727MOL0     C98030   3.760   4.062   6.051 -0.0032 -0.3452  0.5121
  727MOL0     C98031   3.709   3.914   6.034 -0.1733 -1.0445 -0.1439
  727MOL0     C98032   3.590   3.901   5.941  0.1292  0.1008  0.1248
  727MOL0     C98033   3.521   3.770   5.950 -0.1655  0.8118  0.1618
  727MOL0     O98034   3.419   3.759   5.848  0.0269  0.8324  0.2573
  727MOL0     C98035   3.321   3.660   5.857  0.5132  0.0123  0.4429
  727MOL0     C98036   3.221   3.685   5.768  0.3094 -0.1388 -1.2043
  727MOL0     C98037   3.105   3.600   5.754 -0.2155  0.2323  0.2794
  727MOL0     C98038   3.008   3.636   5.642 -0.6342 -0.1611  0.0601
  727MOL0     C98039   3.098   3.489   5.845 -1.2052  0.3428  0.1285
  727MOL0     C98040   2.974   3.411   5.864  0.2398  0.1964  1.1931
  727MOL0     O98041   2.987   3.285   5.932  0.5780 -0.1006 -0.4255
  727MOL0     C98042   2.868   3.215   5.940 -0.1134 -0.1330  0.5471
  727MOL0     C98043   2.800   3.168   5.823  0.0517 -0.7157 -0.3502
  727MOL0     C98044   2.673   3.102   5.848 -0.3044 -1.1892  0.4071
  727MOL0     C98045   2.621   3.081   5.973 -0.4635 -0.2650 -0.1577
  727MOL0     O98046   2.502   3.012   5.992 -0.1858 -0.0777  0.3444
  727MOL0     C98047   2.416   3.074   6.093 -0.4874  0.4412 -0.0679
  727MOL0     C98048   2.270   3.016   6.058 -0.0743  0.4675 -0.3391
  727MOL0     C98049   2.169   3.060   6.162  0.4188  0.9070 -0.0618
  727MOL0     C98050   2.046   2.970   6.163 -0.2059 -0.0328 -0.5644
  727MOL0     C98051   1.918   3.037   6.214  1.2197 -0.1529  0.0888
  727MOL0     C98052   1.788   2.950   6.207 -0.8838  0.0125 -0.1075
  727MOL0     C98053   1.659   3.010   6.260 -0.6350 -0.4121 -0.0482
  727MOL0     C98054   1.536   2.917   6.256 -0.0897  0.3477 -0.6276
  727MOL0    Cl98055   1.388   3.033   6.290 -0.0220  0.3480 -0.3505
  727MOL0     C98056   2.700   3.117   6.076 -0.2157 -0.5900 -0.5204
  727MOL0     C98057   2.822   3.184   6.066  0.0159  0.5494  0.6719
  727MOL0     O98058   2.869   3.462   5.832 -0.7243  0.0999  0.5578
  727MOL0     C98059   3.204   3.473   5.931  0.5038  0.0159  0.0591
  727MOL0     C98060   3.317   3.548   5.938  0.2632 -0.2665  0.0104
  727MOL0     N98061   3.693   4.217   5.867 -0.2607  0.1316 -0.2845
  727MOL0     N98062   3.735   4.251   5.751  0.6828  1.6355 -0.5330
  727MOL0     C98063   2.848   3.740   5.305  0.0430  0.5824  0.1956
  727MOL0     C98064   2.713   3.759   5.284  0.2854 -0.5623  0.3837
  727MOL0     C98065   2.332   3.985   5.141  0.5874  1.1004  0.7740
  727MOL0     C98066   2.268   4.032   5.018  0.2075 -0.4076  0.1203
  727MOL0     C98067   2.136   4.072   5.027  0.2980 -0.8076  0.2431
  727MOL0     C98068   2.071   4.090   5.143  0.2320 -0.1503  0.4806
  727MOL0     O98069   1.947   4.152   5.140 -0.5842 -0.0499  0.1569
  727MOL0     C98070   1.891   4.195   5.269  0.3473  0.3062  1.0388
  727MOL0     C98071   1.777   4.286   5.226 -0.0199 -0.3372 -0.4818
  727MOL0     C98072   1.644   4.204   5.200 -0.3869 -0.7756  0.0457
  727MOL0     C98073   1.538   4.296   5.143 -0.0369 -0.4736  0.3023
  727MOL0     C98074   1.417   4.229   5.104  0.6843  0.1251 -0.6049
  727MOL0     C98075   1.312   4.176   5.083 -0.0014  0.3817  1.1843
  727MOL0     C98076   2.135   4.056   5.265 -0.6745  0.1589  0.3889
  727MOL0     C98077   2.263   4.005   5.257  0.5465  0.3729 -0.4586
  727MOL0     H98078   2.723   4.096   5.202 -2.5445 -0.6436  0.1847
  727MOL0     H98079   2.959   4.045   5.228  1.4133 -1.4377  0.7738
  727MOL0     H98080   3.191   3.978   5.254 -0.7161 -1.0851 -0.0080
  727MOL0     H98081   3.121   4.021   5.412  2.6289  1.3369  0.0355
  727MOL0     H98082   3.274   3.850   5.510 -3.1964  0.5322  0.1319
  727MOL0     H98083   3.309   3.796   5.352 -0.2450  0.5983  0.2180
  727MOL0     H98084   3.428   4.009   5.294  4.6174 -1.4953  0.9537
  727MOL0     H98085   3.377   4.076   5.453  0.4813  0.0159  0.5489
  727MOL0     H98086   3.507   3.912   5.571  0.2164 -0.7533  1.0636
  727MOL0     H98087   3.553   3.837   5.417  1.2235  1.0148 -0.3933
  727MOL0     H98088   3.679   4.051   5.359 -2.0223 -2.5147 -0.9785
  727MOL0     H98089   3.636   4.111   5.520  0.4389 -0.2962 -1.1293
  727MOL0     H98090   3.776   3.911   5.614 -0.5239 -0.7311 -1.1352
  727MOL0     H98091   3.807   3.865   5.455 -2.6194 -1.1207  0.3674
  727MOL0     H98092   3.993   3.975   5.552  0.1209 -0.7563  0.0781
  727MOL0     H98093   3.948   4.057   5.411  1.1598 -3.1230 -0.1997
  727MOL0     H98094   3.866   4.254   5.540 -2.2767  0.8895  2.5533
  727MOL0     H98095   4.019   4.200   5.626 -1.3025  3.5747  0.8527
  727MOL0     H98096   3.951   4.028   5.842 -0.4073 -0.1946 -1.5721
  727MOL0     H98097   3.858   4.062   6.101  1.4039 -1.2444 -2.0400
  727MOL0     H98098   3.694   4.110   6.124 -0.7388  0.8660 -0.9215
  727MOL0     H98099   3.681   3.880   6.134  0.4774  0.2968  0.5306
  727MOL0     H98100   3.793   3.860   5.989  1.1021  1.8568 -1.5330
  727MOL0     H98101   3.612   3.922   5.836  2.7572 -0.4619  0.4850
  727MOL0     H98102   3.520   3.981   5.967  0.4267  0.2334  0.5327
  727MOL0     H98103   3.473   3.766   6.048 -0.5703  0.6577 -0.0408
  727MOL0     H98104   3.589   3.687   5.925 -1.3594  0.1423 -0.9677
  727MOL0     H98105   3.221   3.766   5.695 -1.6802 -0.9283 -2.1615
  727MOL0     H98106   3.044   3.714   5.575  0.6608 -1.7388 -1.1439
  727MOL0     H98107   2.975   3.552   5.581 -2.7974 -0.4708  1.5299
  727MOL0     H98108   2.914   3.672   5.686  0.3159  1.9438  0.4839
  727MOL0     H98109   2.826   3.196   5.722 -2.4989 -0.1946 -0.9287
  727MOL0     H98110   2.612   3.071   5.763  0.7036  1.4077 -1.3976
  727MOL0     H98111   2.446   3.036   6.191  0.5216 -1.9390 -1.2276
  727MOL0     H98112   2.427   3.183   6.090 -2.8817  0.7536  0.1766
  727MOL0     H98113   2.237   3.037   5.956 -1.1873 -0.5042 -0.1971
  727MOL0     H98114   2.274   2.907   6.062 -1.7282  0.3615 -0.7917
  727MOL0     H98115   2.140   3.163   6.138 -0.7380  1.0831  1.8907
  727MOL0     H98116   2.206   3.065   6.265  0.4641  0.3235 -0.0473
  727MOL0     H98117   2.029   2.959   6.056  3.4523  3.8466 -1.8146
  727MOL0     H98118   2.073   2.872   6.205  1.4295  0.2279 -0.9637
  727MOL0     H98119   1.897   3.128   6.158 -0.0556  0.6166  1.7217
  727MOL0     H98120   1.935   3.060   6.320  1.6885 -0.7590  0.1529
  727MOL0     H98121   1.774   2.935   6.100 -2.8348  0.5389  0.0315
  727MOL0     H98122   1.805   2.859   6.264 -1.2559 -0.7916 -1.2596
  727MOL0     H98123   1.634   3.104   6.210 -0.2414 -0.2077  0.1290
  727MOL0     H98124   1.673   3.037   6.365  3.9487 -1.2168 -0.2545
  727MOL0     H98125   1.533   2.843   6.338  1.0650  1.6554  0.6595
  727MOL0     H98126   1.517   2.867   6.161 -0.2530 -2.3278  0.6967
  727MOL0     H98127   2.668   3.097   6.177  1.1073  0.3286  0.1064
  727MOL0     H98128   2.873   3.219   6.155  2.8816 -0.5382 -0.4350
  727MOL0     H98129   3.195   3.390   6.001  1.7107 -0.3570 -0.1914
  727MOL0     H98130   3.388   3.521   6.016 -0.3606 -1.6946  0.1104
  727MOL0     H98131   2.879   3.637   5.318 -1.5950  0.2900  2.4592
  727MOL0     H98132   2.632   3.688   5.296  1.0225 -1.2854  1.1653
  727MOL0     H98133   2.320   4.026   4.923  2.0888 -3.2938  1.1808
  727MOL0     H98134   2.085   4.104   4.937  1.0670 -2.1724 -0.7133
  727MOL0     H98135   1.847   4.121   5.337 -0.2377 -0.6818 -0.3613
  727MOL0     H98136   1.962   4.258   5.323  2.6217  0.5141 -1.9331
  727MOL0     H98137   1.806   4.344   5.139 -1.8493  0.3821 -0.6602
  727MOL0     H98138   1.764   4.356   5.309 -0.7056 -0.6506 -0.3173
  727MOL0     H98139   1.598   4.160   5.289 -0.7025 -0.1292  0.2081
  727MOL0     H98140   1.665   4.127   5.126 -2.9401 -0.6290 -0.9494
  727MOL0     H98141   1.566   4.349   5.052 -0.8088 -0.2840  0.1662
  727MOL0     H98142   1.513   4.374   5.216 -1.4147  0.3250 -0.9580
  727MOL0     H98143   1.223   4.125   5.053  2.0030 -1.0656 -3.1691
  727MOL0     H98144   2.102   4.058   5.368  0.2153 -1.5817  0.7310
  727MOL0     H98145   2.317   3.972   5.346  0.8616 -0.0848 -0.8128
  728MOL0     O98146   9.725   3.756   9.553 -0.3896  0.6721 -0.7883
  728MOL0     C98147   9.851   3.750   9.535 -0.2499 -0.5915 -0.1920
  728MOL0     O98148   9.920   3.640   9.498  0.0959 -0.0859  0.4297
  728MOL0     C98149   9.845   3.533   9.457  0.0040  0.1400 -0.5133
  728MOL0     C98150   9.814   3.520   9.319 -0.3241  0.7512  0.1300
  728MOL0     C98151   9.725   3.416   9.282  0.3024 -0.6278 -0.2949
  728MOL0     C98152   9.677   3.320   9.366  0.4342 -0.2858 -0.9128
  728MOL0     O98153   9.601   3.214   9.327  0.2137  0.7507 -0.9736
  728MOL0     C98154   9.555   3.177   9.193 -0.4341 -0.0064 -0.1288
  728MOL0     C98155   9.446   3.069   9.189  0.3587 -0.7636 -0.6952
  728MOL0     C98156   9.408   3.020   9.056 -0.7834  0.4570 -0.3270
  728MOL0     C98157   9.326   2.890   9.057 -0.0054  0.1487  1.1073
  728MOL0     C98158   9.309   2.829   8.918 -0.5652 -0.5167  0.0715
  728MOL0     C98159   9.258   2.686   8.932  0.2917  0.4855  0.7478
  728MOL0     C98160   9.112   2.689   8.913 -0.0197  0.2000  0.4113
  728MOL0     C98161   9.065   2.562   8.968 -0.6010  0.0731  0.0472
  728MOL0     N98162   8.930   2.520   8.916 -0.2999 -0.8598 -0.0386
  728MOL0     C98163   8.882   2.499   8.786  0.0719  0.7675  1.1497
  728MOL0     C98164   8.757   2.443   8.804 -0.4957 -0.6261  0.5436
  728MOL0     C98165   8.666   2.390   8.701 -0.2995  0.7028  0.3020
  728MOL0     C98166   8.559   2.484   8.659  0.1512  0.0820 -0.2844
  728MOL0     C98167   8.524   2.462   8.514  0.1746  0.4472 -0.1679
  728MOL0     C98168   8.393   2.542   8.484 -1.2848  0.5940  0.6515
  728MOL0     O98169   8.344   2.486   8.362  0.4425 -0.6402  0.0740
  728MOL0     C98170   8.209   2.490   8.349 -0.8643 -0.3410 -0.0703
  728MOL0     C98171   8.133   2.375   8.332  0.6626  0.6079  0.1464
  728MOL0     C98172   7.993   2.380   8.336 -0.0713 -0.6486  0.4943
  728MOL0     C98173   7.911   2.256   8.315  0.7850  0.0344 -0.0363
  728MOL0     C98174   7.933   2.519   8.339 -0.4817  0.3582  0.1679
  728MOL0     C98175   7.785   2.545   8.365 -0.0187 -0.6638  0.1439
  728MOL0     O98176   7.748   2.673   8.396  0.1001 -0.1685 -0.2492
  728MOL0     C98177   7.615   2.701   8.389 -0.4510  0.0182  0.3215
  728MOL0     C98178   7.557   2.755   8.275  1.0224 -0.3308  0.2962
  728MOL0     C98179   7.429   2.809   8.287 -0.8319  0.0935  0.0565
  728MOL0     C98180   7.355   2.817   8.411 -0.0332 -0.0608  0.6785
  728MOL0     O98181   7.229   2.870   8.418  0.1651 -0.2834 -0.2906
  728MOL0     C98182   7.179   2.958   8.312 -0.1146  0.1906  0.1864
  728MOL0     C98183   7.039   3.006   8.332  0.5591  0.4167  0.9302
  728MOL0     C98184   6.985   3.116   8.230  0.4551 -1.1357  0.3282
  728MOL0     C98185   6.834   3.154   8.249 -0.0168 -0.2886 -0.6280
  728MOL0     C98186   6.743   3.042   8.204 -0.3595 -0.7312  0.0943
  728MOL0     C98187   6.604   3.108   8.213 -0.2222 -0.1546 -0.4744
  728MOL0     C98188   6.493   3.005   8.236 -0.7936  0.1388 -0.0931
  728MOL0     C98189   6.354   3.077   8.212 -0.3200  0.0577 -0.2305
  728MOL0    Cl98190   6.334   3.191   8.069 -0.0099  0.0655 -0.8304
  728MOL0     C98191   7.411   2.737   8.516  0.2468 -0.3601 -0.0708
  728MOL0     C98192   7.541   2.688   8.505  0.7576 -0.2954 -1.5393
  728MOL0     O98193   7.704   2.457   8.358  0.1490  1.0252 -0.6774
  728MOL0     C98194   8.019   2.627   8.342 -0.2562 -0.3707 -0.1831
  728MOL0     C98195   8.153   2.615   8.346  0.1700  0.2427 -0.2840
  728MOL0     N98196   8.729   2.442   8.942 -0.1631  0.4156 -0.1996
  728MOL0     N98197   8.834   2.490   9.007  0.4398 -0.4382  0.5678
  728MOL0     C98198   9.718   3.324   9.499 -0.6449  0.2705 -0.6247
  728MOL0     C98199   9.802   3.432   9.542 -0.3150  0.3132  0.4201
  728MOL0     C98200   9.921   3.880   9.535 -0.4103 -0.7485  0.1231
  728MOL0     C98201   9.838   3.997   9.536 -0.3314  0.1331  0.4603
  728MOL0     C98202   9.898   4.123   9.514  0.7410  0.1203 -0.4110
  728MOL0     C98203  10.035   4.129   9.487 -0.7023  1.3511  0.3873
  728MOL0     O98204  10.109   4.246   9.473  0.4621 -0.2100  0.2763
  728MOL0     C98205  10.047   4.374   9.457  0.0010 -0.2420 -0.0679
  728MOL0     C98206  10.068   4.417   9.322  0.2349  0.8251 -0.4848
  728MOL0     C98207  10.041   4.573   9.311 -0.3759  0.4037  0.2100
  728MOL0     C98208   9.900   4.627   9.335 -0.1347 -0.2241 -0.1174
  728MOL0     C98209   9.796   4.571   9.247  0.2236 -0.0459 -0.8583
  728MOL0     C98210   9.710   4.510   9.194  0.3611  0.1532 -0.3463
  728MOL0     C98211  10.114   4.013   9.484 -1.0188 -0.1627 -0.2527
  728MOL0     C98212  10.059   3.893   9.517 -0.1452  0.3561 -0.2769
  728MOL0     H98213   9.862   3.592   9.253  0.1383  0.3592  0.0325
  728MOL0     H98214   9.704   3.412   9.175  0.9112  0.1957 -0.4585
  728MOL0     H98215   9.513   3.259   9.133 -1.1851 -0.0674  0.2974
  728MOL0     H98216   9.642   3.128   9.150 -0.4471  0.2572 -0.4603
  728MOL0     H98217   9.478   2.994   9.261 -0.7922  1.6158  2.4987
  728MOL0     H98218   9.356   3.111   9.234 -0.4934 -3.6964  0.5592
  728MOL0     H98219   9.345   3.097   9.011  0.2786  0.8407 -1.2200
  728MOL0     H98220   9.493   3.002   8.989 -0.3061  0.0943  0.3580
  728MOL0     H98221   9.390   2.826   9.118  2.3640 -0.1441 -1.5377
  728MOL0     H98222   9.231   2.907   9.109 -0.2029 -1.4955  1.3289
  728MOL0     H98223   9.249   2.894   8.854 -0.1552  0.5911  0.7709
  728MOL0     H98224   9.402   2.832   8.860 -0.4383  0.8455  0.3014
  728MOL0     H98225   9.298   2.624   8.851 -1.3556  0.9764 -0.5161
  728MOL0     H98226   9.297   2.645   9.025  2.1504  0.9397  0.2016
  728MOL0     H98227   9.065   2.768   8.973  2.2008  2.3822 -0.5738
  728MOL0     H98228   9.083   2.698   8.808 -0.1722 -5.6537 -0.4133
  728MOL0     H98229   9.054   2.563   9.076 -0.3329 -2.0002  0.1263
  728MOL0     H98230   9.136   2.483   8.943  0.3660 -0.2108  3.3034
  728MOL0     H98231   8.922   2.517   8.687 -0.5445 -3.9442 -0.2268
  728MOL0     H98232   8.731   2.369   8.615  1.2504 -0.4949  1.6821
  728MOL0     H98233   8.618   2.298   8.735 -2.2406  1.9870  1.2119
  728MOL0     H98234   8.601   2.585   8.660  0.6795 -0.1331 -0.3510
  728MOL0     H98235   8.473   2.472   8.727  1.3322 -0.8828  1.1126
  728MOL0     H98236   8.509   2.355   8.492 -0.9016  0.6275 -0.3836
  728MOL0     H98237   8.605   2.496   8.450 -0.0024  0.7767 -0.2180
  728MOL0     H98238   8.422   2.647   8.469 -0.3634  0.1645 -0.8071
  728MOL0     H98239   8.321   2.529   8.565 -0.6822 -0.1888  1.0729
  728MOL0     H98240   8.184   2.280   8.322 -0.1882  0.3905 -4.1104
  728MOL0     H98241   7.854   2.234   8.406  1.9419  1.3962  1.0575
  728MOL0     H98242   7.841   2.263   8.231  1.0027  3.8238 -0.0652
  728MOL0     H98243   7.977   2.175   8.283 -0.0577 -0.1728 -1.3238
  728MOL0     H98244   7.602   2.765   8.176  0.2082 -2.3121 -0.3311
  728MOL0     H98245   7.397   2.853   8.193 -2.6123 -0.8635  0.1816
  728MOL0     H98246   7.242   3.044   8.287 -0.3039  0.6407  1.2049
  728MOL0     H98247   7.185   2.896   8.223  0.6953  0.8440 -0.2253
  728MOL0     H98248   6.972   2.921   8.320 -0.8534  1.7457 -1.2150
  728MOL0     H98249   7.034   3.051   8.432 -2.9368  0.5155  0.8058
  728MOL0     H98250   6.982   3.080   8.126 -1.6576 -1.0964  0.3330
  728MOL0     H98251   7.049   3.205   8.238 -2.6330  1.1685  1.2770
  728MOL0     H98252   6.814   3.173   8.354  2.3085 -2.3464  0.2851
  728MOL0     H98253   6.818   3.246   8.192  2.1351 -0.2753 -1.3229
  728MOL0     H98254   6.749   2.957   8.273 -3.4064 -0.4036  0.9047
  728MOL0     H98255   6.784   3.003   8.110 -1.4710  1.4965 -1.4009
  728MOL0     H98256   6.588   3.179   8.295 -0.5509  0.4855 -1.0848
  728MOL0     H98257   6.583   3.170   8.126 -0.6696  2.6498  1.4984
  728MOL0     H98258   6.509   2.944   8.325 -1.2414  0.8613  0.4848
  728MOL0     H98259   6.501   2.934   8.152 -1.1417  0.6737 -0.5838
  728MOL0     H98260   6.333   3.136   8.302  1.9042  2.2959 -1.0603
  728MOL0     H98261   6.274   3.003   8.218  0.8120 -1.2314 -0.5869
  728MOL0     H98262   7.354   2.721   8.607 -0.4554 -2.9092 -0.8648
  728MOL0     H98263   7.583   2.657   8.600 -0.8331 -0.1038 -0.7356
  728MOL0     H98264   7.973   2.726   8.345  0.1336 -0.2077  1.4819
  728MOL0     H98265   8.209   2.704   8.319 -0.7048  0.3450 -1.8304
  728MOL0     H98266   9.680   3.254   9.572  0.1948 -0.1789 -0.5984
  728MOL0     H98267   9.841   3.438   9.643  1.2260 -0.0209 -0.1267
  728MOL0     H98268   9.730   3.995   9.551 -0.6629 -0.9720 -1.6439
  728MOL0     H98269   9.833   4.209   9.517 -2.2685 -1.9420 -1.5057
  728MOL0     H98270   9.940   4.379   9.483  0.0225  0.6412 -0.0871
  728MOL0     H98271  10.090   4.439   9.534 -0.9779 -2.2625  2.3327
  728MOL0     H98272   9.995   4.365   9.258 -0.0929  2.8650 -1.8458
  728MOL0     H98273  10.169   4.393   9.288  0.1137  1.1118 -1.0467
  728MOL0     H98274  10.072   4.614   9.215  1.9652 -1.6296 -0.0039
  728MOL0     H98275  10.111   4.623   9.379  1.7122 -0.2572 -1.3533
  728MOL0     H98276   9.909   4.734   9.317 -0.4920 -0.0455  0.7110
  728MOL0     H98277   9.878   4.614   9.441 -2.2296  0.9665 -0.3495
  728MOL0     H98278   9.625   4.460   9.152 -0.1503 -3.0347  3.8095
  728MOL0     H98279  10.221   4.029   9.475 -0.2191 -2.9060  2.8038
  728MOL0     H98280  10.119   3.802   9.517  0.7337  0.9057 -1.5728
  729MOL0     O98281   6.067   1.663  11.060  0.3318 -0.1888  0.5899
  729MOL0     C98282   6.140   1.737  11.010 -0.8310  0.2422  0.7879
  729MOL0     O98283   6.108   1.836  10.920  0.6235  0.7170 -0.0980
  729MOL0     C98284   5.979   1.831  10.878 -0.1234  0.2662  0.0331
  729MOL0     C98285   5.880   1.876  10.975 -0.2454  0.6592  0.1424
  729MOL0     C98286   5.748   1.870  10.934  0.9389 -0.2254  0.2472
  729MOL0     C98287   5.710   1.849  10.799  0.3236  0.9649 -0.2734
  729MOL0     O98288   5.580   1.850  10.763 -0.3779 -0.0176  0.3239
  729MOL0     C98289   5.540   1.983  10.720 -0.4132  0.3062 -0.2085
  729MOL0     C98290   5.404   1.983  10.649  0.0365 -0.8890  0.1213
  729MOL0     C98291   5.291   1.920  10.727  0.2270 -0.6589 -1.1013
  729MOL0     C98292   5.155   1.960  10.681  0.9965 -0.6542 -0.0174
  729MOL0     C98293   5.039   1.905  10.769 -0.0925 -0.1396  0.1337
  729MOL0     C98294   4.906   1.975  10.735 -0.5530  0.3008 -0.3409
  729MOL0     C98295   4.850   1.943  10.600  0.0767 -0.5242 -0.8237
  729MOL0     C98296   4.712   2.010  10.582 -1.0893  0.5223  1.0064
  729MOL0     N98297   4.693   2.060  10.452  0.8885 -0.1391 -0.0995
  729MOL0     C98298   4.695   1.996  10.327 -0.2201 -0.0839 -0.5756
  729MOL0     C98299   4.675   2.098  10.241  0.2022  0.1339 -0.4963
  729MOL0     C98300   4.673   2.077  10.093  0.1196  0.1977  0.1396
  729MOL0     C98301   4.532   2.072  10.033 -0.6619  0.6217  0.1939
  729MOL0     C98302   4.537   2.063   9.873  0.5722  0.1804  0.2614
  729MOL0     C98303   4.393   2.029   9.821  0.0497  0.3082 -0.1208
  729MOL0     O98304   4.359   1.890   9.859  0.2141  0.3208 -0.2162
  729MOL0     C98305   4.238   1.836   9.824 -1.1232  0.5027  0.3826
  729MOL0     C98306   4.207   1.714   9.875 -0.0253 -0.2574  0.0250
  729MOL0     C98307   4.084   1.651   9.853  0.1988  0.1318  0.5226
  729MOL0     C98308   4.078   1.512   9.908 -0.8004  0.2754  0.4396
  729MOL0     C98309   3.990   1.718   9.778 -0.6915 -0.8744 -0.9708
  729MOL0     C98310   3.859   1.662   9.747  0.5410 -0.2659 -0.8263
  729MOL0     O98311   3.759   1.755   9.734 -0.0603 -0.3336 -0.6992
  729MOL0     C98312   3.627   1.714   9.750 -0.3922 -0.1919  0.3228
  729MOL0     C98313   3.567   1.640   9.856 -0.5997 -0.1562  0.3799
  729MOL0     C98314   3.425   1.617   9.852  0.8058 -0.2552 -1.2557
  729MOL0     C98315   3.348   1.675   9.757 -0.1120  0.5443 -1.1094
  729MOL0     O98316   3.213   1.649   9.769  0.2301  0.3858  0.2058
  729MOL0     C98317   3.167   1.557   9.668 -0.2693  0.0847  0.2610
  729MOL0     C98318   3.040   1.498   9.697  0.4560  0.7817 -0.0078
  729MOL0     C98319   2.964   1.419   9.588  0.5937  0.1600 -0.1053
  729MOL0     C98320   2.823   1.390   9.640  0.1691  0.0706  0.5690
  729MOL0     C98321   2.746   1.314   9.529 -0.6150 -1.1316  0.6371
  729MOL0     C98322   2.603   1.278   9.573  0.1297  0.1050  0.2538
  729MOL0     C98323   2.545   1.167   9.487  0.6112 -1.0747 -0.0252
  729MOL0     C98324   2.494   1.223   9.358  0.1998  0.0376 -0.1247
  729MOL0    Cl98325   2.426   1.078   9.284  0.3368 -0.0607 -0.8183
  729MOL0     C98326   3.405   1.743   9.654  0.0946  0.7373  0.1653
  729MOL0     C98327   3.543   1.762   9.646 -0.6857 -0.4141 -0.1436
  729MOL0     O98328   3.837   1.540   9.738  0.0417 -0.8607 -1.3305
  729MOL0     C98329   4.021   1.837   9.719  0.3496 -0.6973  0.5481
  729MOL0     C98330   4.149   1.894   9.735  0.5059  0.7718  0.5644
  729MOL0     N98331   4.652   2.216  10.309 -1.6568 -0.3635 -0.4590
  729MOL0     N98332   4.666   2.196  10.434  0.3548  0.2283  0.0889
  729MOL0     C98333   5.817   1.819  10.711  1.1764 -0.4121  0.6632
  729MOL0     C98334   5.948   1.795  10.750  0.0658 -0.0546 -0.6618
  729MOL0     C98335   6.282   1.721  11.039 -0.1630  0.0454 -0.0575
  729MOL0     C98336   6.337   1.610  11.119  2.0099 -0.3317  0.4413
  729MOL0     C98337   6.473   1.600  11.147 -1.1418 -0.4678 -0.7853
  729MOL0     C98338   6.565   1.693  11.102 -0.9382 -0.9799  0.7726
  729MOL0     O98339   6.705   1.696  11.122  0.5773  0.0847  0.2564
  729MOL0     C98340   6.763   1.597  11.205 -0.0418  0.4202 -0.6667
  729MOL0     C98341   6.899   1.642  11.257  0.3076 -0.1860 -0.1795
  729MOL0     C98342   6.942   1.574  11.383  0.3324  1.0842 -0.6434
  729MOL0     C98343   6.971   1.419  11.367  0.3670 -0.3503  0.2957
  729MOL0     C98344   7.077   1.398  11.281 -0.3408 -0.2823 -0.0756
  729MOL0     C98345   7.175   1.367  11.219 -0.3289 -0.2628 -0.3225
  729MOL0     C98346   6.521   1.801  11.019  0.4734 -0.3561 -0.3906
  729MOL0     C98347   6.378   1.820  11.001  0.1274 -0.1130  0.1014
  729MOL0     H98348   5.906   1.904  11.076 -0.5369  2.3981 -0.2425
  729MOL0     H98349   5.667   1.878  11.006 -0.5607 -1.5306 -1.2145
  729MOL0     H98350   5.526   2.045  10.809  4.0814 -1.3165  1.9248
  729MOL0     H98351   5.615   2.028  10.653  0.2870  1.2790  1.1637
  729MOL0     H98352   5.380   2.085  10.618 -2.2734 -1.8458 -1.4879
  729MOL0     H98353   5.418   1.927  10.556  2.0295  0.4770 -0.4536
  729MOL0     H98354   5.299   1.811  10.729 -0.8334 -0.7806 -2.1037
  729MOL0     H98355   5.287   1.963  10.828 -1.8654  1.5968 -2.0469
  729MOL0     H98356   5.142   2.067  10.665  3.1907 -0.2958  0.3723
  729MOL0     H98357   5.142   1.905  10.587 -3.6545 -2.6594  1.4653
  729MOL0     H98358   5.026   1.796  10.762  0.5745 -0.3841  2.0822
  729MOL0     H98359   5.055   1.931  10.874  3.3058  0.5906 -0.4666
  729MOL0     H98360   4.831   1.946  10.808 -0.8981  2.3173  0.1509
  729MOL0     H98361   4.921   2.083  10.745  1.3042  0.0632 -0.0566
  729MOL0     H98362   4.923   1.963  10.521  1.8011  2.0778  1.2784
  729MOL0     H98363   4.826   1.839  10.576  1.9545 -0.2733 -4.3883
  729MOL0     H98364   4.708   2.080  10.667 -1.5449  2.2415 -0.3775
  729MOL0     H98365   4.635   1.935  10.603 -0.2893 -0.6811 -0.2606
  729MOL0     H98366   4.703   1.893  10.294  0.1866 -0.4200  0.5215
  729MOL0     H98367   4.732   2.161  10.055  1.2101 -0.2143  0.8741
  729MOL0     H98368   4.736   1.989  10.072  0.5954 -0.2703  3.1001
  729MOL0     H98369   4.483   2.168  10.055 -1.4548  0.6903 -1.6237
  729MOL0     H98370   4.486   1.993  10.092  0.7535  1.8548  3.1811
  729MOL0     H98371   4.609   1.991   9.833  0.1486  0.9547 -2.0556
  729MOL0     H98372   4.561   2.160   9.828  0.5611 -0.0450 -0.2357
  729MOL0     H98373   4.400   2.045   9.713  1.4541  2.7451  0.2597
  729MOL0     H98374   4.328   2.109   9.858  0.3450  0.5952 -0.2164
  729MOL0     H98375   4.277   1.671   9.946 -0.3687 -0.4857  0.2308
  729MOL0     H98376   3.989   1.502   9.970 -1.4201  2.3537 -0.0219
  729MOL0     H98377   4.053   1.434   9.836 -2.1775  2.3433 -1.4370
  729MOL0     H98378   4.172   1.495   9.962 -0.1606  3.0297  0.3803
  729MOL0     H98379   3.636   1.605   9.932  3.3898  2.5962 -1.6187
  729MOL0     H98380   3.373   1.556   9.925  0.3258  0.9396 -0.5753
  729MOL0     H98381   3.150   1.619   9.579 -2.0445  0.5917  0.9062
  729MOL0     H98382   3.245   1.481   9.661  0.7111  0.7151  3.1596
  729MOL0     H98383   3.054   1.427   9.779 -0.4928  3.0900  2.2939
  729MOL0     H98384   2.975   1.576   9.738 -0.0816  0.1518  0.3688
  729MOL0     H98385   3.019   1.329   9.556  0.1978 -0.2196  0.2719
  729MOL0     H98386   2.953   1.479   9.497  0.4478 -0.5901 -0.5901
  729MOL0     H98387   2.816   1.323   9.726  4.3132 -1.7344 -0.2481
  729MOL0     H98388   2.777   1.488   9.655 -0.0833  0.7198 -3.4413
  729MOL0     H98389   2.801   1.228   9.490  0.0003  0.1712 -1.5353
  729MOL0     H98390   2.745   1.390   9.451 -1.9641 -2.3027 -0.5375
  729MOL0     H98391   2.605   1.239   9.675 -0.8080 -2.4750 -0.6519
  729MOL0     H98392   2.530   1.360   9.570 -1.3177 -1.1154  0.8373
  729MOL0     H98393   2.460   1.124   9.542  1.8481 -1.6838  1.4759
  729MOL0     H98394   2.621   1.088   9.485  0.9991 -0.7908  1.7337
  729MOL0     H98395   2.580   1.269   9.309 -1.0763  0.8306 -1.7378
  729MOL0     H98396   2.420   1.302   9.372  0.8118  0.7215 -0.6676
  729MOL0     H98397   3.329   1.788   9.590  0.4659 -0.3276 -1.0576
  729MOL0     H98398   3.567   1.825   9.561 -2.5966  0.7706  0.1209
  729MOL0     H98399   3.949   1.886   9.655  1.1577 -0.1146  0.0731
  729MOL0     H98400   4.171   1.985   9.679  0.1007 -0.5613 -1.9129
  729MOL0     H98401   5.791   1.797  10.608  1.6009  0.1678  0.4259
  729MOL0     H98402   6.019   1.749  10.682  1.0762  0.1785  0.2165
  729MOL0     H98403   6.265   1.538  11.158  0.7541  1.5589  1.8280
  729MOL0     H98404   6.497   1.509  11.201  1.3399  0.0930 -0.8018
  729MOL0     H98405   6.707   1.592  11.299 -0.4129 -0.4085 -0.9244
  729MOL0     H98406   6.752   1.503  11.151 -3.0635  0.6220 -0.5650
  729MOL0     H98407   6.884   1.747  11.283  0.5125 -0.6831  2.1089
  729MOL0     H98408   6.974   1.614  11.181 -0.7155 -3.3997 -0.1308
  729MOL0     H98409   6.860   1.592  11.453 -0.1140 -0.2361 -0.8103
  729MOL0     H98410   7.030   1.615  11.434  0.6653 -2.9705  2.5305
  729MOL0     H98411   6.880   1.374  11.326  1.3899  0.1103 -2.6944
  729MOL0     H98412   7.004   1.375  11.462 -0.4528 -1.6004  0.0218
  729MOL0     H98413   7.263   1.330  11.172  0.9130  0.1406  1.5879
  729MOL0     H98414   6.587   1.876  10.978  0.6008 -0.2640 -0.0172
  729MOL0     H98415   6.348   1.912  10.952 -3.3489 -0.3751  1.4777
  730MOL0     O98416   9.831   5.944   2.529  0.1951  0.2301 -0.4147
  730MOL0     C98417   9.853   5.998   2.424  0.5397  0.7883 -0.5047
  730MOL0     O98418   9.760   6.073   2.351  0.0264 -0.3713 -0.1882
  730MOL0     C98419   9.659   6.142   2.401  0.2353  0.5779 -0.2645
  730MOL0     C98420   9.610   6.148   2.537 -0.8527 -0.9405 -0.6805
  730MOL0     C98421   9.490   6.224   2.555  0.7502  0.6213 -0.8138
  730MOL0     C98422   9.431   6.290   2.458 -0.0496 -0.6248  0.5989
  730MOL0     O98423   9.323   6.366   2.494 -0.0840  0.1531  0.5259
  730MOL0     C98424   9.227   6.399   2.390 -0.8395 -0.2086 -0.3383
  730MOL0     C98425   9.114   6.479   2.449  0.5862 -1.0046  0.7107
  730MOL0     C98426   9.151   6.627   2.492  0.2311  0.3917 -0.0937
  730MOL0     C98427   9.031   6.714   2.541 -0.3908 -0.7321  0.0035
  730MOL0     C98428   8.929   6.748   2.436 -0.1323  0.3171 -0.0891
  730MOL0     C98429   8.792   6.791   2.503  0.4393 -0.2300 -0.0750
  730MOL0     C98430   8.714   6.905   2.426 -1.1411  0.4898  0.0418
  730MOL0     C98431   8.641   6.860   2.308  0.6904 -0.4548 -0.1591
  730MOL0     N98432   8.531   6.765   2.327 -0.5266  0.1705 -0.1826
  730MOL0     C98433   8.545   6.629   2.311 -0.0466 -0.1791  0.0260
  730MOL0     C98434   8.432   6.578   2.371  0.1273  0.1773 -0.0456
  730MOL0     C98435   8.411   6.429   2.370 -0.2638  0.2184 -0.2902
  730MOL0     C98436   8.424   6.376   2.224 -0.0446  0.2721 -0.1861
  730MOL0     C98437   8.303   6.284   2.191  0.7629 -0.4112  0.3079
  730MOL0     C98438   8.182   6.370   2.145  0.4139 -0.3907 -0.6971
  730MOL0     O98439   8.081   6.276   2.122 -0.5409 -0.1914 -0.6454
  730MOL0     C98440   7.954   6.330   2.084 -0.5044 -1.3390  0.6762
  730MOL0     C98441   7.851   6.239   2.096 -0.2747  0.3445 -0.4782
  730MOL0     C98442   7.729   6.260   2.036  0.1319 -0.5679 -0.4353
  730MOL0     C98443   7.633   6.145   2.020  0.5848 -0.0491 -0.5057
  730MOL0     C98444   7.708   6.390   1.973 -0.0927  0.0995 -0.1561
  730MOL0     C98445   7.586   6.424   1.891 -0.1926  0.0516 -0.4199
  730MOL0     O98446   7.482   6.338   1.890 -0.4017 -0.2771  0.5198
  730MOL0     C98447   7.376   6.355   1.807 -0.2158  0.5333  0.1647
  730MOL0     C98448   7.254   6.308   1.852 -0.8289 -0.4402 -0.1245
  730MOL0     C98449   7.136   6.334   1.775  0.6049  0.1406 -0.5716
  730MOL0     C98450   7.138   6.406   1.663 -0.1544 -0.5695  0.7361
  730MOL0     O98451   7.021   6.414   1.588 -0.0415  0.6272  0.1353
  730MOL0     C98452   7.023   6.358   1.459 -0.8497  0.0977 -0.0862
  730MOL0     C98453   6.936   6.230   1.461  0.2796 -0.8447  0.9497
  730MOL0     C98454   6.793   6.274   1.509  1.6093 -0.5691  0.4665
  730MOL0     C98455   6.681   6.175   1.474  0.3122 -1.0280  0.0472
  730MOL0     C98456   6.539   6.225   1.524 -0.1698 -0.0805  0.1703
  730MOL0     C98457   6.486   6.348   1.446  0.2334 -0.2420 -0.3017
  730MOL0     C98458   6.330   6.354   1.449  0.1057 -0.6573 -0.3202
  730MOL0     C98459   6.260   6.374   1.591  0.2673 -0.5528  0.0640
  730MOL0    Cl98460   6.089   6.393   1.569  0.3720 -0.1268 -0.1016
  730MOL0     C98461   7.254   6.456   1.613  0.0413  0.3478 -0.8811
  730MOL0     C98462   7.374   6.413   1.680 -0.2016 -0.2824  0.4916
  730MOL0     O98463   7.588   6.536   1.844  0.4669  1.0519 -0.0801
  730MOL0     C98464   7.813   6.488   1.970 -0.7191  0.2406  0.6501
  730MOL0     C98465   7.938   6.455   2.024  0.5496 -0.0322  0.7219
  730MOL0     N98466   8.359   6.678   2.420 -0.1865  0.1726  0.0933
  730MOL0     N98467   8.427   6.787   2.407  0.4854  0.4002 -0.3457
  730MOL0     C98468   9.475   6.277   2.321  0.0445 -0.4859 -0.8999
  730MOL0     C98469   9.590   6.197   2.296  0.3723 -0.8528  0.7698
  730MOL0     C98470   9.992   5.981   2.371  0.3135  0.0158 -0.1762
  730MOL0     C98471  10.029   6.048   2.256  0.2663 -0.5645 -0.0278
  730MOL0     C98472  10.160   6.043   2.208 -0.4802 -0.5793 -0.7315
  730MOL0     C98473  10.256   5.961   2.270  0.6479  0.4879 -0.9022
  730MOL0     O98474  10.380   5.957   2.216  0.1100  0.0607 -0.3158
  730MOL0     C98475  10.489   5.867   2.249  0.4345 -0.0912 -0.5727
  730MOL0     C98476  10.563   5.844   2.105 -0.1114 -0.4311  0.4745
  730MOL0     C98477  10.720   5.878   2.112 -0.1867  0.4173 -0.8322
  730MOL0     C98478  10.794   5.745   2.141 -1.2346  0.5898 -0.2741
  730MOL0     C98479  10.775   5.695   2.284 -0.7271 -0.2150  0.0966
  730MOL0     C98480  10.754   5.661   2.397 -0.5551  0.2267 -0.0740
  730MOL0     C98481  10.215   5.875   2.373  0.3966 -0.0258 -0.3357
  730MOL0     C98482  10.082   5.883   2.422  0.3411 -0.1199  0.4079
  730MOL0     H98483   9.675   6.097   2.608 -0.7067 -4.1608 -2.8800
  730MOL0     H98484   9.437   6.226   2.650  0.3047 -0.2949 -1.0307
  730MOL0     H98485   9.263   6.468   2.314  1.1964  0.7775  1.4165
  730MOL0     H98486   9.184   6.315   2.336  0.2966  0.0633 -1.7299
  730MOL0     H98487   9.032   6.494   2.378 -0.0741 -0.5578  1.5374
  730MOL0     H98488   9.079   6.434   2.543  1.3779 -0.0605  1.4799
  730MOL0     H98489   9.208   6.632   2.585  0.4226 -1.0582 -0.1152
  730MOL0     H98490   9.215   6.681   2.422  1.0208  1.7343  1.5994
  730MOL0     H98491   8.988   6.658   2.624 -0.2956  0.0444  0.5891
  730MOL0     H98492   9.064   6.813   2.576 -0.8234  0.2804 -2.3009
  730MOL0     H98493   8.977   6.828   2.378  1.1802  0.8358  1.5948
  730MOL0     H98494   8.902   6.665   2.370  1.0652  0.2765 -0.5715
  730MOL0     H98495   8.735   6.698   2.521  1.9360 -1.1983 -0.1769
  730MOL0     H98496   8.815   6.831   2.602  0.9916 -1.7843  0.4619
  730MOL0     H98497   8.646   6.949   2.498 -2.2317 -0.2465 -0.5133
  730MOL0     H98498   8.783   6.981   2.389 -0.6001 -0.3609 -0.7758
  730MOL0     H98499   8.714   6.810   2.244  3.0529 -0.5281  2.4064
  730MOL0     H98500   8.594   6.949   2.264  1.2696 -0.7839 -1.5007
  730MOL0     H98501   8.628   6.582   2.260 -0.4146 -0.5009 -0.2808
  730MOL0     H98502   8.481   6.390   2.445 -1.1181 -0.4184  0.1930
  730MOL0     H98503   8.310   6.423   2.412 -0.6080  0.7399 -1.0175
  730MOL0     H98504   8.517   6.322   2.208  0.9180  1.4778  1.1569
  730MOL0     H98505   8.418   6.458   2.151  0.0700 -0.1680 -0.6951
  730MOL0     H98506   8.278   6.231   2.284  1.2735  1.2176  1.4018
  730MOL0     H98507   8.332   6.220   2.108 -0.1552 -1.3422  0.6698
  730MOL0     H98508   8.210   6.423   2.054 -0.9568  1.8426  0.1078
  730MOL0     H98509   8.151   6.445   2.218  0.9888 -1.4490  0.6790
  730MOL0     H98510   7.868   6.145   2.148 -0.2943 -0.7415 -2.3499
  730MOL0     H98511   7.682   6.061   2.069  2.1748  1.0966 -0.0815
  730MOL0     H98512   7.533   6.166   2.061  0.6523 -1.2619  0.3021
  730MOL0     H98513   7.604   6.116   1.918  1.0084 -1.1915 -0.3131
  730MOL0     H98514   7.232   6.281   1.954 -0.8097  1.0501  0.2949
  730MOL0     H98515   7.046   6.290   1.817 -1.8779  3.5570 -1.8958
  730MOL0     H98516   6.984   6.433   1.389 -0.8076 -0.3327 -0.5707
  730MOL0     H98517   7.129   6.342   1.436  0.4140  5.0129  1.0170
  730MOL0     H98518   6.929   6.183   1.362 -2.1489 -0.3213  0.8095
  730MOL0     H98519   6.980   6.151   1.523  1.0894  0.5487  2.1908
  730MOL0     H98520   6.775   6.375   1.470  1.9801 -0.7787 -0.2487
  730MOL0     H98521   6.787   6.282   1.618 -0.1188  1.4148  0.3017
  730MOL0     H98522   6.678   6.169   1.365  0.3977 -0.5787  0.0162
  730MOL0     H98523   6.693   6.077   1.521  1.6011 -0.0803  1.8210
  730MOL0     H98524   6.547   6.242   1.632 -0.1843  1.1390 -0.0021
  730MOL0     H98525   6.474   6.140   1.506  1.6097 -1.1010 -1.9374
  730MOL0     H98526   6.521   6.446   1.480  1.1976 -0.8850  0.6332
  730MOL0     H98527   6.520   6.341   1.343  4.1600 -0.8031  0.8572
  730MOL0     H98528   6.282   6.268   1.402 -1.6924 -0.4862  1.1219
  730MOL0     H98529   6.300   6.433   1.379 -5.0201 -1.3617  0.6968
  730MOL0     H98530   6.306   6.456   1.646 -0.3452  0.3067 -0.6870
  730MOL0     H98531   6.261   6.282   1.651 -0.5130 -0.9089 -0.4428
  730MOL0     H98532   7.262   6.514   1.522  0.6593  1.4013 -0.1736
  730MOL0     H98533   7.470   6.439   1.636  0.3334  0.1670  1.8824
  730MOL0     H98534   7.791   6.584   1.924 -2.2833 -0.3415  0.1068
  730MOL0     H98535   8.025   6.519   2.017  1.2651 -0.8474  1.7067
  730MOL0     H98536   9.422   6.335   2.246  0.7295  0.7452 -0.4413
  730MOL0     H98537   9.635   6.183   2.198  0.3535 -0.9222  0.7708
  730MOL0     H98538   9.945   6.098   2.209  0.4644  1.1621  1.3703
  730MOL0     H98539  10.191   6.104   2.124 -0.1861  0.9136  0.4142
  730MOL0     H98540  10.554   5.909   2.326 -0.8190  1.4554 -0.3235
  730MOL0     H98541  10.466   5.772   2.298 -0.2570  0.1050 -0.5057
  730MOL0     H98542  10.521   5.908   2.027  1.8677  0.1939 -0.1367
  730MOL0     H98543  10.544   5.739   2.081  0.2211 -0.0337 -1.6979
  730MOL0     H98544  10.748   5.952   2.188  0.6853 -1.0880  0.3457
  730MOL0     H98545  10.752   5.915   2.014  0.7905  2.2561  0.1277
  730MOL0     H98546  10.902   5.755   2.129 -1.1200 -1.5705 -1.5248
  730MOL0     H98547  10.762   5.669   2.069  2.6095  0.0007 -1.5751
  730MOL0     H98548  10.729   5.619   2.492  1.6906 -0.7722  0.1394
  730MOL0     H98549  10.283   5.815   2.432 -0.9934 -1.7993 -0.4552
  730MOL0     H98550  10.056   5.832   2.514  1.0432 -0.4088  0.4461
  731MOL0     O98551   9.257   3.404   0.115  0.2004  0.1975  0.4456
  731MOL0     C98552   9.295   3.457   0.011  0.2889  0.0075  0.0523
  731MOL0     O98553   9.211   3.522  -0.078  0.4079 -0.3215 -0.7749
  731MOL0     C98554   9.080   3.496  -0.057 -0.1444 -0.1742  0.4780
  731MOL0     C98555   9.017   3.372  -0.029  0.5815 -0.4984  0.6778
  731MOL0     C98556   8.879   3.358  -0.043  0.2981  0.8045  0.2051
  731MOL0     C98557   8.796   3.463  -0.080  0.3018 -0.9987  0.4695
  731MOL0     O98558   8.662   3.424  -0.093  0.2165 -0.1125  0.9508
  731MOL0     C98559   8.566   3.527  -0.118  0.0766  0.3881 -0.5064
  731MOL0     C98560   8.428   3.469  -0.131  0.8569 -0.1286  0.3431
  731MOL0     C98561   8.337   3.586  -0.152  0.0745  0.1709 -0.2312
  731MOL0     C98562   8.196   3.545  -0.172 -0.3902  0.6870  0.8713
  731MOL0     C98563   8.095   3.658  -0.155 -0.2599  0.5383 -0.2399
  731MOL0     C98564   8.105   3.755  -0.274  0.6079 -0.5670  0.0154
  731MOL0     C98565   8.182   3.887  -0.249 -0.0522  1.0265 -1.1247
  731MOL0     C98566   8.173   3.983  -0.365  0.3039  0.3233  0.3355
  731MOL0     N98567   8.039   4.045  -0.389  0.2670  0.1657 -0.6010
  731MOL0     C98568   7.973   4.125  -0.306  0.5382  0.1703 -0.4925
  731MOL0     C98569   7.857   4.162  -0.360 -0.3336 -0.6878  0.4709
  731MOL0     C98570   7.763   4.258  -0.291  0.5551  0.7017  0.0453
  731MOL0     C98571   7.814   4.397  -0.300  0.9244  0.0157 -0.3955
  731MOL0     C98572   7.791   4.462  -0.438 -0.4686 -0.0609 -0.2262
  731MOL0     C98573   7.644   4.490  -0.464 -0.2155  0.0505  0.3438
  731MOL0     O98574   7.597   4.592  -0.370 -0.3665 -0.2284  0.4313
  731MOL0     C98575   7.474   4.638  -0.375 -0.5022 -0.3720  0.3849
  731MOL0     C98576   7.358   4.569  -0.420 -0.2223 -0.3557  0.1973
  731MOL0     C98577   7.228   4.620  -0.417  0.5388 -0.5936  0.9373
  731MOL0     C98578   7.119   4.521  -0.461  0.5834  0.2008 -0.2824
  731MOL0     C98579   7.207   4.753  -0.373  0.1230  0.3607 -1.0879
  731MOL0     C98580   7.065   4.813  -0.364 -0.4517  0.5155 -0.0568
  731MOL0     O98581   7.051   4.914  -0.275  0.0761  0.2351 -0.2102
  731MOL0     C98582   6.940   4.992  -0.289 -0.6203  0.5555 -0.1227
  731MOL0     C98583   6.816   4.982  -0.226  0.1580  0.2662 -1.2570
  731MOL0     C98584   6.708   5.058  -0.261  0.2781  0.2594  0.4433
  731MOL0     C98585   6.713   5.157  -0.355 -0.2726  0.9144 -0.0273
  731MOL0     O98586   6.606   5.235  -0.403 -0.2714 -0.0746 -0.0219
  731MOL0     C98587   6.474   5.203  -0.356 -0.1929 -0.4126 -0.0843
  731MOL0     C98588   6.372   5.300  -0.407 -0.7091  0.3876  0.7552
  731MOL0     C98589   6.233   5.264  -0.345 -0.0439  0.3907 -0.1906
  731MOL0     C98590   6.130   5.382  -0.348 -0.4175  0.3536  0.2243
  731MOL0     C98591   5.990   5.326  -0.311  0.6790 -0.7618  0.1842
  731MOL0     C98592   5.883   5.430  -0.325 -0.0284 -0.6267 -0.7520
  731MOL0     C98593   5.742   5.363  -0.341  0.3735  0.1245  0.5728
  731MOL0     C98594   5.646   5.466  -0.410 -0.2710 -0.6186  0.2080
  731MOL0    Cl98595   5.482   5.410  -0.424  0.1026  0.1527 -0.5847
  731MOL0     C98596   6.842   5.181  -0.410 -0.9122 -0.1128  0.4860
  731MOL0     C98597   6.949   5.099  -0.383 -0.3363  0.6318 -0.8700
  731MOL0     O98598   6.970   4.772  -0.441  0.1037 -0.2714  0.4138
  731MOL0     C98599   7.318   4.820  -0.335  0.2153  0.4431  0.8189
  731MOL0     C98600   7.448   4.766  -0.332 -1.2362  0.8341 -0.3435
  731MOL0     N98601   7.849   4.093  -0.484  0.1859  0.0977 -0.6022
  731MOL0     N98602   7.957   4.024  -0.494  0.2996 -0.3250 -0.3150
  731MOL0     C98603   8.854   3.588  -0.090 -0.9696 -0.1789  0.6558
  731MOL0     C98604   8.994   3.603  -0.086 -1.2988 -0.1773  0.3788
  731MOL0     C98605   9.442   3.457  -0.020 -0.1621  0.3335 -0.0944
  731MOL0     C98606   9.491   3.529  -0.135  0.4169  0.0002 -0.5651
  731MOL0     C98607   9.624   3.539  -0.158 -0.5678 -0.3060 -0.5076
  731MOL0     C98608   9.713   3.488  -0.063 -0.1327  0.0217 -0.3312
  731MOL0     O98609   9.848   3.498  -0.088  0.2344 -0.2767 -0.4574
  731MOL0     C98610   9.928   3.607  -0.035 -0.0925  0.8865 -0.3858
  731MOL0     C98611  10.048   3.634  -0.129  0.3456  0.0244  0.3889
  731MOL0     C98612  10.181   3.568  -0.071 -1.2352 -0.7869 -0.0926
  731MOL0     C98613  10.309   3.584  -0.159  0.4330  0.5097  0.0371
  731MOL0     C98614  10.284   3.543  -0.305 -0.4509  0.3583  0.4029
  731MOL0     C98615  10.280   3.505  -0.419  0.1703  0.0077 -0.4455
  731MOL0     C98616   9.672   3.420   0.044  0.1832  0.2641  0.5544
  731MOL0     C98617   9.537   3.403   0.070 -0.6860  0.0059  0.2921
  731MOL0     H98618   9.090   3.294  -0.012  1.9470  0.8018  0.9936
  731MOL0     H98619   8.830   3.262  -0.030  1.1001  0.4706  0.8115
  731MOL0     H98620   8.561   3.590  -0.029 -1.8084 -2.3316  1.5002
  731MOL0     H98621   8.581   3.579  -0.213  2.3578  1.5058  0.3923
  731MOL0     H98622   8.424   3.400  -0.216  1.1551 -0.3393  0.5003
  731MOL0     H98623   8.398   3.421  -0.038  1.3161 -1.0383  0.0413
  731MOL0     H98624   8.348   3.659  -0.072  3.8327 -1.1639  0.6770
  731MOL0     H98625   8.363   3.628  -0.250  2.0140 -2.0673 -0.7823
  731MOL0     H98626   8.181   3.504  -0.273  1.1296  3.9872 -0.8700
  731MOL0     H98627   8.175   3.463  -0.104 -0.8065  0.3133  0.3063
  731MOL0     H98628   8.000   3.605  -0.152  1.0551 -1.9907 -0.4861
  731MOL0     H98629   8.108   3.710  -0.059 -2.9683  0.4382  0.2434
  731MOL0     H98630   8.139   3.703  -0.364 -1.5034 -2.6322  0.3050
  731MOL0     H98631   8.004   3.785  -0.302  0.7246  0.6145  0.7946
  731MOL0     H98632   8.151   3.933  -0.155  1.3086 -1.3967  0.6373
  731MOL0     H98633   8.281   3.849  -0.225 -1.3243 -2.6545 -1.0732
  731MOL0     H98634   8.194   3.932  -0.459  0.8574  0.6780  0.2598
  731MOL0     H98635   8.231   4.075  -0.347 -1.6875  2.4851 -3.2360
  731MOL0     H98636   8.014   4.164  -0.213  4.6150  0.4404 -2.1996
  731MOL0     H98637   7.665   4.242  -0.336  0.9984 -0.5050 -0.5727
  731MOL0     H98638   7.760   4.222  -0.188 -3.3084  1.6403  0.4093
  731MOL0     H98639   7.921   4.401  -0.280  1.2805  2.9710 -2.2144
  731MOL0     H98640   7.768   4.452  -0.217  2.2401 -2.0788  1.8606
  731MOL0     H98641   7.833   4.405  -0.521 -1.5717  0.1190 -0.9207
  731MOL0     H98642   7.839   4.560  -0.444 -0.4343 -0.1922 -4.2763
  731MOL0     H98643   7.586   4.400  -0.485  0.6114  0.0708 -2.4761
  731MOL0     H98644   7.634   4.539  -0.562 -2.6539  0.8947  0.9302
  731MOL0     H98645   7.366   4.466  -0.451  1.6751 -0.6166  1.4081
  731MOL0     H98646   7.163   4.421  -0.470 -1.0173 -0.4197 -1.6920
  731MOL0     H98647   7.041   4.524  -0.384  1.7432  1.6918  0.8941
  731MOL0     H98648   7.084   4.556  -0.558  1.0255  0.6542 -0.2811
  731MOL0     H98649   6.808   4.914  -0.142  1.8639  2.4568  0.8101
  731MOL0     H98650   6.615   5.037  -0.208 -1.1342  3.0336 -0.7350
  731MOL0     H98651   6.451   5.106  -0.401 -1.6792  0.9101 -2.3940
  731MOL0     H98652   6.469   5.206  -0.246 -4.5138 -1.0008 -0.0857
  731MOL0     H98653   6.408   5.400  -0.381  1.2656  0.3055 -1.3390
  731MOL0     H98654   6.370   5.296  -0.516 -3.3998  4.0956  0.5134
  731MOL0     H98655   6.250   5.240  -0.240  0.5908  2.0890  0.1197
  731MOL0     H98656   6.198   5.175  -0.398  0.0585  1.8518 -2.8889
  731MOL0     H98657   6.161   5.461  -0.278 -0.5583  0.9563 -0.3786
  731MOL0     H98658   6.125   5.416  -0.452  1.7386 -1.4819 -0.5322
  731MOL0     H98659   5.991   5.271  -0.217 -0.8123 -0.2877  0.4961
  731MOL0     H98660   5.972   5.250  -0.388 -0.9132 -0.5676  0.3425
  731MOL0     H98661   5.885   5.486  -0.232 -1.8499  0.2154 -1.1813
  731MOL0     H98662   5.912   5.488  -0.414  1.0790  1.0444  0.6273
  731MOL0     H98663   5.689   5.340  -0.249 -2.0343  1.3484 -0.4235
  731MOL0     H98664   5.747   5.274  -0.405  0.5828  0.6268 -0.1225
  731MOL0     H98665   5.685   5.499  -0.506 -4.1736 -0.6256 -1.5431
  731MOL0     H98666   5.643   5.552  -0.342  0.2397  0.1478 -0.7148
  731MOL0     H98667   6.874   5.252  -0.485  4.0353 -0.7985  1.5643
  731MOL0     H98668   7.049   5.112  -0.423  0.7882 -0.4578  1.3855
  731MOL0     H98669   7.308   4.919  -0.293 -0.1686  1.6665 -1.9250
  731MOL0     H98670   7.527   4.827  -0.290 -0.4918 -0.3043 -0.0476
  731MOL0     H98671   8.792   3.672  -0.119  1.8050  0.6733 -3.7232
  731MOL0     H98672   9.029   3.697  -0.127 -1.0311 -0.3902  0.1127
  731MOL0     H98673   9.424   3.583  -0.200  0.3731  0.0757 -0.4569
  731MOL0     H98674   9.672   3.575  -0.248  2.3036  0.1080  1.0434
  731MOL0     H98675   9.867   3.697  -0.029 -0.0489  0.9505 -0.8430
  731MOL0     H98676   9.956   3.597   0.070 -2.6272  1.9490  0.4678
  731MOL0     H98677  10.060   3.742  -0.142  2.4703 -0.3329 -1.0479
  731MOL0     H98678  10.025   3.586  -0.225  0.3871  1.4204 -0.3456
  731MOL0     H98679  10.162   3.460  -0.058 -0.9173 -0.7194  1.1067
  731MOL0     H98680  10.207   3.594   0.032 -3.1456 -1.7703  0.6984
  731MOL0     H98681  10.382   3.518  -0.112  0.6347  0.8086  0.1431
  731MOL0     H98682  10.347   3.686  -0.164 -0.5431  0.8441 -3.8268
  731MOL0     H98683  10.265   3.488  -0.524  2.3146  0.0651 -0.8212
  731MOL0     H98684   9.733   3.378   0.123 -1.0717 -2.4427  0.1998
  731MOL0     H98685   9.507   3.354   0.162 -1.0901  0.1889  0.2621
  732MOL0     O98686  10.709   3.615   0.511  0.4909  0.0334 -0.5098
  732MOL0     C98687  10.787   3.575   0.426  1.3744  0.5078 -0.5002
  732MOL0     O98688  10.768   3.588   0.294 -0.4703  0.0178 -0.1818
  732MOL0     C98689  10.667   3.656   0.229 -0.4464  0.5706 -0.1733
  732MOL0     C98690  10.535   3.650   0.258  0.5079  0.0963 -0.3227
  732MOL0     C98691  10.445   3.721   0.179  0.5520 -0.0250  0.3545
  732MOL0     C98692  10.487   3.795   0.069 -0.4894 -0.0521 -0.5345
  732MOL0     O98693  10.390   3.867   0.004  0.1044 -0.5486 -0.0608
  732MOL0     C98694  10.424   3.977  -0.079  0.3722 -0.3035 -0.2194
  732MOL0     C98695  10.289   4.026  -0.131 -0.3405  0.3289 -0.1564
  732MOL0     C98696  10.283   4.169  -0.198 -0.3589  0.1976  0.2106
  732MOL0     C98697  10.170   4.179  -0.303 -1.0232 -0.3697 -0.0461
  732MOL0     C98698  10.036   4.246  -0.248  1.1710 -0.0803  0.6112
  732MOL0     C98699   9.962   4.175  -0.145 -0.0131 -0.9461 -0.8310
  732MOL0     C98700   9.827   4.246  -0.122  1.0675  0.1302 -0.2619
  732MOL0     C98701   9.834   4.392  -0.057  0.9252 -0.3859 -0.4467
  732MOL0     N98702   9.696   4.425  -0.005 -0.2305 -0.2763  0.6079
  732MOL0     C98703   9.652   4.408   0.127  0.4705  0.9337  0.5458
  732MOL0     C98704   9.526   4.451   0.119 -0.5457 -0.2896  0.2922
  732MOL0     C98705   9.427   4.440   0.233 -0.5356 -0.2838  0.0055
  732MOL0     C98706   9.377   4.296   0.258 -0.3448  0.2256 -0.4345
  732MOL0     C98707   9.316   4.267   0.393  0.7599 -0.1710  0.0043
  732MOL0     C98708   9.167   4.292   0.402 -0.6068 -0.4292 -0.5887
  732MOL0     O98709   9.116   4.262   0.533  0.2519 -0.2358  0.1645
  732MOL0     C98710   9.076   4.377   0.593 -0.6007 -0.1219 -0.7516
  732MOL0     C98711   9.173   4.473   0.628  0.2183  0.3056 -0.8254
  732MOL0     C98712   9.136   4.590   0.706 -0.2764  0.7098  0.3355
  732MOL0     C98713   9.244   4.681   0.756 -0.9030  0.4902 -0.7060
  732MOL0     C98714   8.995   4.608   0.733 -0.3803  0.7057 -0.0767
  732MOL0     C98715   8.941   4.737   0.794 -0.1243  0.4258  0.2757
  732MOL0     O98716   8.853   4.803   0.721 -0.6038  0.3794  0.5353
  732MOL0     C98717   8.847   4.939   0.729  1.6757 -0.3724  0.7438
  732MOL0     C98718   8.895   5.009   0.619 -0.4240 -0.2657  0.6592
  732MOL0     C98719   8.892   5.151   0.619  0.7480 -0.1888 -1.4342
  732MOL0     C98720   8.848   5.220   0.736  1.1360 -0.7732  0.3194
  732MOL0     O98721   8.834   5.355   0.720  0.1628 -0.1582 -0.0651
  732MOL0     C98722   8.765   5.430   0.823 -0.5196 -0.5466  0.3954
  732MOL0     C98723   8.774   5.582   0.806  0.6392 -0.2741  0.7019
  732MOL0     C98724   8.682   5.636   0.683 -0.6345  0.7399 -0.3878
  732MOL0     C98725   8.538   5.652   0.718  0.5586  1.0067 -0.5585
  732MOL0     C98726   8.524   5.797   0.763  0.5673 -0.2551 -0.3976
  732MOL0     C98727   8.393   5.819   0.834  0.0248  0.4047 -0.0486
  732MOL0     C98728   8.364   5.731   0.948 -0.2386  0.5228 -0.4296
  732MOL0     C98729   8.289   5.822   1.058  0.3555  0.1604  0.5631
  732MOL0    Cl98730   8.229   5.719   1.188 -0.4069  0.3004  0.0062
  732MOL0     C98731   8.811   5.150   0.851  0.2475 -0.5566 -0.0679
  732MOL0     C98732   8.812   5.012   0.849  0.1665  1.2238 -0.5589
  732MOL0     O98733   8.975   4.765   0.901  0.0855  0.0429 -0.0376
  732MOL0     C98734   8.902   4.509   0.691 -0.9144 -0.9173  0.0324
  732MOL0     C98735   8.944   4.399   0.620 -0.0530 -0.0655 -0.2675
  732MOL0     N98736   9.489   4.489  -0.006  0.2088 -0.2298  0.0650
  732MOL0     N98737   9.595   4.481  -0.081 -0.7014  0.0378 -0.4183
  732MOL0     C98738  10.623   3.799   0.037 -0.8342 -0.2580  0.6038
  732MOL0     C98739  10.714   3.728   0.114  0.6906  0.0803 -0.0018
  732MOL0     C98740  10.912   3.513   0.475 -0.4747  0.0093  0.0561
  732MOL0     C98741  10.989   3.567   0.579 -0.4466 -0.3395 -0.1768
  732MOL0     C98742  11.113   3.509   0.609 -0.9688 -0.5963  0.3140
  732MOL0     C98743  11.157   3.398   0.541  0.4226  0.2631  0.5196
  732MOL0     O98744  11.266   3.326   0.584  0.2876 -0.1985  0.5773
  732MOL0     C98745  11.383   3.388   0.635 -0.2851 -0.0483  0.1484
  732MOL0     C98746  11.484   3.272   0.632  0.2484 -0.6722  0.4488
  732MOL0     C98747  11.633   3.321   0.656  0.0068  0.1433 -0.5471
  732MOL0     C98748  11.744   3.213   0.640 -1.2375  0.0630 -0.3092
  732MOL0     C98749  11.866   3.258   0.697 -0.2016  0.5673 -0.3371
  732MOL0     C98750  11.983   3.298   0.721 -0.2396  0.1466  0.4317
  732MOL0     C98751  11.079   3.336   0.435  0.1500 -0.5174  0.6622
  732MOL0     C98752  10.958   3.401   0.394 -0.4566  0.1337  0.4171
  732MOL0     H98753  10.513   3.600   0.351  1.2915  3.6645  2.0054
  732MOL0     H98754  10.339   3.722   0.202  0.4869  1.9362  0.1176
  732MOL0     H98755  10.470   4.056  -0.018  0.8908 -1.3692  0.7997
  732MOL0     H98756  10.491   3.955  -0.163  0.7562  0.3644 -0.0998
  732MOL0     H98757  10.264   3.955  -0.209  3.1074 -1.6936  0.3679
  732MOL0     H98758  10.217   4.017  -0.048 -2.1213 -0.3885 -1.6992
  732MOL0     H98759  10.270   4.245  -0.121 -2.1437 -0.0905  0.2310
  732MOL0     H98760  10.382   4.199  -0.232 -0.0489 -2.0635 -1.1186
  732MOL0     H98761  10.211   4.254  -0.371 -0.9810 -1.0580 -0.7947
  732MOL0     H98762  10.147   4.083  -0.349 -2.1679 -0.0777 -0.1219
  732MOL0     H98763  10.057   4.352  -0.228 -1.5845  0.9780 -1.4077
  732MOL0     H98764   9.974   4.249  -0.338  1.6631  0.7087  0.2840
  732MOL0     H98765   9.929   4.073  -0.168 -1.4449 -1.0246  1.2589
  732MOL0     H98766  10.020   4.171  -0.052 -2.7826 -2.1925  0.9710
  732MOL0     H98767   9.761   4.251  -0.209 -3.0141 -1.4312  2.4567
  732MOL0     H98768   9.764   4.183  -0.059 -0.5898  0.7938 -1.1960
  732MOL0     H98769   9.858   4.459  -0.140  0.1163  0.0638 -0.3230
  732MOL0     H98770   9.911   4.401   0.020  0.6975  1.0354 -0.3755
  732MOL0     H98771   9.706   4.372   0.214 -0.1154 -1.6619 -0.0773
  732MOL0     H98772   9.483   4.473   0.320 -0.8162  1.8504 -0.5640
  732MOL0     H98773   9.344   4.511   0.220 -0.6343 -0.4593 -0.3373
  732MOL0     H98774   9.459   4.227   0.237 -1.7434 -0.7205 -3.1973
  732MOL0     H98775   9.301   4.276   0.182  1.6617 -0.0334 -2.4633
  732MOL0     H98776   9.376   4.306   0.475 -0.8496 -0.4007  1.3457
  732MOL0     H98777   9.329   4.158   0.399  0.9649 -0.5317 -4.0715
  732MOL0     H98778   9.122   4.230   0.324  3.6460 -2.5949 -1.6165
  732MOL0     H98779   9.142   4.396   0.379 -2.0204 -1.2720 -3.2702
  732MOL0     H98780   9.275   4.450   0.600 -0.2124 -0.0086 -2.2036
  732MOL0     H98781   9.334   4.674   0.695 -1.3117  0.0776 -1.2644
  732MOL0     H98782   9.221   4.786   0.736  2.6879  1.2205 -1.7411
  732MOL0     H98783   9.267   4.654   0.860 -1.2003 -1.0662 -1.0273
  732MOL0     H98784   8.925   4.970   0.522  1.2860  1.4719  0.4128
  732MOL0     H98785   8.916   5.217   0.537 -3.2314  0.8599 -1.9876
  732MOL0     H98786   8.661   5.399   0.806 -0.0416 -1.6767 -0.6402
  732MOL0     H98787   8.805   5.416   0.924 -2.4771  0.6856  1.4117
  732MOL0     H98788   8.752   5.638   0.897 -1.3871 -0.6028  0.4588
  732MOL0     H98789   8.876   5.608   0.778 -0.2838  1.4992 -1.3224
  732MOL0     H98790   8.680   5.562   0.602 -1.7579 -0.2851  0.5401
  732MOL0     H98791   8.723   5.731   0.648  1.1426  1.0836  2.3264
  732MOL0     H98792   8.473   5.641   0.631  0.1850  0.1941 -0.1885
  732MOL0     H98793   8.504   5.569   0.781  2.7868  1.2125  1.0299
  732MOL0     H98794   8.539   5.860   0.674 -1.4171 -0.9022 -1.2455
  732MOL0     H98795   8.606   5.824   0.830  0.1017  0.8034 -0.2213
  732MOL0     H98796   8.393   5.924   0.867 -0.3219 -0.4264  2.8608
  732MOL0     H98797   8.319   5.824   0.754  0.1274 -1.0124 -0.2435
  732MOL0     H98798   8.460   5.693   0.983  0.2665 -0.6395 -2.8707
  732MOL0     H98799   8.300   5.649   0.915  1.9388 -1.8494  0.8763
  732MOL0     H98800   8.196   5.863   1.016 -0.6595 -1.3434  1.2424
  732MOL0     H98801   8.351   5.907   1.087 -1.3484  2.1457 -1.2400
  732MOL0     H98802   8.784   5.202   0.942  3.9018  0.5371  0.5321
  732MOL0     H98803   8.777   4.949   0.930 -0.0077  2.0598  0.0248
  732MOL0     H98804   8.798   4.539   0.684 -1.2022 -2.2901 -2.5486
  732MOL0     H98805   8.869   4.329   0.585  0.8600 -0.4118 -1.6109
  732MOL0     H98806  10.666   3.855  -0.046 -1.6298  0.8791  0.9341
  732MOL0     H98807  10.818   3.713   0.086  1.0647  1.6597  0.4256
  732MOL0     H98808  10.960   3.657   0.633  0.6170 -0.2590  0.2819
  732MOL0     H98809  11.173   3.546   0.692  0.6011  0.4644 -1.2216
  732MOL0     H98810  11.415   3.474   0.574 -0.3080 -1.0639 -1.3544
  732MOL0     H98811  11.365   3.430   0.734 -2.9539  0.3358 -0.4260
  732MOL0     H98812  11.492   3.236   0.529  2.6979 -0.2175  0.4130
  732MOL0     H98813  11.438   3.198   0.698 -4.6713  1.9767  0.4337
  732MOL0     H98814  11.640   3.372   0.752 -1.7209  0.3322 -0.4875
  732MOL0     H98815  11.656   3.399   0.583  1.8305  1.0268  0.8856
  732MOL0     H98816  11.762   3.168   0.542  0.2778 -1.1547  0.4913
  732MOL0     H98817  11.715   3.134   0.710  1.4745  1.7751  2.9997
  732MOL0     H98818  12.074   3.341   0.759 -0.5851 -0.1944  1.6525
  732MOL0     H98819  11.102   3.247   0.377 -2.5908 -0.4905 -0.6511
  732MOL0     H98820  10.894   3.363   0.315 -0.9769  0.3348  0.7373
  733MOL0     O98821   0.725   3.541   4.937 -0.4176 -0.3597 -0.4380
  733MOL0     C98822   0.770   3.642   4.985 -0.5620 -0.3904 -0.1288
  733MOL0     O98823   0.708   3.725   5.068 -0.2501  0.2428  0.6101
  733MOL0     C98824   0.574   3.711   5.105  0.2602 -0.8686  1.2045
  733MOL0     C98825   0.535   3.740   5.231 -0.6499  0.1253  0.8912
  733MOL0     C98826   0.398   3.746   5.268  0.4341 -0.5668 -0.1286
  733MOL0     C98827   0.298   3.726   5.168 -0.6106  0.0975 -0.0626
  733MOL0     O98828   0.162   3.745   5.206  0.1924 -0.0418  0.2063
  733MOL0     C98829   0.067   3.757   5.098  0.2514  0.8643 -0.0935
  733MOL0     C98830  -0.050   3.815   5.174  0.6240 -0.2828 -0.1115
  733MOL0     C98831  -0.097   3.749   5.301  0.5957  0.0196 -0.3883
  733MOL0     C98832  -0.203   3.844   5.365  0.7636 -0.2931  0.3780
  733MOL0     C98833  -0.239   3.786   5.498  0.2980  0.1539 -0.5930
  733MOL0     C98834  -0.361   3.856   5.554 -0.1058  0.5670  0.7306
  733MOL0     C98835  -0.339   3.999   5.600  1.1853 -0.5378 -0.6838
  733MOL0     C98836  -0.482   4.074   5.635  0.2722 -0.1026  0.4643
  733MOL0     N98837  -0.538   4.030   5.766  0.9131 -0.0693  0.0501
  733MOL0     C98838  -0.553   4.115   5.878 -0.1732  0.0420  1.4428
  733MOL0     C98839  -0.640   4.044   5.955  0.0364 -0.4859  0.6150
  733MOL0     C98840  -0.689   4.088   6.087 -0.1381 -1.1636 -0.3400
  733MOL0     C98841  -0.740   4.234   6.101 -0.0637 -0.4527 -0.4937
  733MOL0     C98842  -0.869   4.264   6.025 -0.9069 -0.3029  0.3277
  733MOL0     C98843  -0.998   4.212   6.092  1.5958  0.2934 -0.1288
  733MOL0     O98844  -1.072   4.123   6.010  0.3372 -0.2387 -0.5840
  733MOL0     C98845  -1.203   4.145   5.988  0.5533  0.8726 -0.1597
  733MOL0     C98846  -1.287   4.222   6.070 -0.0859  0.8213 -0.6349
  733MOL0     C98847  -1.417   4.256   6.029  0.1796 -0.1291 -0.6756
  733MOL0     C98848  -1.499   4.344   6.116  0.7251 -0.1230 -0.4606
  733MOL0     C98849  -1.467   4.196   5.910 -0.4798  0.0181 -0.2939
  733MOL0     C98850  -1.603   4.227   5.843 -0.1771  0.1955 -0.2141
  733MOL0     O98851  -1.637   4.176   5.719 -0.1501  0.0427 -0.7707
  733MOL0     C98852  -1.755   4.186   5.655 -0.2082 -0.3409  0.6007
  733MOL0     C98853  -1.767   4.100   5.538  0.1540 -0.0921 -0.5370
  733MOL0     C98854  -1.888   4.081   5.464  0.4576 -0.5218  0.0739
  733MOL0     C98855  -1.996   4.158   5.506  0.6955  0.4945 -0.4630
  733MOL0     O98856  -2.113   4.157   5.446  0.3657  0.0588 -0.2352
  733MOL0     C98857  -2.137   4.244   5.338 -0.0071 -0.7409 -0.2113
  733MOL0     C98858  -2.285   4.275   5.311 -0.9242 -0.7162  0.6712
  733MOL0     C98859  -2.345   4.356   5.423 -0.0262 -0.0233  0.3480
  733MOL0     C98860  -2.491   4.392   5.390 -0.1639  0.1590 -1.0456
  733MOL0     C98861  -2.593   4.272   5.373 -0.5434 -0.9630 -0.2277
  733MOL0     C98862  -2.735   4.314   5.355 -0.7076 -0.5484  0.7012
  733MOL0     C98863  -2.822   4.191   5.372 -0.4691 -0.2339 -0.1255
  733MOL0     C98864  -2.857   4.155   5.517 -0.0341 -0.8457 -0.5325
  733MOL0    Cl98865  -2.939   4.297   5.585  0.2036  0.2653  0.0530
  733MOL0     C98866  -1.993   4.245   5.618 -0.5816  0.7915  0.7536
  733MOL0     C98867  -1.871   4.255   5.695  0.4994  0.0273  0.7071
  733MOL0     O98868  -1.685   4.274   5.920  0.2723 -0.8908  0.2969
  733MOL0     C98869  -1.392   4.109   5.838  0.2386 -0.1952  0.2444
  733MOL0     C98870  -1.263   4.077   5.878 -0.6408  0.0020 -0.6043
  733MOL0     N98871  -0.660   3.924   5.896 -0.0443 -0.1787  0.2234
  733MOL0     N98872  -0.614   3.920   5.780  0.1914 -0.0390  0.5898
  733MOL0     C98873   0.334   3.693   5.042  0.2279  0.1409  0.1216
  733MOL0     C98874   0.470   3.691   5.009  0.3664  0.3975  0.0353
  733MOL0     C98875   0.914   3.685   4.964 -1.3324  0.3064  1.7047
  733MOL0     C98876   0.953   3.816   4.978 -0.2581 -1.0971  0.1291
  733MOL0     C98877   1.091   3.849   4.966  0.7837  0.0427 -0.3976
  733MOL0     C98878   1.187   3.752   4.938  0.8458  0.3630 -0.7186
  733MOL0     O98879   1.320   3.791   4.929 -0.0901  0.6521  0.1584
  733MOL0     C98880   1.401   3.727   5.030 -0.5795 -0.0406  0.4471
  733MOL0     C98881   1.545   3.789   5.031  0.4816  0.0276  0.6477
  733MOL0     C98882   1.647   3.704   5.102  0.1815 -0.3082 -0.0174
  733MOL0     C98883   1.776   3.783   5.149  0.7570  0.3967 -0.1803
  733MOL0     C98884   1.743   3.838   5.280  0.0126 -0.3723  0.1540
  733MOL0     C98885   1.711   3.883   5.389  0.9553  0.0151 -0.1190
  733MOL0     C98886   1.141   3.622   4.915 -0.2438  0.4737 -0.2188
  733MOL0     C98887   1.012   3.589   4.928 -0.0772  0.0519  0.0158
  733MOL0     H98888   0.620   3.757   5.296  2.6058 -0.7821 -2.7649
  733MOL0     H98889   0.353   3.770   5.364 -1.1902  1.2277 -1.2617
  733MOL0     H98890   0.104   3.832   5.027  0.4988 -1.5498 -2.6819
  733MOL0     H98891   0.043   3.662   5.051  0.5209  1.0716 -0.6593
  733MOL0     H98892  -0.034   3.919   5.203 -1.0208 -0.3927  1.3460
  733MOL0     H98893  -0.131   3.810   5.101  0.0378  0.2290  0.5014
  733MOL0     H98894  -0.139   3.652   5.274  0.1493 -0.3910  1.6067
  733MOL0     H98895  -0.019   3.728   5.375 -0.1115 -1.5690 -0.0449
  733MOL0     H98896  -0.153   3.939   5.384 -2.4288  1.2908  1.6656
  733MOL0     H98897  -0.290   3.849   5.299  1.6919  2.2844 -0.7575
  733MOL0     H98898  -0.266   3.680   5.498  0.7066  0.0026  1.4644
  733MOL0     H98899  -0.146   3.795   5.556 -0.2395 -1.7686  0.6783
  733MOL0     H98900  -0.440   3.851   5.478 -1.2277 -2.0216  1.9659
  733MOL0     H98901  -0.404   3.808   5.642  1.3084 -4.7944 -1.1393
  733MOL0     H98902  -0.277   3.997   5.690  0.1457 -4.9064  0.2119
  733MOL0     H98903  -0.284   4.056   5.525  1.9556  1.3557  1.2094
  733MOL0     H98904  -0.552   4.049   5.555 -1.7686 -0.5724  2.2994
  733MOL0     H98905  -0.462   4.182   5.635  0.3883 -0.1183  1.5514
  733MOL0     H98906  -0.504   4.210   5.892  1.0752 -0.1640 -0.9425
  733MOL0     H98907  -0.780   4.029   6.103 -0.8347  0.1001  0.5484
  733MOL0     H98908  -0.615   4.071   6.166  0.6624  0.5028 -0.6898
  733MOL0     H98909  -0.656   4.300   6.076 -1.2257  0.9166 -0.9126
  733MOL0     H98910  -0.754   4.253   6.208 -0.0764  1.3638 -0.8012
  733MOL0     H98911  -0.856   4.206   5.933  0.6844 -1.4336  1.2164
  733MOL0     H98912  -0.866   4.372   6.004  3.6478 -0.6423 -2.1112
  733MOL0     H98913  -1.058   4.300   6.115 -1.1056 -1.3462 -0.4873
  733MOL0     H98914  -0.977   4.151   6.180  1.8445 -1.3798 -1.2847
  733MOL0     H98915  -1.246   4.262   6.162 -3.3178  1.2621  0.7433
  733MOL0     H98916  -1.529   4.434   6.063  0.1308 -0.2271 -0.3094
  733MOL0     H98917  -1.590   4.287   6.138  0.4734  0.4905  0.1287
  733MOL0     H98918  -1.459   4.361   6.217 -4.8972 -0.6900  2.2503
  733MOL0     H98919  -1.684   4.043   5.497  0.0055 -1.6174  1.1569
  733MOL0     H98920  -1.901   4.023   5.373 -0.4972 -0.8640  0.4183
  733MOL0     H98921  -2.074   4.332   5.354  1.8199 -1.6521 -1.8936
  733MOL0     H98922  -2.102   4.192   5.248  1.1451  0.0673 -0.2496
  733MOL0     H98923  -2.293   4.321   5.212  1.7487 -1.2531  0.1304
  733MOL0     H98924  -2.322   4.172   5.320 -3.0650 -0.0706 -0.1256
  733MOL0     H98925  -2.293   4.451   5.407 -2.5071  1.1499 -1.4539
  733MOL0     H98926  -2.334   4.312   5.522  2.1517  0.9280  0.5799
  733MOL0     H98927  -2.530   4.461   5.466 -0.5755 -2.5338  1.3582
  733MOL0     H98928  -2.492   4.458   5.302  0.3198 -0.0634 -1.2235
  733MOL0     H98929  -2.594   4.224   5.472 -0.9910 -0.3043  0.1047
  733MOL0     H98930  -2.565   4.204   5.293 -1.2725 -0.6454 -0.7711
  733MOL0     H98931  -2.761   4.388   5.430  1.7018  0.6047  0.5070
  733MOL0     H98932  -2.752   4.361   5.258  1.6188  2.2152  1.4916
  733MOL0     H98933  -2.783   4.101   5.324 -3.4684 -1.7050 -0.0540
  733MOL0     H98934  -2.920   4.210   5.327 -0.1790 -1.8383 -1.5379
  733MOL0     H98935  -2.764   4.145   5.574 -0.7895  0.5564  1.0510
  733MOL0     H98936  -2.925   4.069   5.525  0.4810 -1.4552 -2.2881
  733MOL0     H98937  -2.082   4.304   5.640 -1.6275 -0.2160 -0.5160
  733MOL0     H98938  -1.865   4.317   5.784  2.8864 -0.1157  0.7000
  733MOL0     H98939  -1.434   4.060   5.751  0.2152  1.7901 -0.9280
  733MOL0     H98940  -1.199   4.016   5.815 -0.5770 -0.7287  0.1483
  733MOL0     H98941   0.264   3.690   4.960  1.8383  1.3397 -1.3959
  733MOL0     H98942   0.490   3.686   4.903 -2.9232  3.9272 -0.9708
  733MOL0     H98943   0.882   3.892   5.011  0.3005 -1.2811  1.8398
  733MOL0     H98944   1.134   3.945   4.993  1.4915 -0.8650  1.9840
  733MOL0     H98945   1.356   3.728   5.130 -1.1531  0.9614  0.1943
  733MOL0     H98946   1.410   3.621   5.005 -1.3320 -0.4333  1.7212
  733MOL0     H98947   1.531   3.878   5.094 -0.3447 -1.5082  2.7322
  733MOL0     H98948   1.580   3.805   4.929 -1.9361 -5.0927 -1.2974
  733MOL0     H98949   1.668   3.628   5.026 -0.9995 -1.3051  0.6206
  733MOL0     H98950   1.600   3.645   5.181  0.0106  0.2884  0.3346
  733MOL0     H98951   1.804   3.859   5.076  1.1346  0.7443  0.3176
  733MOL0     H98952   1.861   3.714   5.148  1.1836  0.7912 -4.0143
  733MOL0     H98953   1.674   3.930   5.478  1.7167  1.2153 -0.4089
  733MOL0     H98954   1.216   3.543   4.913 -2.5782 -1.9503 -3.4098
  733MOL0     H98955   0.992   3.483   4.937  0.1737  0.0111  0.0952
  734MOL0     O98956   1.069   3.587   3.951  0.1578  0.5732  0.2567
  734MOL0     C98957   1.168   3.581   3.883 -0.6769  0.5059  0.5562
  734MOL0     O98958   1.185   3.634   3.755  0.4880 -0.2299  0.4771
  734MOL0     C98959   1.064   3.657   3.682 -0.8347  0.2969  0.6431
  734MOL0     C98960   1.034   3.787   3.629 -0.1349 -0.3141 -0.7013
  734MOL0     C98961   0.922   3.811   3.555  0.0425  0.2057 -0.0418
  734MOL0     C98962   0.828   3.710   3.526  0.1440  0.0381  0.9308
  734MOL0     O98963   0.719   3.715   3.443 -0.0510  0.6544  0.8397
  734MOL0     C98964   0.669   3.844   3.402 -0.1894  0.4429 -0.1637
  734MOL0     C98965   0.561   3.821   3.304  0.5598 -0.4544 -0.3540
  734MOL0     C98966   0.427   3.771   3.380 -0.5631 -0.2936  0.7357
  734MOL0     C98967   0.324   3.726   3.284 -0.5045 -0.2603 -0.5764
  734MOL0     C98968   0.185   3.743   3.331  0.6699 -1.0232 -0.3793
  734MOL0     C98969   0.098   3.670   3.221 -0.2686  0.5140 -0.7934
  734MOL0     C98970  -0.060   3.695   3.222  0.0041  0.1909  0.2163
  734MOL0     C98971  -0.138   3.673   3.086  0.2121 -0.3586  0.0686
  734MOL0     N98972  -0.275   3.720   3.115  0.1350 -0.1804  0.0569
  734MOL0     C98973  -0.347   3.782   3.022 -0.1013 -1.1209 -0.2755
  734MOL0     C98974  -0.474   3.800   3.075 -0.2212  0.0336  1.2945
  734MOL0     C98975  -0.582   3.873   2.997 -0.5853  0.5050 -0.3401
  734MOL0     C98976  -0.622   4.011   3.054 -0.3165 -0.0393 -0.3006
  734MOL0     C98977  -0.696   4.092   2.947  0.4983 -0.0850  0.8764
  734MOL0     C98978  -0.835   4.049   2.913 -0.4030 -1.4757  0.2598
  734MOL0     O98979  -0.921   4.051   3.030  0.2054 -0.3193  0.7341
  734MOL0     C98980  -1.056   4.034   3.002  0.2493 -0.4255 -0.3227
  734MOL0     C98981  -1.119   3.983   2.888 -0.2912 -1.3574 -0.4206
  734MOL0     C98982  -1.255   3.983   2.880  0.2540  0.6682  0.6714
  734MOL0     C98983  -1.305   3.957   2.742  0.4364  0.0033  0.8820
  734MOL0     C98984  -1.336   4.012   2.997 -0.1073 -0.1802  0.3573
  734MOL0     C98985  -1.482   4.015   2.990 -0.5425  0.2764 -0.2756
  734MOL0     O98986  -1.553   3.992   3.107 -0.2684 -0.5999  0.4962
  734MOL0     C98987  -1.690   4.020   3.118  0.5020 -0.1354 -0.1040
  734MOL0     C98988  -1.771   3.916   3.170  0.5044  0.6852 -1.0484
  734MOL0     C98989  -1.899   3.933   3.204  0.0568  0.4594 -0.4902
  734MOL0     C98990  -1.962   4.058   3.190  0.8914  0.2829  0.7713
  734MOL0     O98991  -2.081   4.073   3.242 -0.2280  0.2336 -0.0059
  734MOL0     C98992  -2.190   4.012   3.177  0.0115  0.1483  0.1464
  734MOL0     C98993  -2.314   4.091   3.206 -0.4442  0.1170 -0.3752
  734MOL0     C98994  -2.364   4.067   3.351  0.2481 -0.3200  1.1073
  734MOL0     C98995  -2.495   3.979   3.359  0.7263 -0.3422 -0.0611
  734MOL0     C98996  -2.546   3.948   3.503 -0.6968  0.1380  0.0013
  734MOL0     C98997  -2.450   3.870   3.595  0.1708 -0.1031  0.0862
  734MOL0     C98998  -2.518   3.880   3.730  0.1283  0.0836  0.1101
  734MOL0     C98999  -2.429   3.795   3.819  0.0556  0.4528 -1.0508
  734MOL0    Cl99000  -2.510   3.789   3.974  0.2313 -0.1053  0.2256
  734MOL0     C99001  -1.888   4.155   3.130 -0.7765 -0.1532 -0.0613
  734MOL0     C99002  -1.758   4.139   3.081 -0.1165  0.4629 -0.7489
  734MOL0     O99003  -1.535   4.055   2.891 -0.2137  0.2494 -0.3149
  734MOL0     C99004  -1.272   4.035   3.126 -0.0077 -0.4612  0.4189
  734MOL0     C99005  -1.136   4.056   3.120 -0.3222  0.7788  0.8588
  734MOL0     N99006  -0.481   3.729   3.193  0.2285 -0.1368 -0.7107
  734MOL0     N99007  -0.363   3.688   3.217  0.8476 -0.8601 -0.0911
  734MOL0     C99008   0.840   3.588   3.586 -0.3458 -0.2321  0.4703
  734MOL0     C99009   0.963   3.558   3.659  0.4997 -0.9831  1.0374
  734MOL0     C99010   1.271   3.503   3.958  0.5778  0.1480 -0.0277
  734MOL0     C99011   1.249   3.476   4.098 -0.4276 -0.2808 -0.5949
  734MOL0     C99012   1.353   3.419   4.177 -0.0093 -1.1340  0.2668
  734MOL0     C99013   1.480   3.397   4.114  0.0580  0.3500  0.0360
  734MOL0     O99014   1.588   3.344   4.176 -0.0303  0.7518 -0.0774
  734MOL0     C99015   1.590   3.373   4.316 -0.1167  0.4874 -0.3179
  734MOL0     C99016   1.732   3.368   4.374 -0.0276 -0.2248  0.4454
  734MOL0     C99017   1.728   3.407   4.528  0.1774  0.7240  0.1228
  734MOL0     C99018   1.866   3.382   4.602  0.3515  0.6872  0.3212
  734MOL0     C99019   1.969   3.454   4.532  0.8076  0.3718  1.2025
  734MOL0     C99020   2.058   3.516   4.477  0.4989 -0.2842 -0.7410
  734MOL0     C99021   1.492   3.412   3.974 -0.0851  0.3079 -0.5340
  734MOL0     C99022   1.389   3.460   3.901  0.4033 -0.1648  0.2658
  734MOL0     H99023   1.112   3.858   3.656 -1.6605  0.6484  1.4831
  734MOL0     H99024   0.912   3.912   3.517  0.4079  0.2191 -0.1070
  734MOL0     H99025   0.637   3.898   3.491  2.8937 -0.2011  1.4901
  734MOL0     H99026   0.743   3.897   3.340 -0.4873 -0.8699 -1.7030
  734MOL0     H99027   0.533   3.905   3.241  0.8635  0.2839  0.4801
  734MOL0     H99028   0.595   3.735   3.245  3.0877 -0.1955  0.6131
  734MOL0     H99029   0.449   3.683   3.441 -1.2872 -1.0859 -0.1124
  734MOL0     H99030   0.387   3.846   3.449  0.7879 -0.5625  1.8556
  734MOL0     H99031   0.321   3.784   3.192  0.8163  1.4228  0.3971
  734MOL0     H99032   0.361   3.626   3.258  3.4314  1.1623 -1.2307
  734MOL0     H99033   0.166   3.703   3.431 -1.5267  1.3947  0.2825
  734MOL0     H99034   0.161   3.849   3.326  0.5126 -0.7846  3.0459
  734MOL0     H99035   0.135   3.689   3.120 -0.7217  0.3861 -0.9836
  734MOL0     H99036   0.115   3.563   3.238 -4.5990  0.0436  1.8649
  734MOL0     H99037  -0.098   3.631   3.302 -2.2035  3.4955  2.0169
  734MOL0     H99038  -0.090   3.792   3.263 -2.1586 -0.4510  0.2433
  734MOL0     H99039  -0.139   3.569   3.054  0.3283 -0.5058  0.5421
  734MOL0     H99040  -0.086   3.733   3.011  0.4883 -0.0581  0.4932
  734MOL0     H99041  -0.315   3.809   2.921  1.0822 -0.5474  0.2301
  734MOL0     H99042  -0.543   3.882   2.896 -1.4807 -1.7348 -0.9446
  734MOL0     H99043  -0.667   3.804   2.999  0.0923 -0.3670 -1.1876
  734MOL0     H99044  -0.531   4.061   3.090  1.4170 -1.5366 -2.3717
  734MOL0     H99045  -0.680   3.995   3.145  0.0402  5.7628  1.3644
  734MOL0     H99046  -0.639   4.096   2.854  4.1907 -1.0087  2.9234
  734MOL0     H99047  -0.697   4.191   2.994  2.4921  0.5412 -0.2998
  734MOL0     H99048  -0.844   3.958   2.853  0.9795  0.0828 -2.5115
  734MOL0     H99049  -0.877   4.120   2.841  0.9407 -1.5666 -0.6326
  734MOL0     H99050  -1.050   3.962   2.807  2.6627  0.9603  1.2996
  734MOL0     H99051  -1.229   3.972   2.665 -0.3333 -2.0149 -0.3485
  734MOL0     H99052  -1.350   3.858   2.728  1.1826 -0.2022 -0.1305
  734MOL0     H99053  -1.381   4.032   2.717 -0.7648 -1.5569 -0.3586
  734MOL0     H99054  -1.718   3.824   3.193 -0.2429 -0.0336 -2.0902
  734MOL0     H99055  -1.954   3.854   3.253 -1.4970  0.4714 -2.1043
  734MOL0     H99056  -2.183   4.012   3.068 -0.6854  3.6276 -0.0165
  734MOL0     H99057  -2.208   3.910   3.214  0.8063 -0.7222 -1.7425
  734MOL0     H99058  -2.297   4.199   3.194 -0.9034  0.3127  0.6221
  734MOL0     H99059  -2.392   4.087   3.129 -0.5684  1.2605 -0.3372
  734MOL0     H99060  -2.381   4.165   3.396  1.5351  0.1509  0.6294
  734MOL0     H99061  -2.286   4.025   3.415 -0.3082  0.3146  2.2188
  734MOL0     H99062  -2.580   4.019   3.303 -0.1504 -0.9343  0.8145
  734MOL0     H99063  -2.467   3.884   3.312 -0.8199 -0.2782 -1.2058
  734MOL0     H99064  -2.640   3.893   3.501 -0.1866 -0.7710  0.0103
  734MOL0     H99065  -2.557   4.048   3.545  0.1711  1.1641 -2.0316
  734MOL0     H99066  -2.450   3.763   3.573 -1.4970 -0.8324  3.0626
  734MOL0     H99067  -2.351   3.915   3.593 -0.1718  0.7172 -2.7124
  734MOL0     H99068  -2.622   3.846   3.734  0.1476  0.0177  0.0503
  734MOL0     H99069  -2.526   3.982   3.769 -2.6296 -1.0312  2.9377
  734MOL0     H99070  -2.334   3.849   3.823  0.4244 -0.1624  3.0426
  734MOL0     H99071  -2.404   3.697   3.778 -0.1191  0.1338 -0.4122
  734MOL0     H99072  -1.924   4.254   3.106  1.5844  1.5439  2.6880
  734MOL0     H99073  -1.704   4.209   3.018  1.5440  1.4723  1.6362
  734MOL0     H99074  -1.337   4.044   3.213 -0.3982 -3.8776  0.6338
  734MOL0     H99075  -1.099   4.092   3.216 -2.9085 -0.3572  2.4003
  734MOL0     H99076   0.764   3.511   3.583  0.5428 -1.1053 -1.6435
  734MOL0     H99077   0.982   3.459   3.700 -1.7733 -0.7980  2.7526
  734MOL0     H99078   1.160   3.506   4.152  1.8019  1.7087  2.3234
  734MOL0     H99079   1.343   3.391   4.282 -3.7086 -0.4519  0.2138
  734MOL0     H99080   1.555   3.475   4.335 -1.4586 -0.1841  0.9805
  734MOL0     H99081   1.525   3.306   4.372  0.2428  0.4403  0.0468
  734MOL0     H99082   1.792   3.440   4.318  1.3015 -0.9236  0.9197
  734MOL0     H99083   1.766   3.265   4.362 -4.2346 -1.6143 -1.2697
  734MOL0     H99084   1.646   3.345   4.565 -1.1082  0.3332 -3.0216
  734MOL0     H99085   1.695   3.510   4.546 -2.2790 -0.0561  0.4657
  734MOL0     H99086   1.889   3.276   4.610 -0.5475  0.3135 -1.4742
  734MOL0     H99087   1.865   3.421   4.705  1.3939 -0.6017  0.8356
  734MOL0     H99088   2.130   3.560   4.411  0.8386 -1.9365 -1.5396
  734MOL0     H99089   1.589   3.387   3.932  0.2609  0.3347  0.2268
  734MOL0     H99090   1.408   3.472   3.795  1.5331  3.8454  0.7509
  735MOL0     O99091   7.299   5.335   8.155  0.5552  0.3145 -0.3744
  735MOL0     C99092   7.341   5.450   8.163  0.3513  0.0685  0.1438
  735MOL0     O99093   7.268   5.557   8.213 -0.5391 -0.7615 -0.2883
  735MOL0     C99094   7.150   5.536   8.287 -0.5645  0.7831 -0.6263
  735MOL0     C99095   7.116   5.632   8.391  0.1750 -0.9439  0.0584
  735MOL0     C99096   7.004   5.628   8.476 -0.2041 -0.0502  0.0096
  735MOL0     C99097   6.920   5.520   8.465  1.1102 -0.0138  0.1624
  735MOL0     O99098   6.804   5.518   8.543  0.9437 -0.2427  0.0826
  735MOL0     C99099   6.743   5.389   8.567 -0.0625  0.1509  0.4131
  735MOL0     C99100   6.671   5.363   8.699 -0.0563  0.6697  0.1003
  735MOL0     C99101   6.538   5.434   8.694 -0.6037  0.4580 -0.0719
  735MOL0     C99102   6.433   5.355   8.622  0.7189 -0.7743 -0.0478
  735MOL0     C99103   6.287   5.411   8.641  0.0380  0.0209 -0.2415
  735MOL0     C99104   6.245   5.390   8.785 -0.3556 -0.4288  0.0848
  735MOL0     C99105   6.098   5.428   8.803 -0.1420 -0.3124  0.1562
  735MOL0     C99106   6.030   5.378   8.937 -0.0779  0.9315 -0.1902
  735MOL0     N99107   5.888   5.429   8.940  0.3109 -0.4878 -0.2671
  735MOL0     C99108   5.796   5.439   8.840 -0.2055  0.4606 -0.1585
  735MOL0     C99109   5.679   5.476   8.902 -0.0669  0.9972 -0.9611
  735MOL0     C99110   5.545   5.488   8.847 -0.2124 -0.3469 -0.8920
  735MOL0     C99111   5.483   5.621   8.882 -0.3616  0.1918  0.0805
  735MOL0     C99112   5.349   5.616   8.819 -0.0743  0.8639 -0.9032
  735MOL0     C99113   5.248   5.550   8.913 -0.3568 -0.7149  0.1343
  735MOL0     O99114   5.117   5.611   8.899  0.4728 -0.0842  0.1287
  735MOL0     C99115   5.005   5.547   8.949 -0.7589 -0.5351  0.2710
  735MOL0     C99116   4.875   5.605   8.946  0.6858 -0.3197  0.2576
  735MOL0     C99117   4.764   5.539   8.993  0.0612  0.7937 -0.1166
  735MOL0     C99118   4.630   5.609   8.992 -0.0002  1.0642 -0.9866
  735MOL0     C99119   4.778   5.404   9.031 -0.2577  0.1300  0.2709
  735MOL0     C99120   4.663   5.316   9.083  0.0114  0.1508 -0.4496
  735MOL0     O99121   4.707   5.207   9.155  0.6643 -0.1019 -0.4172
  735MOL0     C99122   4.620   5.130   9.237 -0.8917  0.1096 -0.1989
  735MOL0     C99123   4.488   5.085   9.206 -0.8321 -0.2435 -0.2865
  735MOL0     C99124   4.417   5.007   9.295  0.2738 -0.1747 -0.2836
  735MOL0     C99125   4.460   4.983   9.418 -0.5241 -0.0280 -0.0287
  735MOL0     O99126   4.378   4.908   9.498  0.2250 -0.3035  0.5113
  735MOL0     C99127   4.414   4.929   9.639 -0.2302  0.4628 -0.7442
  735MOL0     C99128   4.307   4.871   9.733 -0.5471 -0.1852  0.0416
  735MOL0     C99129   4.168   4.937   9.714 -0.9765  0.2771 -0.4136
  735MOL0     C99130   4.154   5.081   9.771 -0.0029  0.1112 -0.6856
  735MOL0     C99131   4.010   5.131   9.765 -0.4037  0.5583 -0.7317
  735MOL0     C99132   3.901   5.057   9.843 -0.0689  0.9208 -0.2215
  735MOL0     C99133   3.772   5.132   9.831  0.1427 -0.5556  0.4396
  735MOL0     C99134   3.702   5.122   9.688 -0.2115  0.4028 -0.0579
  735MOL0    Cl99135   3.566   5.229   9.687  0.3085  0.0618  0.6579
  735MOL0     C99136   4.593   5.017   9.446  0.1317  0.2399 -0.0849
  735MOL0     C99137   4.676   5.095   9.359 -0.8931 -1.4141  0.1479
  735MOL0     O99138   4.549   5.333   9.037 -0.2093  0.3142 -0.1032
  735MOL0     C99139   4.905   5.345   9.035  0.1681 -0.0341 -0.1537
  735MOL0     C99140   5.015   5.413   8.996 -0.3944 -0.9228  0.1383
  735MOL0     N99141   5.708   5.486   9.042 -0.4067 -0.5645  0.8387
  735MOL0     N99142   5.829   5.459   9.060 -0.6018 -0.1632  0.0288
  735MOL0     C99143   6.942   5.427   8.364 -0.3299  0.1362  0.3784
  735MOL0     C99144   7.056   5.434   8.281  0.4280 -0.2309 -0.1679
  735MOL0     C99145   7.477   5.483   8.120 -0.6438 -0.1997 -0.1818
  735MOL0     C99146   7.576   5.378   8.123  0.8371 -0.6543  0.0371
  735MOL0     C99147   7.706   5.406   8.081 -0.5684  0.5212 -0.1219
  735MOL0     C99148   7.745   5.527   8.022 -0.1638 -0.2990 -0.2098
  735MOL0     O99149   7.868   5.551   7.979  0.1431  0.2537  0.2226
  735MOL0     C99150   7.957   5.542   8.093  0.2777  0.4475  0.5792
  735MOL0     C99151   8.047   5.666   8.104 -0.3939 -0.3312  0.9216
  735MOL0     C99152   8.163   5.658   7.998  0.8045 -0.5240 -1.3766
  735MOL0     C99153   8.287   5.749   8.031 -0.3339  0.7427 -0.4158
  735MOL0     C99154   8.401   5.720   7.947 -1.4849  0.6367  0.2460
  735MOL0     C99155   8.507   5.697   7.886 -1.1046  0.0910 -0.0207
  735MOL0     C99156   7.648   5.636   8.035  1.0185 -0.5339  0.1789
  735MOL0     C99157   7.514   5.608   8.079  0.3202 -0.6578 -0.4555
  735MOL0     H99158   7.181   5.718   8.405 -2.1627  1.2718 -1.7299
  735MOL0     H99159   6.982   5.707   8.546  0.6680  3.2261 -3.1391
  735MOL0     H99160   6.679   5.367   8.481  0.8650  0.6060 -0.4129
  735MOL0     H99161   6.818   5.309   8.567 -0.6581 -0.4360 -0.8242
  735MOL0     H99162   6.677   5.255   8.716  1.6274  0.7101 -0.1368
  735MOL0     H99163   6.717   5.412   8.785  0.1483 -0.7023  0.8043
  735MOL0     H99164   6.505   5.466   8.793  1.5614  2.2415  0.1506
  735MOL0     H99165   6.553   5.531   8.645 -2.9391  2.0372  2.0705
  735MOL0     H99166   6.451   5.364   8.514  1.9512  2.3016  0.3073
  735MOL0     H99167   6.439   5.252   8.659  0.6194 -0.2574  1.4754
  735MOL0     H99168   6.287   5.516   8.608 -2.4632  0.1120 -0.1662
  735MOL0     H99169   6.219   5.354   8.578  0.4972 -0.5743 -0.2022
  735MOL0     H99170   6.262   5.283   8.803 -0.4567  0.0614  4.1156
  735MOL0     H99171   6.310   5.451   8.849  0.9858 -1.0203 -0.6575
  735MOL0     H99172   6.100   5.537   8.795  2.8877 -0.2982  0.1011
  735MOL0     H99173   6.034   5.393   8.721 -2.3302  1.9381  0.7815
  735MOL0     H99174   6.072   5.396   9.036  0.3492  0.1752 -0.2248
  735MOL0     H99175   6.037   5.269   8.929  0.7092  1.0615 -1.5142
  735MOL0     H99176   5.804   5.437   8.732 -4.3776  5.0056 -0.8832
  735MOL0     H99177   5.555   5.485   8.738  1.2862  2.3088 -0.9256
  735MOL0     H99178   5.478   5.410   8.883 -0.8594  1.1276  1.2863
  735MOL0     H99179   5.547   5.692   8.829  0.6937 -0.7579  0.0418
  735MOL0     H99180   5.472   5.646   8.988 -0.4112 -1.6001  0.5317
  735MOL0     H99181   5.352   5.560   8.724  1.5257 -1.7122  0.5404
  735MOL0     H99182   5.317   5.719   8.804 -2.9316  0.4520  1.4471
  735MOL0     H99183   5.285   5.549   9.016 -2.1248 -2.3527  0.8064
  735MOL0     H99184   5.244   5.445   8.884  1.2838 -0.7619 -0.0371
  735MOL0     H99185   4.868   5.708   8.915 -1.1170 -0.0998  1.2513
  735MOL0     H99186   4.641   5.718   8.986 -0.2403  1.0959 -0.8771
  735MOL0     H99187   4.577   5.568   8.906 -1.2476  1.6997 -0.5497
  735MOL0     H99188   4.584   5.593   9.090  3.8304 -0.0913  0.8129
  735MOL0     H99189   4.441   5.108   9.111 -0.4390  0.7108 -0.2624
  735MOL0     H99190   4.318   4.977   9.265  0.9904 -3.0762 -0.0166
  735MOL0     H99191   4.507   4.877   9.663 -0.5183  0.3974  0.2911
  735MOL0     H99192   4.428   5.035   9.665 -1.2042 -0.0229  2.1007
  735MOL0     H99193   4.292   4.764   9.714 -2.4728  0.3309 -1.7657
  735MOL0     H99194   4.329   4.892   9.838 -3.9614  2.7368  0.4087
  735MOL0     H99195   4.092   4.874   9.760  0.2783 -1.6599 -0.8749
  735MOL0     H99196   4.148   4.937   9.607  0.2213 -1.5132 -0.6802
  735MOL0     H99197   4.181   5.075   9.877 -2.3611  1.7706  0.0946
  735MOL0     H99198   4.220   5.155   9.723  1.5178 -2.6433 -3.1505
  735MOL0     H99199   3.974   5.139   9.662  2.2540 -4.1483 -2.3187
  735MOL0     H99200   4.010   5.237   9.794 -1.5942  0.1571  0.8783
  735MOL0     H99201   3.894   4.952   9.813 -3.7598  1.1997 -0.7983
  735MOL0     H99202   3.941   5.039   9.943  1.2062 -3.7085 -1.3255
  735MOL0     H99203   3.793   5.239   9.830  0.1501 -0.5576  0.4214
  735MOL0     H99204   3.697   5.109   9.907 -1.1763  1.0921 -0.2890
  735MOL0     H99205   3.673   5.016   9.684  0.4003  0.2512 -0.8891
  735MOL0     H99206   3.761   5.141   9.598 -2.4915  0.4266 -1.6044
  735MOL0     H99207   4.637   4.987   9.540 -2.3199  0.1921  1.1408
  735MOL0     H99208   4.769   5.139   9.392 -1.1798  0.4019 -1.3211
  735MOL0     H99209   4.922   5.242   9.063 -1.1218 -0.3451 -0.4680
  735MOL0     H99210   5.108   5.358   9.009  0.5053  0.2545 -0.9912
  735MOL0     H99211   6.874   5.346   8.341 -1.3091  0.7845  0.9085
  735MOL0     H99212   7.068   5.349   8.215 -0.3359  0.7274 -1.6069
  735MOL0     H99213   7.549   5.276   8.148  1.9645 -1.4800 -1.8492
  735MOL0     H99214   7.775   5.323   8.094  0.9236  0.9383 -4.1121
  735MOL0     H99215   7.899   5.535   8.186  0.5535 -2.7825  0.6235
  735MOL0     H99216   8.013   5.448   8.085 -2.2305 -1.1953  1.0041
  735MOL0     H99217   8.093   5.667   8.204  3.1446  0.2962 -0.5488
  735MOL0     H99218   8.003   5.766   8.104  2.8803  1.2261  0.4309
  735MOL0     H99219   8.116   5.689   7.904  2.5454  1.6292 -1.6129
  735MOL0     H99220   8.199   5.555   7.989  0.6179 -0.7756  0.4061
  735MOL0     H99221   8.300   5.741   8.140 -4.0230  1.6737  0.2381
  735MOL0     H99222   8.255   5.852   8.015 -1.6148  0.6028  0.9576
  735MOL0     H99223   8.592   5.679   7.823  0.1549  0.8211  1.3806
  735MOL0     H99224   7.669   5.737   8.001 -1.7857 -0.1143 -0.5708
  735MOL0     H99225   7.443   5.688   8.094  1.9714  0.6738  0.6227
  736MOL0     O99226   8.325   6.453   7.686 -0.7967  0.6835 -0.5886
  736MOL0     C99227   8.336   6.572   7.692 -0.5965 -0.6208 -0.0780
  736MOL0     O99228   8.244   6.655   7.746 -0.0857  0.9889  0.0492
  736MOL0     C99229   8.134   6.593   7.804  0.5878  0.3096  0.1386
  736MOL0     C99230   8.049   6.514   7.728  0.5179  0.1440  0.1268
  736MOL0     C99231   7.924   6.468   7.781 -0.4499  0.0071  0.1970
  736MOL0     C99232   7.894   6.504   7.907  0.3919 -0.3185 -0.6293
  736MOL0     O99233   7.781   6.452   7.970 -0.2821  0.2351 -0.4884
  736MOL0     C99234   7.684   6.377   7.896 -0.6292  0.3230  0.2740
  736MOL0     C99235   7.556   6.348   7.973  0.5019 -0.7997  1.0169
  736MOL0     C99236   7.469   6.473   7.975  0.7003  0.0706 -0.6091
  736MOL0     C99237   7.352   6.464   8.071  0.6339  0.4540  0.4329
  736MOL0     C99238   7.275   6.595   8.073 -0.0111  0.7483 -0.1669
  736MOL0     C99239   7.132   6.602   8.143 -0.3537  0.3062  2.0123
  736MOL0     C99240   7.020   6.544   8.056 -0.7986 -0.5117 -0.1149
  736MOL0     C99241   6.890   6.527   8.133  0.4887  0.0962 -0.6462
  736MOL0     N99242   6.818   6.656   8.148  0.5584 -0.1122  0.0824
  736MOL0     C99243   6.701   6.676   8.079  0.6214  0.5249  0.2628
  736MOL0     C99244   6.638   6.780   8.140 -1.0711  0.2717 -0.1855
  736MOL0     C99245   6.512   6.844   8.089 -0.7763 -0.3768 -0.3185
  736MOL0     C99246   6.390   6.742   8.098 -0.1789 -0.8361 -0.5434
  736MOL0     C99247   6.324   6.773   8.234 -0.5861 -0.9389 -0.1294
  736MOL0     C99248   6.206   6.682   8.276  0.3288 -0.1529  0.3151
  736MOL0     O99249   6.104   6.663   8.166 -0.1470 -0.7359 -0.1722
  736MOL0     C99250   5.998   6.752   8.148 -0.1857 -0.4657 -0.3939
  736MOL0     C99251   5.996   6.894   8.173  0.6865 -0.5015  0.0032
  736MOL0     C99252   5.885   6.970   8.142 -0.1818 -0.8160 -0.3054
  736MOL0     C99253   5.891   7.113   8.175 -0.3795 -0.0929 -0.3291
  736MOL0     C99254   5.780   6.909   8.075 -0.6650 -0.3143  0.1757
  736MOL0     C99255   5.660   6.977   8.033  0.2794 -0.2105  1.0727
  736MOL0     O99256   5.544   6.909   8.052 -0.4035  0.3951  0.0200
  736MOL0     C99257   5.424   6.964   8.012 -0.9441  0.5165  0.0776
  736MOL0     C99258   5.378   7.086   8.047 -0.6776 -0.0110 -0.3297
  736MOL0     C99259   5.261   7.129   8.001 -0.3330  0.2175  0.2627
  736MOL0     C99260   5.179   7.053   7.922  0.3408  0.0565  0.0210
  736MOL0     O99261   5.065   7.107   7.875 -0.5938 -0.6370 -0.1458
  736MOL0     C99262   4.962   7.018   7.827 -0.8565  0.0390 -0.1595
  736MOL0     C99263   4.828   7.087   7.860  0.1294  0.6612 -0.0346
  736MOL0     C99264   4.700   6.993   7.839 -0.0614 -0.6649  0.5045
  736MOL0     C99265   4.580   7.061   7.889 -0.2496 -0.3352 -0.0142
  736MOL0     C99266   4.463   6.970   7.851  0.6710 -0.0597 -0.1714
  736MOL0     C99267   4.345   7.005   7.946  0.2552 -0.3768 -0.2859
  736MOL0     C99268   4.225   6.909   7.925  0.2077 -0.5873 -0.0109
  736MOL0     C99269   4.164   6.900   7.789 -0.3722  0.4939  1.0316
  736MOL0    Cl99270   4.115   7.062   7.739  0.1567 -0.4512 -0.5325
  736MOL0     C99271   5.227   6.929   7.874  0.3282 -0.3127 -0.0715
  736MOL0     C99272   5.353   6.885   7.915 -0.5215  0.3802  0.1113
  736MOL0     O99273   5.665   7.089   7.979  0.3679  0.0690 -0.1043
  736MOL0     C99274   5.794   6.773   8.035  0.5486  1.2016 -0.6914
  736MOL0     C99275   5.899   6.695   8.070  0.2013  0.8200  0.2054
  736MOL0     N99276   6.712   6.818   8.249  0.1500  0.2819 -0.4166
  736MOL0     N99277   6.818   6.737   8.257 -0.2795 -0.4909  0.3444
  736MOL0     C99278   7.979   6.586   7.981  0.9603  0.1810  0.2158
  736MOL0     C99279   8.092   6.640   7.926  0.2714 -0.2879 -0.5307
  736MOL0     C99280   8.437   6.640   7.604 -0.2810  0.6598 -0.0016
  736MOL0     C99281   8.530   6.569   7.519  0.3002 -0.5262  0.4069
  736MOL0     C99282   8.609   6.639   7.419  0.2116  0.8750  0.5714
  736MOL0     C99283   8.593   6.781   7.414  0.5777  0.7456  0.3322
  736MOL0     O99284   8.651   6.862   7.319 -0.3413 -0.7390 -0.1858
  736MOL0     C99285   8.768   6.822   7.242  0.1953  0.7073 -0.2831
  736MOL0     C99286   8.796   6.919   7.128 -0.1007  0.6534  0.1093
  736MOL0     C99287   8.938   6.888   7.067 -0.4999 -0.3066  0.2857
  736MOL0     C99288   8.952   6.745   7.006 -0.2750 -0.0542  0.4993
  736MOL0     C99289   8.870   6.707   6.892  0.1126 -0.0027  0.2382
  736MOL0     C99290   8.806   6.672   6.799  0.1684 -0.2649 -0.3601
  736MOL0     C99291   8.514   6.845   7.498  0.1506  0.3961 -0.0416
  736MOL0     C99292   8.440   6.781   7.592  0.7955  0.9087  0.1877
  736MOL0     H99293   8.069   6.483   7.626 -0.6312 -3.0962  0.7647
  736MOL0     H99294   7.873   6.395   7.718  0.0684  1.1188 -1.6059
  736MOL0     H99295   7.670   6.425   7.799 -0.4678  0.8636  0.5169
  736MOL0     H99296   7.721   6.277   7.870 -0.9565  0.2388  0.1289
  736MOL0     H99297   7.495   6.268   7.929 -1.9111  0.9107  1.0254
  736MOL0     H99298   7.579   6.325   8.077 -1.2498  0.6747  1.7943
  736MOL0     H99299   7.528   6.562   8.000  2.6696 -1.2781 -0.1577
  736MOL0     H99300   7.444   6.509   7.874  2.6123  0.1002 -1.1312
  736MOL0     H99301   7.282   6.391   8.029  1.2697  1.4228 -2.5421
  736MOL0     H99302   7.382   6.443   8.174  1.2861  3.0533  0.8475
  736MOL0     H99303   7.336   6.672   8.121 -1.5638 -0.4301  4.1730
  736MOL0     H99304   7.266   6.623   7.968 -1.9532 -0.7788 -0.4739
  736MOL0     H99305   7.132   6.533   8.228  3.7228 -0.4098  1.6121
  736MOL0     H99306   7.106   6.706   8.162  0.9978  1.0953 -0.1685
  736MOL0     H99307   6.995   6.616   7.978  0.4039  0.5824  0.4842
  736MOL0     H99308   7.043   6.450   8.005 -1.5393 -1.2504  0.8647
  736MOL0     H99309   6.908   6.473   8.227 -0.8003  0.7872  0.0174
  736MOL0     H99310   6.820   6.459   8.084 -3.1867 -0.1232  4.1092
  736MOL0     H99311   6.658   6.623   7.994  1.1250 -0.3869  0.5665
  736MOL0     H99312   6.500   6.932   8.153  0.8777 -2.6400  3.3652
  736MOL0     H99313   6.516   6.891   7.990 -5.5176 -0.7816 -0.9317
  736MOL0     H99314   6.425   6.639   8.085 -1.1109 -1.2514  0.1252
  736MOL0     H99315   6.316   6.763   8.020 -0.3572 -1.2257 -0.4828
  736MOL0     H99316   6.284   6.874   8.243 -2.8223 -1.6477 -1.2571
  736MOL0     H99317   6.402   6.763   8.310 -0.2676 -0.1564 -0.3472
  736MOL0     H99318   6.164   6.733   8.363 -0.3182  1.8855 -1.1234
  736MOL0     H99319   6.231   6.581   8.308  0.3140 -0.2346  0.0763
  736MOL0     H99320   6.078   6.947   8.222  0.7308 -1.2489  0.7625
  736MOL0     H99321   5.933   7.121   8.276 -0.2391 -0.8816 -0.3237
  736MOL0     H99322   5.950   7.179   8.111 -0.4146  0.6937  0.4306
  736MOL0     H99323   5.792   7.160   8.183  0.2470  1.0322  1.5546
  736MOL0     H99324   5.443   7.152   8.103  2.2854 -1.3254 -2.0197
  736MOL0     H99325   5.222   7.225   8.031  0.2353  0.3650  0.5440
  736MOL0     H99326   4.977   7.012   7.719  3.1116  0.6019  0.2132
  736MOL0     H99327   4.973   6.926   7.884 -2.4125 -0.3990 -0.5172
  736MOL0     H99328   4.829   7.132   7.959  2.2974  2.0579 -0.6299
  736MOL0     H99329   4.810   7.172   7.794 -2.1038  1.3971  1.4153
  736MOL0     H99330   4.716   6.894   7.884 -1.5888 -1.9896 -1.6382
  736MOL0     H99331   4.682   6.991   7.731  3.2143  1.6423 -0.2282
  736MOL0     H99332   4.586   7.079   7.997 -0.7621 -0.4220  0.0305
  736MOL0     H99333   4.572   7.164   7.853 -3.2614 -0.8822 -1.2560
  736MOL0     H99334   4.483   6.865   7.875 -2.0230 -1.2268 -2.4982
  736MOL0     H99335   4.444   6.975   7.744  2.2202  0.4887 -0.4523
  736MOL0     H99336   4.374   6.991   8.051  0.4748 -2.4752 -0.5899
  736MOL0     H99337   4.306   7.106   7.933  0.7003 -0.4190 -2.1473
  736MOL0     H99338   4.141   6.936   7.990 -0.4754  1.3356 -1.5982
  736MOL0     H99339   4.250   6.805   7.946 -0.0996 -1.1492 -2.2525
  736MOL0     H99340   4.080   6.832   7.799 -2.1919  2.5397  0.3438
  736MOL0     H99341   4.235   6.855   7.719 -0.2460  1.6698  0.3924
  736MOL0     H99342   5.168   6.870   7.805  2.0998 -3.1252  0.6451
  736MOL0     H99343   5.386   6.790   7.876  0.0139  0.6546 -0.1105
  736MOL0     H99344   5.713   6.718   7.988 -1.8022  2.0458  2.0623
  736MOL0     H99345   5.904   6.593   8.033  0.7384  1.0054 -0.2447
  736MOL0     H99346   7.941   6.627   8.074 -2.5963  0.1976 -1.0815
  736MOL0     H99347   8.149   6.706   7.991  0.7318  0.2030 -1.4048
  736MOL0     H99348   8.544   6.461   7.524  0.8805 -0.6617 -2.2251
  736MOL0     H99349   8.676   6.594   7.346  1.3109  1.8080  0.9888
  736MOL0     H99350   8.851   6.810   7.312  0.4893 -0.3433 -0.7943
  736MOL0     H99351   8.755   6.727   7.189 -0.5531  0.9517 -0.5455
  736MOL0     H99352   8.784   7.023   7.157 -0.8605  0.6152 -0.0360
  736MOL0     H99353   8.724   6.900   7.048  0.8897 -1.4828 -0.3620
  736MOL0     H99354   9.021   6.889   7.138  0.9319 -0.0800 -1.3400
  736MOL0     H99355   8.960   6.957   6.986  0.7977  1.5956  2.1680
  736MOL0     H99356   8.942   6.675   7.089 -0.8423  0.5714  0.9670
  736MOL0     H99357   9.055   6.732   6.971  0.5597  1.1959  2.3176
  736MOL0     H99358   8.754   6.644   6.710  1.7584  2.3965 -2.2616
  736MOL0     H99359   8.500   6.952   7.490 -1.3887  0.2341  0.2492
  736MOL0     H99360   8.367   6.839   7.648  1.7123  2.5487 -0.2487
  737MOL0     O99361   8.807   6.351  10.360 -0.3518 -0.0117  0.2492
  737MOL0     C99362   8.819   6.461  10.413 -0.5805 -0.3141 -0.9743
  737MOL0     O99363   8.932   6.525  10.449  0.1614 -0.7371 -0.4680
  737MOL0     C99364   9.049   6.484  10.393  0.6692  0.5094 -0.5970
  737MOL0     C99365   9.138   6.579  10.334  0.0706 -0.1764  0.2858
  737MOL0     C99366   9.268   6.551  10.304 -0.2421  0.9046 -0.4424
  737MOL0     C99367   9.334   6.429  10.342  0.6806 -0.0070  0.1267
  737MOL0     O99368   9.463   6.408  10.296 -0.0391  0.7638  0.6026
  737MOL0     C99369   9.541   6.310  10.371 -0.5128  0.2258 -0.4468
  737MOL0     C99370   9.675   6.296  10.301  1.2944  0.6783  0.2056
  737MOL0     C99371   9.777   6.199  10.378 -1.0500 -0.5584 -0.1247
  737MOL0     C99372   9.918   6.241  10.336  1.2195 -0.3182 -0.1360
  737MOL0     C99373  10.022   6.162  10.405  0.2363  0.3996 -0.2069
  737MOL0     C99374  10.164   6.205  10.389  0.0314  0.2676 -0.5655
  737MOL0     C99375  10.214   6.325  10.475 -0.2187  0.1318  0.6196
  737MOL0     C99376  10.344   6.364  10.426 -0.5012  0.2718 -0.4773
  737MOL0     N99377  10.448   6.264  10.420 -0.5620  0.2501  0.6343
  737MOL0     C99378  10.501   6.207  10.308 -0.1481  0.3220  0.5139
  737MOL0     C99379  10.598   6.122  10.353  0.2550 -0.4278  0.1807
  737MOL0     C99380  10.688   6.042  10.272  0.4023  0.0219 -0.8397
  737MOL0     C99381  10.633   5.899  10.249 -0.0915 -0.5174  0.1425
  737MOL0     C99382  10.629   5.800  10.364  1.0413  0.0885  0.2723
  737MOL0     C99383  10.505   5.799  10.457  0.0347  0.4914  0.5128
  737MOL0     O99384  10.389   5.808  10.374  0.2836  0.2786  0.0625
  737MOL0     C99385  10.266   5.786  10.427  0.2692 -0.1015 -0.6075
  737MOL0     C99386  10.160   5.793  10.343 -0.3305 -0.7490  0.1683
  737MOL0     C99387  10.022   5.771  10.381 -0.2251  0.0000 -0.8572
  737MOL0     C99388   9.915   5.792  10.280 -0.2891  0.1005 -0.4604
  737MOL0     C99389  10.005   5.752  10.523  0.4817  1.0190  0.0225
  737MOL0     C99390   9.864   5.746  10.588  0.1467  0.2214 -0.1162
  737MOL0     O99391   9.858   5.666  10.698  0.1002  0.8239 -0.4083
  737MOL0     C99392   9.737   5.645  10.767 -1.0225 -0.4108 -0.0104
  737MOL0     C99393   9.751   5.606  10.899  0.1127  0.4578 -0.1366
  737MOL0     C99394   9.642   5.594  10.978  0.7386  0.4160 -0.2777
  737MOL0     C99395   9.512   5.625  10.935 -0.2102 -0.1168 -0.1497
  737MOL0     O99396   9.412   5.629  11.034 -1.1703  0.5725  0.3081
  737MOL0     C99397   9.348   5.756  11.044  0.9351 -0.4051  0.0756
  737MOL0     C99398   9.206   5.737  11.023 -0.4671 -0.3818 -0.2146
  737MOL0     C99399   9.136   5.874  11.004 -0.0085 -0.2546 -0.4264
  737MOL0     C99400   8.999   5.860  10.943 -0.2629 -0.4845 -0.4225
  737MOL0     C99401   8.925   5.991  10.930  0.7198 -0.0771  0.0878
  737MOL0     C99402   8.776   5.965  10.883 -0.3118  0.0218 -0.0734
  737MOL0     C99403   8.689   5.878  10.979  0.1637  0.5702 -0.3514
  737MOL0     C99404   8.543   5.913  10.965 -0.1070  0.3807 -0.4082
  737MOL0    Cl99405   8.492   6.086  10.977 -0.0715  0.3099  0.1901
  737MOL0     C99406   9.496   5.672  10.805 -0.1093  0.9264 -0.2154
  737MOL0     C99407   9.610   5.675  10.716 -0.6309  1.1118 -0.4006
  737MOL0     O99408   9.775   5.820  10.551  0.7508  0.0614  0.4328
  737MOL0     C99409  10.116   5.740  10.606 -0.2031  1.0166 -0.3381
  737MOL0     C99410  10.245   5.761  10.563 -0.4315  0.3281 -0.3917
  737MOL0     N99411  10.597   6.137  10.490  0.1817 -0.0325 -0.6328
  737MOL0     N99412  10.522   6.230  10.528 -0.4643 -0.0062  0.0784
  737MOL0     C99413   9.250   6.343  10.412 -0.0386  0.3690  1.1643
  737MOL0     C99414   9.117   6.369  10.441 -0.3784 -0.2360 -0.4999
  737MOL0     C99415   8.688   6.521  10.444  0.3769 -0.2540  0.6235
  737MOL0     C99416   8.574   6.502  10.358  0.1603 -0.6036  0.8069
  737MOL0     C99417   8.452   6.574  10.387 -0.0216 -0.2336  0.2587
  737MOL0     C99418   8.442   6.656  10.503 -0.4960  0.3683 -0.1725
  737MOL0     O99419   8.324   6.718  10.527  0.0960  0.2815 -0.3089
  737MOL0     C99420   8.311   6.856  10.506  0.1611 -0.2104  0.6014
  737MOL0     C99421   8.217   6.874  10.385 -0.6848 -0.0025  0.5604
  737MOL0     C99422   8.072   6.905  10.427  0.0011 -0.1323  0.2477
  737MOL0     C99423   7.980   6.947  10.309  0.5664  0.7843  0.8749
  737MOL0     C99424   7.845   6.885  10.324  0.0386  0.1746  0.2499
  737MOL0     C99425   7.723   6.864  10.330  0.0472 -0.6720  0.3485
  737MOL0     C99426   8.554   6.675  10.584 -0.5123  0.6551  0.0196
  737MOL0     C99427   8.674   6.607  10.558  0.2841  0.1111  0.1338
  737MOL0     H99428   9.111   6.684  10.329  1.0991  0.0500 -1.0851
  737MOL0     H99429   9.327   6.627  10.253  0.0968  2.5276  2.1729
  737MOL0     H99430   9.544   6.340  10.477 -0.8159  1.7727 -0.8450
  737MOL0     H99431   9.488   6.215  10.370 -1.4821  0.7073  1.0285
  737MOL0     H99432   9.661   6.261  10.198 -1.1919  0.1017  0.6594
  737MOL0     H99433   9.720   6.396  10.302  0.1596  1.2107 -0.2755
  737MOL0     H99434   9.767   6.211  10.486  0.8293  0.9773 -0.0573
  737MOL0     H99435   9.750   6.096  10.353 -2.9104 -0.0420 -0.3200
  737MOL0     H99436   9.936   6.238  10.229 -0.6073  0.4778 -0.5020
  737MOL0     H99437   9.936   6.344  10.368  2.1428 -0.6072  0.3180
  737MOL0     H99438  10.002   6.157  10.512 -2.3968 -1.5020 -0.7081
  737MOL0     H99439  10.030   6.061  10.364  2.1236 -0.7780  2.7338
  737MOL0     H99440  10.225   6.118  10.416  0.5587  0.6630 -0.4646
  737MOL0     H99441  10.184   6.228  10.284  0.7901 -2.3954 -1.0669
  737MOL0     H99442  10.150   6.411  10.453 -3.0160 -2.0378 -0.3449
  737MOL0     H99443  10.206   6.297  10.580  0.8343 -2.1962  0.1387
  737MOL0     H99444  10.391   6.437  10.493 -2.0292 -0.3574  1.3519
  737MOL0     H99445  10.335   6.406  10.325 -1.0668 -1.8937 -1.3703
  737MOL0     H99446  10.479   6.231  10.205 -3.7043  1.2422  1.3755
  737MOL0     H99447  10.711   6.082  10.173  4.3871 -0.3064 -0.1895
  737MOL0     H99448  10.787   6.033  10.317  0.9568  2.7723 -1.3078
  737MOL0     H99449  10.717   5.860  10.191 -0.3949 -1.3454  0.2414
  737MOL0     H99450  10.540   5.902  10.192 -1.3755  2.9903  2.1017
  737MOL0     H99451  10.710   5.813  10.436  1.8031  0.1217 -0.5743
  737MOL0     H99452  10.625   5.701  10.319 -0.4128  0.7261 -1.1154
  737MOL0     H99453  10.511   5.885  10.524 -1.4180 -0.4609  1.9246
  737MOL0     H99454  10.502   5.708  10.519  1.2706  0.4122  0.4803
  737MOL0     H99455  10.187   5.826  10.244 -0.6460  3.1197  1.2093
  737MOL0     H99456   9.855   5.702  10.268 -3.1145  1.5011  1.9515
  737MOL0     H99457   9.843   5.872  10.302 -2.5678 -2.3334  1.5737
  737MOL0     H99458   9.964   5.823  10.187 -0.6413  1.6480 -0.1571
  737MOL0     H99459   9.851   5.579  10.933 -0.3330 -2.9969 -1.1655
  737MOL0     H99460   9.659   5.570  11.083 -2.8867 -0.2288  0.2836
  737MOL0     H99461   9.352   5.797  11.145 -1.3734  0.0353  0.0569
  737MOL0     H99462   9.381   5.828  10.969 -2.1941  1.5535  0.4118
  737MOL0     H99463   9.186   5.674  10.935 -1.7244  0.5813 -0.6545
  737MOL0     H99464   9.178   5.693  11.119  0.5354 -1.0217 -0.1972
  737MOL0     H99465   9.190   5.938  10.932 -0.8966  0.4178 -0.5134
  737MOL0     H99466   9.133   5.926  11.100 -1.0146  1.1242 -1.1631
  737MOL0     H99467   9.016   5.823  10.841  0.2790  2.5816 -1.5603
  737MOL0     H99468   8.933   5.788  10.991 -1.3750  2.3055  2.6237
  737MOL0     H99469   8.964   6.061  10.856 -1.8589 -0.9847 -2.2628
  737MOL0     H99470   8.911   6.040  11.027 -1.3904 -1.6851  0.6682
  737MOL0     H99471   8.732   6.065  10.878 -0.9333 -0.2686 -0.5599
  737MOL0     H99472   8.779   5.921  10.783  4.0732  0.0710 -0.1699
  737MOL0     H99473   8.706   5.897  11.086 -3.1394  0.9204  0.2068
  737MOL0     H99474   8.707   5.770  10.980 -0.8385  0.3592  1.9479
  737MOL0     H99475   8.486   5.860  11.043 -0.8332  0.1709 -1.0740
  737MOL0     H99476   8.500   5.869  10.875  1.0132 -1.2477 -0.1952
  737MOL0     H99477   9.402   5.688  10.753 -0.5845  1.6459  0.8342
  737MOL0     H99478   9.590   5.698  10.612  0.2723 -1.1226 -1.1242
  737MOL0     H99479  10.107   5.728  10.713  0.9214  0.0082 -0.3396
  737MOL0     H99480  10.315   5.758  10.645 -0.6849  0.4316 -0.1685
  737MOL0     H99481   9.282   6.242  10.437  0.3372  0.6178  1.7094
  737MOL0     H99482   9.058   6.300  10.501 -1.2363 -0.0406 -1.1110
  737MOL0     H99483   8.575   6.434  10.274  0.8548 -1.9471  1.8792
  737MOL0     H99484   8.365   6.555  10.325 -1.7039  0.3362  2.3185
  737MOL0     H99485   8.273   6.913  10.592  1.0746 -0.0756  0.9379
  737MOL0     H99486   8.404   6.902  10.469 -0.3464 -1.4107 -2.3861
  737MOL0     H99487   8.223   6.789  10.317  1.7608 -1.2492  2.1833
  737MOL0     H99488   8.257   6.961  10.331 -0.7095  0.1818  0.8416
  737MOL0     H99489   8.078   6.989  10.498  2.2113  0.1717 -0.2330
  737MOL0     H99490   8.031   6.815  10.473  0.9958  0.8197  3.2587
  737MOL0     H99491   8.020   6.899  10.220  1.4159 -0.2079  1.7685
  737MOL0     H99492   7.959   7.052  10.288 -1.3546  0.2893  0.1255
  737MOL0     H99493   7.618   6.842  10.323  0.1110 -0.6179 -1.1116
  737MOL0     H99494   8.544   6.739  10.671 -1.0606 -0.6245  0.9448
  737MOL0     H99495   8.760   6.624  10.622  1.7201 -3.0145 -0.7556
  738MOL0     O99496   2.480  10.785   1.523 -0.2907 -0.4777 -0.3222
  738MOL0     C99497   2.473  10.900   1.469 -0.8442  0.4565 -0.1048
  738MOL0     O99498   2.358  10.966   1.440 -0.0836 -0.1359 -0.5049
  738MOL0     C99499   2.235  10.917   1.467  0.0827  0.1141 -0.2602
  738MOL0     C99500   2.134  11.005   1.430 -0.1570  0.2873  0.8832
  738MOL0     C99501   2.000  10.980   1.459  0.4380  0.1046 -0.0048
  738MOL0     C99502   1.958  10.859   1.512  0.2885  0.4499 -0.2335
  738MOL0     O99503   1.828  10.829   1.533  0.2182  0.7883  0.1161
  738MOL0     C99504   1.730  10.848   1.433  0.3041 -0.2431  1.4007
  738MOL0     C99505   1.595  10.823   1.492  1.0410  0.8132 -0.1494
  738MOL0     C99506   1.487  10.815   1.386  0.0921 -0.1301  0.2705
  738MOL0     C99507   1.351  10.780   1.454  0.3222  0.3878  0.2564
  738MOL0     C99508   1.236  10.819   1.371  0.7304 -0.0725  0.4035
  738MOL0     C99509   1.103  10.804   1.457  0.5227  0.8293 -0.2809
  738MOL0     C99510   0.982  10.854   1.389  0.6988 -0.9955 -0.2705
  738MOL0     C99511   0.952  10.801   1.242  0.1950  0.4415 -0.8261
  738MOL0     N99512   0.824  10.847   1.187 -0.8197  0.6612  0.5848
  738MOL0     C99513   0.755  10.773   1.091  0.6978 -0.7076  1.2588
  738MOL0     C99514   0.646  10.860   1.068 -0.2905  0.3224 -0.5005
  738MOL0     C99515   0.549  10.836   0.964 -0.3390  0.3138 -0.1440
  738MOL0     C99516   0.421  10.764   1.023  0.0088  0.3817 -0.5336
  738MOL0     C99517   0.332  10.838   1.121 -0.4649  0.0418 -0.3691
  738MOL0     C99518   0.238  10.746   1.197  1.0087  0.4084 -0.1029
  738MOL0     O99519   0.137  10.691   1.116  0.0330  0.0077  0.6126
  738MOL0     C99520   0.012  10.701   1.169  0.1487  0.0397 -0.8055
  738MOL0     C99521  -0.065  10.602   1.238  0.3375  0.4893  0.2003
  738MOL0     C99522  -0.196  10.618   1.274 -0.7009  0.0598 -0.1567
  738MOL0     C99523  -0.257  10.502   1.358 -0.5915  0.0824  1.1051
  738MOL0     C99524  -0.259  10.738   1.236 -0.9931  0.8601 -0.3034
  738MOL0     C99525  -0.403  10.767   1.257  0.3141  0.0653 -0.7157
  738MOL0     O99526  -0.455  10.888   1.225  0.4790  0.8806  0.1391
  738MOL0     C99527  -0.593  10.916   1.242  0.3043  0.5972 -0.0935
  738MOL0     C99528  -0.691  10.874   1.154  0.0531  0.3480  0.4642
  738MOL0     C99529  -0.829  10.881   1.195  0.1216 -0.4271  0.3597
  738MOL0     C99530  -0.867  10.932   1.313  0.0737  0.5539  0.1296
  738MOL0     O99531  -1.002  10.941   1.346  0.0884  0.0394 -0.5951
  738MOL0     C99532  -1.067  11.057   1.295 -0.3937 -0.4590 -0.3304
  738MOL0     C99533  -1.225  11.049   1.301 -0.1156  0.3230  0.4288
  738MOL0     C99534  -1.272  10.924   1.230  0.7275 -0.2710  0.6300
  738MOL0     C99535  -1.423  10.912   1.226 -0.5210  0.6360 -0.4262
  738MOL0     C99536  -1.461  10.765   1.184 -0.2354  0.5697  0.2304
  738MOL0     C99537  -1.614  10.751   1.184  0.1874  0.1469 -0.2045
  738MOL0     C99538  -1.662  10.740   1.332  0.6956 -0.3877 -0.3261
  738MOL0     C99539  -1.818  10.735   1.335 -0.9167 -0.0560 -0.4249
  738MOL0    Cl99540  -1.871  10.905   1.291 -0.4233  0.4942 -0.2316
  738MOL0     C99541  -0.773  10.979   1.405 -0.5627 -1.1357  0.4663
  738MOL0     C99542  -0.640  10.974   1.362 -0.1235  0.0561  0.2259
  738MOL0     O99543  -0.475  10.677   1.307  0.2653  0.4650  0.5131
  738MOL0     C99544  -0.182  10.830   1.165  0.3808 -0.1640 -0.0906
  738MOL0     C99545  -0.047  10.812   1.124 -0.0189 -0.2254  0.1885
  738MOL0     N99546   0.660  10.969   1.151 -0.2377 -0.3172  0.1076
  738MOL0     N99547   0.775  10.966   1.218  0.1458 -0.6728 -0.4653
  738MOL0     C99548   2.060  10.770   1.541 -0.1343  0.1292  0.7107
  738MOL0     C99549   2.197  10.799   1.528  0.5722 -0.3660  0.8519
  738MOL0     C99550   2.593  10.969   1.442  0.0563  0.7660 -0.6295
  738MOL0     C99551   2.594  11.082   1.365  0.3989 -0.6989 -0.4449
  738MOL0     C99552   2.705  11.157   1.346  0.8482 -0.6764  0.2745
  738MOL0     C99553   2.834  11.112   1.391  0.9396  0.2048  0.4971
  738MOL0     O99554   2.936  11.194   1.367  0.6817  0.1240 -0.0364
  738MOL0     C99555   3.074  11.146   1.377 -0.2358  0.2933  0.3503
  738MOL0     C99556   3.113  11.151   1.524  0.0119 -0.1787 -0.1968
  738MOL0     C99557   3.265  11.121   1.543  0.1802  0.2508  0.7640
  738MOL0     C99558   3.300  11.128   1.698 -0.0499 -0.5210  0.4566
  738MOL0     C99559   3.221  11.020   1.767  0.6011  0.4384 -0.3371
  738MOL0     C99560   3.170  10.933   1.833  0.2961 -0.7921 -0.0689
  738MOL0     C99561   2.835  10.990   1.461 -0.8848  0.5225 -0.0321
  738MOL0     C99562   2.716  10.914   1.475  0.5265 -0.0446 -0.6171
  738MOL0     H99563   2.171  11.092   1.378  0.6319 -0.3194  0.4094
  738MOL0     H99564   1.924  11.055   1.438  0.7413 -0.2489 -2.7404
  738MOL0     H99565   1.728  10.946   1.385 -1.0652 -1.2811 -0.8144
  738MOL0     H99566   1.746  10.771   1.357 -3.7645  0.4809 -0.4472
  738MOL0     H99567   1.603  10.727   1.543  2.2039  0.6572 -0.5954
  738MOL0     H99568   1.574  10.890   1.575  1.5359 -1.6193  2.0745
  738MOL0     H99569   1.484  10.909   1.330 -0.2725 -0.9377 -1.1353
  738MOL0     H99570   1.523  10.732   1.324  0.5423  0.3373 -0.0975
  738MOL0     H99571   1.341  10.672   1.468 -0.1381  0.2173 -1.2025
  738MOL0     H99572   1.355  10.835   1.548  0.7430  0.4728  0.1923
  738MOL0     H99573   1.245  10.924   1.345 -0.0862 -0.0461  0.1757
  738MOL0     H99574   1.227  10.767   1.275  0.9601  1.4406 -0.4550
  738MOL0     H99575   1.088  10.696   1.468  0.1424  0.8909 -0.1832
  738MOL0     H99576   1.121  10.854   1.552  0.4698  0.4654 -0.0772
  738MOL0     H99577   0.893  10.840   1.451  0.6396 -0.4047 -0.2154
  738MOL0     H99578   0.984  10.963   1.378 -0.7007 -0.9299 -0.0433
  738MOL0     H99579   0.944  10.692   1.249 -0.2937  0.6068  2.4953
  738MOL0     H99580   1.031  10.825   1.170  0.0348  3.0791 -0.2113
  738MOL0     H99581   0.784  10.681   1.042  0.3846 -0.1515 -0.0193
  738MOL0     H99582   0.522  10.935   0.924 -1.1901  0.0728 -0.1996
  738MOL0     H99583   0.600  10.767   0.896  0.0507 -1.0077  1.4217
  738MOL0     H99584   0.464  10.676   1.073 -2.8123 -0.2299  1.0424
  738MOL0     H99585   0.357  10.718   0.947 -0.6543 -1.7430  1.2046
  738MOL0     H99586   0.271  10.914   1.072  0.2262 -0.1008 -1.4955
  738MOL0     H99587   0.396  10.895   1.190 -1.3597 -1.0406  1.4359
  738MOL0     H99588   0.192  10.796   1.283 -0.3895  2.2533 -1.8273
  738MOL0     H99589   0.304  10.670   1.240  1.4626  0.1132 -1.2976
  738MOL0     H99590  -0.015  10.514   1.278  0.4557  0.1185 -0.7400
  738MOL0     H99591  -0.297  10.549   1.449 -0.1038 -0.5167  1.6376
  738MOL0     H99592  -0.337  10.452   1.303  2.2421 -2.7924 -0.7063
  738MOL0     H99593  -0.183  10.425   1.381 -0.5617 -0.5739 -1.0320
  738MOL0     H99594  -0.669  10.836   1.055 -0.7022  4.3183 -1.3869
  738MOL0     H99595  -0.906  10.860   1.121  0.7146 -2.2076  0.1835
  738MOL0     H99596  -1.036  11.156   1.331 -1.6165 -0.4990  0.8981
  738MOL0     H99597  -1.039  11.060   1.189  0.6587  0.1621 -0.0546
  738MOL0     H99598  -1.265  11.056   1.402 -1.6229 -0.3917 -0.0826
  738MOL0     H99599  -1.268  11.135   1.250  2.4248  2.4455  1.6300
  738MOL0     H99600  -1.231  10.836   1.280  1.5126 -0.3170 -0.0689
  738MOL0     H99601  -1.218  10.930   1.135  4.9471  0.4122  2.8399
  738MOL0     H99602  -1.472  10.948   1.317 -2.0230 -0.0566 -0.9180
  738MOL0     H99603  -1.463  10.968   1.140 -2.2413 -0.9038 -0.6894
  738MOL0     H99604  -1.430  10.687   1.255  0.0806 -1.4952 -2.0467
  738MOL0     H99605  -1.405  10.738   1.094  0.5470  0.0952  0.8408
  738MOL0     H99606  -1.661  10.836   1.134 -1.3982  0.8696  2.3635
  738MOL0     H99607  -1.643  10.663   1.127 -0.1867  1.2606 -1.7989
  738MOL0     H99608  -1.628  10.827   1.389  2.5631 -0.2468 -1.5353
  738MOL0     H99609  -1.625  10.656   1.391  1.3582  2.2647  3.3984
  738MOL0     H99610  -1.833  10.720   1.443  1.7645  0.5120  0.1028
  738MOL0     H99611  -1.873  10.658   1.281  1.2621 -0.9189 -1.5314
  738MOL0     H99612  -0.799  11.015   1.505 -1.1628  0.0543 -0.0993
  738MOL0     H99613  -0.564  11.012   1.429  0.2010 -0.8147  0.3659
  738MOL0     H99614  -0.232  10.920   1.128 -0.8747 -0.3844  0.9888
  738MOL0     H99615   0.005  10.875   1.053  0.5703 -0.9678 -0.0478
  738MOL0     H99616   2.036  10.681   1.597 -0.2812  2.1007  3.9934
  738MOL0     H99617   2.263  10.723   1.567 -0.0162  0.5032  3.8636
  738MOL0     H99618   2.500  11.115   1.321 -1.4491  0.9377  4.0876
  738MOL0     H99619   2.699  11.250   1.291  2.0587 -0.8127 -0.1351
  738MOL0     H99620   3.093  11.044   1.340  1.2443  0.5058  0.4763
  738MOL0     H99621   3.142  11.213   1.324  1.9922 -1.2240  1.1704
  738MOL0     H99622   3.046  11.083   1.577  0.2386 -0.5563 -0.3900
  738MOL0     H99623   3.083  11.246   1.570  2.1013  0.2540  0.3729
  738MOL0     H99624   3.323  11.199   1.494 -0.9867  1.0142  0.5635
  738MOL0     H99625   3.278  11.021   1.500 -2.2421 -0.2183  0.9711
  738MOL0     H99626   3.268  11.218   1.753 -4.4951 -0.5448 -1.5953
  738MOL0     H99627   3.405  11.109   1.721  0.3742 -0.2413 -1.1293
  738MOL0     H99628   3.144  10.848   1.892 -2.8572  0.5171  0.6320
  738MOL0     H99629   2.923  10.938   1.498 -1.3175 -1.6673 -1.8753
  738MOL0     H99630   2.712  10.819   1.527 -1.7484  0.7295  0.7745
  739MOL0     O99631   9.052   6.785   8.417 -0.5202 -0.1351  0.7035
  739MOL0     C99632   9.091   6.847   8.521 -0.0061  0.0792 -0.7179
  739MOL0     O99633   9.182   6.949   8.530  0.3382  0.4496 -0.0466
  739MOL0     C99634   9.237   6.997   8.414  0.5365  0.3392  0.9445
  739MOL0     C99635   9.246   6.943   8.282  0.1012  0.3845 -0.3623
  739MOL0     C99636   9.315   7.003   8.181 -0.3265  0.4533  0.6633
  739MOL0     C99637   9.370   7.124   8.202  0.1516 -0.4300  0.1780
  739MOL0     O99638   9.438   7.167   8.091  0.1925 -0.2104 -0.0069
  739MOL0     C99639   9.535   7.267   8.109 -0.2928  0.2156  0.2718
  739MOL0     C99640   9.617   7.277   7.980 -0.3864 -0.2548  0.4611
  739MOL0     C99641   9.555   7.366   7.874 -0.4905  0.1687 -0.3471
  739MOL0     C99642   9.662   7.389   7.763  0.2247  0.9857  0.1882
  739MOL0     C99643   9.589   7.391   7.632 -0.6243  0.4306  1.0654
  739MOL0     C99644   9.476   7.500   7.628 -0.5215  0.0393 -0.7009
  739MOL0     C99645   9.367   7.475   7.524 -0.6865  0.0092  0.1994
  739MOL0     C99646   9.433   7.464   7.391 -1.1850 -1.3680  0.7736
  739MOL0     N99647   9.330   7.471   7.289  0.0793  0.1137 -0.6539
  739MOL0     C99648   9.243   7.367   7.268 -0.7666 -0.0083 -0.8661
  739MOL0     C99649   9.159   7.415   7.174 -0.3655 -0.2379  0.4189
  739MOL0     C99650   9.044   7.338   7.108 -0.1937  0.3758  0.0902
  739MOL0     C99651   8.939   7.433   7.037 -0.0137  0.3067 -0.4366
  739MOL0     C99652   8.840   7.336   6.960 -0.2599  0.0212 -0.4512
  739MOL0     C99653   8.705   7.408   6.928 -0.2957  0.1099  0.4743
  739MOL0     O99654   8.645   7.346   6.815  0.5188  0.2645  0.2715
  739MOL0     C99655   8.582   7.229   6.846 -0.1768  0.5957 -0.2479
  739MOL0     C99656   8.595   7.128   6.745 -0.0395  0.3709  0.3128
  739MOL0     C99657   8.537   7.000   6.751  0.8845  0.5262 -0.6026
  739MOL0     C99658   8.580   6.903   6.638 -0.1381 -0.2570 -0.2869
  739MOL0     C99659   8.438   6.975   6.854  0.2902 -0.3178 -0.0373
  739MOL0     C99660   8.356   6.856   6.869 -0.3170  0.3321  0.7508
  739MOL0     O99661   8.404   6.736   6.817  0.2312  0.1583  0.1206
  739MOL0     C99662   8.344   6.614   6.839  0.0280 -0.7798 -1.2203
  739MOL0     C99663   8.351   6.514   6.745  1.1580  0.1329 -0.1828
  739MOL0     C99664   8.285   6.394   6.769  0.3067  0.2054  0.2127
  739MOL0     C99665   8.237   6.356   6.889  0.3017 -0.1090 -0.3083
  739MOL0     O99666   8.177   6.227   6.909 -0.4818 -0.0263 -0.2379
  739MOL0     C99667   8.147   6.170   7.035 -0.4080 -0.5687  0.4076
  739MOL0     C99668   8.084   6.035   7.022  0.3418  0.2426  0.3409
  739MOL0     C99669   8.068   5.966   7.155 -0.3922 -0.5513  0.1014
  739MOL0     C99670   7.951   6.029   7.237 -0.0377  0.2076 -0.3596
  739MOL0     C99671   7.921   5.948   7.364 -0.4154 -0.1877  0.4621
  739MOL0     C99672   7.775   5.910   7.361 -0.1515  0.0602 -0.3496
  739MOL0     C99673   7.730   5.811   7.473  0.5136  0.6353  0.3610
  739MOL0     C99674   7.679   5.672   7.424  0.7247 -0.2627 -0.1167
  739MOL0    Cl99675   7.526   5.701   7.353  0.1197 -0.0703  0.2764
  739MOL0     C99676   8.221   6.452   6.985 -0.4073 -0.7253 -0.5612
  739MOL0     C99677   8.271   6.582   6.957 -0.7965 -0.2789 -1.2510
  739MOL0     O99678   8.248   6.867   6.913 -0.4536 -0.7547 -0.0779
  739MOL0     C99679   8.426   7.076   6.956 -0.3447 -0.0198 -0.7192
  739MOL0     C99680   8.493   7.198   6.944 -0.3554  0.0602  0.2923
  739MOL0     N99681   9.213   7.535   7.137  0.5032 -0.4325 -0.2155
  739MOL0     N99682   9.310   7.572   7.202 -0.0567  1.1185  0.4258
  739MOL0     C99683   9.355   7.192   8.316  0.5052  0.0790 -0.3004
  739MOL0     C99684   9.282   7.131   8.423 -0.9254  0.0347  0.3753
  739MOL0     C99685   9.035   6.793   8.651  0.2916  0.0830  0.4702
  739MOL0     C99686   8.934   6.698   8.651  1.0161 -0.2432 -0.7803
  739MOL0     C99687   8.893   6.647   8.774 -0.3375  0.0103 -0.3346
  739MOL0     C99688   8.954   6.671   8.896  0.1907  0.8800 -0.1854
  739MOL0     O99689   8.905   6.603   9.005  0.1100  0.0748  0.0274
  739MOL0     C99690   8.958   6.630   9.138 -0.7008  0.6474  0.8703
  739MOL0     C99691   8.859   6.701   9.230  0.0816  0.6468 -0.9253
  739MOL0     C99692   8.899   6.691   9.378  0.7792  0.8382 -0.1745
  739MOL0     C99693   8.835   6.797   9.470 -0.8482 -0.3406  0.2630
  739MOL0     C99694   8.885   6.934   9.440  0.1484  0.7466  0.1388
  739MOL0     C99695   8.915   7.051   9.461  0.5699 -0.4587  0.1849
  739MOL0     C99696   9.061   6.758   8.889 -0.2405  0.3052  0.2152
  739MOL0     C99697   9.096   6.822   8.769  0.4987  0.1355  0.0779
  739MOL0     H99698   9.209   6.842   8.267 -0.9216 -0.0333  3.6650
  739MOL0     H99699   9.339   6.954   8.088 -2.8793  0.7959 -0.2713
  739MOL0     H99700   9.498   7.366   8.136 -2.0966 -0.1471 -0.7756
  739MOL0     H99701   9.600   7.221   8.184  0.4998 -2.5342 -1.9384
  739MOL0     H99702   9.717   7.315   8.002 -0.4674  0.1297  0.1819
  739MOL0     H99703   9.630   7.173   7.952 -0.7060 -0.1772  0.0101
  739MOL0     H99704   9.463   7.320   7.837 -0.0476 -1.7411  0.7576
  739MOL0     H99705   9.530   7.461   7.923 -0.8687 -0.1856  0.1557
  739MOL0     H99706   9.706   7.486   7.790  0.1685  0.6911  1.4090
  739MOL0     H99707   9.746   7.320   7.769  0.6368  1.2927 -1.6092
  739MOL0     H99708   9.665   7.409   7.555  1.4472  1.2482  3.1919
  739MOL0     H99709   9.554   7.288   7.622 -0.7047  0.5800 -0.4324
  739MOL0     H99710   9.421   7.516   7.721  0.5581 -1.3666  0.2205
  739MOL0     H99711   9.518   7.600   7.610 -0.0826  0.3719  1.8059
  739MOL0     H99712   9.302   7.389   7.543 -2.2698  1.0053 -0.4500
  739MOL0     H99713   9.293   7.556   7.526 -0.6139  0.1344 -1.0999
  739MOL0     H99714   9.502   7.379   7.390 -0.5792 -0.8935  1.5139
  739MOL0     H99715   9.498   7.551   7.384 -0.0715 -2.2676 -0.6911
  739MOL0     H99716   9.251   7.273   7.322 -1.0591 -0.2972 -1.3182
  739MOL0     H99717   9.080   7.270   7.030  0.7707 -0.3331  1.1223
  739MOL0     H99718   8.999   7.276   7.186  2.9723  0.7602  2.4187
  739MOL0     H99719   8.979   7.512   6.973 -1.1722  1.8974  0.7331
  739MOL0     H99720   8.889   7.476   7.124 -0.6612  1.5420 -1.3803
  739MOL0     H99721   8.814   7.247   7.017 -0.4222 -0.9567 -1.9973
  739MOL0     H99722   8.884   7.296   6.869  0.7322  1.4496 -0.6192
  739MOL0     H99723   8.714   7.515   6.909 -1.9121  0.1285 -0.3536
  739MOL0     H99724   8.638   7.401   7.015 -0.7744  0.5199  0.1422
  739MOL0     H99725   8.662   7.158   6.664 -0.9180  0.0532 -0.5506
  739MOL0     H99726   8.661   6.841   6.676 -0.3992  1.7387  4.1623
  739MOL0     H99727   8.507   6.829   6.605 -0.4710 -0.8903  1.7185
  739MOL0     H99728   8.620   6.968   6.559  2.1036 -0.1008  0.9163
  739MOL0     H99729   8.407   6.528   6.652  0.1774 -0.6314 -0.9118
  739MOL0     H99730   8.297   6.329   6.683 -0.7895  0.8775 -0.4803
  739MOL0     H99731   8.244   6.174   7.087  0.8061 -0.1602 -1.7766
  739MOL0     H99732   8.077   6.241   7.080 -1.1487 -0.4521 -0.8845
  739MOL0     H99733   7.990   6.053   6.969 -0.0715  3.0801  1.8366
  739MOL0     H99734   8.156   5.977   6.964 -0.5036  0.6078 -1.1153
  739MOL0     H99735   8.165   5.977   7.204 -1.3164  1.1285  1.6290
  739MOL0     H99736   8.052   5.861   7.127  0.1319  0.2496 -3.9026
  739MOL0     H99737   7.982   6.128   7.272 -0.0499  0.5938 -1.3867
  739MOL0     H99738   7.856   6.034   7.183 -1.0300 -1.8077  1.0884
  739MOL0     H99739   7.935   6.013   7.451  0.0391  0.0409  0.2254
  739MOL0     H99740   7.993   5.868   7.383  2.1082  1.7852 -0.1052
  739MOL0     H99741   7.711   5.998   7.372 -0.6132 -0.4462  1.5708
  739MOL0     H99742   7.743   5.877   7.262 -1.1224  2.8043 -1.0366
  739MOL0     H99743   7.640   5.850   7.521 -0.6581  0.0043 -1.2465
  739MOL0     H99744   7.799   5.812   7.558 -1.6825  2.4419  2.2553
  739MOL0     H99745   7.664   5.599   7.503  3.6921 -1.4296 -0.4997
  739MOL0     H99746   7.753   5.642   7.349  1.1576  0.4599  0.0082
  739MOL0     H99747   8.179   6.430   7.083 -0.7130  1.4720 -0.1483
  739MOL0     H99748   8.255   6.659   7.032  0.7501 -0.9177 -0.2221
  739MOL0     H99749   8.363   7.072   7.044  3.1052  2.4817  2.1708
  739MOL0     H99750   8.490   7.278   7.017  1.2723  0.2094  0.2359
  739MOL0     H99751   9.401   7.288   8.336 -0.5630  0.3980  0.7246
  739MOL0     H99752   9.266   7.172   8.522 -2.5342 -0.6940  0.4660
  739MOL0     H99753   8.894   6.658   8.559  1.3376  0.4780 -1.2417
  739MOL0     H99754   8.815   6.572   8.774  0.0847 -0.4332 -0.4613
  739MOL0     H99755   8.965   6.531   9.183  1.1950  1.6165  2.8573
  739MOL0     H99756   9.059   6.673   9.139  0.1003 -1.1236 -0.0362
  739MOL0     H99757   8.762   6.652   9.219 -1.1894  3.1219 -1.4192
  739MOL0     H99758   8.846   6.804   9.194 -0.3025  1.0483  0.3159
  739MOL0     H99759   9.008   6.698   9.383  0.7870  0.5142  0.0766
  739MOL0     H99760   8.866   6.598   9.425 -0.2464  1.6206  0.7001
  739MOL0     H99761   8.857   6.769   9.573 -0.8498 -3.0689 -0.3973
  739MOL0     H99762   8.726   6.795   9.454 -0.6347  0.9327 -1.8434
  739MOL0     H99763   8.932   7.156   9.476  3.3137 -0.8251  0.1217
  739MOL0     H99764   9.112   6.780   8.982  1.2634  0.6208 -0.6370
  739MOL0     H99765   9.183   6.887   8.769  0.0162  0.7852 -0.6098
  740MOL0     O99766   3.330   5.358   1.942 -0.2224  0.1736 -0.1351
  740MOL0     C99767   3.353   5.427   1.843 -0.2341  0.3673 -0.0767
  740MOL0     O99768   3.267   5.448   1.742 -0.5021 -0.4254  0.3453
  740MOL0     C99769   3.152   5.372   1.719  0.5089  0.0860  0.5701
  740MOL0     C99770   3.086   5.283   1.810  0.0461 -0.5449 -0.2979
  740MOL0     C99771   2.976   5.202   1.766  0.3238 -0.3086 -0.0313
  740MOL0     C99772   2.932   5.197   1.629 -0.0734 -0.0107 -1.4401
  740MOL0     O99773   2.841   5.099   1.590 -0.3047  0.6997 -0.5483
  740MOL0     C99774   2.859   5.068   1.451  0.1157  0.7078 -0.0883
  740MOL0     C99775   2.800   4.924   1.440 -0.0853  0.8960 -0.4060
  740MOL0     C99776   2.829   4.856   1.313  0.3799  0.2255 -0.3090
  740MOL0     C99777   2.786   4.710   1.315  0.2341 -0.1471 -0.3557
  740MOL0     C99778   2.831   4.643   1.188 -0.0656  0.1661  0.6988
  740MOL0     C99779   2.756   4.515   1.163  0.1655  0.5411 -0.0462
  740MOL0     C99780   2.605   4.537   1.114  0.0576  0.6015  0.0273
  740MOL0     C99781   2.576   4.665   1.026  0.3533  0.2610 -0.6269
  740MOL0     N99782   2.428   4.683   1.015 -0.3755  0.1029 -0.6965
  740MOL0     C99783   2.329   4.589   1.002 -1.0017 -0.0132  0.1956
  740MOL0     C99784   2.215   4.661   0.986 -1.7721  0.4973 -0.9002
  740MOL0     C99785   2.078   4.594   0.964 -0.0557 -0.0802  0.2802
  740MOL0     C99786   1.991   4.612   1.081  0.4580  0.4468  0.2602
  740MOL0     C99787   1.836   4.597   1.052 -0.0729  0.0028 -0.4476
  740MOL0     C99788   1.808   4.445   1.050  0.3628 -0.2158  0.5695
  740MOL0     O99789   1.785   4.402   0.913  0.1724  0.1636  0.1977
  740MOL0     C99790   1.654   4.413   0.865  0.5076 -0.1276 -0.2397
  740MOL0     C99791   1.535   4.463   0.929 -0.7825  0.4996  0.8401
  740MOL0     C99792   1.416   4.467   0.856  0.2995 -0.1909  0.5178
  740MOL0     C99793   1.297   4.513   0.936  0.3866  0.0551  0.0624
  740MOL0     C99794   1.412   4.435   0.716 -0.4311  0.2060  0.0511
  740MOL0     C99795   1.290   4.423   0.641  0.5973 -0.3040  0.2221
  740MOL0     O99796   1.189   4.343   0.698  0.2553 -0.5125 -0.2713
  740MOL0     C99797   1.065   4.346   0.641  0.5996  0.6501  1.2967
  740MOL0     C99798   0.952   4.380   0.721  0.3497  1.2470 -0.4976
  740MOL0     C99799   0.823   4.362   0.673 -0.1422 -0.5725  0.8945
  740MOL0     C99800   0.797   4.303   0.550  0.0261 -0.4763  0.1746
  740MOL0     O99801   0.652   4.272   0.534  0.5606  0.7813  0.3067
  740MOL0     C99802   0.621   4.187   0.429 -0.1366 -0.0819  0.5506
  740MOL0     C99803   0.465   4.143   0.436 -0.8801  0.1848  0.4045
  740MOL0     C99804   0.376   4.258   0.405  0.8516 -0.3337  0.4183
  740MOL0     C99805   0.233   4.213   0.433 -0.3868  0.5000 -0.6487
  740MOL0     C99806   0.131   4.305   0.375  0.3521  0.0068  0.0393
  740MOL0     C99807  -0.013   4.275   0.408  0.3913 -1.0565  0.0435
  740MOL0     C99808  -0.053   4.134   0.353 -0.2508 -0.3649 -0.5969
  740MOL0     C99809  -0.206   4.115   0.359  0.1706  0.1540 -0.0557
  740MOL0    Cl99810  -0.253   3.953   0.333  0.2978 -0.5240  0.6551
  740MOL0     C99811   0.903   4.279   0.463  0.5769 -0.5885  0.8371
  740MOL0     C99812   1.033   4.287   0.515  0.0174  0.4695  0.4155
  740MOL0     O99813   1.285   4.481   0.532 -0.6398  0.6562 -0.7086
  740MOL0     C99814   1.530   4.386   0.661  0.2216  0.1662  0.7661
  740MOL0     C99815   1.651   4.385   0.723 -0.1606  0.1104  0.3646
  740MOL0     N99816   2.250   4.791   1.010  0.2034  0.2587  0.5471
  740MOL0     N99817   2.375   4.804   1.011  0.3143 -0.2921 -0.1980
  740MOL0     C99818   2.994   5.289   1.553 -0.7209  0.7748 -1.4091
  740MOL0     C99819   3.095   5.379   1.594 -0.7580 -0.0921  0.7861
  740MOL0     C99820   3.489   5.490   1.835 -0.0027 -0.7289  0.1136
  740MOL0     C99821   3.529   5.569   1.722  0.1661  0.5533  1.2400
  740MOL0     C99822   3.653   5.635   1.713  0.3780  0.5444  0.5923
  740MOL0     C99823   3.733   5.638   1.831  0.1276 -0.3200  0.0883
  740MOL0     O99824   3.858   5.703   1.845 -0.3104  0.0007 -0.4916
  740MOL0     C99825   3.916   5.761   1.719  0.5240  0.0929 -1.0519
  740MOL0     C99826   4.051   5.831   1.751  0.2756 -0.5393  0.0027
  740MOL0     C99827   4.142   5.748   1.842 -0.0302 -0.1115 -0.8535
  740MOL0     C99828   4.281   5.815   1.875  0.9041 -0.1538 -0.2855
  740MOL0     C99829   4.354   5.868   1.766  0.5575 -0.4441  0.4365
  740MOL0     C99830   4.421   5.913   1.679  0.2211  0.0348  1.0136
  740MOL0     C99831   3.689   5.573   1.945 -0.2893 -0.1163  0.6300
  740MOL0     C99832   3.568   5.499   1.946 -0.2233 -0.2357 -0.7923
  740MOL0     H99833   3.119   5.276   1.913 -0.9903 -3.3928 -0.0732
  740MOL0     H99834   2.933   5.130   1.836 -1.6904 -0.8712 -1.7327
  740MOL0     H99835   2.809   5.143   1.389  3.8323  1.3389 -2.6984
  740MOL0     H99836   2.961   5.051   1.416  0.4049 -2.4727  1.8573
  740MOL0     H99837   2.823   4.852   1.519  2.1237 -0.0639 -1.8231
  740MOL0     H99838   2.693   4.934   1.463 -0.3547 -0.8527 -0.7765
  740MOL0     H99839   2.784   4.910   1.229 -0.0742 -0.6988 -0.6737
  740MOL0     H99840   2.932   4.844   1.278  0.4901 -0.7830  0.3122
  740MOL0     H99841   2.827   4.647   1.395 -1.8847 -3.7343 -1.8947
  740MOL0     H99842   2.677   4.705   1.324  0.3370 -0.2672  1.2237
  740MOL0     H99843   2.832   4.707   1.099  1.6956 -3.1407 -1.9121
  740MOL0     H99844   2.936   4.620   1.209  1.0473  1.5125 -2.6042
  740MOL0     H99845   2.818   4.460   1.091  0.5548 -1.2124  1.5594
  740MOL0     H99846   2.758   4.445   1.247  1.0218 -0.3524 -0.7758
  740MOL0     H99847   2.568   4.450   1.058 -1.5826  0.7800  0.7841
  740MOL0     H99848   2.539   4.533   1.202  1.6406 -1.4052  1.2063
  740MOL0     H99849   2.619   4.633   0.931 -0.9354 -0.7631 -0.8882
  740MOL0     H99850   2.621   4.756   1.066  0.3401  0.4274 -0.9853
  740MOL0     H99851   2.350   4.483   0.999  4.2081  0.7812 -1.6856
  740MOL0     H99852   2.036   4.619   0.866  1.5709  1.2270 -0.1395
  740MOL0     H99853   2.094   4.487   0.948 -1.8304 -0.0382 -2.5114
  740MOL0     H99854   2.006   4.710   1.126 -2.5017 -0.1107  2.8657
  740MOL0     H99855   2.032   4.546   1.158  3.6748  4.0734  1.9971
  740MOL0     H99856   1.810   4.646   0.958  0.0738  1.9607  0.4946
  740MOL0     H99857   1.786   4.652   1.132  3.4106  3.1230 -0.1549
  740MOL0     H99858   1.717   4.423   1.107 -0.0310 -1.7300 -0.5851
  740MOL0     H99859   1.885   4.390   1.106  2.7569  1.6526 -0.6823
  740MOL0     H99860   1.537   4.492   1.033  2.8704  0.6698  0.8275
  740MOL0     H99861   1.247   4.424   0.975 -2.3717  1.2863 -0.4217
  740MOL0     H99862   1.329   4.572   1.023  1.7041 -0.3398 -0.1374
  740MOL0     H99863   1.229   4.575   0.876 -0.8598 -1.1517  0.1772
  740MOL0     H99864   0.963   4.418   0.822 -1.1872 -0.0062  0.1804
  740MOL0     H99865   0.741   4.407   0.727 -1.4124 -1.5173 -0.1737
  740MOL0     H99866   0.638   4.247   0.339  2.9335  0.7341  1.5637
  740MOL0     H99867   0.680   4.096   0.416  0.6893  0.6202 -0.8251
  740MOL0     H99868   0.457   4.057   0.369 -2.2768  0.7314 -0.1605
  740MOL0     H99869   0.444   4.101   0.535 -1.0456  1.2564  0.8316
  740MOL0     H99870   0.385   4.288   0.300  1.7840 -2.4461 -0.1462
  740MOL0     H99871   0.403   4.346   0.465 -1.1417  1.3826 -1.0292
  740MOL0     H99872   0.217   4.113   0.392 -0.4830  0.1721  0.1579
  740MOL0     H99873   0.216   4.205   0.541 -2.9564 -0.4292 -1.0489
  740MOL0     H99874   0.138   4.295   0.267 -3.2739  0.7221 -0.3875
  740MOL0     H99875   0.149   4.409   0.405 -3.4254  0.0557  2.8781
  740MOL0     H99876  -0.039   4.287   0.513 -1.1024  2.5710 -0.5840
  740MOL0     H99877  -0.072   4.348   0.352 -2.7464 -3.1686  0.3440
  740MOL0     H99878  -0.019   4.060   0.426 -2.0865 -1.1250 -0.4498
  740MOL0     H99879  -0.020   4.117   0.250 -1.0530 -1.4791 -0.6851
  740MOL0     H99880  -0.253   4.179   0.284 -0.6008 -0.7909 -0.4057
  740MOL0     H99881  -0.251   4.154   0.451 -4.2911 -0.2782 -1.7737
  740MOL0     H99882   0.871   4.233   0.371 -1.6788 -0.4212  1.4920
  740MOL0     H99883   1.111   4.243   0.453 -1.3141 -1.2451 -0.1592
  740MOL0     H99884   1.529   4.351   0.558  1.8996 -0.2933  0.8697
  740MOL0     H99885   1.735   4.341   0.670 -1.0832 -0.6853 -0.5200
  740MOL0     H99886   2.971   5.290   1.447  0.8747 -1.1675 -1.8249
  740MOL0     H99887   3.140   5.444   1.519 -0.3923 -0.2326  0.8845
  740MOL0     H99888   3.460   5.562   1.638 -1.0136  3.7113  1.8314
  740MOL0     H99889   3.664   5.677   1.613 -2.1286  1.4287  0.5950
  740MOL0     H99890   3.930   5.683   1.644 -0.1579  0.0799 -1.1680
  740MOL0     H99891   3.847   5.826   1.664  0.0501 -1.2633 -2.0887
  740MOL0     H99892   4.026   5.928   1.796 -0.1215 -0.2015 -0.9267
  740MOL0     H99893   4.097   5.845   1.653 -0.4314 -4.1621 -0.9891
  740MOL0     H99894   4.161   5.645   1.813  2.3884 -0.4147  1.4211
  740MOL0     H99895   4.099   5.734   1.942 -0.1159  0.4210 -0.8069
  740MOL0     H99896   4.344   5.740   1.925  0.1656  0.3796  1.5246
  740MOL0     H99897   4.261   5.887   1.955 -3.2327  1.6732 -2.6420
  740MOL0     H99898   4.476   5.940   1.591 -0.7260  0.8001  0.6402
  740MOL0     H99899   3.754   5.589   2.030 -1.5387  0.9338  1.4271
  740MOL0     H99900   3.545   5.451   2.041  0.3974 -1.6539 -1.3431
  741MOL0     O99901   8.155   0.051   4.443 -0.8051  0.4604  0.4528
  741MOL0     C99902   8.129  -0.069   4.415  0.6294 -0.3322 -1.1276
  741MOL0     O99903   8.006  -0.118   4.394 -0.0700 -0.1149  1.2671
  741MOL0     C99904   7.896  -0.050   4.428 -0.4166 -0.8383 -0.1193
  741MOL0     C99905   7.789  -0.074   4.344  0.4371  0.4850  0.0927
  741MOL0     C99906   7.664  -0.004   4.358  1.0343 -0.8371 -0.0638
  741MOL0     C99907   7.645   0.090   4.459  0.3957 -0.5250  0.0244
  741MOL0     O99908   7.533   0.166   4.478  0.0004  0.3758 -1.2484
  741MOL0     C99909   7.420   0.156   4.400  0.7543 -0.3997  0.8278
  741MOL0     C99910   7.306   0.250   4.444  0.5604 -0.6764 -0.0582
  741MOL0     C99911   7.234   0.204   4.568  0.2137  0.2475 -0.5502
  741MOL0     C99912   7.129   0.291   4.630  0.1256 -0.7051 -0.8558
  741MOL0     C99913   7.039   0.207   4.722 -0.2383  0.9309 -0.2464
  741MOL0     C99914   6.918   0.278   4.785  0.8571 -0.0717  0.0361
  741MOL0     C99915   6.791   0.179   4.803  0.2204  0.1828  0.1852
  741MOL0     C99916   6.700   0.159   4.686 -0.1101 -0.8798 -0.1409
  741MOL0     N99917   6.588   0.255   4.693  0.0306  0.7986  0.8288
  741MOL0     C99918   6.465   0.225   4.649 -0.7655 -0.0508 -0.2438
  741MOL0     C99919   6.402   0.350   4.650 -0.2004  0.0919  0.3446
  741MOL0     C99920   6.261   0.376   4.610 -0.5075 -0.1229 -0.2280
  741MOL0     C99921   6.252   0.442   4.467  0.4435  0.0758  0.4484
  741MOL0     C99922   6.160   0.560   4.470 -0.1230  0.4916 -0.3918
  741MOL0     C99923   6.168   0.625   4.334  0.3800 -1.1279  0.7655
  741MOL0     O99924   6.108   0.538   4.233  0.2404  0.0855  0.5529
  741MOL0     C99925   5.969   0.546   4.222 -0.7656 -0.2313  1.0757
  741MOL0     C99926   5.883   0.624   4.301 -0.1371 -0.8332  0.1619
  741MOL0     C99927   5.742   0.635   4.271  0.3136  0.7735  0.3235
  741MOL0     C99928   5.651   0.715   4.349  0.2127  0.3450  0.1685
  741MOL0     C99929   5.692   0.553   4.159 -0.8553 -0.4004  0.1474
  741MOL0     C99930   5.547   0.538   4.127 -0.4474 -0.5105 -0.1353
  741MOL0     O99931   5.520   0.485   4.004  0.2347 -0.3545 -0.7376
  741MOL0     C99932   5.388   0.494   3.956  0.0258 -0.0698 -0.2251
  741MOL0     C99933   5.319   0.616   3.954  0.1826  0.3157 -1.7280
  741MOL0     C99934   5.186   0.611   3.905 -1.1862  1.0070  0.5221
  741MOL0     C99935   5.137   0.492   3.834  0.7308 -0.1362  0.5282
  741MOL0     O99936   5.018   0.480   3.763  0.1120  0.4792 -0.1784
  741MOL0     C99937   4.928   0.589   3.750 -0.0641 -0.7231  0.2519
  741MOL0     C99938   4.825   0.559   3.640  0.2363 -0.1855  1.5091
  741MOL0     C99939   4.743   0.425   3.656  0.1886  0.5425  0.1898
  741MOL0     C99940   4.626   0.448   3.751  0.8530 -0.1207 -0.3252
  741MOL0     C99941   4.545   0.327   3.787 -0.9685 -0.2462 -0.1370
  741MOL0     C99942   4.428   0.364   3.878 -0.5342 -0.6672  0.3666
  741MOL0     C99943   4.353   0.233   3.928  0.3536 -0.0471 -0.3567
  741MOL0     C99944   4.202   0.259   3.969  0.3955  0.3353 -0.0918
  741MOL0    Cl99945   4.153   0.094   4.039 -0.1682  1.0598 -0.2506
  741MOL0     C99946   5.223   0.382   3.818  0.6725 -0.1392 -0.0934
  741MOL0     C99947   5.347   0.380   3.885 -0.0098  0.3432  0.3253
  741MOL0     O99948   5.457   0.577   4.197 -0.3292 -0.8333  0.1242
  741MOL0     C99949   5.780   0.475   4.085  0.2797  0.4940 -0.2776
  741MOL0     C99950   5.917   0.467   4.116  0.2741  0.0580  0.3237
  741MOL0     N99951   6.493   0.452   4.667  0.0427 -0.3056  0.1026
  741MOL0     N99952   6.605   0.394   4.692  0.5243 -0.0083  0.1123
  741MOL0     C99953   7.750   0.119   4.544 -0.9229  0.2583 -0.1261
  741MOL0     C99954   7.874   0.048   4.527 -0.5797  0.2409 -1.5994
  741MOL0     C99955   8.231  -0.172   4.394 -0.2562 -0.2238  0.6223
  741MOL0     C99956   8.349  -0.153   4.449 -1.2201  0.2047  0.0334
  741MOL0     C99957   8.456  -0.256   4.437 -1.0497 -0.4695  0.0656
  741MOL0     C99958   8.426  -0.372   4.375 -0.2647  0.4368 -0.2200
  741MOL0     O99959   8.522  -0.470   4.377  0.9442  0.4741 -0.0326
  741MOL0     C99960   8.502  -0.598   4.310  0.3787  0.3484 -0.4245
  741MOL0     C99961   8.628  -0.676   4.325  0.1631  0.5086  0.3857
  741MOL0     C99962   8.592  -0.823   4.312 -0.2914  0.5243  0.9047
  741MOL0     C99963   8.719  -0.903   4.312 -0.4984 -0.1958 -0.6348
  741MOL0     C99964   8.689  -1.044   4.354 -0.0172 -0.4664  0.2844
  741MOL0     C99965   8.687  -1.154   4.401 -0.1281  0.2373  0.2443
  741MOL0     C99966   8.295  -0.400   4.342 -0.0231  0.9427 -0.7081
  741MOL0     C99967   8.201  -0.293   4.339 -0.6289  0.4530  0.4943
  741MOL0     H99968   7.805  -0.143   4.261 -1.0621  0.9731 -0.6341
  741MOL0     H99969   7.580  -0.014   4.291  0.3621  1.5753  0.3117
  741MOL0     H99970   7.434   0.189   4.296  0.6625 -0.6562  0.7330
  741MOL0     H99971   7.371   0.059   4.405 -2.4851  1.1819  4.0391
  741MOL0     H99972   7.349   0.347   4.472 -1.7024 -0.0147  1.3438
  741MOL0     H99973   7.241   0.248   4.356  0.8747 -0.4770 -0.2950
  741MOL0     H99974   7.193   0.106   4.540 -0.9595  0.1301  1.3977
  741MOL0     H99975   7.315   0.194   4.641 -0.5534 -0.4548  0.2217
  741MOL0     H99976   7.174   0.377   4.679 -0.6862 -0.5003 -0.4447
  741MOL0     H99977   7.070   0.329   4.546  3.0308 -1.1575 -3.2582
  741MOL0     H99978   7.005   0.123   4.662  0.2207 -0.3970  1.2788
  741MOL0     H99979   7.108   0.157   4.791  0.9374 -1.3706 -2.9235
  741MOL0     H99980   6.951   0.314   4.883  0.8755  0.5156 -0.1842
  741MOL0     H99981   6.875   0.360   4.726  0.8801 -0.5348 -0.6317
  741MOL0     H99982   6.825   0.080   4.833 -0.4529  0.2968  1.4037
  741MOL0     H99983   6.739   0.222   4.890  1.0673  0.9884  0.3175
  741MOL0     H99984   6.658   0.058   4.680  0.7588 -1.1764 -1.8306
  741MOL0     H99985   6.760   0.162   4.595  1.9618 -2.7156  1.0454
  741MOL0     H99986   6.427   0.124   4.650 -0.9346 -0.0220  2.2529
  741MOL0     H99987   6.210   0.280   4.621 -0.3440 -0.1248  0.5741
  741MOL0     H99988   6.215   0.445   4.681  1.7300 -0.6695  1.8935
  741MOL0     H99989   6.215   0.364   4.399 -1.9810 -0.6133  2.3986
  741MOL0     H99990   6.355   0.467   4.442  1.7456 -2.0136  3.1688
  741MOL0     H99991   6.193   0.637   4.540  1.1750  0.1662 -0.6178
  741MOL0     H99992   6.057   0.532   4.494 -1.2123  4.3978  0.3157
  741MOL0     H99993   6.272   0.658   4.320 -0.5286  2.1360  0.9371
  741MOL0     H99994   6.114   0.720   4.343  1.5536 -0.6067  2.9766
  741MOL0     H99995   5.915   0.687   4.384 -3.5207  1.2564  0.0235
  741MOL0     H99996   5.590   0.786   4.292  0.0459  0.7183  0.8026
  741MOL0     H99997   5.586   0.650   4.408 -1.8582  0.5376 -1.7866
  741MOL0     H99998   5.706   0.776   4.421  0.7414  2.9951 -2.3127
  741MOL0     H99999   5.361   0.703   4.002 -0.3945 -0.5051  0.3617
  741MOL0     H    0   5.132   0.705   3.904 -1.9143  0.6740 -2.7979
  741MOL0     H    1   4.881   0.613   3.845  1.1470 -1.2946  1.0217
  741MOL0     H    2   4.978   0.684   3.731 -0.4005 -0.5718  0.1149
  741MOL0     H    3   4.757   0.644   3.644 -0.8277 -0.8895 -0.4217
  741MOL0     H    4   4.861   0.573   3.538 -0.5020  1.9033  1.4765
  741MOL0     H    5   4.810   0.339   3.669 -0.1998 -0.0315 -1.3333
  741MOL0     H    6   4.696   0.398   3.561  1.9143 -1.4557 -0.1742
  741MOL0     H    7   4.655   0.496   3.845  0.4878 -1.3075  0.4231
  741MOL0     H    8   4.554   0.513   3.701 -0.1791  0.1403  1.4180
  741MOL0     H    9   4.617   0.254   3.824 -0.4863  0.1068 -0.3774
  741MOL0     H   10   4.499   0.288   3.695  1.0191 -0.1179 -1.2350
  741MOL0     H   11   4.454   0.426   3.965 -4.0619  2.3953 -0.4616
  741MOL0     H   12   4.356   0.416   3.814 -1.2057 -1.6092  0.3368
  741MOL0     H   13   4.413   0.201   4.014  2.1885 -1.8994 -2.1889
  741MOL0     H   14   4.351   0.157   3.849 -3.1235 -0.8994  0.4034
  741MOL0     H   15   4.136   0.291   3.887 -0.7949 -0.1170  0.6645
  741MOL0     H   16   4.196   0.336   4.047 -0.8471  1.7936 -1.5423
  741MOL0     H   17   5.193   0.293   3.764 -1.2117  0.7026 -0.5029
  741MOL0     H   18   5.404   0.288   3.884 -1.3084 -0.4884  0.1736
  741MOL0     H   19   5.738   0.416   4.005  1.2453 -0.6903  0.0499
  741MOL0     H   20   5.975   0.414   4.042 -3.1735 -1.0840 -1.8105
  741MOL0     H   21   7.735   0.201   4.614  0.7111 -2.1101  3.3238
  741MOL0     H   22   7.963   0.079   4.581 -2.4824  1.0197  1.2705
  741MOL0     H   23   8.390  -0.066   4.499  0.9042 -0.9722  0.4686
  741MOL0     H   24   8.560  -0.240   4.464 -0.6983  0.4934 -1.6879
  741MOL0     H   25   8.420  -0.650   4.359 -0.4345  2.8848  1.1011
  741MOL0     H   26   8.467  -0.589   4.207 -1.4287  3.4241  0.3222
  741MOL0     H   27   8.683  -0.654   4.417  0.1603 -2.5939  1.2236
  741MOL0     H   28   8.691  -0.659   4.237  2.3330  0.0007  1.7472
  741MOL0     H   29   8.539  -0.838   4.218  1.0245 -1.5826  0.4078
  741MOL0     H   30   8.520  -0.854   4.388 -1.3627 -1.0833 -0.6783
  741MOL0     H   31   8.780  -0.864   4.394 -1.4442 -0.3404  0.1516
  741MOL0     H   32   8.767  -0.900   4.214  2.9868  3.1941  0.8979
  741MOL0     H   33   8.660  -1.241   4.457 -0.3489 -1.0205 -1.7519
  741MOL0     H   34   8.270  -0.495   4.295 -2.0507  0.3411  1.4050
  741MOL0     H   35   8.105  -0.319   4.296  0.3846 -1.0288 -1.0163
  742MOL0     O   36   1.164   8.454   1.058  0.2890  0.3127 -0.5585
  742MOL0     C   37   1.230   8.512   1.147  0.0220  0.6362  0.7771
  742MOL0     O   38   1.188   8.617   1.227 -0.8354 -0.9794 -0.2434
  742MOL0     C   39   1.059   8.657   1.217 -0.3356  0.5199  0.3419
  742MOL0     C   40   0.948   8.575   1.239  0.5963  0.5678  0.0477
  742MOL0     C   41   0.822   8.634   1.233  0.8866  0.5538 -0.5277
  742MOL0     C   42   0.801   8.764   1.203 -0.1655 -0.1741  0.3742
  742MOL0     O   43   0.674   8.822   1.220 -0.5999  0.3369  0.3353
  742MOL0     C   44   0.576   8.778   1.128  0.5051  0.0291  0.0470
  742MOL0     C   45   0.503   8.901   1.073 -0.0498 -0.5165  0.3727
  742MOL0     C   46   0.579   8.956   0.945  0.2219  0.2012 -0.4613
  742MOL0     C   47   0.532   8.887   0.812 -0.0739 -0.8013 -0.1639
  742MOL0     C   48   0.599   8.937   0.686  0.3835  0.1922 -0.5576
  742MOL0     C   49   0.552   9.076   0.651 -0.4165 -0.1001 -0.0326
  742MOL0     C   50   0.593   9.121   0.510 -0.5081 -0.1029  0.2335
  742MOL0     C   51   0.496   9.228   0.448  0.5024  0.2522 -0.6398
  742MOL0     N   52   0.356   9.203   0.469  0.5984 -0.2681 -0.1192
  742MOL0     C   53   0.298   9.084   0.483  0.7072  0.9253  0.4171
  742MOL0     C   54   0.167   9.105   0.511  0.5963 -0.1698  0.1347
  742MOL0     C   55   0.077   8.985   0.550  0.5385 -0.1794 -0.3387
  742MOL0     C   56   0.044   8.910   0.419  0.0984 -0.2973 -1.0317
  742MOL0     C   57  -0.003   8.768   0.422  0.2272 -0.6380 -1.0123
  742MOL0     C   58  -0.113   8.743   0.535  0.3425  0.1180  0.7030
  742MOL0     O   59  -0.227   8.833   0.513  0.6019 -0.1770  0.5690
  742MOL0     C   60  -0.320   8.852   0.614  0.2842  0.4107  0.2334
  742MOL0     C   61  -0.402   8.959   0.611 -0.3266 -0.1721  0.5460
  742MOL0     C   62  -0.502   8.989   0.703  0.4450  0.0229 -0.2745
  742MOL0     C   63  -0.609   9.096   0.676  0.1524 -0.1706  0.1982
  742MOL0     C   64  -0.516   8.906   0.819 -1.0824  0.3284  0.2542
  742MOL0     C   65  -0.622   8.915   0.917 -0.8238 -0.4720  0.0485
  742MOL0     O   66  -0.689   8.802   0.939 -0.1138 -0.8074  0.5356
  742MOL0     C   67  -0.793   8.803   1.030 -0.0615  0.9829  1.0712
  742MOL0     C   68  -0.920   8.839   0.995 -0.0473  1.2254 -0.9219
  742MOL0     C   69  -1.018   8.848   1.094  0.7746  0.2650  0.0154
  742MOL0     C   70  -1.007   8.784   1.212 -0.5106  0.3495 -1.2325
  742MOL0     O   71  -1.101   8.789   1.314  0.2011 -0.0564  0.4921
  742MOL0     C   72  -1.200   8.901   1.312 -0.2436 -0.4349  0.2407
  742MOL0     C   73  -1.287   8.896   1.439  0.2270 -0.1333 -0.1129
  742MOL0     C   74  -1.376   8.774   1.439  0.3316  0.0291 -0.0875
  742MOL0     C   75  -1.441   8.736   1.576 -0.6879 -0.3676  0.0124
  742MOL0     C   76  -1.544   8.615   1.584  0.3056  0.9932  1.0323
  742MOL0     C   77  -1.577   8.577   1.724 -1.0364 -0.3972 -0.2413
  742MOL0     C   78  -1.688   8.477   1.748 -0.0453  0.0340  0.9160
  742MOL0     C   79  -1.727   8.464   1.896  0.1372 -0.0035  0.5615
  742MOL0    Cl   80  -1.843   8.330   1.898  0.0265  0.2942 -0.0862
  742MOL0     C   81  -0.881   8.723   1.245  0.3411 -0.4837  0.1249
  742MOL0     C   82  -0.772   8.737   1.154 -0.1764 -0.0528 -0.3898
  742MOL0     O   83  -0.641   9.023   0.970  0.9262  0.5290 -0.3826
  742MOL0     C   84  -0.430   8.791   0.829 -1.1243 -0.0703 -0.6345
  742MOL0     C   85  -0.338   8.763   0.732  0.0475 -1.2563 -0.4372
  742MOL0     N   86   0.142   9.238   0.530 -1.3855 -0.3934  0.3638
  742MOL0     N   87   0.255   9.296   0.503 -0.2560 -0.4748  0.3882
  742MOL0     C   88   0.917   8.844   1.168  0.4770 -0.3974 -0.8828
  742MOL0     C   89   1.043   8.793   1.184  0.7048  0.0705 -0.1589
  742MOL0     C   90   1.372   8.464   1.165 -1.0800 -0.0360 -0.3296
  742MOL0     C   91   1.438   8.397   1.056  0.5598  0.4952 -1.0534
  742MOL0     C   92   1.577   8.372   1.059 -0.1393  0.1496 -0.1931
  742MOL0     C   93   1.647   8.396   1.175  0.4445 -0.4928 -0.3587
  742MOL0     O   94   1.776   8.356   1.176  0.4472 -0.0885 -1.0074
  742MOL0     C   95   1.870   8.408   1.280  0.1177 -0.7183 -0.0141
  742MOL0     C   96   2.009   8.351   1.250  0.5068  0.3796  0.3362
  742MOL0     C   97   2.072   8.391   1.114  0.9117  0.2052 -0.4707
  742MOL0     C   98   2.188   8.301   1.079  0.0731  0.1067 -0.2257
  742MOL0     C   99   2.294   8.300   1.185  0.0754  0.5960 -0.8565
  742MOL0     C  100   2.397   8.301   1.249  0.2568 -0.1222 -0.8676
  742MOL0     C  101   1.587   8.469   1.280 -0.3409  0.3441 -0.1503
  742MOL0     C  102   1.453   8.494   1.280  0.9575  0.6305  0.0815
  742MOL0     H  103   0.961   8.468   1.249 -0.9370  0.1411 -1.9375
  742MOL0     H  104   0.733   8.575   1.249  0.9469  0.3049 -1.0923
  742MOL0     H  105   0.600   8.719   1.040  0.4802 -1.4813  1.0254
  742MOL0     H  106   0.502   8.721   1.185  0.7128 -2.1807 -1.7985
  742MOL0     H  107   0.403   8.873   1.038  0.4633  0.9775 -2.5277
  742MOL0     H  108   0.492   8.980   1.148  0.1209  1.1481 -1.2994
  742MOL0     H  109   0.569   9.065   0.936  0.6073  0.2316 -0.5010
  742MOL0     H  110   0.682   8.922   0.947  1.2463  3.0262 -0.2377
  742MOL0     H  111   0.543   8.780   0.833 -1.2171 -0.4887  2.4262
  742MOL0     H  112   0.424   8.900   0.802 -0.1992  0.7391  2.2853
  742MOL0     H  113   0.708   8.943   0.696  0.2678 -0.4914  1.5009
  742MOL0     H  114   0.577   8.862   0.610 -0.2716  0.3326 -0.5128
  742MOL0     H  115   0.445   9.080   0.672 -0.3638  0.0014  0.2212
  742MOL0     H  116   0.586   9.153   0.720  2.0222 -0.8802 -0.2810
  742MOL0     H  117   0.696   9.159   0.506  1.1996 -4.1830 -2.1848
  742MOL0     H  118   0.597   9.038   0.439 -4.0410 -0.5581  0.3892
  742MOL0     H  119   0.503   9.237   0.339 -0.4060  1.5964 -0.6214
  742MOL0     H  120   0.528   9.323   0.492  1.3362 -0.6017  0.6627
  742MOL0     H  121   0.343   8.985   0.477  0.3886  0.8555 -2.9765
  742MOL0     H  122   0.132   8.913   0.611 -0.2879 -0.8367 -0.3675
  742MOL0     H  123  -0.009   9.021   0.606  0.4757 -1.2174  0.2621
  742MOL0     H  124   0.132   8.908   0.354 -0.4578 -0.2730 -1.7986
  742MOL0     H  125  -0.026   8.971   0.362  1.2304  2.2328  0.1265
  742MOL0     H  126   0.076   8.695   0.438 -3.5470 -5.3197 -1.4032
  742MOL0     H  127  -0.034   8.748   0.319  0.1970 -1.8757 -0.7761
  742MOL0     H  128  -0.067   8.761   0.633 -0.1882  2.5616  0.5619
  742MOL0     H  129  -0.148   8.640   0.531  1.2667 -0.2004  0.5483
  742MOL0     H  130  -0.376   9.022   0.527  1.7343  1.1812  2.1163
  742MOL0     H  131  -0.608   9.105   0.567 -1.0868 -0.1467  0.1758
  742MOL0     H  132  -0.699   9.054   0.722 -1.0821  0.4243 -1.5929
  742MOL0     H  133  -0.577   9.191   0.720  1.7720 -0.1142 -1.0066
  742MOL0     H  134  -0.935   8.860   0.890  0.2537 -0.2805 -1.2869
  742MOL0     H  135  -1.112   8.896   1.073  0.6559 -1.1469 -3.2691
  742MOL0     H  136  -1.138   8.991   1.306  2.1577 -1.8304  2.4236
  742MOL0     H  137  -1.264   8.905   1.224  1.8933 -0.6807 -1.3945
  742MOL0     H  138  -1.223   8.900   1.528  0.1770 -0.4872 -0.0623
  742MOL0     H  139  -1.347   8.987   1.453  0.3142 -0.3587  1.9114
  742MOL0     H  140  -1.316   8.688   1.408 -1.1350 -0.4711 -1.6978
  742MOL0     H  141  -1.458   8.784   1.367  0.2783  1.8361  0.1852
  742MOL0     H  142  -1.358   8.705   1.641 -0.3107 -0.1001 -0.3417
  742MOL0     H  143  -1.481   8.826   1.624 -0.3591  0.7687 -1.7602
  742MOL0     H  144  -1.495   8.533   1.531 -2.5647 -2.2299  2.9335
  742MOL0     H  145  -1.634   8.639   1.527  0.7537  0.8364  0.2454
  742MOL0     H  146  -1.482   8.551   1.772  0.6855  2.3639 -1.8539
  742MOL0     H  147  -1.604   8.667   1.781  2.0014  0.7063 -0.3251
  742MOL0     H  148  -1.654   8.377   1.720  2.0800  1.2130 -1.1104
  742MOL0     H  149  -1.777   8.507   1.693 -0.2867 -2.4443 -0.1607
  742MOL0     H  150  -1.778   8.558   1.919  0.9556  1.5629 -3.1752
  742MOL0     H  151  -1.640   8.439   1.956  0.4217  0.9558  0.5694
  742MOL0     H  152  -0.865   8.691   1.348 -1.6534  2.1803  1.4017
  742MOL0     H  153  -0.671   8.706   1.181 -0.1287 -1.3692 -1.9421
  742MOL0     H  154  -0.448   8.732   0.919 -0.2362  1.9126  0.9245
  742MOL0     H  155  -0.274   8.675   0.738  1.1187 -0.4520  0.4273
  742MOL0     H  156   0.905   8.951   1.155 -0.9946 -0.1440  1.7301
  742MOL0     H  157   1.124   8.855   1.147 -0.0130  1.9962  1.3096
  742MOL0     H  158   1.379   8.379   0.966  0.2318  0.5688 -0.8538
  742MOL0     H  159   1.628   8.330   0.973 -0.7397 -1.2651  0.1099
  742MOL0     H  160   1.869   8.517   1.283 -1.6717 -0.7250  1.0124
  742MOL0     H  161   1.848   8.385   1.384 -0.5463  2.9732  0.7908
  742MOL0     H  162   2.005   8.243   1.259  1.0356  0.3648  0.4558
  742MOL0     H  163   2.084   8.381   1.325 -0.9047  2.7412  0.9140
  742MOL0     H  164   2.105   8.495   1.121 -4.0701  2.1108 -1.0784
  742MOL0     H  165   1.989   8.383   1.043 -2.8985  1.1809  3.4247
  742MOL0     H  166   2.229   8.340   0.986  1.1106 -0.2289  0.0822
  742MOL0     H  167   2.162   8.195   1.065  0.0346  0.1053 -0.1474
  742MOL0     H  168   2.487   8.298   1.308 -1.5369 -0.4386  2.0356
  742MOL0     H  169   1.636   8.508   1.368 -0.3207 -0.8195  0.3694
  742MOL0     H  170   1.404   8.539   1.366  1.2913 -0.3914  0.8240
  743MOL0     O  171   5.201   8.204   4.472  0.2124  1.1118 -0.0907
  743MOL0     C  172   5.259   8.308   4.512  0.2880  0.3796 -0.2380
  743MOL0     O  173   5.390   8.339   4.493 -0.2687 -0.3174  0.1208
  743MOL0     C  174   5.475   8.262   4.428 -0.1263 -0.8637 -0.7303
  743MOL0     C  175   5.603   8.268   4.475  1.3354  0.1766  0.3733
  743MOL0     C  176   5.710   8.213   4.399  0.5420  0.2015  0.1448
  743MOL0     C  177   5.678   8.157   4.279  0.3310  0.1829 -0.3122
  743MOL0     O  178   5.779   8.099   4.214 -0.7362  0.2465  0.1537
  743MOL0     C  179   5.794   7.960   4.259 -0.1952 -0.0403 -0.3785
  743MOL0     C  180   5.893   7.886   4.169  0.2666 -0.6454  1.2233
  743MOL0     C  181   5.854   7.914   4.024  0.2820  0.0045  0.8010
  743MOL0     C  182   5.723   7.846   3.992  0.5577 -0.3332  0.1920
  743MOL0     C  183   5.712   7.840   3.836  0.4319 -0.0727  0.9163
  743MOL0     C  184   5.573   7.792   3.792 -0.4459 -0.0269  0.2045
  743MOL0     C  185   5.575   7.721   3.652  0.3181 -0.0402  0.1479
  743MOL0     C  186   5.432   7.683   3.622 -0.3171  0.4464  0.3172
  743MOL0     N  187   5.381   7.580   3.705 -0.9366  0.2204  0.0432
  743MOL0     C  188   5.270   7.582   3.783  0.7047 -0.0686 -0.2321
  743MOL0     C  189   5.252   7.456   3.820 -0.1037  0.2133 -0.3011
  743MOL0     C  190   5.137   7.402   3.892  1.1129  0.7890  0.5100
  743MOL0     C  191   5.019   7.370   3.799  0.2155  0.1258  0.5015
  743MOL0     C  192   4.887   7.344   3.857 -0.0196  0.0774 -0.0524
  743MOL0     C  193   4.889   7.249   3.983  0.1899  0.2636  0.5858
  743MOL0     O  194   4.753   7.209   4.029 -0.2242 -0.0728  0.1251
  743MOL0     C  195   4.731   7.128   4.131 -0.2427  0.5801 -0.0152
  743MOL0     C  196   4.828   7.071   4.206  0.1065  0.4034 -1.2989
  743MOL0     C  197   4.793   6.989   4.318 -1.5220 -1.0503  0.0994
  743MOL0     C  198   4.907   6.908   4.384  0.2796  0.3777  0.7448
  743MOL0     C  199   4.659   6.964   4.343 -0.2846  0.0668 -0.3248
  743MOL0     C  200   4.632   6.869   4.449 -0.2705  0.3776 -0.0892
  743MOL0     O  201   4.685   6.899   4.566  0.2781 -0.5945 -0.5059
  743MOL0     C  202   4.706   6.804   4.666 -0.7240 -0.1047  0.0416
  743MOL0     C  203   4.745   6.857   4.789 -0.0499  0.3114 -0.8174
  743MOL0     C  204   4.750   6.779   4.898 -0.3363  0.7490 -1.0396
  743MOL0     C  205   4.743   6.641   4.883 -1.0019 -0.0394  0.0148
  743MOL0     O  206   4.766   6.548   4.982 -0.4034 -0.4193 -0.6850
  743MOL0     C  207   4.893   6.589   5.050  0.5082  0.2711 -0.0064
  743MOL0     C  208   4.931   6.476   5.158 -0.0365 -0.6577  0.4669
  743MOL0     C  209   4.812   6.449   5.250  0.7312  0.2900 -0.3185
  743MOL0     C  210   4.752   6.564   5.334  0.2715 -0.1735 -0.2894
  743MOL0     C  211   4.622   6.524   5.404 -0.0859  0.3216 -0.1874
  743MOL0     C  212   4.545   6.634   5.478  0.3002 -0.6404  0.3038
  743MOL0     C  213   4.624   6.735   5.573 -0.2805  0.5405  0.3912
  743MOL0     C  214   4.531   6.812   5.666  0.6500 -0.4075 -1.1347
  743MOL0    Cl  215   4.625   6.809   5.815 -0.3816 -0.1906  0.2666
  743MOL0     C  216   4.722   6.587   4.755  0.4493  0.0113  0.3738
  743MOL0     C  217   4.702   6.664   4.644  0.8934 -0.0074  0.2104
  743MOL0     O  218   4.541   6.786   4.428  0.3350 -0.0046 -0.2084
  743MOL0     C  219   4.564   7.018   4.268  0.3151 -0.9092 -1.0782
  743MOL0     C  220   4.599   7.099   4.163 -0.8827  0.0887 -0.3670
  743MOL0     N  221   5.339   7.373   3.749  0.1051 -0.7971  0.5777
  743MOL0     N  222   5.406   7.450   3.680  0.3797 -0.5997 -0.2697
  743MOL0     C  223   5.544   8.139   4.242  0.2651  0.6583  0.2573
  743MOL0     C  224   5.445   8.194   4.317  0.5344  0.1284  0.6626
  743MOL0     C  225   5.167   8.407   4.574 -0.1550 -0.2744  0.6082
  743MOL0     C  226   5.037   8.376   4.614 -0.2605  1.0488 -0.2677
  743MOL0     C  227   4.940   8.470   4.663 -0.7544  1.0818 -0.4928
  743MOL0     C  228   4.985   8.601   4.678 -0.5831 -0.2850  0.4291
  743MOL0     O  229   4.901   8.689   4.746 -0.7759 -0.5646 -0.5761
  743MOL0     C  230   4.935   8.828   4.760  0.0131 -0.0760  0.7050
  743MOL0     C  231   4.830   8.932   4.818 -1.6281  1.1355 -0.1623
  743MOL0     C  232   4.723   8.976   4.715 -0.4354 -0.5266  0.4288
  743MOL0     C  233   4.621   9.071   4.774 -1.3904 -0.4831  0.5785
  743MOL0     C  234   4.517   9.100   4.677 -0.7091 -0.5433  0.6180
  743MOL0     C  235   4.421   9.156   4.610  0.4595  0.3590  0.0024
  743MOL0     C  236   5.117   8.636   4.643 -0.3254  0.3669  0.5293
  743MOL0     C  237   5.204   8.546   4.592  0.8471  0.5319  0.8023
  743MOL0     H  238   5.628   8.315   4.570  0.5230 -2.0009  1.7529
  743MOL0     H  239   5.814   8.218   4.428  0.9008 -1.3246 -0.7803
  743MOL0     H  240   5.833   7.971   4.360 -1.4894  1.9186 -0.0459
  743MOL0     H  241   5.704   7.900   4.274 -1.0389  0.0224 -4.0946
  743MOL0     H  242   5.997   7.916   4.186  1.9446 -4.4147 -1.1267
  743MOL0     H  243   5.899   7.778   4.186  1.9519 -0.5566  1.3526
  743MOL0     H  244   5.853   8.019   3.995 -1.6986  0.2276  1.5250
  743MOL0     H  245   5.931   7.873   3.958  0.5967 -0.0806  1.2139
  743MOL0     H  246   5.729   7.742   4.025  1.4255  0.4198  2.6808
  743MOL0     H  247   5.635   7.893   4.037 -0.0269 -0.2416 -1.0219
  743MOL0     H  248   5.722   7.941   3.795 -0.9679  0.4414  1.8083
  743MOL0     H  249   5.799   7.778   3.811 -0.3696 -0.6907 -0.4972
  743MOL0     H  250   5.540   7.736   3.880 -1.6638  0.4785  0.0837
  743MOL0     H  251   5.514   7.883   3.781 -1.9263 -0.6542  2.2364
  743MOL0     H  252   5.619   7.789   3.579  1.2999  0.1757  0.9089
  743MOL0     H  253   5.627   7.625   3.647 -2.0746 -1.3596 -2.8197
  743MOL0     H  254   5.419   7.641   3.522  0.6454  0.9196 -0.0252
  743MOL0     H  255   5.373   7.775   3.619 -1.1281 -0.0713  0.0928
  743MOL0     H  256   5.213   7.666   3.822  0.8407 -0.1208  0.0795
  743MOL0     H  257   5.155   7.318   3.959  1.6080  0.8725  0.4865
  743MOL0     H  258   5.104   7.483   3.957  1.0294 -0.3802  1.9632
  743MOL0     H  259   5.054   7.284   3.741  1.0619  1.0675 -0.4247
  743MOL0     H  260   5.017   7.447   3.722  0.9809  0.4187  0.7658
  743MOL0     H  261   4.819   7.300   3.784 -0.6863 -0.3847  0.8145
  743MOL0     H  262   4.845   7.444   3.871 -0.8023  0.5670 -4.5486
  743MOL0     H  263   4.936   7.313   4.059  1.2189 -0.2293  0.3744
  743MOL0     H  264   4.950   7.164   3.954  1.1263  1.1369 -0.0812
  743MOL0     H  265   4.933   7.099   4.197  0.3596  0.7904  1.8544
  743MOL0     H  266   4.876   6.803   4.374 -0.2650  0.6136 -0.1369
  743MOL0     H  267   4.997   6.929   4.326 -1.0357 -0.7730 -1.8995
  743MOL0     H  268   4.913   6.942   4.488  3.0440 -1.5229  1.3254
  743MOL0     H  269   4.750   6.964   4.800 -3.4936  0.4680  0.2841
  743MOL0     H  270   4.772   6.818   4.997  2.4306  3.5625 -2.6122
  743MOL0     H  271   4.963   6.598   4.966  3.2076 -2.5467  1.7047
  743MOL0     H  272   4.880   6.680   5.109  1.3641  0.5871 -0.2852
  743MOL0     H  273   4.956   6.388   5.097 -1.4595 -0.0649 -1.0750
  743MOL0     H  274   5.017   6.511   5.215 -1.4581  1.2524  1.5487
  743MOL0     H  275   4.844   6.374   5.322 -2.2501 -1.1614 -0.3920
  743MOL0     H  276   4.732   6.406   5.191  3.0100  0.9000 -4.2267
  743MOL0     H  277   4.833   6.586   5.404  1.4656 -1.9269 -1.0692
  743MOL0     H  278   4.727   6.656   5.281  0.2711 -0.4772 -0.8128
  743MOL0     H  279   4.644   6.449   5.480  0.1201  0.2138 -0.3532
  743MOL0     H  280   4.547   6.480   5.338  0.3310 -0.6446 -0.0370
  743MOL0     H  281   4.498   6.698   5.404  0.4042 -1.2877 -0.3286
  743MOL0     H  282   4.461   6.587   5.530  0.0583  0.4700  0.9462
  743MOL0     H  283   4.680   6.805   5.512 -0.6638 -0.6247 -1.3736
  743MOL0     H  284   4.690   6.665   5.625  1.7016 -0.7451 -3.4679
  743MOL0     H  285   4.430   6.771   5.675  1.0628 -1.0147  1.6919
  743MOL0     H  286   4.517   6.914   5.630 -1.3223 -0.9636 -2.0777
  743MOL0     H  287   4.701   6.481   4.743  1.4823 -0.0488 -1.3485
  743MOL0     H  288   4.683   6.620   4.547  0.5850 -0.6579  0.5594
  743MOL0     H  289   4.462   6.987   4.286  0.0255  1.2360  1.6458
  743MOL0     H  290   4.516   7.126   4.098 -0.3476  2.3939 -0.1468
  743MOL0     H  291   5.524   8.084   4.151  0.1530 -0.4431  0.9373
  743MOL0     H  292   5.342   8.188   4.282  0.2059 -2.4840  1.8535
  743MOL0     H  293   4.996   8.276   4.608  0.5790  0.6944 -0.3304
  743MOL0     H  294   4.840   8.445   4.697 -0.0070  1.1093  1.9275
  743MOL0     H  295   5.028   8.832   4.818  0.6235  0.0682 -0.2560
  743MOL0     H  296   4.962   8.867   4.661  0.7113 -1.8168  0.1710
  743MOL0     H  297   4.882   9.016   4.864  2.4625  1.2024 -4.1684
  743MOL0     H  298   4.770   8.884   4.896 -2.3610  0.9277 -0.8379
  743MOL0     H  299   4.684   8.883   4.672  0.7235  0.0402 -2.0551
  743MOL0     H  300   4.762   9.028   4.627  1.8821  1.0158  2.2473
  743MOL0     H  301   4.680   9.156   4.809 -3.1818 -0.2448  3.3515
  743MOL0     H  302   4.572   9.015   4.855 -1.5743 -0.7058  0.3139
  743MOL0     H  303   4.348   9.197   4.543  0.6355 -1.4323 -1.3495
  743MOL0     H  304   5.158   8.734   4.664 -1.1040  0.9293 -0.4558
  743MOL0     H  305   5.304   8.572   4.559  0.3801  0.1157 -1.0615
  744MOL0     O  306   7.512   7.341   9.516 -0.5792  0.2762  0.2011
  744MOL0     C  307   7.539   7.359   9.395  0.0726  1.0100  0.1106
  744MOL0     O  308   7.468   7.430   9.308 -0.9787 -0.2356 -0.0779
  744MOL0     C  309   7.349   7.492   9.340 -0.7280  0.3554 -1.1504
  744MOL0     C  310   7.350   7.633   9.365  0.2329  0.0421  0.5744
  744MOL0     C  311   7.231   7.692   9.414 -0.3951 -1.0679  0.2550
  744MOL0     C  312   7.115   7.622   9.423  1.2279 -0.1217  1.1899
  744MOL0     O  313   7.006   7.687   9.473 -0.5636  0.6060  0.5299
  744MOL0     C  314   6.890   7.609   9.489  0.1317  0.6730  0.1872
  744MOL0     C  315   6.777   7.696   9.539  0.1590  0.4542 -0.0886
  744MOL0     C  316   6.638   7.643   9.478 -0.4028  0.2405 -0.3540
  744MOL0     C  317   6.523   7.699   9.571  0.1489  0.7963  0.7995
  744MOL0     C  318   6.374   7.652   9.532 -1.2156  0.8367  0.2165
  744MOL0     C  319   6.287   7.764   9.591  0.5914 -0.0804 -0.3734
  744MOL0     C  320   6.143   7.744   9.550  0.2559  0.0237 -0.8875
  744MOL0     C  321   6.053   7.834   9.635 -0.4994  0.4439  0.9415
  744MOL0     N  322   5.907   7.817   9.617 -0.1334  0.2545 -0.0023
  744MOL0     C  323   5.835   7.717   9.655  0.2909 -0.3034 -0.1923
  744MOL0     C  324   5.707   7.745   9.618 -0.2911  0.3943  0.3942
  744MOL0     C  325   5.595   7.646   9.627 -0.0585  0.0312 -0.8385
  744MOL0     C  326   5.475   7.688   9.713 -0.3699  0.0985 -0.6261
  744MOL0     C  327   5.374   7.763   9.634  0.3351 -0.0962 -0.2196
  744MOL0     C  328   5.257   7.796   9.727 -0.3567 -0.6536 -0.7240
  744MOL0     O  329   5.188   7.674   9.749  0.4840 -0.4209  0.8563
  744MOL0     C  330   5.091   7.664   9.846  0.5622 -0.7831  0.4038
  744MOL0     C  331   5.027   7.546   9.879  0.1582 -0.3490 -0.1651
  744MOL0     C  332   4.910   7.541   9.964 -0.0992 -0.1917  0.1793
  744MOL0     C  333   4.841   7.406   9.990 -0.0066 -0.4039  0.2731
  744MOL0     C  334   4.882   7.657  10.037  0.1645 -0.4319  0.6463
  744MOL0     C  335   4.766   7.672  10.123 -1.1613  0.1015  0.2788
  744MOL0     O  336   4.643   7.641  10.067 -0.0899  0.3494  0.3258
  744MOL0     C  337   4.520   7.681  10.120 -0.5898  0.4442 -0.3537
  744MOL0     C  338   4.497   7.801  10.182  0.0137 -0.3568 -0.2853
  744MOL0     C  339   4.368   7.842  10.224  0.2203  1.0121 -0.3074
  744MOL0     C  340   4.257   7.752  10.214 -0.4135 -0.2116  0.7391
  744MOL0     O  341   4.137   7.794  10.259  0.3039  0.9734  0.4380
  744MOL0     C  342   4.037   7.796  10.153  0.5641 -0.3156 -0.3635
  744MOL0     C  343   3.919   7.891  10.185 -0.5304  0.2466  0.4277
  744MOL0     C  344   3.782   7.819  10.168  0.4506 -0.0127 -0.4165
  744MOL0     C  345   3.755   7.786  10.015  0.2812 -1.1174  0.5000
  744MOL0     C  346   3.614   7.740   9.994 -0.2396 -0.2353  0.6007
  744MOL0     C  347   3.589   7.755   9.841  0.0316  0.7562 -0.3372
  744MOL0     C  348   3.451   7.701   9.812  0.2757  1.4571  0.1505
  744MOL0     C  349   3.418   7.707   9.665  0.1948 -0.3195 -0.6388
  744MOL0    Cl  350   3.464   7.577   9.549  0.0091 -0.2290 -0.0744
  744MOL0     C  351   4.281   7.625  10.155  0.5932 -0.5564 -0.0533
  744MOL0     C  352   4.410   7.601  10.102 -0.1006  0.2803 -0.4088
  744MOL0     O  353   4.777   7.705  10.243  0.2083 -0.3812 -0.0317
  744MOL0     C  354   4.951   7.772  10.014  0.2669 -0.5163  0.3655
  744MOL0     C  355   5.051   7.783   9.916 -0.0786 -0.1615 -0.0407
  744MOL0     N  356   5.707   7.868   9.560 -0.0286  0.1210 -0.4112
  744MOL0     N  357   5.823   7.917   9.571  0.5357  0.5643 -0.8253
  744MOL0     C  358   7.114   7.481   9.402 -0.3092  0.5704  0.8304
  744MOL0     C  359   7.231   7.419   9.361 -0.6107 -0.4479 -0.1186
  744MOL0     C  360   7.659   7.293   9.342 -0.3670 -0.4487  0.9493
  744MOL0     C  361   7.737   7.209   9.420  0.7942  1.2055 -0.5794
  744MOL0     C  362   7.859   7.176   9.370 -0.0155  0.8533  0.1162
  744MOL0     C  363   7.908   7.211   9.248 -0.6097  0.1574 -0.3710
  744MOL0     O  364   8.034   7.175   9.223  0.5654 -0.1059  0.1887
  744MOL0     C  365   8.090   7.190   9.092  0.1323  0.0597  0.5338
  744MOL0     C  366   8.243   7.166   9.105  0.1880 -0.7621 -1.5968
  744MOL0     C  367   8.314   7.266   9.195  0.5475  0.0568 -0.7900
  744MOL0     C  368   8.451   7.206   9.236 -0.0402  0.1735 -0.8423
  744MOL0     C  369   8.565   7.257   9.150  0.2820  0.0027  0.8026
  744MOL0     C  370   8.645   7.285   9.068  0.7789  0.2302  0.1811
  744MOL0     C  371   7.825   7.283   9.160 -0.0774  0.8562 -0.4527
  744MOL0     C  372   7.703   7.329   9.210  0.5279  0.1341  1.1577
  744MOL0     H  373   7.444   7.687   9.368 -0.0097  0.4322  2.3508
  744MOL0     H  374   7.222   7.798   9.437 -0.8340 -1.1343  0.3820
  744MOL0     H  375   6.858   7.561   9.396  0.9866 -0.1862  0.3270
  744MOL0     H  376   6.904   7.536   9.569 -2.6888  1.3903  1.4920
  744MOL0     H  377   6.782   7.710   9.647 -0.0528 -0.6020  0.0670
  744MOL0     H  378   6.790   7.797   9.498  0.2283 -0.8069 -3.5435
  744MOL0     H  379   6.619   7.678   9.376  0.3203  0.5362 -0.3940
  744MOL0     H  380   6.640   7.534   9.471  0.8690  0.3236 -2.0799
  744MOL0     H  381   6.551   7.671   9.673  0.2613 -1.3562  0.2289
  744MOL0     H  382   6.526   7.807   9.556  4.4925  0.7905  0.0864
  744MOL0     H  383   6.368   7.646   9.423 -2.5926  1.0516  0.2725
  744MOL0     H  384   6.353   7.553   9.575 -0.2056 -0.1120 -1.3424
  744MOL0     H  385   6.294   7.756   9.700  1.2905 -1.4092 -0.5054
  744MOL0     H  386   6.322   7.859   9.548  1.0914 -0.6253 -1.1843
  744MOL0     H  387   6.130   7.773   9.446 -0.7931  1.7056 -0.3293
  744MOL0     H  388   6.125   7.637   9.567  0.5872  0.3394  1.9068
  744MOL0     H  389   6.092   7.933   9.609 -0.7092  0.4286  0.5575
  744MOL0     H  390   6.073   7.803   9.738  2.3014 -2.9384 -0.3920
  744MOL0     H  391   5.868   7.629   9.710  2.1843  1.0674  0.9532
  744MOL0     H  392   5.562   7.629   9.524 -2.0818  1.5099 -0.4935
  744MOL0     H  393   5.640   7.556   9.670 -0.7183 -0.5596 -1.3621
  744MOL0     H  394   5.511   7.752   9.795  1.0504  0.6539 -1.6497
  744MOL0     H  395   5.445   7.592   9.758  0.0999  0.4277  0.4396
  744MOL0     H  396   5.333   7.698   9.556  0.7493 -0.4435 -0.1524
  744MOL0     H  397   5.416   7.852   9.585  1.8565  0.9293  2.6642
  744MOL0     H  398   5.192   7.874   9.687  0.0075  0.9923  1.6286
  744MOL0     H  399   5.280   7.842   9.824 -1.6963 -0.5525 -0.4401
  744MOL0     H  400   5.064   7.458   9.828 -0.0128 -0.4638 -0.0941
  744MOL0     H  401   4.734   7.426   9.988 -0.0283 -0.4485  0.8838
  744MOL0     H  402   4.868   7.333   9.913  2.0194  0.6369 -0.0809
  744MOL0     H  403   4.873   7.367  10.087 -0.9669 -2.3150 -0.1427
  744MOL0     H  404   4.579   7.871  10.192  0.4610 -0.9919  0.5839
  744MOL0     H  405   4.353   7.940  10.269  0.1779  0.1008  1.7814
  744MOL0     H  406   4.071   7.840  10.059  0.1935 -0.0117 -0.3616
  744MOL0     H  407   4.000   7.695  10.137 -0.2588 -0.3177  1.3474
  744MOL0     H  408   3.937   7.920  10.289  1.3436 -1.2631  0.5819
  744MOL0     H  409   3.930   7.981  10.122 -2.3768 -0.8417 -1.5716
  744MOL0     H  410   3.694   7.875  10.201 -1.9891 -0.5078 -5.2826
  744MOL0     H  411   3.787   7.726  10.227 -0.1554  0.0029 -0.3336
  744MOL0     H  412   3.767   7.879   9.958 -0.2585 -2.0482 -1.2123
  744MOL0     H  413   3.818   7.708   9.971  1.1882  0.9805 -2.2648
  744MOL0     H  414   3.554   7.815  10.047  3.1008  0.3237  4.0242
  744MOL0     H  415   3.594   7.637  10.024 -2.3654 -0.4692 -1.3067
  744MOL0     H  416   3.588   7.859   9.809 -4.5033  1.5528  1.5064
  744MOL0     H  417   3.656   7.690   9.784 -1.7483 -0.1331 -1.5092
  744MOL0     H  418   3.373   7.751   9.870 -0.2919 -0.3516  1.0211
  744MOL0     H  419   3.453   7.595   9.837 -1.5616  0.9392 -1.6817
  744MOL0     H  420   3.455   7.799   9.620  0.3970  0.9032  1.8719
  744MOL0     H  421   3.309   7.718   9.656  0.0411 -0.7251  0.5360
  744MOL0     H  422   4.195   7.559  10.150 -0.1205  0.4366 -2.1869
  744MOL0     H  423   4.429   7.511  10.044 -0.3160  0.5920 -0.9737
  744MOL0     H  424   4.927   7.864  10.067  1.9413 -0.3220  0.8375
  744MOL0     H  425   5.097   7.880   9.903 -0.5985  0.1097  0.0966
  744MOL0     H  426   7.035   7.409   9.423  0.1784  0.4010  2.1622
  744MOL0     H  427   7.229   7.315   9.332 -2.5525 -0.5924  0.3830
  744MOL0     H  428   7.700   7.169   9.514  0.6092 -0.1852 -1.2168
  744MOL0     H  429   7.921   7.105   9.424 -1.2172  2.3655  3.8228
  744MOL0     H  430   8.041   7.112   9.034  0.0474 -0.4812  1.3081
  744MOL0     H  431   8.065   7.285   9.044 -0.4839 -1.0853 -1.5079
  744MOL0     H  432   8.293   7.170   9.007 -0.8326  1.5673 -2.0941
  744MOL0     H  433   8.242   7.065   9.148 -1.4033 -1.1347 -2.4198
  744MOL0     H  434   8.253   7.287   9.283  4.2104 -1.4873  2.3897
  744MOL0     H  435   8.320   7.357   9.135 -0.5288 -1.8602 -4.1251
  744MOL0     H  436   8.460   7.097   9.234  1.8540  0.2926 -0.7760
  744MOL0     H  437   8.472   7.238   9.339  1.6342 -3.0414 -0.0537
  744MOL0     H  438   8.722   7.324   9.005  1.3507 -0.5369  0.3816
  744MOL0     H  439   7.855   7.314   9.060  1.0281 -1.5389 -0.9417
  744MOL0     H  440   7.658   7.405   9.146  1.2236 -1.5491 -1.5040
  745MOL0     O  441   6.970   3.566   6.336  0.1248 -0.4427  0.1167
  745MOL0     C  442   6.968   3.521   6.444  0.9519 -0.3672  0.2921
  745MOL0     O  443   6.854   3.484   6.509 -0.0452  0.4653 -0.1571
  745MOL0     C  444   6.725   3.528   6.484 -0.7755 -0.0379 -0.4518
  745MOL0     C  445   6.619   3.453   6.527 -0.3309 -0.8545  0.7808
  745MOL0     C  446   6.483   3.491   6.531 -0.5548 -0.3947  0.1272
  745MOL0     C  447   6.445   3.618   6.475 -0.6642 -0.0697  0.3588
  745MOL0     O  448   6.323   3.675   6.488 -0.5622  0.3034  0.2196
  745MOL0     C  449   6.216   3.601   6.429 -0.4802  0.4068 -0.2218
  745MOL0     C  450   6.094   3.677   6.421  0.8921 -0.9344  0.4892
  745MOL0     C  451   6.097   3.787   6.312  0.3804  0.0159 -0.6527
  745MOL0     C  452   5.950   3.845   6.290  0.2689 -0.3336 -0.9492
  745MOL0     C  453   5.968   3.974   6.205  0.4090 -0.1161  0.0359
  745MOL0     C  454   5.828   4.054   6.187  0.5127  0.4398 -0.4188
  745MOL0     C  455   5.714   3.982   6.108 -0.7483  0.7701 -0.2310
  745MOL0     C  456   5.600   4.080   6.103 -0.2678  0.3058 -0.0735
  745MOL0     N  457   5.485   3.997   6.050 -0.0166 -0.2014 -0.3117
  745MOL0     C  458   5.357   4.016   6.087  1.5140 -0.4131  0.2192
  745MOL0     C  459   5.282   3.916   6.024 -0.4019 -0.5467 -0.2140
  745MOL0     C  460   5.137   3.886   6.036 -0.7060  0.0296  0.0755
  745MOL0     C  461   5.048   3.998   5.971  0.2094  0.7353  0.3418
  745MOL0     C  462   4.901   3.954   5.973  0.1014  0.2737  0.4513
  745MOL0     C  463   4.807   4.029   5.877 -0.6078  0.8921 -0.5852
  745MOL0     O  464   4.672   3.987   5.885  0.1884  0.6821  0.6288
  745MOL0     C  465   4.578   4.003   5.784 -0.0771 -0.2886 -0.3430
  745MOL0     C  466   4.452   3.956   5.799 -0.1883  0.3473  0.4893
  745MOL0     C  467   4.353   3.988   5.709 -0.3654 -0.0001  0.2404
  745MOL0     C  468   4.212   3.960   5.744  0.1988  0.4597  0.1580
  745MOL0     C  469   4.392   4.036   5.580 -0.0038  0.3717 -0.2381
  745MOL0     C  470   4.300   4.033   5.464  0.6597 -0.5401  0.2877
  745MOL0     O  471   4.318   4.132   5.382  0.1667 -0.5547 -0.0095
  745MOL0     C  472   4.248   4.127   5.260 -0.2027 -0.0371 -0.2462
  745MOL0     C  473   4.292   4.036   5.163  1.0742 -0.7900  0.0618
  745MOL0     C  474   4.210   4.031   5.048  0.0249  0.0623  0.5722
  745MOL0     C  475   4.105   4.114   5.026  0.1950  0.2592 -0.1030
  745MOL0     O  476   4.034   4.100   4.908  0.0022  0.3940  0.2425
  745MOL0     C  477   3.951   4.199   4.851 -0.5933  0.0670 -0.4443
  745MOL0     C  478   3.927   4.163   4.712 -0.0901 -0.6158  0.2010
  745MOL0     C  479   3.802   4.226   4.646  0.0152  0.4106  0.0883
  745MOL0     C  480   3.684   4.131   4.615  0.4472 -0.0141 -0.6259
  745MOL0     C  481   3.569   4.211   4.541 -0.1210  0.6311 -0.0072
  745MOL0     C  482   3.445   4.125   4.499  1.1162  0.3738  0.6388
  745MOL0     C  483   3.348   4.230   4.437  0.4207 -0.0545  0.0806
  745MOL0     C  484   3.243   4.178   4.336  0.4939 -0.2984 -0.3376
  745MOL0    Cl  485   3.173   4.027   4.374 -0.5722  0.0366  0.0200
  745MOL0     C  486   4.062   4.201   5.126 -0.0107  1.0084 -0.1389
  745MOL0     C  487   4.129   4.209   5.240 -0.2118 -0.3412  0.5087
  745MOL0     O  488   4.218   3.944   5.450  0.2031  0.5588 -0.0002
  745MOL0     C  489   4.521   4.077   5.554 -0.0685  0.1873  0.3609
  745MOL0     C  490   4.608   4.066   5.663 -0.5885  0.3325 -0.4710
  745MOL0     N  491   5.375   3.840   5.947 -1.1770 -0.6338 -0.0922
  745MOL0     N  492   5.489   3.891   5.966  0.2535  0.1902 -0.1955
  745MOL0     C  493   6.551   3.691   6.421 -0.3565  0.5472 -0.2779
  745MOL0     C  494   6.688   3.650   6.426  0.3284  0.1666  0.2375
  745MOL0     C  495   7.098   3.531   6.512  0.1898 -0.2604  0.2761
  745MOL0     C  496   7.125   3.456   6.622 -0.1948 -0.2234 -0.0146
  745MOL0     C  497   7.259   3.448   6.674  0.2539  0.3582  0.0490
  745MOL0     C  498   7.357   3.541   6.631 -0.4699 -0.0374 -1.3792
  745MOL0     O  499   7.486   3.533   6.682  0.3366 -0.2274  1.0598
  745MOL0     C  500   7.552   3.409   6.707  0.0926  1.0998  0.0167
  745MOL0     C  501   7.685   3.408   6.631  0.6245  0.3033  0.7231
  745MOL0     C  502   7.762   3.531   6.644 -0.2522 -0.3717  1.1583
  745MOL0     C  503   7.800   3.555   6.793  0.0885  1.1949 -0.4906
  745MOL0     C  504   7.912   3.654   6.809  0.1183  1.2173  0.5134
  745MOL0     C  505   8.010   3.725   6.822 -0.2125 -0.0560  1.3481
  745MOL0     C  506   7.327   3.627   6.529 -0.1865  0.2983 -0.1134
  745MOL0     C  507   7.199   3.616   6.463 -0.1647 -1.1713  0.3970
  745MOL0     H  508   6.648   3.356   6.564  0.9367 -0.7839  0.0401
  745MOL0     H  509   6.413   3.417   6.568  1.3840 -0.8661  3.1961
  745MOL0     H  510   6.245   3.565   6.330 -0.1023 -0.0459  0.0523
  745MOL0     H  511   6.200   3.506   6.481  1.3293  1.0292  1.5892
  745MOL0     H  512   6.015   3.606   6.398  1.6407 -1.0462 -1.9800
  745MOL0     H  513   6.071   3.726   6.516  2.6272  1.7862 -0.3684
  745MOL0     H  514   6.159   3.864   6.360  1.0927 -0.5182 -0.6947
  745MOL0     H  515   6.140   3.747   6.220  1.1567 -2.1797  0.5821
  745MOL0     H  516   5.890   3.769   6.239  2.1217 -0.3312 -3.3049
  745MOL0     H  517   5.907   3.889   6.380 -0.0560  2.5737 -2.4146
  745MOL0     H  518   6.040   4.043   6.250  0.8645  0.2030 -1.1354
  745MOL0     H  519   6.004   3.945   6.105  1.6596  1.3041  0.0368
  745MOL0     H  520   5.786   4.072   6.286 -1.5568  1.9671 -1.5011
  745MOL0     H  521   5.844   4.152   6.139  1.0937  0.8892  0.6532
  745MOL0     H  522   5.754   3.955   6.010 -0.3008 -1.2551  0.4618
  745MOL0     H  523   5.693   3.892   6.166  2.9054  0.6635  1.2135
  745MOL0     H  524   5.618   4.164   6.036  0.1971 -1.3296 -2.1045
  745MOL0     H  525   5.576   4.111   6.205 -4.1171 -1.2792 -0.3021
  745MOL0     H  526   5.321   4.094   6.153  0.6312  1.6046 -2.4544
  745MOL0     H  527   5.116   3.785   6.000 -2.0730  0.2075  0.3170
  745MOL0     H  528   5.113   3.869   6.142  1.5037 -1.5159  0.4120
  745MOL0     H  529   5.086   3.998   5.868  0.7068 -1.1238  0.4887
  745MOL0     H  530   5.062   4.100   6.008  0.5520  0.5295  0.7959
  745MOL0     H  531   4.868   3.968   6.076  0.2696 -0.6155  0.6345
  745MOL0     H  532   4.887   3.850   5.942 -0.6019  0.9602 -1.8056
  745MOL0     H  533   4.846   4.015   5.776  3.0343  3.0789  0.3286
  745MOL0     H  534   4.824   4.137   5.883 -1.4734  1.1393 -2.1465
  745MOL0     H  535   4.431   3.897   5.887  1.2309 -1.1153 -0.0968
  745MOL0     H  536   4.202   3.937   5.851  0.2104  0.7630  0.2255
  745MOL0     H  537   4.151   4.044   5.708 -0.6859 -1.0005 -1.9321
  745MOL0     H  538   4.172   3.869   5.699  0.4991 -1.8421  4.0587
  745MOL0     H  539   4.372   3.963   5.174  0.1606 -1.7397  0.5852
  745MOL0     H  540   4.237   3.968   4.963  2.8402  1.8784 -0.0010
  745MOL0     H  541   3.852   4.201   4.896 -1.2022 -2.2664 -1.5028
  745MOL0     H  542   4.000   4.296   4.858 -1.1985  0.2423  2.8958
  745MOL0     H  543   4.011   4.194   4.650  0.5760 -2.0561  0.3683
  745MOL0     H  544   3.928   4.055   4.697 -1.0545 -0.5985 -0.0921
  745MOL0     H  545   3.827   4.262   4.546 -1.2337 -1.7812 -1.0888
  745MOL0     H  546   3.770   4.303   4.717  0.4525 -1.0925  1.9831
  745MOL0     H  547   3.712   4.045   4.553  2.3701 -0.2390  0.4687
  745MOL0     H  548   3.652   4.087   4.709  1.7741 -1.2685 -0.7275
  745MOL0     H  549   3.601   4.258   4.447  0.7075 -1.0834 -0.6233
  745MOL0     H  550   3.537   4.288   4.612  1.1014  1.9343 -0.8204
  745MOL0     H  551   3.458   4.056   4.415 -1.2738  1.9954 -1.2196
  745MOL0     H  552   3.400   4.070   4.582 -0.0143 -1.9326 -1.3735
  745MOL0     H  553   3.402   4.315   4.394  3.0710 -2.6029 -2.0624
  745MOL0     H  554   3.290   4.280   4.515  0.6189 -1.7085  1.3390
  745MOL0     H  555   3.289   4.162   4.238 -0.0693 -2.4384 -0.3104
  745MOL0     H  556   3.158   4.248   4.328 -1.2255 -2.3330 -0.7569
  745MOL0     H  557   3.980   4.269   5.105 -0.2983  1.7156  2.8627
  745MOL0     H  558   4.092   4.274   5.319  1.0655  1.6665 -0.4839
  745MOL0     H  559   4.559   4.114   5.459 -0.3111 -0.4299  0.0203
  745MOL0     H  560   4.700   4.122   5.647 -0.5805  1.5547  3.0269
  745MOL0     H  561   6.527   3.794   6.396 -2.2694  0.0829 -0.5441
  745MOL0     H  562   6.763   3.715   6.381  1.8398 -0.5436  1.5917
  745MOL0     H  563   7.057   3.381   6.661 -1.3758  0.1280 -1.3397
  745MOL0     H  564   7.293   3.392   6.760 -3.0104  0.7836  1.8008
  745MOL0     H  565   7.561   3.399   6.815  0.4172  0.6326 -0.0533
  745MOL0     H  566   7.497   3.318   6.681 -0.3756  1.5501 -0.6160
  745MOL0     H  567   7.670   3.392   6.524  0.7355  0.7649  0.6377
  745MOL0     H  568   7.741   3.321   6.667 -0.2153 -0.4570  0.2529
  745MOL0     H  569   7.711   3.626   6.624 -0.0723  0.2221  3.2850
  745MOL0     H  570   7.851   3.509   6.583 -0.6777  0.9026  0.0283
  745MOL0     H  571   7.830   3.461   6.839 -2.6709  1.1388  1.4284
  745MOL0     H  572   7.717   3.602   6.847  2.1233  2.4102  1.7849
  745MOL0     H  573   8.103   3.775   6.838 -1.1552  1.4107  2.5807
  745MOL0     H  574   7.411   3.679   6.484  0.8752 -1.7672 -0.6169
  745MOL0     H  575   7.184   3.681   6.377 -1.0483 -0.6074  0.9573
  746MOL0     O  576   1.663   7.231   0.368  0.4366 -0.2786 -0.1683
  746MOL0     C  577   1.671   7.339   0.315 -0.1251 -0.8532  0.2905
  746MOL0     O  578   1.581   7.418   0.276  0.8776  0.6927  0.6165
  746MOL0     C  579   1.447   7.379   0.285 -1.0048 -0.4097 -0.1385
  746MOL0     C  580   1.381   7.384   0.407 -0.4006  0.7302  0.3662
  746MOL0     C  581   1.246   7.346   0.426  0.0175  0.2692  0.0801
  746MOL0     C  582   1.172   7.289   0.316 -0.6680  0.0877 -0.2141
  746MOL0     O  583   1.047   7.240   0.325 -0.2557 -0.0589 -0.3841
  746MOL0     C  584   0.965   7.293   0.432  0.9404  0.2486 -0.3251
  746MOL0     C  585   0.820   7.238   0.448  0.2181 -0.4879  0.2919
  746MOL0     C  586   0.760   7.242   0.305 -0.5374  0.6299  0.7320
  746MOL0     C  587   0.607   7.214   0.321 -0.0230 -0.2517 -0.0468
  746MOL0     C  588   0.546   7.132   0.203 -0.2767  0.0483 -0.0253
  746MOL0     C  589   0.543   7.215   0.079  0.3572 -0.3528  0.2982
  746MOL0     C  590   0.470   7.146  -0.033  0.0964  0.4772 -0.0504
  746MOL0     C  591   0.509   7.211  -0.169 -0.8601  0.4333 -0.0804
  746MOL0     N  592   0.459   7.346  -0.183  0.0233 -0.0767 -0.1680
  746MOL0     C  593   0.323   7.386  -0.186 -0.0449 -0.0433  0.3097
  746MOL0     C  594   0.324   7.518  -0.192  0.0926 -0.5916 -0.0439
  746MOL0     C  595   0.204   7.618  -0.197 -0.4528  0.0119 -0.5091
  746MOL0     C  596   0.140   7.634  -0.325 -0.1519  0.4021 -0.6052
  746MOL0     C  597  -0.011   7.668  -0.306 -0.3913 -0.2091 -0.3208
  746MOL0     C  598  -0.077   7.666  -0.442  0.3292  0.2070  0.7029
  746MOL0     O  599  -0.222   7.704  -0.435 -0.0543 -0.3926  0.3247
  746MOL0     C  600  -0.286   7.702  -0.560  0.9853 -0.1854 -0.6497
  746MOL0     C  601  -0.418   7.754  -0.561 -0.9341  0.1681 -0.8236
  746MOL0     C  602  -0.494   7.764  -0.676 -0.2530  0.4955 -0.4382
  746MOL0     C  603  -0.625   7.826  -0.670  0.2851 -1.4643  0.7503
  746MOL0     C  604  -0.448   7.705  -0.797  0.1468  0.1467 -0.2257
  746MOL0     C  605  -0.533   7.707  -0.925 -0.3440 -0.0653 -1.3702
  746MOL0     O  606  -0.456   7.706  -1.038  0.0959  0.3200 -0.2717
  746MOL0     C  607  -0.529   7.717  -1.154  0.8224 -0.3637  0.6381
  746MOL0     C  608  -0.583   7.610  -1.220  0.0573  0.2920  0.8482
  746MOL0     C  609  -0.649   7.624  -1.345  0.1628  0.3596 -0.1838
  746MOL0     C  610  -0.655   7.758  -1.410 -0.2074 -0.2176 -0.2234
  746MOL0     O  611  -0.716   7.789  -1.526  0.1474 -0.0256  0.2049
  746MOL0     C  612  -0.837   7.708  -1.560  0.4637  1.3286 -0.6915
  746MOL0     C  613  -0.957   7.797  -1.560 -0.0898  0.3632 -0.5751
  746MOL0     C  614  -1.095   7.732  -1.577 -0.0530 -0.0832  0.1409
  746MOL0     C  615  -1.212   7.837  -1.584 -0.0300  0.2192 -0.3429
  746MOL0     C  616  -1.225   7.912  -1.454  0.8269  0.5996 -0.2893
  746MOL0     C  617  -1.339   8.020  -1.476  0.8316  0.3329  1.1770
  746MOL0     C  618  -1.475   7.953  -1.460  0.1759  0.0931  0.6383
  746MOL0     C  619  -1.594   8.054  -1.485  0.3246 -0.1736 -0.0395
  746MOL0    Cl  620  -1.605   8.188  -1.375  0.0480 -0.1612  0.3264
  746MOL0     C  621  -0.607   7.867  -1.338 -0.4696 -0.3406 -0.3828
  746MOL0     C  622  -0.537   7.844  -1.217  0.9349 -0.7463 -0.0843
  746MOL0     O  623  -0.654   7.687  -0.928 -0.1973 -0.4004  0.7052
  746MOL0     C  624  -0.320   7.655  -0.791  1.1728  0.1700 -0.3335
  746MOL0     C  625  -0.240   7.650  -0.677  0.0124  0.0335  0.1695
  746MOL0     N  626   0.455   7.562  -0.180 -0.5864 -0.1020  0.4404
  746MOL0     N  627   0.533   7.458  -0.174 -0.3206  0.6049 -0.0652
  746MOL0     C  628   1.245   7.283   0.195  0.4892  0.0444 -0.0385
  746MOL0     C  629   1.374   7.327   0.180  0.0890  0.2504 -0.7288
  746MOL0     C  630   1.814   7.399   0.321  0.3377 -0.2517 -0.0190
  746MOL0     C  631   1.838   7.533   0.278  0.6157 -0.5106 -1.0988
  746MOL0     C  632   1.970   7.594   0.283 -0.2988  1.1789 -0.7427
  746MOL0     C  633   2.078   7.511   0.325  0.4038 -0.5887 -0.4419
  746MOL0     O  634   2.211   7.551   0.334  0.0281  0.3216  0.3670
  746MOL0     C  635   2.243   7.687   0.307 -0.5904 -0.1145 -0.7746
  746MOL0     C  636   2.391   7.709   0.313 -0.3608 -0.8793  0.5678
  746MOL0     C  637   2.427   7.862   0.328 -0.3353  0.1134  0.1401
  746MOL0     C  638   2.579   7.896   0.305 -0.3902  0.1279  0.7766
  746MOL0     C  639   2.653   7.837   0.420 -0.6549 -0.2809  0.6022
  746MOL0     C  640   2.713   7.788   0.512  0.3904  0.5327  0.7311
  746MOL0     C  641   2.053   7.377   0.369 -0.2812  0.0678  0.8347
  746MOL0     C  642   1.926   7.325   0.369 -0.9694 -0.7113 -0.2058
  746MOL0     H  643   1.423   7.436   0.493  0.6220 -1.3885  1.2303
  746MOL0     H  644   1.204   7.372   0.522 -1.0324 -3.6053  0.8304
  746MOL0     H  645   1.014   7.271   0.527 -2.0017 -2.0947  0.7996
  746MOL0     H  646   0.955   7.402   0.428  1.0376  0.4338  2.4547
  746MOL0     H  647   0.814   7.136   0.486  0.5942 -0.4840  0.3678
  746MOL0     H  648   0.754   7.303   0.507 -1.4775 -1.1699 -0.7970
  746MOL0     H  649   0.768   7.335   0.247 -1.7952  1.4569  1.8177
  746MOL0     H  650   0.816   7.174   0.241 -0.0803 -1.0510  2.7923
  746MOL0     H  651   0.583   7.155   0.410  0.0675 -2.6406 -1.4986
  746MOL0     H  652   0.566   7.315   0.330  1.1058  0.3327 -1.1879
  746MOL0     H  653   0.607   7.042   0.188  2.0619  0.8753  3.2785
  746MOL0     H  654   0.445   7.100   0.227 -0.6028 -0.2243 -1.6610
  746MOL0     H  655   0.494   7.308   0.108  0.8376 -0.5021  1.6523
  746MOL0     H  656   0.646   7.242   0.051 -0.9143  4.0527 -0.8217
  746MOL0     H  657   0.505   7.043  -0.042 -0.3562  0.2434  0.8006
  746MOL0     H  658   0.362   7.145  -0.017  0.1652 -0.2529  0.3554
  746MOL0     H  659   0.464   7.145  -0.244 -1.1939  0.5174  0.0467
  746MOL0     H  660   0.618   7.223  -0.173 -0.8958  0.7446 -0.1605
  746MOL0     H  661   0.236   7.321  -0.192 -1.1060  0.9445  3.1422
  746MOL0     H  662   0.134   7.594  -0.118  0.2009  1.5070  0.5792
  746MOL0     H  663   0.245   7.718  -0.179 -2.6805  1.3071 -2.1781
  746MOL0     H  664   0.145   7.531  -0.362  1.4796  0.3674 -0.3561
  746MOL0     H  665   0.189   7.704  -0.392  1.4963 -0.8477 -0.7624
  746MOL0     H  666  -0.021   7.772  -0.271 -0.4743  0.0982 -1.2166
  746MOL0     H  667  -0.077   7.606  -0.245 -5.5920  0.0890 -4.8386
  746MOL0     H  668  -0.070   7.558  -0.459 -0.8432  0.1404  0.5609
  746MOL0     H  669  -0.016   7.713  -0.519 -0.8780  1.5143  0.5049
  746MOL0     H  670  -0.472   7.768  -0.468  0.9903  0.9958  0.2320
  746MOL0     H  671  -0.622   7.900  -0.589 -1.1295  2.7321 -2.6283
  746MOL0     H  672  -0.644   7.887  -0.759  4.2255 -0.4556  0.4244
  746MOL0     H  673  -0.705   7.752  -0.662 -0.8519 -0.2131  1.5063
  746MOL0     H  674  -0.571   7.510  -1.178  1.7979  0.6331  1.2702
  746MOL0     H  675  -0.687   7.534  -1.392  2.8859  0.0879 -2.1413
  746MOL0     H  676  -0.829   7.651  -1.653  0.5396 -1.7650  1.0687
  746MOL0     H  677  -0.857   7.635  -1.480 -1.3952  1.8370 -0.6472
  746MOL0     H  678  -0.945   7.836  -1.458  3.0668  0.7007 -0.9602
  746MOL0     H  679  -0.953   7.873  -1.639  0.2538 -0.1377 -1.0481
  746MOL0     H  680  -1.107   7.676  -1.484  0.7746  2.3523  1.8171
  746MOL0     H  681  -1.092   7.664  -1.662  0.8924  1.4169 -1.0682
  746MOL0     H  682  -1.191   7.909  -1.665  0.2040 -0.9770 -1.3734
  746MOL0     H  683  -1.305   7.786  -1.609 -0.0216  0.4613 -0.8966
  746MOL0     H  684  -1.135   7.973  -1.440  0.2188  1.5974 -0.7141
  746MOL0     H  685  -1.233   7.856  -1.360  4.1760  0.8200  0.2530
  746MOL0     H  686  -1.332   8.095  -1.397  3.3552  0.1592  1.2068
  746MOL0     H  687  -1.336   8.073  -1.572 -2.1018  2.4042  2.0840
  746MOL0     H  688  -1.486   7.917  -1.357 -0.7029 -2.7629 -0.3636
  746MOL0     H  689  -1.487   7.871  -1.531 -2.2094  2.0295 -1.3801
  746MOL0     H  690  -1.686   7.995  -1.490  1.2058 -1.6875  0.8383
  746MOL0     H  691  -1.588   8.103  -1.583 -0.4215  0.4238  0.2048
  746MOL0     H  692  -0.614   7.964  -1.388 -0.0283  0.7678  1.6065
  746MOL0     H  693  -0.511   7.937  -1.167 -1.7046  0.4142 -0.7376
  746MOL0     H  694  -0.268   7.612  -0.876  2.5413 -0.6506  0.8776
  746MOL0     H  695  -0.142   7.604  -0.685 -0.0853 -0.0810 -0.4783
  746MOL0     H  696   1.188   7.225   0.123 -0.8836  0.0824  0.9672
  746MOL0     H  697   1.419   7.308   0.083 -2.2594  0.0222 -1.8395
  746MOL0     H  698   1.761   7.604   0.252  0.7369 -0.4906 -1.4032
  746MOL0     H  699   1.983   7.692   0.238 -0.5361  1.4799 -0.1732
  746MOL0     H  700   2.201   7.729   0.215 -3.4158 -1.4807 -0.2236
  746MOL0     H  701   2.196   7.748   0.385 -4.3880  0.3069 -3.1243
  746MOL0     H  702   2.442   7.679   0.221 -0.9843 -0.9819  0.2470
  746MOL0     H  703   2.438   7.659   0.398  1.3263  0.6341  0.5889
  746MOL0     H  704   2.400   7.892   0.429 -2.0755  0.5899 -0.4455
  746MOL0     H  705   2.378   7.934   0.262  1.0711 -0.9339 -2.2071
  746MOL0     H  706   2.585   8.005   0.295  3.0419 -0.0357 -0.3067
  746MOL0     H  707   2.618   7.860   0.209  0.8712  0.6237  1.0822
  746MOL0     H  708   2.760   7.734   0.591  1.6339  0.9190  0.2749
  746MOL0     H  709   2.136   7.315   0.399 -1.3480 -2.2270 -0.7035
  746MOL0     H  710   1.918   7.224   0.407  0.9026 -0.5048  0.8989
  747MOL0     O  711   2.380   9.464   9.851 -0.2476 -0.6962 -0.0435
  747MOL0     C  712   2.395   9.581   9.799 -0.4789  1.9116  0.3791
  747MOL0     O  713   2.299   9.667   9.781 -0.6014  0.0420  0.2245
  747MOL0     C  714   2.170   9.623   9.801  0.6775  0.7404  0.8279
  747MOL0     C  715   2.074   9.647   9.697 -0.3544  0.0359 -0.2707
  747MOL0     C  716   1.935   9.618   9.715  0.7326 -0.4114 -0.1929
  747MOL0     C  717   1.880   9.574   9.834 -0.6428  0.5079 -0.2970
  747MOL0     O  718   1.753   9.526   9.840  0.4153 -0.6534 -0.5275
  747MOL0     C  719   1.722   9.421   9.920  0.9113 -0.4678 -0.3476
  747MOL0     C  720   1.599   9.466  10.000 -0.1584 -0.9350 -0.5824
  747MOL0     C  721   1.563   9.353  10.100 -0.4413 -0.6994  0.2160
  747MOL0     C  722   1.602   9.398  10.240  0.5015 -0.0058 -0.2280
  747MOL0     C  723   1.603   9.279  10.333 -0.3597  0.1578  0.2869
  747MOL0     C  724   1.464   9.235  10.379 -0.2056  0.2069  0.1034
  747MOL0     C  725   1.428   9.312  10.503 -0.1404 -0.0348  0.9576
  747MOL0     C  726   1.442   9.228  10.628  0.9637  0.7422 -0.4678
  747MOL0     N  727   1.317   9.151  10.667 -1.1137  0.1341 -0.4709
  747MOL0     C  728   1.193   9.203  10.698  0.0549 -0.8266  0.8334
  747MOL0     C  729   1.115   9.099  10.733  0.6363 -0.9241 -0.3219
  747MOL0     C  730   0.980   9.123  10.791  0.3446 -0.1505  0.0191
  747MOL0     C  731   0.878   9.072  10.689  0.2487  0.2351 -0.8159
  747MOL0     C  732   0.735   9.084  10.758 -0.0410  0.2111 -0.7362
  747MOL0     C  733   0.625   9.059  10.659 -0.1952  1.5143 -0.1672
  747MOL0     O  734   0.608   8.918  10.648  0.6389  0.0251  0.8906
  747MOL0     C  735   0.495   8.887  10.572  0.3709  0.2807 -0.4664
  747MOL0     C  736   0.417   8.976  10.494 -0.3329 -0.0359 -0.2002
  747MOL0     C  737   0.317   8.934  10.418  0.9365 -0.4633 -0.1192
  747MOL0     C  738   0.242   9.039  10.334  0.4525  0.8222  0.3148
  747MOL0     C  739   0.267   8.799  10.434  0.2604  0.2036 -0.1472
  747MOL0     C  740   0.148   8.743  10.369  0.2492  0.0350  0.5378
  747MOL0     O  741   0.091   8.627  10.427  1.1945  0.7479  0.3058
  747MOL0     C  742  -0.041   8.591  10.393  0.3024 -0.4993  0.5546
  747MOL0     C  743  -0.150   8.681  10.413 -0.5477 -0.2589 -0.3239
  747MOL0     C  744  -0.278   8.656  10.362  0.3190  0.2591  0.6182
  747MOL0     C  745  -0.303   8.540  10.282 -0.4179 -0.0727 -0.1776
  747MOL0     O  746  -0.423   8.525  10.223 -0.3502 -0.0946 -0.0809
  747MOL0     C  747  -0.466   8.412  10.144 -0.0247 -0.1056 -0.1031
  747MOL0     C  748  -0.610   8.455  10.098 -0.4962 -0.1203 -0.5264
  747MOL0     C  749  -0.702   8.464  10.216  0.0631  0.8584 -0.3628
  747MOL0     C  750  -0.833   8.530  10.200 -0.1308 -0.7457  0.0725
  747MOL0     C  751  -0.911   8.482  10.079  0.4674  0.1750  0.2691
  747MOL0     C  752  -1.026   8.588  10.057  0.4777  0.1243  0.2272
  747MOL0     C  753  -1.146   8.582  10.151 -0.8911 -0.8270 -0.2521
  747MOL0     C  754  -1.201   8.448  10.178 -0.0704 -0.1861 -0.3082
  747MOL0    Cl  755  -1.221   8.373  10.021  0.4946  0.1409  0.4719
  747MOL0     C  756  -0.202   8.454  10.259 -0.3547  0.1231 -0.1905
  747MOL0     C  757  -0.080   8.472  10.320 -0.8506  0.2506 -0.1381
  747MOL0     O  758   0.107   8.797  10.263  0.2605 -0.2644  0.0164
  747MOL0     C  759   0.343   8.712  10.515 -0.7953  0.1106 -0.4435
  747MOL0     C  760   0.462   8.752  10.573  0.1133  0.4525  0.7058
  747MOL0     N  761   1.188   8.988  10.739  0.5492 -0.7624  0.3658
  747MOL0     N  762   1.313   9.016  10.694  0.6170 -0.2662 -0.4477
  747MOL0     C  763   1.979   9.565   9.936  0.2867 -0.3083 -0.4077
  747MOL0     C  764   2.113   9.585   9.922  0.6359 -0.1191 -0.0646
  747MOL0     C  765   2.530   9.618   9.774 -1.2294 -0.7621  0.0914
  747MOL0     C  766   2.571   9.756   9.744 -0.1799  0.5965  0.3631
  747MOL0     C  767   2.705   9.779   9.703  0.4493 -0.0685 -0.1024
  747MOL0     C  768   2.805   9.680   9.726  0.0761 -0.1200 -0.5493
  747MOL0     O  769   2.933   9.723   9.705 -0.4320 -0.4865  0.8879
  747MOL0     C  770   3.030   9.619   9.678 -0.7246 -0.1250  0.1692
  747MOL0     C  771   3.154   9.678   9.608  0.6401  0.5053  0.4341
  747MOL0     C  772   3.116   9.743   9.477 -0.6402 -0.1983 -0.2702
  747MOL0     C  773   3.234   9.808   9.402 -0.1210 -0.2174 -0.3640
  747MOL0     C  774   3.191   9.880   9.286  0.1079 -0.3159 -0.1011
  747MOL0     C  775   3.141   9.946   9.197  0.1099 -0.1180 -0.0693
  747MOL0     C  776   2.769   9.553   9.766  0.6834  0.1896 -0.3462
  747MOL0     C  777   2.637   9.524   9.788  0.0091 -0.0287  0.3719
  747MOL0     H  778   2.113   9.683   9.602  0.9059  0.0342  0.2174
  747MOL0     H  779   1.864   9.634   9.634 -0.4681 -0.5006  0.8168
  747MOL0     H  780   1.698   9.334   9.858  0.6458 -1.9036  1.6761
  747MOL0     H  781   1.801   9.389   9.988 -0.7886 -1.0208  1.4797
  747MOL0     H  782   1.617   9.563  10.047  0.0294 -2.8487  3.8738
  747MOL0     H  783   1.520   9.474   9.925  0.3954 -1.1909 -1.1963
  747MOL0     H  784   1.456   9.336  10.088 -0.4956  0.6136 -1.4253
  747MOL0     H  785   1.604   9.254  10.078  0.8997 -0.3173  0.8677
  747MOL0     H  786   1.704   9.439  10.236  0.9049 -1.0279 -0.6536
  747MOL0     H  787   1.541   9.482  10.276  1.5994  0.6732  0.1063
  747MOL0     H  788   1.640   9.196  10.273  0.6388  0.6004  0.2565
  747MOL0     H  789   1.674   9.307  10.412 -0.6253 -0.2728  0.6826
  747MOL0     H  790   1.393   9.267  10.302  0.0031 -1.8831 -1.0610
  747MOL0     H  791   1.458   9.126  10.393 -1.0507  0.5018  2.3791
  747MOL0     H  792   1.499   9.394  10.515  1.5039 -1.1608 -0.5872
  747MOL0     H  793   1.324   9.346  10.495 -0.4191 -0.9411  0.5976
  747MOL0     H  794   1.459   9.293  10.714 -1.7677  2.3582 -1.0221
  747MOL0     H  795   1.519   9.152  10.610 -1.1066 -1.3695 -0.9834
  747MOL0     H  796   1.173   9.309  10.694 -0.9016 -1.0283  0.0380
  747MOL0     H  797   0.982   9.070  10.887  0.8222 -2.2094 -1.0813
  747MOL0     H  798   0.969   9.232  10.802  1.3731  0.2874 -2.5612
  747MOL0     H  799   0.900   8.966  10.671  2.9611  0.8618 -1.6254
  747MOL0     H  800   0.869   9.136  10.601 -2.2304  1.3544  0.1615
  747MOL0     H  801   0.720   9.186  10.795  0.1526  1.4127 -3.6932
  747MOL0     H  802   0.740   9.013  10.841  4.3438  3.3745  2.2332
  747MOL0     H  803   0.648   9.092  10.557 -1.4558 -2.8530 -2.1011
  747MOL0     H  804   0.530   9.104  10.688 -1.7121 -0.5273 -1.6474
  747MOL0     H  805   0.448   9.080  10.489  1.3591 -0.5199 -0.3775
  747MOL0     H  806   0.294   9.134  10.350  1.4583  0.2799  0.3647
  747MOL0     H  807   0.239   9.005  10.230  0.4397 -2.1363  1.1863
  747MOL0     H  808   0.138   9.043  10.368  0.2079 -2.2786  0.2408
  747MOL0     H  809  -0.134   8.770  10.472 -0.7090  0.2799 -1.0756
  747MOL0     H  810  -0.355   8.728  10.388 -0.9739 -0.1873 -1.6694
  747MOL0     H  811  -0.400   8.393  10.059  0.0773  1.3859 -0.3751
  747MOL0     H  812  -0.474   8.317  10.198  0.9567  0.5637  1.2773
  747MOL0     H  813  -0.609   8.547  10.040  0.7332  0.1400 -0.1167
  747MOL0     H  814  -0.647   8.382  10.026 -0.6505  1.4667 -2.1293
  747MOL0     H  815  -0.669   8.527  10.299 -1.7299  0.9088  0.3565
  747MOL0     H  816  -0.715   8.360  10.246 -2.5336  0.6535 -1.8442
  747MOL0     H  817  -0.890   8.504  10.290  1.2441 -2.0003  0.6246
  747MOL0     H  818  -0.817   8.637  10.187 -2.5608 -0.5046 -1.5913
  747MOL0     H  819  -0.948   8.383  10.106 -0.1353  1.1566  3.3960
  747MOL0     H  820  -0.845   8.476   9.991  0.9342  0.7444  0.5743
  747MOL0     H  821  -0.975   8.683  10.042 -0.5860  0.7383  0.4013
  747MOL0     H  822  -1.074   8.562   9.962 -2.4401 -3.4994  2.3903
  747MOL0     H  823  -1.222   8.651  10.111 -1.0311 -1.4492 -1.0964
  747MOL0     H  824  -1.114   8.631  10.243  1.2817 -1.3286 -0.6949
  747MOL0     H  825  -1.293   8.453  10.237  1.0105 -2.0274  1.6756
  747MOL0     H  826  -1.124   8.390  10.229  1.2239  1.5215 -0.2243
  747MOL0     H  827  -0.208   8.361  10.202  0.9558 -0.2715  0.2775
  747MOL0     H  828  -0.015   8.388  10.302 -0.8828 -0.3979  2.3687
  747MOL0     H  829   0.310   8.609  10.520 -0.1616 -0.0945 -0.4392
  747MOL0     H  830   0.526   8.689  10.634  0.2762  0.6727  0.7630
  747MOL0     H  831   1.943   9.544  10.036 -0.1893  4.6575  0.7014
  747MOL0     H  832   2.168   9.579  10.015 -0.0426  0.7314  0.4092
  747MOL0     H  833   2.500   9.838   9.741  0.9189  1.5404 -1.8037
  747MOL0     H  834   2.730   9.878   9.668 -2.4215  0.3726 -1.0930
  747MOL0     H  835   3.065   9.574   9.771 -0.6087  2.3622  1.4132
  747MOL0     H  836   2.993   9.540   9.612  2.1831 -0.5764 -1.0615
  747MOL0     H  837   3.227   9.598   9.591 -0.7751 -0.4851 -1.3954
  747MOL0     H  838   3.204   9.751   9.671 -2.8733  2.4753  1.1979
  747MOL0     H  839   3.047   9.824   9.501 -0.1373 -0.0123  0.5886
  747MOL0     H  840   3.084   9.669   9.404  0.6919  0.8467 -2.0141
  747MOL0     H  841   3.296   9.726   9.364 -1.3162  0.2117 -3.5366
  747MOL0     H  842   3.302   9.875   9.455  0.8481 -0.2376 -1.5395
  747MOL0     H  843   3.119   9.999   9.107  0.3772 -2.4354 -1.5979
  747MOL0     H  844   2.827   9.464   9.786 -0.8300 -0.7235  0.1561
  747MOL0     H  845   2.605   9.421   9.799 -1.4747 -0.0129 -2.8045
  748MOL0     O  846   5.205   2.594   8.359 -0.0806 -0.3703 -0.1848
  748MOL0     C  847   5.320   2.634   8.358 -0.0278 -0.0028 -0.0443
  748MOL0     O  848   5.361   2.760   8.331  0.2980  0.0577  0.0609
  748MOL0     C  849   5.266   2.858   8.299 -0.2448 -0.8193 -0.3352
  748MOL0     C  850   5.311   2.943   8.198 -0.1485  0.8486 -0.5975
  748MOL0     C  851   5.231   3.051   8.159 -0.1130 -0.2131 -0.1777
  748MOL0     C  852   5.101   3.070   8.216  0.3169 -1.0738  0.0323
  748MOL0     O  853   5.021   3.169   8.173  0.3479  0.1814  1.5506
  748MOL0     C  854   5.062   3.308   8.156  0.6237  0.2995 -0.3076
  748MOL0     C  855   4.957   3.396   8.223  0.4614  0.5737  0.1862
  748MOL0     C  856   4.822   3.407   8.138 -0.5387  1.1743 -0.4026
  748MOL0     C  857   4.727   3.524   8.199  0.1578  0.1605  0.1068
  748MOL0     C  858   4.596   3.525   8.123 -0.2698  1.0651 -0.1360
  748MOL0     C  859   4.481   3.580   8.203 -0.4278  0.1927  0.1265
  748MOL0     C  860   4.349   3.551   8.120 -0.1541  1.1415  0.3536
  748MOL0     C  861   4.239   3.652   8.166 -0.8501  0.3350  0.4107
  748MOL0     N  862   4.099   3.604   8.139 -0.2500 -1.1619  0.1925
  748MOL0     C  863   3.997   3.573   8.215  0.1859  0.2089 -0.6847
  748MOL0     C  864   3.885   3.580   8.138  0.1301  1.2843 -0.0412
  748MOL0     C  865   3.740   3.565   8.181  0.2837  0.2144 -0.0804
  748MOL0     C  866   3.647   3.532   8.065  0.7941  0.2421 -0.3138
  748MOL0     C  867   3.501   3.526   8.120 -0.3433  1.1692 -0.6098
  748MOL0     C  868   3.395   3.505   8.004 -0.4152 -0.3876 -0.2534
  748MOL0     O  869   3.255   3.477   8.051  0.5280 -0.5066 -0.0928
  748MOL0     C  870   3.207   3.351   8.048 -0.5520  0.0094 -0.4122
  748MOL0     C  871   3.286   3.238   8.049 -0.1991  0.1926 -0.2694
  748MOL0     C  872   3.235   3.110   8.065 -0.9369 -0.0986  0.0597
  748MOL0     C  873   3.328   2.994   8.056 -0.3065  0.1932 -0.4038
  748MOL0     C  874   3.091   3.104   8.082 -1.1031 -0.2464 -0.2044
  748MOL0     C  875   3.018   2.978   8.088 -0.0572  0.4171 -0.6946
  748MOL0     O  876   2.915   2.969   8.178  0.6035  1.1430 -0.3886
  748MOL0     C  877   2.811   2.887   8.140 -0.2294  0.1889  0.4600
  748MOL0     C  878   2.770   2.792   8.230 -0.1741 -0.0949 -0.4238
  748MOL0     C  879   2.661   2.707   8.211  0.4623  0.3565 -0.8545
  748MOL0     C  880   2.609   2.698   8.083  0.1026 -0.7469  0.1382
  748MOL0     O  881   2.497   2.624   8.056 -0.2571 -0.6442  0.1601
  748MOL0     C  882   2.504   2.485   8.100  0.5725  0.5116 -0.1588
  748MOL0     C  883   2.363   2.437   8.085  0.2934  0.0242  0.6240
  748MOL0     C  884   2.264   2.498   8.181 -0.3524  0.3745  0.3389
  748MOL0     C  885   2.131   2.411   8.178  0.0698  0.0508  0.6266
  748MOL0     C  886   2.030   2.493   8.264  0.2465 -1.0771 -0.8385
  748MOL0     C  887   2.055   2.503   8.417 -0.1679 -0.1967  0.5141
  748MOL0     C  888   1.930   2.565   8.489 -0.6222 -0.0465 -0.4573
  748MOL0     C  889   1.961   2.582   8.639 -0.3899 -0.2287 -0.0867
  748MOL0    Cl  890   2.028   2.441   8.713 -0.3412  0.1149  0.3988
  748MOL0     C  891   2.656   2.784   7.980 -0.1893 -0.9998 -0.3517
  748MOL0     C  892   2.750   2.882   8.014  0.5452  0.4867 -0.8270
  748MOL0     O  893   3.044   2.892   8.006  0.4341  0.2798 -0.2562
  748MOL0     C  894   3.014   3.220   8.090 -0.8175 -0.0860 -0.0220
  748MOL0     C  895   3.071   3.342   8.073 -0.3018 -0.6907 -0.4812
  748MOL0     N  896   3.930   3.612   8.011 -0.3462  0.0470 -0.0851
  748MOL0     N  897   4.064   3.621   8.014 -0.4449  1.0799  0.1145
  748MOL0     C  898   5.050   2.979   8.307  0.2135 -0.5598  0.3433
  748MOL0     C  899   5.136   2.879   8.352 -0.2533 -0.3333  0.1185
  748MOL0     C  900   5.419   2.535   8.401 -0.7731  0.0139  0.4021
  748MOL0     C  901   5.386   2.431   8.489 -0.3236 -0.4960 -0.2786
  748MOL0     C  902   5.486   2.344   8.533  0.5590  0.1701  0.2535
  748MOL0     C  903   5.624   2.357   8.490  0.5904  0.9600 -0.6847
  748MOL0     O  904   5.729   2.273   8.510  0.2255  0.7922  0.0403
  748MOL0     C  905   5.734   2.179   8.613 -0.2518 -0.2747 -0.2867
  748MOL0     C  906   5.868   2.107   8.623 -0.1208 -0.1082  0.3733
  748MOL0     C  907   5.842   1.971   8.679  0.0453  0.2234  0.0849
  748MOL0     C  908   5.978   1.923   8.710 -0.2459  0.1334  0.3869
  748MOL0     C  909   5.969   1.780   8.763 -0.6197 -0.1143  0.3964
  748MOL0     C  910   5.992   1.671   8.813  1.1534 -0.0436  1.2646
  748MOL0     C  911   5.650   2.455   8.400 -0.2264  0.2239  1.1961
  748MOL0     C  912   5.554   2.543   8.353  0.2142  0.0815 -0.2870
  748MOL0     H  913   5.403   2.930   8.142  1.7124  0.4776  2.3478
  748MOL0     H  914   5.259   3.127   8.086 -2.1835  0.3005 -0.5062
  748MOL0     H  915   5.165   3.317   8.192  0.7901 -1.9904 -0.0401
  748MOL0     H  916   5.070   3.321   8.048  2.1970  1.2051 -0.1095
  748MOL0     H  917   4.933   3.346   8.318  1.5742 -1.8249 -0.7051
  748MOL0     H  918   4.998   3.496   8.239  2.0521 -0.3636  2.6187
  748MOL0     H  919   4.852   3.433   8.036  0.4628 -1.4103 -0.8356
  748MOL0     H  920   4.762   3.318   8.122 -1.7932  1.3928  2.5241
  748MOL0     H  921   4.712   3.504   8.306  0.3647 -0.2336  0.0643
  748MOL0     H  922   4.772   3.623   8.191 -1.5129  0.9846  0.3347
  748MOL0     H  923   4.608   3.587   8.033  1.4098 -1.3317 -1.6876
  748MOL0     H  924   4.573   3.419   8.104 -2.7610  1.7271 -1.3897
  748MOL0     H  925   4.481   3.523   8.296  1.6598  1.4531  0.9784
  748MOL0     H  926   4.485   3.687   8.224  0.9690  0.0142  0.8840
  748MOL0     H  927   4.381   3.558   8.016 -1.3735  1.8916  0.0066
  748MOL0     H  928   4.317   3.447   8.132 -1.9437  1.7696  1.4371
  748MOL0     H  929   4.271   3.739   8.107  2.2858 -2.4829 -2.4410
  748MOL0     H  930   4.266   3.668   8.271  3.1177 -1.7544 -0.1131
  748MOL0     H  931   3.999   3.541   8.319 -0.0843  0.7414 -0.5128
  748MOL0     H  932   3.734   3.478   8.247  0.5143 -0.2033 -0.5995
  748MOL0     H  933   3.715   3.660   8.228 -0.3574 -0.2916  0.6168
  748MOL0     H  934   3.683   3.445   8.009 -1.4270  1.1498 -3.4279
  748MOL0     H  935   3.659   3.613   7.993  1.0674  0.2078 -0.3052
  748MOL0     H  936   3.473   3.609   8.185  0.9096  2.4435 -1.6406
  748MOL0     H  937   3.507   3.442   8.190  2.1747  1.1007 -0.8307
  748MOL0     H  938   3.424   3.425   7.935 -1.0128 -0.9693  0.1567
  748MOL0     H  939   3.397   3.596   7.943 -1.7210 -0.1159  0.0955
  748MOL0     H  940   3.393   3.257   8.043 -0.4839  1.3476 -2.8013
  748MOL0     H  941   3.302   2.945   7.962  0.2281  2.8792 -2.0682
  748MOL0     H  942   3.431   3.028   8.043 -1.4112  3.7698 -0.8665
  748MOL0     H  943   3.319   2.923   8.139  1.5057 -0.1122 -0.4346
  748MOL0     H  944   2.809   2.794   8.331  0.9477  0.3180 -0.8459
  748MOL0     H  945   2.620   2.659   8.299  0.9876 -0.3765 -1.0003
  748MOL0     H  946   2.568   2.420   8.040  1.9312 -0.2230  1.9625
  748MOL0     H  947   2.530   2.471   8.205 -1.2012  2.0446  0.5416
  748MOL0     H  948   2.336   2.455   7.981 -1.2999 -0.7941  0.8677
  748MOL0     H  949   2.353   2.329   8.102 -4.0709 -0.1214 -1.5027
  748MOL0     H  950   2.246   2.605   8.169  0.9232  0.6740  0.8825
  748MOL0     H  951   2.299   2.493   8.285  1.0105  1.4316 -0.0375
  748MOL0     H  952   2.100   2.397   8.074  1.6436  2.5513 -0.2756
  748MOL0     H  953   2.158   2.321   8.234  1.7510  1.4588  2.1915
  748MOL0     H  954   1.932   2.447   8.248 -1.2288  1.6591 -0.2823
  748MOL0     H  955   2.027   2.595   8.223  0.1086  0.0578  1.8259
  748MOL0     H  956   2.075   2.406   8.464 -0.2651 -0.0552  0.8553
  748MOL0     H  957   2.135   2.574   8.438 -0.5543  0.2376  0.5211
  748MOL0     H  958   1.848   2.493   8.486 -0.1758 -0.6203  0.4751
  748MOL0     H  959   1.893   2.657   8.444 -2.3938 -1.1906 -1.4491
  748MOL0     H  960   1.873   2.620   8.692 -0.4736 -0.1758 -0.2650
  748MOL0     H  961   2.044   2.652   8.652 -1.7575  1.4307  0.0709
  748MOL0     H  962   2.599   2.793   7.888 -0.3133 -1.8293 -0.3606
  748MOL0     H  963   2.773   2.963   7.946 -2.8548  1.5896 -0.8740
  748MOL0     H  964   2.907   3.205   8.102 -0.3119 -4.0287  0.7062
  748MOL0     H  965   3.008   3.431   8.075  2.3562  1.3784 -1.4342
  748MOL0     H  966   4.950   2.978   8.350  0.3485  1.3837  0.8383
  748MOL0     H  967   5.093   2.810   8.424  1.6996 -0.9535  0.7721
  748MOL0     H  968   5.283   2.413   8.516 -0.3088 -2.1063 -1.1255
  748MOL0     H  969   5.468   2.261   8.601  0.2218  0.2200  0.2260
  748MOL0     H  970   5.716   2.232   8.707  1.6969 -0.8668  0.4744
  748MOL0     H  971   5.657   2.109   8.579  0.1615 -0.8456 -0.0669
  748MOL0     H  972   5.927   2.157   8.701  0.5512  0.8171 -0.6869
  748MOL0     H  973   5.913   2.103   8.523 -0.7382 -2.5514  0.1439
  748MOL0     H  974   5.784   1.904   8.615  0.9326  0.2252 -0.7389
  748MOL0     H  975   5.791   1.988   8.774  0.3249 -1.3339  0.5417
  748MOL0     H  976   6.029   1.982   8.787  4.7446  1.2829 -3.2832
  748MOL0     H  977   6.047   1.924   8.625 -0.8312  1.5038 -0.1009
  748MOL0     H  978   6.026   1.576   8.849  1.5871 -0.7809 -0.9395
  748MOL0     H  979   5.751   2.468   8.362 -0.7127  0.1498 -0.1646
  748MOL0     H  980   5.569   2.605   8.265 -0.5240  0.8272  0.0952
  749MOL0     O  981  10.752   8.397   0.338  0.1556  0.4375  0.1936
  749MOL0     C  982  10.750   8.322   0.237 -0.4271 -0.8989 -0.0754
  749MOL0     O  983  10.648   8.314   0.148 -0.3907  0.1972  0.0882
  749MOL0     C  984  10.524   8.376   0.175  0.9022 -0.4584  0.3150
  749MOL0     C  985  10.416   8.286   0.183 -0.0302 -0.2045  0.1991
  749MOL0     C  986  10.293   8.332   0.216 -0.3108  0.0740  0.5246
  749MOL0     C  987  10.259   8.466   0.247  0.3019  0.1304 -0.1763
  749MOL0     O  988  10.134   8.508   0.280 -0.0028  0.5674  0.3295
  749MOL0     C  989  10.102   8.638   0.244  0.0653 -0.2070 -0.5799
  749MOL0     C  990   9.953   8.640   0.208 -0.1057 -0.3049 -0.0453
  749MOL0     C  991   9.850   8.596   0.320 -0.5225 -0.3197 -0.8310
  749MOL0     C  992   9.707   8.615   0.267  0.5236  0.8625  0.1144
  749MOL0     C  993   9.601   8.602   0.381 -0.2528  0.1978  0.5834
  749MOL0     C  994   9.595   8.713   0.485 -0.4668 -0.0267  0.1961
  749MOL0     C  995   9.610   8.855   0.432  0.0408 -1.3671  0.2906
  749MOL0     C  996   9.600   8.954   0.553  0.2049  0.6953 -0.5966
  749MOL0     N  997   9.476   8.953   0.633 -0.3304  1.0356 -0.4410
  749MOL0     C  998   9.354   8.961   0.572 -0.2251 -0.4143  0.5946
  749MOL0     C  999   9.265   8.948   0.673 -0.9572 -0.5071  0.6995
  749MOL0     C 1000   9.113   8.950   0.676 -0.3486  0.6797 -0.5688
  749MOL0     C 1001   9.052   8.819   0.636 -0.8069  0.3499 -0.1157
  749MOL0     C 1002   9.113   8.772   0.497  0.4487 -0.2346  0.6484
  749MOL0     C 1003   9.009   8.697   0.414 -0.1882  0.9274 -0.1417
  749MOL0     O 1004   8.894   8.776   0.374 -0.2533 -0.0734 -0.1468
  749MOL0     C 1005   8.811   8.723   0.285 -0.3195 -0.4362  0.1443
  749MOL0     C 1006   8.788   8.582   0.263  0.1629 -0.1058  0.0904
  749MOL0     C 1007   8.684   8.548   0.177  0.1202 -0.3659  1.7122
  749MOL0     C 1008   8.650   8.396   0.175  0.1864  0.5015  0.4155
  749MOL0     C 1009   8.596   8.635   0.111 -0.1675  0.2169  0.7704
  749MOL0     C 1010   8.483   8.604   0.014  0.2172  0.4329  0.7460
  749MOL0     O 1011   8.413   8.711  -0.034  0.1017 -0.4584 -0.2220
  749MOL0     C 1012   8.292   8.683  -0.098 -0.0429  0.1722  0.0065
  749MOL0     C 1013   8.285   8.622  -0.223 -0.0602  0.4420 -0.1577
  749MOL0     C 1014   8.153   8.622  -0.278  0.5578 -0.2125  0.2616
  749MOL0     C 1015   8.036   8.660  -0.202  0.5199  0.3776  0.8982
  749MOL0     O 1016   7.910   8.642  -0.262  0.1921  0.4554 -0.5669
  749MOL0     C 1017   7.797   8.674  -0.194  0.7894  0.3570 -0.6953
  749MOL0     C 1018   7.676   8.646  -0.293  0.7391 -0.5296 -0.3985
  749MOL0     C 1019   7.629   8.501  -0.306 -0.6885 -0.4971  0.2185
  749MOL0     C 1020   7.494   8.502  -0.376  0.9228  0.0171 -0.6882
  749MOL0     C 1021   7.432   8.358  -0.377  1.0265  0.0764 -0.6519
  749MOL0     C 1022   7.354   8.336  -0.244 -0.4725 -0.1594 -0.0856
  749MOL0     C 1023   7.288   8.209  -0.240 -0.1823  0.9115  0.0665
  749MOL0     C 1024   7.192   8.199  -0.123  0.5279 -0.4355 -0.6599
  749MOL0    Cl 1025   7.027   8.204  -0.181  0.0698  0.0171 -0.3575
  749MOL0     C 1026   8.052   8.720  -0.081  0.0594 -0.4534  0.6119
  749MOL0     C 1027   8.182   8.731  -0.028  1.2008 -0.6218 -0.7329
  749MOL0     O 1028   8.452   8.484  -0.009 -0.2881 -0.8131 -0.4608
  749MOL0     C 1029   8.623   8.771   0.139 -0.1989 -0.2732 -0.5635
  749MOL0     C 1030   8.731   8.812   0.214  0.1999 -0.9361 -0.5146
  749MOL0     N 1031   9.336   8.926   0.791 -0.1575  0.2649  1.1381
  749MOL0     N 1032   9.459   8.930   0.766  0.8441 -0.5403  0.2246
  749MOL0     C 1033  10.375   8.552   0.234 -0.0264  0.1286 -0.5888
  749MOL0     C 1034  10.501   8.518   0.192 -0.5431 -0.2049  0.1472
  749MOL0     C 1035  10.871   8.246   0.216  0.4706 -0.8473 -0.4632
  749MOL0     C 1036  10.988   8.249   0.293  0.4779  0.1583  0.1243
  749MOL0     C 1037  11.086   8.159   0.273  0.2174  0.2878  0.8194
  749MOL0     C 1038  11.082   8.062   0.177  0.7467  0.2146  0.2948
  749MOL0     O 1039  11.196   7.997   0.145 -0.0472 -0.1186 -0.0024
  749MOL0     C 1040  11.185   7.881   0.062  0.3532  0.9830  0.1708
  749MOL0     C 1041  11.307   7.799   0.059 -0.2995 -0.7118 -0.0071
  749MOL0     C 1042  11.341   7.760   0.198 -0.1367  0.6989  0.3155
  749MOL0     C 1043  11.421   7.633   0.201  0.7432  0.5662 -0.3728
  749MOL0     C 1044  11.556   7.669   0.181  0.2659  0.3753 -0.6789
  749MOL0     C 1045  11.675   7.674   0.158  0.3516  0.6696  0.7799
  749MOL0     C 1046  10.963   8.053   0.108  0.2158 -0.2697 -0.6952
  749MOL0     C 1047  10.860   8.137   0.126 -0.0216 -0.6276 -0.6051
  749MOL0     H 1048  10.428   8.181   0.158 -2.1805 -0.0149 -2.0217
  749MOL0     H 1049  10.211   8.262   0.216 -0.5611  0.2462 -2.4785
  749MOL0     H 1050  10.125   8.716   0.318  1.8889 -0.9996 -0.2496
  749MOL0     H 1051  10.156   8.663   0.152 -1.2382  0.0532 -1.2908
  749MOL0     H 1052   9.936   8.747   0.193  2.7406  0.1358 -0.5449
  749MOL0     H 1053   9.932   8.593   0.111 -1.7727 -1.2938  0.7267
  749MOL0     H 1054   9.858   8.489   0.341 -2.8848 -0.3162  0.4690
  749MOL0     H 1055   9.872   8.657   0.408  0.3979 -1.8186  0.0023
  749MOL0     H 1056   9.695   8.715   0.225 -0.9881 -0.1680 -2.1412
  749MOL0     H 1057   9.677   8.554   0.181 -1.6585  3.4298 -1.1017
  749MOL0     H 1058   9.504   8.588   0.332 -0.7714  0.4349  1.5194
  749MOL0     H 1059   9.624   8.510   0.434 -0.0153  0.2023  0.4892
  749MOL0     H 1060   9.499   8.704   0.538 -0.7371 -1.5309 -0.4750
  749MOL0     H 1061   9.678   8.694   0.554 -1.3564  1.1734  1.6563
  749MOL0     H 1062   9.701   8.884   0.380 -0.2133  0.9346  0.9919
  749MOL0     H 1063   9.535   8.881   0.356 -1.2116 -4.0526  0.4918
  749MOL0     H 1064   9.620   9.056   0.518  1.9852  1.0522  1.2109
  749MOL0     H 1065   9.681   8.930   0.623  0.5677 -0.7332 -1.4680
  749MOL0     H 1066   9.329   8.997   0.473  2.0176  0.6575  0.3374
  749MOL0     H 1067   9.080   8.992   0.771  0.5635  1.0462 -0.4036
  749MOL0     H 1068   9.083   9.022   0.599  1.7599 -0.0800 -2.1954
  749MOL0     H 1069   8.943   8.824   0.632 -1.3206 -4.4548  0.9924
  749MOL0     H 1070   9.080   8.737   0.703  0.3177  0.0115 -0.9725
  749MOL0     H 1071   9.200   8.708   0.513  1.4110  1.5609  3.3014
  749MOL0     H 1072   9.144   8.863   0.444  1.0428  0.3970  2.0397
  749MOL0     H 1073   8.963   8.622   0.479 -2.1817  1.8278 -0.4559
  749MOL0     H 1074   9.065   8.646   0.334 -0.6387 -0.0041  0.1196
  749MOL0     H 1075   8.842   8.509   0.323  0.4120  0.2530  0.3108
  749MOL0     H 1076   8.666   8.365   0.071 -0.8164 -3.3833  1.2753
  749MOL0     H 1077   8.716   8.343   0.244  0.4589  0.4703  0.1315
  749MOL0     H 1078   8.546   8.374   0.201 -0.6276  1.6020 -1.6571
  749MOL0     H 1079   8.377   8.595  -0.273  0.7828  3.4354 -0.4267
  749MOL0     H 1080   8.142   8.577  -0.376  0.4330  1.0279 -0.3125
  749MOL0     H 1081   7.782   8.609  -0.107 -1.7557  1.4206 -0.2498
  749MOL0     H 1082   7.795   8.778  -0.160  0.8529 -0.5227  2.3386
  749MOL0     H 1083   7.597   8.707  -0.249  2.2467  0.4442  1.1268
  749MOL0     H 1084   7.689   8.692  -0.391 -2.0420 -0.4597 -0.8144
  749MOL0     H 1085   7.625   8.463  -0.203  0.2832 -0.7793  0.1605
  749MOL0     H 1086   7.704   8.448  -0.365  0.3690 -0.7794  1.7667
  749MOL0     H 1087   7.430   8.572  -0.322  0.5098 -1.7345  1.2049
  749MOL0     H 1088   7.504   8.550  -0.474  0.7815 -0.4857 -0.9521
  749MOL0     H 1089   7.508   8.280  -0.391  1.0101 -0.2488  0.8944
  749MOL0     H 1090   7.367   8.351  -0.464  0.3820  0.8853 -0.2418
  749MOL0     H 1091   7.422   8.345  -0.159  0.7380  1.9976 -1.2052
  749MOL0     H 1092   7.273   8.410  -0.236 -0.9724 -0.5612 -1.1716
  749MOL0     H 1093   7.363   8.130  -0.231 -2.1391 -1.0851 -0.3478
  749MOL0     H 1094   7.246   8.207  -0.341  1.5548  0.9381 -0.6930
  749MOL0     H 1095   7.206   8.285  -0.057 -3.4159  0.7479 -1.0869
  749MOL0     H 1096   7.218   8.116  -0.057 -0.7568  1.8661  3.0991
  749MOL0     H 1097   7.961   8.748  -0.029 -2.4704 -0.5495 -3.3685
  749MOL0     H 1098   8.188   8.764   0.076  0.9752 -3.1058  0.1335
  749MOL0     H 1099   8.565   8.852   0.095 -2.3953  0.5971  3.4160
  749MOL0     H 1100   8.754   8.918   0.217 -2.3787 -0.3274 -0.6578
  749MOL0     H 1101  10.350   8.655   0.256 -0.9128 -0.4886  1.5048
  749MOL0     H 1102  10.580   8.592   0.201 -0.6519 -0.2484  1.6871
  749MOL0     H 1103  10.992   8.327   0.368  1.0317  1.6029 -1.3482
  749MOL0     H 1104  11.174   8.163   0.336 -0.4564  1.7009  1.7139
  749MOL0     H 1105  11.094   7.823   0.078 -0.1971  1.2082 -1.8404
  749MOL0     H 1106  11.167   7.909  -0.042  2.8452  0.2526 -0.5144
  749MOL0     H 1107  11.392   7.845   0.008  0.1334 -0.6340  0.7591
  749MOL0     H 1108  11.282   7.709   0.002 -0.8601 -0.4834 -0.1312
  749MOL0     H 1109  11.249   7.741   0.254 -0.7885 -0.2393 -1.0085
  749MOL0     H 1110  11.397   7.845   0.238  1.5709  1.8494 -3.9799
  749MOL0     H 1111  11.400   7.565   0.118  1.5028 -2.2950  1.6065
  749MOL0     H 1112  11.399   7.570   0.288  1.3780 -2.3075 -2.1551
  749MOL0     H 1113  11.779   7.680   0.132  0.4538 -0.7605  0.7596
  749MOL0     H 1114  10.962   7.988   0.022  2.0668 -3.0172  1.1985
  749MOL0     H 1115  10.771   8.113   0.068  0.7617 -1.2631 -1.5723
  750MOL0     O 1116   2.670   0.352   7.354  0.3567  0.0823  0.1079
  750MOL0     C 1117   2.761   0.305   7.422  0.5178  0.7865 -0.4878
  750MOL0     O 1118   2.746   0.245   7.542  0.1075  0.1565 -0.1693
  750MOL0     C 1119   2.619   0.205   7.579 -0.0303  0.6328 -0.8225
  750MOL0     C 1120   2.551   0.106   7.510 -0.3362  0.3775  0.1211
  750MOL0     C 1121   2.424   0.059   7.544  0.4018 -0.2690 -0.2818
  750MOL0     C 1122   2.359   0.129   7.649  1.0838  0.2465  0.9797
  750MOL0     O 1123   2.235   0.103   7.699 -0.4779 -0.4801  0.5099
  750MOL0     C 1124   2.180  -0.023   7.671  0.6480 -0.4754 -0.9435
  750MOL0     C 1125   2.028  -0.022   7.726 -0.3528 -0.2711  0.1860
  750MOL0     C 1126   1.965  -0.161   7.723  0.2392  0.1883  0.2156
  750MOL0     C 1127   1.814  -0.155   7.772 -0.0556 -0.7961 -0.0408
  750MOL0     C 1128   1.732  -0.280   7.747  0.3449  0.1825 -0.0027
  750MOL0     C 1129   1.581  -0.255   7.794 -0.8175  1.1193  1.0231
  750MOL0     C 1130   1.517  -0.394   7.800  0.4574 -0.7801  0.5712
  750MOL0     C 1131   1.364  -0.385   7.825  0.4731  0.3277 -0.0597
  750MOL0     N 1132   1.301  -0.513   7.785  0.2386  0.2771  0.1531
  750MOL0     C 1133   1.310  -0.632   7.853 -0.2307  0.2975  0.1608
  750MOL0     C 1134   1.225  -0.710   7.791 -0.0534  0.1356 -0.6706
  750MOL0     C 1135   1.207  -0.856   7.836 -0.2466 -0.9833  0.3966
  750MOL0     C 1136   1.164  -0.865   7.976  1.1125  0.6705 -0.4125
  750MOL0     C 1137   1.018  -0.819   7.984  1.0056  0.0924  0.0069
  750MOL0     C 1138   0.938  -0.900   8.091 -0.0495  0.0909  0.4089
  750MOL0     O 1139   0.893  -1.029   8.028  0.2371  0.0054  0.5096
  750MOL0     C 1140   0.759  -1.035   7.983 -0.3851 -0.2849  0.4005
  750MOL0     C 1141   0.713  -1.163   7.956 -0.8155  0.4963 -0.4596
  750MOL0     C 1142   0.582  -1.195   7.923 -0.1957 -0.0059 -0.3666
  750MOL0     C 1143   0.553  -1.335   7.897  0.3728  0.7548  0.2200
  750MOL0     C 1144   0.492  -1.092   7.902  0.0632  0.2503 -0.4038
  750MOL0     C 1145   0.342  -1.120   7.872 -0.6742 -0.7549  0.3238
  750MOL0     O 1146   0.271  -1.015   7.819 -0.1678  0.0622 -0.2374
  750MOL0     C 1147   0.138  -1.006   7.842 -0.1813  0.2291 -0.2799
  750MOL0     C 1148   0.101  -0.989   7.979 -0.2769  0.1483 -0.4539
  750MOL0     C 1149  -0.032  -0.983   8.014 -0.2983 -0.3401 -0.8678
  750MOL0     C 1150  -0.131  -0.983   7.913  0.6108 -0.3608  0.0433
  750MOL0     O 1151  -0.265  -0.980   7.942 -0.4726  0.1647  0.0932
  750MOL0     C 1152  -0.309  -0.906   8.057 -1.2724 -0.2256 -0.5543
  750MOL0     C 1153  -0.454  -0.914   8.064  0.0055  0.1166  0.3378
  750MOL0     C 1154  -0.493  -0.831   8.188 -0.5348 -0.7236  0.3225
  750MOL0     C 1155  -0.649  -0.831   8.217 -0.5446  0.9912  0.7575
  750MOL0     C 1156  -0.707  -0.718   8.301 -0.9943  0.6856  0.5926
  750MOL0     C 1157  -0.849  -0.748   8.355  0.5440 -0.4576  0.0543
  750MOL0     C 1158  -0.860  -0.876   8.436 -0.0286 -0.2541  0.3169
  750MOL0     C 1159  -0.973  -0.873   8.535 -0.7574 -0.3784 -0.0835
  750MOL0    Cl 1160  -1.124  -0.798   8.482  0.4050  0.1330  0.2343
  750MOL0     C 1161  -0.092  -0.999   7.781 -0.1963 -0.3497  0.2682
  750MOL0     C 1162   0.043  -1.018   7.744 -0.3227 -0.1536  0.2916
  750MOL0     O 1163   0.299  -1.233   7.902 -0.2788  0.0437  0.4665
  750MOL0     C 1164   0.540  -0.958   7.929 -0.0582  0.2905  0.4759
  750MOL0     C 1165   0.670  -0.927   7.965 -0.2499  0.0243 -0.4118
  750MOL0     N 1166   1.171  -0.653   7.679  0.8908 -0.1423  0.7604
  750MOL0     N 1167   1.211  -0.532   7.682  0.6039  0.0613 -0.2621
  750MOL0     C 1168   2.420   0.231   7.722  0.1544  0.2667  0.0758
  750MOL0     C 1169   2.554   0.270   7.687  0.3919  0.2103  0.0198
  750MOL0     C 1170   2.905   0.328   7.386  0.4470  0.5933 -0.5796
  750MOL0     C 1171   3.000   0.281   7.473 -0.0702 -0.0715 -0.0078
  750MOL0     C 1172   3.132   0.296   7.443 -0.1267 -0.0679 -0.9923
  750MOL0     C 1173   3.174   0.352   7.326 -0.2971  0.4645 -0.7853
  750MOL0     O 1174   3.299   0.367   7.277 -0.0422 -0.3923 -0.4373
  750MOL0     C 1175   3.404   0.338   7.371 -0.0850  0.2361 -0.2514
  750MOL0     C 1176   3.538   0.365   7.303  0.0694 -0.4674  0.0354
  750MOL0     C 1177   3.665   0.358   7.396 -0.2594  0.2061  0.3518
  750MOL0     C 1178   3.665   0.455   7.516 -0.5672 -0.3854  0.2327
  750MOL0     C 1179   3.662   0.593   7.468  0.2475 -0.8954 -0.2546
  750MOL0     C 1180   3.688   0.712   7.463 -0.2473 -0.2413  1.0561
  750MOL0     C 1181   3.078   0.408   7.246  0.3870 -0.4559 -0.6600
  750MOL0     C 1182   2.942   0.392   7.269  0.0105  0.7944  0.2073
  750MOL0     H 1183   2.599   0.057   7.427  2.5294  2.0736  0.6291
  750MOL0     H 1184   2.377  -0.026   7.497 -2.3042  0.6246  0.6235
  750MOL0     H 1185   2.188  -0.057   7.567  2.4967 -1.9737 -0.3525
  750MOL0     H 1186   2.232  -0.102   7.726 -1.0072  0.0095  1.4631
  750MOL0     H 1187   2.020   0.014   7.829 -3.4375 -0.5234  0.1140
  750MOL0     H 1188   1.976   0.043   7.655 -0.1771 -1.0814 -0.7073
  750MOL0     H 1189   1.976  -0.200   7.622  2.4116 -0.8707  0.8036
  750MOL0     H 1190   2.020  -0.238   7.777 -1.2382 -0.8490  0.3074
  750MOL0     H 1191   1.806  -0.135   7.879 -3.1076  0.0137 -0.3459
  750MOL0     H 1192   1.771  -0.064   7.730 -0.1404  1.2693  4.0112
  750MOL0     H 1193   1.737  -0.306   7.641 -1.6499 -0.2760 -0.0300
  750MOL0     H 1194   1.771  -0.369   7.798  0.3346 -0.4267 -1.0325
  750MOL0     H 1195   1.579  -0.223   7.898 -0.9572 -0.2524  1.4654
  750MOL0     H 1196   1.524  -0.188   7.729 -1.0512 -0.2217 -0.2200
  750MOL0     H 1197   1.526  -0.436   7.699  4.0068  2.7433 -0.8510
  750MOL0     H 1198   1.561  -0.465   7.870  0.0636  0.6072  2.2899
  750MOL0     H 1199   1.323  -0.306   7.760  0.7198 -1.2531 -2.2445
  750MOL0     H 1200   1.348  -0.367   7.932 -2.2679  1.6823 -0.6017
  750MOL0     H 1201   1.372  -0.651   7.940 -2.1386 -0.7791  1.3569
  750MOL0     H 1202   1.138  -0.902   7.765  1.6059 -0.5492 -1.7909
  750MOL0     H 1203   1.305  -0.902   7.821  0.4182  0.5650 -0.2910
  750MOL0     H 1204   1.239  -0.819   8.041  1.3398  0.5785 -0.6107
  750MOL0     H 1205   1.163  -0.971   8.006 -0.2421  0.4593 -1.1027
  750MOL0     H 1206   0.963  -0.824   7.890  0.8490 -0.1234  0.1073
  750MOL0     H 1207   1.015  -0.712   8.007 -1.6263  0.5036 -1.7891
  750MOL0     H 1208   0.852  -0.844   8.128 -2.5362 -2.5961 -0.8933
  750MOL0     H 1209   1.000  -0.927   8.178 -1.9736 -2.0164  1.2157
  750MOL0     H 1210   0.769  -1.254   7.978  0.6866  1.0268 -1.8846
  750MOL0     H 1211   0.508  -1.349   7.799 -2.2170 -2.1198  1.6246
  750MOL0     H 1212   0.648  -1.389   7.896 -0.2050 -0.2777 -0.6510
  750MOL0     H 1213   0.492  -1.373   7.980  0.6188  0.4102  0.2461
  750MOL0     H 1214   0.177  -0.985   8.057 -1.4390  2.3080  0.6555
  750MOL0     H 1215  -0.060  -0.963   8.117  1.1805  1.2365 -0.7188
  750MOL0     H 1216  -0.269  -0.968   8.138 -2.5845  0.4928  0.7063
  750MOL0     H 1217  -0.268  -0.805   8.061  2.9289 -1.7314 -0.8993
  750MOL0     H 1218  -0.493  -0.880   7.968  1.3022 -1.6142 -0.8711
  750MOL0     H 1219  -0.478  -1.020   8.079 -2.7583  0.9871  3.0181
  750MOL0     H 1220  -0.463  -0.728   8.170 -3.1679  0.1447  0.5126
  750MOL0     H 1221  -0.437  -0.870   8.274  2.7132  1.9972 -0.3723
  750MOL0     H 1222  -0.692  -0.829   8.117  1.1642 -3.5445 -0.2996
  750MOL0     H 1223  -0.679  -0.930   8.252 -0.9239  0.2169 -1.6057
  750MOL0     H 1224  -0.696  -0.627   8.242  0.5552  0.3600  0.3582
  750MOL0     H 1225  -0.646  -0.701   8.390  3.7426  2.5339 -2.6243
  750MOL0     H 1226  -0.872  -0.661   8.417 -0.5423 -0.3107 -0.5248
  750MOL0     H 1227  -0.914  -0.742   8.268  3.2508  0.5815 -2.0588
  750MOL0     H 1228  -0.769  -0.897   8.493 -0.7888  0.1509  1.7303
  750MOL0     H 1229  -0.875  -0.962   8.370 -0.2596  0.6277 -0.8197
  750MOL0     H 1230  -0.945  -0.821   8.627 -0.6619 -0.5256 -0.0303
  750MOL0     H 1231  -1.003  -0.975   8.561  2.4362 -1.2572  0.5533
  750MOL0     H 1232  -0.175  -0.992   7.712 -0.6317 -0.2957  0.7837
  750MOL0     H 1233   0.063  -1.030   7.638 -2.7987 -0.5364 -0.1796
  750MOL0     H 1234   0.468  -0.879   7.911  0.8329  1.3228  1.3880
  750MOL0     H 1235   0.691  -0.822   7.979 -2.0993  0.5415 -1.2879
  750MOL0     H 1236   2.377   0.275   7.811 -3.3133 -1.2421 -0.6437
  750MOL0     H 1237   2.619   0.330   7.751  0.6792 -1.1040  1.0043
  750MOL0     H 1238   2.975   0.226   7.563 -0.2665  1.0094  0.6186
  750MOL0     H 1239   3.202   0.264   7.519 -1.0947  2.0336  0.9175
  750MOL0     H 1240   3.395   0.416   7.448  1.4146 -0.0576  0.2662
  750MOL0     H 1241   3.402   0.243   7.425 -0.5636  0.7888  0.7475
  750MOL0     H 1242   3.538   0.462   7.253  0.6629 -0.6885 -0.4067
  750MOL0     H 1243   3.545   0.293   7.221  0.1244 -1.4079  0.8407
  750MOL0     H 1244   3.741   0.383   7.321 -0.8275  3.0818  0.6157
  750MOL0     H 1245   3.685   0.258   7.435  1.7629  1.2390  2.1578
  750MOL0     H 1246   3.751   0.453   7.584  1.5293 -0.4303 -2.2409
  750MOL0     H 1247   3.582   0.438   7.585 -0.8396  1.1836  0.3118
  750MOL0     H 1248   3.695   0.818   7.450 -3.6555 -0.1081 -0.9153
  750MOL0     H 1249   3.117   0.471   7.166 -0.0806  2.4294  1.2108
  750MOL0     H 1250   2.861   0.441   7.216 -1.5278 -0.7408  1.0479
  751MOL0     O 1251   8.968   1.733   7.125  0.0137  0.3410  0.3593
  751MOL0     C 1252   8.994   1.715   7.010  0.2110 -0.7373  0.5778
  751MOL0     O 1253   8.907   1.723   6.904  0.2285  0.1986  0.6489
  751MOL0     C 1254   8.773   1.745   6.932  0.4708  0.1855  0.2304
  751MOL0     C 1255   8.689   1.654   7.005  0.2070  0.4512  0.8208
  751MOL0     C 1256   8.562   1.684   7.037 -0.1902 -0.1571  0.1768
  751MOL0     C 1257   8.502   1.809   6.996  0.4785  0.1511 -0.6741
  751MOL0     O 1258   8.373   1.842   7.044 -0.2941  0.1237 -0.2370
  751MOL0     C 1259   8.272   1.743   7.049  0.2913  0.3458 -0.7837
  751MOL0     C 1260   8.134   1.808   7.002  0.4681  0.7791 -0.1432
  751MOL0     C 1261   8.023   1.781   7.101  0.1836 -0.1807  0.6711
  751MOL0     C 1262   7.883   1.834   7.045 -0.1219 -0.0339 -0.6692
  751MOL0     C 1263   7.769   1.730   7.066 -0.3914  0.5660 -0.5568
  751MOL0     C 1264   7.630   1.776   7.041  0.1950  0.0084  0.4867
  751MOL0     C 1265   7.534   1.659   7.050 -0.7371  0.1223 -0.2126
  751MOL0     C 1266   7.389   1.700   7.025  1.3345 -0.5002 -0.4345
  751MOL0     N 1267   7.352   1.741   6.887 -0.7141 -0.4659  0.2373
  751MOL0     C 1268   7.287   1.654   6.800  0.0860  0.3520 -0.1570
  751MOL0     C 1269   7.280   1.723   6.679  1.1554 -0.4780 -1.1502
  751MOL0     C 1270   7.209   1.681   6.560 -1.0522  0.1667  0.4269
  751MOL0     C 1271   7.125   1.798   6.505 -0.6714 -0.1448  0.2664
  751MOL0     C 1272   7.029   1.749   6.400  0.3664 -0.0106 -0.2302
  751MOL0     C 1273   6.935   1.872   6.357  0.7017  0.2601  0.2661
  751MOL0     O 1274   6.816   1.874   6.432  0.3559  0.3977 -0.7373
  751MOL0     C 1275   6.720   1.782   6.417 -0.4602  0.6021  0.5599
  751MOL0     C 1276   6.687   1.708   6.301 -0.9159 -0.2791  0.0065
  751MOL0     C 1277   6.571   1.632   6.298  0.1768  1.0666  0.8956
  751MOL0     C 1278   6.531   1.575   6.163 -0.1066 -0.3729  0.0699
  751MOL0     C 1279   6.491   1.613   6.410  1.1677 -0.1612 -0.3128
  751MOL0     C 1280   6.353   1.551   6.402 -0.1177 -0.4618  0.0402
  751MOL0     O 1281   6.264   1.602   6.306 -0.5362  0.4717  0.1432
  751MOL0     C 1282   6.122   1.570   6.314 -0.2009 -0.3123  0.0577
  751MOL0     C 1283   6.045   1.554   6.434  1.0013 -0.0789  0.0147
  751MOL0     C 1284   5.902   1.514   6.416  0.5959  0.0834 -0.6598
  751MOL0     C 1285   5.841   1.501   6.289  0.3888  0.5137  0.1097
  751MOL0     O 1286   5.708   1.449   6.268  0.5237 -0.0417 -0.1418
  751MOL0     C 1287   5.613   1.471   6.378  0.1829  0.9050 -0.2009
  751MOL0     C 1288   5.461   1.451   6.337 -0.0328 -0.0996 -0.5872
  751MOL0     C 1289   5.432   1.499   6.192 -0.3889 -0.3467 -0.1323
  751MOL0     C 1290   5.286   1.488   6.161 -0.0695  0.4685  0.1481
  751MOL0     C 1291   5.248   1.530   6.026  0.1160 -0.5707  1.3078
  751MOL0     C 1292   5.094   1.506   6.009 -0.4759 -0.2095 -0.8061
  751MOL0     C 1293   5.025   1.579   5.894  0.1461  0.3208  0.2808
  751MOL0     C 1294   4.866   1.579   5.905  0.0281  0.4205  0.2201
  751MOL0    Cl 1295   4.818   1.657   6.061 -0.1839 -0.1202 -0.0799
  751MOL0     C 1296   5.918   1.538   6.177 -0.5672  0.0782  0.8306
  751MOL0     C 1297   6.051   1.561   6.194  0.6823 -0.9427  0.7272
  751MOL0     O 1298   6.328   1.469   6.491  0.7967  0.3265  0.1397
  751MOL0     C 1299   6.535   1.665   6.530 -0.2549 -0.7002  0.0580
  751MOL0     C 1300   6.649   1.757   6.532  0.2261  0.3761 -0.6765
  751MOL0     N 1301   7.326   1.850   6.708 -0.3045  0.5206  0.5702
  751MOL0     N 1302   7.366   1.861   6.831  0.9354 -0.7062 -0.2517
  751MOL0     C 1303   8.578   1.899   6.922 -0.5526 -0.4400 -0.4467
  751MOL0     C 1304   8.713   1.863   6.901  0.3669  0.0060  0.2176
  751MOL0     C 1305   9.140   1.688   6.975  0.8371  0.2488 -0.6221
  751MOL0     C 1306   9.223   1.637   7.077  0.9674 -0.8838 -0.0740
  751MOL0     C 1307   9.351   1.604   7.054 -0.3294  0.0328 -0.0784
  751MOL0     C 1308   9.400   1.602   6.915 -0.2368  1.1217 -0.2381
  751MOL0     O 1309   9.529   1.573   6.872  0.0316  0.1679 -0.1191
  751MOL0     C 1310   9.629   1.511   6.957 -0.3529  0.3093 -0.3299
  751MOL0     C 1311   9.750   1.467   6.872  0.4526  0.0188 -0.6585
  751MOL0     C 1312   9.714   1.379   6.756  0.1927  0.9040 -0.8684
  751MOL0     C 1313   9.620   1.263   6.799 -0.2853  0.0156  0.1957
  751MOL0     C 1314   9.628   1.165   6.696 -0.4684 -0.3813  0.3224
  751MOL0     C 1315   9.657   1.085   6.610 -0.3356 -0.8424  0.3222
  751MOL0     C 1316   9.322   1.657   6.817 -0.0863 -0.8181  0.7055
  751MOL0     C 1317   9.199   1.705   6.846 -0.5807 -0.1268  0.1504
  751MOL0     H 1318   8.736   1.558   7.023  1.3777  0.1437 -2.9093
  751MOL0     H 1319   8.492   1.612   7.080 -0.1901  0.0914  0.5956
  751MOL0     H 1320   8.288   1.659   6.982  1.5682  0.2904 -0.4513
  751MOL0     H 1321   8.264   1.720   7.156  0.0635  1.6363 -0.4988
  751MOL0     H 1322   8.143   1.916   6.985 -1.3876  0.8185 -1.1726
  751MOL0     H 1323   8.101   1.761   6.909 -0.4606 -0.9829  1.0321
  751MOL0     H 1324   8.013   1.675   7.125  1.6243 -0.4586  0.1193
  751MOL0     H 1325   8.029   1.841   7.192  0.7570 -1.0506  1.2229
  751MOL0     H 1326   7.859   1.926   7.098 -2.8151 -0.3486 -1.1964
  751MOL0     H 1327   7.881   1.849   6.937 -0.2469  1.7548 -0.4419
  751MOL0     H 1328   7.786   1.645   7.000 -0.9478 -0.6233  0.7817
  751MOL0     H 1329   7.762   1.688   7.167  0.1055 -0.7427 -1.0455
  751MOL0     H 1330   7.588   1.852   7.108  1.6076 -0.2261  1.7055
  751MOL0     H 1331   7.633   1.809   6.937 -0.0098 -1.9987 -0.1928
  751MOL0     H 1332   7.562   1.579   6.982  1.3102 -0.9483  1.7622
  751MOL0     H 1333   7.538   1.620   7.152 -1.6896 -0.8098 -0.5140
  751MOL0     H 1334   7.367   1.782   7.095  1.8354 -1.0209  0.3479
  751MOL0     H 1335   7.327   1.614   7.053 -2.5437  2.4268  1.0220
  751MOL0     H 1336   7.246   1.555   6.819  1.2691 -0.2675 -0.7389
  751MOL0     H 1337   7.286   1.661   6.485 -1.9149  0.8426 -0.6824
  751MOL0     H 1338   7.156   1.595   6.600 -1.6364  1.0813  1.6656
  751MOL0     H 1339   7.198   1.872   6.470  0.3963 -0.5904  1.4601
  751MOL0     H 1340   7.063   1.847   6.581 -2.3822 -0.0930 -1.1069
  751MOL0     H 1341   6.966   1.666   6.432  1.0494 -1.5319 -2.5350
  751MOL0     H 1342   7.081   1.723   6.307  0.6264  1.7857 -0.6430
  751MOL0     H 1343   6.917   1.861   6.249  1.6464 -1.5095  0.2512
  751MOL0     H 1344   6.995   1.961   6.379 -0.9139  0.7960  2.9389
  751MOL0     H 1345   6.749   1.723   6.213  1.4848  2.6162  1.9891
  751MOL0     H 1346   6.609   1.592   6.089 -0.4038 -0.2368 -0.2168
  751MOL0     H 1347   6.539   1.466   6.166  0.1385 -0.3360  1.2389
  751MOL0     H 1348   6.435   1.611   6.123  0.0029 -0.0671  0.0838
  751MOL0     H 1349   6.076   1.550   6.537  0.1964  2.5944  0.4413
  751MOL0     H 1350   5.851   1.482   6.506  1.6959 -0.6711 -0.2901
  751MOL0     H 1351   5.645   1.412   6.464 -1.1331  0.2238 -0.1508
  751MOL0     H 1352   5.624   1.578   6.399 -0.4583  0.8374  0.5027
  751MOL0     H 1353   5.433   1.346   6.347  0.5635 -0.2423 -0.4070
  751MOL0     H 1354   5.405   1.506   6.413  0.3064  0.2219 -0.5609
  751MOL0     H 1355   5.480   1.427   6.125  1.0443 -0.0331  0.5336
  751MOL0     H 1356   5.467   1.602   6.181  0.3485 -0.6841 -1.1189
  751MOL0     H 1357   5.251   1.385   6.176 -1.2727  0.7726 -0.4198
  751MOL0     H 1358   5.243   1.559   6.233  0.4323  1.0386 -0.1113
  751MOL0     H 1359   5.307   1.472   5.955 -1.4281 -1.6481  0.8576
  751MOL0     H 1360   5.275   1.634   6.007  1.3700 -1.2682 -1.0494
  751MOL0     H 1361   5.085   1.401   5.979  0.8410 -0.1462 -1.4675
  751MOL0     H 1362   5.037   1.520   6.102 -0.0669 -0.8299 -0.4562
  751MOL0     H 1363   5.049   1.538   5.796 -0.9086  2.0664 -0.7689
  751MOL0     H 1364   5.059   1.683   5.890 -1.3292  0.9230  1.8862
  751MOL0     H 1365   4.813   1.483   5.906 -1.5065  1.0420 -3.6738
  751MOL0     H 1366   4.822   1.638   5.824 -0.0583 -3.0234 -2.4865
  751MOL0     H 1367   5.876   1.526   6.078  1.6421 -0.6731 -0.0660
  751MOL0     H 1368   6.103   1.581   6.100  2.8701  3.2113  2.5436
  751MOL0     H 1369   6.482   1.652   6.623  0.1971 -2.2660  0.1291
  751MOL0     H 1370   6.684   1.795   6.628  2.1934 -1.8609 -0.4090
  751MOL0     H 1371   8.551   1.993   6.875  3.3908  2.1561  1.8600
  751MOL0     H 1372   8.778   1.942   6.863 -1.6987  2.3382  1.3035
  751MOL0     H 1373   9.196   1.616   7.180  0.7659 -0.1554  0.0255
  751MOL0     H 1374   9.414   1.579   7.139  2.3070  4.4656 -0.4581
  751MOL0     H 1375   9.665   1.575   7.037 -2.8539  1.4723 -0.0271
  751MOL0     H 1376   9.577   1.423   6.996 -0.9155  0.8412  0.1380
  751MOL0     H 1377   9.813   1.407   6.938 -0.3399  3.7123  4.0430
  751MOL0     H 1378   9.800   1.562   6.851  0.7024  0.4209  1.5284
  751MOL0     H 1379   9.804   1.333   6.713 -0.2012  0.2873 -1.0469
  751MOL0     H 1380   9.676   1.437   6.673 -1.9413  0.0526 -0.5433
  751MOL0     H 1381   9.519   1.305   6.802 -0.2100  0.8166 -3.6993
  751MOL0     H 1382   9.644   1.226   6.899  1.3011  1.5330  0.4246
  751MOL0     H 1383   9.674   1.015   6.531 -0.4325 -0.8019  0.2656
  751MOL0     H 1384   9.365   1.673   6.719  1.9728 -0.4456  1.6282
  751MOL0     H 1385   9.144   1.756   6.766 -1.4522  0.5478  1.1517
  752MOL0     O 1386   4.858  10.532   2.652 -0.1122  0.6169 -0.1629
  752MOL0     C 1387   4.892  10.526   2.535 -0.2391  0.8393  0.3605
  752MOL0     O 1388   4.815  10.493   2.431 -0.8155  0.1197  0.1795
  752MOL0     C 1389   4.696  10.425   2.437  0.4228  0.5193  0.2364
  752MOL0     C 1390   4.609  10.433   2.329  1.1335 -0.7339  0.0010
  752MOL0     C 1391   4.482  10.369   2.326  0.0915  0.2945  0.5066
  752MOL0     C 1392   4.449  10.286   2.435  0.2403 -0.2332  1.1901
  752MOL0     O 1393   4.323  10.230   2.428 -0.7502 -0.5107 -0.1556
  752MOL0     C 1394   4.259  10.194   2.551  0.4198  0.4752 -0.4770
  752MOL0     C 1395   4.112  10.157   2.527  0.0664  0.0155  0.7914
  752MOL0     C 1396   4.062  10.077   2.647 -0.0611 -0.0000  0.5587
  752MOL0     C 1397   3.931   9.998   2.616  0.6955 -0.2287  1.0428
  752MOL0     C 1398   3.817  10.086   2.548 -0.2586  0.8648  0.3745
  752MOL0     C 1399   3.707   9.989   2.489  0.2473  0.1105 -0.5718
  752MOL0     C 1400   3.694   9.989   2.341 -0.2101  0.1524  0.2682
  752MOL0     C 1401   3.575   9.899   2.304  0.6276  0.4596  0.0092
  752MOL0     N 1402   3.435   9.939   2.344 -0.4642  0.0167 -0.0022
  752MOL0     C 1403   3.363  10.041   2.295  0.1295 -0.4660 -0.4011
  752MOL0     C 1404   3.255  10.050   2.381  0.1098 -0.5489  0.7053
  752MOL0     C 1405   3.140  10.144   2.388  0.3966  0.4572 -0.6289
  752MOL0     C 1406   3.023  10.071   2.321  0.3962  0.4169 -0.4186
  752MOL0     C 1407   3.019  10.065   2.167  0.6138  0.8983  0.4066
  752MOL0     C 1408   2.877  10.030   2.121 -0.4227  0.1093 -0.5024
  752MOL0     O 1409   2.873   9.998   1.981  0.6311 -0.4797  0.0592
  752MOL0     C 1410   2.756   9.962   1.921 -0.3296  0.7356  0.6575
  752MOL0     C 1411   2.644   9.943   1.998 -0.2575 -1.0774 -0.4614
  752MOL0     C 1412   2.527   9.903   1.940  0.1189  0.8534 -0.3135
  752MOL0     C 1413   2.414   9.906   2.039  0.3615 -0.0545 -0.4218
  752MOL0     C 1414   2.510   9.870   1.808 -0.0194 -0.0587  0.8188
  752MOL0     C 1415   2.382   9.816   1.743  0.1817  1.0980  0.5043
  752MOL0     O 1416   2.298   9.753   1.828  0.0769 -0.4903 -0.2912
  752MOL0     C 1417   2.194   9.687   1.773 -0.7216 -0.3171  0.2522
  752MOL0     C 1418   2.065   9.729   1.808  1.2108 -0.5518 -0.0548
  752MOL0     C 1419   1.959   9.682   1.727  0.1616 -0.3101  0.5484
  752MOL0     C 1420   1.977   9.583   1.631 -1.0464 -0.1237 -0.2063
  752MOL0     O 1421   1.879   9.523   1.565  0.0408 -0.5932 -0.3116
  752MOL0     C 1422   1.748   9.581   1.555  0.3466 -0.6880 -0.1353
  752MOL0     C 1423   1.756   9.717   1.477 -0.3112 -0.3779  0.1224
  752MOL0     C 1424   1.620   9.793   1.487 -0.0583 -0.2071 -0.2562
  752MOL0     C 1425   1.498   9.702   1.456  0.3076 -0.1078  0.4938
  752MOL0     C 1426   1.367   9.781   1.446  0.8901  0.4709  0.1562
  752MOL0     C 1427   1.250   9.688   1.413  0.1765  0.2147 -0.2880
  752MOL0     C 1428   1.118   9.771   1.400 -0.2303 -0.2138 -0.2983
  752MOL0     C 1429   1.071   9.809   1.257  0.5783  1.2009 -0.6590
  752MOL0    Cl 1430   0.921   9.901   1.288 -0.0700 -0.0317 -0.0401
  752MOL0     C 1431   2.104   9.546   1.599 -0.6538  0.4382 -0.5849
  752MOL0     C 1432   2.209   9.594   1.671  0.1070  0.7846  0.3587
  752MOL0     O 1433   2.369   9.828   1.620 -0.2103 -0.2670  0.7294
  752MOL0     C 1434   2.619   9.898   1.726 -0.0319  0.4116  0.1417
  752MOL0     C 1435   2.741   9.945   1.785  0.1426  0.0674  0.1663
  752MOL0     N 1436   3.262   9.944   2.467  0.0369  0.3209  0.2550
  752MOL0     N 1437   3.374   9.879   2.448 -0.0223  0.2561  0.4101
  752MOL0     C 1438   4.536  10.272   2.541 -0.6182 -0.1445 -0.0464
  752MOL0     C 1439   4.661  10.345   2.542  0.4679  0.9243  0.4193
  752MOL0     C 1440   5.037  10.562   2.508  0.0745  0.3845 -0.8605
  752MOL0     C 1441   5.090  10.538   2.382  0.0775 -0.5491  0.1670
  752MOL0     C 1442   5.224  10.581   2.361 -0.3089 -0.1879 -0.2720
  752MOL0     C 1443   5.298  10.648   2.458  0.4734 -1.0823 -0.5164
  752MOL0     O 1444   5.430  10.686   2.428 -0.3082  0.4795 -0.2586
  752MOL0     C 1445   5.493  10.658   2.294  0.2601 -1.0581 -0.1252
  752MOL0     C 1446   5.634  10.720   2.293  1.0885 -0.4714  0.3289
  752MOL0     C 1447   5.739  10.659   2.382  1.0342  0.2351 -0.2081
  752MOL0     C 1448   5.878  10.733   2.365  0.2238  0.9301 -0.8152
  752MOL0     C 1449   5.938  10.727   2.232 -0.8374 -0.3761 -0.1725
  752MOL0     C 1450   5.989  10.729   2.118  0.1747  0.0165  0.4621
  752MOL0     C 1451   5.241  10.681   2.578  0.0367  0.2618 -0.1704
  752MOL0     C 1452   5.114  10.626   2.603  0.0876  0.3417 -0.3726
  752MOL0     H 1453   4.643  10.490   2.243 -2.7536 -1.0754 -1.9772
  752MOL0     H 1454   4.409  10.388   2.248 -1.9604 -1.7485  1.7934
  752MOL0     H 1455   4.311  10.111   2.601  0.8112  1.1529  0.2587
  752MOL0     H 1456   4.248  10.280   2.617 -0.6293  1.2671 -1.6486
  752MOL0     H 1457   4.051  10.248   2.519  0.3048  0.2505  1.5574
  752MOL0     H 1458   4.110  10.101   2.433 -1.2646  2.5192 -0.8083
  752MOL0     H 1459   4.134  10.002   2.681  1.5099  0.0397 -2.4309
  752MOL0     H 1460   4.043  10.148   2.729 -2.1913  1.6041 -1.1984
  752MOL0     H 1461   3.963   9.917   2.550  2.3959 -1.3812  3.1370
  752MOL0     H 1462   3.896   9.953   2.710  1.0933  2.0301  2.3482
  752MOL0     H 1463   3.772  10.142   2.630  1.4515  0.6498  1.5282
  752MOL0     H 1464   3.855  10.156   2.472  2.3172 -2.0342 -1.2561
  752MOL0     H 1465   3.712   9.887   2.527  2.0317  0.2772 -0.2711
  752MOL0     H 1466   3.613  10.032   2.525 -0.2611 -0.6406 -0.9747
  752MOL0     H 1467   3.679  10.089   2.300 -0.2504  0.4464  0.9969
  752MOL0     H 1468   3.779   9.938   2.295  0.2111  0.6270  0.5101
  752MOL0     H 1469   3.585   9.796   2.337  0.1713  0.6656  0.8209
  752MOL0     H 1470   3.579   9.891   2.195  0.3155 -4.6063  0.1637
  752MOL0     H 1471   3.392  10.110   2.217 -1.3174  1.6188  0.8018
  752MOL0     H 1472   3.105  10.162   2.490  1.2427  1.3086 -0.4726
  752MOL0     H 1473   3.158  10.241   2.342  2.4693  0.6358  0.4710
  752MOL0     H 1474   2.926  10.111   2.352 -0.9524 -2.5102 -0.5287
  752MOL0     H 1475   3.019   9.968   2.355  1.1962  0.4154 -0.3139
  752MOL0     H 1476   3.100  10.000   2.135  1.0029  0.8130  1.5245
  752MOL0     H 1477   3.044  10.165   2.130 -0.4183  1.7626  1.8995
  752MOL0     H 1478   2.812  10.115   2.144  0.5895  0.1179  2.7087
  752MOL0     H 1479   2.849   9.938   2.174  0.4370  1.0307  1.6664
  752MOL0     H 1480   2.644   9.992   2.095  4.0951  1.6511 -1.5651
  752MOL0     H 1481   2.436   9.977   2.119 -1.1726  2.3769 -2.0421
  752MOL0     H 1482   2.329   9.960   1.997  1.4215  0.7690 -1.6031
  752MOL0     H 1483   2.392   9.806   2.079 -0.6923 -0.1454 -1.1903
  752MOL0     H 1484   2.059   9.801   1.888  1.3254 -2.5645  1.8685
  752MOL0     H 1485   1.859   9.715   1.755 -0.2700 -0.9935 -0.1376
  752MOL0     H 1486   1.682   9.509   1.505 -2.0050  0.6310  0.8995
  752MOL0     H 1487   1.697   9.585   1.651  1.8527 -2.0816  0.7765
  752MOL0     H 1488   1.838   9.784   1.504  0.2922 -0.7574 -0.7074
  752MOL0     H 1489   1.769   9.700   1.370 -1.5678  1.7645 -0.4224
  752MOL0     H 1490   1.609   9.873   1.414  0.6203  0.3807  0.2830
  752MOL0     H 1491   1.612   9.831   1.589  0.0718 -2.8811  0.8355
  752MOL0     H 1492   1.513   9.641   1.366  1.4471 -2.9106  2.4465
  752MOL0     H 1493   1.484   9.626   1.534  1.3494 -1.6986 -0.7983
  752MOL0     H 1494   1.375   9.852   1.363  0.1581  1.3222  0.7967
  752MOL0     H 1495   1.354   9.836   1.539  0.7374 -2.8933  2.2920
  752MOL0     H 1496   1.268   9.638   1.317 -1.1731 -1.2791  0.1907
  752MOL0     H 1497   1.242   9.628   1.504  1.0982 -1.6737 -1.3881
  752MOL0     H 1498   1.132   9.864   1.456 -1.3517 -0.3829  0.2903
  752MOL0     H 1499   1.040   9.710   1.446  0.7729 -1.2158  0.1282
  752MOL0     H 1500   1.050   9.729   1.186 -1.0823  2.7849 -2.0458
  752MOL0     H 1501   1.156   9.866   1.219  0.8213  0.1919 -1.6790
  752MOL0     H 1502   2.124   9.478   1.517 -3.9719 -1.7417  0.1753
  752MOL0     H 1503   2.310   9.567   1.642 -0.9355 -1.2980 -1.6520
  752MOL0     H 1504   2.621   9.876   1.619  0.4125  0.3238  0.1670
  752MOL0     H 1505   2.828   9.972   1.726 -0.9623  0.9158 -1.1514
  752MOL0     H 1506   4.523  10.212   2.630  0.5670 -0.8625 -0.3260
  752MOL0     H 1507   4.732  10.331   2.622 -0.0866 -0.2456  0.7360
  752MOL0     H 1508   5.028  10.486   2.310 -0.3737 -0.7043  0.6612
  752MOL0     H 1509   5.274  10.559   2.267  0.3113 -2.3928  0.4910
  752MOL0     H 1510   5.501  10.550   2.277 -1.7148 -1.7614  2.6741
  752MOL0     H 1511   5.437  10.711   2.216  0.5260 -0.1520  0.2885
  752MOL0     H 1512   5.640  10.822   2.332  2.7924 -0.1855 -0.5419
  752MOL0     H 1513   5.666  10.719   2.188  0.3272  0.7374  0.0675
  752MOL0     H 1514   5.759  10.556   2.353 -2.4500 -0.5741 -0.1048
  752MOL0     H 1515   5.707  10.669   2.486 -0.4499  0.0430 -0.6236
  752MOL0     H 1516   5.949  10.709   2.445  0.2344  0.7227 -0.8844
  752MOL0     H 1517   5.857  10.836   2.393 -2.5630 -0.2938  2.2544
  752MOL0     H 1518   6.021  10.732   2.016  0.7166 -1.7460  0.5451
  752MOL0     H 1519   5.287  10.737   2.660 -1.3918  1.3575 -0.0734
  752MOL0     H 1520   5.064  10.631   2.699  1.9447  2.1029  0.5675
  753MOL0     O 1521   5.512   9.374   3.697  0.2223 -0.6740  0.2835
  753MOL0     C 1522   5.631   9.387   3.672 -0.5972  0.2589 -0.4519
  753MOL0     O 1523   5.689   9.342   3.553 -0.7229 -0.3721  0.2261
  753MOL0     C 1524   5.614   9.261   3.477 -0.3251  0.2343  0.7009
  753MOL0     C 1525   5.672   9.134   3.436  1.0548  0.6021 -0.5469
  753MOL0     C 1526   5.607   9.048   3.345 -0.6042 -0.2556 -0.2284
  753MOL0     C 1527   5.483   9.080   3.289  0.4876  0.1897 -0.1067
  753MOL0     O 1528   5.432   9.004   3.188  0.2586 -0.1023  0.3712
  753MOL0     C 1529   5.494   8.876   3.162 -0.0472  0.0397 -0.5241
  753MOL0     C 1530   5.419   8.813   3.048 -0.0760 -0.0085 -0.1861
  753MOL0     C 1531   5.273   8.767   3.079  0.2766 -0.2437  0.2844
  753MOL0     C 1532   5.282   8.655   3.186 -0.3177  0.4865  0.7976
  753MOL0     C 1533   5.151   8.588   3.215 -1.2775 -0.0388 -0.3386
  753MOL0     C 1534   5.066   8.678   3.314 -0.6864 -0.1369  0.1912
  753MOL0     C 1535   4.981   8.609   3.417  0.1591  0.1990 -0.3703
  753MOL0     C 1536   4.897   8.697   3.506  0.6059 -0.2082 -0.1869
  753MOL0     N 1537   4.782   8.766   3.441 -0.7393  0.3765 -0.6763
  753MOL0     C 1538   4.742   8.894   3.473 -0.1807 -0.1851  0.1809
  753MOL0     C 1539   4.612   8.907   3.429  0.0287  0.0141  0.1028
  753MOL0     C 1540   4.506   9.010   3.441  0.0040 -1.3374 -0.1375
  753MOL0     C 1541   4.501   9.107   3.320 -0.0265  0.1909 -0.4763
  753MOL0     C 1542   4.447   9.247   3.353  0.6645  0.0520 -0.0016
  753MOL0     C 1543   4.288   9.254   3.350 -0.2843 -0.3478  0.8790
  753MOL0     O 1544   4.248   9.160   3.454 -0.0126 -0.5647  0.4146
  753MOL0     C 1545   4.127   9.103   3.422 -0.0061 -0.6530  0.1167
  753MOL0     C 1546   4.023   9.172   3.354  0.4952 -0.7532  0.0413
  753MOL0     C 1547   3.893   9.120   3.340  0.3181  0.1577 -0.8710
  753MOL0     C 1548   3.788   9.198   3.276 -0.2803  0.9667  0.2568
  753MOL0     C 1549   3.862   8.991   3.403  0.5132  0.1022  0.1370
  753MOL0     C 1550   3.724   8.923   3.406 -0.0580 -0.4583  0.1632
  753MOL0     O 1551   3.722   8.791   3.456 -0.2799 -0.6078  0.1229
  753MOL0     C 1552   3.616   8.711   3.435 -0.8147  0.6258  0.6919
  753MOL0     C 1553   3.636   8.581   3.378 -0.3171  0.6628  0.4077
  753MOL0     C 1554   3.522   8.503   3.348 -0.8441  0.3691 -0.5359
  753MOL0     C 1555   3.398   8.548   3.368  0.7859 -0.6735 -0.8988
  753MOL0     O 1556   3.279   8.480   3.340 -0.4633 -0.3919 -0.2989
  753MOL0     C 1557   3.278   8.348   3.372  0.1252 -0.0745 -0.4878
  753MOL0     C 1558   3.135   8.297   3.344 -0.9007 -0.3852 -0.2865
  753MOL0     C 1559   3.128   8.169   3.271  0.4839 -0.0380 -0.2551
  753MOL0     C 1560   3.179   8.052   3.347  0.5198  0.3342  0.1196
  753MOL0     C 1561   3.167   7.925   3.267  0.2102 -0.7802 -0.0533
  753MOL0     C 1562   3.267   7.815   3.319 -0.3719 -1.1254 -0.2059
  753MOL0     C 1563   3.285   7.708   3.211  0.2917  0.1249  0.2212
  753MOL0     C 1564   3.418   7.723   3.135  1.3976 -0.9001  0.6488
  753MOL0    Cl 1565   3.378   7.837   3.000 -0.2733  0.1293 -0.4552
  753MOL0     C 1566   3.373   8.677   3.425  0.6598  0.2483 -0.6152
  753MOL0     C 1567   3.480   8.759   3.456 -0.2512  0.2292  0.0577
  753MOL0     O 1568   3.628   8.978   3.352 -0.3377  0.3444 -0.3056
  753MOL0     C 1569   3.969   8.926   3.471  0.1799 -0.5871  0.6327
  753MOL0     C 1570   4.094   8.988   3.487 -0.0614  0.8413 -0.3021
  753MOL0     N 1571   4.583   8.784   3.367  0.3782 -0.1450  0.2545
  753MOL0     N 1572   4.676   8.698   3.382 -0.6464 -0.2121 -0.4506
  753MOL0     C 1573   5.427   9.200   3.333  0.5601 -0.3051  0.2521
  753MOL0     C 1574   5.486   9.287   3.430  0.1137 -0.3991 -0.3062
  753MOL0     C 1575   5.723   9.423   3.789 -0.2176  1.4582 -0.6922
  753MOL0     C 1576   5.679   9.433   3.922  0.2722 -0.2396 -0.4969
  753MOL0     C 1577   5.773   9.475   4.016  0.2342 -0.9563 -0.4381
  753MOL0     C 1578   5.908   9.495   3.987 -0.3254  0.8247  0.5874
  753MOL0     O 1579   5.983   9.538   4.092  0.3147  0.5517 -0.4437
  753MOL0     C 1580   6.113   9.592   4.068 -0.2257 -0.4748  0.5399
  753MOL0     C 1581   6.145   9.667   4.201 -0.7830 -0.4274  0.5282
  753MOL0     C 1582   6.102   9.602   4.334  0.9492  0.2417  0.4166
  753MOL0     C 1583   6.115   9.694   4.445  0.2303 -0.3596  0.2741
  753MOL0     C 1584   6.143   9.618   4.569 -0.1478  0.2734  0.2307
  753MOL0     C 1585   6.152   9.544   4.666  0.7860 -0.6774 -0.5666
  753MOL0     C 1586   5.951   9.468   3.861  0.9127  0.3640  0.3127
  753MOL0     C 1587   5.860   9.431   3.760 -0.6771 -0.3794  0.7430
  753MOL0     H 1588   5.768   9.112   3.482  0.5291  0.4811  0.5202
  753MOL0     H 1589   5.661   8.962   3.307 -2.0888 -1.7988  0.9688
  753MOL0     H 1590   5.601   8.885   3.140  0.6657 -1.0695  2.0929
  753MOL0     H 1591   5.485   8.816   3.253  2.2265  0.8341  0.3051
  753MOL0     H 1592   5.416   8.878   2.961  0.7073 -0.7544 -0.7938
  753MOL0     H 1593   5.473   8.720   3.027  1.5494  0.3197  2.1207
  753MOL0     H 1594   5.215   8.852   3.113  0.5890  0.7764 -1.5663
  753MOL0     H 1595   5.224   8.731   2.988 -0.1567  1.7972 -0.3393
  753MOL0     H 1596   5.346   8.570   3.160 -1.8478  0.0567 -2.0067
  753MOL0     H 1597   5.314   8.706   3.277 -0.5234  2.4394 -0.1759
  753MOL0     H 1598   5.085   8.574   3.129  0.5321  0.2770 -1.8483
  753MOL0     H 1599   5.173   8.493   3.264  1.6965 -0.3606 -2.0413
  753MOL0     H 1600   5.134   8.744   3.368 -0.2313  0.4896 -1.1037
  753MOL0     H 1601   5.011   8.752   3.256 -0.3694 -0.5764 -0.7006
  753MOL0     H 1602   4.920   8.536   3.363  0.6858 -0.5616  0.0357
  753MOL0     H 1603   5.046   8.565   3.494 -0.2779 -0.7585 -0.5238
  753MOL0     H 1604   4.961   8.764   3.564  0.2659 -2.5294  3.2255
  753MOL0     H 1605   4.838   8.634   3.574 -0.8222  2.3803  1.1318
  753MOL0     H 1606   4.799   8.962   3.534 -0.3419  1.3906 -1.3674
  753MOL0     H 1607   4.407   8.967   3.458  0.0577 -1.1650  0.6701
  753MOL0     H 1608   4.516   9.076   3.528  1.7300  1.0102 -1.9956
  753MOL0     H 1609   4.444   9.073   3.233  1.5630  2.0468 -2.3352
  753MOL0     H 1610   4.605   9.117   3.290  1.3303 -1.6475  3.0281
  753MOL0     H 1611   4.491   9.323   3.287  0.8351 -0.5647 -0.6053
  753MOL0     H 1612   4.471   9.278   3.455 -2.1107 -1.4526  1.2176
  753MOL0     H 1613   4.256   9.237   3.247  0.0195  0.4708  0.6411
  753MOL0     H 1614   4.253   9.353   3.378 -3.1203 -1.6854  2.4739
  753MOL0     H 1615   4.039   9.272   3.313  1.5948 -1.3035 -0.9327
  753MOL0     H 1616   3.742   9.138   3.197  0.7630 -3.4005  2.6686
  753MOL0     H 1617   3.716   9.227   3.352 -0.7419 -0.4824  0.3973
  753MOL0     H 1618   3.841   9.282   3.228  0.3502  0.6774  0.4312
  753MOL0     H 1619   3.737   8.547   3.357 -0.9925 -0.7417 -0.7219
  753MOL0     H 1620   3.543   8.409   3.298  0.7564  0.4998 -0.1796
  753MOL0     H 1621   3.355   8.299   3.311 -0.2342  1.2147 -2.0492
  753MOL0     H 1622   3.298   8.340   3.479 -1.7008  0.1341 -0.0856
  753MOL0     H 1623   3.068   8.314   3.429  0.8381  2.6647  0.6227
  753MOL0     H 1624   3.100   8.364   3.264 -2.0311  1.2155  1.4679
  753MOL0     H 1625   3.165   8.181   3.169 -0.0230 -0.0867 -0.4477
  753MOL0     H 1626   3.019   8.162   3.264  0.3839 -1.3813  1.7541
  753MOL0     H 1627   3.283   8.073   3.373  0.9767 -1.0538 -0.4842
  753MOL0     H 1628   3.123   8.048   3.441  1.4522 -1.3509  0.6578
  753MOL0     H 1629   3.189   7.945   3.162 -0.2103  1.0430  0.1718
  753MOL0     H 1630   3.068   7.880   3.281  0.1764 -0.9345 -0.7545
  753MOL0     H 1631   3.367   7.855   3.339 -0.1011 -1.0189 -1.7077
  753MOL0     H 1632   3.228   7.770   3.411 -3.6984  2.3755  0.3834
  753MOL0     H 1633   3.203   7.711   3.138  0.7375 -1.2453 -0.3644
  753MOL0     H 1634   3.274   7.606   3.249  2.0918 -0.0998  0.2273
  753MOL0     H 1635   3.441   7.630   3.083 -2.2269 -1.6098  0.0503
  753MOL0     H 1636   3.496   7.770   3.197  0.2714 -0.6983  1.9713
  753MOL0     H 1637   3.270   8.709   3.432 -0.2795 -2.0898 -2.2087
  753MOL0     H 1638   3.448   8.851   3.504 -0.8357  0.4006 -0.6370
  753MOL0     H 1639   3.949   8.839   3.533 -1.5445  0.6805  1.9391
  753MOL0     H 1640   4.155   8.919   3.544  0.0209 -1.4386 -2.9495
  753MOL0     H 1641   5.335   9.232   3.285  0.4297 -1.1455 -0.0810
  753MOL0     H 1642   5.440   9.383   3.452  0.3596  0.0803 -1.7353
  753MOL0     H 1643   5.574   9.429   3.948  0.0872  2.7968 -0.4167
  753MOL0     H 1644   5.732   9.487   4.116 -0.2547 -2.6404 -0.4086
  753MOL0     H 1645   6.179   9.504   4.061  0.3006 -0.0762  0.4223
  753MOL0     H 1646   6.121   9.650   3.976  1.7951 -1.6780 -0.1194
  753MOL0     H 1647   6.102   9.767   4.189  1.0225  1.0492  4.5176
  753MOL0     H 1648   6.254   9.682   4.207 -0.4295 -1.4820 -2.0402
  753MOL0     H 1649   6.159   9.509   4.341 -0.6108 -0.9173 -1.3814
  753MOL0     H 1650   5.993   9.592   4.325  1.1010  0.2379 -2.1446
  753MOL0     H 1651   6.023   9.749   4.468 -1.2491 -2.4409 -0.2948
  753MOL0     H 1652   6.203   9.755   4.422 -1.5663  2.5506  0.6347
  753MOL0     H 1653   6.135   9.489   4.757  1.5354  1.2192  0.7871
  753MOL0     H 1654   6.059   9.465   3.850  1.3833  3.6735  2.3792
  753MOL0     H 1655   5.894   9.399   3.662 -0.0150  1.3993  0.3563
  754MOL0     O 1656   1.369   5.824   0.541 -0.1188  0.3019  0.2671
  754MOL0     C 1657   1.386   5.927   0.483  0.3349  0.4141 -0.0548
  754MOL0     O 1658   1.297   6.033   0.493 -0.1032  0.5731  0.0743
  754MOL0     C 1659   1.168   6.033   0.545  0.2754  0.7985  0.1845
  754MOL0     C 1660   1.116   6.160   0.574 -0.2034  0.0289 -0.3816
  754MOL0     C 1661   1.005   6.167   0.656  0.0932 -0.3770 -0.0330
  754MOL0     C 1662   0.928   6.048   0.693  0.0653 -0.2015  0.0332
  754MOL0     O 1663   0.813   6.039   0.762  0.4014  0.2715 -0.2495
  754MOL0     C 1664   0.776   6.157   0.844 -0.3858 -0.3418 -0.4945
  754MOL0     C 1665   0.695   6.270   0.769  0.5520 -0.2973  0.4847
  754MOL0     C 1666   0.540   6.233   0.768 -0.9087  0.1869  0.5680
  754MOL0     C 1667   0.463   6.319   0.669  0.2914 -0.2858  0.2274
  754MOL0     C 1668   0.317   6.343   0.711  0.1509  0.3357  0.1403
  754MOL0     C 1669   0.263   6.407   0.585  0.4926 -0.3797  0.4185
  754MOL0     C 1670   0.123   6.471   0.608  0.0902  0.2475 -0.2813
  754MOL0     C 1671   0.070   6.534   0.483  0.7574 -0.4769  0.0073
  754MOL0     N 1672  -0.072   6.575   0.498 -0.1014  0.0095 -0.0941
  754MOL0     C 1673  -0.140   6.626   0.392  0.1005  0.4676  0.8206
  754MOL0     C 1674  -0.268   6.605   0.437  0.5434 -0.2217  0.7040
  754MOL0     C 1675  -0.390   6.641   0.358 -0.2475  0.4030  0.2209
  754MOL0     C 1676  -0.503   6.711   0.442 -0.3548 -0.0750  0.0387
  754MOL0     C 1677  -0.600   6.781   0.346  0.4080 -0.1759  0.5492
  754MOL0     C 1678  -0.721   6.830   0.418  0.5723  0.2809 -0.3018
  754MOL0     O 1679  -0.768   6.943   0.350 -0.3268 -0.0328 -0.4111
  754MOL0     C 1680  -0.904   6.960   0.331  0.3463 -0.0042 -0.1598
  754MOL0     C 1681  -0.935   7.047   0.229 -0.3742 -0.4444  0.3100
  754MOL0     C 1682  -1.071   7.083   0.214 -0.2346 -0.4526 -1.0478
  754MOL0     C 1683  -1.095   7.203   0.120  0.0108 -0.0750  0.4388
  754MOL0     C 1684  -1.174   7.016   0.286  0.0094 -0.0660  0.1375
  754MOL0     C 1685  -1.316   7.039   0.260 -0.1066 -0.2591  0.4080
  754MOL0     O 1686  -1.350   7.106   0.145 -0.4273 -0.0929  0.2261
  754MOL0     C 1687  -1.486   7.102   0.121  0.3675 -0.7215  0.4686
  754MOL0     C 1688  -1.534   7.008   0.030  0.3020  0.1016  0.8058
  754MOL0     C 1689  -1.665   7.011  -0.008  0.1286 -0.3797  0.8999
  754MOL0     C 1690  -1.751   7.117   0.025  0.1850 -0.0996  0.8298
  754MOL0     O 1691  -1.878   7.116  -0.022 -0.1658  0.0243 -1.2244
  754MOL0     C 1692  -1.966   7.229  -0.006 -0.0997  0.3137 -0.7207
  754MOL0     C 1693  -2.114   7.171  -0.011  0.2897 -0.0975 -0.2701
  754MOL0     C 1694  -2.225   7.270   0.008  0.7425 -0.4864 -0.2559
  754MOL0     C 1695  -2.285   7.324  -0.119 -0.0940  0.0268  1.0385
  754MOL0     C 1696  -2.434   7.296  -0.131 -0.1301 -0.2358  0.7024
  754MOL0     C 1697  -2.519   7.406  -0.069 -0.2553 -0.5851 -0.7212
  754MOL0     C 1698  -2.662   7.401  -0.117  0.4621 -0.0201  0.1383
  754MOL0     C 1699  -2.746   7.493  -0.040 -0.0846 -0.4264 -0.4482
  754MOL0    Cl 1700  -2.910   7.465  -0.102 -0.1193 -0.3058  0.3205
  754MOL0     C 1701  -1.699   7.213   0.112  0.5663 -1.1570  0.2069
  754MOL0     C 1702  -1.569   7.210   0.158 -0.1525 -0.0284 -0.8824
  754MOL0     O 1703  -1.394   6.979   0.333 -0.2709  0.3588  0.4345
  754MOL0     C 1704  -1.139   6.911   0.375  0.2138  0.3913 -0.0556
  754MOL0     C 1705  -1.007   6.883   0.409 -0.4979  0.0773  0.9962
  754MOL0     N 1706  -0.274   6.565   0.567 -0.7600  0.0150 -0.2668
  754MOL0     N 1707  -0.150   6.561   0.609  0.0087 -0.0239  0.2209
  754MOL0     C 1708   0.964   5.932   0.637  0.7820 -0.0052  0.2801
  754MOL0     C 1709   1.092   5.920   0.576  0.5536  0.5789  0.4302
  754MOL0     C 1710   1.496   5.947   0.386  0.0718 -0.4759 -0.1636
  754MOL0     C 1711   1.534   6.074   0.341 -0.6783 -1.0014 -0.5698
  754MOL0     C 1712   1.643   6.096   0.252  1.6437 -0.1722 -0.0594
  754MOL0     C 1713   1.721   5.991   0.206  0.8426 -0.5766  0.0705
  754MOL0     O 1714   1.828   6.006   0.132 -0.4075 -0.5130  0.0241
  754MOL0     C 1715   1.896   6.133   0.129 -0.2312  0.5431  0.6035
  754MOL0     C 1716   2.037   6.120   0.069 -0.1446  0.0263  0.4706
  754MOL0     C 1717   2.015   6.152  -0.081  0.8399 -0.1931 -1.1003
  754MOL0     C 1718   2.133   6.093  -0.163 -0.5922  0.1240 -0.1833
  754MOL0     C 1719   2.264   6.106  -0.108 -0.5511 -0.8040 -0.5593
  754MOL0     C 1720   2.370   6.141  -0.060 -0.3621  0.4042 -0.6209
  754MOL0     C 1721   1.682   5.864   0.247  0.2227  0.1684 -0.8962
  754MOL0     C 1722   1.578   5.839   0.334 -0.5989 -0.7031 -0.1496
  754MOL0     H 1723   1.165   6.252   0.544 -0.8209  0.8750  1.0960
  754MOL0     H 1724   0.980   6.265   0.695 -1.3156 -0.5054 -0.5514
  754MOL0     H 1725   0.718   6.118   0.928 -3.6338  1.1809 -1.8814
  754MOL0     H 1726   0.870   6.192   0.887  0.6470 -1.0232 -2.0881
  754MOL0     H 1727   0.719   6.362   0.824  2.4851 -0.2397 -0.3847
  754MOL0     H 1728   0.736   6.283   0.669  0.2921  1.8382  0.6006
  754MOL0     H 1729   0.522   6.128   0.740  3.2419  0.0035 -2.3801
  754MOL0     H 1730   0.494   6.251   0.865 -0.2604  2.9902  0.4377
  754MOL0     H 1731   0.518   6.412   0.654  2.4338 -1.1653  2.0637
  754MOL0     H 1732   0.470   6.264   0.574  0.3734  0.7912 -0.3970
  754MOL0     H 1733   0.271   6.246   0.733 -1.8645  1.4114  0.9989
  754MOL0     H 1734   0.297   6.418   0.789 -1.5513 -0.9851  1.0608
  754MOL0     H 1735   0.333   6.489   0.563 -0.1905  0.0831 -0.0947
  754MOL0     H 1736   0.259   6.337   0.502 -0.6921  0.0647  0.0758
  754MOL0     H 1737   0.050   6.400   0.650  0.0403 -0.3025 -1.2589
  754MOL0     H 1738   0.143   6.546   0.685  1.3406 -1.2865  0.9513
  754MOL0     H 1739   0.076   6.469   0.395  0.0583 -0.3416 -0.1480
  754MOL0     H 1740   0.132   6.619   0.453  2.7429 -1.9193 -0.1597
  754MOL0     H 1741  -0.120   6.659   0.290 -1.6733  3.6228  1.3730
  754MOL0     H 1742  -0.376   6.706   0.271 -1.5609 -1.3887 -1.3898
  754MOL0     H 1743  -0.426   6.544   0.324 -0.8133  1.3953 -2.2009
  754MOL0     H 1744  -0.465   6.790   0.507 -1.7610  1.4336 -0.9125
  754MOL0     H 1745  -0.553   6.630   0.496 -1.7577  1.3358  0.9300
  754MOL0     H 1746  -0.630   6.713   0.266  1.8943  2.5936 -2.6181
  754MOL0     H 1747  -0.553   6.865   0.295 -2.4163  0.9009 -0.4382
  754MOL0     H 1748  -0.687   6.849   0.520 -0.9519 -0.2363  0.3361
  754MOL0     H 1749  -0.788   6.744   0.429 -2.1175  2.5380  3.5297
  754MOL0     H 1750  -0.853   7.077   0.164  0.2423 -1.3515  0.6567
  754MOL0     H 1751  -1.002   7.250   0.088 -0.0008 -0.4221 -0.1210
  754MOL0     H 1752  -1.138   7.172   0.024  0.4706  0.4361  0.0661
  754MOL0     H 1753  -1.151   7.278   0.176  1.1022  0.2129  1.1720
  754MOL0     H 1754  -1.466   6.928   0.004 -1.1044  0.3664 -5.1664
  754MOL0     H 1755  -1.706   6.930  -0.068 -2.3850  0.0102  1.9625
  754MOL0     H 1756  -1.956   7.278   0.092 -4.9718 -0.6779  0.5131
  754MOL0     H 1757  -1.944   7.300  -0.086 -1.0703  0.6446 -0.7042
  754MOL0     H 1758  -2.130   7.104  -0.095 -1.1485  0.5827 -0.5642
  754MOL0     H 1759  -2.119   7.106   0.077  0.8527  3.1786  2.4161
  754MOL0     H 1760  -2.177   7.360   0.046  0.0057  0.3803 -1.3260
  754MOL0     H 1761  -2.300   7.232   0.077  0.9168 -2.6626 -1.1732
  754MOL0     H 1762  -2.269   7.430  -0.142  0.2654 -0.4737 -1.2852
  754MOL0     H 1763  -2.236   7.274  -0.202 -0.4996  1.6772 -0.2683
  754MOL0     H 1764  -2.461   7.203  -0.079  1.5500 -0.1776  1.7272
  754MOL0     H 1765  -2.455   7.292  -0.239 -1.2159 -2.0386  0.9415
  754MOL0     H 1766  -2.511   7.397   0.039 -0.8456  0.0305 -0.6126
  754MOL0     H 1767  -2.479   7.504  -0.098 -1.2724  0.1098  0.1175
  754MOL0     H 1768  -2.688   7.295  -0.116 -1.8229  0.4946 -0.3574
  754MOL0     H 1769  -2.667   7.433  -0.221  1.0238 -2.1598 -0.5797
  754MOL0     H 1770  -2.724   7.598  -0.058  0.0405 -0.3522  0.1055
  754MOL0     H 1771  -2.738   7.480   0.069 -0.9060  1.7028 -0.0840
  754MOL0     H 1772  -1.761   7.296   0.144  1.1623 -0.8463  0.5670
  754MOL0     H 1773  -1.540   7.292   0.223 -0.1759 -2.4370  2.4306
  754MOL0     H 1774  -1.217   6.859   0.429  1.7880 -2.4466 -0.3382
  754MOL0     H 1775  -0.979   6.818   0.491 -2.2829 -1.3482  0.5359
  754MOL0     H 1776   0.903   5.842   0.635  0.9310 -0.2133 -3.7854
  754MOL0     H 1777   1.122   5.827   0.529  0.1046  0.4851  0.3221
  754MOL0     H 1778   1.484   6.155   0.393 -0.5271 -1.1875 -0.1319
  754MOL0     H 1779   1.665   6.200   0.228  3.4787 -0.2275  1.1869
  754MOL0     H 1780   1.831   6.196   0.068  0.4510  0.5340 -0.1567
  754MOL0     H 1781   1.917   6.167   0.231  1.3479 -3.1757  1.6657
  754MOL0     H 1782   2.064   6.015   0.082 -0.4121 -0.1865 -0.5898
  754MOL0     H 1783   2.116   6.183   0.111  1.9428 -1.7883 -0.4943
  754MOL0     H 1784   2.007   6.261  -0.092  1.0700  0.3025  2.5180
  754MOL0     H 1785   1.922   6.106  -0.116 -3.0937  3.4278  3.2481
  754MOL0     H 1786   2.130   6.146  -0.258 -2.0247  1.3354  0.4831
  754MOL0     H 1787   2.113   5.986  -0.177 -0.9171  0.0859  0.5341
  754MOL0     H 1788   2.468   6.158  -0.019  1.2061 -1.7132 -3.1427
  754MOL0     H 1789   1.716   5.770   0.204 -2.5145 -1.7162  0.7513
  754MOL0     H 1790   1.560   5.736   0.360 -3.5665 -0.5517 -1.2776
  755MOL0     O 1791   5.240   7.773   3.170  0.8070  0.0452  0.2507
  755MOL0     C 1792   5.278   7.741   3.057 -0.0581  0.7691 -0.2095
  755MOL0     O 1793   5.199   7.740   2.948 -0.0548 -0.2347 -0.3462
  755MOL0     C 1794   5.069   7.714   2.985 -0.5680 -0.2678  1.1887
  755MOL0     C 1795   5.021   7.591   2.961  0.5835  0.0538 -0.1155
  755MOL0     C 1796   4.892   7.545   2.971  0.1659 -0.2039  0.4137
  755MOL0     C 1797   4.804   7.645   3.027 -0.2676  0.1923 -0.0457
  755MOL0     O 1798   4.669   7.636   3.022  0.4386  0.2498 -0.5027
  755MOL0     C 1799   4.612   7.511   3.012  0.1143  1.3128 -0.2420
  755MOL0     C 1800   4.480   7.513   3.086  0.2502  0.1365 -0.4948
  755MOL0     C 1801   4.421   7.370   3.112 -0.6639  1.1939  0.1912
  755MOL0     C 1802   4.277   7.380   3.154 -0.1381 -0.6051 -0.7055
  755MOL0     C 1803   4.232   7.241   3.165  0.2706 -0.1097 -0.2967
  755MOL0     C 1804   4.106   7.204   3.250  0.2423 -0.6432  1.1740
  755MOL0     C 1805   3.975   7.245   3.195 -0.2210 -0.3887 -1.0085
  755MOL0     C 1806   3.863   7.233   3.294  0.7039 -0.4409  0.2417
  755MOL0     N 1807   3.738   7.290   3.240  1.4418  0.1305 -0.5519
  755MOL0     C 1808   3.664   7.226   3.138  0.0995 -0.3134  0.0615
  755MOL0     C 1809   3.572   7.312   3.100  0.6161 -0.0512 -0.0086
  755MOL0     C 1810   3.475   7.297   2.991 -0.4132  1.6176  0.2889
  755MOL0     C 1811   3.342   7.298   3.061  0.7307  0.1473 -1.2724
  755MOL0     C 1812   3.225   7.292   2.966 -0.0185 -0.0669 -0.2353
  755MOL0     C 1813   3.104   7.374   3.008  0.1881 -0.1594 -0.3624
  755MOL0     O 1814   3.062   7.371   3.142  0.6572  0.1255 -0.0330
  755MOL0     C 1815   2.950   7.456   3.164  0.7025  0.2794 -0.5775
  755MOL0     C 1816   2.929   7.577   3.110  0.8216 -0.2896 -0.2791
  755MOL0     C 1817   2.811   7.642   3.137  0.0374 -0.6462 -0.6660
  755MOL0     C 1818   2.807   7.789   3.083  0.2739 -0.7256 -0.0970
  755MOL0     C 1819   2.707   7.588   3.212 -0.0740  0.5004 -0.6824
  755MOL0     C 1820   2.571   7.652   3.238 -0.2771  0.3830  0.0782
  755MOL0     O 1821   2.490   7.593   3.331 -0.2131 -0.3007 -0.0027
  755MOL0     C 1822   2.353   7.629   3.344  0.7349  0.3885 -0.3819
  755MOL0     C 1823   2.260   7.585   3.254  0.0371 -0.8426 -0.7865
  755MOL0     C 1824   2.130   7.625   3.278  0.4625  0.2679 -0.0095
  755MOL0     C 1825   2.085   7.695   3.396 -0.3506  0.1937  0.2219
  755MOL0     O 1826   1.952   7.725   3.420  0.0081  0.7540  0.3851
  755MOL0     C 1827   1.870   7.755   3.302  0.3630 -0.7156 -0.3239
  755MOL0     C 1828   1.740   7.819   3.337 -0.0905 -0.8078  0.2632
  755MOL0     C 1829   1.657   7.839   3.216  0.0237  0.5975  0.3886
  755MOL0     C 1830   1.524   7.893   3.248  0.6228 -0.2582  0.0377
  755MOL0     C 1831   1.445   7.928   3.113 -0.0741 -0.6637  0.0846
  755MOL0     C 1832   1.299   7.970   3.150 -0.0742 -0.5091 -0.4676
  755MOL0     C 1833   1.217   7.843   3.148  0.1291  0.2875  0.3232
  755MOL0     C 1834   1.077   7.891   3.181  0.7785  0.0020  0.4563
  755MOL0    Cl 1835   0.962   7.752   3.218 -0.1139  0.1695 -0.2188
  755MOL0     C 1836   2.181   7.728   3.492  0.8309  0.6302 -0.5885
  755MOL0     C 1837   2.312   7.706   3.460  0.0049  0.2127  0.3313
  755MOL0     O 1838   2.534   7.745   3.167 -0.3153 -0.4682  0.4781
  755MOL0     C 1839   2.735   7.466   3.270  0.5452 -0.3536  0.3618
  755MOL0     C 1840   2.851   7.396   3.245  0.3961  0.0817  0.3159
  755MOL0     N 1841   3.584   7.424   3.186  0.1371  0.1422  0.0460
  755MOL0     N 1842   3.674   7.405   3.272 -0.6662 -0.0563  0.0134
  755MOL0     C 1843   4.852   7.768   3.069  0.2110 -0.5421  0.1449
  755MOL0     C 1844   4.986   7.802   3.050 -0.2583 -0.5310  0.4061
  755MOL0     C 1845   5.424   7.723   3.041 -0.3296  0.1373  0.0609
  755MOL0     C 1846   5.508   7.729   3.147 -0.1177  0.0664 -0.3889
  755MOL0     C 1847   5.652   7.724   3.132  0.5201 -0.6089 -0.7874
  755MOL0     C 1848   5.701   7.718   3.005  0.2514  0.3985  0.7352
  755MOL0     O 1849   5.839   7.689   2.990  0.4561  0.6183 -0.2900
  755MOL0     C 1850   5.926   7.771   2.916 -0.4409  0.4514 -0.2234
  755MOL0     C 1851   5.884   7.914   2.914  0.2538  0.0032 -0.8860
  755MOL0     C 1852   5.991   8.009   2.862 -0.0985  0.0661  1.5731
  755MOL0     C 1853   6.039   7.961   2.720 -0.9677 -0.6597 -0.0482
  755MOL0     C 1854   6.158   8.037   2.698 -1.1666  0.0163 -0.4522
  755MOL0     C 1855   6.265   8.103   2.695  0.2245 -0.6137  0.9043
  755MOL0     C 1856   5.616   7.728   2.897 -0.3089 -0.6990  0.0045
  755MOL0     C 1857   5.481   7.734   2.912 -0.0007 -0.6793 -0.6516
  755MOL0     H 1858   5.094   7.525   2.914  0.6402  1.5928 -2.3501
  755MOL0     H 1859   4.866   7.445   2.938  2.2543 -0.9568  0.8792
  755MOL0     H 1860   4.586   7.495   2.907  2.2633 -2.5058 -0.3859
  755MOL0     H 1861   4.674   7.433   3.059 -0.4366  0.2589 -1.2193
  755MOL0     H 1862   4.486   7.565   3.183  3.3678  1.6623 -1.3552
  755MOL0     H 1863   4.402   7.571   3.037 -0.6485 -2.0616 -1.7902
  755MOL0     H 1864   4.437   7.313   3.020 -2.0262 -0.2011  0.7825
  755MOL0     H 1865   4.480   7.332   3.195  2.0990  2.5966 -0.9877
  755MOL0     H 1866   4.270   7.438   3.247 -0.1151 -0.2887 -0.9021
  755MOL0     H 1867   4.217   7.434   3.081  1.2170  1.8299 -0.1274
  755MOL0     H 1868   4.229   7.204   3.062  2.1317 -0.2285 -0.3370
  755MOL0     H 1869   4.306   7.180   3.218 -0.2189 -0.0273  0.5015
  755MOL0     H 1870   4.103   7.095   3.247  1.8178 -0.6982  0.0457
  755MOL0     H 1871   4.121   7.241   3.352  6.0929  0.6106  0.2452
  755MOL0     H 1872   3.991   7.350   3.170 -2.1717 -0.4080 -2.5953
  755MOL0     H 1873   3.947   7.200   3.099 -0.3868 -0.7063 -0.8167
  755MOL0     H 1874   3.892   7.283   3.386  2.0597 -2.2954  0.8731
  755MOL0     H 1875   3.852   7.126   3.315  0.3881 -0.7886 -1.4623
  755MOL0     H 1876   3.692   7.131   3.093  0.9448 -0.4613  0.8786
  755MOL0     H 1877   3.491   7.389   2.934 -0.2068  1.8176  0.6661
  755MOL0     H 1878   3.499   7.207   2.934  3.1541  0.8487  2.6407
  755MOL0     H 1879   3.330   7.375   3.138  1.1076  1.0745 -2.1299
  755MOL0     H 1880   3.336   7.203   3.116  0.8575 -0.0762 -1.6403
  755MOL0     H 1881   3.197   7.188   2.950  0.9165 -0.4783  0.6555
  755MOL0     H 1882   3.256   7.332   2.869 -1.6093  0.9406 -0.3690
  755MOL0     H 1883   3.024   7.356   2.936  2.4436 -2.7954 -2.4461
  755MOL0     H 1884   3.144   7.473   2.986 -0.1335  0.0849  0.1507
  755MOL0     H 1885   3.004   7.640   3.063  2.0960  2.0559  4.2902
  755MOL0     H 1886   2.756   7.788   2.986 -0.2470  0.4172  0.1587
  755MOL0     H 1887   2.771   7.854   3.162 -0.3391 -0.8598 -0.2612
  755MOL0     H 1888   2.909   7.826   3.074 -0.5202  1.4707 -0.6003
  755MOL0     H 1889   2.277   7.522   3.167  3.4057 -1.7680  0.4201
  755MOL0     H 1890   2.055   7.595   3.206  0.8647 -4.2659  1.1549
  755MOL0     H 1891   1.919   7.829   3.237  0.3782 -0.6539 -0.2426
  755MOL0     H 1892   1.842   7.659   3.259 -1.5747 -0.1618 -0.4010
  755MOL0     H 1893   1.682   7.762   3.410  0.4481 -0.1477  1.2326
  755MOL0     H 1894   1.755   7.917   3.384 -1.5658 -0.3147 -0.2263
  755MOL0     H 1895   1.637   7.738   3.178 -0.6484  0.5049  0.9733
  755MOL0     H 1896   1.713   7.889   3.136 -0.4955 -0.1074 -0.4223
  755MOL0     H 1897   1.470   7.816   3.304 -0.2924 -0.2073 -0.7572
  755MOL0     H 1898   1.539   7.981   3.312 -1.2070  0.6840 -0.7512
  755MOL0     H 1899   1.445   7.842   3.045 -0.8716 -0.1851 -0.5466
  755MOL0     H 1900   1.482   8.016   3.059 -1.5617  0.6599  1.1210
  755MOL0     H 1901   1.307   8.010   3.252  2.4192 -0.0543 -0.7885
  755MOL0     H 1902   1.257   8.047   3.084 -0.5867 -2.8610 -3.1111
  755MOL0     H 1903   1.259   7.775   3.222  0.5960 -0.1083 -0.2987
  755MOL0     H 1904   1.218   7.788   3.053  0.8409  0.0534  0.4633
  755MOL0     H 1905   1.031   7.949   3.101 -0.9534  1.7593  2.5738
  755MOL0     H 1906   1.079   7.957   3.269  0.2764 -3.2635  3.1455
  755MOL0     H 1907   2.138   7.771   3.582 -1.0929 -0.5354 -0.8839
  755MOL0     H 1908   2.400   7.738   3.515  1.0918  1.2951 -1.8761
  755MOL0     H 1909   2.662   7.415   3.331  1.4226  0.5494  2.2337
  755MOL0     H 1910   2.851   7.292   3.276 -1.0563 -0.3077 -0.8862
  755MOL0     H 1911   4.775   7.838   3.100  0.8824  0.6479 -0.8171
  755MOL0     H 1912   5.016   7.903   3.076 -1.9256  0.4269 -1.1260
  755MOL0     H 1913   5.472   7.733   3.250  2.1096 -0.5907  0.4894
  755MOL0     H 1914   5.711   7.718   3.222 -1.5495  0.2947  0.7035
  755MOL0     H 1915   6.021   7.759   2.969  0.5589  1.7205 -1.6596
  755MOL0     H 1916   5.939   7.723   2.818 -0.7466 -2.8493  1.2226
  755MOL0     H 1917   5.861   7.950   3.014 -2.6260 -0.8637 -1.1476
  755MOL0     H 1918   5.790   7.933   2.861  0.7146 -0.1082 -1.7528
  755MOL0     H 1919   6.070   8.005   2.937  0.8616  1.5117  0.6705
  755MOL0     H 1920   5.960   8.113   2.852  2.5298  0.7222 -0.6854
  755MOL0     H 1921   5.963   7.983   2.644 -0.0611 -0.9769 -1.0730
  755MOL0     H 1922   6.057   7.854   2.711  0.2832 -0.4277 -0.4296
  755MOL0     H 1923   6.354   8.161   2.687 -0.5330  0.8061  2.1912
  755MOL0     H 1924   5.658   7.732   2.797 -1.9579  0.1122 -0.6907
  755MOL0     H 1925   5.416   7.736   2.825  2.2165 -0.3847 -2.3746
  756MOL0     O 1926   9.228   2.609   7.752 -0.2481 -0.5412  0.4421
  756MOL0     C 1927   9.245   2.496   7.803  0.0844 -0.0271  0.2229
  756MOL0     O 1928   9.156   2.388   7.803 -0.3608  0.8601  0.0116
  756MOL0     C 1929   9.043   2.400   7.731 -0.0148 -0.1024  0.8464
  756MOL0     C 1930   9.042   2.349   7.598 -0.4606 -0.2088  1.6547
  756MOL0     C 1931   8.931   2.363   7.509 -0.1712 -0.8795 -0.1356
  756MOL0     C 1932   8.810   2.412   7.558 -0.4902 -0.3344  0.4167
  756MOL0     O 1933   8.694   2.433   7.487  0.4130  0.2395 -0.0477
  756MOL0     C 1934   8.711   2.502   7.361  0.3261 -0.0762  0.4782
  756MOL0     C 1935   8.609   2.614   7.351 -0.5109 -0.6322  0.5345
  756MOL0     C 1936   8.468   2.570   7.315 -0.2633 -0.0142  0.7583
  756MOL0     C 1937   8.380   2.674   7.246 -0.5478  0.5316 -0.0979
  756MOL0     C 1938   8.249   2.595   7.220  0.0258 -0.9743  0.3203
  756MOL0     C 1939   8.153   2.673   7.127 -0.6723 -0.2676 -0.2428
  756MOL0     C 1940   8.096   2.802   7.200 -0.3952 -0.7063  0.8369
  756MOL0     C 1941   8.002   2.884   7.111 -0.3848 -1.4233 -0.4715
  756MOL0     N 1942   7.882   2.809   7.091 -0.3799  0.0924  0.5378
  756MOL0     C 1943   7.795   2.769   7.187  0.1081 -0.0078 -0.3284
  756MOL0     C 1944   7.696   2.703   7.129 -0.4759  0.0667 -1.0211
  756MOL0     C 1945   7.581   2.623   7.180  0.1401 -0.0596 -0.1133
  756MOL0     C 1946   7.546   2.645   7.327  1.0105  0.3441 -0.1562
  756MOL0     C 1947   7.462   2.776   7.346 -0.4870  0.0324  0.6497
  756MOL0     C 1948   7.445   2.799   7.495 -0.0128 -0.6826  0.4429
  756MOL0     O 1949   7.389   2.681   7.559  0.0030  0.1280  0.2960
  756MOL0     C 1950   7.255   2.678   7.557 -0.5850  0.1765  0.0617
  756MOL0     C 1951   7.192   2.575   7.496 -0.6623 -0.1161  0.6747
  756MOL0     C 1952   7.056   2.559   7.502 -0.2302 -0.1880  0.0988
  756MOL0     C 1953   7.011   2.433   7.429  0.1891 -0.0140  0.2008
  756MOL0     C 1954   6.971   2.651   7.570  1.2059 -0.2969  0.1252
  756MOL0     C 1955   6.823   2.644   7.583  0.0004  0.2716  0.0420
  756MOL0     O 1956   6.764   2.737   7.665  0.0680 -0.3212 -0.0968
  756MOL0     C 1957   6.629   2.749   7.690 -0.3100 -0.5388  0.8172
  756MOL0     C 1958   6.538   2.735   7.588 -0.2450  0.8793 -0.4389
  756MOL0     C 1959   6.403   2.757   7.608 -0.6238 -0.1118  0.2023
  756MOL0     C 1960   6.356   2.815   7.731 -0.1665  0.5214 -0.4475
  756MOL0     O 1961   6.221   2.850   7.739 -0.2805 -0.1228 -0.2634
  756MOL0     C 1962   6.174   2.920   7.852 -0.2313  0.5484 -0.3219
  756MOL0     C 1963   6.024   2.964   7.835 -0.3225  0.5832 -0.1879
  756MOL0     C 1964   6.010   3.095   7.744 -0.4773  0.2444 -0.0830
  756MOL0     C 1965   5.867   3.128   7.692 -0.5500  0.2535  0.2058
  756MOL0     C 1966   5.769   3.102   7.807  0.5959 -0.2102  0.5957
  756MOL0     C 1967   5.638   3.193   7.784  0.3767 -0.7657  0.1663
  756MOL0     C 1968   5.543   3.194   7.898 -0.6780 -0.2430  0.1661
  756MOL0     C 1969   5.405   3.251   7.856 -0.2381 -0.3766  0.0916
  756MOL0    Cl 1970   5.412   3.430   7.832  0.4953  0.4020 -0.1977
  756MOL0     C 1971   6.452   2.835   7.836  0.2188 -1.0057  0.5816
  756MOL0     C 1972   6.589   2.800   7.814  0.5586  0.7491 -0.5145
  756MOL0     O 1973   6.762   2.561   7.516 -0.1373  0.3308 -0.3685
  756MOL0     C 1974   7.037   2.755   7.641  0.6573  0.4540 -0.3453
  756MOL0     C 1975   7.182   2.765   7.640  0.1000  0.0178 -0.7180
  756MOL0     N 1976   7.714   2.721   6.995 -1.1448 -0.3266  0.5061
  756MOL0     N 1977   7.833   2.779   6.971  0.7600 -0.2630 -0.3799
  756MOL0     C 1978   8.809   2.451   7.693 -0.5202 -0.1491  0.3079
  756MOL0     C 1979   8.925   2.454   7.780  0.0200 -0.2619 -0.4128
  756MOL0     C 1980   9.378   2.472   7.868  0.7080 -0.4287 -0.4612
  756MOL0     C 1981   9.482   2.563   7.847 -0.4676 -0.1452  0.4292
  756MOL0     C 1982   9.603   2.550   7.920  0.3567 -0.1191  0.1573
  756MOL0     C 1983   9.630   2.439   8.003 -1.0755 -0.0527  0.7024
  756MOL0     O 1984   9.757   2.394   8.030  0.2582 -0.7999 -0.5179
  756MOL0     C 1985   9.866   2.468   7.972 -0.1789 -0.8717 -0.0530
  756MOL0     C 1986   9.986   2.377   7.972 -0.1894 -0.4717 -0.1607
  756MOL0     C 1987  10.106   2.464   7.930  0.3409 -0.0047  0.1920
  756MOL0     C 1988  10.222   2.365   7.933 -0.1405  0.1239 -0.1459
  756MOL0     C 1989  10.344   2.444   7.951  0.4242  0.1431  0.5868
  756MOL0     C 1990  10.422   2.521   7.979  0.1630 -0.4408 -0.1680
  756MOL0     C 1991   9.520   2.361   8.027  0.1404 -0.1180 -0.3150
  756MOL0     C 1992   9.389   2.373   7.964 -0.6981  0.1946 -0.2311
  756MOL0     H 1993   9.126   2.302   7.548 -2.0126 -0.0581 -1.2730
  756MOL0     H 1994   8.933   2.326   7.407  0.9017 -0.3744 -0.3090
  756MOL0     H 1995   8.812   2.542   7.354  1.1988 -2.3255 -0.8120
  756MOL0     H 1996   8.718   2.434   7.275 -0.5994  1.2309 -0.6908
  756MOL0     H 1997   8.603   2.672   7.443  1.1215  1.7841 -0.7774
  756MOL0     H 1998   8.651   2.680   7.275 -0.4375  0.2531  1.3250
  756MOL0     H 1999   8.463   2.488   7.243 -1.9824  0.1190  0.6795
  756MOL0     H 2000   8.424   2.522   7.403  1.2085  0.8967  2.0570
  756MOL0     H 2001   8.352   2.754   7.316  2.8767  2.0887 -0.3000
  756MOL0     H 2002   8.432   2.705   7.155  0.1507 -1.3441 -0.3741
  756MOL0     H 2003   8.256   2.498   7.171  0.7462  0.2663 -2.2272
  756MOL0     H 2004   8.199   2.584   7.317 -0.7846  4.0611  0.7566
  756MOL0     H 2005   8.207   2.697   7.035  2.2695  2.0030  1.8960
  756MOL0     H 2006   8.069   2.603   7.120 -0.4208 -0.5786 -0.1944
  756MOL0     H 2007   8.049   2.782   7.297 -0.9603 -0.2462  0.6670
  756MOL0     H 2008   8.181   2.870   7.207 -1.5087  1.6047 -4.0858
  756MOL0     H 2009   8.048   2.910   7.015 -0.1331  0.4926  0.1158
  756MOL0     H 2010   7.978   2.971   7.172 -0.1827 -3.0384  2.0811
  756MOL0     H 2011   7.802   2.783   7.295 -2.2893  0.7694 -0.1916
  756MOL0     H 2012   7.489   2.646   7.125  1.1111  0.8228 -1.4171
  756MOL0     H 2013   7.602   2.516   7.170  1.6489  0.2024  0.0203
  756MOL0     H 2014   7.632   2.646   7.394  0.7767  1.1578  0.1309
  756MOL0     H 2015   7.480   2.565   7.361 -0.6609  2.6756  2.4736
  756MOL0     H 2016   7.367   2.756   7.296 -0.9536 -0.6271  1.7591
  756MOL0     H 2017   7.510   2.866   7.308 -1.7537  0.7385  0.6885
  756MOL0     H 2018   7.395   2.888   7.536  2.8681 -0.0571  2.8636
  756MOL0     H 2019   7.546   2.820   7.530  0.3933 -0.8460 -0.5742
  756MOL0     H 2020   7.261   2.510   7.444  1.1810  1.3947  1.0993
  756MOL0     H 2021   6.992   2.357   7.505  1.5915  2.7669  3.5998
  756MOL0     H 2022   6.924   2.450   7.365  1.2980 -1.4229 -1.8083
  756MOL0     H 2023   7.096   2.398   7.369  1.0519 -0.5671  1.6914
  756MOL0     H 2024   6.576   2.712   7.489  1.4829  2.0952 -0.1040
  756MOL0     H 2025   6.336   2.767   7.524  0.6519  1.1641 -0.7031
  756MOL0     H 2026   6.188   2.857   7.940 -0.6651  1.0809  0.1384
  756MOL0     H 2027   6.235   3.010   7.869  1.2820 -0.4960 -0.0206
  756MOL0     H 2028   5.970   2.879   7.792 -1.6157  2.1075 -1.7486
  756MOL0     H 2029   5.983   2.985   7.934  2.6881 -1.0810  1.5521
  756MOL0     H 2030   6.081   3.093   7.660  0.0336 -0.1703  0.3529
  756MOL0     H 2031   6.049   3.180   7.802  1.0529  0.2085 -0.9888
  756MOL0     H 2032   5.869   3.234   7.664  4.0173  0.1484 -0.5946
  756MOL0     H 2033   5.843   3.085   7.594  1.6089  2.2101 -1.3052
  756MOL0     H 2034   5.813   3.123   7.905  1.0891  0.4310  0.2378
  756MOL0     H 2035   5.743   2.995   7.801  1.1422 -0.2436 -2.7946
  756MOL0     H 2036   5.657   3.298   7.763 -0.2036 -1.0344 -2.0197
  756MOL0     H 2037   5.597   3.164   7.686  0.4904 -3.0187  0.7285
  756MOL0     H 2038   5.579   3.258   7.979  0.3762 -0.5434 -0.0506
  756MOL0     H 2039   5.533   3.091   7.932  1.5636 -1.0067 -1.2989
  756MOL0     H 2040   5.345   3.217   7.941 -1.4141 -1.0453 -0.9637
  756MOL0     H 2041   5.366   3.203   7.766  0.7113 -1.1762  0.0879
  756MOL0     H 2042   6.420   2.884   7.927 -2.0503 -0.2072 -0.5700
  756MOL0     H 2043   6.674   2.811   7.881  1.1161 -4.6584  0.0893
  756MOL0     H 2044   6.983   2.826   7.704 -0.2679  0.9173 -1.6191
  756MOL0     H 2045   7.228   2.842   7.701 -1.5446 -0.7623  1.6329
  756MOL0     H 2046   8.714   2.487   7.732 -0.7226 -0.4084  0.0505
  756MOL0     H 2047   8.917   2.490   7.882  1.5382  1.4592 -0.8504
  756MOL0     H 2048   9.479   2.652   7.785 -3.1563 -0.3964  0.0806
  756MOL0     H 2049   9.668   2.637   7.912 -0.2102  0.7439  3.4980
  756MOL0     H 2050   9.842   2.511   7.875 -0.2057  0.9959  0.7386
  756MOL0     H 2051   9.892   2.548   8.042  3.8144 -1.3998 -0.6895
  756MOL0     H 2052   9.975   2.299   7.895  2.9614 -0.1186 -1.1144
  756MOL0     H 2053   9.994   2.337   8.074 -1.1095 -4.0503 -1.3304
  756MOL0     H 2054  10.133   2.546   7.997 -0.5440  0.0313  0.5274
  756MOL0     H 2055  10.092   2.500   7.828 -0.5388  1.8110  0.9096
  756MOL0     H 2056  10.230   2.309   7.839  2.8209 -0.5812  0.4166
  756MOL0     H 2057  10.209   2.291   8.013  0.7392  0.3511  0.2161
  756MOL0     H 2058  10.482   2.603   8.013  1.4400 -1.0928 -0.7878
  756MOL0     H 2059   9.528   2.302   8.118 -2.3308 -1.3740 -0.8335
  756MOL0     H 2060   9.313   2.301   7.992  1.2336 -1.6343  0.6753
  757MOL0     O 2061  10.975   3.999   9.786  0.2509  1.0878  0.4516
  757MOL0     C 2062  10.999   3.953   9.676  0.1144  0.3823  0.4400
  757MOL0     O 2063  10.906   3.910   9.586 -0.1720 -0.1868 -0.4094
  757MOL0     C 2064  10.771   3.947   9.608 -0.5326 -0.9074  0.6007
  757MOL0     C 2065  10.729   4.078   9.652  0.1679  0.0434  0.1824
  757MOL0     C 2066  10.593   4.097   9.698 -0.0687 -0.3375  0.3488
  757MOL0     C 2067  10.497   3.991   9.687 -0.0041 -1.1091  0.0819
  757MOL0     O 2068  10.365   4.023   9.723  0.0741  0.2749  0.2498
  757MOL0     C 2069  10.348   4.068   9.866  0.3064  0.5216  1.0337
  757MOL0     C 2070  10.206   4.127   9.873 -0.3390  0.5647 -0.3510
  757MOL0     C 2071  10.098   4.016   9.858 -1.0593 -0.1236  0.8008
  757MOL0     C 2072   9.964   4.061   9.903  0.5342  0.5771  0.1580
  757MOL0     C 2073   9.860   3.945   9.895  0.0069  0.5185 -0.6320
  757MOL0     C 2074   9.717   4.002   9.927  0.6881  0.1163  0.4668
  757MOL0     C 2075   9.597   3.912   9.895 -0.3465 -0.0175  0.1689
  757MOL0     C 2076   9.617   3.770   9.949  0.0072  1.1021  0.1572
  757MOL0     N 2077   9.525   3.674   9.888  0.8051 -0.0219 -0.3146
  757MOL0     C 2078   9.540   3.604   9.771 -0.4254 -0.6829 -0.0928
  757MOL0     C 2079   9.419   3.543   9.747  0.0814 -0.5915 -0.2130
  757MOL0     C 2080   9.382   3.455   9.629  0.2007 -0.8611 -0.4818
  757MOL0     C 2081   9.421   3.529   9.508  0.2824  0.6501  0.6521
  757MOL0     C 2082   9.326   3.492   9.401  0.6599  0.3208  0.0576
  757MOL0     C 2083   9.350   3.539   9.254 -0.2909 -0.1030  0.2969
  757MOL0     O 2084   9.267   3.457   9.167 -0.1087 -0.0424  0.1871
  757MOL0     C 2085   9.135   3.496   9.133 -0.5725 -0.0542 -0.7024
  757MOL0     C 2086   9.066   3.621   9.168  0.4099  0.2968  0.2485
  757MOL0     C 2087   8.926   3.635   9.145 -0.6930  0.4810  0.2141
  757MOL0     C 2088   8.872   3.776   9.169 -0.1633  0.1980 -0.0988
  757MOL0     C 2089   8.851   3.519   9.099 -0.1084 -0.7403 -0.5172
  757MOL0     C 2090   8.708   3.523   9.070 -1.0987 -0.2228 -0.5231
  757MOL0     O 2091   8.648   3.399   9.058  0.2173  0.1175  0.0102
  757MOL0     C 2092   8.517   3.400   9.011  0.7800 -0.3997 -0.1943
  757MOL0     C 2093   8.415   3.354   9.096 -0.4698  0.0671  0.1247
  757MOL0     C 2094   8.278   3.334   9.057 -0.0074 -0.6321  1.1228
  757MOL0     C 2095   8.249   3.365   8.927  0.0060 -0.0265 -0.1830
  757MOL0     O 2096   8.121   3.363   8.873 -0.7913  0.0044 -0.2776
  757MOL0     C 2097   8.039   3.473   8.918  1.2254 -1.0010 -0.3563
  757MOL0     C 2098   8.034   3.588   8.823  0.6725  0.5961 -0.3572
  757MOL0     C 2099   7.971   3.710   8.890 -0.1412  0.0414  0.2376
  757MOL0     C 2100   7.833   3.684   8.969 -0.2683  0.5698 -0.0730
  757MOL0     C 2101   7.748   3.808   8.976 -0.3089  0.0029 -0.0021
  757MOL0     C 2102   7.643   3.793   9.091 -0.3587 -0.4743  0.0272
  757MOL0     C 2103   7.542   3.907   9.077 -0.7566 -0.4411  0.5139
  757MOL0     C 2104   7.429   3.884   9.183 -0.7137 -0.1666  0.6053
  757MOL0    Cl 2105   7.277   3.954   9.120  0.1619  0.4659 -0.2113
  757MOL0     C 2106   8.353   3.391   8.835  0.0729 -0.1141  1.0417
  757MOL0     C 2107   8.485   3.411   8.873  0.3028 -0.5593  0.2521
  757MOL0     O 2108   8.654   3.630   9.042  0.0535 -1.1039 -0.0883
  757MOL0     C 2109   8.918   3.398   9.079 -0.3011  0.2973 -0.4506
  757MOL0     C 2110   9.054   3.391   9.094 -0.0826 -0.3107  0.4762
  757MOL0     N 2111   9.337   3.578   9.856 -0.0184 -0.9554 -0.5835
  757MOL0     N 2112   9.397   3.663   9.931 -0.0201 -0.1839 -0.3006
  757MOL0     C 2113  10.540   3.872   9.632  0.0397 -0.1159  0.9440
  757MOL0     C 2114  10.676   3.850   9.597 -0.0872 -0.6887 -0.0205
  757MOL0     C 2115  11.144   3.921   9.645  0.4316 -0.7045 -0.0195
  757MOL0     C 2116  11.251   3.993   9.705  0.5306 -0.0376 -0.5841
  757MOL0     C 2117  11.383   3.966   9.673 -0.2739  0.5941  0.3673
  757MOL0     C 2118  11.410   3.872   9.570 -0.3753 -0.2123 -0.6112
  757MOL0     O 2119  11.539   3.843   9.552 -0.6596 -0.2206 -0.5208
  757MOL0     C 2120  11.580   3.749   9.452 -0.5796 -0.7128  0.1453
  757MOL0     C 2121  11.622   3.836   9.338 -0.4047 -0.4365  0.3480
  757MOL0     C 2122  11.639   3.741   9.211  0.1329  0.7057 -0.0203
  757MOL0     C 2123  11.644   3.830   9.088  0.3490  0.3879  0.3356
  757MOL0     C 2124  11.753   3.930   9.082 -0.5079 -0.4444 -0.2447
  757MOL0     C 2125  11.843   4.017   9.075 -0.0365  0.5281 -0.2997
  757MOL0     C 2126  11.302   3.793   9.515  0.6395 -0.7111  0.6228
  757MOL0     C 2127  11.170   3.828   9.549  0.5591  0.6148 -0.1132
  757MOL0     H 2128  10.796   4.162   9.640  0.2278 -0.0002  0.2141
  757MOL0     H 2129  10.575   4.201   9.723  0.4689 -0.0877 -0.2769
  757MOL0     H 2130  10.363   3.986   9.936  0.0043 -1.8750 -1.5397
  757MOL0     H 2131  10.424   4.141   9.893  1.1345 -0.5627  1.6868
  757MOL0     H 2132  10.183   4.188   9.961 -0.3688  0.1436 -0.0677
  757MOL0     H 2133  10.204   4.200   9.791 -2.3541 -1.3030 -2.0940
  757MOL0     H 2134  10.097   3.979   9.755  1.0237  0.6056  0.4706
  757MOL0     H 2135  10.139   3.951   9.936  2.5944  2.1919  1.0718
  757MOL0     H 2136   9.971   4.094  10.007 -1.6955  3.1281 -0.4127
  757MOL0     H 2137   9.932   4.142   9.838  0.4661  1.3186  1.0995
  757MOL0     H 2138   9.862   3.888   9.802 -1.6956  0.5606 -0.7257
  757MOL0     H 2139   9.885   3.876   9.977 -1.1905 -0.1214 -0.7900
  757MOL0     H 2140   9.720   4.027  10.034  0.0375  0.1345  0.4859
  757MOL0     H 2141   9.703   4.095   9.872 -0.9786 -0.9000 -0.9031
  757MOL0     H 2142   9.497   3.950   9.918 -1.4382 -1.6788 -1.4475
  757MOL0     H 2143   9.588   3.904   9.786 -1.2841  1.9476  0.0639
  757MOL0     H 2144   9.597   3.778  10.056  1.2687  0.1739  0.4870
  757MOL0     H 2145   9.719   3.741   9.922 -0.4892  1.7735 -2.8742
  757MOL0     H 2146   9.633   3.584   9.720  0.9540  1.0381  1.6185
  757MOL0     H 2147   9.440   3.363   9.628  6.8054  2.6564 -3.4714
  757MOL0     H 2148   9.275   3.438   9.644  0.5531 -0.4508  3.6171
  757MOL0     H 2149   9.523   3.506   9.474  0.6687 -0.3039  2.3636
  757MOL0     H 2150   9.420   3.637   9.523 -2.7792  0.4152  3.0986
  757MOL0     H 2151   9.237   3.548   9.430  0.2972  0.8998 -1.9969
  757MOL0     H 2152   9.298   3.386   9.394 -3.1024  1.2704 -1.3735
  757MOL0     H 2153   9.455   3.528   9.226 -0.6187  0.6746 -1.3335
  757MOL0     H 2154   9.332   3.646   9.244  0.9764  0.1344  0.3789
  757MOL0     H 2155   9.122   3.702   9.212  2.3605 -2.1975  2.6834
  757MOL0     H 2156   8.872   3.830   9.074 -0.7488  0.9733  0.3322
  757MOL0     H 2157   8.767   3.761   9.195  0.0575 -2.4938 -0.4639
  757MOL0     H 2158   8.933   3.836   9.237 -1.4670  0.6785  0.6612
  757MOL0     H 2159   8.441   3.322   9.196  1.0669 -2.3291 -0.9398
  757MOL0     H 2160   8.205   3.296   9.128  0.8302  0.0271  2.3886
  757MOL0     H 2161   7.936   3.435   8.923 -0.1413  2.4586  0.4470
  757MOL0     H 2162   8.059   3.501   9.021  0.2246  2.0875 -0.9010
  757MOL0     H 2163   8.137   3.621   8.804  0.3832  0.0274 -3.3323
  757MOL0     H 2164   7.993   3.571   8.723  0.4626  7.1228 -1.8893
  757MOL0     H 2165   7.958   3.783   8.809  2.9598 -0.8975 -1.3160
  757MOL0     H 2166   8.044   3.761   8.953  0.6805  1.0280 -1.4258
  757MOL0     H 2167   7.778   3.611   8.909  0.1116 -0.6352  1.0051
  757MOL0     H 2168   7.852   3.639   9.067  0.0791 -1.3227 -0.9854
  757MOL0     H 2169   7.703   3.819   8.877 -1.0170 -1.5531  0.1025
  757MOL0     H 2170   7.806   3.897   8.998 -0.8052  0.5598 -0.8938
  757MOL0     H 2171   7.601   3.693   9.080  3.0584 -2.0260 -0.1366
  757MOL0     H 2172   7.697   3.795   9.186  0.1707  0.8273 -0.2806
  757MOL0     H 2173   7.506   3.918   8.975  0.4815  3.0780  0.3333
  757MOL0     H 2174   7.591   4.004   9.091 -0.0021 -0.7799  0.2589
  757MOL0     H 2175   7.445   3.939   9.276  0.8921 -0.5398  0.5880
  757MOL0     H 2176   7.414   3.779   9.208  0.4022 -0.3456  0.5844
  757MOL0     H 2177   8.323   3.404   8.731  2.2026 -2.9532 -0.0743
  757MOL0     H 2178   8.566   3.424   8.802  0.9601 -2.5552  0.5767
  757MOL0     H 2179   8.857   3.310   9.061 -1.6566  0.6297  2.0439
  757MOL0     H 2180   9.096   3.295   9.065 -2.8437 -1.1099 -1.2730
  757MOL0     H 2181  10.482   3.782   9.615  2.0293 -0.9337 -2.6194
  757MOL0     H 2182  10.718   3.758   9.558  0.6679  0.0661 -1.0452
  757MOL0     H 2183  11.229   4.067   9.781 -1.0424  0.6288 -1.6364
  757MOL0     H 2184  11.472   4.009   9.719  1.8685  0.0511 -2.9373
  757MOL0     H 2185  11.672   3.709   9.497 -0.2476  0.6749  0.7632
  757MOL0     H 2186  11.504   3.673   9.433 -3.5075  1.6879  1.4539
  757MOL0     H 2187  11.721   3.879   9.354 -0.6158  0.3723 -0.4656
  757MOL0     H 2188  11.550   3.918   9.330  0.2971  0.0116 -2.1258
  757MOL0     H 2189  11.558   3.668   9.208  2.6364 -2.2160 -0.8672
  757MOL0     H 2190  11.732   3.684   9.220 -0.8635 -0.9484  0.0718
  757MOL0     H 2191  11.552   3.889   9.082 -0.8224 -1.0831  2.6517
  757MOL0     H 2192  11.640   3.769   8.997 -2.0183  2.3149 -0.9705
  757MOL0     H 2193  11.925   4.081   9.052  2.6799 -2.6447 -0.3296
  757MOL0     H 2194  11.318   3.724   9.432 -0.6887  1.1422 -1.2757
  757MOL0     H 2195  11.090   3.759   9.521 -0.5103  1.8070 -0.1122
  758MOL0     O 2196   9.881  10.153   6.281  0.1208  0.0543  0.3610
  758MOL0     C 2197   9.946  10.074   6.219 -0.1996  1.0611  0.3836
  758MOL0     O 2198   9.928   9.938   6.234  0.3393  0.1313  0.2646
  758MOL0     C 2199   9.807   9.899   6.288 -0.3608  0.0212  0.2578
  758MOL0     C 2200   9.810   9.788   6.373  0.4605  0.6385 -0.0894
  758MOL0     C 2201   9.693   9.751   6.445  0.1438  0.2559 -0.1149
  758MOL0     C 2202   9.574   9.821   6.433 -0.4529  0.4933 -0.2904
  758MOL0     O 2203   9.455   9.782   6.493 -0.3116  0.4955 -1.2410
  758MOL0     C 2204   9.437   9.641   6.527 -0.3124  0.6258 -0.5668
  758MOL0     C 2205   9.293   9.603   6.587  0.1461 -0.1921  0.0031
  758MOL0     C 2206   9.181   9.644   6.496  0.7730  0.0776  0.4810
  758MOL0     C 2207   9.055   9.566   6.542  0.1769  0.7319  0.3001
  758MOL0     C 2208   8.914   9.609   6.502  0.5564  0.3834 -0.1095
  758MOL0     C 2209   8.879   9.553   6.366 -0.7641  0.0803  0.6059
  758MOL0     C 2210   8.722   9.548   6.332  0.1518 -0.1977 -1.1052
  758MOL0     C 2211   8.646   9.684   6.345  0.1516  0.1642 -0.5134
  758MOL0     N 2212   8.495   9.666   6.345 -0.1449  0.6509  0.0223
  758MOL0     C 2213   8.426   9.609   6.241  0.2394 -0.4573  0.0233
  758MOL0     C 2214   8.297   9.652   6.268  0.1202  0.6537  1.0949
  758MOL0     C 2215   8.182   9.608   6.183  0.7726  0.5438  0.0425
  758MOL0     C 2216   8.079   9.711   6.152 -0.7933  0.0073 -0.4628
  758MOL0     C 2217   7.972   9.635   6.070  0.9088 -0.0838  0.5221
  758MOL0     C 2218   7.867   9.743   6.040  0.0122  0.3127 -0.1762
  758MOL0     O 2219   7.769   9.663   5.981  0.4477  0.2936  0.5306
  758MOL0     C 2220   7.645   9.714   5.949  0.0237  0.0109  0.5932
  758MOL0     C 2221   7.618   9.852   5.933  0.3085  0.5966 -1.1391
  758MOL0     C 2222   7.493   9.901   5.884 -0.5128 -0.2122  0.1740
  758MOL0     C 2223   7.480  10.051   5.869  0.8502  0.1393 -0.6213
  758MOL0     C 2224   7.387   9.807   5.874 -0.8016 -0.6071 -0.0500
  758MOL0     C 2225   7.248   9.842   5.844  0.2974 -0.6681 -0.1703
  758MOL0     O 2226   7.217   9.969   5.797  0.5104  0.3303 -0.2996
  758MOL0     C 2227   7.093   9.993   5.748  0.0622  0.1889  0.0731
  758MOL0     C 2228   6.981  10.009   5.834  0.0063  0.6068  0.4270
  758MOL0     C 2229   6.858  10.040   5.784  0.5393  0.0639  0.5832
  758MOL0     C 2230   6.838  10.071   5.652 -0.5568  0.3145  0.6095
  758MOL0     O 2231   6.703  10.101   5.619 -0.2400  0.9933  0.7377
  758MOL0     C 2232   6.673  10.149   5.483  0.0141  0.7816 -0.4547
  758MOL0     C 2233   6.538  10.216   5.483 -1.0907  0.2037 -0.3289
  758MOL0     C 2234   6.538  10.336   5.567 -0.4462  0.5803 -0.5206
  758MOL0     C 2235   6.405  10.416   5.545  0.2983  0.3466  0.9843
  758MOL0     C 2236   6.274  10.347   5.578  0.6060  0.5600  0.1064
  758MOL0     C 2237   6.270  10.313   5.729  0.5616  0.1143  0.3686
  758MOL0     C 2238   6.140  10.232   5.764 -0.8361  0.2483  0.0372
  758MOL0     C 2239   6.162  10.075   5.767  0.1840  0.5484  0.6865
  758MOL0    Cl 2240   6.158  10.006   5.603  0.4157  0.2209 -0.6549
  758MOL0     C 2241   6.952  10.073   5.565  0.3645  0.0929  0.2781
  758MOL0     C 2242   7.078  10.036   5.614  0.2660 -0.4023  1.0115
  758MOL0     O 2243   7.166   9.759   5.866 -0.0747 -0.3570  0.0162
  758MOL0     C 2244   7.420   9.675   5.889 -0.2367  0.3337  0.6042
  758MOL0     C 2245   7.543   9.631   5.927 -0.4276  0.2230  0.0799
  758MOL0     N 2246   8.295   9.732   6.374 -0.3898 -0.5086 -0.1898
  758MOL0     N 2247   8.408   9.735   6.423 -0.5284 -0.5761 -0.0141
  758MOL0     C 2248   9.567   9.925   6.342  0.0904  0.6249  0.6136
  758MOL0     C 2249   9.683   9.964   6.271  1.1178  0.1143 -0.3235
  758MOL0     C 2250  10.072  10.122   6.155 -0.4993  0.4684 -0.8902
  758MOL0     C 2251  10.114  10.258   6.155 -0.8488 -0.4019 -1.0206
  758MOL0     C 2252  10.233  10.299   6.095 -0.1359 -0.6199 -0.0698
  758MOL0     C 2253  10.320  10.207   6.035 -0.1439 -0.3921 -0.2144
  758MOL0     O 2254  10.436  10.264   5.997 -0.3032  0.7964 -0.5203
  758MOL0     C 2255  10.552  10.175   5.965  0.3043 -0.1252  0.1237
  758MOL0     C 2256  10.564  10.144   5.819 -0.3237 -0.3331 -0.6224
  758MOL0     C 2257  10.643  10.262   5.742  0.9903  0.2777  0.0950
  758MOL0     C 2258  10.799  10.261   5.756  0.3427 -0.5648  0.3858
  758MOL0     C 2259  10.850  10.246   5.614  0.2728  0.7209 -1.1053
  758MOL0     C 2260  10.909  10.243   5.509  0.0400 -0.1266 -0.5956
  758MOL0     C 2261  10.275  10.076   6.022 -0.7591 -0.1708 -0.7196
  758MOL0     C 2262  10.159  10.032   6.088 -1.2915  0.2597 -0.3501
  758MOL0     H 2263   9.909   9.744   6.378  0.9352  1.8008  1.2860
  758MOL0     H 2264   9.696   9.670   6.518 -3.6073 -0.7012 -0.7766
  758MOL0     H 2265   9.457   9.574   6.442  0.2699  1.1369 -0.8341
  758MOL0     H 2266   9.522   9.630   6.594 -0.3704  0.8301 -0.4586
  758MOL0     H 2267   9.287   9.496   6.608  1.2744  0.0524  1.7194
  758MOL0     H 2268   9.277   9.662   6.677 -2.7568 -0.2677 -0.3612
  758MOL0     H 2269   9.151   9.749   6.489 -2.4210 -0.7409  0.5369
  758MOL0     H 2270   9.196   9.623   6.390 -1.7821  1.7070 -0.2838
  758MOL0     H 2271   9.066   9.460   6.518 -0.3897  1.2315 -2.5226
  758MOL0     H 2272   9.052   9.571   6.651 -2.5152  0.8211  0.2959
  758MOL0     H 2273   8.843   9.574   6.578  1.7141  1.1285  1.3867
  758MOL0     H 2274   8.896   9.717   6.493 -1.2941  0.2204  0.9912
  758MOL0     H 2275   8.932   9.610   6.289 -0.8921  1.9781  1.8532
  758MOL0     H 2276   8.919   9.452   6.357  2.0791  1.2820 -2.0987
  758MOL0     H 2277   8.717   9.510   6.230  2.4625 -0.1844 -1.2833
  758MOL0     H 2278   8.672   9.474   6.395 -1.0257  0.7275 -0.8985
  758MOL0     H 2279   8.669   9.753   6.263 -0.0881  0.1747 -0.5748
  758MOL0     H 2280   8.677   9.731   6.439  2.3565 -0.5389 -0.8301
  758MOL0     H 2281   8.465   9.556   6.154  2.3126  0.5772  0.2507
  758MOL0     H 2282   8.218   9.576   6.085 -3.9933 -0.9732 -1.4400
  758MOL0     H 2283   8.136   9.530   6.244  0.3909 -0.3078 -1.2952
  758MOL0     H 2284   8.122   9.802   6.110 -1.5277  0.2897 -0.6094
  758MOL0     H 2285   8.032   9.742   6.246 -2.6687  1.7289 -1.8969
  758MOL0     H 2286   7.931   9.541   6.108  0.7301 -0.5771 -0.8032
  758MOL0     H 2287   8.014   9.620   5.970 -0.9633  2.7204 -0.8340
  758MOL0     H 2288   7.905   9.823   5.975 -2.3473  2.3180  0.7815
  758MOL0     H 2289   7.829   9.786   6.133 -1.7342  0.3839 -0.8896
  758MOL0     H 2290   7.700   9.918   5.962  1.1186 -0.6507 -0.4960
  758MOL0     H 2291   7.441  10.079   5.771 -1.0535  0.6202  0.2319
  758MOL0     H 2292   7.414  10.096   5.944  1.5905  0.4958 -0.1724
  758MOL0     H 2293   7.577  10.100   5.883  0.3439  0.5218  2.3181
  758MOL0     H 2294   7.003   9.989   5.938 -0.5941 -0.9616  0.2928
  758MOL0     H 2295   6.774  10.046   5.853 -2.2956  2.1069 -2.7110
  758MOL0     H 2296   6.745  10.226   5.451  1.3750  1.0669  2.8942
  758MOL0     H 2297   6.663  10.063   5.415 -0.4069 -2.4139  3.3009
  758MOL0     H 2298   6.507  10.239   5.381 -1.3136 -0.6848 -0.4690
  758MOL0     H 2299   6.465  10.146   5.525 -1.7773  1.2949  0.3578
  758MOL0     H 2300   6.624  10.396   5.536  1.3212 -1.4428  0.2361
  758MOL0     H 2301   6.547  10.310   5.673 -1.0440 -0.0277 -0.6094
  758MOL0     H 2302   6.401  10.503   5.610  0.3369  0.7413  0.4611
  758MOL0     H 2303   6.406  10.448   5.441 -0.5773  0.4183  0.9939
  758MOL0     H 2304   6.270  10.255   5.519  2.5785  2.6060 -3.5951
  758MOL0     H 2305   6.191  10.409   5.544 -1.5679 -1.9942  0.4672
  758MOL0     H 2306   6.355  10.252   5.761  2.6229  1.7649 -1.6103
  758MOL0     H 2307   6.263  10.401   5.793 -0.5809  0.5065 -0.2635
  758MOL0     H 2308   6.055  10.260   5.702  2.3660  0.5913 -4.6821
  758MOL0     H 2309   6.108  10.257   5.866 -2.0548  2.1321 -0.7604
  758MOL0     H 2310   6.089  10.038   5.840  3.1048 -0.9580  3.0385
  758MOL0     H 2311   6.260  10.048   5.806 -0.1608  0.5010  1.5436
  758MOL0     H 2312   6.942  10.095   5.459  0.3931 -2.4186 -0.3056
  758MOL0     H 2313   7.169  10.034   5.555 -1.1690  2.1379 -1.5210
  758MOL0     H 2314   7.340   9.605   5.868 -2.4012  3.7745 -5.2442
  758MOL0     H 2315   7.554   9.524   5.939 -0.8714  0.1082 -0.5409
  758MOL0     H 2316   9.479   9.985   6.321  0.0684  1.7522  3.5041
  758MOL0     H 2317   9.675  10.050   6.206  1.5272  1.3701  1.2451
  758MOL0     H 2318  10.060  10.332   6.214 -0.4120 -0.8279 -0.0591
  758MOL0     H 2319  10.266  10.401   6.109  1.5475 -0.8748 -1.7430
  758MOL0     H 2320  10.639  10.238   5.986 -0.4070  0.8403  0.2406
  758MOL0     H 2321  10.552  10.084   6.026  2.3520  1.1970  2.3041
  758MOL0     H 2322  10.464  10.135   5.777 -1.0274 -1.0453  1.1379
  758MOL0     H 2323  10.613  10.047   5.809 -3.6539 -2.0667 -1.7452
  758MOL0     H 2324  10.612  10.365   5.762 -2.0560 -0.4826 -0.3421
  758MOL0     H 2325  10.617  10.242   5.638  0.8765 -1.7877  0.4926
  758MOL0     H 2326  10.830  10.170   5.809 -0.1802 -0.1153  1.4927
  758MOL0     H 2327  10.831  10.353   5.805  0.8512 -2.0161  3.0017
  758MOL0     H 2328  10.943  10.261   5.409 -2.9812 -1.0167 -1.8911
  758MOL0     H 2329  10.332  10.010   5.957 -2.1672  0.7011 -2.9479
  758MOL0     H 2330  10.129   9.928   6.082  2.0471 -0.7828 -1.0515
  759MOL0     O 2331   1.601   5.832   9.651  0.4207  0.2630  0.3670
  759MOL0     C 2332   1.627   5.800   9.768  0.5253  0.1206 -0.5536
  759MOL0     O 2333   1.533   5.790   9.873  0.1338 -0.8029  0.3899
  759MOL0     C 2334   1.402   5.828   9.850  0.5261 -0.0593  0.7811
  759MOL0     C 2335   1.360   5.964   9.856 -0.3199  0.0313  0.9807
  759MOL0     C 2336   1.234   5.996   9.810 -0.1178  0.4020  0.5951
  759MOL0     C 2337   1.136   5.901   9.772  0.1928 -1.6251 -0.5466
  759MOL0     O 2338   1.004   5.949   9.736 -0.0261 -0.3958 -0.4971
  759MOL0     C 2339   0.905   5.859   9.687  0.1365 -0.0848 -0.0351
  759MOL0     C 2340   0.935   5.806   9.547 -0.2743 -0.1872  0.2921
  759MOL0     C 2341   0.939   5.926   9.446 -0.4383  0.4786 -1.7412
  759MOL0     C 2342   0.968   5.882   9.309  0.2208  0.3933 -0.1182
  759MOL0     C 2343   0.926   5.978   9.205 -0.3289  0.3931  0.4182
  759MOL0     C 2344   1.006   5.939   9.075  0.9333  0.0159 -0.4481
  759MOL0     C 2345   0.957   6.020   8.957  0.3436  0.1610 -0.1474
  759MOL0     C 2346   1.063   6.025   8.846  0.4788  0.1629 -0.1866
  759MOL0     N 2347   1.004   6.081   8.722  0.3562  0.1725 -0.4429
  759MOL0     C 2348   0.918   6.186   8.707 -0.9263 -0.9151  0.5296
  759MOL0     C 2349   0.868   6.168   8.585  0.4858 -0.2422 -0.2784
  759MOL0     C 2350   0.767   6.256   8.523 -0.1873 -0.2475  0.5828
  759MOL0     C 2351   0.632   6.234   8.602 -0.4524  0.0838 -1.1714
  759MOL0     C 2352   0.514   6.329   8.572 -0.0998  0.1798  0.7173
  759MOL0     C 2353   0.381   6.264   8.644 -0.8117 -0.3924 -0.2892
  759MOL0     O 2354   0.272   6.359   8.597 -0.2557  0.3076 -0.3591
  759MOL0     C 2355   0.138   6.346   8.626 -0.6057  0.6392 -0.4951
  759MOL0     C 2356   0.092   6.260   8.723  0.4031 -0.0746  0.7219
  759MOL0     C 2357  -0.044   6.265   8.753 -0.6880 -0.9852 -0.3062
  759MOL0     C 2358  -0.080   6.177   8.857 -0.1921  0.4542  0.7862
  759MOL0     C 2359  -0.134   6.353   8.691  0.1008 -0.1266 -0.4642
  759MOL0     C 2360  -0.281   6.372   8.729 -0.9776  0.4113  0.0883
  759MOL0     O 2361  -0.323   6.341   8.859  0.4347  0.2035  0.5282
  759MOL0     C 2362  -0.454   6.298   8.862  0.5928  0.0594  0.0557
  759MOL0     C 2363  -0.470   6.159   8.872 -0.7950  0.4573 -0.7499
  759MOL0     C 2364  -0.592   6.100   8.874  0.4030  0.8858 -0.5843
  759MOL0     C 2365  -0.703   6.180   8.883  0.2095 -0.1812 -0.2776
  759MOL0     O 2366  -0.826   6.130   8.930 -0.0923  0.1456 -0.3463
  759MOL0     C 2367  -0.853   5.988   8.945 -0.5393  0.2427  0.2250
  759MOL0     C 2368  -0.999   5.963   8.957 -0.2365 -0.4733 -0.1618
  759MOL0     C 2369  -1.070   5.963   8.822  0.4726 -0.0418  0.2468
  759MOL0     C 2370  -1.219   5.909   8.843 -0.3135  0.1009 -0.2806
  759MOL0     C 2371  -1.303   5.911   8.727 -0.4752 -1.3129  1.0937
  759MOL0     C 2372  -1.260   5.813   8.611 -0.1936  0.2814 -1.0178
  759MOL0     C 2373  -1.262   5.670   8.658 -0.8224 -0.5767  0.2308
  759MOL0     C 2374  -1.325   5.584   8.543 -0.5293  0.8817 -0.0287
  759MOL0    Cl 2375  -1.232   5.589   8.394  0.2478 -0.2882  0.3220
  759MOL0     C 2376  -0.690   6.318   8.872 -0.3179  1.0932 -0.3303
  759MOL0     C 2377  -0.564   6.377   8.861  0.2768  0.2713 -1.5163
  759MOL0     O 2378  -0.351   6.412   8.643  1.1026 -0.0698  1.1983
  759MOL0     C 2379  -0.077   6.442   8.597 -0.1016  0.0071  0.5601
  759MOL0     C 2380   0.061   6.434   8.553  0.4713  0.3812  0.4283
  759MOL0     N 2381   0.923   6.052   8.532  0.5800  0.2090 -0.3524
  759MOL0     N 2382   1.001   5.997   8.617  0.2777 -0.8708  0.4877
  759MOL0     C 2383   1.178   5.763   9.769  0.2310 -0.6346 -0.6603
  759MOL0     C 2384   1.302   5.734   9.819  0.5652 -0.0499  0.2269
  759MOL0     C 2385   1.770   5.776   9.793  0.1984  0.6914 -0.0643
  759MOL0     C 2386   1.865   5.770   9.692 -0.4714 -0.3436  0.3252
  759MOL0     C 2387   2.004   5.747   9.724  0.0542  0.0596 -0.0030
  759MOL0     C 2388   2.044   5.752   9.866 -0.8014 -0.8910 -1.5112
  759MOL0     O 2389   2.171   5.760   9.921  0.5974  0.0407  0.4526
  759MOL0     C 2390   2.266   5.800   9.818 -0.4504  0.9409 -0.2131
  759MOL0     C 2391   2.371   5.880   9.900 -0.4834 -0.1179  0.2191
  759MOL0     C 2392   2.469   5.952   9.812  0.1378 -0.6671  0.1525
  759MOL0     C 2393   2.541   5.848   9.731 -0.0874  0.4741 -0.7649
  759MOL0     C 2394   2.660   5.893   9.655 -0.9435 -0.2239 -0.5595
  759MOL0     C 2395   2.765   5.936   9.606  0.4538  1.2134  0.7965
  759MOL0     C 2396   1.942   5.753   9.969  0.0283  0.7767  0.8831
  759MOL0     C 2397   1.809   5.761   9.929  0.5631 -1.1573  0.3332
  759MOL0     H 2398   1.419   6.049   9.885  1.5586 -1.5619  2.0759
  759MOL0     H 2399   1.202   6.097   9.836  0.9428  1.0080 -0.3500
  759MOL0     H 2400   0.902   5.768   9.746  0.8188 -2.2452 -3.0813
  759MOL0     H 2401   0.804   5.900   9.685 -0.5544 -1.6465  1.1214
  759MOL0     H 2402   1.033   5.758   9.544 -0.7206 -1.2172  1.3188
  759MOL0     H 2403   0.862   5.730   9.519 -1.3836 -0.3149  3.1902
  759MOL0     H 2404   0.843   5.980   9.447 -0.6829  0.0779 -0.1359
  759MOL0     H 2405   1.023   5.994   9.464  0.7948 -1.3382 -0.3817
  759MOL0     H 2406   1.076   5.869   9.301  0.3301  0.8103  0.5823
  759MOL0     H 2407   0.920   5.785   9.290 -0.3337  0.5910  0.2396
  759MOL0     H 2408   0.820   5.967   9.182 -0.0770 -0.0511 -0.5435
  759MOL0     H 2409   0.945   6.079   9.244  1.4791  0.0109  0.6366
  759MOL0     H 2410   1.111   5.966   9.087  0.3822  1.0380  3.1148
  759MOL0     H 2411   1.000   5.831   9.058  1.4874 -0.1985  0.6382
  759MOL0     H 2412   0.860   5.979   8.928  0.2277 -0.2693  0.8140
  759MOL0     H 2413   0.934   6.124   8.980 -2.1020 -0.0591 -1.2966
  759MOL0     H 2414   1.097   5.922   8.827 -0.1866  0.1414 -1.3932
  759MOL0     H 2415   1.154   6.083   8.863 -0.1678  1.1784 -0.1016
  759MOL0     H 2416   0.892   6.257   8.785  1.4464 -1.0494  1.5333
  759MOL0     H 2417   0.798   6.361   8.531 -1.6571  0.3270 -0.6372
  759MOL0     H 2418   0.745   6.240   8.417  2.0267  1.4619 -0.2154
  759MOL0     H 2419   0.650   6.243   8.710 -0.5764 -1.2857 -1.0176
  759MOL0     H 2420   0.609   6.129   8.582  1.7151 -0.6648 -0.0070
  759MOL0     H 2421   0.493   6.328   8.464  0.9357  0.6769  0.5033
  759MOL0     H 2422   0.529   6.434   8.599  1.1961 -0.4403  2.5115
  759MOL0     H 2423   0.396   6.281   8.751  2.2947  3.2956 -1.0907
  759MOL0     H 2424   0.363   6.159   8.621  2.2943 -0.5939 -2.3688
  759MOL0     H 2425   0.157   6.192   8.778  1.7083 -0.6253 -1.3950
  759MOL0     H 2426  -0.014   6.091   8.861  2.4186  2.3283  0.4634
  759MOL0     H 2427  -0.077   6.216   8.960 -1.9092  2.1624  0.2694
  759MOL0     H 2428  -0.176   6.126   8.842  0.5480 -0.7105 -0.1286
  759MOL0     H 2429  -0.383   6.097   8.892 -0.6633  0.6384 -0.7678
  759MOL0     H 2430  -0.607   5.993   8.887 -2.3178  1.3885  1.0140
  759MOL0     H 2431  -0.813   5.935   8.858 -0.2832 -0.1896  0.6033
  759MOL0     H 2432  -0.806   5.948   9.036  0.8572 -2.5568 -1.5566
  759MOL0     H 2433  -1.017   5.863   8.997 -1.9392 -0.8785 -1.7678
  759MOL0     H 2434  -1.038   6.027   9.037 -1.4561 -4.8036  3.0804
  759MOL0     H 2435  -1.019   5.886   8.763 -0.4809 -1.3064  1.0197
  759MOL0     H 2436  -1.064   6.057   8.768  0.4800 -0.4174 -0.4125
  759MOL0     H 2437  -1.204   5.803   8.865 -1.8451 -0.0318  0.2224
  759MOL0     H 2438  -1.258   5.961   8.931  1.6483 -0.4302  0.9728
  759MOL0     H 2439  -1.299   6.013   8.687  0.5062 -1.8800 -0.3217
  759MOL0     H 2440  -1.405   5.895   8.762 -1.5116  2.5268  0.3607
  759MOL0     H 2441  -1.333   5.819   8.529  0.9662  0.3476 -2.0661
  759MOL0     H 2442  -1.167   5.836   8.559 -1.2614  1.1471 -2.6359
  759MOL0     H 2443  -1.319   5.653   8.751 -0.1806  1.9339  1.1504
  759MOL0     H 2444  -1.166   5.626   8.686 -1.0844 -0.6163  1.1064
  759MOL0     H 2445  -1.431   5.612   8.539 -0.4507  1.2565  0.4256
  759MOL0     H 2446  -1.324   5.478   8.571 -2.6383 -0.0132 -2.8405
  759MOL0     H 2447  -0.770   6.383   8.905 -1.4595 -0.9559  1.1930
  759MOL0     H 2448  -0.561   6.486   8.869 -0.0562  0.3035 -1.8079
  759MOL0     H 2449  -0.141   6.520   8.557  1.7873  1.5201  0.3630
  759MOL0     H 2450   0.109   6.504   8.484  0.9956  3.0343  3.2657
  759MOL0     H 2451   1.110   5.692   9.724 -0.9024 -1.4621  2.1335
  759MOL0     H 2452   1.331   5.630   9.833  1.4318  0.3057  1.1603
  759MOL0     H 2453   1.836   5.765   9.588  2.0640 -1.2514 -0.4066
  759MOL0     H 2454   2.068   5.736   9.637  2.1189 -1.5294  1.6038
  759MOL0     H 2455   2.311   5.715   9.766 -1.7528  0.8940 -1.3286
  759MOL0     H 2456   2.216   5.866   9.747 -0.5118 -1.2843 -2.3792
  759MOL0     H 2457   2.425   5.817   9.971 -1.3396 -1.1119  0.0120
  759MOL0     H 2458   2.315   5.948   9.965 -1.3202 -0.8685  0.2970
  759MOL0     H 2459   2.542   6.009   9.871  1.5699 -2.3128  0.0443
  759MOL0     H 2460   2.409   6.018   9.749  0.9428  1.2546  1.3020
  759MOL0     H 2461   2.476   5.797   9.659 -1.9617  0.2041  1.0221
  759MOL0     H 2462   2.574   5.765   9.795 -1.1219  0.3931 -0.3233
  759MOL0     H 2463   2.855   5.969   9.558  1.5659 -1.8800  0.5473
  759MOL0     H 2464   1.964   5.765  10.074  0.5818 -1.4357  1.0694
  759MOL0     H 2465   1.730   5.742  10.002 -2.5741 -0.5606 -2.6390
  760MOL0     O 2466   8.849   5.841  11.300 -0.3660 -0.0021  0.6970
  760MOL0     C 2467   8.879   5.930  11.372 -0.4161  0.4818  0.0304
  760MOL0     O 2468   8.803   6.041  11.405  0.7701 -0.1928 -0.0099
  760MOL0     C 2469   8.669   6.052  11.361 -0.3737 -0.5573  0.2809
  760MOL0     C 2470   8.619   6.183  11.349 -0.0601  0.2348  0.4809
  760MOL0     C 2471   8.489   6.208  11.311  0.2812 -0.5984  0.0642
  760MOL0     C 2472   8.400   6.103  11.309 -0.1170  0.4873 -0.3925
  760MOL0     O 2473   8.267   6.119  11.289  0.5227 -0.5371  0.7992
  760MOL0     C 2474   8.224   6.250  11.231 -0.4067  0.5429 -0.7802
  760MOL0     C 2475   8.082   6.233  11.162  0.2881  0.2653 -0.7618
  760MOL0     C 2476   7.967   6.217  11.260  0.3070 -0.3493  0.1554
  760MOL0     C 2477   7.831   6.193  11.177  0.1801 -0.5499  0.5433
  760MOL0     C 2478   7.711   6.247  11.252  0.2631 -0.7171 -0.0558
  760MOL0     C 2479   7.593   6.286  11.162  0.3072  0.0183 -0.1253
  760MOL0     C 2480   7.471   6.301  11.246 -0.1128  0.0819 -0.5854
  760MOL0     C 2481   7.343   6.325  11.154 -0.7084 -0.0380 -0.0004
  760MOL0     N 2482   7.312   6.217  11.054 -0.6269 -0.1920 -0.1726
  760MOL0     C 2483   7.296   6.085  11.083 -1.0872 -0.2152 -0.0491
  760MOL0     C 2484   7.245   6.024  10.973  0.0746 -0.8148  0.3585
  760MOL0     C 2485   7.215   5.886  10.951  1.0199 -0.6844 -0.5409
  760MOL0     C 2486   7.326   5.791  10.914  0.3557 -0.4562 -0.2227
  760MOL0     C 2487   7.461   5.809  10.989 -0.1114  0.3457  0.1167
  760MOL0     C 2488   7.551   5.691  10.962  0.0722 -0.0415  0.3172
  760MOL0     O 2489   7.597   5.685  10.824 -0.5554 -0.0643 -0.3259
  760MOL0     C 2490   7.684   5.577  10.797 -0.7563 -0.2801  0.3698
  760MOL0     C 2491   7.760   5.510  10.890 -0.6945  0.9979  0.0064
  760MOL0     C 2492   7.862   5.414  10.856  0.7119 -0.0540 -0.9307
  760MOL0     C 2493   7.939   5.348  10.971 -0.2238  0.0430 -0.2658
  760MOL0     C 2494   7.884   5.381  10.720 -0.0244  0.9880  0.7299
  760MOL0     C 2495   7.992   5.301  10.668 -0.4526  0.0009 -0.2008
  760MOL0     O 2496   7.984   5.255  10.532 -0.1841  0.0073  0.6293
  760MOL0     C 2497   8.085   5.197  10.466  0.2072 -0.6701 -0.3532
  760MOL0     C 2498   8.049   5.126  10.353  0.1265  0.2425  0.3217
  760MOL0     C 2499   8.149   5.059  10.280  0.1375 -0.0569  0.5090
  760MOL0     C 2500   8.284   5.094  10.293 -0.2419  0.0180 -0.1985
  760MOL0     O 2501   8.366   5.058  10.184 -0.6993 -0.1194  0.0228
  760MOL0     C 2502   8.504   5.103  10.180 -0.3007  0.2619  1.3333
  760MOL0     C 2503   8.564   5.034  10.052  0.0943  0.2104  0.5996
  760MOL0     C 2504   8.705   5.076  10.031 -0.9963 -0.5981 -0.1314
  760MOL0     C 2505   8.775   5.029   9.899 -0.1441  0.0767 -0.0392
  760MOL0     C 2506   8.902   5.114   9.863  0.2858  0.1546  0.1346
  760MOL0     C 2507   8.966   5.048   9.738 -1.1344  0.2188  0.1556
  760MOL0     C 2508   9.091   5.127   9.708  0.2494  0.4835  0.1062
  760MOL0     C 2509   9.161   5.097   9.584  0.4819 -0.3266  0.2165
  760MOL0    Cl 2510   9.055   5.139   9.436 -0.4060  0.2083 -0.0724
  760MOL0     C 2511   8.319   5.195  10.392  1.0340  0.4912 -0.7033
  760MOL0     C 2512   8.220   5.227  10.484  0.6302 -0.2237 -0.1571
  760MOL0     O 2513   8.085   5.274  10.748 -0.1628  0.1703 -0.3204
  760MOL0     C 2514   7.786   5.434  10.631 -0.1339 -0.4213 -0.5525
  760MOL0     C 2515   7.697   5.537  10.661  0.2754 -0.3867 -0.5595
  760MOL0     N 2516   7.230   6.123  10.880 -0.3167 -0.7411  0.3405
  760MOL0     N 2517   7.275   6.238  10.927 -0.2476 -0.0101  0.3570
  760MOL0     C 2518   8.446   5.972  11.332 -1.1281  0.2234  0.6309
  760MOL0     C 2519   8.582   5.944  11.354 -0.2138 -0.2304 -0.3142
  760MOL0     C 2520   9.011   5.924  11.433  0.1071  0.0696 -0.2286
  760MOL0     C 2521   9.026   5.983  11.555  0.1617 -0.4334  0.5151
  760MOL0     C 2522   9.142   5.975  11.624 -0.2991 -0.7664 -0.4543
  760MOL0     C 2523   9.255   5.902  11.578  0.3370  0.5110 -0.6861
  760MOL0     O 2524   9.376   5.886  11.651  0.4747 -0.6424 -0.4321
  760MOL0     C 2525   9.367   5.942  11.786 -0.4622 -0.1857 -0.4466
  760MOL0     C 2526   9.492   5.895  11.865 -0.1593 -0.9435 -0.2986
  760MOL0     C 2527   9.623   5.905  11.786  0.3216  0.0021  0.2555
  760MOL0     C 2528   9.756   5.890  11.872  0.1093 -0.2191 -0.2556
  760MOL0     C 2529   9.880   5.877  11.793  0.7180  0.3335  0.4223
  760MOL0     C 2530   9.992   5.850  11.745  0.3292  0.1040 -0.5388
  760MOL0     C 2531   9.236   5.830  11.466 -0.2120  1.0251  0.0832
  760MOL0     C 2532   9.111   5.837  11.394 -0.1264  0.2788  1.1383
  760MOL0     H 2533   8.694   6.261  11.360 -0.0083  0.5572 -1.7849
  760MOL0     H 2534   8.479   6.315  11.295 -2.5979 -0.7781  0.1975
  760MOL0     H 2535   8.219   6.314  11.319  0.2995 -1.8689  1.1314
  760MOL0     H 2536   8.296   6.279  11.154  1.3247 -0.0085  0.5455
  760MOL0     H 2537   8.068   6.324  11.103  0.3475  1.1719  0.5806
  760MOL0     H 2538   8.096   6.144  11.101 -3.3027 -0.8369 -0.2610
  760MOL0     H 2539   7.997   6.145  11.337  1.6908  2.5848  2.5756
  760MOL0     H 2540   7.974   6.316  11.306  2.9895 -0.6621  0.6167
  760MOL0     H 2541   7.835   6.249  11.084 -2.0688 -0.4150  0.4770
  760MOL0     H 2542   7.822   6.085  11.160  3.1350 -0.9986  1.1052
  760MOL0     H 2543   7.686   6.179  11.335 -1.5210  0.7070  0.6613
  760MOL0     H 2544   7.735   6.341  11.302 -0.1672 -0.0101 -1.1464
  760MOL0     H 2545   7.614   6.376  11.103  3.1831 -1.3762 -1.4148
  760MOL0     H 2546   7.572   6.217  11.080 -1.5448  1.4304 -0.9159
  760MOL0     H 2547   7.447   6.205  11.292  0.9581  1.0541  2.2528
  760MOL0     H 2548   7.488   6.381  11.319  2.0918 -0.5513 -0.3161
  760MOL0     H 2549   7.361   6.412  11.090 -2.0323  0.5419  0.3707
  760MOL0     H 2550   7.256   6.344  11.218  0.0603 -0.5645  1.2189
  760MOL0     H 2551   7.326   6.027  11.170 -1.5395  0.3192  0.4686
  760MOL0     H 2552   7.183   5.851  11.050  0.6123 -2.5537 -1.2771
  760MOL0     H 2553   7.124   5.878  10.891  0.1224 -0.3414  0.7345
  760MOL0     H 2554   7.351   5.813  10.810  0.6143  0.0527 -0.0580
  760MOL0     H 2555   7.288   5.689  10.916  0.6702 -0.5715  1.2746
  760MOL0     H 2556   7.446   5.830  11.095 -0.4562 -1.0472  0.3681
  760MOL0     H 2557   7.507   5.904  10.960  2.2641 -0.1440  1.9671
  760MOL0     H 2558   7.504   5.601  11.004 -0.0392  0.4790  1.3310
  760MOL0     H 2559   7.640   5.713  11.021  2.6670 -3.5914 -1.8392
  760MOL0     H 2560   7.755   5.519  10.998  1.6866 -2.9753  0.6469
  760MOL0     H 2561   7.939   5.240  10.955  0.8796 -0.0130  0.0862
  760MOL0     H 2562   8.038   5.394  10.970  1.4776 -3.3757 -1.6059
  760MOL0     H 2563   7.885   5.361  11.066 -1.6794  1.6884 -1.2319
  760MOL0     H 2564   7.945   5.099  10.337  0.7770 -3.2244  1.1162
  760MOL0     H 2565   8.132   4.990  10.197  1.3474 -0.0583  0.2460
  760MOL0     H 2566   8.521   5.211  10.177 -1.1159  0.3790  0.9699
  760MOL0     H 2567   8.554   5.074  10.273  2.1890  2.3294  0.7648
  760MOL0     H 2568   8.566   4.928  10.081  0.5224  0.5517  1.9205
  760MOL0     H 2569   8.506   5.051   9.962  3.1922 -2.7427 -2.2604
  760MOL0     H 2570   8.757   5.015  10.105  0.7375  0.0839 -0.7255
  760MOL0     H 2571   8.722   5.184  10.042  2.5549 -1.1729  1.0964
  760MOL0     H 2572   8.800   4.923   9.913 -1.5951 -0.2166  0.4568
  760MOL0     H 2573   8.704   5.044   9.817 -2.0428  1.4105  1.7521
  760MOL0     H 2574   8.964   5.109   9.953 -0.6841 -0.0720  0.7985
  760MOL0     H 2575   8.878   5.220   9.851  0.4048  0.6965  3.6427
  760MOL0     H 2576   8.978   4.941   9.754 -1.4551  0.4157  1.9240
  760MOL0     H 2577   8.901   5.058   9.650  1.5067  1.3123 -1.8100
  760MOL0     H 2578   9.161   5.111   9.790 -2.0958  1.8243  2.5435
  760MOL0     H 2579   9.060   5.232   9.710 -1.1612  0.1303 -1.3204
  760MOL0     H 2580   9.210   4.999   9.589  2.3394  0.6042  1.6379
  760MOL0     H 2581   9.247   5.164   9.587  0.1793  0.0424  1.8790
  760MOL0     H 2582   8.422   5.223  10.412  0.7753 -0.2931  2.0089
  760MOL0     H 2583   8.242   5.299  10.563 -3.1546 -1.9872  2.8348
  760MOL0     H 2584   7.789   5.398  10.529 -0.2355 -0.3072 -0.5958
  760MOL0     H 2585   7.642   5.585  10.581  1.2782  0.6741 -0.6418
  760MOL0     H 2586   8.371   5.895  11.320 -3.4064  2.3904  0.0060
  760MOL0     H 2587   8.613   5.842  11.376 -0.5712 -0.3319 -0.2799
  760MOL0     H 2588   8.958   6.051  11.607 -1.3215 -1.3403 -0.1746
  760MOL0     H 2589   9.157   6.028  11.717 -2.1013 -2.1174  0.6651
  760MOL0     H 2590   9.354   6.051  11.780  0.8549  0.0311  0.2974
  760MOL0     H 2591   9.280   5.904  11.839 -0.1097 -0.8284 -0.3289
  760MOL0     H 2592   9.481   5.787  11.880  1.6579 -1.3318 -1.4258
  760MOL0     H 2593   9.497   5.946  11.961 -1.3454 -0.1810 -0.6108
  760MOL0     H 2594   9.603   6.002  11.739 -2.8723 -0.7251 -0.0853
  760MOL0     H 2595   9.635   5.842  11.697 -1.3278  2.6682 -2.0220
  760MOL0     H 2596   9.744   5.801  11.936 -2.1537  0.8759  0.9669
  760MOL0     H 2597   9.752   5.979  11.936 -1.9606  1.0921 -2.0815
  760MOL0     H 2598  10.078   5.815  11.692  2.2936 -1.3690  3.2662
  760MOL0     H 2599   9.316   5.768  11.426  1.1044  3.2007 -0.8470
  760MOL0     H 2600   9.104   5.780  11.302  0.8965  3.7318 -1.2728
  761MOL0     O 2601   6.234   4.037   4.341 -0.3774 -0.2619  0.8923
  761MOL0     C 2602   6.206   4.133   4.264  0.4842  0.4368  0.7148
  761MOL0     O 2603   6.097   4.130   4.177 -0.0322  0.2508 -0.4047
  761MOL0     C 2604   5.988   4.065   4.235  0.3128  0.0606 -0.1742
  761MOL0     C 2605   5.951   3.949   4.182 -0.5358 -0.3618  0.1936
  761MOL0     C 2606   5.841   3.877   4.224  0.3048 -0.8855 -0.6386
  761MOL0     C 2607   5.778   3.920   4.342 -0.0983 -0.0924 -0.2331
  761MOL0     O 2608   5.669   3.847   4.385 -0.1466  0.3151 -0.1382
  761MOL0     C 2609   5.542   3.911   4.424 -0.3728 -0.4485  0.0546
  761MOL0     C 2610   5.422   3.820   4.406  0.0173  0.1531 -0.2228
  761MOL0     C 2611   5.310   3.884   4.496  0.3467  0.5965 -0.3007
  761MOL0     C 2612   5.171   3.831   4.458  0.4360  0.3636  0.2706
  761MOL0     C 2613   5.067   3.897   4.546 -0.7359  0.9044  0.1207
  761MOL0     C 2614   4.925   3.871   4.495 -0.4323  0.2473 -0.0229
  761MOL0     C 2615   4.820   3.933   4.583  0.3251  0.1163 -0.9104
  761MOL0     C 2616   4.825   4.081   4.579  1.0763 -0.0874  0.7148
  761MOL0     N 2617   4.687   4.128   4.574  0.6763 -0.2369  0.6303
  761MOL0     C 2618   4.606   4.142   4.683 -0.4735 -1.6491 -0.0372
  761MOL0     C 2619   4.487   4.184   4.635 -0.0545 -0.1712  0.2212
  761MOL0     C 2620   4.360   4.201   4.713 -0.7212 -0.5372 -0.0041
  761MOL0     C 2621   4.352   4.342   4.764 -0.6341 -0.2481  0.5706
  761MOL0     C 2622   4.364   4.459   4.663 -0.4397  0.6334  0.4435
  761MOL0     C 2623   4.270   4.449   4.545  0.2848  0.6238 -0.2267
  761MOL0     O 2624   4.147   4.495   4.594  0.1109  0.4750 -0.1553
  761MOL0     C 2625   4.033   4.488   4.520  0.4059 -0.9111  0.3424
  761MOL0     C 2626   4.020   4.454   4.386 -0.5618 -0.5488  0.4421
  761MOL0     C 2627   3.900   4.462   4.311 -0.4544  0.6531  0.2661
  761MOL0     C 2628   3.895   4.413   4.167 -0.6529 -0.6465  0.4136
  761MOL0     C 2629   3.777   4.505   4.387 -0.9749 -0.0731 -0.3364
  761MOL0     C 2630   3.637   4.511   4.332  0.1334 -0.3512 -0.0343
  761MOL0     O 2631   3.611   4.499   4.198  0.3496 -0.0392 -0.3950
  761MOL0     C 2632   3.481   4.519   4.156  0.5322 -0.4368 -0.4403
  761MOL0     C 2633   3.428   4.647   4.136 -0.4420  0.2278 -0.0296
  761MOL0     C 2634   3.292   4.679   4.090  0.1033  0.2991 -0.7166
  761MOL0     C 2635   3.217   4.568   4.048  0.6280  0.4357  0.2899
  761MOL0     O 2636   3.090   4.583   4.002  0.1995 -0.3198  1.0690
  761MOL0     C 2637   2.996   4.663   4.071 -0.2760 -0.6905  0.2990
  761MOL0     C 2638   2.977   4.619   4.213 -0.7121 -0.2035 -0.8621
  761MOL0     C 2639   2.893   4.724   4.304 -0.8608 -0.0103 -0.0659
  761MOL0     C 2640   2.835   4.648   4.422 -0.3872 -0.5580 -0.1760
  761MOL0     C 2641   2.735   4.727   4.504 -0.6149  0.0040  0.5676
  761MOL0     C 2642   2.660   4.635   4.610 -1.1083 -0.3794  1.5083
  761MOL0     C 2643   2.596   4.733   4.708  0.2056 -0.7061  0.2939
  761MOL0     C 2644   2.510   4.654   4.784 -0.4391  0.0861  0.3508
  761MOL0    Cl 2645   2.440   4.771   4.897 -0.1990 -0.1077 -0.4261
  761MOL0     C 2646   3.270   4.441   4.048  0.1350  0.6103 -0.7050
  761MOL0     C 2647   3.401   4.420   4.102  0.8083  1.0530  0.6426
  761MOL0     O 2648   3.549   4.530   4.414  0.2143 -0.2989 -0.2370
  761MOL0     C 2649   3.797   4.539   4.528 -0.6379 -0.0920  0.5530
  761MOL0     C 2650   3.919   4.532   4.583  1.0818  0.4515 -0.5843
  761MOL0     N 2651   4.502   4.201   4.500 -0.4919  0.5826 -0.4992
  761MOL0     N 2652   4.611   4.154   4.461 -0.4768  0.6966 -0.4286
  761MOL0     C 2653   5.813   4.039   4.396 -0.3898  0.1079 -0.2848
  761MOL0     C 2654   5.919   4.109   4.345  0.6373 -1.2977  0.3260
  761MOL0     C 2655   6.299   4.241   4.236  0.9621  0.4572 -0.0596
  761MOL0     C 2656   6.294   4.314   4.120  0.2776  0.9000  1.2860
  761MOL0     C 2657   6.346   4.442   4.108 -0.8439 -0.1626 -0.4556
  761MOL0     C 2658   6.430   4.494   4.207  0.0547  0.0419  0.4824
  761MOL0     O 2659   6.496   4.612   4.186 -0.2206  0.4818  1.1519
  761MOL0     C 2660   6.407   4.724   4.180  0.8636 -0.2344  0.7800
  761MOL0     C 2661   6.332   4.741   4.313 -0.1083 -0.3561  0.2076
  761MOL0     C 2662   6.297   4.893   4.342 -1.2767  0.5277  1.1627
  761MOL0     C 2663   6.190   4.957   4.254  1.0499 -0.0438  0.7147
  761MOL0     C 2664   6.070   4.879   4.284 -0.2261  0.4555 -0.1069
  761MOL0     C 2665   5.982   4.800   4.316  0.1120  0.9222 -0.3566
  761MOL0     C 2666   6.455   4.419   4.320  0.2974  0.6051 -0.3552
  761MOL0     C 2667   6.396   4.293   4.329  0.8231 -0.5148  0.5587
  761MOL0     H 2668   5.996   3.917   4.088  3.1997  1.3558  1.2161
  761MOL0     H 2669   5.803   3.792   4.169 -0.4210 -1.5523  0.8219
  761MOL0     H 2670   5.550   3.928   4.532  0.9141  3.2016 -0.4566
  761MOL0     H 2671   5.531   4.008   4.373 -0.6539 -1.0625 -1.0834
  761MOL0     H 2672   5.400   3.805   4.300 -0.1600  0.7819 -0.2779
  761MOL0     H 2673   5.449   3.722   4.447 -2.9016 -0.4125  0.5768
  761MOL0     H 2674   5.326   3.851   4.599  1.2593 -0.7423 -0.8487
  761MOL0     H 2675   5.309   3.992   4.478  0.3376  0.6755  0.1549
  761MOL0     H 2676   5.135   3.839   4.355 -1.1545 -1.0626  0.6756
  761MOL0     H 2677   5.173   3.723   4.477 -1.6678 -0.0196 -1.2417
  761MOL0     H 2678   5.080   3.861   4.649  0.1696 -1.2944 -0.6810
  761MOL0     H 2679   5.086   4.004   4.555 -0.4711  0.7150  2.2114
  761MOL0     H 2680   4.919   3.914   4.395  1.2495  3.5662  1.1193
  761MOL0     H 2681   4.904   3.764   4.493 -0.1393  0.1800  0.3685
  761MOL0     H 2682   4.719   3.901   4.557 -0.0745  2.0913 -1.9896
  761MOL0     H 2683   4.830   3.905   4.688  1.0175 -0.6156 -1.1636
  761MOL0     H 2684   4.864   4.111   4.481 -0.1375  0.4479  0.3759
  761MOL0     H 2685   4.872   4.130   4.666 -2.3680  1.7081  1.7500
  761MOL0     H 2686   4.620   4.114   4.787 -1.8556 -1.7714  0.1318
  761MOL0     H 2687   4.272   4.180   4.651 -0.7775  0.6201 -0.3380
  761MOL0     H 2688   4.365   4.131   4.797 -0.6514  1.6102  1.8695
  761MOL0     H 2689   4.432   4.360   4.837 -0.6717  1.6096  0.2075
  761MOL0     H 2690   4.261   4.364   4.820 -1.0208  0.0460 -0.1682
  761MOL0     H 2691   4.467   4.473   4.630 -0.5482  0.6236  0.0920
  761MOL0     H 2692   4.350   4.555   4.712  4.5758  1.2223  1.2084
  761MOL0     H 2693   4.257   4.347   4.505  5.0210 -1.1515  2.0197
  761MOL0     H 2694   4.287   4.525   4.468  0.2667  1.9418  1.0377
  761MOL0     H 2695   4.116   4.433   4.341 -0.0861  1.8863  0.1374
  761MOL0     H 2696   3.808   4.348   4.153 -1.4995  0.5772 -0.2799
  761MOL0     H 2697   3.884   4.498   4.099  4.3741  2.3954  2.8307
  761MOL0     H 2698   3.987   4.356   4.148  1.3138  1.9771  1.4854
  761MOL0     H 2699   3.494   4.729   4.163 -0.2536 -0.3396  1.3080
  761MOL0     H 2700   3.259   4.782   4.096 -0.0755  0.1842  2.7827
  761MOL0     H 2701   3.041   4.761   4.058 -1.5270 -0.4024 -2.6786
  761MOL0     H 2702   2.901   4.664   4.017  1.1192 -0.1066 -2.3150
  761MOL0     H 2703   2.924   4.523   4.218  2.8098 -2.2548  1.4983
  761MOL0     H 2704   3.072   4.598   4.262 -1.3483 -0.3414  0.3516
  761MOL0     H 2705   2.810   4.776   4.256  0.1096  1.5340 -0.1293
  761MOL0     H 2706   2.967   4.795   4.342  1.8015 -2.9571  0.7529
  761MOL0     H 2707   2.777   4.567   4.376 -3.6134 -0.0606  2.6263
  761MOL0     H 2708   2.919   4.612   4.482 -0.4772  0.6270  0.6831
  761MOL0     H 2709   2.655   4.770   4.442  0.2504  2.4140  0.9980
  761MOL0     H 2710   2.787   4.814   4.547 -1.9181  1.3687 -0.5015
  761MOL0     H 2711   2.597   4.563   4.555  2.4447 -2.0353 -0.7366
  761MOL0     H 2712   2.729   4.567   4.661 -1.3747 -0.1883  2.1385
  761MOL0     H 2713   2.540   4.811   4.655 -0.5785 -1.1633  0.4354
  761MOL0     H 2714   2.672   4.783   4.769  1.8135 -5.5081  2.7261
  761MOL0     H 2715   2.569   4.581   4.841 -1.2447 -2.1688 -1.5360
  761MOL0     H 2716   2.432   4.596   4.734 -0.6922 -0.8520  1.7657
  761MOL0     H 2717   3.218   4.347   4.027 -0.2561  0.1434  1.8812
  761MOL0     H 2718   3.434   4.317   4.103 -0.6590  0.5550  1.9598
  761MOL0     H 2719   3.717   4.581   4.588 -1.2314  0.1115 -0.3577
  761MOL0     H 2720   3.908   4.564   4.687 -1.1288 -1.1291 -0.2876
  761MOL0     H 2721   5.767   4.077   4.486 -0.6723  1.3984 -0.9457
  761MOL0     H 2722   5.963   4.201   4.382  1.9696 -0.4967 -2.9563
  761MOL0     H 2723   6.223   4.284   4.045  0.6612 -0.1229  1.3195
  761MOL0     H 2724   6.314   4.504   4.025 -3.1381  0.2417  0.6581
  761MOL0     H 2725   6.466   4.814   4.154 -0.8848 -0.0834 -3.6195
  761MOL0     H 2726   6.332   4.710   4.102  0.3932 -0.6767  1.3097
  761MOL0     H 2727   6.392   4.707   4.398  2.7936 -0.7231 -1.8410
  761MOL0     H 2728   6.238   4.686   4.305 -1.6614  2.4091 -2.6811
  761MOL0     H 2729   6.388   4.952   4.334 -0.7547  0.0519  3.0470
  761MOL0     H 2730   6.254   4.897   4.443 -1.3170  0.6906  1.1408
  761MOL0     H 2731   6.216   4.952   4.148  1.4272  2.2745  0.6362
  761MOL0     H 2732   6.178   5.058   4.294 -0.6348  0.0664 -0.0020
  761MOL0     H 2733   5.906   4.729   4.344  1.1790 -0.4302 -0.8106
  761MOL0     H 2734   6.526   4.446   4.397  1.3794  0.6917 -1.3609
  761MOL0     H 2735   6.426   4.239   4.418  1.8303 -1.6703 -0.4435
  762MOL0     O 2736   8.286   0.424   6.620  0.2684 -0.0245 -0.0464
  762MOL0     C 2737   8.362   0.510   6.667 -0.2360  0.4582 -0.5653
  762MOL0     O 2738   8.354   0.575   6.793  0.3645  0.2036  0.4053
  762MOL0     C 2739   8.239   0.558   6.870 -0.8036  0.7052 -0.3763
  762MOL0     C 2740   8.133   0.652   6.868 -0.2729 -0.4157  0.2589
  762MOL0     C 2741   8.011   0.630   6.932  0.1380  0.8183  0.2349
  762MOL0     C 2742   7.999   0.522   7.012  0.1135  0.4173 -0.2479
  762MOL0     O 2743   7.884   0.489   7.083  0.2150  0.0755  0.3015
  762MOL0     C 2744   7.767   0.481   7.009 -0.4831 -0.3111  0.0444
  762MOL0     C 2745   7.656   0.426   7.093 -0.3048  0.7996 -0.4663
  762MOL0     C 2746   7.529   0.424   7.008  0.1532  0.0511 -0.0007
  762MOL0     C 2747   7.412   0.365   7.102 -0.4211  1.0385  0.3579
  762MOL0     C 2748   7.275   0.389   7.044 -0.4226  0.0070  0.2792
  762MOL0     C 2749   7.161   0.351   7.135  0.6510 -0.6118 -0.3973
  762MOL0     C 2750   7.033   0.405   7.083  0.0226 -0.3837  0.0187
  762MOL0     C 2751   6.921   0.386   7.180  0.2074 -0.1116  0.0005
  762MOL0     N 2752   6.787   0.398   7.119 -0.5736  0.6355  0.1941
  762MOL0     C 2753   6.734   0.499   7.036  0.5104 -0.0389 -0.7112
  762MOL0     C 2754   6.613   0.453   7.007  0.2419 -0.2336  0.4977
  762MOL0     C 2755   6.524   0.534   6.920 -0.2961 -0.0594 -0.4567
  762MOL0     C 2756   6.439   0.625   7.003 -0.0629  0.1449 -0.6563
  762MOL0     C 2757   6.285   0.599   6.976 -0.5069 -0.1430 -0.0243
  762MOL0     C 2758   6.194   0.696   7.065  0.3681  0.9478  0.2897
  762MOL0     O 2759   6.047   0.685   7.054  0.7217 -0.2789 -0.1935
  762MOL0     C 2760   5.982   0.725   6.949 -0.6545  0.3385  0.0229
  762MOL0     C 2761   6.040   0.796   6.843 -0.1652 -0.1316 -0.3873
  762MOL0     C 2762   5.965   0.836   6.735  0.1873  0.9827 -0.8312
  762MOL0     C 2763   6.049   0.906   6.639 -0.8689  0.0335 -0.1637
  762MOL0     C 2764   5.827   0.801   6.725  0.3468 -0.0636 -0.2591
  762MOL0     C 2765   5.736   0.842   6.619 -0.6451  0.3648 -0.2062
  762MOL0     O 2766   5.617   0.779   6.625 -0.4035  0.8432  0.4068
  762MOL0     C 2767   5.519   0.810   6.535 -0.8824  0.5686 -0.8695
  762MOL0     C 2768   5.455   0.925   6.551 -0.4364  0.3143 -0.3776
  762MOL0     C 2769   5.340   0.954   6.478 -0.1889  0.3892 -0.3326
  762MOL0     C 2770   5.284   0.861   6.386 -1.0618  0.3493 -0.2395
  762MOL0     O 2771   5.165   0.894   6.334  0.6470  0.1332  0.3107
  762MOL0     C 2772   5.161   0.889   6.186  0.1795 -0.8055 -0.7308
  762MOL0     C 2773   5.043   0.973   6.136  0.3490  0.1572  0.0390
  762MOL0     C 2774   4.989   1.089   6.227 -0.4315 -0.2680  1.2831
  762MOL0     C 2775   4.860   1.152   6.166 -0.5326 -0.1762  0.6786
  762MOL0     C 2776   4.803   1.262   6.251  0.2860  0.2963  0.5287
  762MOL0     C 2777   4.674   1.315   6.195  0.7879 -0.6022  0.4456
  762MOL0     C 2778   4.606   1.410   6.299 -0.3860  0.4877  0.3391
  762MOL0     C 2779   4.475   1.470   6.242 -0.1051  0.2903 -0.6637
  762MOL0    Cl 2780   4.366   1.346   6.173 -0.5605 -0.0399 -0.2617
  762MOL0     C 2781   5.347   0.736   6.371  0.0284  0.9837 -0.0770
  762MOL0     C 2782   5.469   0.713   6.443  0.5380 -0.0528  0.1928
  762MOL0     O 2783   5.777   0.906   6.522 -0.2532  0.1914  0.2344
  762MOL0     C 2784   5.773   0.735   6.841 -0.2980 -0.5442  1.0957
  762MOL0     C 2785   5.852   0.689   6.945  1.2915 -1.0436  0.0598
  762MOL0     N 2786   6.584   0.338   7.076  0.6874  0.7048  0.9232
  762MOL0     N 2787   6.696   0.301   7.134 -0.0549 -0.2979 -0.2493
  762MOL0     C 2788   8.116   0.445   7.037 -0.0273  0.6862 -0.6259
  762MOL0     C 2789   8.230   0.463   6.963 -0.0000 -0.1211  0.1068
  762MOL0     C 2790   8.495   0.522   6.593 -0.2205  0.6937 -0.3708
  762MOL0     C 2791   8.593   0.609   6.639 -0.9423  0.5012 -1.0868
  762MOL0     C 2792   8.715   0.621   6.577 -0.6359 -0.6421 -0.3494
  762MOL0     C 2793   8.744   0.535   6.473 -0.3046 -0.3830 -0.0023
  762MOL0     O 2794   8.867   0.538   6.424  0.2597 -0.1113 -0.1160
  762MOL0     C 2795   8.952   0.437   6.444 -0.4391 -0.2613 -0.8665
  762MOL0     C 2796   9.095   0.481   6.407 -0.0448  0.5198  0.1272
  762MOL0     C 2797   9.133   0.607   6.483 -0.1139  0.6287 -0.9595
  762MOL0     C 2798   9.286   0.638   6.467  0.0783 -1.3666 -0.9112
  762MOL0     C 2799   9.316   0.680   6.601  0.6226 -0.0499 -0.3437
  762MOL0     C 2800   9.357   0.739   6.699 -0.4817 -0.5208  0.6097
  762MOL0     C 2801   8.657   0.438   6.423  0.2749 -0.3438 -0.3021
  762MOL0     C 2802   8.528   0.439   6.484  0.2707  0.6325  0.2925
  762MOL0     H 2803   8.152   0.743   6.811 -0.9111  0.0905  0.8408
  762MOL0     H 2804   7.932   0.704   6.934  1.0220  1.8142  3.1467
  762MOL0     H 2805   7.736   0.580   6.972 -0.7899  0.0573  1.2368
  762MOL0     H 2806   7.779   0.416   6.922 -1.1477 -0.9675  0.4355
  762MOL0     H 2807   7.675   0.323   7.126  2.1998  1.5630  0.7315
  762MOL0     H 2808   7.644   0.486   7.183 -1.9846 -1.0126  0.5969
  762MOL0     H 2809   7.516   0.530   6.981  0.2912 -0.6747 -3.3085
  762MOL0     H 2810   7.536   0.367   6.916  0.9896  2.1500 -1.3055
  762MOL0     H 2811   7.406   0.257   7.115 -1.5572  1.0603  0.0880
  762MOL0     H 2812   7.430   0.411   7.200  0.3695 -1.3540  1.4028
  762MOL0     H 2813   7.270   0.497   7.029 -2.0083  0.3908  2.9438
  762MOL0     H 2814   7.262   0.331   6.953  3.5412 -1.0674  0.1958
  762MOL0     H 2815   7.149   0.243   7.143 -0.8135 -0.4285  0.2784
  762MOL0     H 2816   7.171   0.404   7.231  2.1680  3.9222 -2.7653
  762MOL0     H 2817   7.049   0.513   7.071 -0.6697 -0.4134 -1.3182
  762MOL0     H 2818   7.001   0.363   6.988 -1.9782  1.2217 -0.0707
  762MOL0     H 2819   6.921   0.452   7.267 -2.5895 -2.3784  1.9042
  762MOL0     H 2820   6.933   0.290   7.230  1.6396  0.1298  0.1644
  762MOL0     H 2821   6.791   0.586   7.004  1.4132  0.0133  0.9140
  762MOL0     H 2822   6.576   0.578   6.835 -2.0200 -1.0938 -2.1550
  762MOL0     H 2823   6.462   0.463   6.863 -1.1376 -0.0834  0.4558
  762MOL0     H 2824   6.466   0.730   6.987 -0.4848  0.3032 -0.3657
  762MOL0     H 2825   6.459   0.603   7.108 -3.2296 -0.2998 -0.0266
  762MOL0     H 2826   6.246   0.502   7.009 -4.0121  1.0231 -0.3578
  762MOL0     H 2827   6.276   0.614   6.868  2.9917 -1.1596 -0.5958
  762MOL0     H 2828   6.221   0.799   7.040 -2.6569  0.8484 -4.4679
  762MOL0     H 2829   6.235   0.681   7.166 -0.4288 -1.2077  0.3412
  762MOL0     H 2830   6.148   0.807   6.843 -0.0257 -1.3289 -0.4467
  762MOL0     H 2831   5.985   0.968   6.575  0.4830 -0.2190 -1.8279
  762MOL0     H 2832   6.112   0.972   6.699  0.6131 -1.0632 -0.4609
  762MOL0     H 2833   6.094   0.831   6.572  1.8036 -0.1498  1.6886
  762MOL0     H 2834   5.490   0.996   6.626 -1.6994  0.0557  0.4921
  762MOL0     H 2835   5.290   1.050   6.485 -0.6751  0.6625 -4.6405
  762MOL0     H 2836   5.254   0.908   6.133 -0.5999  0.0203 -1.8648
  762MOL0     H 2837   5.143   0.791   6.142  1.9983 -1.1099 -0.8516
  762MOL0     H 2838   5.064   1.017   6.038  3.1349  0.7647  0.7968
  762MOL0     H 2839   4.960   0.903   6.126  0.6793 -0.3899  0.9839
  762MOL0     H 2840   5.069   1.163   6.238 -0.2777  0.0029 -1.0590
  762MOL0     H 2841   4.976   1.045   6.326  0.0124  0.7750  1.8174
  762MOL0     H 2842   4.877   1.195   6.066 -3.5454  0.2679  0.2634
  762MOL0     H 2843   4.781   1.078   6.152 -0.3624 -0.2203 -0.1349
  762MOL0     H 2844   4.878   1.342   6.257  0.9131 -0.2774  0.5212
  762MOL0     H 2845   4.793   1.214   6.349  2.9361 -1.4816  0.0550
  762MOL0     H 2846   4.695   1.374   6.105 -0.1663  2.5041  2.0888
  762MOL0     H 2847   4.602   1.237   6.168 -0.8804  1.0037  0.0218
  762MOL0     H 2848   4.682   1.482   6.327  0.7225 -0.0366 -1.1834
  762MOL0     H 2849   4.586   1.353   6.390  3.3774 -0.9947  0.4061
  762MOL0     H 2850   4.502   1.543   6.166 -0.6534  0.5890 -0.5761
  762MOL0     H 2851   4.429   1.527   6.323 -0.4779  0.2594 -0.8532
  762MOL0     H 2852   5.287   0.670   6.309 -4.1512  1.3238  3.1315
  762MOL0     H 2853   5.508   0.612   6.432 -2.2458 -1.2438  0.3637
  762MOL0     H 2854   5.668   0.712   6.854 -0.7440  0.7613  0.0838
  762MOL0     H 2855   5.807   0.628   7.023  2.2054 -0.5343  1.0124
  762MOL0     H 2856   8.112   0.370   7.115 -1.9836  2.0273  0.6508
  762MOL0     H 2857   8.323   0.407   6.968  1.0894  1.3434 -2.2290
  762MOL0     H 2858   8.565   0.667   6.726  0.4955  1.3330 -1.1472
  762MOL0     H 2859   8.798   0.689   6.597 -0.9047 -0.3309 -0.2718
  762MOL0     H 2860   8.944   0.404   6.548  1.5983 -1.3597 -1.0151
  762MOL0     H 2861   8.926   0.347   6.387 -0.9713 -1.7636  1.5932
  762MOL0     H 2862   9.097   0.497   6.299  2.1556 -0.4933 -0.0337
  762MOL0     H 2863   9.153   0.393   6.437 -2.1836 -0.9740  0.1694
  762MOL0     H 2864   9.102   0.576   6.584  0.6170 -2.7071 -1.6365
  762MOL0     H 2865   9.080   0.694   6.444  1.7504  2.1793 -0.2362
  762MOL0     H 2866   9.313   0.721   6.400  1.2892  0.9605  2.2123
  762MOL0     H 2867   9.357   0.556   6.452  3.0382  1.0765 -1.5029
  762MOL0     H 2868   9.396   0.785   6.787  0.7348 -0.6115  0.1328
  762MOL0     H 2869   8.673   0.380   6.333 -0.8192  0.5462 -1.0996
  762MOL0     H 2870   8.449   0.384   6.433  0.3112  0.0854  0.8043
  763MOL0     O 2871   5.435   5.390   9.644  0.2779 -0.2568 -0.1145
  763MOL0     C 2872   5.474   5.417   9.763 -0.4111  0.3261 -0.5425
  763MOL0     O 2873   5.417   5.509   9.848  0.2204 -0.1378  0.0411
  763MOL0     C 2874   5.289   5.559   9.823  0.0885  0.8384  0.2618
  763MOL0     C 2875   5.273   5.676   9.750  0.4603 -0.0686  0.4157
  763MOL0     C 2876   5.142   5.720   9.720  0.0052  0.3076 -0.2602
  763MOL0     C 2877   5.031   5.661   9.769 -0.8979  0.5839  0.5333
  763MOL0     O 2878   4.910   5.724   9.736  0.3217  0.1572  0.4554
  763MOL0     C 2879   4.797   5.670   9.806  0.9748 -0.8056  0.2915
  763MOL0     C 2880   4.685   5.764   9.771  0.6236  0.0756 -0.4335
  763MOL0     C 2881   4.549   5.726   9.818 -0.0867  0.0453 -0.3417
  763MOL0     C 2882   4.521   5.743   9.966 -0.3658 -0.4985  0.6215
  763MOL0     C 2883   4.379   5.729   9.998  0.3169  0.3248 -0.0546
  763MOL0     C 2884   4.337   5.794  10.130  0.2823  0.2822 -0.1460
  763MOL0     C 2885   4.183   5.791  10.138 -0.9335 -0.0245 -1.0416
  763MOL0     C 2886   4.127   5.832  10.274 -0.0074  0.2590 -0.1335
  763MOL0     N 2887   3.989   5.877  10.259  0.9983  0.2620 -1.0461
  763MOL0     C 2888   3.942   5.996  10.207 -0.6524  0.3737  0.3232
  763MOL0     C 2889   3.813   5.985  10.202 -1.0970 -0.9470  0.5533
  763MOL0     C 2890   3.720   6.091  10.153 -0.1390  0.6622 -0.0734
  763MOL0     C 2891   3.653   6.154  10.275  1.2245 -0.0193  0.6154
  763MOL0     C 2892   3.548   6.253  10.219 -0.3079 -0.1251 -0.0098
  763MOL0     C 2893   3.464   6.304  10.336  0.4607 -0.0284 -0.4450
  763MOL0     O 2894   3.371   6.406  10.301  0.0357 -0.3811  0.4673
  763MOL0     C 2895   3.237   6.377  10.297 -1.4175  0.7179  0.5656
  763MOL0     C 2896   3.181   6.264  10.230 -0.3611  0.2616  0.1395
  763MOL0     C 2897   3.038   6.243  10.228 -0.1993 -0.1822  0.8113
  763MOL0     C 2898   2.977   6.136  10.145  0.6819  0.4562  0.5791
  763MOL0     C 2899   2.955   6.338  10.297 -0.9973 -0.6749  0.2892
  763MOL0     C 2900   2.815   6.336  10.311 -0.4867 -0.3494  0.1001
  763MOL0     O 2901   2.755   6.423  10.398  0.0777  0.1992  0.3207
  763MOL0     C 2902   2.623   6.431  10.392  0.1113 -0.1334  0.5431
  763MOL0     C 2903   2.559   6.520  10.309 -0.2069 -0.2898  0.4916
  763MOL0     C 2904   2.425   6.544  10.304 -0.4773 -0.2569 -0.1774
  763MOL0     C 2905   2.343   6.478  10.399 -0.0218  1.1141  0.7277
  763MOL0     O 2906   2.211   6.503  10.407  0.7761  1.0969 -0.1060
  763MOL0     C 2907   2.135   6.560  10.296 -0.0241 -0.0724 -0.2508
  763MOL0     C 2908   1.988   6.516  10.294  0.1989  0.5566  0.4059
  763MOL0     C 2909   1.929   6.525  10.437  0.3832 -0.5870  0.1195
  763MOL0     C 2910   1.778   6.492  10.428 -0.6225 -0.1289  0.2459
  763MOL0     C 2911   1.692   6.536  10.545 -0.0407 -0.7361 -0.7924
  763MOL0     C 2912   1.538   6.505  10.540  0.8462  0.6721  0.0987
  763MOL0     C 2913   1.510   6.352  10.574  0.5823 -0.0411  0.4274
  763MOL0     C 2914   1.361   6.337  10.613  0.4654  0.7413 -0.0132
  763MOL0    Cl 2915   1.357   6.359  10.784 -0.4841 -0.3305  0.2085
  763MOL0     C 2916   2.405   6.397  10.491 -0.3328 -0.0013 -0.4201
  763MOL0     C 2917   2.543   6.362  10.490 -0.1653 -1.3228 -0.7436
  763MOL0     O 2918   2.758   6.274  10.222  0.1900 -0.2329  0.5161
  763MOL0     C 2919   3.016   6.457  10.359  0.0135  0.1550 -0.5823
  763MOL0     C 2920   3.152   6.470  10.357 -0.6048 -0.1690  0.5864
  763MOL0     N 2921   3.772   5.871  10.267  0.2132 -0.8242 -0.7266
  763MOL0     N 2922   3.877   5.801  10.290  0.5360 -0.2452 -0.0797
  763MOL0     C 2923   5.049   5.538   9.828 -0.0318 -0.5761 -1.3903
  763MOL0     C 2924   5.171   5.488   9.863  0.0363  0.4577 -0.0333
  763MOL0     C 2925   5.595   5.347   9.808  0.2676 -0.2592  0.5258
  763MOL0     C 2926   5.632   5.345   9.944 -0.0152  0.3825  0.0515
  763MOL0     C 2927   5.749   5.290   9.988  0.0936  0.6753 -0.8317
  763MOL0     C 2928   5.831   5.211   9.897 -0.2685 -0.9405 -0.4066
  763MOL0     O 2929   5.948   5.153   9.917 -0.2755 -0.4974 -0.0863
  763MOL0     C 2930   6.011   5.146  10.054  0.3739 -0.5889  1.3152
  763MOL0     C 2931   6.158   5.132  10.037 -0.5221  0.0630 -1.4879
  763MOL0     C 2932   6.204   5.022   9.947 -0.1598  0.1575  0.7642
  763MOL0     C 2933   6.354   4.984   9.970  0.7548  0.7339  1.0081
  763MOL0     C 2934   6.387   4.930  10.107  0.1016 -0.4612  0.3196
  763MOL0     C 2935   6.425   4.881  10.213 -0.4047 -0.1335  0.2870
  763MOL0     C 2936   5.786   5.207   9.763 -0.1097 -0.0664  0.1214
  763MOL0     C 2937   5.671   5.274   9.720  0.3576  0.1041  0.3555
  763MOL0     H 2938   5.358   5.737   9.723  1.6837 -1.6601  0.5431
  763MOL0     H 2939   5.138   5.811   9.661  0.2526 -0.9003 -2.1971
  763MOL0     H 2940   4.780   5.564   9.785  0.4427 -0.6711  0.0064
  763MOL0     H 2941   4.815   5.684   9.913  1.0137 -0.4985  0.2458
  763MOL0     H 2942   4.708   5.858   9.822 -1.5738 -0.8566  2.6087
  763MOL0     H 2943   4.676   5.773   9.662 -1.0954  0.2477 -0.3117
  763MOL0     H 2944   4.481   5.799   9.772 -0.2984  2.3177  3.1496
  763MOL0     H 2945   4.518   5.623   9.800  0.8214 -0.3721  0.4044
  763MOL0     H 2946   4.584   5.672  10.021  1.0148 -0.0343 -0.3094
  763MOL0     H 2947   4.560   5.840   9.999 -1.1914  1.1833 -2.8766
  763MOL0     H 2948   4.329   5.775   9.912 -1.8389  0.3478  1.1285
  763MOL0     H 2949   4.355   5.623  10.007  0.7023  0.3087  0.8888
  763MOL0     H 2950   4.373   5.726  10.208 -0.4060 -0.7211 -0.6652
  763MOL0     H 2951   4.383   5.893  10.137  1.8901 -0.5177  1.3283
  763MOL0     H 2952   4.144   5.863  10.066 -2.4542  0.8047  0.5487
  763MOL0     H 2953   4.159   5.689  10.106  0.4026 -1.1001  1.1602
  763MOL0     H 2954   4.189   5.914  10.312 -0.9065  0.7318  0.3476
  763MOL0     H 2955   4.134   5.747  10.343 -0.0438 -0.6397 -1.2003
  763MOL0     H 2956   3.993   6.085  10.172 -0.9304  1.0012  1.4562
  763MOL0     H 2957   3.772   6.162  10.089 -2.3543  0.3927 -2.3350
  763MOL0     H 2958   3.648   6.039  10.088  0.7437  1.2973 -1.6138
  763MOL0     H 2959   3.717   6.208  10.345 -0.5673 -1.8874  3.9543
  763MOL0     H 2960   3.596   6.072  10.320  0.9830 -2.4626 -3.5771
  763MOL0     H 2961   3.482   6.197  10.152 -2.0271 -0.9523  2.2510
  763MOL0     H 2962   3.587   6.339  10.164 -1.0061  1.0316  1.2500
  763MOL0     H 2963   3.535   6.348  10.406  0.8408  2.0000 -2.0148
  763MOL0     H 2964   3.409   6.221  10.381 -0.1052  0.5735 -0.0065
  763MOL0     H 2965   3.242   6.185  10.187  0.0022  1.4436 -1.6130
  763MOL0     H 2966   2.897   6.176  10.081  0.3325 -2.3058 -0.8532
  763MOL0     H 2967   3.050   6.088  10.079  0.5571  0.3571  0.5123
  763MOL0     H 2968   2.933   6.058  10.208  1.3221  0.1246  0.6171
  763MOL0     H 2969   2.614   6.560  10.225 -0.2799 -2.6947 -0.7765
  763MOL0     H 2970   2.392   6.621  10.235  1.1554  0.9452  0.3230
  763MOL0     H 2971   2.133   6.669  10.306 -2.1548 -0.0208 -0.7313
  763MOL0     H 2972   2.184   6.528  10.204  1.3607  2.0713 -0.3250
  763MOL0     H 2973   1.939   6.578  10.219 -1.0837 -1.9219 -0.9528
  763MOL0     H 2974   1.981   6.415  10.253  0.4134  1.0936 -1.0162
  763MOL0     H 2975   1.931   6.628  10.473 -0.2536 -0.6904  0.4754
  763MOL0     H 2976   1.975   6.456  10.509 -1.1614  0.0005  1.7342
  763MOL0     H 2977   1.744   6.536  10.334 -0.7425 -2.9741 -1.1467
  763MOL0     H 2978   1.772   6.383  10.421  3.3460 -0.5945  1.3091
  763MOL0     H 2979   1.696   6.644  10.558  0.0548 -0.7156 -0.9836
  763MOL0     H 2980   1.736   6.489  10.633  0.4384  0.1594 -0.5439
  763MOL0     H 2981   1.486   6.576  10.605  0.3990  1.1118 -0.7135
  763MOL0     H 2982   1.499   6.509  10.438 -1.3152 -0.9664  0.7932
  763MOL0     H 2983   1.572   6.319  10.658 -1.4173 -2.4660  1.0838
  763MOL0     H 2984   1.546   6.287  10.493 -0.4135  0.9984 -0.8965
  763MOL0     H 2985   1.342   6.231  10.595  2.8505  0.2359  0.1902
  763MOL0     H 2986   1.286   6.393  10.556 -0.6942 -0.2232  0.5121
  763MOL0     H 2987   2.346   6.341  10.564  0.6044  0.8231  1.0078
  763MOL0     H 2988   2.593   6.296  10.560  1.1813  1.2034  0.8214
  763MOL0     H 2989   2.955   6.529  10.411 -0.7603  0.3423 -1.7047
  763MOL0     H 2990   3.190   6.561  10.403  0.1985 -0.1401 -0.1125
  763MOL0     H 2991   4.961   5.481   9.856  1.0391 -2.0908 -1.0526
  763MOL0     H 2992   5.178   5.391   9.911 -0.9400 -1.1725 -2.9296
  763MOL0     H 2993   5.581   5.395  10.027 -0.6753 -1.2539  0.6830
  763MOL0     H 2994   5.775   5.273  10.092  2.5142 -3.6237 -1.9056
  763MOL0     H 2995   5.996   5.234  10.117  2.8974  0.9412 -0.0755
  763MOL0     H 2996   5.970   5.060  10.109 -0.5245  0.0437  1.6538
  763MOL0     H 2997   6.192   5.125  10.140 -1.6084  1.6050 -0.9833
  763MOL0     H 2998   6.191   5.233  10.009 -1.8261  1.4361  1.4199
  763MOL0     H 2999   6.187   5.046   9.842 -0.5935  2.0877  1.2348
  763MOL0     H 3000   6.142   4.934   9.965  1.2908 -1.2078 -0.5417
  763MOL0     H 3001   6.410   5.077   9.950  1.2633  0.2528  0.1146
  763MOL0     H 3002   6.382   4.908   9.896 -0.8746 -1.7999  2.8596
  763MOL0     H 3003   6.455   4.848  10.311 -1.0901  0.7907  0.8237
  763MOL0     H 3004   5.817   5.129   9.694  0.1450  0.0982  0.0523
  763MOL0     H 3005   5.649   5.273   9.614 -0.8311  3.4079  0.4360
  764MOL0     O 3006  10.145   9.747   3.881  0.1895 -0.2384  0.0453
  764MOL0     C 3007  10.259   9.721   3.846  1.0436  0.6967  0.0889
  764MOL0     O 3008  10.349   9.818   3.804 -0.7951 -0.1338 -0.3773
  764MOL0     C 3009  10.307   9.951   3.807  0.1302  1.0089 -0.4036
  764MOL0     C 3010  10.341  10.048   3.898  0.2942 -0.1522 -0.8374
  764MOL0     C 3011  10.297  10.182   3.886 -0.5494  0.5522  0.0248
  764MOL0     C 3012  10.218  10.223   3.778 -0.0955  0.3379  0.0320
  764MOL0     O 3013  10.175  10.356   3.768  0.1765  0.4426  0.2152
  764MOL0     C 3014  10.243  10.458   3.835 -0.4934  0.7349  0.0538
  764MOL0     C 3015  10.219  10.596   3.786  0.3004 -0.2906  0.3735
  764MOL0     C 3016  10.078  10.629   3.737 -0.1469 -1.2376  0.5662
  764MOL0     C 3017  10.078  10.762   3.663 -0.3145 -0.4874 -0.7192
  764MOL0     C 3018   9.944  10.794   3.604 -0.0749  0.2882  0.2599
  764MOL0     C 3019   9.896  10.704   3.491  0.5135  1.1047 -0.7960
  764MOL0     C 3020   9.773  10.778   3.438  1.1586  0.5606  0.4043
  764MOL0     C 3021   9.709  10.693   3.320 -0.7591  0.3222 -0.3433
  764MOL0     N 3022   9.584  10.757   3.275 -0.3623  0.3046 -0.0749
  764MOL0     C 3023   9.577  10.867   3.200  0.3385 -0.4023  0.1328
  764MOL0     C 3024   9.444  10.875   3.169  0.1061 -0.0101  0.4246
  764MOL0     C 3025   9.383  10.982   3.077  0.6018 -0.1403 -0.2523
  764MOL0     C 3026   9.230  10.989   3.053 -0.5501  0.8772 -0.2099
  764MOL0     C 3027   9.151  10.965   3.185 -0.6323 -0.6036  0.6421
  764MOL0     C 3028   9.002  10.992   3.185 -0.6848  0.1828 -0.4154
  764MOL0     O 3029   8.974  11.137   3.195  0.3199 -0.1510 -0.8909
  764MOL0     C 3030   8.842  11.169   3.204  0.0689 -0.6248 -0.2096
  764MOL0     C 3031   8.726  11.088   3.210 -0.1362 -0.5618 -0.1523
  764MOL0     C 3032   8.597  11.143   3.222  0.1503  0.0612  0.4070
  764MOL0     C 3033   8.469  11.056   3.248  0.3250 -0.6720 -0.3098
  764MOL0     C 3034   8.580  11.283   3.231  0.4009 -0.3939  0.1577
  764MOL0     C 3035   8.450  11.345   3.257 -0.5648  0.1020 -0.6795
  764MOL0     O 3036   8.364  11.288   3.348  0.3573  0.0585  0.7013
  764MOL0     C 3037   8.233  11.328   3.363 -0.3760  0.5751 -0.7333
  764MOL0     C 3038   8.198  11.466   3.368 -0.3124  0.4611 -0.2946
  764MOL0     C 3039   8.067  11.501   3.381  0.8237  0.1936  0.2414
  764MOL0     C 3040   7.966  11.407   3.401 -0.2329 -0.5149  0.2707
  764MOL0     O 3041   7.838  11.459   3.420 -0.2557 -0.3081 -0.5656
  764MOL0     C 3042   7.757  11.366   3.487  0.4828 -0.2994 -0.1337
  764MOL0     C 3043   7.626  11.428   3.524 -0.6561 -0.4689  0.0917
  764MOL0     C 3044   7.517  11.320   3.552 -0.0287 -0.5663  2.0115
  764MOL0     C 3045   7.401  11.384   3.614  0.1815  0.5281 -0.4627
  764MOL0     C 3046   7.269  11.315   3.616  0.6839 -0.2666 -0.8084
  764MOL0     C 3047   7.167  11.398   3.695  0.2434 -0.4394  0.9094
  764MOL0     C 3048   7.024  11.341   3.699  0.9526  0.2155  0.8010
  764MOL0     C 3049   6.934  11.443   3.762 -0.6811  0.0408 -0.4452
  764MOL0    Cl 3050   6.772  11.359   3.775  0.2322  0.3631 -0.1870
  764MOL0     C 3051   7.996  11.270   3.384  0.2071 -0.5882  0.5900
  764MOL0     C 3052   8.134  11.232   3.364 -0.0582  0.5691 -0.7755
  764MOL0     O 3053   8.425  11.442   3.189 -0.5508  0.0712 -0.1199
  764MOL0     C 3054   8.694  11.363   3.213  0.5290 -0.1353 -0.3442
  764MOL0     C 3055   8.819  11.314   3.197 -0.1349  1.1369  0.1252
  764MOL0     N 3056   9.378  10.760   3.218 -0.7929  0.2170 -0.0673
  764MOL0     N 3057   9.470  10.689   3.278 -0.3901  0.7464  0.1586
  764MOL0     C 3058  10.174  10.127   3.685 -0.3040 -0.6184 -0.3547
  764MOL0     C 3059  10.228   9.997   3.702  0.1796 -0.0907 -0.3724
  764MOL0     C 3060  10.295   9.577   3.844  0.5527 -0.5105 -0.7204
  764MOL0     C 3061  10.206   9.490   3.907 -0.4152  0.5383 -0.0324
  764MOL0     C 3062  10.249   9.351   3.903  0.9071 -0.6257  0.1701
  764MOL0     C 3063  10.370   9.303   3.839  0.6494 -0.8635  0.4319
  764MOL0     O 3064  10.411   9.172   3.822  0.0210  0.1594  0.2367
  764MOL0     C 3065  10.337   9.059   3.877 -0.4516 -0.2015 -0.5194
  764MOL0     C 3066  10.366   9.037   4.029  0.1466 -0.2903  0.2212
  764MOL0     C 3067  10.507   9.066   4.071 -1.2989  0.2219  0.2733
  764MOL0     C 3068  10.517   9.063   4.228 -0.3308  0.8604  0.1943
  764MOL0     C 3069  10.441   9.170   4.297  0.1365 -1.3660 -0.5528
  764MOL0     C 3070  10.383   9.263   4.355 -0.5082  0.0410 -0.3902
  764MOL0     C 3071  10.449   9.402   3.774  0.0525 -0.4414 -0.4024
  764MOL0     C 3072  10.410   9.533   3.786 -0.0274  0.0892  0.4113
  764MOL0     H 3073  10.396  10.025   3.989 -0.6691  1.4767  0.2073
  764MOL0     H 3074  10.344  10.240   3.964  0.6070 -0.9964  0.5460
  764MOL0     H 3075  10.210  10.460   3.940 -1.4004 -1.3721 -0.1387
  764MOL0     H 3076  10.347  10.425   3.828 -0.8210 -0.2279 -0.4669
  764MOL0     H 3077  10.246  10.663   3.868 -3.3230 -0.5406  2.0007
  764MOL0     H 3078  10.284  10.604   3.699 -2.7284 -1.7489 -2.2519
  764MOL0     H 3079  10.053  10.555   3.660  2.2989  0.0136 -1.6262
  764MOL0     H 3080  10.008  10.630   3.821  1.4574  1.6606  2.0400
  764MOL0     H 3081  10.109  10.839   3.735 -0.6982  0.6661 -1.7380
  764MOL0     H 3082  10.157  10.762   3.587  1.4282 -0.3164  1.0097
  764MOL0     H 3083   9.872  10.811   3.684 -0.8830 -2.0388  0.1163
  764MOL0     H 3084   9.963  10.892   3.560 -0.7233 -0.2658 -1.3512
  764MOL0     H 3085   9.980  10.687   3.423  2.5803  1.7446  1.4456
  764MOL0     H 3086   9.859  10.607   3.527 -0.8402  1.7234 -0.4672
  764MOL0     H 3087   9.702  10.793   3.520  3.1747  1.5622  2.0876
  764MOL0     H 3088   9.801  10.880   3.410 -0.8731  0.6460 -1.5522
  764MOL0     H 3089   9.691  10.587   3.343 -1.0825  0.5854  0.6310
  764MOL0     H 3090   9.784  10.700   3.241 -2.0208 -1.2060 -1.7720
  764MOL0     H 3091   9.652  10.930   3.154 -1.9810  1.5153 -1.3287
  764MOL0     H 3092   9.402  11.081   3.119 -0.0322 -0.4753  0.8763
  764MOL0     H 3093   9.442  10.980   2.985 -0.0490  1.2855 -0.7248
  764MOL0     H 3094   9.207  10.917   2.974  1.1573 -2.6578  2.2361
  764MOL0     H 3095   9.202  11.088   3.014 -2.8482  0.2333 -0.3228
  764MOL0     H 3096   9.203  11.026   3.259  0.6968 -0.4572 -0.3646
  764MOL0     H 3097   9.167  10.859   3.210 -2.7694 -0.7089  1.7385
  764MOL0     H 3098   8.950  10.945   3.268  0.0542 -1.3702 -0.7845
  764MOL0     H 3099   8.952  10.965   3.091  2.1916 -0.4258 -1.9012
  764MOL0     H 3100   8.738  10.981   3.197 -0.2844 -1.2101  3.9451
  764MOL0     H 3101   8.488  10.949   3.229  1.4788 -0.5514  0.0869
  764MOL0     H 3102   8.449  11.057   3.356  1.4737 -0.9476 -0.0799
  764MOL0     H 3103   8.379  11.090   3.197 -0.2556  0.8771  1.6456
  764MOL0     H 3104   8.273  11.541   3.345  0.7799 -0.5454 -0.0855
  764MOL0     H 3105   8.030  11.604   3.383 -2.7234 -0.9425  0.1274
  764MOL0     H 3106   7.744  11.281   3.419  1.6126  2.1500 -3.7296
  764MOL0     H 3107   7.797  11.317   3.577  0.0716 -1.3177 -0.4869
  764MOL0     H 3108   7.651  11.477   3.619 -2.4117 -0.8393  0.7905
  764MOL0     H 3109   7.589  11.506   3.457 -2.1093 -0.0519  1.3215
  764MOL0     H 3110   7.551  11.237   3.615  2.2607 -0.9102  0.4494
  764MOL0     H 3111   7.492  11.274   3.456  1.0289  0.4277  1.2338
  764MOL0     H 3112   7.429  11.404   3.718 -1.7637 -0.1557  0.2394
  764MOL0     H 3113   7.365  11.475   3.566 -1.8669 -0.1449 -0.3070
  764MOL0     H 3114   7.273  11.219   3.668 -1.2987 -0.0769 -0.2190
  764MOL0     H 3115   7.240  11.292   3.513 -1.5686  2.4596 -0.9016
  764MOL0     H 3116   7.209  11.401   3.796 -1.2523 -1.0657  1.5850
  764MOL0     H 3117   7.155  11.503   3.669 -0.7540  0.2488  3.7744
  764MOL0     H 3118   7.017  11.243   3.747 -1.2600 -1.0517 -1.8746
  764MOL0     H 3119   6.982  11.329   3.599 -1.3458  1.0746  1.5938
  764MOL0     H 3120   6.925  11.536   3.706 -0.4704 -0.6520 -1.6780
  764MOL0     H 3121   6.973  11.457   3.863  1.4769 -1.9104 -0.9021
  764MOL0     H 3122   7.921  11.192   3.375 -2.8507  2.3126 -1.4322
  764MOL0     H 3123   8.167  11.129   3.374 -0.8654  0.4703  1.6184
  764MOL0     H 3124   8.684  11.471   3.211 -0.7186 -0.1824 -3.5867
  764MOL0     H 3125   8.911  11.372   3.184 -0.5369  1.8525  0.3806
  764MOL0     H 3126  10.112  10.160   3.602  1.9995  0.4880 -1.7134
  764MOL0     H 3127  10.208   9.924   3.623 -1.9174  0.1523 -0.1227
  764MOL0     H 3128  10.116   9.526   3.956  0.9153  0.8285  2.3358
  764MOL0     H 3129  10.170   9.293   3.949  1.1428 -0.9836  0.1246
  764MOL0     H 3130  10.232   9.080   3.855  0.2841  2.0297 -2.3388
  764MOL0     H 3131  10.367   8.967   3.826  0.0173  0.1091 -0.8066
  764MOL0     H 3132  10.338   8.935   4.059 -0.3393  0.0162  0.8354
  764MOL0     H 3133  10.304   9.113   4.077  1.4074  0.7712  0.2176
  764MOL0     H 3134  10.539   9.166   4.041 -2.6044  0.2370 -1.1575
  764MOL0     H 3135  10.569   8.988   4.024  0.8037  1.8086  0.2578
  764MOL0     H 3136  10.622   9.070   4.257 -0.1223 -2.5621  0.6586
  764MOL0     H 3137  10.482   8.970   4.275  0.0219  0.3518 -0.5292
  764MOL0     H 3138  10.339   9.352   4.394 -1.8616  0.2141 -2.1634
  764MOL0     H 3139  10.548   9.377   3.737 -0.1478 -1.7370 -0.1250
  764MOL0     H 3140  10.471   9.615   3.750 -2.3393  2.1383  0.9248
  765MOL0     O 3141  10.996   5.723   0.002 -0.3281 -0.5555 -0.0322
  765MOL0     C 3142  11.080   5.715   0.090 -0.0452  0.3498  0.9463
  765MOL0     O 3143  11.053   5.744   0.218 -0.2880 -0.4299 -0.7356
  765MOL0     C 3144  10.927   5.783   0.254 -0.1835 -0.2509 -0.5842
  765MOL0     C 3145  10.821   5.689   0.243  0.1833 -0.6026 -0.6555
  765MOL0     C 3146  10.694   5.731   0.302  1.0590  0.3841  0.4086
  765MOL0     C 3147  10.672   5.857   0.354 -0.4349  0.7706 -0.5521
  765MOL0     O 3148  10.539   5.893   0.386  0.4201  0.0461 -0.4452
  765MOL0     C 3149  10.524   6.008   0.478  0.4529  0.3673 -0.5725
  765MOL0     C 3150  10.377   6.028   0.501  0.0465  0.8066 -0.2123
  765MOL0     C 3151  10.341   6.089   0.633  0.6279 -0.7508 -0.0702
  765MOL0     C 3152  10.189   6.133   0.633  0.7302 -0.3640  0.5662
  765MOL0     C 3153  10.140   6.169   0.771 -0.2072 -0.8393 -0.0291
  765MOL0     C 3154  10.216   6.299   0.815 -0.1597 -0.9443  0.9056
  765MOL0     C 3155  10.170   6.345   0.956 -0.5180 -0.5609  0.1685
  765MOL0     C 3156  10.048   6.438   0.972  0.5935  0.4364  0.4240
  765MOL0     N 3157   9.917   6.384   0.919  0.5994 -0.6438 -0.3501
  765MOL0     C 3158   9.864   6.372   0.792 -1.0786 -0.1061 -0.3227
  765MOL0     C 3159   9.753   6.299   0.802  0.2098  0.6359 -0.0477
  765MOL0     C 3160   9.661   6.265   0.697  0.5750  0.6484  0.4052
  765MOL0     C 3161   9.578   6.385   0.656 -0.6881  0.2252 -0.8132
  765MOL0     C 3162   9.477   6.347   0.544 -0.5854  0.5998 -0.0226
  765MOL0     C 3163   9.403   6.467   0.485 -0.0705 -0.7259 -0.3142
  765MOL0     O 3164   9.301   6.505   0.575 -0.4543  0.5575 -0.3671
  765MOL0     C 3165   9.188   6.576   0.526 -0.5056  0.0491 -0.5111
  765MOL0     C 3166   9.176   6.641   0.398  0.0503  0.0175 -0.7512
  765MOL0     C 3167   9.062   6.715   0.366  0.1539 -0.3421  0.4278
  765MOL0     C 3168   9.041   6.760   0.221  0.1709 -0.6090 -0.7896
  765MOL0     C 3169   8.970   6.752   0.473 -0.3434 -0.4703  0.6653
  765MOL0     C 3170   8.849   6.839   0.452  0.6552 -0.1932 -0.7787
  765MOL0     O 3171   8.862   6.955   0.379  0.2084  0.2526 -0.3774
  765MOL0     C 3172   8.749   7.036   0.356  0.2855 -0.2663 -0.4897
  765MOL0     C 3173   8.621   6.988   0.334  0.2798 -0.0759  0.1446
  765MOL0     C 3174   8.511   7.076   0.322  0.2761  0.0867 -0.1520
  765MOL0     C 3175   8.521   7.213   0.325  0.6530 -0.2093  0.7898
  765MOL0     O 3176   8.410   7.289   0.303  0.6533  0.1681 -0.9871
  765MOL0     C 3177   8.370   7.375   0.407 -0.4387 -0.3531  0.0322
  765MOL0     C 3178   8.274   7.468   0.341 -0.5285  0.3545 -0.2709
  765MOL0     C 3179   8.146   7.401   0.289 -0.5513 -0.6238  0.3415
  765MOL0     C 3180   8.148   7.407   0.132 -0.1493 -0.2424  0.2810
  765MOL0     C 3181   8.011   7.356   0.075 -0.9378 -0.2697  0.3872
  765MOL0     C 3182   7.887   7.429   0.120 -0.2552 -0.2194  0.2777
  765MOL0     C 3183   7.784   7.418   0.001  0.2216  0.3259 -0.4350
  765MOL0     C 3184   7.644   7.469   0.023 -0.2394  0.1919  0.2593
  765MOL0    Cl 3185   7.581   7.492  -0.144 -0.2167  0.0019  0.0387
  765MOL0     C 3186   8.651   7.268   0.329  0.0127  0.0137 -0.0550
  765MOL0     C 3187   8.766   7.177   0.356 -0.3029 -0.0392  0.0705
  765MOL0     O 3188   8.744   6.792   0.497  0.3020 -0.7164 -0.3970
  765MOL0     C 3189   8.988   6.694   0.599  0.0040 -0.2590 -0.5671
  765MOL0     C 3190   9.093   6.604   0.625 -0.2917 -0.1874  0.3313
  765MOL0     N 3191   9.722   6.283   0.933 -0.4947 -0.3374  0.7589
  765MOL0     N 3192   9.823   6.331   1.003  0.3934  0.0320  0.1513
  765MOL0     C 3193  10.784   5.932   0.378 -0.0118  0.6115  0.6005
  765MOL0     C 3194  10.911   5.894   0.336  1.1472  0.6013 -0.4855
  765MOL0     C 3195  11.217   5.660   0.062  1.0150  0.1658  0.6104
  765MOL0     C 3196  11.262   5.631  -0.069 -0.6126 -0.9910 -0.2595
  765MOL0     C 3197  11.377   5.567  -0.087 -0.6084 -0.0169  0.2735
  765MOL0     C 3198  11.461   5.527   0.016  0.0606 -0.2457  0.2131
  765MOL0     O 3199  11.577   5.460   0.005 -0.4081  0.0476  0.2767
  765MOL0     C 3200  11.648   5.465  -0.120 -0.1004 -0.0836  0.3444
  765MOL0     C 3201  11.786   5.399  -0.101 -0.2982 -0.5764 -0.0345
  765MOL0     C 3202  11.905   5.496  -0.064 -0.2833  0.3479  0.6320
  765MOL0     C 3203  11.968   5.459   0.080  0.6046  0.0824 -0.4084
  765MOL0     C 3204  11.877   5.499   0.188 -0.5606  0.2346 -1.3723
  765MOL0     C 3205  11.804   5.558   0.266  0.3707  0.0967  0.5035
  765MOL0     C 3206  11.417   5.547   0.142 -0.3395 -0.0925 -0.3001
  765MOL0     C 3207  11.301   5.624   0.167 -0.2887 -0.3378  1.4655
  765MOL0     H 3208  10.838   5.590   0.202  0.6876 -1.6211  1.8532
  765MOL0     H 3209  10.613   5.659   0.301  1.3476  0.0614 -0.2191
  765MOL0     H 3210  10.581   5.997   0.570  0.0742  0.2842 -0.3463
  765MOL0     H 3211  10.563   6.101   0.436  1.6449  0.0286 -0.2697
  765MOL0     H 3212  10.331   6.091   0.425  0.0828 -0.3184 -1.1979
  765MOL0     H 3213  10.326   5.931   0.497  1.5322  0.0032 -0.1610
  765MOL0     H 3214  10.365   6.031   0.723  1.8860  3.2037  2.4219
  765MOL0     H 3215  10.404   6.178   0.645 -2.4647  1.5522  0.6640
  765MOL0     H 3216  10.166   6.213   0.562 -1.0093 -2.1715 -1.0489
  765MOL0     H 3217  10.125   6.050   0.601 -2.5941  2.3856 -0.4814
  765MOL0     H 3218  10.031   6.181   0.772 -0.2593 -1.3173  0.6055
  765MOL0     H 3219  10.163   6.092   0.845  0.6185  1.2417  1.9852
  765MOL0     H 3220  10.323   6.279   0.825 -0.3937 -1.5383  2.7432
  765MOL0     H 3221  10.192   6.383   0.750  0.2601 -0.2377  1.6507
  765MOL0     H 3222  10.151   6.251   1.010  2.4693 -0.7809  0.9858
  765MOL0     H 3223  10.260   6.393   0.995 -0.0136  1.0667 -2.7480
  765MOL0     H 3224  10.066   6.535   0.925  1.8595  0.3652  0.7344
  765MOL0     H 3225  10.045   6.463   1.079  0.0803  0.5217  0.3924
  765MOL0     H 3226   9.925   6.399   0.706  1.4319 -1.2968  0.9918
  765MOL0     H 3227   9.722   6.226   0.615  2.5071  2.3120  0.9609
  765MOL0     H 3228   9.593   6.189   0.736  1.4310  0.2226  1.1227
  765MOL0     H 3229   9.650   6.463   0.631  2.5760 -1.5861  2.1039
  765MOL0     H 3230   9.513   6.432   0.730  0.1038  1.1018 -0.6508
  765MOL0     H 3231   9.415   6.261   0.572 -0.8968  1.2317  1.2864
  765MOL0     H 3232   9.534   6.305   0.460 -1.3750 -0.4874 -0.0410
  765MOL0     H 3233   9.359   6.428   0.393 -1.6179 -3.3700  1.3982
  765MOL0     H 3234   9.469   6.553   0.476  0.2097 -1.0645 -1.6642
  765MOL0     H 3235   9.254   6.642   0.322 -0.7439  0.6933 -1.5927
  765MOL0     H 3236   9.060   6.867   0.210  0.2777 -0.6401 -0.9140
  765MOL0     H 3237   9.116   6.721   0.151  3.3565 -0.2297  2.1380
  765MOL0     H 3238   8.941   6.735   0.185 -0.0220  1.2462 -1.6401
  765MOL0     H 3239   8.592   6.883   0.327  0.9369 -0.1519 -1.9741
  765MOL0     H 3240   8.410   7.043   0.306 -0.1797  0.7783  1.1205
  765MOL0     H 3241   8.340   7.317   0.494  2.7445  1.3182  2.4592
  765MOL0     H 3242   8.450   7.443   0.437 -0.1816 -0.4224 -0.4848
  765MOL0     H 3243   8.247   7.544   0.415 -0.1474  2.0262 -1.7845
  765MOL0     H 3244   8.325   7.522   0.261  2.6534 -0.5844  0.9674
  765MOL0     H 3245   8.070   7.465   0.334  0.1470  1.6778 -1.5687
  765MOL0     H 3246   8.142   7.295   0.315  0.2290 -1.0244 -1.0602
  765MOL0     H 3247   8.165   7.506   0.089 -1.8000 -1.3834 -3.4089
  765MOL0     H 3248   8.232   7.346   0.098 -0.5003 -0.2825 -0.5355
  765MOL0     H 3249   8.003   7.250   0.100 -2.1559 -0.4705 -0.7415
  765MOL0     H 3250   8.017   7.354  -0.034  1.6578 -2.4284  0.4699
  765MOL0     H 3251   7.839   7.392   0.211 -0.2826  1.4584  0.9903
  765MOL0     H 3252   7.905   7.533   0.149  0.9101  0.0634 -1.3147
  765MOL0     H 3253   7.761   7.317  -0.034 -0.0859  1.0793 -2.5876
  765MOL0     H 3254   7.833   7.465  -0.085 -2.3937  2.8024 -0.7498
  765MOL0     H 3255   7.651   7.569   0.067  1.6086  1.0348 -1.7718
  765MOL0     H 3256   7.586   7.399   0.084 -1.0070 -1.1013 -1.8404
  765MOL0     H 3257   8.668   7.375   0.317 -1.8255  0.3795  0.2673
  765MOL0     H 3258   8.864   7.221   0.373 -0.5324 -0.3816  2.5964
  765MOL0     H 3259   8.922   6.730   0.678 -3.7883 -1.5916 -2.8375
  765MOL0     H 3260   9.111   6.585   0.730  0.2877  2.2203  0.7312
  765MOL0     H 3261  10.780   6.023   0.438 -4.2719  1.5270 -0.7100
  765MOL0     H 3262  11.000   5.954   0.355 -0.8447  3.4118  0.5336
  765MOL0     H 3263  11.198   5.656  -0.153 -0.0169  2.2517  0.1248
  765MOL0     H 3264  11.403   5.536  -0.188  1.5742  3.1610 -0.2855
  765MOL0     H 3265  11.599   5.411  -0.201 -0.3341  0.9936 -0.2558
  765MOL0     H 3266  11.671   5.566  -0.156 -0.0456 -0.0094  0.5857
  765MOL0     H 3267  11.825   5.353  -0.192  0.4515  1.0065 -0.5455
  765MOL0     H 3268  11.780   5.321  -0.024  0.0154  0.8918  1.5389
  765MOL0     H 3269  11.867   5.599  -0.059  2.3642  1.3529  3.0891
  765MOL0     H 3270  11.978   5.488  -0.145 -1.0850 -3.1746  0.1054
  765MOL0     H 3271  12.067   5.503   0.091  2.0942 -2.7138 -1.5799
  765MOL0     H 3272  11.977   5.350   0.089 -0.2972  0.1494  2.3769
  765MOL0     H 3273  11.754   5.607   0.347  3.2532  1.5241  1.5507
  765MOL0     H 3274  11.480   5.514   0.224  0.7647  2.4203 -0.0682
  765MOL0     H 3275  11.273   5.650   0.268 -0.6126 -0.2800  1.3606
  766MOL0     O 3276   9.617   0.480   8.815  0.3192  0.0234  0.0182
  766MOL0     C 3277   9.710   0.430   8.884  0.2193  0.7842  0.9776
  766MOL0     O 3278   9.708   0.309   8.948  0.2443 -0.8908  0.8089
  766MOL0     C 3279   9.587   0.249   8.980 -0.4774 -0.0152 -0.1868
  766MOL0     C 3280   9.484   0.232   8.888  0.5822  0.8565  0.3839
  766MOL0     C 3281   9.359   0.180   8.928 -0.2529 -0.8310 -0.2666
  766MOL0     C 3282   9.346   0.106   9.044 -0.3766  0.3735  0.9279
  766MOL0     O 3283   9.238   0.031   9.068  0.3378  0.4564  0.3204
  766MOL0     C 3284   9.196  -0.025   9.196 -0.7572  0.0106  0.2567
  766MOL0     C 3285   9.068  -0.113   9.170  0.1855 -0.0089 -0.5808
  766MOL0     C 3286   8.999  -0.150   9.308 -1.0423  0.1990 -0.6434
  766MOL0     C 3287   8.859  -0.201   9.285 -0.6692 -0.5368  0.3984
  766MOL0     C 3288   8.796  -0.244   9.415  0.0926 -0.6512  0.7845
  766MOL0     C 3289   8.655  -0.300   9.386  0.3459  0.6858  0.0558
  766MOL0     C 3290   8.588  -0.338   9.521 -0.6648 -0.1300  0.5796
  766MOL0     C 3291   8.453  -0.411   9.502 -0.2993  0.6086  0.2902
  766MOL0     N 3292   8.405  -0.429   9.635  0.2765  0.0645  0.1661
  766MOL0     C 3293   8.357  -0.341   9.721  0.6171 -0.0915  0.0279
  766MOL0     C 3294   8.313  -0.413   9.824  1.1211 -0.1292 -0.1092
  766MOL0     C 3295   8.276  -0.361   9.964 -0.0848 -1.0646 -0.0290
  766MOL0     C 3296   8.133  -0.405  10.006 -0.7178  0.2816  0.4537
  766MOL0     C 3297   8.102  -0.368  10.147  0.1458 -0.4616  0.4667
  766MOL0     C 3298   7.963  -0.420  10.178  0.2424 -0.7282 -0.2751
  766MOL0     O 3299   7.936  -0.375  10.314 -0.1240 -0.3987  0.2602
  766MOL0     C 3300   7.801  -0.376  10.345  0.1618  0.0847  1.3720
  766MOL0     C 3301   7.766  -0.308  10.469 -0.1812  0.3723  0.2014
  766MOL0     C 3302   7.635  -0.289  10.517 -1.6828 -0.0925  0.6114
  766MOL0     C 3303   7.605  -0.232  10.658  0.5642 -1.2920 -0.7414
  766MOL0     C 3304   7.533  -0.356  10.438 -0.1041 -0.6467 -0.3528
  766MOL0     C 3305   7.382  -0.344  10.462 -0.2675  0.4165 -0.1762
  766MOL0     O 3306   7.329  -0.224  10.488 -0.3566 -0.3459  0.1752
  766MOL0     C 3307   7.196  -0.212  10.488 -0.1713 -0.0029 -0.1393
  766MOL0     C 3308   7.130  -0.268  10.594  0.2501 -0.4402  0.5544
  766MOL0     C 3309   6.989  -0.246  10.607  0.1269 -0.1922  0.0382
  766MOL0     C 3310   6.920  -0.176  10.502 -0.0669  0.7008 -0.5162
  766MOL0     O 3311   6.781  -0.153  10.515  0.0705  0.6942 -1.0360
  766MOL0     C 3312   6.708  -0.269  10.559 -1.0724  0.3249 -0.4013
  766MOL0     C 3313   6.569  -0.280  10.503 -0.7826 -0.1388  1.2004
  766MOL0     C 3314   6.466  -0.182  10.573 -0.8656 -0.6885  0.2284
  766MOL0     C 3315   6.318  -0.214  10.531 -0.4491  0.3970  0.5588
  766MOL0     C 3316   6.220  -0.124  10.606  0.1111 -0.2547  0.1130
  766MOL0     C 3317   6.085  -0.145  10.555  0.1523  0.4455 -0.4024
  766MOL0     C 3318   5.977  -0.077  10.653  0.0013  0.3723  0.6083
  766MOL0     C 3319   5.838  -0.066  10.584 -0.0339  0.3378 -0.2031
  766MOL0    Cl 3320   5.781  -0.223  10.516  0.0247 -0.5978 -0.4361
  766MOL0     C 3321   6.999  -0.122  10.396 -0.3777 -0.1425  0.3648
  766MOL0     C 3322   7.129  -0.137  10.394 -0.2200  0.5217 -0.4499
  766MOL0     O 3323   7.317  -0.449  10.440 -0.6829 -0.5705  0.1351
  766MOL0     C 3324   7.564  -0.434  10.329 -0.3673 -0.0796  0.3360
  766MOL0     C 3325   7.699  -0.439  10.285  0.8636  0.5151  0.1643
  766MOL0     N 3326   8.334  -0.547   9.801  0.6225 -0.5652 -0.0577
  766MOL0     N 3327   8.392  -0.555   9.687 -0.4390  0.3351  0.8688
  766MOL0     C 3328   9.456   0.125   9.134 -0.8352 -0.0138  0.6306
  766MOL0     C 3329   9.573   0.193   9.108  0.0765 -0.2115  0.2716
  766MOL0     C 3330   9.835   0.506   8.861  0.2145  0.4271  0.2665
  766MOL0     C 3331   9.951   0.497   8.940  0.7738  0.1352  0.4720
  766MOL0     C 3332  10.066   0.571   8.920  0.6322 -0.1778  0.4087
  766MOL0     C 3333  10.070   0.662   8.817  0.0823  1.0458 -1.1649
  766MOL0     O 3334  10.182   0.729   8.814  0.3362 -0.3796  0.6738
  766MOL0     C 3335  10.208   0.841   8.725  0.1015 -0.1633  0.0796
  766MOL0     C 3336  10.154   0.975   8.776  0.0625  0.2818 -0.1552
  766MOL0     C 3337  10.242   1.032   8.898  0.7543  1.2229 -0.0875
  766MOL0     C 3338  10.173   1.163   8.949  0.0946 -0.1317  0.5743
  766MOL0     C 3339  10.220   1.272   8.859 -0.2751 -0.4168 -0.5446
  766MOL0     C 3340  10.266   1.335   8.771  0.4905 -0.9522 -0.1768
  766MOL0     C 3341   9.958   0.683   8.732 -0.0183 -0.0449  0.7003
  766MOL0     C 3342   9.839   0.607   8.759  1.0147  0.8608  0.2867
  766MOL0     H 3343   9.495   0.251   8.782 -2.3067 -0.2755 -0.2364
  766MOL0     H 3344   9.283   0.182   8.850 -1.8249 -1.7092  1.1909
  766MOL0     H 3345   9.282  -0.082   9.231 -0.9826 -1.1661 -1.0081
  766MOL0     H 3346   9.171   0.051   9.271 -2.2872 -3.3192  3.4422
  766MOL0     H 3347   9.002  -0.049   9.111  4.4979  2.9068 -2.8522
  766MOL0     H 3348   9.098  -0.200   9.110 -0.5851  0.3949 -1.5910
  766MOL0     H 3349   9.064  -0.224   9.356 -1.1909  0.9796  0.8433
  766MOL0     H 3350   8.989  -0.061   9.371 -1.1081  1.1167 -1.9027
  766MOL0     H 3351   8.795  -0.121   9.245  0.9055  0.1667 -0.8343
  766MOL0     H 3352   8.864  -0.281   9.211  0.7063  0.0110 -0.1422
  766MOL0     H 3353   8.847  -0.326   9.466  0.6308  0.0082  1.3245
  766MOL0     H 3354   8.784  -0.156   9.479 -2.7470  2.0603 -2.9506
  766MOL0     H 3355   8.591  -0.226   9.338 -0.7893 -0.7660 -0.7551
  766MOL0     H 3356   8.674  -0.380   9.314 -0.0804  1.2351 -0.6662
  766MOL0     H 3357   8.661  -0.402   9.572  0.9239  1.1150 -0.0478
  766MOL0     H 3358   8.577  -0.248   9.583  1.6826  0.1472  0.6782
  766MOL0     H 3359   8.463  -0.503   9.444 -1.0021  1.6400 -1.5831
  766MOL0     H 3360   8.378  -0.352   9.449 -1.3428 -1.7948 -1.0744
  766MOL0     H 3361   8.368  -0.234   9.707  3.9412 -0.5663 -2.1869
  766MOL0     H 3362   8.349  -0.396  10.037 -0.8770  1.0739  1.9035
  766MOL0     H 3363   8.276  -0.252   9.972  3.2316 -1.0937  4.8112
  766MOL0     H 3364   8.130  -0.514  10.004  0.7904  0.1646 -3.4906
  766MOL0     H 3365   8.069  -0.357   9.931 -1.3625 -0.2741  0.6436
  766MOL0     H 3366   8.099  -0.259  10.160  2.7848  0.1767 -2.9041
  766MOL0     H 3367   8.182  -0.396  10.217 -2.0605 -0.4041  3.1708
  766MOL0     H 3368   7.960  -0.529  10.178 -0.0490 -0.7248  0.8586
  766MOL0     H 3369   7.888  -0.389  10.104 -0.6621 -0.1756  0.8463
  766MOL0     H 3370   7.851  -0.272  10.525  0.8431  1.0654 -1.7121
  766MOL0     H 3371   7.697  -0.209  10.714  0.1871  0.7235 -0.8770
  766MOL0     H 3372   7.553  -0.137  10.644 -0.1753 -0.9761  3.2470
  766MOL0     H 3373   7.530  -0.293  10.708 -3.2505  2.3823 -1.4585
  766MOL0     H 3374   7.189  -0.315  10.672  2.2764  1.8739  0.5455
  766MOL0     H 3375   6.939  -0.311  10.678  0.8408  0.3770  1.0898
  766MOL0     H 3376   6.755  -0.362  10.527 -0.9205  0.4903 -0.6535
  766MOL0     H 3377   6.715  -0.273  10.668  2.4732 -1.2444 -0.5716
  766MOL0     H 3378   6.573  -0.265  10.394 -0.2894 -1.4805  1.0193
  766MOL0     H 3379   6.527  -0.380  10.514 -1.0919 -0.3302 -1.1777
  766MOL0     H 3380   6.478  -0.078  10.542 -5.2125 -0.3624 -1.0314
  766MOL0     H 3381   6.473  -0.190  10.682  0.4937 -1.8778  0.0886
  766MOL0     H 3382   6.306  -0.201  10.423 -1.9525  1.5118  0.8208
  766MOL0     H 3383   6.301  -0.319  10.556 -1.8956  0.5681  0.3750
  766MOL0     H 3384   6.248  -0.021  10.585  0.2412 -0.7166 -2.2623
  766MOL0     H 3385   6.230  -0.151  10.712 -0.5258 -1.0407 -0.0146
  766MOL0     H 3386   6.077  -0.104  10.454 -2.4318  2.7175  0.6095
  766MOL0     H 3387   6.050  -0.249  10.552  0.4623  0.2853  0.9271
  766MOL0     H 3388   6.011   0.023  10.683  2.3801  0.1749 -1.0824
  766MOL0     H 3389   5.968  -0.132  10.747  1.1061 -1.6966 -0.4256
  766MOL0     H 3390   5.833   0.001  10.497 -2.7505  0.5601  0.0182
  766MOL0     H 3391   5.765  -0.022  10.652 -1.3809  0.2131 -1.5208
  766MOL0     H 3392   6.961  -0.055  10.319  0.7620 -0.6164 -0.6579
  766MOL0     H 3393   7.185  -0.094  10.312 -0.3067  2.6417  0.5253
  766MOL0     H 3394   7.488  -0.490  10.275 -2.3566  0.4584  2.4364
  766MOL0     H 3395   7.715  -0.495  10.193 -0.7199  1.1006 -0.5046
  766MOL0     H 3396   9.452   0.071   9.228  2.5144 -3.1694 -0.7584
  766MOL0     H 3397   9.656   0.205   9.177  0.0016  2.2848  0.0004
  766MOL0     H 3398   9.956   0.414   9.010  0.0432 -0.3527 -0.0373
  766MOL0     H 3399  10.154   0.544   8.977  1.5851  0.4344 -0.7384
  766MOL0     H 3400  10.315   0.859   8.719  0.1615 -0.4984  0.1288
  766MOL0     H 3401  10.168   0.821   8.625 -1.1030 -1.9909  0.8532
  766MOL0     H 3402  10.048   0.974   8.802  0.5925 -1.2967  2.2545
  766MOL0     H 3403  10.176   1.047   8.696  2.4277 -1.5424 -1.2461
  766MOL0     H 3404  10.345   1.054   8.867  1.2911  0.3916  1.0335
  766MOL0     H 3405  10.242   0.945   8.965 -0.6599 -0.8828 -2.6039
  766MOL0     H 3406  10.214   1.190   9.047  0.6851  0.8400  0.0742
  766MOL0     H 3407  10.064   1.158   8.944  0.1544 -0.3362 -1.0895
  766MOL0     H 3408  10.314   1.399   8.699  0.1504 -0.1375  0.3038
  766MOL0     H 3409   9.968   0.749   8.646 -1.2520 -0.7557 -0.0315
  766MOL0     H 3410   9.748   0.619   8.701  0.0817 -1.1199  1.2493
  767MOL0     O 3411   3.265   1.078   1.440 -0.2205 -0.0661 -0.2154
  767MOL0     C 3412   3.333   1.179   1.434  0.4542 -0.4162 -0.0124
  767MOL0     O 3413   3.284   1.313   1.416 -0.6323  0.1132  0.8386
  767MOL0     C 3414   3.151   1.334   1.393 -0.2439 -0.4560  0.4019
  767MOL0     C 3415   3.117   1.409   1.278 -0.0901  0.1263  0.6970
  767MOL0     C 3416   2.981   1.415   1.234  0.2322  0.1834 -0.5667
  767MOL0     C 3417   2.879   1.365   1.315  0.2221  0.0471  1.2905
  767MOL0     O 3418   2.746   1.376   1.274 -0.1371  0.1624 -0.3178
  767MOL0     C 3419   2.639   1.351   1.370 -0.8787 -1.0317 -0.2680
  767MOL0     C 3420   2.515   1.412   1.303 -0.4233 -0.3214  0.4688
  767MOL0     C 3421   2.390   1.389   1.376 -0.0725 -0.9383  0.1506
  767MOL0     C 3422   2.275   1.469   1.306 -0.7244  0.5843  0.2558
  767MOL0     C 3423   2.136   1.431   1.353 -0.1363 -0.5877  0.1902
  767MOL0     C 3424   2.023   1.479   1.256 -0.2109  0.1528 -0.2354
  767MOL0     C 3425   1.881   1.484   1.307 -1.0738  0.9550 -0.2575
  767MOL0     C 3426   1.821   1.345   1.314  1.1536 -0.1569 -0.0077
  767MOL0     N 3427   1.679   1.359   1.363 -0.5499  0.1125 -0.8968
  767MOL0     C 3428   1.570   1.323   1.289 -0.2811 -0.1422  0.0230
  767MOL0     C 3429   1.478   1.303   1.381 -0.0805  0.6993  0.0814
  767MOL0     C 3430   1.329   1.287   1.354  0.2954 -0.2941 -0.6921
  767MOL0     C 3431   1.248   1.207   1.463 -0.1221 -0.4495  0.4746
  767MOL0     C 3432   1.119   1.142   1.407 -0.0595  1.0601 -0.0012
  767MOL0     C 3433   1.026   1.077   1.513  1.4531 -0.2346 -0.5306
  767MOL0     O 3434   0.933   1.180   1.565  0.0602 -0.2810 -0.1892
  767MOL0     C 3435   0.802   1.178   1.515 -0.2895 -0.5124  0.2151
  767MOL0     C 3436   0.697   1.123   1.584  0.1193 -0.7457 -0.3115
  767MOL0     C 3437   0.559   1.130   1.543 -1.3259 -0.0752  0.9101
  767MOL0     C 3438   0.461   1.058   1.633 -0.9067  0.5784  1.0010
  767MOL0     C 3439   0.539   1.207   1.426 -0.0618  0.1901 -0.8505
  767MOL0     C 3440   0.398   1.220   1.379  0.6748  0.1738  0.1802
  767MOL0     O 3441   0.296   1.242   1.464 -0.0673  0.7508 -0.5653
  767MOL0     C 3442   0.169   1.246   1.418 -0.0737  0.6999 -0.2554
  767MOL0     C 3443   0.128   1.332   1.319 -0.6863 -0.5578  0.1963
  767MOL0     C 3444  -0.006   1.337   1.286 -0.2616  0.4082  0.7916
  767MOL0     C 3445  -0.097   1.248   1.340  1.0637  0.8232  0.7576
  767MOL0     O 3446  -0.232   1.264   1.307 -0.3357 -0.7368 -0.2406
  767MOL0     C 3447  -0.304   1.318   1.422  0.6265  0.8109 -0.7258
  767MOL0     C 3448  -0.379   1.444   1.388  0.2345 -0.7594  0.3794
  767MOL0     C 3449  -0.500   1.425   1.295  0.3398  0.1560 -0.4824
  767MOL0     C 3450  -0.603   1.537   1.313  0.4492 -0.6503  0.3010
  767MOL0     C 3451  -0.740   1.473   1.268 -0.8389  0.4823  0.8978
  767MOL0     C 3452  -0.867   1.567   1.270  0.4158 -1.0121  0.0743
  767MOL0     C 3453  -0.998   1.489   1.278  0.6905  0.1077 -0.1245
  767MOL0     C 3454  -1.119   1.572   1.226  0.1935 -0.1979 -0.4572
  767MOL0    Cl 3455  -1.137   1.720   1.323  0.0561  0.0718  0.1450
  767MOL0     C 3456  -0.049   1.157   1.439  0.2883 -0.0894 -0.2481
  767MOL0     C 3457   0.083   1.158   1.478 -1.1191 -0.6745  0.1225
  767MOL0     O 3458   0.384   1.216   1.252 -0.2354 -0.8484 -0.9075
  767MOL0     C 3459   0.641   1.253   1.353  0.0507 -0.2639 -0.3993
  767MOL0     C 3460   0.768   1.254   1.405 -0.1174  0.6747 -0.0790
  767MOL0     N 3461   1.530   1.327   1.507 -0.0856  0.2396  0.0693
  767MOL0     N 3462   1.652   1.357   1.496 -0.4231 -0.2992  0.0206
  767MOL0     C 3463   2.915   1.297   1.431 -0.7306 -0.0696  0.1904
  767MOL0     C 3464   3.050   1.271   1.464 -0.0056  0.1213  0.3261
  767MOL0     C 3465   3.479   1.161   1.429  0.4222 -0.4011  0.0736
  767MOL0     C 3466   3.548   1.038   1.419  0.2485 -0.1801  0.7753
  767MOL0     C 3467   3.684   1.029   1.410 -1.3977 -0.6667 -0.4118
  767MOL0     C 3468   3.760   1.150   1.425  0.3340 -0.3995  0.0041
  767MOL0     O 3469   3.897   1.153   1.390  0.4084 -0.7239 -0.1085
  767MOL0     C 3470   3.983   1.036   1.383 -0.1464 -0.2296  0.6303
  767MOL0     C 3471   4.110   1.066   1.312 -0.5011 -1.0798 -0.1277
  767MOL0     C 3472   4.202   0.946   1.287 -0.0506  0.2824  0.0706
  767MOL0     C 3473   4.211   0.854   1.402 -0.4210  0.7726  0.0035
  767MOL0     C 3474   4.325   0.765   1.390  0.5152  0.2818 -0.1569
  767MOL0     C 3475   4.418   0.687   1.378  0.2486 -0.1442  0.3355
  767MOL0     C 3476   3.700   1.273   1.436  0.8255  0.4755  0.2317
  767MOL0     C 3477   3.556   1.280   1.435  0.4919 -0.5588  0.3658
  767MOL0     H 3478   3.194   1.455   1.216 -0.1886 -0.6326 -0.0002
  767MOL0     H 3479   2.967   1.480   1.149 -0.3414  2.7429  1.3553
  767MOL0     H 3480   2.636   1.242   1.380  2.3868 -1.2267 -0.3675
  767MOL0     H 3481   2.669   1.402   1.462  0.8181 -0.9350 -0.8341
  767MOL0     H 3482   2.528   1.517   1.275  0.4744 -0.5585 -0.0192
  767MOL0     H 3483   2.501   1.358   1.209 -1.2152 -0.1678  0.4859
  767MOL0     H 3484   2.362   1.283   1.370 -3.4805 -0.0724 -1.6185
  767MOL0     H 3485   2.393   1.394   1.485  0.0095 -1.2107  0.1619
  767MOL0     H 3486   2.283   1.576   1.325  0.1228  0.5573  0.0935
  767MOL0     H 3487   2.284   1.446   1.199  1.4659  2.1108  0.0475
  767MOL0     H 3488   2.127   1.322   1.351 -1.3207 -0.4902 -1.2929
  767MOL0     H 3489   2.112   1.474   1.450 -1.1883 -2.8430  1.0218
  767MOL0     H 3490   2.056   1.582   1.241 -0.4268  0.2132 -0.2899
  767MOL0     H 3491   2.021   1.423   1.162 -3.1879  1.6561 -1.1881
  767MOL0     H 3492   1.875   1.538   1.402 -1.1591 -0.0472  0.3244
  767MOL0     H 3493   1.823   1.535   1.230 -0.5278 -1.0474 -2.0821
  767MOL0     H 3494   1.884   1.274   1.368  3.6540 -1.5747 -4.2870
  767MOL0     H 3495   1.815   1.297   1.216  1.1531 -1.3715  0.5677
  767MOL0     H 3496   1.563   1.323   1.181 -1.1227  3.8530 -0.0997
  767MOL0     H 3497   1.291   1.389   1.344  3.7721  1.0806 -1.1321
  767MOL0     H 3498   1.318   1.231   1.260 -0.0224 -1.8043  0.2221
  767MOL0     H 3499   1.217   1.281   1.538  1.1661  0.3332  0.2723
  767MOL0     H 3500   1.304   1.125   1.509 -1.0047 -1.3988 -0.1135
  767MOL0     H 3501   1.152   1.063   1.338  1.8839  1.0604  0.8653
  767MOL0     H 3502   1.058   1.210   1.348 -1.9748  0.0521  0.7314
  767MOL0     H 3503   1.079   1.034   1.599 -2.2069  0.7348  2.4568
  767MOL0     H 3504   0.962   1.002   1.467 -0.8461  0.6966  0.9671
  767MOL0     H 3505   0.727   1.077   1.678 -2.1378 -0.1480  0.7768
  767MOL0     H 3506   0.519   0.994   1.701  3.0941 -1.9893 -4.1272
  767MOL0     H 3507   0.404   1.125   1.698 -0.3203  0.1726  1.9590
  767MOL0     H 3508   0.386   0.998   1.581 -1.6141  1.1966  1.2810
  767MOL0     H 3509   0.193   1.403   1.270 -0.3946 -0.5466  0.5973
  767MOL0     H 3510  -0.037   1.388   1.195 -2.0957 -1.9529 -0.0118
  767MOL0     H 3511  -0.377   1.238   1.439  0.8458  0.4053 -1.6138
  767MOL0     H 3512  -0.242   1.334   1.511 -1.1967  1.2605  0.5219
  767MOL0     H 3513  -0.413   1.487   1.483  1.2471  2.9751 -0.7889
  767MOL0     H 3514  -0.306   1.508   1.338  1.1336 -1.5737  0.6320
  767MOL0     H 3515  -0.545   1.326   1.309 -2.2682  1.2875 -0.3611
  767MOL0     H 3516  -0.472   1.425   1.189  0.4758  0.5393 -0.4479
  767MOL0     H 3517  -0.612   1.559   1.420  1.8531 -3.0767  0.9816
  767MOL0     H 3518  -0.577   1.621   1.249  2.6472 -0.3074  1.5373
  767MOL0     H 3519  -0.757   1.387   1.333 -1.0744 -0.7864 -0.7923
  767MOL0     H 3520  -0.730   1.437   1.166 -0.7595 -0.1490  1.1251
  767MOL0     H 3521  -0.856   1.636   1.355 -0.6778 -0.7331  0.0069
  767MOL0     H 3522  -0.870   1.632   1.182  0.1232 -1.6080 -0.3614
  767MOL0     H 3523  -1.011   1.464   1.383  1.8583 -1.0932 -0.2565
  767MOL0     H 3524  -0.995   1.391   1.229  0.5395 -0.9617  1.9129
  767MOL0     H 3525  -1.210   1.526   1.264  0.9611  0.1213  1.9178
  767MOL0     H 3526  -1.124   1.586   1.118 -3.0444  0.5869 -0.2925
  767MOL0     H 3527  -0.122   1.090   1.485 -1.0190  0.6470 -1.1602
  767MOL0     H 3528   0.117   1.092   1.557 -1.6817 -0.4562  0.5578
  767MOL0     H 3529   0.632   1.299   1.256  0.1018  1.2051  0.2622
  767MOL0     H 3530   0.843   1.310   1.350  0.8044  2.3137  2.6452
  767MOL0     H 3531   2.842   1.266   1.505 -1.9366  0.9197 -0.5383
  767MOL0     H 3532   3.073   1.201   1.544 -1.6093 -0.7530  0.0660
  767MOL0     H 3533   3.508   0.938   1.414 -0.6112  0.1969 -2.3707
  767MOL0     H 3534   3.726   0.929   1.404 -0.7212 -0.4244  0.1465
  767MOL0     H 3535   4.009   0.999   1.483  0.3845 -1.1025  0.1791
  767MOL0     H 3536   3.928   0.952   1.339 -0.6277  0.1920  0.4092
  767MOL0     H 3537   4.168   1.143   1.363 -2.1270  0.8607 -1.0612
  767MOL0     H 3538   4.074   1.108   1.218  0.2058 -3.6425 -1.6294
  767MOL0     H 3539   4.304   0.983   1.274 -0.1302  1.0053  1.3073
  767MOL0     H 3540   4.167   0.885   1.203  1.2656  1.6141 -1.5235
  767MOL0     H 3541   4.125   0.788   1.419  1.5794 -2.2133 -0.8927
  767MOL0     H 3542   4.224   0.910   1.495 -0.8175 -1.8217  1.7269
  767MOL0     H 3543   4.503   0.622   1.370  0.0623 -0.2641 -0.7038
  767MOL0     H 3544   3.752   1.368   1.427 -0.9995  1.3508 -3.0835
  767MOL0     H 3545   3.517   1.380   1.454  0.6810 -0.5266  0.5850
  768MOL0     O 3546   6.583   8.358   0.328  0.1351 -0.4421 -0.7396
  768MOL0     C 3547   6.605   8.324   0.440 -1.2044 -0.0313  0.2667
  768MOL0     O 3548   6.543   8.225   0.511  0.5421 -0.6264 -0.2957
  768MOL0     C 3549   6.415   8.196   0.470  0.5238 -0.3375  0.6964
  768MOL0     C 3550   6.380   8.062   0.426  0.0924  0.3770  0.0060
  768MOL0     C 3551   6.250   8.034   0.382  0.8007  0.1063 -0.3726
  768MOL0     C 3552   6.149   8.133   0.357 -0.9700 -0.0902  0.2853
  768MOL0     O 3553   6.034   8.097   0.298 -0.0754 -0.0087 -0.7602
  768MOL0     C 3554   5.925   8.179   0.335  0.0284  0.3667  0.0774
  768MOL0     C 3555   5.879   8.178   0.482  0.0573 -0.1107  0.6170
  768MOL0     C 3556   5.750   8.261   0.503 -0.4732 -0.2970 -0.1749
  768MOL0     C 3557   5.701   8.255   0.645  0.7383 -0.6803 -0.0924
  768MOL0     C 3558   5.564   8.327   0.669 -0.1588 -0.1326 -0.7421
  768MOL0     C 3559   5.462   8.222   0.641  0.7493 -0.0921  0.3891
  768MOL0     C 3560   5.340   8.298   0.579  0.2975 -0.1643 -0.1044
  768MOL0     C 3561   5.236   8.343   0.682  0.0103 -0.3021 -0.1233
  768MOL0     N 3562   5.279   8.463   0.759  0.0638  0.6785  0.1305
  768MOL0     C 3563   5.307   8.586   0.711  0.4099 -1.2180 -0.4340
  768MOL0     C 3564   5.335   8.663   0.827 -0.0446  0.8783 -0.2782
  768MOL0     C 3565   5.357   8.810   0.838 -0.0889 -0.4746  0.2690
  768MOL0     C 3566   5.235   8.893   0.800 -0.2884  0.1973 -0.3680
  768MOL0     C 3567   5.111   8.863   0.893 -0.7234  0.3298 -0.6101
  768MOL0     C 3568   4.992   8.958   0.878 -0.1149  0.2231  0.5494
  768MOL0     O 3569   4.947   8.934   0.739 -0.0165  0.2597 -0.9412
  768MOL0     C 3570   4.862   8.827   0.717  0.5370 -0.0113 -0.0769
  768MOL0     C 3571   4.877   8.756   0.611 -0.3401  0.3139  0.0987
  768MOL0     C 3572   4.772   8.664   0.564  0.4770 -0.2019  0.4242
  768MOL0     C 3573   4.806   8.577   0.444  0.1403 -0.2593 -0.2252
  768MOL0     C 3574   4.644   8.657   0.635  0.5630 -0.3641  0.0512
  768MOL0     C 3575   4.525   8.581   0.582 -0.0219  0.2001 -0.2177
  768MOL0     O 3576   4.404   8.589   0.650 -0.7154 -0.2203 -0.3310
  768MOL0     C 3577   4.291   8.578   0.574 -0.2997  0.2869  0.5973
  768MOL0     C 3578   4.211   8.688   0.563 -0.5334 -0.8639 -0.9761
  768MOL0     C 3579   4.095   8.679   0.482  0.1025  0.8961 -0.2303
  768MOL0     C 3580   4.057   8.577   0.409 -0.2812  0.1697  0.9446
  768MOL0     O 3581   3.957   8.589   0.325 -0.3744 -0.3609 -0.4547
  768MOL0     C 3582   3.919   8.494   0.238  0.2586  1.4687  0.4459
  768MOL0     C 3583   3.822   8.554   0.137 -0.3281 -0.4788 -0.1671
  768MOL0     C 3584   3.790   8.456   0.025  0.3870  0.3063  0.2326
  768MOL0     C 3585   3.682   8.534  -0.063  0.5771 -0.0771 -0.2379
  768MOL0     C 3586   3.617   8.448  -0.167  0.0507  0.8268 -0.2819
  768MOL0     C 3587   3.541   8.531  -0.279 -0.1868  0.7120 -0.2981
  768MOL0     C 3588   3.412   8.459  -0.304 -0.6061 -0.1678  0.1521
  768MOL0     C 3589   3.342   8.517  -0.430 -1.2860  0.5417 -0.1005
  768MOL0    Cl 3590   3.257   8.670  -0.390 -0.2622 -0.0634  0.7162
  768MOL0     C 3591   4.147   8.470   0.414 -0.1051 -0.2104 -1.0205
  768MOL0     C 3592   4.260   8.471   0.502  0.2679  0.2964  1.4264
  768MOL0     O 3593   4.542   8.495   0.500  0.0994  0.4039  1.1887
  768MOL0     C 3594   4.631   8.733   0.752  0.0488 -0.6561 -0.1017
  768MOL0     C 3595   4.741   8.818   0.791  0.1594 -0.3954  0.3862
  768MOL0     N 3596   5.327   8.578   0.938 -0.8252  0.0168 -0.5213
  768MOL0     N 3597   5.299   8.460   0.891  0.7608  0.3157 -0.2589
  768MOL0     C 3598   6.189   8.262   0.407  0.6588  0.4487  0.1045
  768MOL0     C 3599   6.312   8.292   0.468 -0.0710 -0.1526  0.8231
  768MOL0     C 3600   6.727   8.381   0.513 -0.3116 -0.0961  0.7207
  768MOL0     C 3601   6.814   8.465   0.440 -0.3246 -0.5826 -0.7717
  768MOL0     C 3602   6.927   8.519   0.500 -0.1614 -0.7805  0.4745
  768MOL0     C 3603   6.968   8.479   0.626 -0.6807  1.0303 -0.5249
  768MOL0     O 3604   7.095   8.518   0.667  0.3243 -0.0685 -0.4747
  768MOL0     C 3605   7.167   8.442   0.765  0.7350  0.3374 -0.4048
  768MOL0     C 3606   7.317   8.487   0.778 -0.2653  0.5981  0.2159
  768MOL0     C 3607   7.399   8.453   0.652  0.8977  0.8882  0.9926
  768MOL0     C 3608   7.548   8.419   0.685 -0.2380  0.6655  0.0424
  768MOL0     C 3609   7.563   8.282   0.735 -0.0860 -0.1716  0.3382
  768MOL0     C 3610   7.567   8.163   0.750 -0.2926  0.0753 -0.6817
  768MOL0     C 3611   6.874   8.406   0.704  0.4395 -0.3860  0.0379
  768MOL0     C 3612   6.756   8.355   0.648  0.8439 -0.0835 -0.2844
  768MOL0     H 3613   6.454   7.983   0.439 -0.6963 -0.2447  0.8414
  768MOL0     H 3614   6.228   7.930   0.357  0.8200 -0.4842  1.8422
  768MOL0     H 3615   5.940   8.277   0.288 -2.1452 -1.1083 -4.2850
  768MOL0     H 3616   5.840   8.140   0.277  0.8508  0.6396 -1.3663
  768MOL0     H 3617   5.859   8.073   0.506  4.4904 -0.8400  1.9149
  768MOL0     H 3618   5.956   8.213   0.550 -0.4512  1.1202  0.5964
  768MOL0     H 3619   5.774   8.361   0.465  1.7513 -1.0427 -0.8815
  768MOL0     H 3620   5.672   8.220   0.437  1.2413  0.1425 -2.5996
  768MOL0     H 3621   5.682   8.154   0.680  0.7056 -0.2950  1.0310
  768MOL0     H 3622   5.768   8.306   0.714  1.1963  1.2014 -1.8052
  768MOL0     H 3623   5.546   8.357   0.773  1.6283 -0.0799 -0.4278
  768MOL0     H 3624   5.558   8.415   0.605 -1.2642  1.8498  1.8836
  768MOL0     H 3625   5.501   8.153   0.566  1.5564 -2.1483  2.5716
  768MOL0     H 3626   5.426   8.165   0.728 -2.8383  0.7351 -0.3782
  768MOL0     H 3627   5.358   8.391   0.525  3.5652  1.6372  3.5582
  768MOL0     H 3628   5.278   8.231   0.518  1.0231  0.7120 -1.8663
  768MOL0     H 3629   5.206   8.266   0.753 -1.5872 -0.9370 -1.4160
  768MOL0     H 3630   5.150   8.363   0.617 -0.5408  1.0427  0.9630
  768MOL0     H 3631   5.325   8.628   0.613  0.1719  2.7517  1.0444
  768MOL0     H 3632   5.385   8.850   0.936  1.5267  0.8175 -0.6634
  768MOL0     H 3633   5.441   8.832   0.772 -1.5555 -1.9775 -2.2850
  768MOL0     H 3634   5.200   8.862   0.701  1.7162  0.8950 -1.3401
  768MOL0     H 3635   5.245   9.002   0.796 -0.4801  0.2867  1.2139
  768MOL0     H 3636   5.154   8.881   0.992  0.3972 -1.4816 -0.7275
  768MOL0     H 3637   5.081   8.758   0.894 -0.6469  0.2991 -1.1835
  768MOL0     H 3638   5.020   9.063   0.875 -1.1687  0.5099  0.1461
  768MOL0     H 3639   4.915   8.942   0.954 -2.3790 -3.4614 -2.1534
  768MOL0     H 3640   4.971   8.766   0.557 -0.9755 -1.8280 -1.5564
  768MOL0     H 3641   4.915   8.579   0.434  0.1068  0.3396 -0.4916
  768MOL0     H 3642   4.798   8.470   0.464 -0.4322 -0.1762  0.0067
  768MOL0     H 3643   4.764   8.621   0.353 -0.0127  2.8187  1.1920
  768MOL0     H 3644   4.245   8.774   0.620  3.4098 -3.0451  0.4239
  768MOL0     H 3645   4.048   8.776   0.471 -0.3040  0.7512  0.1830
  768MOL0     H 3646   4.009   8.458   0.187 -0.9672 -0.5716 -0.3601
  768MOL0     H 3647   3.865   8.411   0.283  2.8425 -1.2881 -1.1990
  768MOL0     H 3648   3.731   8.587   0.187 -1.5973 -1.0750 -1.9967
  768MOL0     H 3649   3.862   8.649   0.098 -0.3914 -0.3365  0.1114
  768MOL0     H 3650   3.745   8.364   0.063 -0.8127  0.6112 -0.4008
  768MOL0     H 3651   3.884   8.437  -0.029 -0.5385 -1.3267 -0.9081
  768MOL0     H 3652   3.606   8.577   0.002  1.3453 -2.9368  2.8158
  768MOL0     H 3653   3.732   8.612  -0.122 -2.3955  1.0323 -1.4705
  768MOL0     H 3654   3.541   8.382  -0.124  0.9441 -0.0721 -0.0386
  768MOL0     H 3655   3.689   8.380  -0.214 -2.7776 -1.7859 -1.1267
  768MOL0     H 3656   3.511   8.629  -0.241 -0.0805  0.6727 -0.1098
  768MOL0     H 3657   3.587   8.550  -0.376 -0.3388 -1.7759 -0.9295
  768MOL0     H 3658   3.335   8.477  -0.229  0.2980  2.8565  0.4610
  768MOL0     H 3659   3.433   8.351  -0.309  1.6314  0.2010  0.5442
  768MOL0     H 3660   3.263   8.450  -0.466 -2.2814  1.0652  1.0145
  768MOL0     H 3661   3.418   8.517  -0.508 -1.3590  0.3564 -0.1722
  768MOL0     H 3662   4.122   8.380   0.358  0.0771 -0.3695 -0.8524
  768MOL0     H 3663   4.327   8.386   0.499  1.2164  1.0515  0.7338
  768MOL0     H 3664   4.534   8.744   0.800 -0.9657 -1.7242 -1.8015
  768MOL0     H 3665   4.727   8.895   0.867 -1.2358 -1.3834  1.1928
  768MOL0     H 3666   6.123   8.348   0.410 -1.0056 -0.7273  3.6985
  768MOL0     H 3667   6.329   8.394   0.502  0.8600  0.6294 -1.7688
  768MOL0     H 3668   6.793   8.491   0.337 -1.3595  0.1939 -0.3869
  768MOL0     H 3669   6.986   8.591   0.444 -2.9636  1.4205  0.1188
  768MOL0     H 3670   7.117   8.447   0.863 -2.5619 -3.6853 -1.5711
  768MOL0     H 3671   7.166   8.334   0.746 -1.1492  0.2023  0.1893
  768MOL0     H 3672   7.363   8.439   0.865 -2.0694 -3.9252 -1.0466
  768MOL0     H 3673   7.313   8.596   0.783 -1.0370  0.5841 -0.0330
  768MOL0     H 3674   7.394   8.533   0.578 -1.2847 -2.5312 -2.9826
  768MOL0     H 3675   7.351   8.369   0.601 -0.7978  1.0528  2.2069
  768MOL0     H 3676   7.584   8.501   0.747  2.1702  1.7208 -2.5042
  768MOL0     H 3677   7.598   8.429   0.588 -0.0560  1.9370  0.2495
  768MOL0     H 3678   7.567   8.057   0.761 -0.4473  0.2607  1.4534
  768MOL0     H 3679   6.905   8.371   0.802  0.4086  0.7198  0.4584
  768MOL0     H 3680   6.698   8.293   0.715  1.1044 -1.5379 -1.3256
  769MOL0     O 3681   1.904   6.784   5.794 -1.3393 -0.0907  0.2637
  769MOL0     C 3682   1.950   6.875   5.861 -0.0655  0.6486  0.0909
  769MOL0     O 3683   1.886   6.946   5.957  0.4766  0.4235 -0.0429
  769MOL0     C 3684   1.764   6.894   5.997  0.8117  0.4166  0.7761
  769MOL0     C 3685   1.650   6.958   5.954  0.0837  0.7916  1.2887
  769MOL0     C 3686   1.521   6.914   5.995  0.1758  0.5348 -0.3070
  769MOL0     C 3687   1.508   6.793   6.065  1.1335 -0.4869 -0.1384
  769MOL0     O 3688   1.383   6.738   6.097  0.1374 -0.7102 -0.3849
  769MOL0     C 3689   1.276   6.754   5.998  0.3855 -0.3561  0.0611
  769MOL0     C 3690   1.154   6.689   6.062  0.2512  0.0023 -0.5304
  769MOL0     C 3691   1.183   6.546   6.093  0.4167  1.0945  0.6315
  769MOL0     C 3692   1.057   6.469   6.132  0.4236 -0.3928 -0.0926
  769MOL0     C 3693   1.038   6.502   6.283  0.4201  0.5253  1.1162
  769MOL0     C 3694   0.909   6.434   6.334  0.0498  0.1400  0.0229
  769MOL0     C 3695   0.882   6.473   6.477 -0.3826  0.0235  0.0871
  769MOL0     C 3696   0.976   6.389   6.569  0.2217 -1.0519  0.4735
  769MOL0     N 3697   0.914   6.266   6.610  0.1586  0.1879 -0.2528
  769MOL0     C 3698   0.857   6.246   6.734  0.1993  0.7414  0.0709
  769MOL0     C 3699   0.801   6.128   6.727  0.6938  0.1313  0.0300
  769MOL0     C 3700   0.716   6.072   6.839  0.2078 -0.4558  0.0639
  769MOL0     C 3701   0.760   5.933   6.868  0.3122  0.5734  0.1616
  769MOL0     C 3702   0.680   5.864   6.980  0.6893 -0.8893  0.2419
  769MOL0     C 3703   0.538   5.818   6.944 -0.4065 -0.0106  0.2585
  769MOL0     O 3704   0.442   5.929   6.948  0.6395  0.7555 -0.1762
  769MOL0     C 3705   0.303   5.910   6.946 -1.1157  0.3271  0.1182
  769MOL0     C 3706   0.221   6.023   6.973  0.0200 -0.0303 -0.1263
  769MOL0     C 3707   0.079   6.008   6.977  0.1963 -0.8257 -0.8300
  769MOL0     C 3708   0.012   6.141   7.000 -0.0472 -0.4325 -0.2665
  769MOL0     C 3709   0.017   5.887   6.958 -0.6019 -0.6055 -0.1184
  769MOL0     C 3710  -0.130   5.866   6.941  0.0182 -0.5943 -0.1062
  769MOL0     O 3711  -0.163   5.752   6.875  0.5429 -0.1811  0.3504
  769MOL0     C 3712  -0.296   5.721   6.867 -0.1212  0.5873  0.0923
  769MOL0     C 3713  -0.366   5.650   6.959 -0.4270  0.7148  0.6205
  769MOL0     C 3714  -0.502   5.632   6.946 -0.2939 -0.4326  0.8504
  769MOL0     C 3715  -0.564   5.690   6.839  0.8241 -0.8308 -0.5887
  769MOL0     O 3716  -0.699   5.674   6.821  0.6896 -0.4161 -0.1133
  769MOL0     C 3717  -0.775   5.797   6.834 -0.6031  0.0434 -0.6538
  769MOL0     C 3718  -0.926   5.778   6.809 -1.0621  0.2850  0.6878
  769MOL0     C 3719  -0.963   5.741   6.662  0.1566 -0.1324  0.4724
  769MOL0     C 3720  -1.110   5.753   6.645 -0.3887  0.7248 -0.6747
  769MOL0     C 3721  -1.203   5.653   6.726 -0.1517 -0.4349  0.3367
  769MOL0     C 3722  -1.348   5.704   6.722  1.1433  0.4555 -0.1884
  769MOL0     C 3723  -1.444   5.594   6.776  0.5853 -0.2877  0.0506
  769MOL0     C 3724  -1.449   5.578   6.926  0.3111 -1.1073  0.3848
  769MOL0    Cl 3725  -1.531   5.730   6.985  0.2219  0.1941 -0.2971
  769MOL0     C 3726  -0.498   5.749   6.733 -1.1931 -0.0335 -0.3052
  769MOL0     C 3727  -0.356   5.759   6.750  0.8373  0.7989  0.8813
  769MOL0     O 3728  -0.205   5.951   6.982  0.2836 -0.0434 -0.5174
  769MOL0     C 3729   0.097   5.777   6.936  0.0691  0.0834 -0.0579
  769MOL0     C 3730   0.235   5.787   6.930  0.1136  0.8253 -0.3827
  769MOL0     N 3731   0.803   6.084   6.589 -0.0695 -0.8545 -0.2853
  769MOL0     N 3732   0.878   6.168   6.525  0.1812 -0.4740 -0.2257
  769MOL0     C 3733   1.618   6.726   6.105 -0.6031  0.3133  0.3007
  769MOL0     C 3734   1.749   6.785   6.082  0.0062 -0.4327  0.5507
  769MOL0     C 3735   2.091   6.914   5.847 -0.2003  0.3763  0.5411
  769MOL0     C 3736   2.190   6.829   5.785  0.4700  0.7467 -0.1285
  769MOL0     C 3737   2.323   6.875   5.776 -0.2668  0.2633  0.0310
  769MOL0     C 3738   2.363   6.988   5.830 -1.1471  0.0466  0.5722
  769MOL0     O 3739   2.495   7.006   5.802 -0.1496 -0.0138  0.1674
  769MOL0     C 3740   2.558   7.126   5.844  0.6234 -0.5845 -0.2911
  769MOL0     C 3741   2.694   7.133   5.768 -0.8010 -0.0926 -0.9074
  769MOL0     C 3742   2.787   7.228   5.836 -0.4328 -0.3994  0.6006
  769MOL0     C 3743   2.934   7.223   5.787  0.3977 -0.6751 -0.2310
  769MOL0     C 3744   2.987   7.356   5.801  0.0733  0.2473  0.2022
  769MOL0     C 3745   3.029   7.466   5.827  0.7115 -0.4753  0.5906
  769MOL0     C 3746   2.274   7.072   5.893 -0.7089  0.0594  0.1895
  769MOL0     C 3747   2.138   7.038   5.899  0.3497  0.2950  0.1288
  769MOL0     H 3748   1.658   7.041   5.885 -0.3386  0.0035  0.2613
  769MOL0     H 3749   1.441   6.973   5.951  1.4644  2.5597 -0.0400
  769MOL0     H 3750   1.250   6.854   5.960 -0.1539 -0.3966  0.3150
  769MOL0     H 3751   1.304   6.691   5.914 -3.1340 -1.9837 -0.0717
  769MOL0     H 3752   1.130   6.736   6.158 -0.6738 -3.7042  1.2131
  769MOL0     H 3753   1.073   6.704   5.990  2.1115  0.5794 -2.6168
  769MOL0     H 3754   1.235   6.496   6.011  0.8054  0.0500  1.5009
  769MOL0     H 3755   1.260   6.546   6.171 -0.1051 -0.0051  1.1670
  769MOL0     H 3756   0.969   6.495   6.073  0.7904 -1.0545 -0.9538
  769MOL0     H 3757   1.078   6.362   6.121 -1.4967 -1.2886  3.3687
  769MOL0     H 3758   1.122   6.461   6.340  0.9585 -0.4969 -0.3512
  769MOL0     H 3759   1.038   6.610   6.297  1.3380  0.8024 -0.6534
  769MOL0     H 3760   0.822   6.463   6.275  1.1859  2.4798 -0.5949
  769MOL0     H 3761   0.917   6.325   6.333 -0.3295  0.1100  0.0875
  769MOL0     H 3762   0.901   6.578   6.499  0.4497  0.5737 -2.8822
  769MOL0     H 3763   0.776   6.457   6.501  0.0764 -0.9129  1.7148
  769MOL0     H 3764   1.007   6.427   6.667 -1.4062 -4.0106  2.2766
  769MOL0     H 3765   1.071   6.363   6.521  1.4142 -0.4183  2.3763
  769MOL0     H 3766   0.852   6.312   6.820  0.0316  0.1687  0.4991
  769MOL0     H 3767   0.714   6.139   6.926 -3.8349  1.3631 -1.2101
  769MOL0     H 3768   0.612   6.070   6.808 -0.1266  3.6933  0.3253
  769MOL0     H 3769   0.868   5.929   6.885  0.1877  0.9175  1.0867
  769MOL0     H 3770   0.742   5.875   6.776 -2.0183 -0.2948  1.0808
  769MOL0     H 3771   0.677   5.931   7.066  0.0901  0.2881 -0.6845
  769MOL0     H 3772   0.728   5.770   7.010  1.2079  0.0382  2.5596
  769MOL0     H 3773   0.514   5.738   7.015  2.4541 -1.7261 -0.5417
  769MOL0     H 3774   0.540   5.770   6.846  2.7865 -0.6759  0.5231
  769MOL0     H 3775   0.267   6.121   6.971  0.6431 -0.3064  0.3840
  769MOL0     H 3776  -0.050   6.154   6.911 -0.2425  0.0576 -0.0645
  769MOL0     H 3777  -0.053   6.138   7.088  0.9402  2.2288  0.6607
  769MOL0     H 3778   0.072   6.230   7.022  0.1246 -0.6288  0.0699
  769MOL0     H 3779  -0.310   5.615   7.045 -1.5238  1.4405  1.6589
  769MOL0     H 3780  -0.566   5.584   7.019 -0.0083 -0.7744  0.8786
  769MOL0     H 3781  -0.770   5.851   6.929 -1.6655 -1.2884  0.2008
  769MOL0     H 3782  -0.733   5.864   6.758  1.9975 -1.9201 -1.0657
  769MOL0     H 3783  -0.959   5.703   6.881  2.4296 -1.9725  0.1613
  769MOL0     H 3784  -0.990   5.865   6.830 -0.5793  0.7823  0.1616
  769MOL0     H 3785  -0.924   5.642   6.636  0.6121  0.5820 -1.7531
  769MOL0     H 3786  -0.920   5.817   6.597 -0.8237  0.0391  0.0059
  769MOL0     H 3787  -1.150   5.852   6.669  0.8373  1.4830 -1.6497
  769MOL0     H 3788  -1.142   5.732   6.542 -2.4001  4.2495 -0.9403
  769MOL0     H 3789  -1.167   5.655   6.830  4.3363  0.1856 -0.9982
  769MOL0     H 3790  -1.177   5.552   6.694  0.0579 -0.3433  0.2164
  769MOL0     H 3791  -1.366   5.797   6.777 -1.7500  1.8090 -3.1077
  769MOL0     H 3792  -1.376   5.724   6.619 -4.8558 -3.2921  0.2558
  769MOL0     H 3793  -1.426   5.504   6.718  0.5416  0.5708 -1.3482
  769MOL0     H 3794  -1.545   5.633   6.759  0.8786  1.0465  1.1107
  769MOL0     H 3795  -1.349   5.567   6.969  0.3467 -0.0062  0.6065
  769MOL0     H 3796  -1.520   5.499   6.953  0.0489 -0.7154  0.8715
  769MOL0     H 3797  -0.547   5.791   6.646 -1.3981 -0.7881 -0.5589
  769MOL0     H 3798  -0.296   5.805   6.672 -1.0649  2.6826  0.4485
  769MOL0     H 3799   0.049   5.681   6.919  0.1937  0.0775 -0.4015
  769MOL0     H 3800   0.287   5.692   6.922 -1.7161 -0.3561  0.9677
  769MOL0     H 3801   1.599   6.638   6.166 -0.3938  1.3682  1.9400
  769MOL0     H 3802   1.827   6.730   6.133 -1.5881 -1.8264  1.5854
  769MOL0     H 3803   2.156   6.731   5.752  1.2393  0.9690 -1.6512
  769MOL0     H 3804   2.394   6.814   5.721  0.6071  1.4854 -0.2326
  769MOL0     H 3805   2.507   7.220   5.821  1.5564  0.9305  3.2544
  769MOL0     H 3806   2.572   7.112   5.951 -0.7318  1.1470  0.1522
  769MOL0     H 3807   2.677   7.155   5.662  1.6078  1.0745 -1.1078
  769MOL0     H 3808   2.744   7.036   5.778 -2.6777 -1.1512 -1.3043
  769MOL0     H 3809   2.777   7.224   5.945 -0.9409 -2.1512  0.5278
  769MOL0     H 3810   2.744   7.327   5.821 -0.6003 -0.3913  1.1082
  769MOL0     H 3811   2.934   7.192   5.682 -4.0543 -0.0596 -0.6064
  769MOL0     H 3812   2.999   7.154   5.842  0.7309  0.8873  1.4160
  769MOL0     H 3813   3.056   7.562   5.868 -0.1149 -0.9428  2.3082
  769MOL0     H 3814   2.328   7.160   5.929 -0.1707 -1.1814  2.6299
  769MOL0     H 3815   2.073   7.103   5.956 -1.1108 -1.6761  0.7966
  770MOL0     O 3816   8.124   2.332   9.605  0.5289 -0.4130 -0.8921
  770MOL0     C 3817   8.189   2.408   9.670 -0.2213 -0.0079  0.2081
  770MOL0     O 3818   8.155   2.546   9.692 -0.2573  0.5649  0.3243
  770MOL0     C 3819   8.059   2.624   9.634 -0.1436 -0.2129 -0.3852
  770MOL0     C 3820   7.956   2.579   9.551  0.2484 -0.9688  0.1814
  770MOL0     C 3821   7.857   2.667   9.516 -0.6963 -0.0931  0.0723
  770MOL0     C 3822   7.858   2.799   9.564  0.4485 -0.4770 -0.0215
  770MOL0     O 3823   7.767   2.890   9.528  0.7147  0.6334  0.0995
  770MOL0     C 3824   7.666   2.847   9.435 -0.3703  0.6714 -0.3538
  770MOL0     C 3825   7.577   2.958   9.397 -0.3167 -1.0606 -1.1201
  770MOL0     C 3826   7.479   2.939   9.282 -0.0814 -0.6525 -0.7224
  770MOL0     C 3827   7.387   3.059   9.259  1.1562 -1.0710 -0.0589
  770MOL0     C 3828   7.274   3.087   9.362  0.2272 -0.2502 -0.1905
  770MOL0     C 3829   7.160   3.191   9.300 -1.0879  0.5232  0.0751
  770MOL0     C 3830   7.046   3.184   9.393 -0.7334 -1.0760  0.2309
  770MOL0     C 3831   6.949   3.294   9.346 -0.3870 -0.2291  0.1501
  770MOL0     N 3832   6.814   3.273   9.384 -0.0887 -0.3459  0.2250
  770MOL0     C 3833   6.782   3.221   9.509  0.3496 -0.0605 -0.1757
  770MOL0     C 3834   6.645   3.201   9.496 -0.0569 -0.0371 -1.2570
  770MOL0     C 3835   6.555   3.143   9.603 -0.2781 -0.1280  0.5553
  770MOL0     C 3836   6.425   3.220   9.635  0.9248 -1.1969  0.0768
  770MOL0     C 3837   6.317   3.223   9.519  0.7166  0.0803 -0.2811
  770MOL0     C 3838   6.196   3.305   9.545 -0.4722 -0.7665 -0.0555
  770MOL0     O 3839   6.133   3.269   9.661 -0.0045  0.2510  0.1108
  770MOL0     C 3840   6.003   3.325   9.688  0.5520  0.1392  0.2650
  770MOL0     C 3841   5.945   3.434   9.621 -0.2543  0.2369  0.4395
  770MOL0     C 3842   5.814   3.474   9.653 -0.3038 -1.2642 -0.1796
  770MOL0     C 3843   5.769   3.593   9.564 -0.2543 -0.5555  0.5911
  770MOL0     C 3844   5.739   3.404   9.749 -0.2468  0.0846 -0.8881
  770MOL0     C 3845   5.607   3.446   9.782 -0.5508 -0.2601  0.0837
  770MOL0     O 3846   5.588   3.582   9.799  0.2674  0.5522  0.2846
  770MOL0     C 3847   5.468   3.628   9.840 -0.1638  0.7062  0.0912
  770MOL0     C 3848   5.450   3.637   9.975 -0.2044  0.3946 -0.2324
  770MOL0     C 3849   5.329   3.675  10.038 -0.5278 -0.2776  1.1207
  770MOL0     C 3850   5.212   3.695   9.953 -0.6771  0.6404 -0.1185
  770MOL0     O 3851   5.093   3.727  10.014 -0.3723  0.5760  0.0738
  770MOL0     C 3852   4.970   3.733   9.939  1.0507  0.7427 -0.3879
  770MOL0     C 3853   4.857   3.735  10.050  0.3999  0.1929  0.0532
  770MOL0     C 3854   4.865   3.837  10.158  0.4977  0.3920  0.4741
  770MOL0     C 3855   4.748   3.811  10.257  0.0808 -0.3817 -0.4407
  770MOL0     C 3856   4.771   3.896  10.379  0.1263  0.0040 -0.0630
  770MOL0     C 3857   4.645   3.880  10.477  0.6609  0.3841 -0.0482
  770MOL0     C 3858   4.600   3.743  10.523  0.2717 -0.3206  0.0514
  770MOL0     C 3859   4.495   3.740  10.638 -0.3053  0.4413 -0.7598
  770MOL0    Cl 3860   4.333   3.764  10.572 -0.6575 -0.0136  0.9335
  770MOL0     C 3861   5.232   3.676   9.813 -0.0154 -0.3109 -0.7874
  770MOL0     C 3862   5.353   3.641   9.760  0.2239  0.1154  0.2744
  770MOL0     O 3863   5.518   3.357   9.791  0.5216 -0.2048 -0.0202
  770MOL0     C 3864   5.793   3.304   9.827  0.0806  1.0055 -0.3221
  770MOL0     C 3865   5.928   3.269   9.795  0.0617 -0.2095  0.4202
  770MOL0     N 3866   6.600   3.241   9.377  0.7591  0.1620  0.0940
  770MOL0     N 3867   6.701   3.285   9.310 -0.7974 -0.3902 -0.8071
  770MOL0     C 3868   7.964   2.850   9.642  0.7479 -0.2413  0.0459
  770MOL0     C 3869   8.064   2.765   9.675 -0.0491  1.0706 -0.2923
  770MOL0     C 3870   8.322   2.355   9.716  0.0163 -0.5969 -0.7013
  770MOL0     C 3871   8.356   2.219   9.720  0.5759 -0.0893 -0.1026
  770MOL0     C 3872   8.481   2.183   9.769  0.5777 -0.1190 -0.0156
  770MOL0     C 3873   8.581   2.276   9.816 -0.0199  0.0359 -0.0882
  770MOL0     O 3874   8.704   2.246   9.862 -1.4022 -0.2240 -0.4799
  770MOL0     C 3875   8.737   2.109   9.860  0.0011 -0.3973  1.0513
  770MOL0     C 3876   8.872   2.104   9.925  0.6265  0.1647 -0.3344
  770MOL0     C 3877   8.868   2.116  10.085  0.2775 -0.5171  0.1563
  770MOL0     C 3878   8.820   1.994  10.169  0.4833 -0.2637  0.5653
  770MOL0     C 3879   8.890   1.877  10.118  0.2901 -0.0895 -0.4666
  770MOL0     C 3880   8.942   1.774  10.065  0.1785  0.7617 -1.0551
  770MOL0     C 3881   8.535   2.409   9.822  0.1705  0.2377  0.4720
  770MOL0     C 3882   8.417   2.446   9.767 -0.0736  0.2707 -0.2539
  770MOL0     H 3883   7.947   2.477   9.514  1.0881 -0.6521 -0.9278
  770MOL0     H 3884   7.776   2.633   9.453 -2.8628  0.3339  2.4788
  770MOL0     H 3885   7.708   2.804   9.343  0.4687  1.4524 -0.3510
  770MOL0     H 3886   7.605   2.771   9.484 -3.1851  3.5607  0.9640
  770MOL0     H 3887   7.524   2.995   9.485 -0.1585  0.1235 -1.5000
  770MOL0     H 3888   7.629   3.048   9.363 -3.8717  1.5558 -0.1478
  770MOL0     H 3889   7.543   2.929   9.195  0.8583 -0.1475 -0.1069
  770MOL0     H 3890   7.424   2.848   9.307 -0.8850  0.4720  2.0648
  770MOL0     H 3891   7.446   3.150   9.242 -2.8891  2.0283  0.7194
  770MOL0     H 3892   7.338   3.041   9.163 -0.2155 -1.1507  0.6290
  770MOL0     H 3893   7.223   2.995   9.393 -2.4582  0.9924 -0.6399
  770MOL0     H 3894   7.320   3.134   9.449 -0.6980  1.5973 -0.6680
  770MOL0     H 3895   7.201   3.292   9.300 -0.6084  0.3337  0.5851
  770MOL0     H 3896   7.132   3.162   9.198 -1.1819 -0.4820  0.3719
  770MOL0     H 3897   6.999   3.085   9.401 -0.9432 -0.8485  2.8042
  770MOL0     H 3898   7.079   3.199   9.496  0.6651 -1.6001 -0.1188
  770MOL0     H 3899   6.954   3.295   9.237 -1.0329 -0.2583  0.1134
  770MOL0     H 3900   7.000   3.386   9.373 -1.3281 -0.1547  1.7976
  770MOL0     H 3901   6.839   3.204   9.600 -1.5689  0.8490  1.2746
  770MOL0     H 3902   6.524   3.045   9.565 -1.2951  0.4878 -0.2295
  770MOL0     H 3903   6.605   3.109   9.695 -1.0500 -1.2477  0.5802
  770MOL0     H 3904   6.461   3.321   9.656  1.8624 -1.0156 -2.1385
  770MOL0     H 3905   6.382   3.179   9.727  0.6428 -1.6134 -0.2316
  770MOL0     H 3906   6.283   3.123   9.490  0.4672  0.5360 -1.6122
  770MOL0     H 3907   6.369   3.259   9.430  0.0775 -0.7596 -1.0084
  770MOL0     H 3908   6.127   3.297   9.460 -1.9451 -2.1455  1.1951
  770MOL0     H 3909   6.226   3.410   9.546 -0.4089 -0.7855  1.0206
  770MOL0     H 3910   6.001   3.476   9.539  2.3049 -3.0928  0.2976
  770MOL0     H 3911   5.800   3.579   9.461 -1.4561 -1.6888  0.3673
  770MOL0     H 3912   5.660   3.590   9.558 -0.3004 -3.2518  1.4247
  770MOL0     H 3913   5.817   3.684   9.601  0.4233 -1.0512  0.9503
  770MOL0     H 3914   5.539   3.614  10.033 -0.3160 -0.8393 -0.5080
  770MOL0     H 3915   5.326   3.682  10.146  2.4114 -1.3086  1.3524
  770MOL0     H 3916   4.967   3.825   9.879  1.7264  0.8529 -0.2645
  770MOL0     H 3917   4.954   3.644   9.878 -0.8618  0.0573  1.0206
  770MOL0     H 3918   4.763   3.737   9.994  0.0697 -0.4000  0.5602
  770MOL0     H 3919   4.865   3.638  10.100  2.7509  1.2546  1.9386
  770MOL0     H 3920   4.868   3.938  10.114  0.9626 -0.7222 -2.2546
  770MOL0     H 3921   4.960   3.820  10.209  0.6601 -1.3467 -0.3279
  770MOL0     H 3922   4.647   3.825  10.217 -0.6660 -0.9714  1.1719
  770MOL0     H 3923   4.743   3.705  10.285  3.8804 -0.6739 -0.3415
  770MOL0     H 3924   4.781   4.003  10.361 -0.3125  0.2783  1.2196
  770MOL0     H 3925   4.859   3.867  10.437  0.4825 -0.4367 -0.8023
  770MOL0     H 3926   4.668   3.926  10.574  3.5709 -0.7673 -0.0851
  770MOL0     H 3927   4.555   3.926  10.436  0.7508  1.4623  0.8780
  770MOL0     H 3928   4.691   3.692  10.557  0.0823 -0.8459 -0.2225
  770MOL0     H 3929   4.567   3.682  10.438 -0.3513 -0.6396  0.5145
  770MOL0     H 3930   4.519   3.820  10.709 -0.6021 -0.7403  0.7390
  770MOL0     H 3931   4.492   3.643  10.689  0.1236  0.1886 -1.2034
  770MOL0     H 3932   5.145   3.700   9.753  0.5139  1.0755 -1.0284
  770MOL0     H 3933   5.355   3.642   9.652  0.1465  2.7493  0.2307
  770MOL0     H 3934   5.742   3.242   9.900  3.5393  0.1205  1.5698
  770MOL0     H 3935   5.967   3.185   9.851 -0.3946 -0.3640  0.5133
  770MOL0     H 3936   7.963   2.954   9.673  1.3148 -0.4606  0.8283
  770MOL0     H 3937   8.145   2.785   9.745 -0.6852  0.8069  0.5367
  770MOL0     H 3938   8.293   2.135   9.690  1.6310 -1.3729  1.1388
  770MOL0     H 3939   8.497   2.076   9.770 -3.4930 -0.9490 -1.4244
  770MOL0     H 3940   8.664   2.046   9.911 -1.4366  0.6879  0.3703
  770MOL0     H 3941   8.731   2.091   9.752  4.4146  1.0482  0.3633
  770MOL0     H 3942   8.934   2.186   9.888  0.3631  0.9700  0.9539
  770MOL0     H 3943   8.915   2.007   9.898 -0.0195  0.5996 -3.2174
  770MOL0     H 3944   8.819   2.210  10.111 -3.8158 -1.5486 -2.8868
  770MOL0     H 3945   8.975   2.119  10.109  0.8904 -1.8406 -2.1609
  770MOL0     H 3946   8.712   1.975  10.165  0.1763  1.1991  1.4185
  770MOL0     H 3947   8.850   2.014  10.272 -0.8909 -0.2438  0.9898
  770MOL0     H 3948   8.966   1.679  10.022  0.6133  1.3400 -2.1252
  770MOL0     H 3949   8.597   2.476   9.880  2.0450  0.2987 -1.4719
  770MOL0     H 3950   8.400   2.553   9.772  1.1278  0.4324  0.6225
  771MOL0     O 3951   0.500   4.172   9.930  0.3218 -0.1786 -0.0373
  771MOL0     C 3952   0.434   4.185   9.826  0.2217  0.8894 -0.0652
  771MOL0     O 3953   0.301   4.218   9.812  0.0007  0.3477  0.2591
  771MOL0     C 3954   0.223   4.268   9.910  0.0395 -0.8099  0.9199
  771MOL0     C 3955   0.155   4.177   9.991 -0.7228  1.1533  0.8361
  771MOL0     C 3956   0.061   4.223  10.083  0.6112  1.1117 -0.0775
  771MOL0     C 3957   0.040   4.359  10.101 -0.2631 -0.1252  0.8281
  771MOL0     O 3958  -0.052   4.387  10.191 -0.6436  0.0079  0.1239
  771MOL0     C 3959  -0.176   4.432  10.143  0.6427  0.1840  0.7425
  771MOL0     C 3960  -0.296   4.350  10.189 -0.0755 -0.0551  0.3005
  771MOL0     C 3961  -0.310   4.366  10.344  0.2675 -0.3333 -0.1598
  771MOL0     C 3962  -0.421   4.281  10.395 -0.7229  0.3290 -0.1962
  771MOL0     C 3963  -0.457   4.310  10.546  0.7837 -0.3262 -0.0005
  771MOL0     C 3964  -0.561   4.216  10.608  0.7743  0.5612 -0.4736
  771MOL0     C 3965  -0.592   4.250  10.754 -0.1343  0.2760 -0.1815
  771MOL0     C 3966  -0.742   4.212  10.784  0.2255  0.2533 -0.2253
  771MOL0     N 3967  -0.768   4.068  10.767  0.2035  1.5566 -0.8019
  771MOL0     C 3968  -0.816   4.008  10.656  0.2503  0.1656  0.5416
  771MOL0     C 3969  -0.837   3.882  10.690 -1.2315  0.5535 -0.0153
  771MOL0     C 3970  -0.886   3.763  10.614 -0.2872  0.1016  0.0524
  771MOL0     C 3971  -1.010   3.791  10.530  0.2511 -0.0003  0.0601
  771MOL0     C 3972  -1.138   3.801  10.617 -0.0002  0.0836 -0.3604
  771MOL0     C 3973  -1.169   3.944  10.669 -0.0408 -0.4210  0.5488
  771MOL0     O 3974  -1.263   3.926  10.777  0.1216 -0.4391 -0.1551
  771MOL0     C 3975  -1.389   3.977  10.774  0.6617 -1.3084 -0.4213
  771MOL0     C 3976  -1.470   3.944  10.886  0.2835  0.5354  0.3718
  771MOL0     C 3977  -1.592   4.001  10.920  0.7780 -0.4630  0.1703
  771MOL0     C 3978  -1.658   3.972  11.049 -0.1887 -0.2707 -0.5934
  771MOL0     C 3979  -1.644   4.107  10.832  0.2869  0.2666 -0.3304
  771MOL0     C 3980  -1.770   4.183  10.856 -0.0005  0.0981 -1.1856
  771MOL0     O 3981  -1.872   4.118  10.929  0.1342  0.0161  0.1710
  771MOL0     C 3982  -1.976   4.202  10.958  0.0140 -0.3790 -0.6154
  771MOL0     C 3983  -1.976   4.263  11.086 -0.3710  0.0163 -0.6006
  771MOL0     C 3984  -2.087   4.348  11.121 -0.1112  0.2891 -0.0921
  771MOL0     C 3985  -2.199   4.354  11.040  0.3670  0.3741  0.2510
  771MOL0     O 3986  -2.306   4.429  11.077 -0.1809  0.3811 -0.7929
  771MOL0     C 3987  -2.372   4.517  10.977  0.2074  0.0422 -0.4810
  771MOL0     C 3988  -2.473   4.615  11.038 -0.2301  0.2619 -0.7892
  771MOL0     C 3989  -2.586   4.539  11.096  0.3503 -0.2395 -0.0913
  771MOL0     C 3990  -2.701   4.614  11.159  0.2192  0.1978 -0.3391
  771MOL0     C 3991  -2.797   4.520  11.244  0.4170 -0.8427 -0.8989
  771MOL0     C 3992  -2.936   4.598  11.266 -0.5903  0.8796  0.5264
  771MOL0     C 3993  -3.026   4.603  11.139 -0.1157 -0.1127 -0.0160
  771MOL0     C 3994  -3.160   4.662  11.171  0.3927  0.7067  0.9179
  771MOL0    Cl 3995  -3.255   4.662  11.023  0.0056  0.2289  0.2058
  771MOL0     C 3996  -2.195   4.285  10.917 -0.3669  0.4954  0.3764
  771MOL0     C 3997  -2.089   4.204  10.876  0.2576  0.8756 -0.3295
  771MOL0     O 3998  -1.781   4.277  10.784  0.4265 -0.2829 -0.2768
  771MOL0     C 3999  -1.568   4.133  10.714  0.8665 -1.2042 -0.0233
  771MOL0     C 4000  -1.447   4.069  10.690 -0.5445  0.2061  0.8641
  771MOL0     N 4001  -0.812   3.868  10.821  0.8250 -0.5626 -0.5833
  771MOL0     N 4002  -0.764   3.981  10.870 -0.1784 -0.3856 -0.3329
  771MOL0     C 4003   0.108   4.454  10.022 -0.2454  0.6438  0.5238
  771MOL0     C 4004   0.191   4.405   9.923 -0.0000  0.0946 -1.0189
  771MOL0     C 4005   0.508   4.152   9.702  0.0884  0.0728  0.1468
  771MOL0     C 4006   0.436   4.139   9.583 -0.1387  0.4269  0.4879
  771MOL0     C 4007   0.500   4.123   9.463  0.0429  0.1429  0.2755
  771MOL0     C 4008   0.642   4.105   9.463  0.3301  0.7621  0.5400
  771MOL0     O 4009   0.710   4.086   9.339 -0.8738  0.0146  0.7030
  771MOL0     C 4010   0.853   4.081   9.356  0.7651 -0.3366 -0.1145
  771MOL0     C 4011   0.928   4.071   9.228 -0.6595  0.4658  0.1578
  771MOL0     C 4012   0.903   3.945   9.150  1.2618  1.1334 -1.7716
  771MOL0     C 4013   0.960   3.940   9.014 -0.3804 -0.0151 -0.1181
  771MOL0     C 4014   1.106   3.941   9.005 -0.0533  0.4698 -0.2233
  771MOL0     C 4015   1.221   3.971   9.009  0.2100 -0.9118 -1.2027
  771MOL0     C 4016   0.713   4.107   9.583 -0.1963  0.0426  0.2700
  771MOL0     C 4017   0.648   4.134   9.700 -0.3734  0.5483 -0.4790
  771MOL0     H 4018   0.179   4.072   9.984  0.7587  1.4658  0.8879
  771MOL0     H 4019   0.009   4.152  10.146 -0.4204  1.7753 -0.1620
  771MOL0     H 4020  -0.185   4.530  10.190  2.5338  0.7659 -0.0040
  771MOL0     H 4021  -0.177   4.445  10.034  0.4676 -1.2410  0.5500
  771MOL0     H 4022  -0.384   4.385  10.134 -0.1230  0.1330  0.4951
  771MOL0     H 4023  -0.268   4.247  10.165 -0.0762 -1.2311  4.5535
  771MOL0     H 4024  -0.219   4.333  10.394 -1.9287 -0.4745  4.2588
  771MOL0     H 4025  -0.324   4.470  10.374  0.2818 -0.7753  1.5132
  771MOL0     H 4026  -0.512   4.297  10.336 -0.5941  5.8681  0.5672
  771MOL0     H 4027  -0.382   4.179  10.400 -1.1837 -0.1006 -3.5071
  771MOL0     H 4028  -0.368   4.315  10.610 -1.0517  2.0310  2.6262
  771MOL0     H 4029  -0.496   4.412  10.545 -1.9455 -1.2916 -0.2701
  771MOL0     H 4030  -0.653   4.224  10.551  1.9197  5.3446 -2.1398
  771MOL0     H 4031  -0.531   4.111  10.610  1.9221  0.8766  0.4123
  771MOL0     H 4032  -0.529   4.198  10.827 -1.4862 -2.3225 -0.7342
  771MOL0     H 4033  -0.578   4.358  10.764  4.9930 -0.0736 -0.8731
  771MOL0     H 4034  -0.810   4.265  10.717  0.4738  1.0931  0.1763
  771MOL0     H 4035  -0.778   4.234  10.885  1.1087 -0.0444  0.1630
  771MOL0     H 4036  -0.835   4.045  10.556  2.7553  1.4260  0.4701
  771MOL0     H 4037  -0.804   3.734  10.548  0.4365 -1.0623  1.4228
  771MOL0     H 4038  -0.901   3.678  10.682 -0.0507 -0.1283 -0.1826
  771MOL0     H 4039  -1.026   3.715  10.453  3.4076  0.0890 -0.8013
  771MOL0     H 4040  -1.002   3.883  10.472 -0.3399  2.1954  3.1924
  771MOL0     H 4041  -1.126   3.731  10.701 -0.0739 -0.8972 -1.1435
  771MOL0     H 4042  -1.229   3.768  10.566  0.4769  0.1188 -1.2577
  771MOL0     H 4043  -1.211   3.994  10.581 -0.5627 -0.3575  0.8321
  771MOL0     H 4044  -1.082   4.000  10.706 -0.2226  0.4994 -0.3651
  771MOL0     H 4045  -1.431   3.866  10.952  2.4605  1.8388  0.7138
  771MOL0     H 4046  -1.746   3.911  11.026 -0.6030  0.2151 -0.3177
  771MOL0     H 4047  -1.600   3.904  11.113 -1.7663  1.9763  3.6256
  771MOL0     H 4048  -1.685   4.066  11.098 -1.4218 -0.7479 -0.3236
  771MOL0     H 4049  -1.885   4.264  11.145  0.1819 -1.3394 -1.3733
  771MOL0     H 4050  -2.091   4.413  11.208  2.2870 -2.3745  2.2078
  771MOL0     H 4051  -2.296   4.578  10.927 -1.6712  0.4673 -3.0128
  771MOL0     H 4052  -2.430   4.465  10.900 -1.8957  0.0810  0.9920
  771MOL0     H 4053  -2.421   4.680  11.109 -4.0823  2.7645  0.0380
  771MOL0     H 4054  -2.508   4.683  10.959  1.6157  2.1976 -0.0670
  771MOL0     H 4055  -2.535   4.478  11.171  1.6039  0.1432 -0.6228
  771MOL0     H 4056  -2.631   4.469  11.025 -0.7448 -1.5465  1.7965
  771MOL0     H 4057  -2.668   4.685  11.236 -4.6722 -0.8663  3.2654
  771MOL0     H 4058  -2.754   4.669  11.081 -0.4474  1.3651  0.8944
  771MOL0     H 4059  -2.759   4.497  11.344  2.2796  4.1137 -0.1711
  771MOL0     H 4060  -2.807   4.428  11.185 -1.8298 -0.7310 -0.7942
  771MOL0     H 4061  -2.987   4.550  11.350  1.7150  1.3660  2.3150
  771MOL0     H 4062  -2.917   4.701  11.296  1.2180  0.4263  1.0411
  771MOL0     H 4063  -3.042   4.497  11.115  0.9216 -0.3451  0.2576
  771MOL0     H 4064  -2.985   4.646  11.047  0.0206 -2.6466 -1.2461
  771MOL0     H 4065  -3.160   4.765  11.209  3.8200  0.7533  1.1288
  771MOL0     H 4066  -3.207   4.601  11.248 -0.3009  1.0264  0.7557
  771MOL0     H 4067  -2.279   4.296  10.848 -0.2530  1.3654  0.3608
  771MOL0     H 4068  -2.086   4.129  10.798 -0.4616  0.9891 -0.4691
  771MOL0     H 4069  -1.593   4.208  10.640 -0.1586 -0.2920  1.2037
  771MOL0     H 4070  -1.403   4.095  10.594 -0.6059  0.3794  0.8822
  771MOL0     H 4071   0.087   4.560  10.032 -2.4466  0.1190  2.2606
  771MOL0     H 4072   0.243   4.481   9.865 -0.0043  0.3085 -0.7490
  771MOL0     H 4073   0.329   4.156   9.579 -0.4250 -1.3252 -3.5495
  771MOL0     H 4074   0.458   4.127   9.363  2.2353  1.0159 -0.6670
  771MOL0     H 4075   0.891   4.174   9.399  1.6435 -0.7562  0.0233
  771MOL0     H 4076   0.885   4.009   9.431  2.0835  0.5141  0.1695
  771MOL0     H 4077   1.031   4.074   9.263  0.1632  0.6381 -2.0951
  771MOL0     H 4078   0.912   4.156   9.162  3.0835  0.4627 -0.9982
  771MOL0     H 4079   0.797   3.951   9.123  0.1423 -1.8084  1.3651
  771MOL0     H 4080   0.913   3.852   9.206  2.6434  1.3977 -1.5297
  771MOL0     H 4081   0.933   4.028   8.954  2.0335  0.1240 -1.1311
  771MOL0     H 4082   0.915   3.858   8.957  2.6252 -0.9829 -1.2839
  771MOL0     H 4083   1.326   3.992   9.010  0.7861 -3.2954  1.6814
  771MOL0     H 4084   0.820   4.103   9.598 -0.0598 -1.1050 -0.8282
  771MOL0     H 4085   0.686   4.156   9.799 -1.8179  4.4461 -0.6191
  772MOL0     O 4086   7.349  11.235  10.035 -0.1205 -0.2558 -0.5199
  772MOL0     C 4087   7.347  11.119   9.990 -1.1402 -0.6490  0.4980
  772MOL0     O 4088   7.240  11.056   9.949  0.2517  0.7040 -0.1155
  772MOL0     C 4089   7.117  11.119   9.939  0.4543 -0.1428 -0.3412
  772MOL0     C 4090   7.019  11.080  10.029  0.8340 -0.0628 -1.0260
  772MOL0     C 4091   6.892  11.138  10.033 -0.6674 -0.1160 -0.6825
  772MOL0     C 4092   6.860  11.244   9.943  0.0366  0.2754  0.7312
  772MOL0     O 4093   6.741  11.318   9.949  0.4583 -0.5900  0.2543
  772MOL0     C 4094   6.655  11.311  10.061  0.3254  0.1084 -0.4223
  772MOL0     C 4095   6.541  11.414  10.056  0.3057 -0.1138  0.3544
  772MOL0     C 4096   6.480  11.423  10.190 -0.1728 -0.0289 -0.0034
  772MOL0     C 4097   6.337  11.484  10.177  0.8062 -0.0472  0.5247
  772MOL0     C 4098   6.280  11.510  10.315 -0.4113  0.8508 -0.3027
  772MOL0     C 4099   6.138  11.561  10.327  0.8668  0.1703 -0.7722
  772MOL0     C 4100   6.090  11.570  10.477 -0.1887  0.2406 -0.6431
  772MOL0     C 4101   6.040  11.714  10.505  0.5138 -0.3082 -0.8019
  772MOL0     N 4102   5.901  11.711  10.474 -0.1999  0.2969 -0.1969
  772MOL0     C 4103   5.851  11.736  10.349  0.1405  0.2152  0.5450
  772MOL0     C 4104   5.720  11.745  10.372 -0.2094 -0.1665  0.2487
  772MOL0     C 4105   5.620  11.754  10.268 -0.2058 -0.8806  0.9841
  772MOL0     C 4106   5.508  11.844  10.315 -0.0735 -0.8438 -0.1587
  772MOL0     C 4107   5.411  11.865  10.203 -0.3301  0.5930 -0.2290
  772MOL0     C 4108   5.278  11.933  10.250 -0.0949 -0.2895 -0.0065
  772MOL0     O 4109   5.224  11.872  10.369 -0.5273  0.0914 -0.6134
  772MOL0     C 4110   5.086  11.891  10.388  0.0726  0.6846 -0.0694
  772MOL0     C 4111   4.992  11.942  10.294  0.0183  0.7205  0.5027
  772MOL0     C 4112   4.856  11.953  10.327 -0.9524 -0.4842  0.1777
  772MOL0     C 4113   4.765  12.005  10.221  0.6931  0.8629 -0.8615
  772MOL0     C 4114   4.817  11.905  10.452  0.4232 -0.5385 -0.5861
  772MOL0     C 4115   4.675  11.900  10.494 -0.2817 -1.0287 -0.1015
  772MOL0     O 4116   4.651  11.886  10.629 -0.1126 -0.1079  0.4682
  772MOL0     C 4117   4.519  11.863  10.673  0.3777 -0.9703  0.1937
  772MOL0     C 4118   4.433  11.770  10.618 -0.1306  0.5914  0.5311
  772MOL0     C 4119   4.298  11.763  10.652 -0.6107  0.2617  1.0368
  772MOL0     C 4120   4.254  11.841  10.762 -0.1674  0.3571 -0.9483
  772MOL0     O 4121   4.129  11.838  10.822 -0.2703 -0.0428  0.5768
  772MOL0     C 4122   4.014  11.795  10.734 -0.3337  0.0416 -0.0958
  772MOL0     C 4123   3.877  11.823  10.793  1.1614 -0.0181 -0.0005
  772MOL0     C 4124   3.762  11.832  10.693  0.2875 -0.2324  0.1162
  772MOL0     C 4125   3.620  11.841  10.752  0.6285  0.2498  0.3827
  772MOL0     C 4126   3.514  11.780  10.657 -1.3208 -0.4403  0.1291
  772MOL0     C 4127   3.409  11.880  10.621  0.1624  0.2914 -0.5566
  772MOL0     C 4128   3.298  11.805  10.534 -0.7149 -0.0344  0.0634
  772MOL0     C 4129   3.184  11.905  10.518 -0.1335 -0.2128 -0.5712
  772MOL0    Cl 4130   3.226  12.008  10.378  0.4024  0.2752 -0.1045
  772MOL0     C 4131   4.347  11.924  10.833 -0.2900 -0.2652  0.7689
  772MOL0     C 4132   4.481  11.946  10.777  0.1737 -0.6118 -0.1193
  772MOL0     O 4133   4.592  11.888  10.405 -0.5353 -0.3586 -0.1193
  772MOL0     C 4134   4.912  11.861  10.552 -0.5241  0.3506  0.2497
  772MOL0     C 4135   5.044  11.858  10.512  0.4189  0.1148 -0.5223
  772MOL0     N 4136   5.697  11.691  10.497 -0.4167  0.6572 -0.5833
  772MOL0     N 4137   5.803  11.680  10.566 -0.7892  0.4757  0.0548
  772MOL0     C 4138   6.953  11.272   9.848  1.1930 -0.3717 -0.5206
  772MOL0     C 4139   7.077  11.216   9.838 -0.9675 -0.5094 -0.6207
  772MOL0     C 4140   7.473  11.049   9.955  0.6864 -0.6324  0.3438
  772MOL0     C 4141   7.589  11.121   9.944 -0.0121  0.8604  0.0836
  772MOL0     C 4142   7.701  11.057   9.893 -0.5260  0.4979 -0.7369
  772MOL0     C 4143   7.710  10.924   9.853 -1.1647 -0.4464 -0.1784
  772MOL0     O 4144   7.826  10.877   9.790 -0.0641  0.3767  0.3482
  772MOL0     C 4145   7.819  10.766   9.702 -0.3837  1.0613 -0.9922
  772MOL0     C 4146   7.951  10.751   9.617  0.2156 -0.2427 -0.0118
  772MOL0     C 4147   7.955  10.845   9.495 -0.6224 -0.3365 -0.1305
  772MOL0     C 4148   8.081  10.814   9.408 -0.0980  0.2663  0.0688
  772MOL0     C 4149   8.057  10.682   9.345  0.9135 -0.5745  0.4025
  772MOL0     C 4150   8.027  10.574   9.291 -1.0968 -0.4655 -0.0280
  772MOL0     C 4151   7.599  10.843   9.871 -0.4522  0.1253  0.5918
  772MOL0     C 4152   7.481  10.908   9.915 -0.4267  0.5550 -0.2232
  772MOL0     H 4153   7.038  11.008  10.108 -0.1752  0.9869  0.2188
  772MOL0     H 4154   6.820  11.126  10.114 -0.8763 -0.7338 -0.9517
  772MOL0     H 4155   6.608  11.212  10.065  1.1312 -0.2458  1.4321
  772MOL0     H 4156   6.700  11.321  10.160 -1.2005  1.0223  0.2227
  772MOL0     H 4157   6.588  11.511  10.038  0.7486 -0.6926 -1.9406
  772MOL0     H 4158   6.460  11.387   9.988 -1.3112  0.9092  1.7825
  772MOL0     H 4159   6.474  11.320  10.228  1.0034  0.2467  1.0122
  772MOL0     H 4160   6.536  11.479  10.266 -1.5583  0.6943  0.5152
  772MOL0     H 4161   6.329  11.571  10.110 -1.8032 -0.6916 -0.1121
  772MOL0     H 4162   6.282  11.401  10.133 -1.3785  1.5548  0.0170
  772MOL0     H 4163   6.296  11.414  10.365 -2.6501  1.2305  1.2850
  772MOL0     H 4164   6.353  11.575  10.363  1.2942 -1.4226  0.3565
  772MOL0     H 4165   6.134  11.659  10.279 -1.2974 -0.4588 -1.9960
  772MOL0     H 4166   6.070  11.497  10.271 -0.0818  1.7898 -1.5402
  772MOL0     H 4167   6.015  11.491  10.487  1.4214 -1.2850 -0.0793
  772MOL0     H 4168   6.179  11.548  10.537  0.9218 -0.6659 -2.4965
  772MOL0     H 4169   6.098  11.793  10.456  0.3281  0.8402  0.7393
  772MOL0     H 4170   6.050  11.726  10.613 -0.9808 -2.0074 -0.4370
  772MOL0     H 4171   5.910  11.752  10.259  0.1013  1.9297  0.7828
  772MOL0     H 4172   5.666  11.788  10.175 -1.5915  0.0335  0.5969
  772MOL0     H 4173   5.580  11.654  10.250 -0.9008 -0.0654 -2.8653
  772MOL0     H 4174   5.546  11.940  10.349 -0.6997 -1.1795  1.6236
  772MOL0     H 4175   5.462  11.793  10.400 -0.2998 -0.5881 -0.1273
  772MOL0     H 4176   5.377  11.772  10.155  0.9910  0.1646 -0.3758
  772MOL0     H 4177   5.468  11.929  10.136  0.8721 -0.5741 -0.3616
  772MOL0     H 4178   5.212  11.944  10.164 -2.3559  1.3888  1.8069
  772MOL0     H 4179   5.306  12.034  10.281 -0.3001 -0.7118  1.6348
  772MOL0     H 4180   5.021  11.974  10.195  2.4305  2.3687  1.6437
  772MOL0     H 4181   4.822  12.047  10.138  1.7341 -0.2524 -0.7449
  772MOL0     H 4182   4.723  11.911  10.184  3.2376 -0.8075  0.1813
  772MOL0     H 4183   4.688  12.073  10.259  2.0921  0.6688  2.6844
  772MOL0     H 4184   4.477  11.714  10.536  2.2100  2.9124  0.0448
  772MOL0     H 4185   4.233  11.699  10.594 -0.5645 -1.6493  2.9409
  772MOL0     H 4186   4.032  11.848  10.640 -0.8184  0.5795  0.1064
  772MOL0     H 4187   4.024  11.689  10.709  2.8413  0.1604  0.3138
  772MOL0     H 4188   3.852  11.739  10.858 -4.3481 -0.9284 -2.7093
  772MOL0     H 4189   3.876  11.921  10.842 -0.7016 -0.9515  2.0057
  772MOL0     H 4190   3.754  11.739  10.637 -0.1177  0.1689 -0.5040
  772MOL0     H 4191   3.790  11.920  10.635  1.1718  0.1884  1.1573
  772MOL0     H 4192   3.627  11.794  10.850  2.6707  0.6254  0.4641
  772MOL0     H 4193   3.599  11.946  10.775 -0.4864 -0.0571  0.8147
  772MOL0     H 4194   3.463  11.702  10.713 -0.4232 -1.2506 -0.1597
  772MOL0     H 4195   3.566  11.728  10.577  1.4278 -0.2976  1.6835
  772MOL0     H 4196   3.361  11.908  10.715 -0.4892  0.6569 -0.9928
  772MOL0     H 4197   3.451  11.967  10.571 -0.9349  0.9461 -0.3667
  772MOL0     H 4198   3.257  11.713  10.578 -0.4346 -0.5544 -0.7297
  772MOL0     H 4199   3.343  11.774  10.439  0.1422 -1.9937  1.0354
  772MOL0     H 4200   3.170  11.966  10.607 -3.2957 -1.6584  0.0966
  772MOL0     H 4201   3.086  11.858  10.502 -1.5370  2.0521  0.7579
  772MOL0     H 4202   4.299  11.972  10.919 -0.1093 -2.5161  2.2056
  772MOL0     H 4203   4.549  12.009  10.833  1.0735 -1.4293 -0.2662
  772MOL0     H 4204   4.877  11.824  10.648  0.8632  2.8759  1.8156
  772MOL0     H 4205   5.111  11.833  10.593 -0.0626  0.5444  0.0144
  772MOL0     H 4206   6.912  11.340   9.774 -0.0154 -1.7127 -1.1205
  772MOL0     H 4207   7.144  11.245   9.757  0.1986 -0.3738  0.3650
  772MOL0     H 4208   7.581  11.226   9.969 -1.2554  0.8090 -0.0464
  772MOL0     H 4209   7.789  11.114   9.865 -0.5891  0.9082 -0.1143
  772MOL0     H 4210   7.816  10.670   9.755 -4.0197 -0.3378 -3.3530
  772MOL0     H 4211   7.723  10.766   9.651 -0.7600 -1.0541 -0.3778
  772MOL0     H 4212   7.968  10.647   9.590 -0.9846 -0.9835  1.8664
  772MOL0     H 4213   8.030  10.779   9.687 -1.6317  2.1268  1.2622
  772MOL0     H 4214   7.960  10.948   9.530 -0.6428 -0.4176  0.1099
  772MOL0     H 4215   7.865  10.820   9.438 -0.0534 -1.5240 -0.5458
  772MOL0     H 4216   8.169  10.804   9.472  2.3510 -1.6714 -3.2065
  772MOL0     H 4217   8.100  10.890   9.331 -1.2581 -2.2207 -2.9058
  772MOL0     H 4218   8.003  10.483   9.240 -0.1355 -1.3660  1.0747
  772MOL0     H 4219   7.606  10.736   9.856 -0.5913 -0.1754  2.4600
  772MOL0     H 4220   7.391  10.849   9.930 -0.2068  0.8223  2.9430
  773MOL0     O 4221   3.627   0.144   6.933 -0.0497  0.0177 -0.0652
  773MOL0     C 4222   3.635   0.264   6.932  0.1565  0.1542 -0.2704
  773MOL0     O 4223   3.525   0.350   6.908 -0.6162 -0.5942  0.0267
  773MOL0     C 4224   3.410   0.297   6.862 -0.2136 -0.2879 -0.1720
  773MOL0     C 4225   3.403   0.224   6.748 -0.4435  0.3687 -0.8926
  773MOL0     C 4226   3.280   0.170   6.702 -0.0936  0.6697 -0.8946
  773MOL0     C 4227   3.161   0.198   6.767  0.4000  0.3805 -0.7745
  773MOL0     O 4228   3.039   0.152   6.733  0.4292  0.2278  0.3085
  773MOL0     C 4229   3.024   0.073   6.613  0.4841 -0.3529  0.7964
  773MOL0     C 4230   2.885   0.001   6.634 -0.0659 -0.6599  0.1239
  773MOL0     C 4231   2.846  -0.080   6.510 -0.2518 -0.7069  0.8576
  773MOL0     C 4232   2.767   0.012   6.414 -0.7861  0.2213  0.6327
  773MOL0     C 4233   2.628   0.053   6.463  0.6556 -0.0064  0.0449
  773MOL0     C 4234   2.522  -0.058   6.445  0.4415  0.5339  0.5134
  773MOL0     C 4235   2.373  -0.006   6.451 -0.3566  0.3582  0.0270
  773MOL0     C 4236   2.349   0.090   6.564  0.2364 -0.1421 -0.2478
  773MOL0     N 4237   2.215   0.150   6.550 -0.2105  0.1754 -0.5581
  773MOL0     C 4238   2.165   0.253   6.477 -0.4348 -0.6655  0.0247
  773MOL0     C 4239   2.030   0.249   6.498 -0.4514  0.7327  0.0779
  773MOL0     C 4240   1.931   0.340   6.432 -0.2056 -0.5128 -0.7087
  773MOL0     C 4241   1.818   0.366   6.525  0.2852 -1.0986 -0.3149
  773MOL0     C 4242   1.723   0.470   6.464 -0.0348 -0.3050 -0.0276
  773MOL0     C 4243   1.575   0.459   6.497  0.0183  0.0733 -0.0597
  773MOL0     O 4244   1.566   0.423   6.630  0.2541 -0.6424 -0.5912
  773MOL0     C 4245   1.436   0.415   6.669 -0.2103 -0.0897  0.4056
  773MOL0     C 4246   1.322   0.457   6.604  0.0910 -0.0747  0.4977
  773MOL0     C 4247   1.195   0.443   6.656  0.9775  0.0605  0.2117
  773MOL0     C 4248   1.078   0.519   6.591 -0.2424 -0.5769  0.1121
  773MOL0     C 4249   1.183   0.365   6.774  0.4130  0.6801  0.3926
  773MOL0     C 4250   1.054   0.329   6.835  0.4031  0.5783  0.3381
  773MOL0     O 4251   0.944   0.339   6.751  0.1817 -0.1383 -0.0564
  773MOL0     C 4252   0.821   0.308   6.803 -0.0869 -0.3137  0.0327
  773MOL0     C 4253   0.720   0.406   6.807 -0.0911 -0.0362 -0.1968
  773MOL0     C 4254   0.602   0.380   6.881  0.3820 -0.3674  0.4853
  773MOL0     C 4255   0.575   0.254   6.930 -0.3361  0.9001 -0.2128
  773MOL0     O 4256   0.449   0.240   6.988  0.2183  0.0779  0.0467
  773MOL0     C 4257   0.415   0.109   7.037  1.0842 -0.3065  0.1332
  773MOL0     C 4258   0.259   0.108   7.079 -0.6238 -0.8208 -0.3468
  773MOL0     C 4259   0.173   0.105   6.954 -0.6535  0.8470  0.3897
  773MOL0     C 4260   0.019   0.108   6.983 -0.3329 -0.3389  0.0289
  773MOL0     C 4261  -0.058   0.105   6.862  0.1147  0.0390  0.0607
  773MOL0     C 4262  -0.203   0.103   6.912  0.7777 -0.0921  0.4070
  773MOL0     C 4263  -0.301   0.084   6.792  0.0188  0.3919 -0.4542
  773MOL0     C 4264  -0.429   0.163   6.836  0.4536 -0.5590  0.1532
  773MOL0    Cl 4265  -0.567   0.079   6.760 -0.1569 -0.5320  0.1502
  773MOL0     C 4266   0.679   0.154   6.916  0.7547 -0.2160  0.2455
  773MOL0     C 4267   0.801   0.178   6.851  0.2762  0.4833  0.3955
  773MOL0     O 4268   1.053   0.300   6.955  0.1603  0.9595  0.1718
  773MOL0     C 4269   1.300   0.319   6.837 -0.9099 -0.0674  0.5175
  773MOL0     C 4270   1.427   0.343   6.783  1.0315 -0.1091 -0.4043
  773MOL0     N 4271   1.995   0.143   6.591 -0.3677 -0.6394  0.0973
  773MOL0     N 4272   2.106   0.087   6.617  0.9965 -0.2666 -0.4113
  773MOL0     C 4273   3.165   0.266   6.888 -0.6819 -0.4829  0.5252
  773MOL0     C 4274   3.288   0.314   6.933 -0.1829  0.2224 -0.7254
  773MOL0     C 4275   3.761   0.328   6.983 -0.4134 -0.2716  0.0266
  773MOL0     C 4276   3.851   0.259   7.066  0.1729  0.1513  0.6318
  773MOL0     C 4277   3.975   0.309   7.098  0.5679 -0.6240 -0.5904
  773MOL0     C 4278   4.012   0.439   7.060  0.8326  0.9675  0.8976
  773MOL0     O 4279   4.136   0.498   7.091  0.0399 -0.2263  0.1339
  773MOL0     C 4280   4.253   0.423   7.131 -0.9067  0.1767 -0.0885
  773MOL0     C 4281   4.366   0.508   7.181  0.2630 -0.0219  0.1033
  773MOL0     C 4282   4.489   0.426   7.204  0.3225 -0.4184  0.0542
  773MOL0     C 4283   4.590   0.509   7.280 -0.0214 -0.2828 -0.7858
  773MOL0     C 4284   4.733   0.453   7.288  1.2066 -0.7182 -0.8136
  773MOL0     C 4285   4.847   0.413   7.277 -0.0450  0.2728 -0.4335
  773MOL0     C 4286   3.918   0.515   6.990  1.0877 -0.7465 -0.5143
  773MOL0     C 4287   3.784   0.465   6.958  0.4415  0.4383  0.7602
  773MOL0     H 4288   3.494   0.206   6.693  1.6940  1.7875  1.9664
  773MOL0     H 4289   3.280   0.127   6.602 -2.1095 -1.4161 -0.0797
  773MOL0     H 4290   3.025   0.144   6.529  0.3313 -2.3894 -1.0137
  773MOL0     H 4291   3.102  -0.003   6.598 -0.0445 -0.4686 -2.0305
  773MOL0     H 4292   2.909  -0.070   6.714  1.5808  0.5821  0.8012
  773MOL0     H 4293   2.811   0.069   6.678 -2.4787 -2.5913 -0.7306
  773MOL0     H 4294   2.937  -0.122   6.465 -0.3544  1.7914 -1.9974
  773MOL0     H 4295   2.780  -0.160   6.542 -2.5366 -0.5835 -2.9977
  773MOL0     H 4296   2.818   0.108   6.401 -1.5367  0.5094 -0.3435
  773MOL0     H 4297   2.752  -0.042   6.320  0.8777  0.9835 -0.1083
  773MOL0     H 4298   2.630   0.088   6.567  1.4018  1.5692 -0.4599
  773MOL0     H 4299   2.593   0.142   6.408  0.7366 -0.1435 -0.2267
  773MOL0     H 4300   2.534  -0.103   6.346  1.7232  0.8782  0.4936
  773MOL0     H 4301   2.549  -0.144   6.507  0.1210  1.2543  1.6781
  773MOL0     H 4302   2.353   0.044   6.356 -0.0438  2.5950  1.0798
  773MOL0     H 4303   2.306  -0.092   6.458 -2.0616  1.5241 -1.3449
  773MOL0     H 4304   2.418   0.174   6.571 -1.6349  1.7117 -2.2712
  773MOL0     H 4305   2.355   0.031   6.656  1.6264 -0.6233 -0.6268
  773MOL0     H 4306   2.223   0.319   6.414 -0.3500  0.7482  1.5180
  773MOL0     H 4307   1.985   0.434   6.416  0.5213 -0.6393  0.7826
  773MOL0     H 4308   1.904   0.297   6.336  2.0847 -2.7853 -0.4644
  773MOL0     H 4309   1.848   0.395   6.626 -1.9988 -1.5222  0.5392
  773MOL0     H 4310   1.771   0.268   6.538  0.6586 -1.1387  0.8896
  773MOL0     H 4311   1.732   0.471   6.355  0.1772 -2.2391 -0.0709
  773MOL0     H 4312   1.756   0.570   6.491 -0.5687 -0.5635  1.7079
  773MOL0     H 4313   1.525   0.386   6.433  0.4111 -0.3692  0.1367
  773MOL0     H 4314   1.532   0.559   6.488  2.7577  1.5107  1.4921
  773MOL0     H 4315   1.331   0.516   6.514  0.4602  0.6767  1.0260
  773MOL0     H 4316   1.020   0.559   6.674  1.2529 -1.1161  1.4743
  773MOL0     H 4317   1.110   0.603   6.529 -0.5624  0.9650  1.9576
  773MOL0     H 4318   1.018   0.448   6.533 -0.3163 -0.4331  0.0133
  773MOL0     H 4319   0.747   0.506   6.776 -0.0035 -0.8273 -2.9265
  773MOL0     H 4320   0.539   0.467   6.899 -0.7608 -1.6195  3.0007
  773MOL0     H 4321   0.425   0.036   6.956 -3.2180 -0.3450 -0.6105
  773MOL0     H 4322   0.478   0.081   7.121  2.4177 -0.4044 -0.8579
  773MOL0     H 4323   0.242   0.019   7.139 -1.3857 -0.0693  0.5805
  773MOL0     H 4324   0.233   0.198   7.135 -1.3438 -2.3566  1.9227
  773MOL0     H 4325   0.197   0.011   6.902 -4.1587 -0.8436  1.5360
  773MOL0     H 4326   0.203   0.193   6.897 -1.7150  0.4162 -0.8943
  773MOL0     H 4327   0.001   0.011   7.031  0.1248 -0.5252 -0.1593
  773MOL0     H 4328  -0.007   0.192   7.047  0.0737 -1.6740  2.0464
  773MOL0     H 4329  -0.043   0.017   6.799 -2.8682  1.6312 -3.2192
  773MOL0     H 4330  -0.057   0.202   6.812  1.0494 -0.2170 -0.4267
  773MOL0     H 4331  -0.221   0.023   6.985  2.3242 -1.6854 -0.8696
  773MOL0     H 4332  -0.229   0.200   6.957  0.5190 -1.5730  3.7434
  773MOL0     H 4333  -0.325  -0.023   6.789 -0.6332  0.4136  2.0507
  773MOL0     H 4334  -0.257   0.115   6.697 -1.8871  1.9197 -0.8999
  773MOL0     H 4335  -0.425   0.262   6.790  0.8429 -1.1519 -1.1375
  773MOL0     H 4336  -0.452   0.160   6.943 -3.4181  0.4057 -0.5004
  773MOL0     H 4337   0.657   0.054   6.952 -2.2600  0.6137  0.9794
  773MOL0     H 4338   0.882   0.107   6.841 -0.6203 -0.3528 -1.4821
  773MOL0     H 4339   1.289   0.264   6.930 -2.5246  2.5376  2.0037
  773MOL0     H 4340   1.518   0.323   6.839  0.6805  1.7891  0.9138
  773MOL0     H 4341   3.073   0.289   6.941 -0.2824  0.5101  0.8037
  773MOL0     H 4342   3.285   0.374   7.023 -1.6536  1.2127 -1.4027
  773MOL0     H 4343   3.833   0.154   7.091  2.5789 -0.2834  0.8123
  773MOL0     H 4344   4.040   0.255   7.165  0.4420 -1.4709 -1.1292
  773MOL0     H 4345   4.211   0.348   7.198 -1.6996  0.9646  0.3223
  773MOL0     H 4346   4.289   0.365   7.046  3.0400  1.4105  0.5230
  773MOL0     H 4347   4.339   0.568   7.268 -0.1352  1.7788 -1.2167
  773MOL0     H 4348   4.382   0.589   7.110 -2.4060  0.7149  0.2259
  773MOL0     H 4349   4.521   0.382   7.109  0.0987 -0.6958  0.1069
  773MOL0     H 4350   4.464   0.335   7.259 -1.8665 -0.6666 -1.2194
  773MOL0     H 4351   4.548   0.503   7.380 -0.5392  0.2160 -0.9672
  773MOL0     H 4352   4.602   0.597   7.216  0.8683  0.5721  0.5245
  773MOL0     H 4353   4.938   0.356   7.275 -0.9970 -1.2832 -1.3453
  773MOL0     H 4354   3.945   0.617   6.964  0.3138 -0.9792 -2.4218
  773MOL0     H 4355   3.708   0.518   6.901  0.2428 -0.8340 -0.1969
  774MOL0     O 4356   0.157   6.680   1.568 -0.0769 -0.4639  1.0317
  774MOL0     C 4357   0.233   6.666   1.468 -0.3177 -0.2269  0.6450
  774MOL0     O 4358   0.203   6.617   1.355  0.6740 -0.7678 -0.7744
  774MOL0     C 4359   0.077   6.655   1.314  0.8183  0.1537  0.2032
  774MOL0     C 4360  -0.017   6.556   1.292 -0.6421  0.0468 -0.2228
  774MOL0     C 4361  -0.136   6.596   1.225  0.4523  0.3109 -0.4705
  774MOL0     C 4362  -0.161   6.724   1.171  0.3206  0.1017 -0.3404
  774MOL0     O 4363  -0.271   6.754   1.100  0.4432 -0.3211  0.2098
  774MOL0     C 4364  -0.334   6.667   1.009  0.4403 -0.7695 -0.2314
  774MOL0     C 4365  -0.408   6.734   0.890 -0.4044  0.3482  0.3312
  774MOL0     C 4366  -0.536   6.677   0.844 -0.9209  0.1705 -0.1045
  774MOL0     C 4367  -0.654   6.774   0.857 -0.3791  0.1960 -0.9356
  774MOL0     C 4368  -0.787   6.710   0.881 -0.3590  0.0865 -0.9785
  774MOL0     C 4369  -0.896   6.812   0.914 -1.2850 -1.3628 -0.1539
  774MOL0     C 4370  -0.947   6.891   0.793 -0.5650 -0.8802 -0.5866
  774MOL0     C 4371  -1.065   6.975   0.836  0.1979 -0.3298 -0.5591
  774MOL0     N 4372  -1.191   6.896   0.862  0.3798 -0.0422  0.6708
  774MOL0     C 4373  -1.257   6.907   0.978  0.2819 -0.3488 -1.0607
  774MOL0     C 4374  -1.358   6.821   0.967  0.5372  1.1111  1.4567
  774MOL0     C 4375  -1.470   6.813   1.057 -0.5064  0.4327  0.5284
  774MOL0     C 4376  -1.545   6.679   1.051  0.1307 -0.8772  0.4644
  774MOL0     C 4377  -1.654   6.679   1.156  0.6585  0.8101 -0.7455
  774MOL0     C 4378  -1.725   6.545   1.136 -0.3722 -0.4346 -0.0721
  774MOL0     O 4379  -1.855   6.561   1.185  1.0623  0.5042 -0.3482
  774MOL0     C 4380  -1.931   6.448   1.198  0.6441  0.1983 -0.1501
  774MOL0     C 4381  -2.064   6.478   1.245 -0.1919 -0.0707 -0.6185
  774MOL0     C 4382  -2.160   6.371   1.255  0.2580  0.0278  0.5980
  774MOL0     C 4383  -2.304   6.410   1.291 -1.1661 -1.0614  0.9093
  774MOL0     C 4384  -2.117   6.240   1.217 -0.2189  0.8655  0.7892
  774MOL0     C 4385  -2.209   6.122   1.244  0.3863 -0.9974 -0.2037
  774MOL0     O 4386  -2.205   6.028   1.153 -0.6710  0.4839  0.0904
  774MOL0     C 4387  -2.302   5.931   1.157 -0.1771  0.0835  0.4821
  774MOL0     C 4388  -2.277   5.794   1.181  0.1004 -0.1814  1.2587
  774MOL0     C 4389  -2.374   5.697   1.185  0.5477 -0.3324  0.2177
  774MOL0     C 4390  -2.510   5.736   1.162 -0.5839  0.9226  0.2945
  774MOL0     O 4391  -2.622   5.652   1.173 -0.2043  0.2009 -0.8421
  774MOL0     C 4392  -2.601   5.526   1.236  0.5046 -0.4987  0.5106
  774MOL0     C 4393  -2.736   5.472   1.272 -0.9111 -0.0379 -0.5613
  774MOL0     C 4394  -2.806   5.393   1.155 -0.7123 -0.6163  0.0317
  774MOL0     C 4395  -2.950   5.351   1.189 -0.3618 -0.2619  0.4526
  774MOL0     C 4396  -3.021   5.270   1.084  0.5190 -0.0697  0.7811
  774MOL0     C 4397  -3.164   5.221   1.102  0.9139  0.3429  0.7704
  774MOL0     C 4398  -3.247   5.326   1.173  0.1365 -0.3550 -0.7558
  774MOL0     C 4399  -3.395   5.284   1.191  0.8751 -0.0133 -0.7478
  774MOL0    Cl 4400  -3.428   5.169   1.314 -0.1027 -0.2412  0.2061
  774MOL0     C 4401  -2.535   5.863   1.129  0.0333  0.3047 -0.5649
  774MOL0     C 4402  -2.433   5.962   1.130 -0.0745 -1.2816 -1.0172
  774MOL0     O 4403  -2.278   6.118   1.343 -0.0467 -0.0898 -1.2274
  774MOL0     C 4404  -1.986   6.211   1.165 -0.3527  0.2170 -0.0447
  774MOL0     C 4405  -1.895   6.315   1.161 -0.3675  0.2337 -0.4260
  774MOL0     N 4406  -1.365   6.759   0.841  0.2351 -0.3733 -0.0411
  774MOL0     N 4407  -1.261   6.810   0.781 -0.4354 -0.0603  0.3838
  774MOL0     C 4408  -0.058   6.815   1.191 -0.4524 -1.0289  0.8735
  774MOL0     C 4409   0.056   6.788   1.268  0.9262 -0.1399  0.8316
  774MOL0     C 4410   0.376   6.662   1.494 -0.1690 -0.3025 -0.8563
  774MOL0     C 4411   0.418   6.676   1.629  0.3631 -0.4611 -0.0356
  774MOL0     C 4412   0.550   6.654   1.658 -0.4698 -0.9264 -0.5041
  774MOL0     C 4413   0.648   6.634   1.555 -0.2966  0.2689 -0.6909
  774MOL0     O 4414   0.774   6.609   1.599 -0.1771 -0.4746  0.3366
  774MOL0     C 4415   0.805   6.472   1.590 -0.4984  0.9623 -0.0293
  774MOL0     C 4416   0.933   6.461   1.492 -0.7480  0.3596 -0.1108
  774MOL0     C 4417   1.049   6.381   1.556 -0.0832  0.3842 -0.5893
  774MOL0     C 4418   1.155   6.326   1.457 -0.9076 -0.7364  0.0939
  774MOL0     C 4419   1.129   6.210   1.383  0.2400 -0.0084  0.4484
  774MOL0     C 4420   1.100   6.122   1.311  0.0059 -0.1417  0.7792
  774MOL0     C 4421   0.607   6.628   1.421  0.5627  0.2799  0.3861
  774MOL0     C 4422   0.473   6.638   1.386  0.3603  0.3310 -0.5903
  774MOL0     H 4423   0.000   6.451   1.313 -3.3067 -0.3253  0.4404
  774MOL0     H 4424  -0.204   6.514   1.204 -0.8908  1.5367 -1.1777
  774MOL0     H 4425  -0.271   6.584   0.977  0.4537 -1.5900  1.7948
  774MOL0     H 4426  -0.411   6.619   1.070  2.5697 -0.1964  3.1745
  774MOL0     H 4427  -0.422   6.842   0.903  0.1757  0.9086 -2.8637
  774MOL0     H 4428  -0.339   6.724   0.805 -2.9756  1.6168 -2.0942
  774MOL0     H 4429  -0.521   6.651   0.739 -0.0660  1.1991 -0.2490
  774MOL0     H 4430  -0.552   6.585   0.900 -1.0223 -0.2826 -0.8570
  774MOL0     H 4431  -0.626   6.840   0.940  0.9094 -0.8464 -0.5043
  774MOL0     H 4432  -0.658   6.840   0.770  2.6157  2.1945  0.2845
  774MOL0     H 4433  -0.797   6.654   0.787  2.1149  0.7870 -1.7449
  774MOL0     H 4434  -0.778   6.638   0.963 -2.8077  2.0234  1.1237
  774MOL0     H 4435  -0.978   6.758   0.961 -0.4284 -0.8583  2.0080
  774MOL0     H 4436  -0.847   6.887   0.977 -1.9181 -0.1654 -1.0311
  774MOL0     H 4437  -0.870   6.961   0.758 -0.2145  0.0902  1.9393
  774MOL0     H 4438  -0.977   6.829   0.708 -2.8518 -0.5903 -0.0434
  774MOL0     H 4439  -1.080   7.047   0.755  0.8964 -1.8020 -2.0621
  774MOL0     H 4440  -1.031   7.031   0.924  0.1946 -3.3145  1.5047
  774MOL0     H 4441  -1.232   6.963   1.067  1.0471  1.2654 -2.2495
  774MOL0     H 4442  -1.432   6.824   1.159 -0.7148 -1.2636  0.8214
  774MOL0     H 4443  -1.541   6.893   1.035  0.6687  1.1851 -0.7306
  774MOL0     H 4444  -1.467   6.611   1.087  0.5979 -1.1970 -1.0860
  774MOL0     H 4445  -1.571   6.650   0.949 -1.4254  0.1564  0.5359
  774MOL0     H 4446  -1.723   6.759   1.128  0.2961  0.7146 -0.1635
  774MOL0     H 4447  -1.624   6.690   1.261 -0.0852 -1.5198 -0.2281
  774MOL0     H 4448  -1.662   6.470   1.185  1.1875  1.3283  0.7808
  774MOL0     H 4449  -1.735   6.510   1.033  1.0144 -3.2344  0.6476
  774MOL0     H 4450  -2.096   6.579   1.265 -1.0090  0.1423 -2.8163
  774MOL0     H 4451  -2.323   6.487   1.215 -1.1136 -0.9531  1.0062
  774MOL0     H 4452  -2.378   6.333   1.267 -1.5549  0.5028 -3.9814
  774MOL0     H 4453  -2.311   6.457   1.389 -1.5680  3.0497 -0.8813
  774MOL0     H 4454  -2.172   5.775   1.202 -0.2259 -0.9279  2.3057
  774MOL0     H 4455  -2.360   5.593   1.212 -2.5128 -0.9705 -0.2128
  774MOL0     H 4456  -2.548   5.464   1.163  1.2485  1.2673 -0.5058
  774MOL0     H 4457  -2.543   5.545   1.326  1.8085  2.1382 -0.7773
  774MOL0     H 4458  -2.728   5.395   1.349 -1.7363 -0.6942 -1.1066
  774MOL0     H 4459  -2.801   5.556   1.298 -3.6111 -2.5250  1.3195
  774MOL0     H 4460  -2.748   5.302   1.141 -0.0878 -0.3338  0.7281
  774MOL0     H 4461  -2.819   5.460   1.069 -0.4139  0.0371  0.4836
  774MOL0     H 4462  -2.940   5.289   1.279 -2.3350 -1.2985 -0.0015
  774MOL0     H 4463  -3.004   5.445   1.206 -0.1232  0.1077 -0.7417
  774MOL0     H 4464  -2.949   5.189   1.071  1.4455  0.8497 -0.0166
  774MOL0     H 4465  -3.027   5.328   0.991 -2.0563 -3.9289 -1.7484
  774MOL0     H 4466  -3.214   5.214   1.004  2.1664  1.0863  0.0490
  774MOL0     H 4467  -3.174   5.122   1.145 -3.1824 -0.2754 -1.1107
  774MOL0     H 4468  -3.249   5.424   1.124 -1.3724  0.7329  1.3387
  774MOL0     H 4469  -3.203   5.344   1.272 -1.1284 -0.1421 -0.2136
  774MOL0     H 4470  -3.410   5.245   1.089  2.0686  0.4437 -1.1222
  774MOL0     H 4471  -3.460   5.370   1.203  2.0632  1.2657 -2.7811
  774MOL0     H 4472  -2.638   5.896   1.128  0.0684  0.4119 -0.6288
  774MOL0     H 4473  -2.460   6.067   1.125 -0.1942 -1.2564 -0.0296
  774MOL0     H 4474  -1.944   6.113   1.140  0.6832  0.2705  1.3425
  774MOL0     H 4475  -1.793   6.296   1.127 -0.1216  0.0878  0.3652
  774MOL0     H 4476  -0.067   6.909   1.138  1.5302 -1.6941 -0.7628
  774MOL0     H 4477   0.130   6.868   1.273  0.7492  0.0851 -0.0867
  774MOL0     H 4478   0.350   6.703   1.709  1.0918 -4.3069  2.0733
  774MOL0     H 4479   0.592   6.664   1.757 -2.2703  0.4486  0.1868
  774MOL0     H 4480   0.831   6.443   1.692  0.5560  3.7622  0.5888
  774MOL0     H 4481   0.727   6.402   1.559  0.7187 -1.6939  2.4893
  774MOL0     H 4482   0.978   6.556   1.462 -0.3866 -0.5832 -2.8411
  774MOL0     H 4483   0.893   6.416   1.401  1.9740 -1.1995 -0.6222
  774MOL0     H 4484   0.995   6.298   1.603  0.6104  0.0252 -0.4103
  774MOL0     H 4485   1.087   6.439   1.640  0.5872  2.9928 -2.5684
  774MOL0     H 4486   1.247   6.309   1.514  1.3495  3.3694 -1.8904
  774MOL0     H 4487   1.183   6.404   1.386 -0.0883 -1.1373 -0.0374
  774MOL0     H 4488   1.073   6.049   1.238 -0.3700  0.3991  0.3652
  774MOL0     H 4489   0.676   6.591   1.345 -0.5393 -1.7203  0.2842
  774MOL0     H 4490   0.442   6.618   1.284  0.4725  1.7610 -0.9238
  775MOL0     O 4491   7.349   5.002   8.511  0.2355 -0.1864  0.0396
  775MOL0     C 4492   7.330   4.980   8.389 -0.4860  0.5419 -0.0582
  775MOL0     O 4493   7.210   4.953   8.325 -0.0519  0.0912  0.7922
  775MOL0     C 4494   7.090   4.976   8.390  0.1411  0.0478 -1.3611
  775MOL0     C 4495   6.985   5.038   8.324 -0.4687 -0.3501 -0.3994
  775MOL0     C 4496   6.866   5.059   8.384  0.1835  0.5383  0.2664
  775MOL0     C 4497   6.846   5.035   8.522 -1.3895 -0.0710 -0.2872
  775MOL0     O 4498   6.721   5.060   8.566 -0.2969  0.0506 -0.5183
  775MOL0     C 4499   6.659   4.975   8.670 -0.1087  0.4185 -0.2823
  775MOL0     C 4500   6.643   4.826   8.634 -0.8697  0.2633  0.4193
  775MOL0     C 4501   6.570   4.802   8.502  0.3033 -0.1049 -0.8469
  775MOL0     C 4502   6.420   4.783   8.518  0.1159 -0.0890 -0.3471
  775MOL0     C 4503   6.365   4.705   8.400 -0.3562  0.2738 -0.1616
  775MOL0     C 4504   6.214   4.724   8.370 -0.1964 -0.6475 -1.3096
  775MOL0     C 4505   6.170   4.668   8.232  0.6464  0.3477 -0.5983
  775MOL0     C 4506   6.045   4.714   8.165  0.5357 -0.2956 -0.3775
  775MOL0     N 4507   5.931   4.670   8.242  1.2340  0.0949 -0.5232
  775MOL0     C 4508   5.911   4.713   8.372  0.6261  0.1579 -0.2964
  775MOL0     C 4509   5.809   4.635   8.405  0.1716 -0.7141 -0.5212
  775MOL0     C 4510   5.746   4.634   8.542 -0.6330  0.0200  0.5655
  775MOL0     C 4511   5.807   4.537   8.643  0.2677  0.2265 -0.7582
  775MOL0     C 4512   5.726   4.559   8.772 -0.1867  0.2008  0.6239
  775MOL0     C 4513   5.600   4.476   8.771  0.2722 -0.0293  0.9449
  775MOL0     O 4514   5.510   4.513   8.873 -0.5236 -0.2724 -0.2398
  775MOL0     C 4515   5.379   4.470   8.860  1.1353 -0.1724 -0.6939
  775MOL0     C 4516   5.341   4.373   8.764 -0.5765 -0.1334  0.4601
  775MOL0     C 4517   5.208   4.327   8.748  0.1491  0.9310 -0.3879
  775MOL0     C 4518   5.167   4.236   8.638  0.0888  0.2229 -0.0675
  775MOL0     C 4519   5.105   4.378   8.838 -0.1992 -0.0904 -0.4356
  775MOL0     C 4520   4.967   4.327   8.840  0.3454 -0.8578  1.1234
  775MOL0     O 4521   4.942   4.195   8.855 -0.5256  0.1164 -0.1282
  775MOL0     C 4522   4.822   4.142   8.901  0.6775 -0.9083  0.4925
  775MOL0     C 4523   4.768   4.028   8.835 -0.4514  0.4775 -1.7100
  775MOL0     C 4524   4.643   3.978   8.878  0.0643  0.7004  0.1755
  775MOL0     C 4525   4.564   4.055   8.964 -0.5978 -0.2020  0.2184
  775MOL0     O 4526   4.432   4.030   8.997 -0.1021  0.3682  0.5893
  775MOL0     C 4527   4.368   3.966   8.888  0.5455  0.6076  0.4178
  775MOL0     C 4528   4.206   3.984   8.907 -0.0741 -0.0636  0.4720
  775MOL0     C 4529   4.169   3.929   9.045 -0.3568 -0.6895 -0.2939
  775MOL0     C 4530   4.038   3.989   9.108  0.3436  0.6589  0.5234
  775MOL0     C 4531   3.907   3.948   9.035 -0.1390 -0.4537 -0.8831
  775MOL0     C 4532   3.880   3.796   9.057 -0.5298  0.5863 -0.1632
  775MOL0     C 4533   3.742   3.741   9.006 -1.1924 -0.1791  0.5368
  775MOL0     C 4534   3.734   3.589   9.035 -0.4805  0.3342 -0.0915
  775MOL0    Cl 4535   3.848   3.482   8.935  0.2614  0.2494  0.0244
  775MOL0     C 4536   4.622   4.161   9.024 -0.2268  0.0388 -0.0111
  775MOL0     C 4537   4.746   4.206   8.993  0.4396 -0.0001 -0.4791
  775MOL0     O 4538   4.884   4.415   8.830 -0.2217  0.0187 -0.3641
  775MOL0     C 4539   5.149   4.458   8.948 -0.0724 -0.7773  0.6240
  775MOL0     C 4540   5.284   4.503   8.953  0.0061  0.2032 -1.3309
  775MOL0     N 4541   5.765   4.555   8.301  0.7168  0.4058 -0.0366
  775MOL0     N 4542   5.846   4.572   8.209  0.8689 -0.5142  0.5039
  775MOL0     C 4543   6.954   4.982   8.598 -0.3693  0.2670 -0.4495
  775MOL0     C 4544   7.070   4.953   8.532 -0.4890 -0.3148 -0.4441
  775MOL0     C 4545   7.457   4.986   8.319 -0.0906 -0.0428  0.4267
  775MOL0     C 4546   7.458   5.012   8.181 -0.2963 -0.5059 -0.6290
  775MOL0     C 4547   7.581   5.030   8.109  1.1397 -0.3431 -0.3020
  775MOL0     C 4548   7.706   5.028   8.178 -0.2664 -0.4131  1.2763
  775MOL0     O 4549   7.830   5.035   8.121  0.3003 -0.1652 -0.4837
  775MOL0     C 4550   7.845   5.016   7.976  0.4873 -0.2044 -0.3738
  775MOL0     C 4551   7.926   5.128   7.914 -0.3420  0.0486  0.8328
  775MOL0     C 4552   8.061   5.146   7.966  0.2488  0.2844 -0.8053
  775MOL0     C 4553   8.137   5.267   7.900 -0.0677 -0.4319 -0.1649
  775MOL0     C 4554   8.263   5.298   7.974 -0.9405  0.2366  0.4491
  775MOL0     C 4555   8.361   5.319   8.036 -0.0474  0.2793 -0.9296
  775MOL0     C 4556   7.703   5.012   8.320  0.6127  0.3640  0.7674
  775MOL0     C 4557   7.581   4.999   8.387  0.1084  0.0559 -0.9007
  775MOL0     H 4558   6.984   5.060   8.218 -2.4594  0.4231 -0.2770
  775MOL0     H 4559   6.784   5.094   8.322 -0.7930 -0.5422  0.8909
  775MOL0     H 4560   6.713   4.984   8.765 -0.2750  0.1213 -0.1579
  775MOL0     H 4561   6.556   5.010   8.682 -0.8921 -1.4122 -1.2450
  775MOL0     H 4562   6.741   4.779   8.646 -2.0545 -2.1221  1.4688
  775MOL0     H 4563   6.585   4.778   8.714 -0.8739 -0.7212 -0.1551
  775MOL0     H 4564   6.600   4.870   8.422  1.9126  0.6468  0.3412
  775MOL0     H 4565   6.615   4.707   8.472  0.8795 -0.1408  0.1046
  775MOL0     H 4566   6.394   4.736   8.613  2.0808 -0.2109  0.1699
  775MOL0     H 4567   6.375   4.883   8.523  0.3417  0.1040 -1.8736
  775MOL0     H 4568   6.433   4.723   8.317  0.0463 -1.0602 -0.1450
  775MOL0     H 4569   6.381   4.600   8.425  0.1425  0.3886  0.0170
  775MOL0     H 4570   6.157   4.681   8.452  1.3398  1.8153  1.2185
  775MOL0     H 4571   6.190   4.831   8.366 -0.6162 -0.6479  0.3893
  775MOL0     H 4572   6.250   4.698   8.163 -1.2116 -0.1865 -3.1220
  775MOL0     H 4573   6.164   4.559   8.239 -0.9823  0.4378 -0.1214
  775MOL0     H 4574   6.043   4.666   8.066  1.4762  0.4073 -0.7515
  775MOL0     H 4575   6.046   4.822   8.146  1.8274 -0.2258 -0.0167
  775MOL0     H 4576   5.972   4.785   8.425 -2.1421  3.4897 -1.3181
  775MOL0     H 4577   5.746   4.738   8.576  1.4532  0.2860 -0.0621
  775MOL0     H 4578   5.644   4.598   8.526 -1.2360  1.6937  0.4753
  775MOL0     H 4579   5.909   4.561   8.671 -0.6420  0.6272  2.5887
  775MOL0     H 4580   5.800   4.433   8.610 -0.5285 -1.0787  3.0631
  775MOL0     H 4581   5.695   4.663   8.784  1.2896  1.1055 -2.2071
  775MOL0     H 4582   5.789   4.531   8.857  0.5008 -0.9935 -0.2323
  775MOL0     H 4583   5.627   4.371   8.789 -0.9739 -0.5336  0.0081
  775MOL0     H 4584   5.550   4.482   8.674  2.0356  0.7682  0.0467
  775MOL0     H 4585   5.410   4.318   8.700  0.0376 -2.8461  3.2053
  775MOL0     H 4586   5.080   4.269   8.581 -0.4277  0.2573  0.7237
  775MOL0     H 4587   5.255   4.219   8.575  0.5659  0.5014  0.4996
  775MOL0     H 4588   5.127   4.147   8.688 -2.1783  0.8941 -0.5988
  775MOL0     H 4589   4.822   3.970   8.761 -1.0943  1.2676 -2.8259
  775MOL0     H 4590   4.603   3.889   8.830 -3.1063  2.0933 -0.0110
  775MOL0     H 4591   4.388   4.010   8.789 -2.2610  0.4064 -0.3147
  775MOL0     H 4592   4.396   3.862   8.903 -0.2729  0.5081  1.3839
  775MOL0     H 4593   4.194   4.092   8.900  2.1125  0.2747  1.1476
  775MOL0     H 4594   4.155   3.933   8.825  3.5066 -2.1679 -0.6788
  775MOL0     H 4595   4.244   3.942   9.123 -0.8238  0.1458  0.0280
  775MOL0     H 4596   4.170   3.820   9.042  0.6931 -0.7027  0.1201
  775MOL0     H 4597   4.033   3.943   9.207  1.8582 -0.2348  0.2229
  775MOL0     H 4598   4.038   4.098   9.113 -2.8363  0.7565  0.4090
  775MOL0     H 4599   3.917   3.969   8.928  0.7595 -0.1731 -0.7562
  775MOL0     H 4600   3.824   4.002   9.082  1.7603  2.6858 -0.8382
  775MOL0     H 4601   3.962   3.733   9.023  0.2538  1.9310 -0.8474
  775MOL0     H 4602   3.878   3.791   9.166 -1.9169 -0.9920 -0.2199
  775MOL0     H 4603   3.733   3.767   8.900 -2.7091  5.5490  1.7301
  775MOL0     H 4604   3.669   3.800   9.063  2.2350  2.3468  2.7564
  775MOL0     H 4605   3.632   3.550   9.020 -0.6366 -0.2395  2.0573
  775MOL0     H 4606   3.758   3.575   9.141  0.5027 -0.6125 -0.4233
  775MOL0     H 4607   4.555   4.208   9.094  0.1667 -1.4656  1.4504
  775MOL0     H 4608   4.803   4.275   9.054  1.6867 -1.8802  0.5934
  775MOL0     H 4609   5.082   4.485   9.030  0.6647  1.5172  0.5388
  775MOL0     H 4610   5.312   4.571   9.032  0.7579 -1.6886  0.1200
  775MOL0     H 4611   6.952   4.959   8.704  0.4432 -1.1425 -0.7166
  775MOL0     H 4612   7.153   4.912   8.588  0.0384  0.6791 -0.4628
  775MOL0     H 4613   7.366   5.007   8.122 -0.7626 -1.5251  0.1511
  775MOL0     H 4614   7.580   5.040   8.001  1.4228 -2.1351 -0.5007
  775MOL0     H 4615   7.895   4.919   7.967 -0.2047 -0.6399  0.3449
  775MOL0     H 4616   7.756   5.002   7.913  1.2819 -2.1423 -1.1512
  775MOL0     H 4617   7.862   5.217   7.911 -4.6855 -2.7267  1.8402
  775MOL0     H 4618   7.945   5.103   7.810  1.9250  1.9374  0.7134
  775MOL0     H 4619   8.121   5.054   7.957  1.0055  0.6965 -0.1865
  775MOL0     H 4620   8.056   5.165   8.074  0.7092  0.6125 -0.8359
  775MOL0     H 4621   8.064   5.348   7.901 -1.5663 -1.5805  3.6935
  775MOL0     H 4622   8.170   5.247   7.797  0.9911  0.5157 -0.0256
  775MOL0     H 4623   8.443   5.346   8.100  0.8994  0.7979 -2.3263
  775MOL0     H 4624   7.795   5.016   8.376  0.6833 -1.5565  0.8680
  775MOL0     H 4625   7.581   4.999   8.496  1.1768  0.5409 -0.8837
  776MOL0     O 4626   9.667   3.884   6.888 -0.0397  0.6474 -0.0854
  776MOL0     C 4627   9.763   3.824   6.936  0.2602 -0.0834  0.3664
  776MOL0     O 4628   9.776   3.693   6.956  0.4452 -0.2473  0.3401
  776MOL0     C 4629   9.680   3.600   6.916 -0.1498 -0.5785 -0.2569
  776MOL0     C 4630   9.721   3.501   6.830  0.0544  0.5627 -0.5339
  776MOL0     C 4631   9.649   3.392   6.801 -0.2202 -0.2464  0.3458
  776MOL0     C 4632   9.518   3.378   6.851  0.3579  0.0939 -0.5558
  776MOL0     O 4633   9.442   3.275   6.802 -0.8640 -0.0041 -0.6874
  776MOL0     C 4634   9.359   3.208   6.897 -1.1597  0.0063 -0.1646
  776MOL0     C 4635   9.337   3.069   6.836  0.4325 -0.0690 -0.1067
  776MOL0     C 4636   9.254   2.971   6.916  0.4437  0.2032 -0.8236
  776MOL0     C 4637   9.316   2.941   7.046  0.1033 -0.2354 -0.4310
  776MOL0     C 4638   9.243   2.824   7.110 -0.0344 -0.0350  0.7469
  776MOL0     C 4639   9.306   2.807   7.253  0.1092  0.7113 -0.2272
  776MOL0     C 4640   9.275   2.662   7.298  1.3155  0.4377 -0.6625
  776MOL0     C 4641   9.115   2.635   7.297 -0.0713 -0.0956  0.2786
  776MOL0     N 4642   9.040   2.731   7.379 -0.3376  0.4307 -0.3350
  776MOL0     C 4643   9.009   2.714   7.510  0.3452  0.0798 -1.2727
  776MOL0     C 4644   8.938   2.832   7.546 -0.3749 -0.1327 -0.4148
  776MOL0     C 4645   8.917   2.880   7.685 -0.1492  0.9265 -0.5425
  776MOL0     C 4646   8.778   2.954   7.690  0.1556 -0.8931  0.3229
  776MOL0     C 4647   8.668   2.857   7.632  0.7220 -0.8612 -0.5239
  776MOL0     C 4648   8.524   2.909   7.670  1.0833  0.1713  0.2463
  776MOL0     O 4649   8.435   2.794   7.662  0.6767  0.5912  0.1199
  776MOL0     C 4650   8.301   2.813   7.641  0.1626 -0.4778 -0.4615
  776MOL0     C 4651   8.225   2.704   7.628 -0.1144 -0.6239  0.2719
  776MOL0     C 4652   8.082   2.718   7.597  0.4870 -0.2862  0.7386
  776MOL0     C 4653   8.008   2.597   7.581  0.1185  0.1886  1.0049
  776MOL0     C 4654   8.031   2.847   7.571  0.4121 -0.1543 -1.5343
  776MOL0     C 4655   7.894   2.887   7.539 -1.3712 -0.0342  0.4235
  776MOL0     O 4656   7.874   2.994   7.461 -0.6033  0.1095 -0.4957
  776MOL0     C 4657   7.752   3.059   7.471 -0.1739 -0.1874  1.3067
  776MOL0     C 4658   7.684   3.078   7.587 -0.4085 -0.5271  0.6226
  776MOL0     C 4659   7.568   3.148   7.592  0.4971 -0.4075  0.3391
  776MOL0     C 4660   7.511   3.185   7.469 -0.5165 -0.0411 -0.1149
  776MOL0     O 4661   7.388   3.235   7.475  0.6499  0.1724  0.3214
  776MOL0     C 4662   7.341   3.339   7.565 -0.1667 -0.0309  0.1300
  776MOL0     C 4663   7.218   3.403   7.492 -0.1292 -0.0884 -0.1085
  776MOL0     C 4664   7.262   3.485   7.366  0.0424 -0.0840 -0.1075
  776MOL0     C 4665   7.135   3.488   7.279  0.4809  0.1262  0.1675
  776MOL0     C 4666   7.172   3.516   7.140 -0.5133 -0.8160  0.2204
  776MOL0     C 4667   7.054   3.543   7.044  1.2545  0.3384 -0.2197
  776MOL0     C 4668   6.934   3.460   7.083  1.0788  0.5177  0.7338
  776MOL0     C 4669   6.806   3.467   6.999 -0.1355  0.0813  0.6532
  776MOL0    Cl 4670   6.820   3.440   6.823 -0.2750 -0.4771  0.1042
  776MOL0     C 4671   7.578   3.169   7.347  0.0355 -0.1057  0.1689
  776MOL0     C 4672   7.700   3.107   7.342  0.1004 -0.6251 -0.8058
  776MOL0     O 4673   7.805   2.815   7.581  0.1118 -0.1124  1.3036
  776MOL0     C 4674   8.115   2.958   7.593 -0.3699 -0.5870 -0.1665
  776MOL0     C 4675   8.248   2.939   7.624  0.0602  0.4112 -0.1801
  776MOL0     N 4676   8.924   2.903   7.429 -0.8203 -0.0065 -0.0261
  776MOL0     N 4677   8.972   2.838   7.332  0.5206  0.8107  0.9623
  776MOL0     C 4678   9.461   3.485   6.923  0.0465 -0.2760 -0.3328
  776MOL0     C 4679   9.547   3.594   6.961  0.1799  0.3063  0.3824
  776MOL0     C 4680   9.889   3.901   6.956 -0.1115 -0.0620  0.1458
  776MOL0     C 4681   9.918   4.019   6.889  0.9018  0.1268 -0.6089
  776MOL0     C 4682  10.028   4.101   6.929  0.2301  0.1295  0.1629
  776MOL0     C 4683  10.121   4.062   7.024 -0.6147 -0.0816 -0.8474
  776MOL0     O 4684  10.230   4.145   7.045 -0.3727 -0.7250 -0.1634
  776MOL0     C 4685  10.337   4.102   7.127  0.2244 -0.3760 -0.1578
  776MOL0     C 4686  10.432   4.212   7.137 -0.4433 -0.5265  0.6315
  776MOL0     C 4687  10.549   4.184   7.230  0.0701  1.2078  0.8942
  776MOL0     C 4688  10.672   4.119   7.153 -0.8551 -0.2698 -0.9167
  776MOL0     C 4689  10.773   4.080   7.249 -0.0918  0.2731 -0.8580
  776MOL0     C 4690  10.860   4.055   7.332 -0.1982 -0.3757  0.1991
  776MOL0     C 4691  10.088   3.947   7.095 -0.6632 -0.7473 -0.0949
  776MOL0     C 4692   9.977   3.862   7.060 -0.2042  0.2069 -0.3237
  776MOL0     H 4693   9.821   3.510   6.789 -0.1115 -0.8116 -1.2999
  776MOL0     H 4694   9.689   3.314   6.737  0.5920  1.4652 -1.3646
  776MOL0     H 4695   9.398   3.206   6.999  1.0745 -0.2301 -0.9675
  776MOL0     H 4696   9.267   3.268   6.900 -0.0864  1.8186 -1.5002
  776MOL0     H 4697   9.288   3.083   6.739  0.4261  1.3143  0.0795
  776MOL0     H 4698   9.430   3.013   6.826  1.5764  1.5978  0.6690
  776MOL0     H 4699   9.154   3.011   6.935  1.0146 -0.2169  4.3648
  776MOL0     H 4700   9.250   2.877   6.859  1.9815 -0.0422 -0.5618
  776MOL0     H 4701   9.425   2.934   7.039  0.3023  1.9784 -0.2250
  776MOL0     H 4702   9.299   3.025   7.115 -1.3560 -1.1479  0.3495
  776MOL0     H 4703   9.134   2.832   7.112 -0.1963 -1.8891  1.2701
  776MOL0     H 4704   9.271   2.744   7.042  1.5777  0.6461  0.5615
  776MOL0     H 4705   9.415   2.814   7.240  0.4918 -4.0232 -1.6319
  776MOL0     H 4706   9.269   2.886   7.318  2.7717  0.6276  1.5670
  776MOL0     H 4707   9.330   2.597   7.230  0.5222  0.7066 -1.5821
  776MOL0     H 4708   9.315   2.652   7.399 -0.9555 -0.7597  0.1851
  776MOL0     H 4709   9.100   2.532   7.331  0.7120 -0.6389 -0.9173
  776MOL0     H 4710   9.066   2.627   7.199  0.4015 -0.4897  0.0691
  776MOL0     H 4711   9.034   2.637   7.583  0.2889  2.6317  1.6550
  776MOL0     H 4712   8.906   2.799   7.756 -0.0789  2.4500  1.2800
  776MOL0     H 4713   8.999   2.944   7.719  1.4896 -1.9346  1.2343
  776MOL0     H 4714   8.794   3.040   7.624  0.4424 -1.7705 -0.7816
  776MOL0     H 4715   8.749   2.982   7.792  0.0764  1.8196 -0.3825
  776MOL0     H 4716   8.684   2.753   7.663  0.1875 -0.9927 -0.6808
  776MOL0     H 4717   8.664   2.857   7.523 -0.0566 -0.3523 -0.5030
  776MOL0     H 4718   8.501   2.985   7.595  1.9779 -3.3207 -3.9158
  776MOL0     H 4719   8.519   2.947   7.773  2.7683  4.8911 -1.1685
  776MOL0     H 4720   8.262   2.605   7.652 -3.0554 -1.6055  1.1732
  776MOL0     H 4721   7.934   2.573   7.658 -1.2719 -4.5835 -1.4347
  776MOL0     H 4722   7.958   2.609   7.484  0.8616  1.8690  0.7966
  776MOL0     H 4723   8.070   2.507   7.573 -0.8640 -0.5709  1.6436
  776MOL0     H 4724   7.717   3.024   7.675 -2.0049 -3.3947 -0.4100
  776MOL0     H 4725   7.510   3.174   7.680  0.6581  2.4147 -0.2737
  776MOL0     H 4726   7.308   3.302   7.663  1.7364 -2.1837  0.0329
  776MOL0     H 4727   7.424   3.407   7.584 -2.1654  2.1842  1.5648
  776MOL0     H 4728   7.144   3.325   7.473 -3.6428  2.5865  1.4382
  776MOL0     H 4729   7.169   3.470   7.564 -2.6806  0.1235 -1.9269
  776MOL0     H 4730   7.352   3.448   7.317  0.9815  2.0095 -0.0512
  776MOL0     H 4731   7.287   3.587   7.397 -0.0677 -0.4497  1.2649
  776MOL0     H 4732   7.105   3.383   7.272  2.0251 -0.2642 -1.5376
  776MOL0     H 4733   7.054   3.549   7.320 -1.2993 -2.7036  1.1921
  776MOL0     H 4734   7.216   3.421   7.107  0.9915  0.3950 -1.4501
  776MOL0     H 4735   7.254   3.587   7.126 -0.7372 -0.6174 -0.0828
  776MOL0     H 4736   7.030   3.649   7.034  1.1001  0.3661  0.3756
  776MOL0     H 4737   7.085   3.507   6.945  2.3907  1.3143 -0.2279
  776MOL0     H 4738   6.909   3.466   7.189 -1.4747 -0.3736  0.2539
  776MOL0     H 4739   6.964   3.354   7.080  2.2037  0.7419  2.5787
  776MOL0     H 4740   6.772   3.570   7.009  2.9548  1.0516  2.6023
  776MOL0     H 4741   6.723   3.411   7.043 -2.5309  1.2574 -2.0066
  776MOL0     H 4742   7.528   3.192   7.254  0.1837 -0.3873  0.0178
  776MOL0     H 4743   7.763   3.072   7.261  1.7766  0.7154 -0.1434
  776MOL0     H 4744   8.067   3.055   7.586 -3.0514 -1.7251  1.2018
  776MOL0     H 4745   8.306   3.029   7.642  1.5694 -0.6841  0.7019
  776MOL0     H 4746   9.360   3.489   6.962  0.5583  3.7413  1.0035
  776MOL0     H 4747   9.519   3.670   7.033 -1.1463 -0.1227  0.3406
  776MOL0     H 4748   9.852   4.059   6.813 -1.2775 -0.9386  0.6063
  776MOL0     H 4749  10.057   4.193   6.879 -0.8329 -0.0750 -0.8826
  776MOL0     H 4750  10.293   4.077   7.224 -0.3146 -0.9819 -0.5454
  776MOL0     H 4751  10.392   4.021   7.078  1.2716  1.3939 -2.0338
  776MOL0     H 4752  10.367   4.290   7.177 -0.8221 -0.4908 -0.0274
  776MOL0     H 4753  10.467   4.239   7.037 -2.2193 -0.3700  0.0186
  776MOL0     H 4754  10.520   4.122   7.315  2.4135 -3.4420 -1.3132
  776MOL0     H 4755  10.595   4.272   7.277  1.0793  0.4185  1.4262
  776MOL0     H 4756  10.709   4.194   7.083 -0.6615  0.4312 -0.0899
  776MOL0     H 4757  10.639   4.028   7.102 -0.9362 -0.9218  0.2487
  776MOL0     H 4758  10.915   4.029   7.420 -1.9517 -0.9274  1.1625
  776MOL0     H 4759  10.154   3.935   7.181  0.5607 -3.1108 -1.2757
  776MOL0     H 4760   9.956   3.775   7.122 -2.2973  0.9103  0.0384
  777MOL0     O 4761   9.142   8.423   0.434  0.0889 -0.0568  1.0739
  777MOL0     C 4762   9.167   8.307   0.436 -0.0363  1.2837 -0.9730
  777MOL0     O 4763   9.076   8.209   0.464  0.6088 -0.1658  0.2190
  777MOL0     C 4764   8.946   8.249   0.509 -0.1642 -0.2796  0.3642
  777MOL0     C 4765   8.838   8.172   0.464  0.7252  0.0967  0.0650
  777MOL0     C 4766   8.702   8.216   0.489  0.5546 -0.0489  0.1389
  777MOL0     C 4767   8.678   8.329   0.572 -0.0586  0.7973  0.6219
  777MOL0     O 4768   8.556   8.374   0.607 -0.4039 -0.2503  0.6254
  777MOL0     C 4769   8.442   8.299   0.569 -0.5379  0.2251 -0.0220
  777MOL0     C 4770   8.412   8.179   0.665 -0.2287 -0.4991  0.7505
  777MOL0     C 4771   8.438   8.213   0.814  0.2440  0.3701 -0.3882
  777MOL0     C 4772   8.397   8.095   0.907 -0.7105 -0.8233 -0.1912
  777MOL0     C 4773   8.389   8.136   1.060  0.5961  0.7421 -0.3173
  777MOL0     C 4774   8.260   8.217   1.107 -0.5247  1.6800 -1.5947
  777MOL0     C 4775   8.267   8.271   1.253 -0.0212  0.3756  0.0495
  777MOL0     C 4776   8.230   8.174   1.371  0.1130 -0.1349  0.2388
  777MOL0     N 4777   8.084   8.142   1.384 -0.5236  0.8567 -0.1993
  777MOL0     C 4778   7.996   8.233   1.426 -0.7040  0.3992 -0.5719
  777MOL0     C 4779   7.886   8.158   1.453  0.0151 -0.6464  0.7596
  777MOL0     C 4780   7.766   8.224   1.514 -0.1908  0.1988  0.4067
  777MOL0     C 4781   7.639   8.144   1.492 -0.1032 -0.0914  0.5223
  777MOL0     C 4782   7.509   8.208   1.557  0.0754 -0.1842 -0.3780
  777MOL0     C 4783   7.376   8.118   1.540 -0.9387 -0.9073  0.4901
  777MOL0     O 4784   7.269   8.169   1.626 -0.2329  0.5228  0.3050
  777MOL0     C 4785   7.196   8.279   1.615 -0.2119 -1.1692 -0.7374
  777MOL0     C 4786   7.093   8.280   1.706  0.8703  0.8002 -0.2408
  777MOL0     C 4787   6.992   8.379   1.710 -0.1889 -0.0582 -0.1970
  777MOL0     C 4788   6.885   8.370   1.816  0.5850  0.1957  0.1944
  777MOL0     C 4789   7.002   8.484   1.619  0.2326 -0.3819  0.0010
  777MOL0     C 4790   6.901   8.590   1.604 -0.9899 -0.4910 -0.3729
  777MOL0     O 4791   6.913   8.659   1.494 -1.1952 -0.2890  0.3967
  777MOL0     C 4792   6.796   8.715   1.457 -0.2540  0.1364  0.6695
  777MOL0     C 4793   6.772   8.853   1.471  0.2313 -0.8488 -0.5071
  777MOL0     C 4794   6.652   8.914   1.436 -0.3657  0.7366  0.5665
  777MOL0     C 4795   6.548   8.828   1.383 -0.3944 -0.9562  0.8869
  777MOL0     O 4796   6.436   8.899   1.340 -0.1128 -0.1222  0.3614
  777MOL0     C 4797   6.331   8.827   1.261 -0.7390  0.3114  0.1943
  777MOL0     C 4798   6.186   8.894   1.274 -0.3270  0.2140  0.1367
  777MOL0     C 4799   6.089   8.819   1.179  0.2581  0.0980 -0.0788
  777MOL0     C 4800   5.985   8.924   1.132 -0.8138  0.9970 -0.0207
  777MOL0     C 4801   5.859   8.849   1.076  0.5779 -0.2063 -0.2947
  777MOL0     C 4802   5.901   8.763   0.960 -0.3630  0.9985  0.1780
  777MOL0     C 4803   5.781   8.693   0.887  0.6294  0.6836  0.3523
  777MOL0     C 4804   5.677   8.635   0.991  0.2987  0.4807  0.6376
  777MOL0    Cl 4805   5.766   8.504   1.070  0.4118  0.3561  0.1748
  777MOL0     C 4806   6.575   8.692   1.356 -0.2875 -0.4725  0.0168
  777MOL0     C 4807   6.700   8.643   1.388 -0.6810 -0.0745 -1.0722
  777MOL0     O 4808   6.812   8.604   1.690 -0.1274 -0.0654 -0.1664
  777MOL0     C 4809   7.112   8.486   1.528  0.2272  0.2323  0.6700
  777MOL0     C 4810   7.204   8.379   1.523  0.6047 -0.6924 -0.4874
  777MOL0     N 4811   7.906   8.023   1.428 -0.2251  0.0454  0.1209
  777MOL0     N 4812   8.029   8.016   1.381 -0.0697  0.1073  0.2421
  777MOL0     C 4813   8.790   8.394   0.620  0.0629  0.2515  0.0041
  777MOL0     C 4814   8.920   8.360   0.590  0.5622  0.3943 -0.4731
  777MOL0     C 4815   9.301   8.264   0.405 -0.2002  0.0025  0.4326
  777MOL0     C 4816   9.357   8.152   0.466 -0.7939 -0.1646  0.2744
  777MOL0     C 4817   9.489   8.108   0.432 -0.1725 -0.4684  0.0632
  777MOL0     C 4818   9.563   8.174   0.334  0.2424 -0.3575  0.0627
  777MOL0     O 4819   9.687   8.143   0.299 -0.9051 -0.3138  0.3162
  777MOL0     C 4820   9.761   8.065   0.397 -0.5164  0.7709  0.6490
  777MOL0     C 4821   9.913   8.087   0.376 -0.6232  0.1470 -0.3113
  777MOL0     C 4822   9.991   7.966   0.420  0.2475 -0.4903  0.2335
  777MOL0     C 4823   9.968   7.924   0.570  0.9183  0.2976 -0.2119
  777MOL0     C 4824   9.834   7.862   0.604 -0.4916  0.1281 -0.8777
  777MOL0     C 4825   9.740   7.801   0.649 -0.4186  1.0381 -0.2526
  777MOL0     C 4826   9.503   8.284   0.271 -0.7012 -0.4382  0.0074
  777MOL0     C 4827   9.375   8.335   0.305  0.5822  0.2307  0.1430
  777MOL0     H 4828   8.859   8.083   0.404 -0.2083 -0.8766  1.1477
  777MOL0     H 4829   8.618   8.159   0.452 -0.8484  1.9757  0.0031
  777MOL0     H 4830   8.352   8.361   0.575 -2.1010 -1.7268 -1.5107
  777MOL0     H 4831   8.460   8.281   0.462  6.4117 -1.0523  0.9046
  777MOL0     H 4832   8.310   8.143   0.648 -0.8684  1.8836 -0.9592
  777MOL0     H 4833   8.483   8.100   0.638  0.1239  0.2787 -0.6909
  777MOL0     H 4834   8.545   8.232   0.828 -0.3402  2.7232  1.3779
  777MOL0     H 4835   8.376   8.297   0.845  1.2227 -0.0040  2.9226
  777MOL0     H 4836   8.299   8.053   0.879 -0.8330 -0.7046  0.0568
  777MOL0     H 4837   8.471   8.016   0.893 -0.5842 -0.9901  1.2298
  777MOL0     H 4838   8.393   8.042   1.116  4.2980  0.9747  0.0521
  777MOL0     H 4839   8.471   8.197   1.100 -1.5172  2.8986  1.0873
  777MOL0     H 4840   8.241   8.310   1.052 -1.3778  3.7341  1.8782
  777MOL0     H 4841   8.170   8.158   1.091  0.1159 -0.0004  0.6478
  777MOL0     H 4842   8.366   8.317   1.267  0.2574  1.1888 -3.7106
  777MOL0     H 4843   8.202   8.357   1.273 -0.5857 -0.0308 -0.0436
  777MOL0     H 4844   8.275   8.216   1.462  1.5274 -1.3402  0.1348
  777MOL0     H 4845   8.281   8.078   1.355  2.6218  1.3213 -1.2892
  777MOL0     H 4846   8.016   8.339   1.442 -1.7505  0.7004 -1.1218
  777MOL0     H 4847   7.793   8.234   1.620 -0.4886 -1.1497  0.6427
  777MOL0     H 4848   7.751   8.325   1.475 -0.7838  0.0928  0.3437
  777MOL0     H 4849   7.654   8.052   1.548 -2.7278 -0.2501  1.1001
  777MOL0     H 4850   7.621   8.126   1.385  2.0592  1.0225 -0.0863
  777MOL0     H 4851   7.497   8.309   1.516  1.5849 -0.0015 -0.4533
  777MOL0     H 4852   7.533   8.230   1.662  0.7070  0.7653 -0.7021
  777MOL0     H 4853   7.395   8.014   1.567  0.9810 -0.1381  2.5000
  777MOL0     H 4854   7.344   8.119   1.435 -0.9010 -0.0714  0.4798
  777MOL0     H 4855   7.092   8.201   1.780 -0.5031  0.5372 -0.5302
  777MOL0     H 4856   6.871   8.459   1.877  0.0927  0.7047 -0.6564
  777MOL0     H 4857   6.794   8.339   1.763 -0.2236  2.2688  0.3145
  777MOL0     H 4858   6.905   8.292   1.890 -2.2664  1.7653  2.8603
  777MOL0     H 4859   6.827   8.929   1.526 -1.1731 -0.4173  0.3626
  777MOL0     H 4860   6.644   9.020   1.458  0.0267  0.8588  0.1317
  777MOL0     H 4861   6.371   8.818   1.159  0.1259 -1.7785  0.6752
  777MOL0     H 4862   6.315   8.727   1.302 -2.2953  0.1651 -0.7089
  777MOL0     H 4863   6.138   8.892   1.373  3.0727  2.2506  2.0213
  777MOL0     H 4864   6.201   8.997   1.243 -0.3034  0.1659 -0.0119
  777MOL0     H 4865   6.034   8.733   1.218 -0.4152  0.4753 -0.1638
  777MOL0     H 4866   6.138   8.788   1.087 -1.7299 -2.2435 -0.4545
  777MOL0     H 4867   5.961   8.989   1.217  4.6397  0.3103  2.5147
  777MOL0     H 4868   6.045   8.983   1.062  1.5356 -2.3487 -1.0957
  777MOL0     H 4869   5.779   8.915   1.040 -0.9154 -2.2717 -0.9476
  777MOL0     H 4870   5.818   8.797   1.162  0.4666  2.8406  1.6409
  777MOL0     H 4871   5.966   8.814   0.888  1.0413 -1.8708 -0.7242
  777MOL0     H 4872   5.962   8.681   0.999 -4.0030 -2.1937 -0.2578
  777MOL0     H 4873   5.817   8.608   0.829  0.3837  1.3663 -0.8403
  777MOL0     H 4874   5.735   8.766   0.819  1.0797  1.6107  1.0141
  777MOL0     H 4875   5.594   8.587   0.939  1.2970 -0.7708  0.1361
  777MOL0     H 4876   5.632   8.713   1.053 -2.3880  3.7190 -4.7416
  777MOL0     H 4877   6.497   8.623   1.322 -1.0520 -0.6918  2.0874
  777MOL0     H 4878   6.726   8.539   1.368  1.8782  0.0317  1.0553
  777MOL0     H 4879   7.140   8.568   1.463  2.1439  1.2639  2.6523
  777MOL0     H 4880   7.291   8.390   1.459  1.0143  0.2046  0.2005
  777MOL0     H 4881   8.774   8.474   0.691 -0.6550 -0.3266  0.5106
  777MOL0     H 4882   9.001   8.423   0.626  1.3286 -1.7970  1.9709
  777MOL0     H 4883   9.308   8.081   0.531  0.5036 -1.7270 -0.3858
  777MOL0     H 4884   9.527   8.023   0.487  0.0523  1.1765  2.6099
  777MOL0     H 4885   9.740   8.095   0.500 -1.6516 -1.4084  1.1191
  777MOL0     H 4886   9.731   7.960   0.387 -1.0716  0.6354  3.0962
  777MOL0     H 4887   9.957   8.177   0.418  0.7966  0.5225 -2.4407
  777MOL0     H 4888   9.939   8.093   0.270 -0.4959 -0.9388 -0.3549
  777MOL0     H 4889  10.098   7.989   0.416  0.0954  0.1557 -0.2582
  777MOL0     H 4890   9.980   7.884   0.349  1.2856 -0.2145 -0.2616
  777MOL0     H 4891   9.980   8.021   0.620  1.4990  0.8793 -1.4233
  777MOL0     H 4892  10.037   7.854   0.617 -2.0610 -0.6479  3.1983
  777MOL0     H 4893   9.670   7.728   0.686  2.3288 -0.1165  3.2480
  777MOL0     H 4894   9.546   8.350   0.196 -0.6888  0.7963  1.0585
  777MOL0     H 4895   9.331   8.427   0.267 -1.6792 -0.7192  0.3332
  778MOL0     O 4896   6.796   6.753   3.889 -0.0691 -0.2889  0.1645
  778MOL0     C 4897   6.800   6.807   3.998 -0.1000 -0.2800  0.2095
  778MOL0     O 4898   6.710   6.779   4.108 -0.8046  0.6021 -0.7352
  778MOL0     C 4899   6.598   6.709   4.080 -0.2289 -0.2527  0.1079
  778MOL0     C 4900   6.474   6.775   4.067  0.1043  0.4952  0.3938
  778MOL0     C 4901   6.361   6.717   4.009 -0.6206  0.2449 -0.2031
  778MOL0     C 4902   6.356   6.581   3.977  0.4507 -1.1091 -0.8823
  778MOL0     O 4903   6.235   6.543   3.926 -0.4754 -0.8687 -0.4807
  778MOL0     C 4904   6.221   6.397   3.914 -0.1637 -0.7926 -0.1680
  778MOL0     C 4905   6.070   6.360   3.903  0.5345  0.2629 -0.0545
  778MOL0     C 4906   6.044   6.218   3.947 -0.6539  0.0996 -0.5162
  778MOL0     C 4907   5.901   6.185   3.987  0.8984 -0.4655  0.7812
  778MOL0     C 4908   5.865   6.036   3.959  0.4067  0.1683 -0.9074
  778MOL0     C 4909   5.748   5.979   4.041  0.5239 -0.0096 -0.4994
  778MOL0     C 4910   5.633   6.076   4.033  0.5039 -0.5597  0.2689
  778MOL0     C 4911   5.517   5.998   4.108  0.7747 -0.9954  0.6479
  778MOL0     N 4912   5.383   6.052   4.070  0.3651 -0.6889 -0.0781
  778MOL0     C 4913   5.305   6.131   4.155  0.3603 -0.5575  0.5976
  778MOL0     C 4914   5.180   6.114   4.103 -0.0400 -0.7871  0.2265
  778MOL0     C 4915   5.047   6.179   4.143  0.2437 -0.1041 -0.0523
  778MOL0     C 4916   5.052   6.334   4.140 -0.2481 -0.8156 -0.5642
  778MOL0     C 4917   4.914   6.387   4.128  0.0873  0.3721 -0.3468
  778MOL0     C 4918   4.889   6.524   4.190  0.4965 -0.6451  0.0873
  778MOL0     O 4919   4.747   6.558   4.180  0.0400 -0.0267 -0.8003
  778MOL0     C 4920   4.649   6.495   4.260  0.0269 -0.1473 -0.2778
  778MOL0     C 4921   4.679   6.401   4.353 -1.2323  0.2018 -0.5977
  778MOL0     C 4922   4.582   6.351   4.448 -0.5118 -0.2479  0.0635
  778MOL0     C 4923   4.636   6.262   4.561 -0.1226  0.6389  0.4782
  778MOL0     C 4924   4.447   6.397   4.429  0.4249 -0.4087 -0.1099
  778MOL0     C 4925   4.330   6.321   4.480 -0.8375  0.2581  0.0342
  778MOL0     O 4926   4.206   6.359   4.444 -0.2801  0.4226 -1.3469
  778MOL0     C 4927   4.096   6.291   4.491 -0.0929 -0.7940  0.7838
  778MOL0     C 4928   4.079   6.156   4.469 -0.3118 -0.7090 -0.5372
  778MOL0     C 4929   3.973   6.091   4.543  0.3033 -0.5406  0.6133
  778MOL0     C 4930   3.885   6.167   4.620  1.4849  0.0258 -0.8133
  778MOL0     O 4931   3.770   6.103   4.674  0.5924 -0.8998  0.5086
  778MOL0     C 4932   3.694   6.166   4.769 -0.1479 -0.4280  0.2204
  778MOL0     C 4933   3.579   6.086   4.795 -0.0103  0.4235  0.4827
  778MOL0     C 4934   3.469   6.169   4.867 -0.4103  0.1744  0.2842
  778MOL0     C 4935   3.352   6.069   4.877  0.0900 -0.3876  0.4793
  778MOL0     C 4936   3.224   6.123   4.950 -0.4799 -0.0364 -0.4169
  778MOL0     C 4937   3.156   6.211   4.849  0.7641  0.6591  0.2710
  778MOL0     C 4938   3.024   6.256   4.915  0.1226 -0.4322 -0.5940
  778MOL0     C 4939   2.945   6.357   4.824  0.7567  0.9567  0.2052
  778MOL0    Cl 4940   3.042   6.489   4.774  0.2195  0.2940 -0.1727
  778MOL0     C 4941   3.903   6.303   4.635 -0.0875  0.1200 -0.5560
  778MOL0     C 4942   4.004   6.364   4.570  0.5353  0.3075  0.0043
  778MOL0     O 4943   4.352   6.214   4.539 -0.3315 -0.2144 -0.3527
  778MOL0     C 4944   4.417   6.497   4.331  0.3026 -0.2707  0.7538
  778MOL0     C 4945   4.518   6.546   4.241  0.5496  0.1235 -0.7553
  778MOL0     N 4946   5.176   6.023   4.001 -0.5368 -0.2032 -0.2578
  778MOL0     N 4947   5.297   5.990   3.978  0.0056 -0.0354 -0.5052
  778MOL0     C 4948   6.477   6.502   3.995 -0.2009 -0.3905 -0.3940
  778MOL0     C 4949   6.598   6.568   4.040 -0.6762 -0.6745 -0.0466
  778MOL0     C 4950   6.924   6.883   4.026 -0.1347 -0.1412 -0.5712
  778MOL0     C 4951   7.025   6.894   3.929  0.0101  0.3704 -0.2159
  778MOL0     C 4952   7.134   6.969   3.947  0.2373 -0.1611 -0.4897
  778MOL0     C 4953   7.151   7.031   4.078 -0.9011  0.5280  1.1079
  778MOL0     O 4954   7.252   7.120   4.106 -0.0353 -0.1458 -0.0609
  778MOL0     C 4955   7.364   7.123   4.020 -0.3832 -0.6720  0.2155
  778MOL0     C 4956   7.468   7.017   4.057  0.0185  0.6808 -0.2552
  778MOL0     C 4957   7.595   7.034   3.976 -0.2162 -0.4565 -0.1233
  778MOL0     C 4958   7.714   6.950   4.034  0.2140 -0.5297  0.7315
  778MOL0     C 4959   7.755   6.980   4.172  0.4820 -0.9810 -0.0946
  778MOL0     C 4960   7.793   7.007   4.285  0.8771 -0.0823 -0.3632
  778MOL0     C 4961   7.066   7.002   4.179  0.9698  0.2902 -0.4425
  778MOL0     C 4962   6.954   6.926   4.154  0.2283  0.0403 -0.5144
  778MOL0     H 4963   6.459   6.882   4.078 -0.7775  0.6828 -2.0589
  778MOL0     H 4964   6.279   6.784   3.986  1.2196  1.2310 -5.2743
  778MOL0     H 4965   6.275   6.373   3.821  1.4739 -1.0075  0.8085
  778MOL0     H 4966   6.275   6.338   3.988  0.0820 -0.1824  0.1471
  778MOL0     H 4967   6.007   6.422   3.967  2.2014  1.8342  0.1468
  778MOL0     H 4968   6.035   6.367   3.800  1.8738 -0.2906 -0.5713
  778MOL0     H 4969   6.071   6.148   3.867 -1.1207 -0.0741 -0.5230
  778MOL0     H 4970   6.102   6.192   4.036 -0.1874 -2.2535 -1.4323
  778MOL0     H 4971   5.898   6.209   4.093 -0.7092  0.3738  0.5711
  778MOL0     H 4972   5.829   6.250   3.937  1.9837 -0.3419 -0.6966
  778MOL0     H 4973   5.848   6.011   3.854  0.1340  0.5008 -0.9408
  778MOL0     H 4974   5.954   5.979   3.987  0.0500  0.8104  1.8489
  778MOL0     H 4975   5.731   5.875   4.012 -0.4951  0.4165 -1.4820
  778MOL0     H 4976   5.782   5.977   4.145  1.5094 -0.8746 -0.8111
  778MOL0     H 4977   5.653   6.175   4.076 -3.0164  1.1358 -1.6082
  778MOL0     H 4978   5.600   6.096   3.931  1.9851  0.2065 -0.0905
  778MOL0     H 4979   5.522   6.011   4.216  0.6317  1.3167  0.4188
  778MOL0     H 4980   5.516   5.892   4.080 -2.9799 -1.0660  0.5552
  778MOL0     H 4981   5.343   6.179   4.244  1.2483 -0.7479  0.3247
  778MOL0     H 4982   4.971   6.133   4.078  1.2660  0.2885 -1.5926
  778MOL0     H 4983   5.019   6.146   4.243 -3.8525 -1.3301 -1.3913
  778MOL0     H 4984   5.112   6.370   4.056 -1.2578  1.5608 -0.3262
  778MOL0     H 4985   5.107   6.368   4.228  2.0444  0.6416 -2.4306
  778MOL0     H 4986   4.850   6.315   4.179  0.3349  0.6846  0.4181
  778MOL0     H 4987   4.875   6.398   4.026 -1.4335  2.7187  0.4043
  778MOL0     H 4988   4.952   6.602   4.145  1.4074  0.0955  2.4815
  778MOL0     H 4989   4.919   6.526   4.295 -0.3745  4.6129  0.5404
  778MOL0     H 4990   4.784   6.373   4.358 -1.3942 -0.1925  0.9793
  778MOL0     H 4991   4.611   6.301   4.660  0.9889 -1.1074  1.5129
  778MOL0     H 4992   4.601   6.158   4.554  0.4369  0.4727  0.1208
  778MOL0     H 4993   4.745   6.265   4.561 -0.1327  1.2302 -0.6184
  778MOL0     H 4994   4.151   6.100   4.410  1.1747 -1.0308  1.4658
  778MOL0     H 4995   3.974   5.982   4.537  0.7490 -0.5875  1.4051
  778MOL0     H 4996   3.751   6.208   4.853 -0.0992  0.9261 -0.4525
  778MOL0     H 4997   3.652   6.257   4.725 -0.0868  0.2491  1.4898
  778MOL0     H 4998   3.548   6.038   4.702 -0.6437 -0.0055  0.9123
  778MOL0     H 4999   3.621   6.007   4.858 -1.9019  0.6800  2.1331
  778MOL0     H 5000   3.444   6.257   4.807  1.8571 -0.4983 -1.8135
  778MOL0     H 5001   3.520   6.198   4.960  3.7292  0.4849 -1.8488
  778MOL0     H 5002   3.329   6.029   4.778  1.4267 -1.1264  0.4475
  778MOL0     H 5003   3.384   5.986   4.940 -0.2529  0.3582  1.6672
  778MOL0     H 5004   3.266   6.188   5.027  2.4437 -0.6463 -1.3682
  778MOL0     H 5005   3.161   6.041   4.985 -1.9707  1.3879  0.3865
  778MOL0     H 5006   3.226   6.288   4.816  1.9628 -0.8379 -0.7715
  778MOL0     H 5007   3.133   6.156   4.758  3.9917  0.3075 -0.4244
  778MOL0     H 5008   3.041   6.303   5.012 -3.4602  0.2123 -0.1364
  778MOL0     H 5009   2.952   6.177   4.941 -0.1005 -2.2902 -5.6986
  778MOL0     H 5010   2.864   6.397   4.887 -1.5093  0.5323 -2.2618
  778MOL0     H 5011   2.896   6.292   4.752  0.2417 -0.9264  2.1389
  778MOL0     H 5012   3.830   6.357   4.694 -0.6331 -2.5949  1.4411
  778MOL0     H 5013   4.029   6.467   4.595  0.1578  0.3584  0.1813
  778MOL0     H 5014   4.316   6.532   4.313 -0.1294 -1.2563  1.1966
  778MOL0     H 5015   4.504   6.623   4.165  2.6013  0.0947 -1.2122
  778MOL0     H 5016   6.485   6.398   3.963 -0.5229 -0.2688 -0.8901
  778MOL0     H 5017   6.696   6.520   4.041 -1.3990 -2.7386 -4.1237
  778MOL0     H 5018   7.013   6.839   3.836  0.4678  1.1486 -0.7486
  778MOL0     H 5019   7.197   6.972   3.858  2.0729  0.8090  0.7841
  778MOL0     H 5020   7.342   7.119   3.913  0.6238 -2.5505  0.0324
  778MOL0     H 5021   7.408   7.220   4.046 -0.0520 -1.1242  1.3898
  778MOL0     H 5022   7.421   6.924   4.024 -1.0602  1.5839 -1.4027
  778MOL0     H 5023   7.481   7.009   4.165 -1.4667  0.2784 -0.0868
  778MOL0     H 5024   7.623   7.140   3.982 -2.0013  0.3253 -3.3229
  778MOL0     H 5025   7.581   7.010   3.870 -0.0727  0.4478 -0.3581
  778MOL0     H 5026   7.802   6.971   3.973 -1.1429 -1.6953 -1.7648
  778MOL0     H 5027   7.700   6.843   4.019 -0.4195 -0.6202  1.8242
  778MOL0     H 5028   7.816   7.019   4.389 -0.9110 -2.8189  0.4528
  778MOL0     H 5029   7.078   7.047   4.277  0.3185 -1.2715  0.3827
  778MOL0     H 5030   6.887   6.923   4.240  0.9198  2.1398  0.1651
  779MOL0     O 5031   3.600   5.907   7.678  0.0138  0.3892 -0.4010
  779MOL0     C 5032   3.567   5.797   7.713  0.6650  0.1506 -0.0714
  779MOL0     O 5033   3.441   5.758   7.737  0.4015 -0.3515  0.2345
  779MOL0     C 5034   3.321   5.828   7.726 -0.0673  0.7813  0.7611
  779MOL0     C 5035   3.312   5.965   7.717 -0.3103 -0.1996  0.1805
  779MOL0     C 5036   3.190   6.028   7.707  0.5438  0.2742  0.1060
  779MOL0     C 5037   3.072   5.951   7.714 -0.9617  1.0149  0.5961
  779MOL0     O 5038   2.940   5.994   7.708  0.6861  0.2901  0.0419
  779MOL0     C 5039   2.908   6.138   7.720  0.6172  0.8351 -0.6728
  779MOL0     C 5040   2.771   6.144   7.786 -0.2900  0.7139  0.4455
  779MOL0     C 5041   2.657   6.086   7.697  0.0467 -0.2196 -0.2447
  779MOL0     C 5042   2.520   6.119   7.768  0.7360  0.2874  0.0491
  779MOL0     C 5043   2.402   6.114   7.667 -0.2255 -0.3417  0.2404
  779MOL0     C 5044   2.272   6.157   7.741 -0.2971  0.0908 -0.6486
  779MOL0     C 5045   2.149   6.162   7.650 -0.2377  0.0413  0.3824
  779MOL0     C 5046   2.147   6.273   7.554 -0.0123 -0.2687 -1.0144
  779MOL0     N 5047   2.012   6.321   7.523  0.1051 -0.4773  0.2280
  779MOL0     C 5048   1.908   6.243   7.479 -0.5844  0.2374 -0.6446
  779MOL0     C 5049   1.808   6.331   7.471 -0.3309 -0.1834  0.3489
  779MOL0     C 5050   1.667   6.304   7.428  0.1628  0.3963  0.3916
  779MOL0     C 5051   1.635   6.363   7.291 -0.4115 -0.3780 -0.4968
  779MOL0     C 5052   1.699   6.259   7.181  0.2525 -0.4174  0.1445
  779MOL0     C 5053   1.841   6.287   7.137 -0.3047  0.0212 -0.1050
  779MOL0     O 5054   1.850   6.422   7.087 -0.2788  0.0485 -0.6298
  779MOL0     C 5055   1.975   6.458   7.050 -0.5314  0.6819 -0.8727
  779MOL0     C 5056   1.981   6.593   7.039  0.3078  0.2501  0.0566
  779MOL0     C 5057   2.109   6.653   7.030 -0.0598 -0.1552  0.8645
  779MOL0     C 5058   2.104   6.803   7.014 -0.0843 -0.1595 -0.5190
  779MOL0     C 5059   2.231   6.576   7.024  0.3251 -0.2990 -0.1368
  779MOL0     C 5060   2.368   6.637   7.019 -0.8074  0.6043 -0.7372
  779MOL0     O 5061   2.470   6.557   7.061 -0.2315  0.1882  0.8752
  779MOL0     C 5062   2.601   6.616   7.067  1.1338  1.0893  0.6237
  779MOL0     C 5063   2.704   6.528   7.041  0.3410 -0.2263  0.4137
  779MOL0     C 5064   2.839   6.565   7.053 -0.1205  0.9448  0.7705
  779MOL0     C 5065   2.868   6.694   7.083 -0.4503  0.2918 -0.0998
  779MOL0     O 5066   2.996   6.732   7.078 -0.3955 -0.2173 -0.7208
  779MOL0     C 5067   3.096   6.639   7.149  0.6613  0.3691 -1.2234
  779MOL0     C 5068   3.219   6.717   7.173 -1.0515 -0.1598 -0.0352
  779MOL0     C 5069   3.260   6.798   7.049 -0.0887 -1.1507  0.3873
  779MOL0     C 5070   3.399   6.871   7.061 -0.0467 -0.5719  0.2589
  779MOL0     C 5071   3.443   6.932   6.931 -0.3648 -0.2214  0.6238
  779MOL0     C 5072   3.473   6.832   6.812 -0.2446  0.6498  0.0433
  779MOL0     C 5073   3.585   6.732   6.841 -0.3883  0.3118  0.7291
  779MOL0     C 5074   3.590   6.626   6.720  0.3704 -0.1409 -0.0908
  779MOL0    Cl 5075   3.715   6.490   6.731  0.2384 -0.3137  0.1237
  779MOL0     C 5076   2.769   6.778   7.120 -0.3455 -0.0072  0.2253
  779MOL0     C 5077   2.636   6.744   7.110 -0.2815 -0.0413  0.3700
  779MOL0     O 5078   2.381   6.747   6.964  0.1966 -0.2707 -0.2963
  779MOL0     C 5079   2.221   6.437   7.031  0.4537  0.0544 -0.5001
  779MOL0     C 5080   2.094   6.378   7.052  0.4271  0.7620  0.4933
  779MOL0     N 5081   1.854   6.455   7.506  0.6899 -0.4756 -0.2444
  779MOL0     N 5082   1.978   6.455   7.527 -0.1340  0.3774  0.0728
  779MOL0     C 5083   3.088   5.814   7.720 -0.5312 -0.0115  0.4360
  779MOL0     C 5084   3.207   5.744   7.727  0.1693  0.3892 -0.3104
  779MOL0     C 5085   3.668   5.694   7.727  0.3591  0.2235 -0.0235
  779MOL0     C 5086   3.794   5.713   7.679 -0.2212 -0.5739 -0.8700
  779MOL0     C 5087   3.889   5.611   7.689 -0.2542  0.5744 -0.5637
  779MOL0     C 5088   3.870   5.491   7.760  0.8565 -0.0618 -0.1303
  779MOL0     O 5089   3.978   5.405   7.774  0.9198 -0.3203 -0.5597
  779MOL0     C 5090   3.944   5.270   7.774  0.6844  0.0856  0.0845
  779MOL0     C 5091   4.079   5.203   7.730  0.6611 -0.7578  0.2253
  779MOL0     C 5092   4.133   5.260   7.598 -0.2111  0.4947  0.4648
  779MOL0     C 5093   4.250   5.161   7.565 -0.2215 -0.5531 -0.6620
  779MOL0     C 5094   4.275   5.175   7.423 -0.2148 -0.8207 -0.0762
  779MOL0     C 5095   4.298   5.185   7.307 -0.1006  0.1775 -0.0380
  779MOL0     C 5096   3.735   5.472   7.806 -0.8434 -0.7837  0.6511
  779MOL0     C 5097   3.641   5.573   7.792 -0.7414  0.1935 -0.6160
  779MOL0     H 5098   3.403   6.018   7.692  0.0088 -0.8359 -0.0203
  779MOL0     H 5099   3.187   6.131   7.674  1.6082  0.2785 -0.0176
  779MOL0     H 5100   2.980   6.196   7.779  1.0951 -0.0296 -0.3806
  779MOL0     H 5101   2.892   6.174   7.618  1.1783  0.3780 -0.9329
  779MOL0     H 5102   2.767   6.084   7.877 -1.4574 -2.7667 -1.7211
  779MOL0     H 5103   2.754   6.252   7.796 -1.9439  0.8660 -2.6435
  779MOL0     H 5104   2.654   6.149   7.607  0.8740  3.4085  2.0581
  779MOL0     H 5105   2.673   5.979   7.688  1.9838 -0.0414  0.5117
  779MOL0     H 5106   2.508   6.050   7.853 -0.4782  0.9328  0.4184
  779MOL0     H 5107   2.519   6.224   7.798 -4.0308 -0.1335  2.2448
  779MOL0     H 5108   2.418   6.178   7.580  0.9657  0.2541  0.8661
  779MOL0     H 5109   2.386   6.008   7.647 -0.6441 -0.4111  0.8803
  779MOL0     H 5110   2.240   6.092   7.822 -3.1938  1.3457 -0.6353
  779MOL0     H 5111   2.286   6.259   7.780 -3.6671  1.0780 -1.6816
  779MOL0     H 5112   2.131   6.071   7.591  1.6736  1.4258 -2.6065
  779MOL0     H 5113   2.057   6.161   7.709 -1.6045 -0.3326 -1.6223
  779MOL0     H 5114   2.184   6.251   7.454 -3.7679  0.9236 -2.8265
  779MOL0     H 5115   2.199   6.359   7.598  0.9499 -1.7858  1.0222
  779MOL0     H 5116   1.904   6.140   7.446 -0.0233  0.7349 -2.3544
  779MOL0     H 5117   1.650   6.196   7.433  2.3588  0.0021  0.5594
  779MOL0     H 5118   1.606   6.348   7.508  2.0480  1.1868  1.4604
  779MOL0     H 5119   1.685   6.460   7.282 -2.4077  0.4663 -5.7846
  779MOL0     H 5120   1.530   6.371   7.262 -0.1202  3.8944 -0.9770
  779MOL0     H 5121   1.643   6.272   7.087  1.2270 -0.2376 -0.4196
  779MOL0     H 5122   1.699   6.156   7.215 -0.7210  0.1717  2.0590
  779MOL0     H 5123   1.873   6.211   7.064  0.2719  0.6470 -0.5119
  779MOL0     H 5124   1.903   6.277   7.227  1.8627 -0.0157 -1.5257
  779MOL0     H 5125   1.891   6.653   7.043  0.9660  1.3594 -0.9112
  779MOL0     H 5126   2.124   6.818   6.908  1.9923 -4.2105 -0.9179
  779MOL0     H 5127   2.005   6.843   7.037  1.4224  1.4483  4.5187
  779MOL0     H 5128   2.180   6.858   7.070  0.9388 -1.5736 -0.4751
  779MOL0     H 5129   2.676   6.426   7.015 -0.2597 -0.3765  1.6243
  779MOL0     H 5130   2.905   6.484   7.024 -2.8673 -0.6465 -1.5791
  779MOL0     H 5131   3.059   6.600   7.244  1.8156 -0.8313 -1.2413
  779MOL0     H 5132   3.125   6.558   7.081 -0.6726 -0.5979 -0.6771
  779MOL0     H 5133   3.213   6.779   7.263 -0.6797 -1.6947  1.0931
  779MOL0     H 5134   3.299   6.645   7.193 -1.5692 -0.3417  1.5594
  779MOL0     H 5135   3.182   6.873   7.034  0.3474 -0.7493  0.0810
  779MOL0     H 5136   3.264   6.728   6.965  1.5942  1.5845 -2.0130
  779MOL0     H 5137   3.387   6.948   7.137 -2.7554  2.5990 -2.9893
  779MOL0     H 5138   3.471   6.796   7.094 -0.7815 -2.7317 -2.5897
  779MOL0     H 5139   3.534   6.991   6.942  0.2444 -1.2281  1.1583
  779MOL0     H 5140   3.362   7.003   6.910  0.3746  0.4272 -0.1046
  779MOL0     H 5141   3.387   6.770   6.785 -0.9015  0.7211  1.8317
  779MOL0     H 5142   3.504   6.881   6.719  0.0082 -0.5311 -0.5198
  779MOL0     H 5143   3.559   6.670   6.927 -1.5328  1.6382  1.3766
  779MOL0     H 5144   3.686   6.770   6.858 -0.3600 -1.2150  5.4085
  779MOL0     H 5145   3.605   6.687   6.630  1.5952 -2.8622 -1.8704
  779MOL0     H 5146   3.490   6.588   6.695 -0.5718  1.4926  0.9952
  779MOL0     H 5147   2.801   6.880   7.143  0.3182 -0.4646  1.4134
  779MOL0     H 5148   2.557   6.817   7.118 -2.1746 -1.8708 -0.6281
  779MOL0     H 5149   2.303   6.366   7.021  0.0332 -0.2980 -1.5839
  779MOL0     H 5150   2.086   6.273   7.078  0.0901  0.9709  1.2571
  779MOL0     H 5151   2.996   5.757   7.728 -1.0958  0.2794 -2.8480
  779MOL0     H 5152   3.208   5.635   7.729 -4.4538  0.1364  0.2753
  779MOL0     H 5153   3.828   5.809   7.641  1.4819 -1.4707 -1.7228
  779MOL0     H 5154   3.988   5.624   7.647  0.7074 -0.9508  1.0705
  779MOL0     H 5155   3.918   5.238   7.876  2.4256 -1.3075  0.1559
  779MOL0     H 5156   3.861   5.247   7.707 -1.5774  0.4125  2.6258
  779MOL0     H 5157   4.069   5.094   7.723  3.8167 -1.1399  0.1079
  779MOL0     H 5158   4.163   5.221   7.799  1.6539 -0.9431 -0.8982
  779MOL0     H 5159   4.170   5.361   7.618 -0.4318  0.0113  3.8977
  779MOL0     H 5160   4.053   5.261   7.522  0.5044 -0.6094 -0.3483
  779MOL0     H 5161   4.216   5.060   7.588 -0.7065  0.0979  1.7802
  779MOL0     H 5162   4.341   5.186   7.621  1.4460 -2.3925 -2.4280
  779MOL0     H 5163   4.320   5.199   7.203 -2.1222 -2.5753 -0.9553
  779MOL0     H 5164   3.708   5.380   7.856 -0.2444  0.5087  3.5437
  779MOL0     H 5165   3.546   5.556   7.842 -0.0911  2.1875  1.4698
  780MOL0     O 5166   3.723   5.435   2.374 -0.0277  0.1748  0.1740
  780MOL0     C 5167   3.736   5.504   2.472 -0.7693 -0.1643  0.0629
  780MOL0     O 5168   3.638   5.579   2.524 -0.0032 -0.0496 -0.6159
  780MOL0     C 5169   3.515   5.569   2.466  0.3080  0.4360 -0.1064
  780MOL0     C 5170   3.430   5.456   2.486 -0.3270  0.7676 -0.8812
  780MOL0     C 5171   3.303   5.459   2.426  0.1218 -0.3521  0.4267
  780MOL0     C 5172   3.274   5.562   2.338  0.9172 -0.0377 -0.2882
  780MOL0     O 5173   3.169   5.574   2.247 -0.8525  0.2439 -0.3970
  780MOL0     C 5174   3.084   5.457   2.233  0.2391  0.1384  0.5786
  780MOL0     C 5175   2.975   5.476   2.128 -0.0607  0.3813  0.3260
  780MOL0     C 5176   2.880   5.591   2.162 -0.5184  0.3062 -0.4121
  780MOL0     C 5177   2.763   5.614   2.062  0.4784 -0.6043 -0.0974
  780MOL0     C 5178   2.687   5.749   2.093  0.3518 -0.1621 -0.1685
  780MOL0     C 5179   2.603   5.727   2.214  0.1977  0.1957  0.2618
  780MOL0     C 5180   2.515   5.848   2.243 -1.0383  0.2313 -0.2081
  780MOL0     C 5181   2.436   5.818   2.371 -0.0793  0.5042  0.8284
  780MOL0     N 5182   2.316   5.743   2.350 -0.1638  0.1836  0.4923
  780MOL0     C 5183   2.189   5.793   2.341 -0.7024 -0.1751 -0.0329
  780MOL0     C 5184   2.105   5.685   2.348 -0.0249  0.5837 -0.1841
  780MOL0     C 5185   1.962   5.688   2.325  0.6004  0.6062  0.2317
  780MOL0     C 5186   1.887   5.583   2.405  0.4542 -0.4204 -0.4737
  780MOL0     C 5187   1.737   5.591   2.372 -0.3540 -0.2768  0.0535
  780MOL0     C 5188   1.642   5.500   2.455 -0.3406 -0.1008 -0.0507
  780MOL0     O 5189   1.516   5.481   2.384  0.1068  0.1506 -0.0271
  780MOL0     C 5190   1.415   5.569   2.394 -0.5762 -0.7760  0.2625
  780MOL0     C 5191   1.392   5.687   2.475  0.2121  0.3044  0.8211
  780MOL0     C 5192   1.276   5.764   2.469  0.0456 -0.4521 -0.5979
  780MOL0     C 5193   1.261   5.895   2.543  0.2139 -0.0089  0.2898
  780MOL0     C 5194   1.170   5.721   2.382 -0.1997 -0.1637 -0.1784
  780MOL0     C 5195   1.050   5.795   2.343  0.3124  0.6783 -0.4253
  780MOL0     O 5196   0.944   5.724   2.293 -1.3059  0.1063 -0.5945
  780MOL0     C 5197   0.833   5.793   2.254  0.1144 -0.9129  0.0526
  780MOL0     C 5198   0.815   5.808   2.114 -0.3944 -0.8629 -0.8812
  780MOL0     C 5199   0.701   5.882   2.074  1.0623 -0.0293 -0.0882
  780MOL0     C 5200   0.626   5.967   2.167 -0.3246 -0.8453  0.8342
  780MOL0     O 5201   0.514   6.028   2.113  0.3467 -0.2918  0.3322
  780MOL0     C 5202   0.401   6.039   2.201  0.3582  0.0609  0.4711
  780MOL0     C 5203   0.283   6.111   2.127  0.8075  0.1917 -0.0771
  780MOL0     C 5204   0.149   6.070   2.183  0.4461 -1.3457  0.2821
  780MOL0     C 5205   0.048   6.175   2.135 -0.3725 -0.4457 -0.3276
  780MOL0     C 5206  -0.095   6.132   2.162 -0.0369  0.6560 -0.4882
  780MOL0     C 5207  -0.202   6.239   2.111  0.1195  0.2060 -0.7379
  780MOL0     C 5208  -0.339   6.209   2.175  0.0795  0.1965  0.5006
  780MOL0     C 5209  -0.434   6.327   2.191  1.3501  0.4449  0.3861
  780MOL0    Cl 5210  -0.588   6.272   2.278  0.0972  0.2239  0.2722
  780MOL0     C 5211   0.660   5.960   2.306  0.5387  0.0307  0.2188
  780MOL0     C 5212   0.754   5.861   2.357 -0.3613  0.3237  0.6642
  780MOL0     O 5213   1.052   5.912   2.350 -0.8359 -0.2387 -0.1330
  780MOL0     C 5214   1.185   5.605   2.303  0.3501 -0.0843  0.1137
  780MOL0     C 5215   1.313   5.544   2.305  0.3928  1.0034 -0.6169
  780MOL0     N 5216   2.186   5.574   2.372 -0.4101  0.1572  0.1670
  780MOL0     N 5217   2.314   5.610   2.381 -0.0602  0.2095 -0.0267
  780MOL0     C 5218   3.353   5.674   2.332  0.2676 -0.5993 -0.1845
  780MOL0     C 5219   3.470   5.679   2.396 -0.7361  0.6588 -0.1413
  780MOL0     C 5220   3.869   5.503   2.535 -0.1301 -0.0675  0.4095
  780MOL0     C 5221   3.891   5.574   2.650  0.0800 -0.2846 -0.4524
  780MOL0     C 5222   4.024   5.579   2.701  0.2333 -0.9466 -0.3254
  780MOL0     C 5223   4.128   5.508   2.645  0.2875 -0.2236 -0.5028
  780MOL0     O 5224   4.255   5.512   2.704 -0.1000 -0.0858 -0.5007
  780MOL0     C 5225   4.375   5.470   2.636 -0.2894  0.5575 -0.6958
  780MOL0     C 5226   4.492   5.467   2.728 -0.0914 -0.0477 -0.0882
  780MOL0     C 5227   4.488   5.340   2.814 -0.2286  0.9519 -0.1160
  780MOL0     C 5228   4.611   5.316   2.905 -0.4081 -0.2532  0.7638
  780MOL0     C 5229   4.744   5.338   2.835  0.4055  0.1415  0.1162
  780MOL0     C 5230   4.854   5.355   2.780  0.3315  0.3549 -0.0101
  780MOL0     C 5231   4.100   5.434   2.532  0.4545  0.3199  0.7973
  780MOL0     C 5232   3.974   5.425   2.482  0.6425 -0.4438 -0.8601
  780MOL0     H 5233   3.454   5.366   2.543 -1.2279  1.3062  0.3915
  780MOL0     H 5234   3.233   5.376   2.432 -1.0915  0.7390  2.4807
  780MOL0     H 5235   3.133   5.364   2.203 -2.0903 -1.3051  0.9630
  780MOL0     H 5236   3.038   5.443   2.331  1.7719  1.7989  1.5991
  780MOL0     H 5237   3.014   5.491   2.027  0.8962 -1.5141  0.3731
  780MOL0     H 5238   2.906   5.391   2.131 -0.6723  0.8865  2.9323
  780MOL0     H 5239   2.844   5.578   2.265  0.2920  0.0558 -0.1503
  780MOL0     H 5240   2.938   5.684   2.167 -0.1371  0.1235 -1.3038
  780MOL0     H 5241   2.813   5.614   1.964  2.0241 -0.0862  0.6627
  780MOL0     H 5242   2.693   5.531   2.072  2.6830 -2.6751 -0.8885
  780MOL0     H 5243   2.758   5.830   2.117  0.4240 -0.6850  1.5145
  780MOL0     H 5244   2.619   5.769   2.010 -2.1482  1.6418  2.1336
  780MOL0     H 5245   2.547   5.634   2.199 -0.5936  0.9489 -1.9788
  780MOL0     H 5246   2.678   5.725   2.293  2.4437  0.3638 -1.7729
  780MOL0     H 5247   2.583   5.933   2.259 -1.9003  0.9554 -0.3050
  780MOL0     H 5248   2.453   5.865   2.155  0.2990 -0.2449 -1.2863
  780MOL0     H 5249   2.398   5.914   2.407  2.1162  2.2760 -1.2594
  780MOL0     H 5250   2.497   5.769   2.447 -0.8511 -0.3244  0.9313
  780MOL0     H 5251   2.161   5.895   2.317 -0.3911  0.0909  0.7064
  780MOL0     H 5252   1.916   5.785   2.350 -0.8105 -0.4400  1.9566
  780MOL0     H 5253   1.946   5.672   2.219  0.9001 -1.8143  0.5147
  780MOL0     H 5254   1.895   5.602   2.512 -2.4516 -0.6164 -0.1559
  780MOL0     H 5255   1.934   5.487   2.381  2.1756  0.6858 -1.8000
  780MOL0     H 5256   1.726   5.557   2.268 -0.3704  0.9794 -0.3785
  780MOL0     H 5257   1.693   5.690   2.390  0.2285 -0.2716  1.5208
  780MOL0     H 5258   1.627   5.530   2.559 -1.3622  0.2682 -0.2945
  780MOL0     H 5259   1.686   5.400   2.448 -3.4556 -1.7713  1.7727
  780MOL0     H 5260   1.461   5.709   2.557 -0.1809  0.2413  1.1712
  780MOL0     H 5261   1.328   5.899   2.630  0.5596 -1.6883  0.1339
  780MOL0     H 5262   1.288   5.977   2.477  0.5015 -0.5986 -0.3339
  780MOL0     H 5263   1.162   5.919   2.584  0.0392  2.0190 -1.1916
  780MOL0     H 5264   0.872   5.749   2.042  0.5703 -0.1954 -0.6830
  780MOL0     H 5265   0.674   5.883   1.969 -2.0907  2.5032  0.6022
  780MOL0     H 5266   0.365   5.942   2.236  0.6040  0.5941  2.2788
  780MOL0     H 5267   0.420   6.108   2.283 -0.7180  1.6828 -0.5727
  780MOL0     H 5268   0.298   6.218   2.142  0.5884  0.0376  1.3969
  780MOL0     H 5269   0.272   6.083   2.022  0.4289 -3.9117  0.8728
  780MOL0     H 5270   0.146   6.066   2.293  1.2823 -1.3350  0.3132
  780MOL0     H 5271   0.117   5.971   2.150 -0.8705 -1.3072  1.3411
  780MOL0     H 5272   0.064   6.274   2.179  1.0407 -1.9094  2.8355
  780MOL0     H 5273   0.068   6.180   2.028 -1.5868 -1.3070 -0.6213
  780MOL0     H 5274  -0.111   6.109   2.267  0.3855 -0.8917 -0.7240
  780MOL0     H 5275  -0.119   6.035   2.115  1.6742 -0.0707  0.0644
  780MOL0     H 5276  -0.160   6.331   2.152  0.6682 -0.2581 -0.2372
  780MOL0     H 5277  -0.207   6.254   2.003  1.3482  2.1399 -0.5741
  780MOL0     H 5278  -0.325   6.173   2.277 -1.6566 -1.3435  0.2567
  780MOL0     H 5279  -0.385   6.133   2.112  1.1641  1.9821 -2.6823
  780MOL0     H 5280  -0.459   6.378   2.097 -2.4480 -1.0587  0.4066
  780MOL0     H 5281  -0.379   6.397   2.255  1.8694  2.2425 -1.8560
  780MOL0     H 5282   0.601   6.009   2.383  1.8697  2.5639 -0.2703
  780MOL0     H 5283   0.752   5.832   2.462 -3.2918  1.5916  1.0521
  780MOL0     H 5284   1.112   5.577   2.228 -1.4271  1.3387  1.2185
  780MOL0     H 5285   1.334   5.459   2.240 -2.9202  0.6252 -1.4063
  780MOL0     H 5286   3.317   5.744   2.256 -2.5398 -3.3145 -1.5492
  780MOL0     H 5287   3.524   5.772   2.381 -1.2845  1.0641  0.3231
  780MOL0     H 5288   3.818   5.641   2.695 -0.1038 -1.8124  1.6458
  780MOL0     H 5289   4.036   5.647   2.785  0.1506 -3.7627  2.1304
  780MOL0     H 5290   4.366   5.369   2.596 -0.4104  0.5816 -0.7300
  780MOL0     H 5291   4.407   5.534   2.553  2.3776 -0.6366 -0.6951
  780MOL0     H 5292   4.501   5.564   2.778 -0.2583  0.5985 -1.2576
  780MOL0     H 5293   4.576   5.448   2.661 -1.7985 -0.1760 -2.2996
  780MOL0     H 5294   4.490   5.254   2.746 -3.4348 -0.0336  0.8611
  780MOL0     H 5295   4.395   5.334   2.871 -0.6783  2.2170 -0.6650
  780MOL0     H 5296   4.597   5.217   2.950  2.3734 -1.2089 -0.2305
  780MOL0     H 5297   4.617   5.394   2.980  2.1603  0.9226 -0.5297
  780MOL0     H 5298   4.948   5.383   2.736  1.3588  3.3099  3.5951
  780MOL0     H 5299   4.180   5.377   2.486 -2.0066 -0.3977 -3.0056
  780MOL0     H 5300   3.967   5.365   2.392  0.8753  1.0370 -1.9176
  781MOL0     O 5301   2.245   9.895   8.498 -0.3567 -0.8976  0.1966
  781MOL0     C 5302   2.245  10.012   8.539 -0.8246 -0.8774  1.6956
  781MOL0     O 5303   2.140  10.094   8.551 -0.0430  0.8425  0.6017
  781MOL0     C 5304   2.019  10.044   8.508 -0.1847 -0.4166 -0.1755
  781MOL0     C 5305   1.992  10.009   8.375  0.1762 -0.5598  0.2998
  781MOL0     C 5306   1.867   9.958   8.339  0.2222  0.3937 -0.0452
  781MOL0     C 5307   1.770   9.941   8.432  0.3489  0.1055 -0.0715
  781MOL0     O 5308   1.653   9.872   8.389 -0.1383  0.0846  0.3338
  781MOL0     C 5309   1.535   9.873   8.472 -0.4851  0.3002 -0.6748
  781MOL0     C 5310   1.414   9.808   8.404  0.3604  0.6868  0.4241
  781MOL0     C 5311   1.413   9.657   8.400 -0.2088  0.8679  0.2376
  781MOL0     C 5312   1.404   9.609   8.260 -0.0884  0.0121  0.6627
  781MOL0     C 5313   1.374   9.463   8.234  0.1703 -0.7183  0.1265
  781MOL0     C 5314   1.243   9.409   8.292 -0.2048 -0.3855  0.4817
  781MOL0     C 5315   1.112   9.489   8.257  0.4403 -0.7596 -0.1843
  781MOL0     C 5316   0.993   9.432   8.332 -0.5607 -0.4578  0.1031
  781MOL0     N 5317   0.884   9.526   8.340  0.7816  0.2484 -0.1713
  781MOL0     C 5318   0.782   9.550   8.243 -0.5520 -0.0209  0.6749
  781MOL0     C 5319   0.700   9.626   8.306 -0.9746 -0.6069 -0.2194
  781MOL0     C 5320   0.580   9.692   8.256 -0.2444 -0.4186 -0.7617
  781MOL0     C 5321   0.457   9.608   8.281  0.0033  0.0476 -0.1022
  781MOL0     C 5322   0.315   9.667   8.257  0.0818  0.4631 -0.1474
  781MOL0     C 5323   0.275   9.671   8.107 -0.3066  0.2194  1.1228
  781MOL0     O 5324   0.152   9.739   8.076  0.1069 -0.3419 -0.9247
  781MOL0     C 5325   0.030   9.682   8.112 -0.2116 -0.9095 -0.1556
  781MOL0     C 5326   0.011   9.553   8.160 -0.1137  0.3323  0.3485
  781MOL0     C 5327  -0.120   9.502   8.186 -0.9319  0.8651 -0.2849
  781MOL0     C 5328  -0.131   9.369   8.245 -0.1526  0.4750 -0.8705
  781MOL0     C 5329  -0.228   9.584   8.152  0.6755  0.5528 -1.4300
  781MOL0     C 5330  -0.372   9.546   8.169 -0.6264  0.3377 -0.1809
  781MOL0     O 5331  -0.463   9.648   8.177 -0.4478  0.4088 -0.3069
  781MOL0     C 5332  -0.591   9.610   8.203 -0.7756  0.1933 -0.0907
  781MOL0     C 5333  -0.646   9.580   8.328  0.2658 -0.1785 -0.1830
  781MOL0     C 5334  -0.786   9.557   8.346 -0.3528  0.3685  1.3128
  781MOL0     C 5335  -0.872   9.535   8.239  0.0294 -0.3048 -0.0388
  781MOL0     O 5336  -1.005   9.497   8.257  0.9933  0.0663 -0.0299
  781MOL0     C 5337  -1.111   9.564   8.197 -0.4272 -0.3964  0.1190
  781MOL0     C 5338  -1.250   9.506   8.211  0.4139  0.6230 -0.3170
  781MOL0     C 5339  -1.312   9.514   8.349  0.9804  0.1090  1.0349
  781MOL0     C 5340  -1.441   9.439   8.348  0.2702  0.3120 -1.0753
  781MOL0     C 5341  -1.517   9.454   8.481 -0.6329 -0.6429  1.2853
  781MOL0     C 5342  -1.654   9.389   8.481  0.7439  0.6949 -0.4754
  781MOL0     C 5343  -1.727   9.412   8.612  0.0240 -0.6818  0.0277
  781MOL0     C 5344  -1.861   9.346   8.621 -0.5146  0.3837 -0.7344
  781MOL0    Cl 5345  -1.966   9.401   8.493  0.2755  0.5566 -0.0965
  781MOL0     C 5346  -0.815   9.558   8.114 -0.4247  0.8256  0.4324
  781MOL0     C 5347  -0.682   9.608   8.101 -0.7574 -0.1568  0.2821
  781MOL0     O 5348  -0.402   9.427   8.167 -0.1356  0.2765 -0.1043
  781MOL0     C 5349  -0.205   9.708   8.106 -0.3226 -0.3696 -0.1522
  781MOL0     C 5350  -0.078   9.765   8.090  0.0286 -0.5916  0.0501
  781MOL0     N 5351   0.757   9.668   8.422  0.0329 -0.7668 -0.2257
  781MOL0     N 5352   0.871   9.616   8.437 -0.7491 -0.2772 -0.2653
  781MOL0     C 5353   1.795   9.979   8.567  0.0006 -1.1504  0.2176
  781MOL0     C 5354   1.917  10.031   8.602 -0.8294  0.2563  0.0801
  781MOL0     C 5355   2.380  10.071   8.554  0.9396 -0.6027  0.0777
  781MOL0     C 5356   2.505  10.004   8.557  0.2049  0.2416  0.8234
  781MOL0     C 5357   2.627  10.077   8.585  1.0324 -0.0027 -0.1770
  781MOL0     C 5358   2.616  10.215   8.602 -0.3209 -0.4200 -0.7511
  781MOL0     O 5359   2.731  10.298   8.643  1.0438 -0.1297 -0.3535
  781MOL0     C 5360   2.861  10.258   8.628  0.0442  0.5157 -0.3909
  781MOL0     C 5361   2.929  10.201   8.753 -0.6446 -0.2410 -0.0623
  781MOL0     C 5362   2.937  10.312   8.864 -0.3355 -0.0463 -0.5340
  781MOL0     C 5363   2.972  10.256   9.003 -0.0855 -0.2429  0.5324
  781MOL0     C 5364   2.985  10.366   9.094  0.0713  0.4236  0.5992
  781MOL0     C 5365   2.980  10.437   9.190 -0.4188 -0.1021 -0.5619
  781MOL0     C 5366   2.494  10.279   8.599  1.4282 -0.5641 -0.3660
  781MOL0     C 5367   2.383  10.211   8.573  0.5078  0.0122 -0.6326
  781MOL0     H 5368   2.077  10.013   8.307  0.9721 -0.9966  1.2406
  781MOL0     H 5369   1.848   9.938   8.234 -2.1120 -0.8767  0.5326
  781MOL0     H 5370   1.548   9.824   8.569 -1.3151  2.6893  0.7275
  781MOL0     H 5371   1.488   9.967   8.501 -2.5349 -0.7531 -0.3335
  781MOL0     H 5372   1.330   9.829   8.471  0.8006  1.6015  0.7202
  781MOL0     H 5373   1.391   9.846   8.304 -2.3450  0.4043  0.8842
  781MOL0     H 5374   1.492   9.605   8.456 -1.5462 -0.4716  0.9784
  781MOL0     H 5375   1.320   9.621   8.446 -1.3726  3.6842  0.2654
  781MOL0     H 5376   1.338   9.668   8.194  2.7194  2.6328 -0.0491
  781MOL0     H 5377   1.507   9.630   8.230  0.3659 -1.5036  1.0895
  781MOL0     H 5378   1.379   9.441   8.127  1.3917  1.3040 -0.2881
  781MOL0     H 5379   1.462   9.408   8.271  1.7998  0.8074 -1.3143
  781MOL0     H 5380   1.232   9.302   8.270  2.9980 -0.5094 -1.0259
  781MOL0     H 5381   1.259   9.410   8.400  0.9142  1.1538  0.3299
  781MOL0     H 5382   1.136   9.593   8.279 -0.7918 -0.2265 -1.1916
  781MOL0     H 5383   1.091   9.483   8.150  0.3893 -2.9875 -0.0821
  781MOL0     H 5384   1.027   9.416   8.435 -0.2905  2.2189  0.5035
  781MOL0     H 5385   0.962   9.343   8.277 -1.4660  1.1548 -2.1784
  781MOL0     H 5386   0.774   9.516   8.140  1.1616 -2.0505  1.1406
  781MOL0     H 5387   0.559   9.787   8.306 -1.6054 -0.1941 -1.7096
  781MOL0     H 5388   0.589   9.717   8.150  0.9460  0.0332 -0.5749
  781MOL0     H 5389   0.460   9.603   8.390  1.0209  2.5858  0.0666
  781MOL0     H 5390   0.468   9.508   8.239 -3.8162 -0.2245 -0.7584
  781MOL0     H 5391   0.320   9.769   8.296 -3.9648  0.5905  0.4647
  781MOL0     H 5392   0.232   9.611   8.301 -1.9241 -0.6725 -4.7528
  781MOL0     H 5393   0.289   9.569   8.068  1.8081  1.4186 -1.6071
  781MOL0     H 5394   0.360   9.725   8.064  1.1497 -1.0592  2.2597
  781MOL0     H 5395   0.096   9.485   8.160 -0.7227 -0.6280 -2.9160
  781MOL0     H 5396  -0.184   9.301   8.178  1.0638 -1.1741 -0.2290
  781MOL0     H 5397  -0.032   9.332   8.273  0.2866  1.9884 -0.3178
  781MOL0     H 5398  -0.198   9.379   8.331  0.6178  2.0044 -0.4231
  781MOL0     H 5399  -0.580   9.598   8.413  0.5742  0.9121 -0.6445
  781MOL0     H 5400  -0.830   9.542   8.444 -1.6658 -1.2267  0.5219
  781MOL0     H 5401  -1.111   9.668   8.232 -1.4948 -0.0519 -0.8264
  781MOL0     H 5402  -1.090   9.576   8.090  1.9168 -1.6362  0.3820
  781MOL0     H 5403  -1.315   9.543   8.131  1.3355 -0.3070 -1.5232
  781MOL0     H 5404  -1.241   9.399   8.189 -0.1543  0.2844  1.0002
  781MOL0     H 5405  -1.337   9.613   8.386 -0.2869 -0.3311  1.4043
  781MOL0     H 5406  -1.244   9.469   8.422  2.0677 -1.1565 -0.6719
  781MOL0     H 5407  -1.509   9.481   8.273 -0.0726  1.4781 -0.1437
  781MOL0     H 5408  -1.432   9.332   8.329  1.2684 -0.3557  2.5326
  781MOL0     H 5409  -1.534   9.561   8.494  0.9088 -0.5137  2.4843
  781MOL0     H 5410  -1.460   9.413   8.565  0.1943 -0.2267  0.9379
  781MOL0     H 5411  -1.719   9.416   8.397  2.7225 -0.7944 -2.5864
  781MOL0     H 5412  -1.634   9.282   8.477  0.8066  0.6375  0.9831
  781MOL0     H 5413  -1.732   9.518   8.642  1.7891 -0.5911  0.1090
  781MOL0     H 5414  -1.666   9.346   8.674  0.4570 -1.9634 -1.6951
  781MOL0     H 5415  -1.910   9.357   8.718 -1.8501 -1.8233 -1.0717
  781MOL0     H 5416  -1.854   9.238   8.602 -0.3372  0.4416 -1.0043
  781MOL0     H 5417  -0.887   9.544   8.034  1.3449 -1.3273 -0.8946
  781MOL0     H 5418  -0.644   9.633   8.002  0.1295 -2.8403 -0.1452
  781MOL0     H 5419  -0.291   9.761   8.066 -2.4821 -4.4149 -1.5112
  781MOL0     H 5420  -0.063   9.864   8.050  0.5360 -0.7498 -0.1530
  781MOL0     H 5421   1.712   9.979   8.637  0.1232 -0.7823  0.3641
  781MOL0     H 5422   1.931  10.057   8.707 -2.0402  2.6374 -0.2707
  781MOL0     H 5423   2.505   9.896   8.546  0.2605  0.4029 -0.9460
  781MOL0     H 5424   2.720  10.022   8.593  1.4990  0.7912 -0.0137
  781MOL0     H 5425   2.866  10.188   8.543  0.8554 -0.8911  0.7605
  781MOL0     H 5426   2.922  10.345   8.603  4.6323 -1.1179  3.5977
  781MOL0     H 5427   3.032  10.173   8.729  0.0198  0.4072  1.8110
  781MOL0     H 5428   2.886  10.106   8.785 -0.8431  0.2918  1.3274
  781MOL0     H 5429   2.836  10.353   8.879 -0.3871 -0.1020 -0.7252
  781MOL0     H 5430   3.007  10.391   8.836  3.0711 -1.9734  1.7955
  781MOL0     H 5431   3.072  10.212   9.003  0.7145  1.4650 -1.2678
  781MOL0     H 5432   2.902  10.182   9.043 -2.1512  1.4955  0.2795
  781MOL0     H 5433   2.978  10.497   9.278 -2.6575 -1.8685  0.6961
  781MOL0     H 5434   2.486  10.386   8.616  3.9597 -0.2351 -0.7171
  781MOL0     H 5435   2.291  10.267   8.565 -0.4340 -1.5095 -0.7637
  782MOL0     O 5436   7.995   0.566   6.072  0.1299 -0.4802 -0.6867
  782MOL0     C 5437   8.029   0.451   6.075 -0.5969  0.3282  0.5435
  782MOL0     O 5438   7.950   0.339   6.105 -0.1792  0.6463  0.3529
  782MOL0     C 5439   7.825   0.351   6.145  0.0618  0.1482  0.2317
  782MOL0     C 5440   7.763   0.452   6.212 -0.2348 -0.1039 -0.4718
  782MOL0     C 5441   7.632   0.453   6.249  0.1229 -0.4265 -0.2313
  782MOL0     C 5442   7.547   0.347   6.224  0.0375 -0.2315  0.6583
  782MOL0     O 5443   7.416   0.358   6.270 -0.0692  0.1647  0.1547
  782MOL0     C 5444   7.346   0.228   6.286  0.3646  0.4221 -0.4317
  782MOL0     C 5445   7.221   0.241   6.373 -0.2237  0.5805 -0.0838
  782MOL0     C 5446   7.246   0.311   6.509 -0.5361  0.2971  0.0673
  782MOL0     C 5447   7.117   0.376   6.571 -0.0254 -0.2630  1.2622
  782MOL0     C 5448   7.005   0.273   6.598 -0.0256 -0.0027 -0.9319
  782MOL0     C 5449   6.886   0.346   6.660  0.6303 -0.0557 -0.3163
  782MOL0     C 5450   6.754   0.259   6.660  0.3932 -0.4569  0.0178
  782MOL0     C 5451   6.767   0.142   6.751  0.0483  0.0385  0.3350
  782MOL0     N 5452   6.642   0.066   6.768 -0.6567  0.2331  0.1490
  782MOL0     C 5453   6.599   0.040   6.891  0.4433  0.4145  0.0731
  782MOL0     C 5454   6.487  -0.034   6.863 -0.5598 -0.5077  0.0277
  782MOL0     C 5455   6.387  -0.078   6.962  0.6700 -0.1337  0.5101
  782MOL0     C 5456   6.335   0.027   7.059 -0.8048 -0.6643 -0.1340
  782MOL0     C 5457   6.252  -0.022   7.177  0.4681  0.1590  0.1206
  782MOL0     C 5458   6.111  -0.058   7.142  1.0036  0.1017  0.0313
  782MOL0     O 5459   6.043  -0.132   7.248  0.1906 -0.3693  0.1940
  782MOL0     C 5460   5.959  -0.071   7.334 -0.4795 -0.1544 -0.6020
  782MOL0     C 5461   6.000  -0.030   7.461 -0.3536 -0.3911  0.6704
  782MOL0     C 5462   5.901   0.029   7.544  0.5801 -0.2195 -0.7766
  782MOL0     C 5463   5.953   0.073   7.678 -0.1096 -0.4069  0.0541
  782MOL0     C 5464   5.765   0.035   7.509  0.4892 -0.3832  0.2611
  782MOL0     C 5465   5.656   0.093   7.597 -0.7317 -0.1254  0.2396
  782MOL0     O 5466   5.527   0.053   7.569  0.6397  0.2047  0.1529
  782MOL0     C 5467   5.421   0.135   7.608 -0.0452  0.3429 -0.3558
  782MOL0     C 5468   5.359   0.116   7.725 -0.1389  0.2263 -0.2729
  782MOL0     C 5469   5.253   0.195   7.761  0.2490  0.0402  0.7575
  782MOL0     C 5470   5.201   0.282   7.664  0.7564  0.0213 -0.0857
  782MOL0     O 5471   5.098   0.366   7.692  0.1858 -0.5075 -0.2775
  782MOL0     C 5472   4.972   0.351   7.626  0.3354 -0.1726 -0.3329
  782MOL0     C 5473   4.897   0.241   7.699  0.7850  0.4982  0.3651
  782MOL0     C 5474   4.757   0.226   7.630 -0.3019 -0.1047 -1.1681
  782MOL0     C 5475   4.674   0.352   7.653  0.0532  0.6682  0.0953
  782MOL0     C 5476   4.533   0.319   7.613  0.3756  0.5554 -0.5227
  782MOL0     C 5477   4.440   0.433   7.631  0.5183 -0.7693  0.0066
  782MOL0     C 5478   4.310   0.383   7.576 -1.6044 -0.3487  0.1473
  782MOL0     C 5479   4.199   0.491   7.569  0.5656 -0.3074 -0.5374
  782MOL0    Cl 5480   4.059   0.412   7.493 -0.0271  0.1910 -0.0282
  782MOL0     C 5481   5.258   0.295   7.539 -0.5246  0.1212 -0.3418
  782MOL0     C 5482   5.373   0.221   7.513 -0.3713  0.1531  1.0804
  782MOL0     O 5483   5.687   0.182   7.675  0.1015 -0.0126 -0.4592
  782MOL0     C 5484   5.735  -0.007   7.382  0.1056 -0.3235 -0.2940
  782MOL0     C 5485   5.828  -0.060   7.294 -0.0108 -0.7609  0.2836
  782MOL0     N 5486   6.462  -0.042   6.728  0.3370 -0.6512  0.3648
  782MOL0     N 5487   6.557   0.023   6.669  0.1305 -0.5936  0.4179
  782MOL0     C 5488   7.601   0.244   6.145 -0.8394 -0.3313  0.0490
  782MOL0     C 5489   7.741   0.244   6.113  0.8341  0.1904 -0.6138
  782MOL0     C 5490   8.175   0.417   6.060  0.5195 -0.4405 -0.2040
  782MOL0     C 5491   8.262   0.515   6.014 -1.0734 -0.0690  1.3104
  782MOL0     C 5492   8.403   0.507   6.006  0.2544  0.3339  0.7753
  782MOL0     C 5493   8.462   0.385   6.053 -0.4869  0.2906 -0.1850
  782MOL0     O 5494   8.601   0.376   6.048 -0.4857  0.2996 -0.1547
  782MOL0     C 5495   8.651   0.253   6.031  0.2150  0.5787  0.1132
  782MOL0     C 5496   8.799   0.257   5.995 -0.1249  0.1816 -0.4976
  782MOL0     C 5497   8.875   0.377   6.065 -0.7935 -0.5870 -0.1048
  782MOL0     C 5498   9.025   0.381   6.034 -0.2848  0.1346 -0.1529
  782MOL0     C 5499   9.108   0.268   6.081  0.0889 -0.4394  0.7884
  782MOL0     C 5500   9.192   0.190   6.113  0.7036  0.8259 -0.2738
  782MOL0     C 5501   8.370   0.278   6.077  0.9130 -0.6045 -0.0067
  782MOL0     C 5502   8.229   0.292   6.092  0.4069 -0.2987  0.1116
  782MOL0     H 5503   7.822   0.536   6.246  0.0429 -0.5655  0.2063
  782MOL0     H 5504   7.597   0.533   6.313  2.2720 -0.7108  1.4242
  782MOL0     H 5505   7.322   0.192   6.186 -3.0010  2.0328 -0.3713
  782MOL0     H 5506   7.408   0.152   6.335  0.4787 -0.1396 -1.4251
  782MOL0     H 5507   7.139   0.294   6.324 -0.1079  0.5691 -0.2935
  782MOL0     H 5508   7.184   0.141   6.395  0.1379  0.0645 -1.6685
  782MOL0     H 5509   7.264   0.233   6.584  0.3745  0.3317 -0.1001
  782MOL0     H 5510   7.327   0.384   6.505  0.9105 -1.2880 -1.3287
  782MOL0     H 5511   7.149   0.419   6.666  0.0610  0.0309  1.1015
  782MOL0     H 5512   7.083   0.457   6.506 -1.2217 -1.7887 -0.1275
  782MOL0     H 5513   6.970   0.226   6.506  1.5757  0.0227 -1.5876
  782MOL0     H 5514   7.040   0.194   6.665  0.5773  0.1424 -1.0743
  782MOL0     H 5515   6.915   0.368   6.763  1.0594 -3.1425  0.3399
  782MOL0     H 5516   6.861   0.434   6.601  0.4723  2.1093  2.7390
  782MOL0     H 5517   6.677   0.330   6.692  1.8519  1.9663 -1.5303
  782MOL0     H 5518   6.740   0.225   6.557  0.7401  1.4339 -0.6919
  782MOL0     H 5519   6.803   0.171   6.850 -1.6342  1.8471  0.4859
  782MOL0     H 5520   6.850   0.082   6.713  1.4203  0.6292  2.2860
  782MOL0     H 5521   6.636   0.071   6.988  1.2010  0.5017 -0.2297
  782MOL0     H 5522   6.302  -0.122   6.908  0.8228  0.0059  0.1586
  782MOL0     H 5523   6.436  -0.156   7.021  0.3294  0.1092  1.1258
  782MOL0     H 5524   6.284   0.113   7.015  2.4313  0.9545 -1.0117
  782MOL0     H 5525   6.414   0.075   7.116 -1.9103 -0.8248  1.6275
  782MOL0     H 5526   6.256   0.062   7.247 -2.2454 -0.8847  1.6446
  782MOL0     H 5527   6.315  -0.102   7.216  1.0002  0.6915  0.3808
  782MOL0     H 5528   6.113  -0.119   7.051 -1.3335  1.5645 -1.1023
  782MOL0     H 5529   6.066   0.040   7.124  0.4124  0.1319  1.5267
  782MOL0     H 5530   6.101  -0.045   7.497  0.6821 -0.1276 -1.8982
  782MOL0     H 5531   5.926   0.173   7.711  1.6855  0.1902 -0.1739
  782MOL0     H 5532   5.935  -0.000   7.758  2.5343  0.6569  1.7807
  782MOL0     H 5533   6.062   0.086   7.674 -0.2139  0.9578  1.1555
  782MOL0     H 5534   5.412   0.057   7.799 -2.1591  0.1835  1.2226
  782MOL0     H 5535   5.206   0.195   7.859 -1.5206 -0.9782 -0.0498
  782MOL0     H 5536   4.923   0.449   7.635  2.4538  0.7686  3.0511
  782MOL0     H 5537   4.990   0.325   7.522 -3.3306  1.6893 -1.6043
  782MOL0     H 5538   4.950   0.146   7.692 -0.4694 -0.2802  0.9831
  782MOL0     H 5539   4.880   0.263   7.805  0.4379 -0.0197  0.4228
  782MOL0     H 5540   4.700   0.147   7.680 -0.6954 -0.4365 -2.1349
  782MOL0     H 5541   4.775   0.195   7.527 -0.9767 -1.4216 -0.9153
  782MOL0     H 5542   4.666   0.391   7.754  1.2034 -0.8130  0.8043
  782MOL0     H 5543   4.707   0.431   7.584 -1.7914  2.2566  0.9520
  782MOL0     H 5544   4.511   0.240   7.685  0.0146 -1.5880 -2.8478
  782MOL0     H 5545   4.533   0.282   7.509 -1.0242 -3.2188  0.6477
  782MOL0     H 5546   4.426   0.459   7.736 -1.6508 -1.3211 -0.0959
  782MOL0     H 5547   4.476   0.520   7.577 -1.1771  0.0461  0.1220
  782MOL0     H 5548   4.270   0.302   7.638 -0.4562 -0.4498  0.7664
  782MOL0     H 5549   4.323   0.338   7.477  0.2697  0.3130  0.0565
  782MOL0     H 5550   4.225   0.571   7.499  0.3227 -2.1365 -2.8319
  782MOL0     H 5551   4.182   0.533   7.669 -0.4632  2.2436 -1.6956
  782MOL0     H 5552   5.223   0.375   7.475  0.5940  2.1839  1.5126
  782MOL0     H 5553   5.424   0.241   7.420  2.4249  0.8614  2.6598
  782MOL0     H 5554   5.632   0.001   7.350  0.7489  0.2847 -2.3413
  782MOL0     H 5555   5.795  -0.099   7.198 -1.7530 -1.5618  1.1504
  782MOL0     H 5556   7.545   0.158   6.108  0.1661 -1.4347  0.9964
  782MOL0     H 5557   7.787   0.175   6.044  0.2250  1.3149 -2.2009
  782MOL0     H 5558   8.223   0.612   5.988 -2.6587 -0.8253  0.7472
  782MOL0     H 5559   8.463   0.584   5.959 -1.5196  0.4016 -1.6262
  782MOL0     H 5560   8.641   0.189   6.119 -0.2898 -2.1229 -1.7672
  782MOL0     H 5561   8.595   0.195   5.957  0.8028 -1.0381  0.8862
  782MOL0     H 5562   8.813   0.257   5.886  0.0473  0.5201 -0.4775
  782MOL0     H 5563   8.845   0.164   6.027 -2.2300 -0.8796 -0.3836
  782MOL0     H 5564   8.852   0.364   6.171  0.0381 -0.5476  0.0852
  782MOL0     H 5565   8.835   0.473   6.029  0.1875  0.2980  1.0780
  782MOL0     H 5566   9.058   0.478   6.073 -2.7623  1.8262 -1.9420
  782MOL0     H 5567   9.033   0.390   5.925 -2.1822 -0.5759 -0.3895
  782MOL0     H 5568   9.267   0.125   6.154  1.5670  1.4016 -0.9018
  782MOL0     H 5569   8.406   0.177   6.090 -1.4600 -1.1948  3.5244
  782MOL0     H 5570   8.161   0.213   6.119 -0.0144 -0.3243 -0.9807
  783MOL0     O 5571   1.105   0.771   9.254 -0.3098 -0.2449  0.1385
  783MOL0     C 5572   1.135   0.682   9.169 -0.1723  0.1438  0.4288
  783MOL0     O 5573   1.055   0.584   9.126  0.8163  0.9954 -0.5545
  783MOL0     C 5574   0.933   0.564   9.190 -0.5978 -0.1247 -0.1779
  783MOL0     C 5575   0.931   0.525   9.321  0.2887  0.1611  0.2989
  783MOL0     C 5576   0.813   0.491   9.383 -0.4574  0.3283  0.1856
  783MOL0     C 5577   0.696   0.491   9.309 -0.0027  0.3148 -0.1383
  783MOL0     O 5578   0.588   0.455   9.385  0.5375 -0.3512 -0.0661
  783MOL0     C 5579   0.484   0.379   9.319 -1.1130 -0.9366 -1.4339
  783MOL0     C 5580   0.527   0.245   9.270 -0.6876 -0.2103  0.1250
  783MOL0     C 5581   0.413   0.144   9.294  0.3128  0.8976  0.0808
  783MOL0     C 5582   0.451   0.004   9.239 -0.0264 -0.4395 -0.8747
  783MOL0     C 5583   0.332  -0.101   9.259  0.9324 -0.2007  0.3363
  783MOL0     C 5584   0.395  -0.240   9.242 -0.2101 -0.6433  0.0618
  783MOL0     C 5585   0.296  -0.353   9.281 -0.7806  0.1632 -0.0214
  783MOL0     C 5586   0.166  -0.357   9.204  0.1311 -0.3718 -0.5367
  783MOL0     N 5587   0.194  -0.396   9.064 -0.6317  0.0266 -0.4283
  783MOL0     C 5588   0.234  -0.298   8.969  0.9664  0.5633 -1.1860
  783MOL0     C 5589   0.242  -0.368   8.851  0.3081  0.8648 -0.1801
  783MOL0     C 5590   0.313  -0.328   8.718 -0.0461 -0.1995 -0.0706
  783MOL0     C 5591   0.459  -0.357   8.721  0.4590  0.6810 -0.6363
  783MOL0     C 5592   0.518  -0.383   8.583  0.0825  0.0074  0.1170
  783MOL0     C 5593   0.669  -0.406   8.579  0.3618  0.0096  0.2516
  783MOL0     O 5594   0.733  -0.289   8.631  0.5304  0.6179  0.2015
  783MOL0     C 5595   0.870  -0.276   8.605 -1.1653 -0.7131  0.3402
  783MOL0     C 5596   0.929  -0.163   8.658 -0.2529 -0.4245 -0.1390
  783MOL0     C 5597   1.063  -0.137   8.651 -1.5359  0.0945  0.2844
  783MOL0     C 5598   1.111  -0.006   8.708 -0.2729 -0.4293 -0.1170
  783MOL0     C 5599   1.153  -0.215   8.570  0.4211  0.9836  0.2774
  783MOL0     C 5600   1.299  -0.199   8.553 -0.8309 -0.6727 -1.0283
  783MOL0     O 5601   1.374  -0.111   8.629 -0.3976 -0.6653  0.1113
  783MOL0     C 5602   1.502  -0.093   8.594  0.0700 -0.3914 -0.1827
  783MOL0     C 5603   1.600  -0.186   8.560 -0.6266  0.5422  0.6661
  783MOL0     C 5604   1.727  -0.138   8.510 -0.4345  0.6411  0.1978
  783MOL0     C 5605   1.764  -0.010   8.505  0.1542 -0.3185  0.2957
  783MOL0     O 5606   1.885   0.022   8.450 -0.6802 -1.2264 -0.2755
  783MOL0     C 5607   1.926   0.161   8.446  0.0327  0.1097  0.8354
  783MOL0     C 5608   2.073   0.162   8.433 -0.7975  0.6275  1.6157
  783MOL0     C 5609   2.129   0.298   8.465  0.1516 -0.3446  0.1417
  783MOL0     C 5610   2.284   0.299   8.473  0.0461  0.2175 -0.0299
  783MOL0     C 5611   2.340   0.420   8.556 -0.2062  0.1965 -0.9100
  783MOL0     C 5612   2.320   0.544   8.467 -0.0749 -0.0763  0.7190
  783MOL0     C 5613   2.409   0.655   8.506  0.6523 -0.3526  0.0970
  783MOL0     C 5614   2.385   0.766   8.406 -0.6525 -0.0769  0.0924
  783MOL0    Cl 5615   2.209   0.835   8.376  0.2765 -0.1863 -0.5062
  783MOL0     C 5616   1.665   0.082   8.557 -0.3776  0.4379 -0.0244
  783MOL0     C 5617   1.546   0.041   8.598  0.1995  0.8628  0.2133
  783MOL0     O 5618   1.346  -0.286   8.485  0.5598 -0.0745  0.8780
  783MOL0     C 5619   1.085  -0.339   8.517 -0.3105  0.0219  0.1113
  783MOL0     C 5620   0.952  -0.370   8.532 -0.9975  0.9986  0.1502
  783MOL0     N 5621   0.207  -0.500   8.879 -0.3910  0.1003 -0.2994
  783MOL0     N 5622   0.185  -0.516   9.008 -0.6151  1.0006 -0.0463
  783MOL0     C 5623   0.700   0.525   9.169 -0.3202  0.0341 -0.4745
  783MOL0     C 5624   0.818   0.561   9.114 -0.4120 -0.4240 -0.1497
  783MOL0     C 5625   1.271   0.689   9.101  0.6501 -0.6842 -0.7434
  783MOL0     C 5626   1.301   0.608   8.995 -0.7338 -0.1223  0.3947
  783MOL0     C 5627   1.433   0.620   8.942  0.0992 -0.8159  0.3840
  783MOL0     C 5628   1.528   0.708   8.994  0.5836 -1.1779 -0.0558
  783MOL0     O 5629   1.655   0.729   8.955 -0.7888  0.3898  0.1052
  783MOL0     C 5630   1.704   0.630   8.860 -0.1796 -0.1846 -0.0532
  783MOL0     C 5631   1.851   0.662   8.812  0.3184 -0.0336 -0.0515
  783MOL0     C 5632   1.919   0.565   8.701  0.1293 -0.7425  0.2265
  783MOL0     C 5633   1.840   0.520   8.585  0.6215 -0.6424 -0.2753
  783MOL0     C 5634   1.789   0.644   8.522  0.5012  1.1594  0.2906
  783MOL0     C 5635   1.759   0.744   8.470  0.5644 -0.8111  0.3238
  783MOL0     C 5636   1.490   0.798   9.096  0.0106  0.8644  0.1610
  783MOL0     C 5637   1.359   0.788   9.145 -0.2225 -0.3188 -0.1395
  783MOL0     H 5638   1.030   0.516   9.364  1.3268 -2.0210 -2.2318
  783MOL0     H 5639   0.813   0.455   9.486  0.6929  2.4525  1.0064
  783MOL0     H 5640   0.399   0.361   9.386  0.2957 -1.9905  0.1182
  783MOL0     H 5641   0.437   0.440   9.241 -1.4552 -0.5204 -0.9126
  783MOL0     H 5642   0.556   0.258   9.165 -1.3698 -0.1932 -0.0651
  783MOL0     H 5643   0.617   0.207   9.319 -0.2001  0.4430 -0.2419
  783MOL0     H 5644   0.401   0.141   9.402 -0.3998  2.6573  0.0852
  783MOL0     H 5645   0.319   0.181   9.253 -0.1467 -0.6159 -0.3200
  783MOL0     H 5646   0.468   0.013   9.132  1.4439  0.6673 -0.5723
  783MOL0     H 5647   0.548  -0.030   9.276 -0.3733 -1.1349 -0.5750
  783MOL0     H 5648   0.280  -0.093   9.355 -0.8974  2.0558 -0.7272
  783MOL0     H 5649   0.251  -0.077   9.189  3.0018 -1.5084 -2.7242
  783MOL0     H 5650   0.445  -0.250   9.146 -0.2323 -2.4309  0.2117
  783MOL0     H 5651   0.468  -0.251   9.323 -0.1836 -0.3293  0.0836
  783MOL0     H 5652   0.339  -0.453   9.267 -0.5146  0.5830 -2.8033
  783MOL0     H 5653   0.271  -0.352   9.388 -1.7453 -1.8633 -0.1839
  783MOL0     H 5654   0.121  -0.257   9.204 -0.9049 -0.8166 -1.4825
  783MOL0     H 5655   0.086  -0.424   9.237  1.0583 -1.1382  0.2190
  783MOL0     H 5656   0.258  -0.193   8.982 -1.9702  1.0547  1.5493
  783MOL0     H 5657   0.259  -0.376   8.636 -2.3086 -0.6053  1.5611
  783MOL0     H 5658   0.308  -0.221   8.697 -1.0425 -0.7713 -3.2691
  783MOL0     H 5659   0.479  -0.442   8.787  1.1938  0.1766 -1.4855
  783MOL0     H 5660   0.506  -0.271   8.768  0.6626  0.9680 -1.3550
  783MOL0     H 5661   0.509  -0.287   8.532  2.2432 -0.3786 -1.1469
  783MOL0     H 5662   0.473  -0.471   8.536 -1.2971  0.5018  0.4713
  783MOL0     H 5663   0.692  -0.432   8.476  0.5336  0.1085  0.2644
  783MOL0     H 5664   0.695  -0.483   8.652  0.5191 -0.7266 -0.5664
  783MOL0     H 5665   0.873  -0.096   8.722  3.1062  1.9068  0.6380
  783MOL0     H 5666   1.175   0.052   8.641 -0.3297  1.5719  1.4299
  783MOL0     H 5667   1.026   0.063   8.717 -0.0913 -0.4268  2.2944
  783MOL0     H 5668   1.161  -0.022   8.804 -0.7133  0.3060  0.2539
  783MOL0     H 5669   1.588  -0.293   8.573  0.9770  0.3974  1.2076
  783MOL0     H 5670   1.799  -0.215   8.483 -1.0087  0.8119 -1.9809
  783MOL0     H 5671   1.898   0.217   8.356 -0.2087  0.6455  1.2384
  783MOL0     H 5672   1.892   0.216   8.534  2.9471 -1.2264  2.9564
  783MOL0     H 5673   2.120   0.079   8.487  1.3554 -0.8736 -2.1268
  783MOL0     H 5674   2.096   0.136   8.329  2.3661 -0.0570  2.3592
  783MOL0     H 5675   2.106   0.324   8.569  2.4459  1.8996  0.1777
  783MOL0     H 5676   2.087   0.380   8.408 -0.4887 -0.2986  0.6703
  783MOL0     H 5677   2.322   0.206   8.517  1.0869  0.3406 -0.6380
  783MOL0     H 5678   2.313   0.305   8.368 -1.3813  2.1389 -0.3664
  783MOL0     H 5679   2.444   0.407   8.585 -0.4610  0.6071  0.2376
  783MOL0     H 5680   2.275   0.433   8.643 -0.3757 -1.6890 -0.7185
  783MOL0     H 5681   2.349   0.522   8.364  0.5256 -0.6976  1.0159
  783MOL0     H 5682   2.217   0.580   8.455  0.2752  1.3084  1.5906
  783MOL0     H 5683   2.515   0.626   8.510  0.5325 -0.7607  0.3461
  783MOL0     H 5684   2.377   0.699   8.601 -0.4821 -2.2411  0.6366
  783MOL0     H 5685   2.413   0.740   8.303 -1.3234  0.7171 -0.3014
  783MOL0     H 5686   2.445   0.849   8.445 -0.3553 -0.5861  0.7255
  783MOL0     H 5687   1.680   0.189   8.572 -0.7426  0.1358  3.0997
  783MOL0     H 5688   1.481   0.123   8.628 -0.9786  1.6068 -3.8290
  783MOL0     H 5689   1.128  -0.411   8.450  0.4520 -1.0854  1.7268
  783MOL0     H 5690   0.919  -0.462   8.484 -0.9929  1.0012  0.1426
  783MOL0     H 5691   0.605   0.536   9.117 -0.9740 -0.7020  0.5223
  783MOL0     H 5692   0.828   0.590   9.010 -1.3721  0.3975 -0.0260
  783MOL0     H 5693   1.227   0.545   8.947  0.1952  1.2022 -3.1216
  783MOL0     H 5694   1.463   0.549   8.865 -0.7506 -1.4833  0.6545
  783MOL0     H 5695   1.705   0.526   8.895  0.4168  0.8190  3.2632
  783MOL0     H 5696   1.640   0.639   8.771  2.0389 -0.1737 -1.7355
  783MOL0     H 5697   1.919   0.651   8.896  0.9223 -2.2481 -0.7728
  783MOL0     H 5698   1.866   0.767   8.782 -2.0614  0.5978  0.7664
  783MOL0     H 5699   1.945   0.475   8.758  0.1006 -1.1419 -0.3908
  783MOL0     H 5700   2.017   0.602   8.668  1.1869 -3.5137 -0.0484
  783MOL0     H 5701   1.754   0.463   8.619  1.2034 -1.6510 -0.4643
  783MOL0     H 5702   1.896   0.454   8.519 -0.6165 -1.8384 -0.1682
  783MOL0     H 5703   1.724   0.839   8.436 -1.1897 -1.4592  0.2271
  783MOL0     H 5704   1.563   0.874   9.122  0.7564  1.1375 -2.3943
  783MOL0     H 5705   1.328   0.858   9.222  3.0757 -1.2466  2.2711
  784MOL0     O 5706   3.805   8.573   2.108  0.3445 -0.0370  0.2096
  784MOL0     C 5707   3.886   8.486   2.073 -0.6100  0.4643 -0.0467
  784MOL0     O 5708   3.863   8.356   2.026 -0.5690 -0.9392  0.7573
  784MOL0     C 5709   3.736   8.310   1.987  0.3971  0.3700  0.7205
  784MOL0     C 5710   3.735   8.190   1.908  0.2544 -0.0524 -0.4504
  784MOL0     C 5711   3.613   8.152   1.855 -0.4169  0.1099  0.2447
  784MOL0     C 5712   3.490   8.218   1.874 -0.5385 -0.1949  1.6082
  784MOL0     O 5713   3.378   8.160   1.812 -0.3859 -0.5323 -0.2511
  784MOL0     C 5714   3.242   8.212   1.839  0.6386 -0.0708 -0.2954
  784MOL0     C 5715   3.134   8.132   1.761  0.3426 -0.1826  0.4665
  784MOL0     C 5716   3.108   7.990   1.823 -0.2846 -0.2034 -0.4103
  784MOL0     C 5717   2.991   7.995   1.930 -0.3506  0.0006  0.0753
  784MOL0     C 5718   2.964   7.859   1.990  0.4175 -0.1639  0.8256
  784MOL0     C 5719   2.893   7.766   1.897  0.8039  0.6412  0.1032
  784MOL0     C 5720   2.749   7.804   1.862 -0.1189 -0.2034  0.0200
  784MOL0     C 5721   2.694   7.680   1.791  0.0216  0.5137 -0.6610
  784MOL0     N 5722   2.548   7.684   1.791 -0.1274  0.4988  0.6508
  784MOL0     C 5723   2.479   7.710   1.677  0.9685  0.6112 -0.2465
  784MOL0     C 5724   2.343   7.689   1.710 -0.4227  0.3163  0.7260
  784MOL0     C 5725   2.235   7.743   1.613 -0.2601  0.1124 -0.2251
  784MOL0     C 5726   2.103   7.782   1.683  0.2124  0.0056  0.2267
  784MOL0     C 5727   2.003   7.666   1.706 -0.4225 -0.2743  0.6281
  784MOL0     C 5728   1.863   7.722   1.730  0.2741  0.1445 -0.3177
  784MOL0     O 5729   1.765   7.618   1.737 -0.2514 -0.3164  0.1667
  784MOL0     C 5730   1.631   7.653   1.734  0.0161  0.5915 -0.0903
  784MOL0     C 5731   1.564   7.644   1.608  0.8947  0.2221 -0.1351
  784MOL0     C 5732   1.435   7.678   1.607  0.1861  0.0269  0.5519
  784MOL0     C 5733   1.371   7.662   1.463 -0.1216 -0.2154 -0.7705
  784MOL0     C 5734   1.362   7.723   1.721  0.3821  0.2312  0.2421
  784MOL0     C 5735   1.219   7.762   1.729  0.9795  0.4016 -0.1413
  784MOL0     O 5736   1.171   7.842   1.835  0.3111  0.8651  0.2963
  784MOL0     C 5737   1.040   7.872   1.832  0.3043 -0.1642  0.0124
  784MOL0     C 5738   1.003   7.991   1.759  0.2076  0.2183 -0.0943
  784MOL0     C 5739   0.875   8.031   1.761  0.0824 -0.2534 -0.1444
  784MOL0     C 5740   0.771   7.967   1.836  0.9453 -0.1411 -0.2875
  784MOL0     O 5741   0.632   7.996   1.844 -0.1028  0.2330 -0.6085
  784MOL0     C 5742   0.616   8.136   1.816  0.5401  0.4143  0.4318
  784MOL0     C 5743   0.473   8.191   1.847  0.7247  0.0001  0.0865
  784MOL0     C 5744   0.454   8.203   1.999 -0.5461 -0.3080 -0.7589
  784MOL0     C 5745   0.312   8.228   2.047  0.0256  0.0490 -0.0102
  784MOL0     C 5746   0.229   8.341   1.975  0.1134 -0.1784  0.6574
  784MOL0     C 5747   0.091   8.370   2.044  0.2166 -0.8063  0.2585
  784MOL0     C 5748   0.009   8.470   1.964 -0.3298 -0.0756  0.4677
  784MOL0     C 5749   0.073   8.605   1.915 -0.5456 -0.1572 -0.2215
  784MOL0    Cl 5750   0.157   8.690   2.050  0.2328  0.0222  0.2029
  784MOL0     C 5751   0.807   7.842   1.894 -0.1586 -0.2495 -0.2714
  784MOL0     C 5752   0.937   7.802   1.893  0.1025  1.1565  0.7916
  784MOL0     O 5753   1.152   7.721   1.633  0.7806  0.3630  0.2010
  784MOL0     C 5754   1.433   7.734   1.837 -0.2348  0.1648  1.0054
  784MOL0     C 5755   1.563   7.694   1.849  0.6348 -0.2639 -0.4887
  784MOL0     N 5756   2.346   7.626   1.832  0.0178  0.2678  0.0131
  784MOL0     N 5757   2.465   7.619   1.877 -0.7103  0.1215 -0.9021
  784MOL0     C 5758   3.489   8.333   1.956 -0.3709 -0.4469  0.0094
  784MOL0     C 5759   3.612   8.370   2.018  0.0639 -0.5251 -0.5191
  784MOL0     C 5760   4.028   8.519   2.110  0.1406 -1.1315  0.5735
  784MOL0     C 5761   4.131   8.424   2.088  1.3619 -0.4334  1.0583
  784MOL0     C 5762   4.260   8.452   2.130 -0.7754 -0.1279 -0.4147
  784MOL0     C 5763   4.300   8.572   2.201 -0.1198  0.1495 -0.2242
  784MOL0     O 5764   4.430   8.607   2.241 -0.3542  0.3552  0.9947
  784MOL0     C 5765   4.552   8.558   2.171  0.6539 -0.3645  0.5383
  784MOL0     C 5766   4.676   8.624   2.224 -0.0377 -0.6928 -0.2653
  784MOL0     C 5767   4.707   8.594   2.369  0.1975 -0.2263  0.1438
  784MOL0     C 5768   4.821   8.682   2.420  0.3305  0.8826 -0.5791
  784MOL0     C 5769   4.954   8.634   2.367  0.0210 -0.0753  0.1731
  784MOL0     C 5770   5.057   8.592   2.321 -0.8495 -0.5819 -0.8416
  784MOL0     C 5771   4.198   8.665   2.213  0.4698 -0.0332 -0.5296
  784MOL0     C 5772   4.073   8.643   2.162 -0.0673 -0.7446 -1.1428
  784MOL0     H 5773   3.832   8.144   1.893  1.6659  3.0568 -1.7569
  784MOL0     H 5774   3.613   8.055   1.805  0.0288 -0.5785  1.5321
  784MOL0     H 5775   3.216   8.225   1.944 -2.8009  1.0522 -1.1585
  784MOL0     H 5776   3.244   8.311   1.793  1.9832 -0.3529 -0.8995
  784MOL0     H 5777   3.040   8.189   1.766  0.2508 -0.1132 -1.4986
  784MOL0     H 5778   3.169   8.124   1.658  0.2355 -1.2106  0.4963
  784MOL0     H 5779   3.075   7.937   1.733  1.6281 -2.9621  0.3773
  784MOL0     H 5780   3.201   7.944   1.859  0.2839 -1.0408 -2.7618
  784MOL0     H 5781   3.031   8.064   2.005 -0.0411 -1.0090  0.8729
  784MOL0     H 5782   2.897   8.031   1.887 -0.1286  1.2424  0.5947
  784MOL0     H 5783   3.058   7.813   2.024 -0.2675 -1.1274  1.4991
  784MOL0     H 5784   2.906   7.875   2.081 -1.9004  3.2967 -1.0698
  784MOL0     H 5785   2.951   7.765   1.803  1.0641  4.7463  0.0497
  784MOL0     H 5786   2.895   7.666   1.942  1.4766  0.1397 -0.9986
  784MOL0     H 5787   2.692   7.832   1.951 -2.2822  0.3743 -1.4639
  784MOL0     H 5788   2.747   7.891   1.796 -1.9481  0.3128  0.6990
  784MOL0     H 5789   2.708   7.587   1.849 -0.0961 -0.0264 -1.4834
  784MOL0     H 5790   2.741   7.670   1.693 -0.8192 -3.0563 -0.8547
  784MOL0     H 5791   2.527   7.754   1.590  3.8051 -0.2106  0.7958
  784MOL0     H 5792   2.267   7.832   1.558 -4.5046  0.8674 -1.8386
  784MOL0     H 5793   2.210   7.669   1.537 -0.6695 -0.8961  0.8768
  784MOL0     H 5794   2.061   7.864   1.624 -1.7014 -1.8313 -1.0957
  784MOL0     H 5795   2.137   7.830   1.775 -0.3095  4.1653 -1.5417
  784MOL0     H 5796   2.027   7.601   1.791 -3.2073 -2.8364 -0.4082
  784MOL0     H 5797   2.000   7.608   1.614 -1.7334  1.4447 -0.4580
  784MOL0     H 5798   1.827   7.800   1.663 -0.9982 -0.7916 -0.7668
  784MOL0     H 5799   1.857   7.763   1.831 -1.3898 -0.0966 -0.2846
  784MOL0     H 5800   1.615   7.614   1.516  0.8570 -0.5668  0.1006
  784MOL0     H 5801   1.421   7.589   1.399 -1.1982  0.7013 -2.7687
  784MOL0     H 5802   1.275   7.610   1.468  1.1025 -2.5475 -0.0248
  784MOL0     H 5803   1.357   7.757   1.410  0.8445 -0.6028 -1.7487
  784MOL0     H 5804   1.075   8.067   1.734 -2.7507  2.9925 -0.8141
  784MOL0     H 5805   0.864   8.121   1.701  2.2252  0.9917  1.2077
  784MOL0     H 5806   0.681   8.209   1.864 -0.5501  0.3066  2.1444
  784MOL0     H 5807   0.639   8.149   1.710 -0.6936  0.8981  0.2099
  784MOL0     H 5808   0.465   8.295   1.813  2.3404  0.5298  1.2030
  784MOL0     H 5809   0.400   8.121   1.806  0.9308 -0.5651  0.6702
  784MOL0     H 5810   0.522   8.275   2.045 -1.9565 -0.5381  1.8667
  784MOL0     H 5811   0.490   8.110   2.045  1.2182  0.1691 -1.0988
  784MOL0     H 5812   0.257   8.136   2.029  1.8664 -1.1143  0.0628
  784MOL0     H 5813   0.322   8.254   2.153 -0.4295  0.0280  0.0422
  784MOL0     H 5814   0.215   8.297   1.876  1.8794  0.6584 -0.0194
  784MOL0     H 5815   0.286   8.435   1.973  0.0370 -0.0954  1.6906
  784MOL0     H 5816   0.036   8.275   2.036 -3.8288  1.2936  0.7726
  784MOL0     H 5817   0.103   8.398   2.149 -0.9996  0.4077  0.0875
  784MOL0     H 5818  -0.084   8.485   2.020 -1.7001 -0.2119 -1.6487
  784MOL0     H 5819  -0.020   8.423   1.870 -0.5752 -1.1424  1.0628
  784MOL0     H 5820  -0.004   8.666   1.867 -4.3828 -4.2728  0.0149
  784MOL0     H 5821   0.139   8.574   1.833 -2.1781  0.3136 -1.7685
  784MOL0     H 5822   0.727   7.790   1.945  1.5704 -1.6280  1.1604
  784MOL0     H 5823   0.963   7.704   1.931  3.4290  2.0770  1.2644
  784MOL0     H 5824   1.385   7.771   1.926 -1.5473 -0.6253  0.6515
  784MOL0     H 5825   1.616   7.693   1.944  1.2751 -1.4224 -0.8400
  784MOL0     H 5826   3.398   8.389   1.973 -1.0259 -0.6862 -2.3134
  784MOL0     H 5827   3.608   8.448   2.094  1.9907  1.7544 -2.5784
  784MOL0     H 5828   4.129   8.327   2.038  0.8874 -0.2711  0.7557
  784MOL0     H 5829   4.344   8.391   2.099  0.6847  1.8884 -0.6779
  784MOL0     H 5830   4.550   8.450   2.189 -2.0214 -0.6369 -0.8364
  784MOL0     H 5831   4.536   8.574   2.064 -4.3377  0.4845  1.1396
  784MOL0     H 5832   4.684   8.732   2.206  1.4204 -0.6582  0.4448
  784MOL0     H 5833   4.762   8.581   2.171  1.1862  0.5806  0.6279
  784MOL0     H 5834   4.725   8.486   2.379 -0.2104 -0.4317 -1.1512
  784MOL0     H 5835   4.620   8.605   2.434  0.4363  1.7960  0.1831
  784MOL0     H 5836   4.818   8.679   2.529 -0.6769  0.2034 -0.6139
  784MOL0     H 5837   4.811   8.786   2.387  3.2469  1.6791  0.6722
  784MOL0     H 5838   5.150   8.558   2.279 -0.4008  1.6470 -1.7843
  784MOL0     H 5839   4.219   8.747   2.282  1.7181 -1.8247  1.3360
  784MOL0     H 5840   3.996   8.718   2.177 -0.6638 -1.1116 -2.1985
  785MOL0     O 5841   4.910   1.271  11.255  0.5644  0.0610  0.5845
  785MOL0     C 5842   4.955   1.223  11.152  0.6097  0.7965 -0.5340
  785MOL0     O 5843   4.884   1.151  11.062  0.4966  0.5043  0.6985
  785MOL0     C 5844   4.759   1.125  11.089  0.7361  0.0137  0.5820
  785MOL0     C 5845   4.715   0.989  11.092  0.5917 -0.0937  0.9230
  785MOL0     C 5846   4.582   0.951  11.111 -0.4329  0.1840  0.6622
  785MOL0     C 5847   4.484   1.047  11.143 -0.0948  0.0406 -0.1886
  785MOL0     O 5848   4.348   1.030  11.166 -0.7279 -0.2209  0.0317
  785MOL0     C 5849   4.298   0.897  11.148 -0.4761 -0.6920  0.2455
  785MOL0     C 5850   4.151   0.912  11.119  0.0578  0.2668 -0.4556
  785MOL0     C 5851   4.111   1.004  11.002  0.1186  0.2748  0.4026
  785MOL0     C 5852   3.970   0.960  10.955 -0.3001 -0.1415 -0.4078
  785MOL0     C 5853   3.926   1.010  10.814 -0.6258 -0.6662  0.1468
  785MOL0     C 5854   3.791   0.938  10.761 -0.7111 -0.3872  1.2936
  785MOL0     C 5855   3.751   1.004  10.631 -0.3954  0.6076 -0.6980
  785MOL0     C 5856   3.619   0.949  10.572 -0.5990  0.0882  0.2481
  785MOL0     N 5857   3.492   0.954  10.650 -0.1684 -0.1072 -0.0562
  785MOL0     C 5858   3.412   1.063  10.655 -0.0204  0.6204 -0.2003
  785MOL0     C 5859   3.318   1.036  10.750 -0.4247 -0.5377  0.3135
  785MOL0     C 5860   3.191   1.116  10.767 -0.2154  0.2456  0.9343
  785MOL0     C 5861   3.067   1.033  10.788  1.1653  0.0187  0.5432
  785MOL0     C 5862   3.022   0.976  10.650  0.0402 -0.5627 -0.4517
  785MOL0     C 5863   2.889   0.906  10.647  0.0300  0.1409  0.4580
  785MOL0     O 5864   2.906   0.784  10.730 -0.1854 -0.6362 -0.2012
  785MOL0     C 5865   2.830   0.671  10.712 -0.1347 -0.2114 -0.3168
  785MOL0     C 5866   2.708   0.683  10.639  0.5287 -0.0665  0.8329
  785MOL0     C 5867   2.620   0.574  10.636  0.1175 -0.5603  0.5151
  785MOL0     C 5868   2.490   0.585  10.556  0.2668 -0.4503 -0.5269
  785MOL0     C 5869   2.645   0.448  10.702 -0.1464 -0.5541 -0.1377
  785MOL0     C 5870   2.552   0.326  10.708  0.0115  0.3822  0.0783
  785MOL0     O 5871   2.541   0.251  10.823  0.1292 -0.6978 -0.3256
  785MOL0     C 5872   2.447   0.161  10.836  0.2579 -0.4566  0.2073
  785MOL0     C 5873   2.488   0.059  10.929  0.2016 -0.7543 -0.2146
  785MOL0     C 5874   2.402  -0.044  10.960 -0.3088 -0.3839 -0.0500
  785MOL0     C 5875   2.274  -0.042  10.901 -0.2167 -0.5095 -0.0820
  785MOL0     O 5876   2.193  -0.148  10.942 -0.0219 -0.0246  1.0269
  785MOL0     C 5877   2.104  -0.206  10.844  0.5238 -0.6177  0.1661
  785MOL0     C 5878   2.047  -0.347  10.898 -0.7872  0.2702  0.2599
  785MOL0     C 5879   1.969  -0.335  11.030  0.3258 -0.5771  0.1008
  785MOL0     C 5880   1.869  -0.455  11.052 -0.2585 -0.1321 -0.3576
  785MOL0     C 5881   1.776  -0.409  11.177 -0.3796  0.3290 -0.4253
  785MOL0     C 5882   1.852  -0.398  11.309  0.0303  0.1867 -0.0061
  785MOL0     C 5883   1.750  -0.391  11.421 -0.2981 -0.0158 -0.6747
  785MOL0     C 5884   1.830  -0.369  11.555 -0.0144  0.0403 -0.1360
  785MOL0    Cl 5885   1.713  -0.389  11.693  0.2156  0.0412 -0.2774
  785MOL0     C 5886   2.225   0.056  10.809 -0.8900  0.7544  0.9342
  785MOL0     C 5887   2.311   0.162  10.786 -0.3086  0.4869  0.5027
  785MOL0     O 5888   2.498   0.300  10.597  0.2953 -0.0129 -0.1457
  785MOL0     C 5889   2.769   0.439  10.761 -0.4381  0.4371  1.2967
  785MOL0     C 5890   2.857   0.544  10.781  0.3308 -0.5403 -0.0601
  785MOL0     N 5891   3.353   0.910  10.806 -0.1691 -0.4203  0.2625
  785MOL0     N 5892   3.452   0.867  10.747  0.8046  0.3694 -1.0459
  785MOL0     C 5893   4.525   1.179  11.136  0.6513  0.6071  0.1486
  785MOL0     C 5894   4.659   1.215  11.102  0.4178 -0.2790 -0.0861
  785MOL0     C 5895   5.093   1.267  11.125  0.2493  0.1662 -0.5204
  785MOL0     C 5896   5.179   1.310  11.226 -0.0047  0.2046  0.0751
  785MOL0     C 5897   5.294   1.370  11.186 -0.1589  0.6579 -0.1595
  785MOL0     C 5898   5.353   1.359  11.059 -0.3960  0.1554 -0.0385
  785MOL0     O 5899   5.480   1.398  11.018 -0.4981  0.2799 -0.2602
  785MOL0     C 5900   5.589   1.422  11.114  1.0001 -0.4385  0.5438
  785MOL0     C 5901   5.618   1.573  11.125  0.1878 -0.2031  0.1474
  785MOL0     C 5902   5.658   1.611  11.267 -1.1731 -0.0558  0.1345
  785MOL0     C 5903   5.812   1.635  11.267  0.2991  0.3234 -0.7275
  785MOL0     C 5904   5.872   1.664  11.398  0.0320 -0.1457 -0.1614
  785MOL0     C 5905   5.918   1.681  11.512 -0.2718 -0.0055  0.0078
  785MOL0     C 5906   5.268   1.307  10.955  0.2486 -1.4949  0.9728
  785MOL0     C 5907   5.141   1.263  10.988  0.3752 -0.2119 -0.6894
  785MOL0     H 5908   4.788   0.915  11.060  1.5082  2.4635 -3.7545
  785MOL0     H 5909   4.553   0.847  11.109 -0.2246  0.0793  1.9814
  785MOL0     H 5910   4.344   0.838  11.068 -1.4641 -2.2105  0.7647
  785MOL0     H 5911   4.306   0.841  11.241  2.9388  1.7871  1.6399
  785MOL0     H 5912   4.124   0.808  11.098  2.0832 -0.7055  1.3022
  785MOL0     H 5913   4.099   0.945  11.209 -1.7101  0.5149 -1.5291
  785MOL0     H 5914   4.100   1.107  11.036 -2.1443 -0.5472  2.4169
  785MOL0     H 5915   4.180   0.994  10.918  1.1412  2.2918  0.9240
  785MOL0     H 5916   3.970   0.851  10.955 -0.7741 -0.1548 -1.2290
  785MOL0     H 5917   3.897   0.991  11.031  2.2057  2.7038  1.0489
  785MOL0     H 5918   3.911   1.118  10.831 -1.7433 -1.0018  1.5595
  785MOL0     H 5919   4.003   0.988  10.740 -0.0225  1.1857  0.1715
  785MOL0     H 5920   3.806   0.831  10.745  0.3546 -0.2743  1.4668
  785MOL0     H 5921   3.710   0.956  10.833  2.3498  2.9232  4.3661
  785MOL0     H 5922   3.744   1.113  10.632 -0.6844  0.6182  1.9620
  785MOL0     H 5923   3.829   0.986  10.556 -1.0256  1.2899 -1.5412
  785MOL0     H 5924   3.635   0.843  10.546  1.8349  0.9931 -2.4655
  785MOL0     H 5925   3.610   0.988  10.471 -1.6778 -1.4838 -0.3060
  785MOL0     H 5926   3.416   1.147  10.587 -0.9645  0.7981 -0.0484
  785MOL0     H 5927   3.212   1.172  10.859 -1.8054 -0.5134  1.8130
  785MOL0     H 5928   3.183   1.169  10.672  3.6689 -2.0071 -0.8846
  785MOL0     H 5929   2.990   1.098  10.832 -1.0280 -2.1658  0.1299
  785MOL0     H 5930   3.077   0.950  10.859  2.1637 -0.0441  0.3311
  785MOL0     H 5931   3.098   0.907  10.613  0.1332 -0.2714 -0.8130
  785MOL0     H 5932   3.021   1.059  10.579  2.4652  0.1387  0.2171
  785MOL0     H 5933   2.877   0.875  10.543  2.1954 -0.7588  0.4189
  785MOL0     H 5934   2.807   0.969  10.683 -1.5978 -0.5694 -1.7578
  785MOL0     H 5935   2.668   0.782  10.619  0.1512 -0.3616  0.1106
  785MOL0     H 5936   2.406   0.549  10.616  1.3696  0.4127  1.6453
  785MOL0     H 5937   2.474   0.687  10.518 -3.8523 -1.2917 -1.5590
  785MOL0     H 5938   2.493   0.532  10.461 -1.4166 -1.8914  0.1710
  785MOL0     H 5939   2.585   0.081  10.974  0.4015 -1.1821 -0.4275
  785MOL0     H 5940   2.430  -0.120  11.033 -0.2089 -0.9699 -0.6884
  785MOL0     H 5941   2.025  -0.140  10.805  1.5777  1.0022  0.6792
  785MOL0     H 5942   2.174  -0.234  10.765  0.0401  1.8714 -1.2529
  785MOL0     H 5943   1.978  -0.398  10.830 -1.0873  0.4384  0.4361
  785MOL0     H 5944   2.133  -0.414  10.905 -1.5392 -1.1696 -2.7709
  785MOL0     H 5945   1.917  -0.239  11.027  2.3108  0.5475  0.7368
  785MOL0     H 5946   2.040  -0.316  11.110  0.0207  0.5483  0.1248
  785MOL0     H 5947   1.813  -0.469  10.959  0.3168  1.3115 -0.9419
  785MOL0     H 5948   1.919  -0.546  11.085 -2.2108 -0.9756  0.4393
  785MOL0     H 5949   1.700  -0.488  11.185 -0.6635  0.3294 -2.4736
  785MOL0     H 5950   1.727  -0.313  11.159  1.0103  1.3053  0.8406
  785MOL0     H 5951   1.909  -0.488  11.335 -2.7097 -0.9356  2.7020
  785MOL0     H 5952   1.913  -0.308  11.312 -1.6701  1.4562 -1.3672
  785MOL0     H 5953   1.700  -0.487  11.426 -0.3788 -0.0975 -2.3092
  785MOL0     H 5954   1.677  -0.310  11.410  0.8133  1.1648  0.1934
  785MOL0     H 5955   1.872  -0.268  11.554 -1.3209  0.6138 -0.8563
  785MOL0     H 5956   1.903  -0.448  11.573 -1.2002 -1.2270 -0.6361
  785MOL0     H 5957   2.128   0.048  10.760 -1.1492  2.6124  1.0774
  785MOL0     H 5958   2.275   0.237  10.716  2.4686  0.6758 -0.8772
  785MOL0     H 5959   2.793   0.347  10.812  0.0414  1.0270  2.1590
  785MOL0     H 5960   2.949   0.539  10.839  0.4946 -2.1195 -0.4083
  785MOL0     H 5961   4.454   1.260  11.153  1.0535  1.2988 -1.3110
  785MOL0     H 5962   4.687   1.320  11.101 -1.2018  0.2338  1.7957
  785MOL0     H 5963   5.140   1.321  11.327 -0.5768  0.3213 -0.1518
  785MOL0     H 5964   5.362   1.404  11.264 -0.1255 -0.4566  0.3191
  785MOL0     H 5965   5.572   1.383  11.215  0.4139 -1.3624  0.1010
  785MOL0     H 5966   5.677   1.369  11.078  0.1704  0.5770 -3.3849
  785MOL0     H 5967   5.535   1.633  11.088 -1.5224 -1.4987  1.7034
  785MOL0     H 5968   5.704   1.598  11.062  2.7556 -1.3273  2.9672
  785MOL0     H 5969   5.614   1.545  11.342 -0.9412  1.9200  2.1560
  785MOL0     H 5970   5.622   1.711  11.295  1.5354  0.3554  2.7380
  785MOL0     H 5971   5.836   1.718  11.201 -0.9639  0.4612 -1.0320
  785MOL0     H 5972   5.862   1.544  11.231 -1.8683 -1.2047 -0.1188
  785MOL0     H 5973   5.964   1.718  11.602  0.6500  0.5573 -0.6786
  785MOL0     H 5974   5.290   1.310  10.848 -1.3035  2.4513  0.6024
  785MOL0     H 5975   5.064   1.229  10.919 -1.2814 -3.2555  2.3463
  786MOL0     O 5976   9.900   5.721   3.275  0.1293  0.0390 -1.0683
  786MOL0     C 5977   9.929   5.615   3.224  0.6795 -0.0644  0.1233
  786MOL0     O 5978   9.839   5.520   3.174 -0.9368  0.7747  0.3816
  786MOL0     C 5979   9.709   5.546   3.203 -0.1653  0.3287  0.6581
  786MOL0     C 5980   9.617   5.535   3.099 -0.0859 -0.2173 -0.8368
  786MOL0     C 5981   9.483   5.561   3.121  0.0619  0.1999 -0.3916
  786MOL0     C 5982   9.434   5.602   3.245 -0.0889  0.3021  0.0549
  786MOL0     O 5983   9.296   5.622   3.252 -0.3036  0.0820 -0.6819
  786MOL0     C 5984   9.235   5.618   3.383  0.1397  0.2999  0.3254
  786MOL0     C 5985   9.214   5.754   3.443 -1.1687  0.0717 -0.1986
  786MOL0     C 5986   9.088   5.829   3.406  0.5429 -0.1357  0.9504
  786MOL0     C 5987   9.112   5.908   3.279 -0.1579  0.7852  0.4417
  786MOL0     C 5988   8.991   6.005   3.253  0.2208 -0.5100 -0.4260
  786MOL0     C 5989   9.009   6.108   3.150  0.2031 -0.0916  0.1147
  786MOL0     C 5990   9.037   6.039   3.016  0.1215  0.3395 -0.1476
  786MOL0     C 5991   9.031   6.138   2.904  0.1812  0.6306 -0.3277
  786MOL0     N 5992   9.036   6.095   2.767  0.5319  0.4696  0.1692
  786MOL0     C 5993   9.143   6.095   2.679  0.3156  0.8191  0.2496
  786MOL0     C 5994   9.120   6.003   2.584  1.5831 -0.0151 -0.4050
  786MOL0     C 5995   9.196   5.998   2.453 -0.2328 -1.1212  0.4893
  786MOL0     C 5996   9.324   5.904   2.456  0.3604 -0.6067  0.4091
  786MOL0     C 5997   9.372   5.878   2.313  0.4362 -0.1227 -0.2363
  786MOL0     C 5998   9.502   5.797   2.313  0.5909 -0.7364 -0.0787
  786MOL0     O 5999   9.534   5.745   2.179 -1.0026 -1.6321 -0.2428
  786MOL0     C 6000   9.647   5.671   2.173  0.8787 -0.1847  0.1951
  786MOL0     C 6001   9.653   5.580   2.077 -0.5505  0.0823  0.1651
  786MOL0     C 6002   9.771   5.499   2.054  0.2652 -0.0651 -0.5851
  786MOL0     C 6003   9.765   5.380   1.962 -0.2756  0.0380 -0.9222
  786MOL0     C 6004   9.886   5.525   2.142 -0.5449 -0.1114  0.3928
  786MOL0     C 6005  10.021   5.462   2.133 -0.2754 -0.2354 -0.4856
  786MOL0     O 6006  10.100   5.466   2.242 -0.2341 -0.4973 -0.4328
  786MOL0     C 6007  10.224   5.418   2.234  0.4640  0.4787 -0.0918
  786MOL0     C 6008  10.335   5.501   2.230 -0.5450 -0.3298 -0.0844
  786MOL0     C 6009  10.465   5.446   2.251 -0.6013  0.0646 -0.2281
  786MOL0     C 6010  10.486   5.308   2.264  0.4426  0.2636 -0.6566
  786MOL0     O 6011  10.598   5.235   2.271 -0.1119 -0.3608 -0.3124
  786MOL0     C 6012  10.717   5.317   2.268  0.1260  1.0296 -0.5451
  786MOL0     C 6013  10.845   5.229   2.258  0.5050 -0.0843 -0.5546
  786MOL0     C 6014  10.849   5.171   2.121  0.2239 -0.8311  0.5046
  786MOL0     C 6015  10.968   5.232   2.047  0.8074  0.0485 -0.3117
  786MOL0     C 6016  10.997   5.156   1.917  0.7337 -0.4269  0.3801
  786MOL0     C 6017  11.080   5.033   1.946  0.6246  0.8479  0.3405
  786MOL0     C 6018  11.089   4.969   1.810 -0.6277 -0.6807  0.2568
  786MOL0     C 6019  11.213   4.885   1.816  0.2979  0.6523  0.0997
  786MOL0    Cl 6020  11.205   4.786   1.671  0.2143  0.7013  0.2582
  786MOL0     C 6021  10.372   5.223   2.257  0.3158 -0.0125 -0.2016
  786MOL0     C 6022  10.242   5.278   2.245 -0.2818 -0.1695  0.0924
  786MOL0     O 6023  10.048   5.396   2.030 -0.2634 -0.1415  0.7925
  786MOL0     C 6024   9.871   5.618   2.243  0.0368 -0.4825 -0.0965
  786MOL0     C 6025   9.752   5.693   2.264  0.0411 -0.9784 -0.4123
  786MOL0     N 6026   9.006   5.934   2.624 -0.1197  0.7988  0.9431
  786MOL0     N 6027   8.958   5.985   2.737 -0.8849  0.4127  0.6767
  786MOL0     C 6028   9.524   5.612   3.352  0.4581 -0.4330 -0.4312
  786MOL0     C 6029   9.660   5.576   3.331  0.1463 -0.1252  0.1319
  786MOL0     C 6030  10.068   5.601   3.205  0.0082  0.4729  0.6480
  786MOL0     C 6031  10.169   5.675   3.274 -0.2050  0.6741  0.5581
  786MOL0     C 6032  10.305   5.653   3.257 -0.4800  0.1744 -0.1431
  786MOL0     C 6033  10.345   5.543   3.183 -0.6299  0.4209 -0.2191
  786MOL0     O 6034  10.472   5.506   3.150  0.6596  0.1439  0.7577
  786MOL0     C 6035  10.579   5.583   3.199 -0.4914  0.7765 -0.4831
  786MOL0     C 6036  10.700   5.500   3.169  0.4978  0.1489  0.1974
  786MOL0     C 6037  10.738   5.413   3.288 -0.3718  0.2425 -0.0022
  786MOL0     C 6038  10.780   5.261   3.246 -0.1796 -0.4897 -0.1603
  786MOL0     C 6039  10.816   5.212   3.382  0.2177  0.3155 -0.4679
  786MOL0     C 6040  10.859   5.183   3.490 -0.5842 -0.7592 -0.0430
  786MOL0     C 6041  10.249   5.475   3.108 -0.9468 -0.0911 -0.5974
  786MOL0     C 6042  10.113   5.495   3.121  0.5231  0.2948 -0.2299
  786MOL0     H 6043   9.656   5.522   2.999 -2.2262  1.4196 -1.9795
  786MOL0     H 6044   9.411   5.550   3.040  1.3967  0.5514 -1.6619
  786MOL0     H 6045   9.136   5.572   3.370 -0.2726  1.7079 -1.9456
  786MOL0     H 6046   9.284   5.557   3.459  0.9948  0.2385 -0.2663
  786MOL0     H 6047   9.211   5.743   3.552 -0.7123 -2.5967 -0.3843
  786MOL0     H 6048   9.303   5.814   3.423 -1.5236  0.8519  0.4910
  786MOL0     H 6049   9.006   5.758   3.390  0.7869 -0.1298 -0.5000
  786MOL0     H 6050   9.060   5.902   3.482 -0.2964  1.5244 -0.8898
  786MOL0     H 6051   9.199   5.973   3.273  0.1384  0.3220 -0.3986
  786MOL0     H 6052   9.123   5.845   3.190  0.3192  0.9261  0.3976
  786MOL0     H 6053   8.905   5.944   3.224 -0.9670  0.5434  0.7121
  786MOL0     H 6054   8.966   6.046   3.352 -2.1913  2.3572 -2.0539
  786MOL0     H 6055   8.912   6.160   3.153 -0.6172 -1.6079  1.9255
  786MOL0     H 6056   9.095   6.170   3.174  1.8108 -1.9378 -0.5994
  786MOL0     H 6057   9.132   5.985   3.023 -0.4391 -0.4811  2.1324
  786MOL0     H 6058   8.955   5.967   3.008 -0.4493  0.6471  2.2217
  786MOL0     H 6059   9.096   6.223   2.925  1.7711 -0.4904 -0.4947
  786MOL0     H 6060   8.929   6.177   2.904 -0.6989 -1.4228  1.4246
  786MOL0     H 6061   9.225   6.165   2.667 -0.3930  1.9714  1.8576
  786MOL0     H 6062   9.128   5.953   2.380 -0.3408 -0.1373 -0.0320
  786MOL0     H 6063   9.220   6.096   2.411  1.0204 -0.7244  2.0467
  786MOL0     H 6064   9.315   5.807   2.507  1.1259 -1.5100 -1.0858
  786MOL0     H 6065   9.412   5.951   2.500  0.5789  0.1998 -0.8273
  786MOL0     H 6066   9.379   5.974   2.262 -0.7895  0.9299  1.4803
  786MOL0     H 6067   9.284   5.834   2.266 -1.1611  2.9761 -0.3742
  786MOL0     H 6068   9.482   5.711   2.377  1.6231  0.3812  1.8818
  786MOL0     H 6069   9.575   5.865   2.358 -0.0837  0.3189 -0.5305
  786MOL0     H 6070   9.580   5.569   1.998  1.1590  3.1424 -2.0388
  786MOL0     H 6071   9.784   5.288   2.017 -1.2716 -0.0352 -0.6902
  786MOL0     H 6072   9.669   5.360   1.914 -0.1762  0.5007 -1.3219
  786MOL0     H 6073   9.830   5.392   1.874 -0.9945 -0.3861 -1.5230
  786MOL0     H 6074  10.319   5.606   2.209  0.2279  0.0980  1.2522
  786MOL0     H 6075  10.548   5.516   2.259  0.2128 -1.0905  2.2436
  786MOL0     H 6076  10.715   5.391   2.187 -2.7284  1.0854 -0.5425
  786MOL0     H 6077  10.719   5.385   2.354  0.4074  2.1690 -1.4359
  786MOL0     H 6078  10.929   5.295   2.283 -0.7150  0.7258  1.6647
  786MOL0     H 6079  10.832   5.157   2.338 -1.6530 -1.2597 -1.8677
  786MOL0     H 6080  10.755   5.197   2.071  1.0144 -1.2817 -1.3087
  786MOL0     H 6081  10.848   5.062   2.114 -1.6750 -1.0585  2.8219
  786MOL0     H 6082  10.957   5.338   2.024  0.4246  0.0803  0.0060
  786MOL0     H 6083  11.048   5.238   2.121  0.5260  0.8898 -0.0664
  786MOL0     H 6084  11.055   5.227   1.857 -1.8580  0.9407 -0.6351
  786MOL0     H 6085  10.901   5.132   1.872  0.7359 -0.7594  0.5484
  786MOL0     H 6086  11.181   5.064   1.975  0.0857  1.8973  1.2163
  786MOL0     H 6087  11.027   4.971   2.019 -0.8097  1.2978 -0.2769
  786MOL0     H 6088  11.105   5.043   1.731  1.8811  0.9804  2.1426
  786MOL0     H 6089  11.012   4.897   1.782  0.8762 -1.6552 -1.5926
  786MOL0     H 6090  11.221   4.820   1.903  1.8126 -0.0565 -0.5258
  786MOL0     H 6091  11.301   4.949   1.805  1.2241 -0.2039  2.1093
  786MOL0     H 6092  10.387   5.116   2.269  0.2135  0.1071  1.1944
  786MOL0     H 6093  10.156   5.211   2.245 -2.9560  2.9967 -1.0670
  786MOL0     H 6094   9.950   5.641   2.315 -0.5732  1.7989 -0.0698
  786MOL0     H 6095   9.760   5.767   2.343 -2.6700 -0.2365 -0.7318
  786MOL0     H 6096   9.497   5.658   3.447 -1.4989 -0.3734 -0.9681
  786MOL0     H 6097   9.728   5.581   3.416 -0.8700  0.2458  0.9406
  786MOL0     H 6098  10.130   5.765   3.320 -1.8024  0.8130 -0.9611
  786MOL0     H 6099  10.371   5.721   3.311 -2.1469 -1.9977  5.2639
  786MOL0     H 6100  10.578   5.685   3.158  2.1233  0.4281 -1.5982
  786MOL0     H 6101  10.574   5.600   3.307  0.0499 -1.4616 -0.0605
  786MOL0     H 6102  10.780   5.573   3.150  1.4353 -0.8629  0.1485
  786MOL0     H 6103  10.690   5.448   3.073 -1.1559  0.7891  0.0025
  786MOL0     H 6104  10.670   5.414   3.373  0.3671 -2.7575  0.7286
  786MOL0     H 6105  10.831   5.465   3.314  0.3529  1.2955 -3.9837
  786MOL0     H 6106  10.868   5.262   3.181 -0.4784  0.0431 -0.5615
  786MOL0     H 6107  10.705   5.207   3.187  0.1043 -0.5478 -0.4719
  786MOL0     H 6108  10.892   5.157   3.589 -1.4718  1.5277  0.9240
  786MOL0     H 6109  10.279   5.390   3.047  0.6564 -0.2397  0.3298
  786MOL0     H 6110  10.059   5.424   3.059  1.6652 -0.2356 -0.6342
  787MOL0     O 6111   9.280   7.658   8.306 -0.1823  0.0088  0.2291
  787MOL0     C 6112   9.372   7.641   8.379 -0.4063 -0.7388 -0.4183
  787MOL0     O 6113   9.360   7.630   8.515  0.2096 -0.0783  0.1604
  787MOL0     C 6114   9.247   7.650   8.589 -0.4619 -0.6594 -0.1631
  787MOL0     C 6115   9.246   7.591   8.718 -1.3120  0.2053 -0.3148
  787MOL0     C 6116   9.140   7.620   8.809 -0.0387  0.3049 -0.3200
  787MOL0     C 6117   9.032   7.713   8.777  0.9294  1.0273  0.6113
  787MOL0     O 6118   8.941   7.747   8.874 -0.9424 -0.5630 -0.6812
  787MOL0     C 6119   8.829   7.842   8.861  0.6944  0.5568  0.3860
  787MOL0     C 6120   8.716   7.776   8.778  0.1230 -0.4041 -0.8487
  787MOL0     C 6121   8.644   7.670   8.862 -0.8594 -0.3490  0.3290
  787MOL0     C 6122   8.584   7.567   8.779 -1.1287 -1.0046 -0.0641
  787MOL0     C 6123   8.453   7.514   8.837  0.0524  0.5165 -0.3086
  787MOL0     C 6124   8.399   7.391   8.758 -0.5423 -0.5364  0.2997
  787MOL0     C 6125   8.408   7.396   8.606  0.4175 -0.1833  0.2913
  787MOL0     C 6126   8.325   7.288   8.529 -0.8052  0.2367 -0.1981
  787MOL0     N 6127   8.178   7.274   8.554 -0.1035  0.0310  0.0616
  787MOL0     C 6128   8.137   7.192   8.652  0.0717 -0.3059 -0.1870
  787MOL0     C 6129   8.007   7.198   8.641  0.3793 -0.2212 -0.6597
  787MOL0     C 6130   7.922   7.102   8.714 -0.6470  0.3164  0.4845
  787MOL0     C 6131   7.790   7.173   8.738 -0.0408  0.2177 -0.1904
  787MOL0     C 6132   7.698   7.099   8.838 -0.0285 -0.5231  1.2775
  787MOL0     C 6133   7.575   7.180   8.857  0.1477 -0.0406  0.0731
  787MOL0     O 6134   7.488   7.098   8.940  0.7605 -0.3333  0.3947
  787MOL0     C 6135   7.356   7.140   8.973 -0.3911  0.4417 -0.1756
  787MOL0     C 6136   7.306   7.063   9.081 -0.0183  0.7251  0.6522
  787MOL0     C 6137   7.181   7.101   9.134 -0.4034 -0.2844 -0.7513
  787MOL0     C 6138   7.129   7.016   9.245  0.2305 -0.9711  0.6381
  787MOL0     C 6139   7.106   7.212   9.074  0.2161  0.4831  0.3091
  787MOL0     C 6140   6.967   7.257   9.112 -0.2841 -0.2317 -0.0642
  787MOL0     O 6141   6.899   7.346   9.034  0.6356  0.1228  0.0875
  787MOL0     C 6142   6.767   7.351   9.060  0.9813 -0.9374 -0.5842
  787MOL0     C 6143   6.720   7.459   9.134 -0.5463  0.0425 -0.4804
  787MOL0     C 6144   6.581   7.465   9.158 -0.6248 -0.3776  0.1839
  787MOL0     C 6145   6.486   7.382   9.096  0.4937 -0.5185  0.0726
  787MOL0     O 6146   6.352   7.409   9.116  0.1935 -0.4097 -0.3982
  787MOL0     C 6147   6.268   7.382   9.002  0.1302  0.2580  1.1929
  787MOL0     C 6148   6.125   7.402   9.043  0.8566 -0.4475 -0.1802
  787MOL0     C 6149   6.028   7.357   8.936  0.3296  0.4410  0.3485
  787MOL0     C 6150   5.886   7.338   8.994 -0.3063 -0.0454 -0.2018
  787MOL0     C 6151   5.768   7.357   8.906 -0.0174 -0.5067 -0.0783
  787MOL0     C 6152   5.775   7.266   8.785  0.2763 -0.4955 -0.2119
  787MOL0     C 6153   5.670   7.304   8.683 -0.2632 -0.9943  0.1677
  787MOL0     C 6154   5.696   7.213   8.563 -0.0263 -0.1017 -0.0631
  787MOL0    Cl 6155   5.578   7.261   8.438  0.1662  0.0649  0.1359
  787MOL0     C 6156   6.544   7.289   9.004  0.8026  0.3119 -0.1053
  787MOL0     C 6157   6.680   7.271   8.992 -0.5713 -0.1042  0.4917
  787MOL0     O 6158   6.931   7.223   9.220  0.3154  0.1056 -0.5103
  787MOL0     C 6159   7.161   7.285   8.968 -0.0190  0.4580 -0.0491
  787MOL0     C 6160   7.292   7.250   8.923  0.2881  1.0157 -0.1159
  787MOL0     N 6161   7.970   7.282   8.532  0.4586  0.0447 -0.8338
  787MOL0     N 6162   8.079   7.335   8.481  0.8179 -0.8805 -0.1727
  787MOL0     C 6163   9.035   7.766   8.643  0.0266 -0.2276 -1.0123
  787MOL0     C 6164   9.140   7.734   8.560 -1.2470  0.2470  0.2358
  787MOL0     C 6165   9.495   7.603   8.309 -0.1940 -0.1477 -0.9184
  787MOL0     C 6166   9.526   7.668   8.189  0.1905 -0.8767  0.2485
  787MOL0     C 6167   9.653   7.638   8.133  0.3080 -0.3625  0.7024
  787MOL0     C 6168   9.745   7.548   8.187 -0.2528 -0.5834  0.5355
  787MOL0     O 6169   9.861   7.524   8.140 -0.7281  0.4581  0.3364
  787MOL0     C 6170   9.924   7.602   8.042 -0.6364 -0.4670  0.2803
  787MOL0     C 6171  10.057   7.536   8.012  0.7499  0.2287 -0.4458
  787MOL0     C 6172  10.151   7.548   8.132 -0.1578 -0.1453  0.7254
  787MOL0     C 6173  10.289   7.503   8.093 -0.1879 -0.0843  0.1996
  787MOL0     C 6174  10.387   7.556   8.190  0.0842 -0.4262  0.2795
  787MOL0     C 6175  10.463   7.604   8.273 -0.3781  0.4199 -0.5251
  787MOL0     C 6176   9.704   7.486   8.304 -0.1017 -0.1092 -0.2133
  787MOL0     C 6177   9.586   7.510   8.366  0.1360 -0.0944  0.0843
  787MOL0     H 6178   9.325   7.527   8.755 -1.2679  0.6681  0.4200
  787MOL0     H 6179   9.138   7.571   8.906 -0.0131 -0.6823 -0.8096
  787MOL0     H 6180   8.792   7.860   8.962  2.5758 -1.4068  1.5185
  787MOL0     H 6181   8.865   7.938   8.823  0.9331 -0.0099 -0.8945
  787MOL0     H 6182   8.648   7.857   8.750  0.8636  1.9134  3.2320
  787MOL0     H 6183   8.745   7.736   8.681 -2.9362  1.4659 -2.6958
  787MOL0     H 6184   8.714   7.624   8.932  0.6098 -0.2277 -0.9952
  787MOL0     H 6185   8.563   7.715   8.920  0.3927 -1.3958  3.0651
  787MOL0     H 6186   8.571   7.605   8.677 -0.7548  0.4238  0.4014
  787MOL0     H 6187   8.654   7.483   8.772 -0.3423 -0.2828 -1.1512
  787MOL0     H 6188   8.463   7.480   8.941  0.6376  0.5998 -0.3346
  787MOL0     H 6189   8.367   7.581   8.837 -1.8384 -1.7861  0.5435
  787MOL0     H 6190   8.465   7.311   8.790  0.3632 -0.2490 -0.7892
  787MOL0     H 6191   8.297   7.360   8.783 -0.7985  0.1174  0.1093
  787MOL0     H 6192   8.360   7.488   8.571 -2.1632 -1.2738  0.7950
  787MOL0     H 6193   8.512   7.392   8.573  1.0250  0.5181  2.0068
  787MOL0     H 6194   8.378   7.193   8.548  0.0591  1.1461  2.4873
  787MOL0     H 6195   8.342   7.306   8.423  4.2156 -0.7981  0.1503
  787MOL0     H 6196   8.202   7.120   8.700 -0.0987  0.4764  1.2958
  787MOL0     H 6197   7.903   7.005   8.666  0.0951  0.2234  0.3774
  787MOL0     H 6198   7.969   7.071   8.808  0.6166  1.6260  0.3180
  787MOL0     H 6199   7.738   7.192   8.644  1.2181  0.1233 -0.9381
  787MOL0     H 6200   7.822   7.273   8.769  3.2676 -1.1154  1.2592
  787MOL0     H 6201   7.751   7.089   8.933  0.1105 -1.4808  1.1119
  787MOL0     H 6202   7.665   7.001   8.803 -1.8006 -0.1173  1.7403
  787MOL0     H 6203   7.536   7.197   8.756 -2.0939  1.6241  1.1421
  787MOL0     H 6204   7.587   7.281   8.898 -1.7151  0.7579 -1.1920
  787MOL0     H 6205   7.365   6.979   9.117 -0.8390 -0.3273 -0.4031
  787MOL0     H 6206   7.040   6.962   9.210  0.2266 -0.0710 -0.8212
  787MOL0     H 6207   7.204   6.946   9.282  1.8075 -0.1598 -0.8540
  787MOL0     H 6208   7.104   7.088   9.323  1.6068 -0.5325  0.6942
  787MOL0     H 6209   6.791   7.523   9.185  0.4988 -0.5279 -1.1652
  787MOL0     H 6210   6.541   7.544   9.220  0.2771  0.6546 -0.4976
  787MOL0     H 6211   6.291   7.456   8.925 -2.2208 -0.5870 -0.4498
  787MOL0     H 6212   6.268   7.285   8.951 -3.2085  1.5481 -1.7451
  787MOL0     H 6213   6.099   7.347   9.134  1.7166 -0.6431 -0.0470
  787MOL0     H 6214   6.105   7.508   9.057 -1.2247 -0.8260  0.0769
  787MOL0     H 6215   6.056   7.267   8.880  0.8587  1.9269 -1.9522
  787MOL0     H 6216   6.018   7.435   8.859  1.0415 -1.6167 -1.9517
  787MOL0     H 6217   5.879   7.232   9.021  0.5967 -0.3673 -1.1630
  787MOL0     H 6218   5.868   7.399   9.083  0.1111 -3.6891  2.6633
  787MOL0     H 6219   5.769   7.461   8.870 -0.3346 -0.0005  1.3436
  787MOL0     H 6220   5.676   7.341   8.961 -0.4503  4.1332  0.9568
  787MOL0     H 6221   5.875   7.281   8.743  1.3126  2.1341  2.7251
  787MOL0     H 6222   5.762   7.162   8.815 -0.9386 -0.2274  0.2541
  787MOL0     H 6223   5.672   7.409   8.655 -0.8191 -0.8691  0.5659
  787MOL0     H 6224   5.565   7.285   8.708 -1.1950  0.8402 -2.0082
  787MOL0     H 6225   5.667   7.111   8.591 -4.1199  0.6191 -1.0270
  787MOL0     H 6226   5.802   7.224   8.541  0.1142  0.2984  0.7619
  787MOL0     H 6227   6.478   7.227   8.944  0.1815  1.1720 -0.3285
  787MOL0     H 6228   6.716   7.198   8.920 -1.1779 -0.7161  0.7968
  787MOL0     H 6229   7.112   7.366   8.914 -2.3680 -0.4400  0.6288
  787MOL0     H 6230   7.354   7.298   8.848  0.9938  0.9970  0.4431
  787MOL0     H 6231   8.966   7.843   8.609  0.5792 -0.6474 -3.2337
  787MOL0     H 6232   9.133   7.779   8.462 -0.5380  1.6679  0.7956
  787MOL0     H 6233   9.449   7.731   8.146 -1.4438 -0.4061  3.5884
  787MOL0     H 6234   9.684   7.690   8.043 -2.9969 -0.7518 -0.8045
  787MOL0     H 6235   9.860   7.610   7.953 -1.4157 -0.9225  0.7818
  787MOL0     H 6236   9.955   7.695   8.090  1.8385 -2.5041  3.0559
  787MOL0     H 6237  10.088   7.598   7.928 -2.7215  1.5986 -0.9196
  787MOL0     H 6238  10.036   7.431   7.989  0.2796 -0.4473  2.6148
  787MOL0     H 6239  10.119   7.494   8.222  2.1828  0.9325  2.3194
  787MOL0     H 6240  10.167   7.652   8.164  1.8740 -0.7527  1.8964
  787MOL0     H 6241  10.315   7.557   8.001  2.3991 -1.5480 -0.0433
  787MOL0     H 6242  10.307   7.396   8.079  0.0450 -0.2526  1.6624
  787MOL0     H 6243  10.523   7.637   8.356  0.6214  0.5597 -1.2870
  787MOL0     H 6244   9.760   7.409   8.355  1.5364  1.4489  0.4450
  787MOL0     H 6245   9.559   7.464   8.461 -2.2842  2.2987  0.6885
  788MOL0     O 6246   9.079   9.759  10.080  0.2325 -0.2943 -0.3705
  788MOL0     C 6247   9.021   9.659  10.042 -0.1051 -0.7527  0.0518
  788MOL0     O 6248   8.880   9.632  10.059  0.4989  0.5792  0.2219
  788MOL0     C 6249   8.803   9.720  10.137  0.5004  0.2325  0.5765
  788MOL0     C 6250   8.796   9.860  10.123  0.7093  0.0505  0.1328
  788MOL0     C 6251   8.709   9.937  10.206 -0.1306  0.1109 -0.2671
  788MOL0     C 6252   8.637   9.875  10.303  1.4611  0.7290  0.2003
  788MOL0     O 6253   8.546   9.958  10.368  0.5898  0.1017 -0.2242
  788MOL0     C 6254   8.494   9.908  10.495 -0.0157 -0.8015 -0.7602
  788MOL0     C 6255   8.401  10.020  10.556 -0.0968  0.5989 -0.0844
  788MOL0     C 6256   8.305   9.962  10.665 -0.3363  0.3960 -0.4140
  788MOL0     C 6257   8.223  10.071  10.728 -0.1802  0.2898  0.5572
  788MOL0     C 6258   8.132   9.998  10.830  0.5061 -0.9490  0.8232
  788MOL0     C 6259   7.996  10.049  10.826 -0.4251 -0.3379 -0.1963
  788MOL0     C 6260   7.903   9.985  10.931  0.2494  0.1953 -0.2532
  788MOL0     C 6261   7.846   9.857  10.861  0.1581  1.0491 -0.4733
  788MOL0     N 6262   7.815   9.759  10.960  0.1464 -0.0813 -0.4199
  788MOL0     C 6263   7.712   9.768  11.057 -0.6400  0.0355 -0.0747
  788MOL0     C 6264   7.713   9.641  11.110 -0.4789 -0.7236 -0.6268
  788MOL0     C 6265   7.612   9.589  11.208  0.0310  0.3762  0.2252
  788MOL0     C 6266   7.639   9.616  11.356  0.5843  0.9280 -0.2571
  788MOL0     C 6267   7.547   9.538  11.460 -0.2051  0.7458 -0.1674
  788MOL0     C 6268   7.410   9.619  11.482  0.0833  1.2118  0.1310
  788MOL0     O 6269   7.330   9.629  11.362  0.0312  0.4575 -0.0743
  788MOL0     C 6270   7.202   9.671  11.380  0.5678 -1.2070 -0.0967
  788MOL0     C 6271   7.164   9.806  11.386 -0.1379  0.1596 -0.1428
  788MOL0     C 6272   7.035   9.861  11.398  0.1588 -0.2634 -0.3019
  788MOL0     C 6273   7.020  10.007  11.403  0.1158 -0.1836  0.5429
  788MOL0     C 6274   6.926   9.768  11.408 -0.3599  0.2759  0.4470
  788MOL0     C 6275   6.780   9.813  11.413 -0.6842  1.3573 -0.2389
  788MOL0     O 6276   6.696   9.713  11.379 -0.3392  0.4094 -0.0179
  788MOL0     C 6277   6.567   9.729  11.345  0.1723  0.5085 -0.7437
  788MOL0     C 6278   6.521   9.668  11.226  0.1579 -1.1335 -0.9309
  788MOL0     C 6279   6.386   9.677  11.193  0.0874  0.5509 -0.1133
  788MOL0     C 6280   6.291   9.740  11.272 -0.3286 -0.4335 -0.4224
  788MOL0     O 6281   6.169   9.758  11.223 -0.1864  0.1486 -0.0819
  788MOL0     C 6282   6.096   9.644  11.167 -0.1879  0.5006 -0.6715
  788MOL0     C 6283   5.950   9.673  11.148  0.3816  0.5421  0.2260
  788MOL0     C 6284   5.861   9.676  11.279 -0.3628 -0.5250  0.4849
  788MOL0     C 6285   5.714   9.668  11.246  0.4508  0.1891  0.3371
  788MOL0     C 6286   5.661   9.781  11.153  0.1845 -0.0111 -0.4699
  788MOL0     C 6287   5.512   9.764  11.146 -0.1994 -0.4782 -0.4040
  788MOL0     C 6288   5.448   9.833  11.031  0.1834  0.6724  0.3901
  788MOL0     C 6289   5.465   9.982  11.033 -0.2461 -0.9249 -0.5381
  788MOL0    Cl 6290   5.439  10.064  11.191 -0.1741 -0.3617  0.5047
  788MOL0     C 6291   6.344   9.807  11.382 -0.2302  0.5583 -0.8524
  788MOL0     C 6292   6.475   9.786  11.421  0.3586 -0.2825 -0.2199
  788MOL0     O 6293   6.751   9.925  11.444  0.2814 -0.3117  0.4305
  788MOL0     C 6294   6.963   9.627  11.405 -0.3997  0.4600  0.3965
  788MOL0     C 6295   7.097   9.581  11.382  0.5547 -0.0602  0.5734
  788MOL0     N 6296   7.800   9.563  11.040 -0.0306  0.4611  0.4876
  788MOL0     N 6297   7.868   9.630  10.960 -0.0774 -0.1635 -0.2258
  788MOL0     C 6298   8.643   9.730  10.314  0.3540  0.1672 -0.4651
  788MOL0     C 6299   8.728   9.652  10.227  0.3583 -0.6949 -1.0624
  788MOL0     C 6300   9.109   9.556   9.970 -0.3388  0.7012 -0.3144
  788MOL0     C 6301   9.223   9.594   9.903 -0.3104 -0.4549 -0.1033
  788MOL0     C 6302   9.299   9.485   9.843 -0.1959 -0.1246 -0.7250
  788MOL0     C 6303   9.275   9.351   9.865 -0.3879  0.1032 -0.0803
  788MOL0     O 6304   9.374   9.265   9.817 -0.2001 -0.3213 -0.1449
  788MOL0     C 6305   9.401   9.144   9.899 -0.6355  0.1744  0.3596
  788MOL0     C 6306   9.536   9.089   9.857  0.0107  0.0355 -0.3607
  788MOL0     C 6307   9.647   9.177   9.904  1.0271  0.3260  0.8199
  788MOL0     C 6308   9.777   9.096   9.890  0.4275  0.6871  0.0062
  788MOL0     C 6309   9.885   9.180   9.953 -0.4929 -0.1281 -0.7310
  788MOL0     C 6310   9.969   9.249  10.013  0.3613  0.4487 -0.3945
  788MOL0     C 6311   9.168   9.317   9.941  0.4454  0.6368 -0.1850
  788MOL0     C 6312   9.085   9.415   9.994  0.1207  0.2762  0.2888
  788MOL0     H 6313   8.868   9.920  10.068  2.3633 -0.1459  1.9837
  788MOL0     H 6314   8.699  10.044  10.192 -1.1047  0.1034  0.2780
  788MOL0     H 6315   8.441   9.812  10.487  0.7562 -1.4934  1.4571
  788MOL0     H 6316   8.582   9.900  10.561  0.2182  0.8340 -0.8420
  788MOL0     H 6317   8.462  10.103  10.593  2.9141 -1.2902 -0.4359
  788MOL0     H 6318   8.332  10.054  10.478 -0.9015  1.0863  0.8259
  788MOL0     H 6319   8.228   9.909  10.607 -1.0420  1.2177 -0.2523
  788MOL0     H 6320   8.359   9.887  10.724  0.0864  1.7002  0.8985
  788MOL0     H 6321   8.283  10.147  10.779 -0.4128  0.3879  0.6900
  788MOL0     H 6322   8.167  10.126  10.652  0.9928 -1.8320 -2.0008
  788MOL0     H 6323   8.129   9.890  10.813  1.0354 -1.0655  1.4340
  788MOL0     H 6324   8.185  10.016  10.924  0.8177  0.1630  0.4530
  788MOL0     H 6325   7.993  10.156  10.848  0.3922 -0.1313 -1.0385
  788MOL0     H 6326   7.953  10.043  10.726 -2.9725  2.8220  0.5535
  788MOL0     H 6327   7.953   9.962  11.026  1.8979  3.9109 -0.0654
  788MOL0     H 6328   7.810  10.040  10.949  0.5757  0.5505  0.3694
  788MOL0     H 6329   7.915   9.805  10.793 -0.6163 -1.6472  0.6954
  788MOL0     H 6330   7.762   9.890  10.799 -0.7126  2.3929  1.3340
  788MOL0     H 6331   7.649   9.850  11.090  1.8519  1.5693  1.0814
  788MOL0     H 6332   7.522   9.646  11.184  0.4444  0.9265 -0.0488
  788MOL0     H 6333   7.596   9.482  11.193 -0.2715  0.6183 -1.3107
  788MOL0     H 6334   7.634   9.724  11.376  2.2775  1.3527 -1.7876
  788MOL0     H 6335   7.745   9.599  11.378  0.1729  0.3686  1.4084
  788MOL0     H 6336   7.589   9.530  11.560  0.6117 -0.8452 -0.6114
  788MOL0     H 6337   7.544   9.436  11.420 -2.0670  1.5533 -2.3590
  788MOL0     H 6338   7.443   9.721  11.506 -0.5600  1.9083 -1.7253
  788MOL0     H 6339   7.350   9.566  11.556  1.7608 -1.8409 -0.5309
  788MOL0     H 6340   7.247   9.874  11.368 -0.8939  1.3235  0.6131
  788MOL0     H 6341   6.962  10.040  11.316  1.6303  0.0737 -0.4197
  788MOL0     H 6342   6.989  10.044  11.501  0.1432  0.1420  0.4292
  788MOL0     H 6343   7.119  10.050  11.388  0.5165 -1.5474 -1.1510
  788MOL0     H 6344   6.597   9.621  11.165  1.0843  0.3775 -1.0031
  788MOL0     H 6345   6.367   9.632  11.096  0.0623 -0.7259  0.4640
  788MOL0     H 6346   6.136   9.621  11.067 -0.9134  0.2957 -0.9175
  788MOL0     H 6347   6.108   9.554  11.227 -0.5181  0.9400  0.0583
  788MOL0     H 6348   5.942   9.755  11.077 -0.6442  0.3367  0.0903
  788MOL0     H 6349   5.911   9.583  11.099  1.5056  0.0971  0.1205
  788MOL0     H 6350   5.873   9.768  11.337  0.9826 -0.0973 -0.4254
  788MOL0     H 6351   5.892   9.590  11.340 -0.8219  0.1734  1.7289
  788MOL0     H 6352   5.678   9.573  11.207  1.1314 -0.6149  1.6003
  788MOL0     H 6353   5.668   9.670  11.345  0.5933 -2.6420  0.5501
  788MOL0     H 6354   5.701   9.770  11.052  1.7589 -0.2116  0.1503
  788MOL0     H 6355   5.698   9.879  11.184  0.5544  1.0542 -3.8793
  788MOL0     H 6356   5.484   9.659  11.142  0.3778 -0.6200 -0.9929
  788MOL0     H 6357   5.470   9.811  11.236  1.4272 -0.1613  0.2316
  788MOL0     H 6358   5.342   9.808  11.032  0.0284  1.2717  1.4755
  788MOL0     H 6359   5.485   9.794  10.936  1.8071 -1.2195  1.7056
  788MOL0     H 6360   5.399  10.032  10.962  0.8102 -0.7796 -1.4349
  788MOL0     H 6361   5.569   9.996  11.004 -0.4967 -2.3885 -2.3400
  788MOL0     H 6362   6.275   9.856  11.450 -0.2900 -1.5954  0.7264
  788MOL0     H 6363   6.505   9.824  11.518 -0.7528  1.1323 -0.4047
  788MOL0     H 6364   6.886   9.551  11.421  0.6694 -0.4774  1.2754
  788MOL0     H 6365   7.107   9.473  11.374  1.2742 -0.0590  1.3875
  788MOL0     H 6366   8.589   9.679  10.393 -0.7930  2.9039  0.6317
  788MOL0     H 6367   8.733   9.546  10.246  2.2041 -0.5668 -0.7174
  788MOL0     H 6368   9.269   9.692   9.898  1.2915 -1.1941 -1.0491
  788MOL0     H 6369   9.388   9.502   9.783  0.7136 -1.5988  0.1285
  788MOL0     H 6370   9.391   9.175  10.004  1.0567 -1.1647  0.9442
  788MOL0     H 6371   9.335   9.059   9.879  3.5616 -3.5008  0.7902
  788MOL0     H 6372   9.544   9.075   9.749  0.6745  0.7608 -0.4090
  788MOL0     H 6373   9.540   8.988   9.900 -3.6050  0.2975  0.9840
  788MOL0     H 6374   9.630   9.211  10.007  2.5205  0.3125  1.0915
  788MOL0     H 6375   9.662   9.260   9.834  2.6325  0.0691  0.8218
  788MOL0     H 6376   9.800   9.074   9.785  1.1487  0.1473  0.2755
  788MOL0     H 6377   9.764   9.004   9.948 -3.3920  2.0566  1.6080
  788MOL0     H 6378  10.043   9.307  10.065  0.7234 -0.7832  0.5147
  788MOL0     H 6379   9.159   9.209   9.955  0.7033  0.4877 -1.1455
  788MOL0     H 6380   8.995   9.389  10.049  0.5199 -2.7796 -0.3442
  789MOL0     O 6381   3.508   4.532   7.001 -0.1827  0.0884 -0.0969
  789MOL0     C 6382   3.494   4.412   7.019  0.1475  0.6177 -0.1790
  789MOL0     O 6383   3.383   4.350   7.094 -0.1979 -0.0924 -0.6257
  789MOL0     C 6384   3.269   4.418   7.142 -0.8278  0.0296  0.2780
  789MOL0     C 6385   3.242   4.548   7.100  0.9400  0.0263  0.7871
  789MOL0     C 6386   3.124   4.617   7.147  0.3029  0.2814 -0.0473
  789MOL0     C 6387   3.032   4.553   7.227 -0.4142  0.0848 -0.3513
  789MOL0     O 6388   2.914   4.598   7.274 -0.4733 -0.2428  0.0565
  789MOL0     C 6389   2.873   4.733   7.234 -1.4435  0.0279 -0.0436
  789MOL0     C 6390   2.739   4.763   7.289 -0.5454 -0.1575  0.1658
  789MOL0     C 6391   2.630   4.678   7.208 -1.0165 -0.4407  0.6178
  789MOL0     C 6392   2.488   4.712   7.234  0.0447  0.1832 -0.4559
  789MOL0     C 6393   2.390   4.601   7.177 -0.4605 -0.0556  0.5942
  789MOL0     C 6394   2.254   4.608   7.241 -0.5842 -0.3815  0.3322
  789MOL0     C 6395   2.165   4.491   7.197  0.0186  0.7389  0.0148
  789MOL0     C 6396   2.035   4.481   7.259  0.3043 -0.2497 -0.0937
  789MOL0     N 6397   1.943   4.370   7.208 -0.2161 -0.0777  0.4140
  789MOL0     C 6398   1.963   4.237   7.221  0.2735  0.0358  0.4353
  789MOL0     C 6399   1.857   4.186   7.176  0.5636  0.7388  0.2878
  789MOL0     C 6400   1.837   4.031   7.169 -0.0611 -0.2557  0.0802
  789MOL0     C 6401   1.693   3.987   7.210  0.1863 -0.5753  1.1165
  789MOL0     C 6402   1.691   3.829   7.210  0.0560 -0.2401 -0.7341
  789MOL0     C 6403   1.574   3.783   7.279 -0.2190 -0.1267 -0.8816
  789MOL0     O 6404   1.444   3.833   7.242 -0.2993  0.2772  0.4474
  789MOL0     C 6405   1.337   3.772   7.294  0.1180  0.2595  0.1672
  789MOL0     C 6406   1.340   3.681   7.401 -0.7562 -0.4431 -0.2789
  789MOL0     C 6407   1.223   3.628   7.464 -0.2197 -0.3034 -0.3198
  789MOL0     C 6408   1.255   3.516   7.565 -0.4030 -0.2499  0.1363
  789MOL0     C 6409   1.096   3.674   7.420 -0.5629  0.3356 -0.1170
  789MOL0     C 6410   0.958   3.624   7.473 -1.4455 -0.3693  0.1914
  789MOL0     O 6411   0.849   3.694   7.423 -1.0942  0.5351 -0.3971
  789MOL0     C 6412   0.727   3.664   7.474  0.6565 -0.1815 -0.1825
  789MOL0     C 6413   0.679   3.694   7.601 -0.4312 -0.2802 -0.0412
  789MOL0     C 6414   0.548   3.659   7.646  0.6497  0.5398 -0.1399
  789MOL0     C 6415   0.462   3.593   7.551 -0.0906 -0.4334 -0.1601
  789MOL0     O 6416   0.342   3.547   7.595 -1.2504  0.1357  0.1943
  789MOL0     C 6417   0.328   3.409   7.587 -0.0658 -0.6377 -0.7674
  789MOL0     C 6418   0.188   3.383   7.648  0.5078  0.7679 -0.1597
  789MOL0     C 6419   0.186   3.397   7.802 -0.0343 -0.3740 -0.0643
  789MOL0     C 6420   0.077   3.320   7.876  0.1060 -0.1627 -0.3479
  789MOL0     C 6421   0.062   3.352   8.027 -0.2477  0.1378  0.8251
  789MOL0     C 6422  -0.045   3.265   8.094 -0.5235  0.8985  0.6814
  789MOL0     C 6423  -0.195   3.279   8.049 -1.1400  1.2397 -0.0055
  789MOL0     C 6424  -0.279   3.187   8.141 -0.0240 -0.0905  0.6392
  789MOL0    Cl 6425  -0.456   3.207   8.093 -0.5783 -0.1861 -0.0355
  789MOL0     C 6426   0.514   3.574   7.419 -0.1459 -0.1694 -0.2574
  789MOL0     C 6427   0.644   3.603   7.392 -0.7095  0.5846  0.3015
  789MOL0     O 6428   0.957   3.516   7.536  0.3186  0.9084  0.2496
  789MOL0     C 6429   1.095   3.768   7.316 -0.9704  0.3127 -0.1440
  789MOL0     C 6430   1.208   3.809   7.250  0.1915  0.4150 -0.2773
  789MOL0     N 6431   1.769   4.287   7.126  0.3339  0.0148 -0.3164
  789MOL0     N 6432   1.826   4.402   7.148  0.5083  0.2806 -0.4495
  789MOL0     C 6433   3.059   4.419   7.265  0.5258 -0.2329 -0.4248
  789MOL0     C 6434   3.168   4.348   7.219 -0.4536 -0.3015  0.1298
  789MOL0     C 6435   3.615   4.326   6.984 -0.0849  0.1947  0.0057
  789MOL0     C 6436   3.619   4.194   7.031 -1.2653  0.2743  0.8778
  789MOL0     C 6437   3.728   4.105   6.995  0.0909 -1.2030  0.3796
  789MOL0     C 6438   3.839   4.160   6.926  0.7003  0.1773  0.0596
  789MOL0     O 6439   3.959   4.093   6.892  0.2083  0.2962  0.6730
  789MOL0     C 6440   3.943   3.980   6.804  0.2880  0.7403 -0.0035
  789MOL0     C 6441   4.073   3.922   6.743  0.0498 -0.2998 -0.1369
  789MOL0     C 6442   4.126   3.789   6.804 -0.0346  0.0139 -0.7452
  789MOL0     C 6443   4.178   3.799   6.943 -0.5224  0.2898 -0.5423
  789MOL0     C 6444   4.316   3.858   6.937 -0.7765  0.1125  0.3540
  789MOL0     C 6445   4.429   3.902   6.934 -0.1754 -0.0979 -0.1503
  789MOL0     C 6446   3.837   4.294   6.902 -0.9073 -0.1990  0.1445
  789MOL0     C 6447   3.730   4.375   6.924 -0.5362 -0.6508  0.0793
  789MOL0     H 6448   3.300   4.605   7.028 -2.2237 -0.4364 -2.4453
  789MOL0     H 6449   3.122   4.724   7.128  5.3070  0.5044 -0.6499
  789MOL0     H 6450   2.944   4.798   7.285  0.4782 -3.6460  2.4377
  789MOL0     H 6451   2.871   4.736   7.124  4.4697 -0.9550 -0.5235
  789MOL0     H 6452   2.745   4.739   7.395  3.1656 -0.9839 -0.1045
  789MOL0     H 6453   2.716   4.870   7.284  0.6292  0.1987  1.7781
  789MOL0     H 6454   2.638   4.695   7.100 -1.9470 -0.2117  0.5799
  789MOL0     H 6455   2.648   4.572   7.230 -0.8389 -0.7566 -0.9248
  789MOL0     H 6456   2.473   4.716   7.342  0.2456 -2.9510 -0.2264
  789MOL0     H 6457   2.463   4.810   7.190  0.3060  0.9863  1.1220
  789MOL0     H 6458   2.373   4.621   7.070  3.4275 -1.4352 -0.4712
  789MOL0     H 6459   2.421   4.498   7.198 -0.2246 -0.0335  0.3642
  789MOL0     H 6460   2.267   4.611   7.350  1.4663  0.5650  0.1110
  789MOL0     H 6461   2.210   4.705   7.214 -1.0263 -0.1334  1.8131
  789MOL0     H 6462   2.136   4.517   7.095 -0.7347 -2.3333 -0.6331
  789MOL0     H 6463   2.217   4.395   7.202  0.7477  1.1641  1.1600
  789MOL0     H 6464   1.983   4.577   7.246  0.5782 -0.2080 -0.9403
  789MOL0     H 6465   2.059   4.455   7.363 -1.3045 -2.3775 -0.1914
  789MOL0     H 6466   2.047   4.190   7.270 -0.7911 -1.5204  0.8801
  789MOL0     H 6467   1.851   4.010   7.063 -1.2057 -0.9013  0.0360
  789MOL0     H 6468   1.908   3.965   7.219 -2.3575 -2.9629 -0.0176
  789MOL0     H 6469   1.629   4.023   7.129  2.0067 -1.7682 -0.9926
  789MOL0     H 6470   1.662   4.029   7.306 -2.0632  1.3753 -0.3597
  789MOL0     H 6471   1.777   3.790   7.265  0.3569  0.3289 -0.7982
  789MOL0     H 6472   1.700   3.791   7.108  0.4210  0.7348 -1.0686
  789MOL0     H 6473   1.582   3.816   7.383 -3.0679 -0.0398 -0.6092
  789MOL0     H 6474   1.573   3.673   7.274 -0.7546 -0.4137  2.6117
  789MOL0     H 6475   1.435   3.647   7.440 -0.0703  1.7790  0.1064
  789MOL0     H 6476   1.352   3.539   7.611 -0.2423  1.1604 -0.8538
  789MOL0     H 6477   1.181   3.506   7.645  1.1169  0.7941  1.7405
  789MOL0     H 6478   1.276   3.428   7.503  1.3293 -1.4005  2.2116
  789MOL0     H 6479   0.759   3.737   7.661 -0.1826 -1.1293  0.2427
  789MOL0     H 6480   0.508   3.665   7.747  2.2844  0.3350  0.5570
  789MOL0     H 6481   0.331   3.389   7.480  1.0003 -1.6104 -0.5725
  789MOL0     H 6482   0.401   3.358   7.650 -1.1757  2.0864  3.1312
  789MOL0     H 6483   0.118   3.461   7.617 -0.4845 -0.2446 -0.5057
  789MOL0     H 6484   0.158   3.281   7.624  3.1032 -0.6418  2.0509
  789MOL0     H 6485   0.171   3.502   7.827 -1.2379 -0.9624  2.0312
  789MOL0     H 6486   0.288   3.376   7.835  0.3627 -1.7120 -1.9858
  789MOL0     H 6487  -0.014   3.344   7.820 -2.1232 -1.0150  2.6358
  789MOL0     H 6488   0.101   3.214   7.863 -1.3931 -0.5659 -0.0381
  789MOL0     H 6489   0.035   3.456   8.046 -4.0721 -0.7588  1.0104
  789MOL0     H 6490   0.161   3.327   8.067 -0.3488  0.9944  1.6335
  789MOL0     H 6491  -0.025   3.164   8.056 -0.1906  1.1807  0.1051
  789MOL0     H 6492  -0.035   3.269   8.203  1.7639  1.7067  0.5033
  789MOL0     H 6493  -0.194   3.242   7.946  1.9631  2.1572 -0.4097
  789MOL0     H 6494  -0.227   3.384   8.053 -0.7916  1.5628 -3.1900
  789MOL0     H 6495  -0.271   3.220   8.245 -0.3807 -0.3716  0.7578
  789MOL0     H 6496  -0.247   3.084   8.121 -0.1208 -0.3355  1.6793
  789MOL0     H 6497   0.452   3.536   7.338  1.0936  0.0085 -1.3257
  789MOL0     H 6498   0.692   3.571   7.299  1.1296 -1.1011  1.7302
  789MOL0     H 6499   1.001   3.790   7.268 -1.1520 -2.3662 -1.1692
  789MOL0     H 6500   1.207   3.879   7.167 -2.7406 -0.6164 -1.2271
  789MOL0     H 6501   2.992   4.369   7.334  2.7776  1.1574  3.0278
  789MOL0     H 6502   3.187   4.245   7.245 -3.4635 -0.2922  3.0820
  789MOL0     H 6503   3.538   4.144   7.084 -1.9666 -0.8564 -1.1649
  789MOL0     H 6504   3.734   4.004   7.036  0.7459 -1.3022  0.0479
  789MOL0     H 6505   3.876   3.908   6.852  0.6236 -0.0695 -0.7209
  789MOL0     H 6506   3.883   4.019   6.721 -0.6936  0.3784  0.5091
  789MOL0     H 6507   4.146   4.003   6.751 -1.7214  1.3382  0.1480
  789MOL0     H 6508   4.052   3.909   6.636 -1.3136  1.7763 -0.1788
  789MOL0     H 6509   4.213   3.757   6.746  1.9091  3.1864  0.1920
  789MOL0     H 6510   4.041   3.720   6.801 -1.8173  1.7565  3.0654
  789MOL0     H 6511   4.189   3.699   6.985 -1.2366  0.4800  0.1036
  789MOL0     H 6512   4.108   3.856   7.004 -1.8582  0.2014 -1.9394
  789MOL0     H 6513   4.530   3.936   6.947 -0.0346 -1.2886  2.7258
  789MOL0     H 6514   3.925   4.335   6.852 -1.5188  0.0439 -0.7584
  789MOL0     H 6515   3.740   4.477   6.889 -0.3904 -0.1106  1.6373
  790MOL0     O 6516   8.553   0.581   7.171 -0.2411  0.2733 -0.0558
  790MOL0     C 6517   8.627   0.584   7.269 -0.4670 -0.9843  0.0318
  790MOL0     O 6518   8.616   0.509   7.384 -0.1050 -0.0935 -0.1332
  790MOL0     C 6519   8.516   0.414   7.397  0.1376  0.6820  0.7484
  790MOL0     C 6520   8.548   0.287   7.452  0.1877  0.1565 -0.0836
  790MOL0     C 6521   8.451   0.189   7.480  1.2251 -0.4315 -0.5838
  790MOL0     C 6522   8.318   0.224   7.457 -0.9958 -0.8713  0.3946
  790MOL0     O 6523   8.226   0.131   7.470 -0.0539 -0.1367  0.6376
  790MOL0     C 6524   8.130   0.145   7.577 -0.5804  0.0196  0.3628
  790MOL0     C 6525   8.004   0.214   7.536  0.4913  0.6394  0.5171
  790MOL0     C 6526   7.896   0.199   7.646  0.2035 -0.8744  0.4729
  790MOL0     C 6527   7.937   0.257   7.777 -0.4681  0.5295  1.0365
  790MOL0     C 6528   7.828   0.275   7.875  0.5360  0.3023  0.2844
  790MOL0     C 6529   7.749   0.403   7.845  0.1329 -0.3816 -0.0994
  790MOL0     C 6530   7.645   0.433   7.954 -0.3326 -0.0364  0.1129
  790MOL0     C 6531   7.546   0.322   7.992  0.0559 -0.3901 -0.6294
  790MOL0     N 6532   7.454   0.305   7.878 -0.9689  0.3135  0.3519
  790MOL0     C 6533   7.360   0.393   7.839 -0.4945  0.5588 -0.3187
  790MOL0     C 6534   7.296   0.333   7.740 -0.6950  0.5275 -1.0753
  790MOL0     C 6535   7.187   0.389   7.653  0.1324  0.2789 -0.4458
  790MOL0     C 6536   7.045   0.339   7.709 -0.7344  0.1567  0.0363
  790MOL0     C 6537   6.935   0.358   7.597 -0.3146  1.2634  0.5908
  790MOL0     C 6538   6.786   0.355   7.641 -0.8496 -0.2099  0.4694
  790MOL0     O 6539   6.715   0.284   7.540 -0.1680 -0.1376  0.4811
  790MOL0     C 6540   6.582   0.305   7.537 -0.0856  0.5943  0.1146
  790MOL0     C 6541   6.495   0.357   7.639 -0.0362 -0.3751 -0.4165
  790MOL0     C 6542   6.349   0.365   7.626  0.9180 -0.3185  0.3591
  790MOL0     C 6543   6.260   0.402   7.748 -0.1996  0.0388  0.0574
  790MOL0     C 6544   6.290   0.321   7.504  0.7532 -0.3082 -0.4557
  790MOL0     C 6545   6.153   0.340   7.456 -0.6835 -0.0571  0.7399
  790MOL0     O 6546   6.115   0.290   7.337 -0.5229 -0.2841 -0.6682
  790MOL0     C 6547   5.985   0.316   7.295  0.2458 -0.3973  0.2441
  790MOL0     C 6548   5.963   0.344   7.153  0.0422  0.3167  0.5133
  790MOL0     C 6549   5.833   0.371   7.104 -0.0548  0.0689  0.4817
  790MOL0     C 6550   5.722   0.388   7.196  0.6795  0.5850  0.2172
  790MOL0     O 6551   5.599   0.422   7.171  0.0700  0.1053  0.6677
  790MOL0     C 6552   5.550   0.432   7.035 -1.3138 -0.4863  0.1961
  790MOL0     C 6553   5.399   0.399   7.037 -0.0756 -0.2118  0.1943
  790MOL0     C 6554   5.337   0.468   6.916  0.4762  0.0919 -0.1856
  790MOL0     C 6555   5.337   0.630   6.931  0.4327  0.0578  0.4262
  790MOL0     C 6556   5.261   0.696   6.810  0.7696  0.2969  0.1970
  790MOL0     C 6557   5.134   0.779   6.841  0.6454 -0.3883 -0.3236
  790MOL0     C 6558   5.007   0.698   6.886 -0.9351  0.0258 -0.1739
  790MOL0     C 6559   4.894   0.785   6.922  0.6482  0.6487 -0.3354
  790MOL0    Cl 6560   4.768   0.701   7.007 -0.1449 -0.7023 -0.1275
  790MOL0     C 6561   5.743   0.372   7.337 -0.7540  0.1112  0.9840
  790MOL0     C 6562   5.872   0.325   7.377 -0.0012  0.8352  0.4474
  790MOL0     O 6563   6.106   0.438   7.499  0.0144  1.1137  0.1120
  790MOL0     C 6564   6.369   0.279   7.397 -0.6326  0.5082 -0.3380
  790MOL0     C 6565   6.514   0.277   7.417 -0.3376 -0.0392 -0.7435
  790MOL0     N 6566   7.342   0.204   7.728  0.4063  0.2541 -0.2531
  790MOL0     N 6567   7.430   0.181   7.814 -0.0239 -0.1812 -0.9302
  790MOL0     C 6568   8.287   0.343   7.399 -0.2071 -0.3698 -0.3857
  790MOL0     C 6569   8.382   0.440   7.371  1.0319 -0.2195 -0.1358
  790MOL0     C 6570   8.745   0.668   7.271  0.0886 -0.4181  0.1525
  790MOL0     C 6571   8.855   0.647   7.355 -0.2126  0.1398  0.5580
  790MOL0     C 6572   8.953   0.744   7.372  0.2996 -0.1341  0.0985
  790MOL0     C 6573   8.942   0.873   7.315 -0.3972 -0.1383  0.2737
  790MOL0     O 6574   9.049   0.953   7.347  0.1676  0.0231 -0.0199
  790MOL0     C 6575   9.024   1.094   7.367  0.4464  0.3336 -0.5856
  790MOL0     C 6576   9.004   1.173   7.241 -0.0155  0.0329 -0.5121
  790MOL0     C 6577   9.095   1.134   7.124 -0.1200  0.9777 -0.9718
  790MOL0     C 6578   9.074   1.222   7.000  0.4118 -0.2318 -0.2539
  790MOL0     C 6579   9.171   1.175   6.899 -0.0250  0.3692  1.2573
  790MOL0     C 6580   9.247   1.139   6.811 -0.7812  0.0366 -0.5819
  790MOL0     C 6581   8.846   0.890   7.217  0.3187  1.0825  0.8843
  790MOL0     C 6582   8.745   0.791   7.201 -0.9746  0.5889 -0.1322
  790MOL0     H 6583   8.651   0.261   7.472 -0.0692 -0.7730  0.1056
  790MOL0     H 6584   8.472   0.086   7.510 -1.8290 -0.8185  0.5784
  790MOL0     H 6585   8.098   0.042   7.591  2.1363 -1.1329 -1.1004
  790MOL0     H 6586   8.177   0.192   7.664 -0.7771  0.8981 -0.0004
  790MOL0     H 6587   8.002   0.322   7.522 -2.4757  0.4051 -1.7413
  790MOL0     H 6588   7.959   0.176   7.444  2.2504  1.6585 -0.8398
  790MOL0     H 6589   7.807   0.253   7.612  0.5542 -0.1099  0.7359
  790MOL0     H 6590   7.858   0.097   7.653 -0.8082 -0.4880  0.8096
  790MOL0     H 6591   8.001   0.180   7.819 -1.3842 -2.5830 -2.7072
  790MOL0     H 6592   7.989   0.351   7.754  0.1539 -0.4999 -2.2916
  790MOL0     H 6593   7.766   0.185   7.883  0.7270  0.2473  1.3462
  790MOL0     H 6594   7.882   0.293   7.969  1.0063 -1.4151  0.3833
  790MOL0     H 6595   7.820   0.484   7.827  0.0732 -0.3656 -0.2630
  790MOL0     H 6596   7.696   0.379   7.752  4.3318 -0.9698 -2.6016
  790MOL0     H 6597   7.699   0.445   8.049 -0.7036 -1.1918  0.4860
  790MOL0     H 6598   7.595   0.527   7.928 -1.0138 -0.7446 -1.2369
  790MOL0     H 6599   7.493   0.353   8.083  0.1548 -0.7046 -0.4610
  790MOL0     H 6600   7.600   0.229   8.013 -1.1641 -1.1491 -0.7456
  790MOL0     H 6601   7.333   0.488   7.884  1.6045  0.6445  0.8436
  790MOL0     H 6602   7.197   0.498   7.659 -0.9198  0.4735 -1.8748
  790MOL0     H 6603   7.211   0.358   7.551  1.7470  0.1404 -0.0566
  790MOL0     H 6604   7.016   0.390   7.802  1.1762  0.8388  0.2967
  790MOL0     H 6605   7.061   0.235   7.737  2.8579  0.3127 -0.9285
  790MOL0     H 6606   6.932   0.275   7.526 -2.5719  0.4516  1.5501
  790MOL0     H 6607   6.957   0.456   7.553  2.0479  1.4781  2.0690
  790MOL0     H 6608   6.761   0.461   7.639 -1.1530 -0.2812  0.4373
  790MOL0     H 6609   6.785   0.316   7.743 -0.1774  2.2633  1.4819
  790MOL0     H 6610   6.542   0.389   7.731 -0.6302 -1.7048  0.3733
  790MOL0     H 6611   6.155   0.420   7.722 -0.3662  0.2493  0.8623
  790MOL0     H 6612   6.273   0.324   7.823  1.7251 -0.8664 -1.1236
  790MOL0     H 6613   6.286   0.495   7.799  1.7634 -0.6868  0.4918
  790MOL0     H 6614   6.049   0.363   7.089 -0.6757  1.1830 -0.2308
  790MOL0     H 6615   5.818   0.388   6.998  3.9347  0.1143 -0.2488
  790MOL0     H 6616   5.566   0.531   6.991  1.6117 -0.6306  0.7795
  790MOL0     H 6617   5.582   0.357   6.962  0.3734  1.4042 -1.1350
  790MOL0     H 6618   5.397   0.291   7.025 -0.5816 -0.2704  0.7274
  790MOL0     H 6619   5.361   0.428   7.136  2.4370  0.9457  0.9062
  790MOL0     H 6620   5.240   0.422   6.894  1.9889 -2.1414 -2.9029
  790MOL0     H 6621   5.387   0.447   6.821 -2.5703 -1.0094 -1.6972
  790MOL0     H 6622   5.301   0.660   7.030  1.4536  1.7281  0.3342
  790MOL0     H 6623   5.434   0.680   6.924 -1.3149  3.7574  0.2563
  790MOL0     H 6624   5.229   0.617   6.742 -0.7587  2.7238 -2.0682
  790MOL0     H 6625   5.327   0.766   6.758  2.1359 -2.1691 -1.5876
  790MOL0     H 6626   5.165   0.849   6.919  1.6367 -2.4779  1.2553
  790MOL0     H 6627   5.115   0.841   6.753  0.3294 -0.8912 -0.6130
  790MOL0     H 6628   5.024   0.639   6.977  1.5237 -1.0147 -1.2170
  790MOL0     H 6629   4.970   0.626   6.813 -3.9294  1.0059  0.2357
  790MOL0     H 6630   4.850   0.825   6.830 -2.1286 -0.7878  0.2471
  790MOL0     H 6631   4.919   0.878   6.974  4.2353 -1.1746  1.5763
  790MOL0     H 6632   5.662   0.399   7.404 -1.1346  0.8802  0.2348
  790MOL0     H 6633   5.883   0.308   7.483 -0.4780  0.6895  0.4756
  790MOL0     H 6634   6.336   0.252   7.298  0.8130 -2.9952  0.0111
  790MOL0     H 6635   6.570   0.243   7.331 -3.6573  1.4117 -3.7023
  790MOL0     H 6636   8.183   0.354   7.371 -0.6136  1.5615  1.6323
  790MOL0     H 6637   8.352   0.540   7.339 -2.9959 -1.5163 -1.0041
  790MOL0     H 6638   8.864   0.557   7.415  3.0749 -0.9473 -1.3071
  790MOL0     H 6639   9.031   0.726   7.445  1.2569 -3.4717 -1.5482
  790MOL0     H 6640   8.945   1.114   7.439 -0.1756 -0.7003 -0.9530
  790MOL0     H 6641   9.117   1.128   7.412  1.1023  0.1663 -1.7619
  790MOL0     H 6642   9.022   1.278   7.263 -3.4412  1.0195 -1.8081
  790MOL0     H 6643   8.903   1.178   7.199  0.3857  2.2568 -1.3321
  790MOL0     H 6644   9.071   1.033   7.090 -1.9672  1.1360 -0.2862
  790MOL0     H 6645   9.195   1.145   7.166 -0.8693 -0.5840  1.4258
  790MOL0     H 6646   9.095   1.329   7.005  0.2491 -0.1352 -1.4071
  790MOL0     H 6647   8.967   1.224   6.979 -0.1653  2.9117  2.2109
  790MOL0     H 6648   9.320   1.099   6.744  0.3827  2.2200 -0.6764
  790MOL0     H 6649   8.848   0.982   7.159  2.1802  0.8672  0.5369
  790MOL0     H 6650   8.663   0.820   7.136 -1.1364  2.3991  0.7981
  791MOL0     O 6651   1.281   3.041   0.224 -0.1517 -0.8593 -0.2003
  791MOL0     C 6652   1.315   3.117   0.312 -0.4669  0.0885  0.8715
  791MOL0     O 6653   1.232   3.174   0.415  0.5447 -0.3772 -0.0021
  791MOL0     C 6654   1.097   3.179   0.388  0.3608  0.3360  0.7327
  791MOL0     C 6655   0.997   3.115   0.458  0.0556 -0.0654  0.1787
  791MOL0     C 6656   0.867   3.123   0.422  0.4665  0.3980  0.3714
  791MOL0     C 6657   0.824   3.199   0.320 -0.7851 -0.4680  0.0951
  791MOL0     O 6658   0.689   3.198   0.285 -0.5817  0.5787  0.5844
  791MOL0     C 6659   0.646   3.321   0.231  0.0219 -0.2277  1.1056
  791MOL0     C 6660   0.495   3.353   0.259 -0.6147 -0.5968 -0.4980
  791MOL0     C 6661   0.395   3.238   0.226  0.3816  0.1416 -0.3865
  791MOL0     C 6662   0.252   3.263   0.215 -0.2325  0.2114  0.2016
  791MOL0     C 6663   0.157   3.136   0.216 -0.7320  1.2249  0.3635
  791MOL0     C 6664   0.015   3.188   0.183 -0.7554 -0.9358 -0.7019
  791MOL0     C 6665  -0.088   3.076   0.189 -0.1490  0.7682  0.5288
  791MOL0     C 6666  -0.049   2.955   0.104 -0.0945  1.0241 -0.2160
  791MOL0     N 6667  -0.168   2.890   0.041 -0.5176 -0.3132  0.1436
  791MOL0     C 6668  -0.245   2.777   0.078  0.5195 -0.0971 -0.0201
  791MOL0     C 6669  -0.329   2.749  -0.022 -0.3864 -0.4231 -1.1050
  791MOL0     C 6670  -0.438   2.654  -0.006 -0.2639  0.3648 -0.4445
  791MOL0     C 6671  -0.569   2.718   0.065 -0.2164  0.3265  0.8726
  791MOL0     C 6672  -0.641   2.824  -0.023  0.4828  0.1688  0.2870
  791MOL0     C 6673  -0.720   2.751  -0.133 -0.2786 -0.6562  0.6232
  791MOL0     O 6674  -0.850   2.702  -0.091 -0.3425 -0.4859 -0.2553
  791MOL0     C 6675  -0.955   2.794  -0.088 -0.0450 -0.2283  0.2039
  791MOL0     C 6676  -0.945   2.936  -0.112  0.3385  1.4585  0.1395
  791MOL0     C 6677  -1.066   3.007  -0.131  0.8520  0.4045 -0.4736
  791MOL0     C 6678  -1.052   3.156  -0.152  0.5285 -0.6408  0.3941
  791MOL0     C 6679  -1.198   2.936  -0.120  0.4742 -0.2816 -0.5610
  791MOL0     C 6680  -1.331   3.003  -0.149 -0.4434  0.8529 -0.2364
  791MOL0     O 6681  -1.431   2.914  -0.169 -0.2205 -0.4938  0.7317
  791MOL0     C 6682  -1.560   2.955  -0.195  0.5177  0.6510  0.1750
  791MOL0     C 6683  -1.607   3.089  -0.220  0.3585  0.1107  0.4942
  791MOL0     C 6684  -1.741   3.114  -0.263  0.3510  0.6405 -0.0069
  791MOL0     C 6685  -1.817   3.010  -0.292 -0.3421 -0.5294 -1.0508
  791MOL0     O 6686  -1.935   3.037  -0.351  0.0148 -0.8697  0.4046
  791MOL0     C 6687  -2.051   2.997  -0.267 -0.6082 -0.7626  0.1424
  791MOL0     C 6688  -2.173   3.070  -0.325  0.0640  0.5406  0.3924
  791MOL0     C 6689  -2.207   3.024  -0.464 -0.3378 -0.3142 -0.1684
  791MOL0     C 6690  -2.335   3.077  -0.507 -0.1364 -0.3002  0.6551
  791MOL0     C 6691  -2.326   3.228  -0.514 -0.1422  0.7374 -0.1291
  791MOL0     C 6692  -2.434   3.279  -0.607  0.1775  0.1563 -0.1526
  791MOL0     C 6693  -2.581   3.228  -0.582 -0.3781 -0.4904  0.0970
  791MOL0     C 6694  -2.630   3.280  -0.442 -0.5184 -0.1370  0.0686
  791MOL0    Cl 6695  -2.637   3.458  -0.435 -0.2326  0.1981  0.0531
  791MOL0     C 6696  -1.782   2.881  -0.270  0.3712 -0.3105 -0.8441
  791MOL0     C 6697  -1.649   2.854  -0.221  0.2732 -0.4763 -0.6365
  791MOL0     O 6698  -1.340   3.125  -0.138 -0.2469 -0.3935  0.7285
  791MOL0     C 6699  -1.203   2.798  -0.090  0.2883  0.2489 -0.1115
  791MOL0     C 6700  -1.081   2.731  -0.071 -1.5270  0.2166 -0.6245
  791MOL0     N 6701  -0.308   2.849  -0.120 -0.8518  0.3178  0.2934
  791MOL0     N 6702  -0.207   2.925  -0.088  0.0158 -0.0246  0.2567
  791MOL0     C 6703   0.920   3.265   0.237 -0.2235  0.3545  0.0909
  791MOL0     C 6704   1.050   3.264   0.278 -1.3706 -0.2917  0.3430
  791MOL0     C 6705   1.464   3.135   0.318 -0.2957 -0.5460 -0.5864
  791MOL0     C 6706   1.553   3.102   0.207  0.5110  0.1554  0.1088
  791MOL0     C 6707   1.690   3.124   0.210  0.9136 -0.0044 -0.6322
  791MOL0     C 6708   1.747   3.169   0.331 -0.6526 -0.5507  0.8249
  791MOL0     O 6709   1.878   3.196   0.352  0.7266  0.2046 -0.7838
  791MOL0     C 6710   1.976   3.112   0.291 -0.3753 -0.3362 -0.3091
  791MOL0     C 6711   2.003   2.984   0.374  1.0965  0.6210 -0.3912
  791MOL0     C 6712   2.078   3.013   0.501 -0.3122 -0.7410  0.3021
  791MOL0     C 6713   2.104   2.902   0.602  0.3385  0.6324  0.5061
  791MOL0     C 6714   1.978   2.852   0.662  0.0151  0.1898 -0.1902
  791MOL0     C 6715   1.882   2.804   0.713  0.4239 -0.9155  0.6708
  791MOL0     C 6716   1.664   3.203   0.434  1.2016  0.5069 -0.0735
  791MOL0     C 6717   1.524   3.182   0.435 -0.0359  0.4651 -0.4684
  791MOL0     H 6718   1.028   3.063   0.548  1.4998 -1.3226 -0.9849
  791MOL0     H 6719   0.792   3.072   0.482  1.1771 -2.1943 -0.7800
  791MOL0     H 6720   0.702   3.395   0.287  0.8626 -1.3644  1.8208
  791MOL0     H 6721   0.658   3.335   0.123  0.4807  1.3278  1.3419
  791MOL0     H 6722   0.494   3.388   0.363  1.3999  1.1441 -0.9932
  791MOL0     H 6723   0.472   3.437   0.193  2.5723  0.8240  0.0193
  791MOL0     H 6724   0.424   3.187   0.134  2.9118  0.9293 -0.1088
  791MOL0     H 6725   0.399   3.164   0.306 -0.9859  0.1317 -0.3146
  791MOL0     H 6726   0.222   3.330   0.297  1.6091  2.1809 -0.6355
  791MOL0     H 6727   0.239   3.312   0.118 -1.4375  0.9732  0.7219
  791MOL0     H 6728   0.197   3.066   0.142  3.3831  0.4117  2.9958
  791MOL0     H 6729   0.161   3.077   0.308 -2.9059 -1.3033 -1.0423
  791MOL0     H 6730  -0.008   3.270   0.252  0.9429 -0.1595 -1.0112
  791MOL0     H 6731   0.019   3.229   0.082  0.5521 -0.2917 -0.4139
  791MOL0     H 6732  -0.095   3.042   0.293 -1.9457 -3.0093 -0.6641
  791MOL0     H 6733  -0.182   3.116   0.150 -1.5133 -0.7557  2.1032
  791MOL0     H 6734   0.003   2.887   0.173 -1.0859  0.7429  0.2622
  791MOL0     H 6735   0.019   2.977   0.021  3.2430 -0.8430  1.7510
  791MOL0     H 6736  -0.239   2.725   0.173 -3.5136  0.3935  0.6519
  791MOL0     H 6737  -0.449   2.618  -0.108 -0.9954 -1.1769  0.1428
  791MOL0     H 6738  -0.417   2.575   0.067 -0.7726  0.8790  0.2845
  791MOL0     H 6739  -0.556   2.763   0.163 -0.2765  1.1155  0.5270
  791MOL0     H 6740  -0.644   2.639   0.080 -3.1235  2.0258 -2.8395
  791MOL0     H 6741  -0.578   2.902  -0.068  1.8449 -0.2172  1.4274
  791MOL0     H 6742  -0.709   2.875   0.046 -0.0115  1.0979 -0.8631
  791MOL0     H 6743  -0.660   2.668  -0.171 -0.5332 -0.5542 -0.0062
  791MOL0     H 6744  -0.729   2.813  -0.223  0.3376 -0.0549  0.9646
  791MOL0     H 6745  -0.848   2.982  -0.126  2.1863 -2.2720 -0.6612
  791MOL0     H 6746  -0.948   3.181  -0.174  0.3844  0.3538  0.7937
  791MOL0     H 6747  -1.117   3.173  -0.238  1.0105 -1.9292 -0.2617
  791MOL0     H 6748  -1.079   3.214  -0.064  0.8572 -0.1394  0.1719
  791MOL0     H 6749  -1.541   3.174  -0.209  1.0755 -0.5486  1.4655
  791MOL0     H 6750  -1.798   3.205  -0.278 -0.6444  0.0481  0.1213
  791MOL0     H 6751  -2.069   2.889  -0.269 -3.3181 -0.3742 -1.7510
  791MOL0     H 6752  -2.037   3.033  -0.165  1.4170  1.0179 -0.6960
  791MOL0     H 6753  -2.255   3.044  -0.258 -1.7233  3.0933 -0.6435
  791MOL0     H 6754  -2.162   3.179  -0.315 -2.5803  0.6782  4.0786
  791MOL0     H 6755  -2.208   2.916  -0.480 -0.8309 -0.0520 -2.1614
  791MOL0     H 6756  -2.132   3.057  -0.536 -1.4759 -0.1497 -1.3175
  791MOL0     H 6757  -2.352   3.037  -0.607  0.8647  1.2594 -0.1781
  791MOL0     H 6758  -2.411   3.043  -0.438 -2.1715  1.7230 -0.4484
  791MOL0     H 6759  -2.228   3.262  -0.548 -0.8535  0.8859 -2.1544
  791MOL0     H 6760  -2.344   3.276  -0.417  0.7017  1.2554 -0.2171
  791MOL0     H 6761  -2.439   3.386  -0.627 -0.3767  0.0090 -0.8661
  791MOL0     H 6762  -2.394   3.253  -0.706  0.8713  1.2937 -0.1889
  791MOL0     H 6763  -2.591   3.119  -0.585 -1.7926 -0.3613 -2.2527
  791MOL0     H 6764  -2.642   3.258  -0.667 -0.2745 -2.0223 -0.5627
  791MOL0     H 6765  -2.566   3.252  -0.358 -0.5630 -2.6673 -0.6443
  791MOL0     H 6766  -2.731   3.247  -0.416 -1.5766  2.5050 -0.4160
  791MOL0     H 6767  -1.850   2.798  -0.288 -0.3823  0.2997 -0.8769
  791MOL0     H 6768  -1.616   2.754  -0.194 -1.2937 -0.8857 -0.1281
  791MOL0     H 6769  -1.303   2.757  -0.080  0.1042  1.0653  1.8267
  791MOL0     H 6770  -1.075   2.625  -0.050  0.3228  0.5427  0.7419
  791MOL0     H 6771   0.900   3.326   0.149  1.0470  0.6809  0.0020
  791MOL0     H 6772   1.127   3.311   0.218 -1.3879  0.3184  0.7858
  791MOL0     H 6773   1.501   3.062   0.121  1.7604  0.3505 -0.7645
  791MOL0     H 6774   1.752   3.106   0.123 -0.1236  3.4620 -2.2776
  791MOL0     H 6775   1.959   3.080   0.187  0.2560 -2.8881  0.3059
  791MOL0     H 6776   2.072   3.165   0.297 -1.0262  0.8327  0.0587
  791MOL0     H 6777   2.062   2.910   0.319 -1.4191 -0.7750 -1.3429
  791MOL0     H 6778   1.904   2.944   0.395  0.5863  1.1854 -1.6279
  791MOL0     H 6779   2.035   3.097   0.557 -1.2257  0.0404 -1.4760
  791MOL0     H 6780   2.181   3.035   0.473 -0.6422 -0.7833 -1.0116
  791MOL0     H 6781   2.167   2.950   0.677  0.6929  1.5631 -0.3636
  791MOL0     H 6782   2.165   2.819   0.565 -1.1724  0.1906 -1.1359
  791MOL0     H 6783   1.792   2.772   0.761  0.2341 -2.8727 -0.8281
  791MOL0     H 6784   1.709   3.247   0.523  0.3203  0.6462  0.3083
  791MOL0     H 6785   1.467   3.216   0.520  2.6934  2.7771  0.5763
  792MOL0     O 6786   0.172   0.131   4.915  0.2029  0.1422 -0.1523
  792MOL0     C 6787   0.253   0.150   4.828 -0.0983 -0.5203 -0.1578
  792MOL0     O 6788   0.230   0.218   4.718 -0.2202 -0.0818  0.4339
  792MOL0     C 6789   0.101   0.262   4.700  0.4454 -0.2696  0.0413
  792MOL0     C 6790   0.012   0.186   4.621  0.1854  0.0139 -0.6847
  792MOL0     C 6791  -0.115   0.242   4.602 -0.3505  0.0418  0.1458
  792MOL0     C 6792  -0.150   0.374   4.641  0.0859  0.6211 -0.4788
  792MOL0     O 6793  -0.266   0.430   4.603  0.2085 -0.1478  0.2746
  792MOL0     C 6794  -0.350   0.503   4.695  1.2081  0.7782 -0.2944
  792MOL0     C 6795  -0.427   0.421   4.804  0.5742  0.2309 -0.0075
  792MOL0     C 6796  -0.335   0.399   4.925  0.0474  0.9333  0.3456
  792MOL0     C 6797  -0.386   0.297   5.021 -0.3798 -0.5828  0.3804
  792MOL0     C 6798  -0.286   0.273   5.139  0.6281  1.0496  0.0202
  792MOL0     C 6799  -0.338   0.158   5.228 -0.2051 -0.2158 -0.4645
  792MOL0     C 6800  -0.276   0.171   5.363  0.5881 -0.7433 -0.2147
  792MOL0     C 6801  -0.312   0.048   5.447 -0.1441 -0.3965  0.4609
  792MOL0     N 6802  -0.311   0.067   5.598  0.5537 -0.3222  0.2625
  792MOL0     C 6803  -0.206   0.061   5.684 -0.0074  1.0365 -0.0202
  792MOL0     C 6804  -0.262   0.079   5.806  0.0316 -0.1286 -0.2282
  792MOL0     C 6805  -0.178   0.095   5.917 -0.0128 -0.2593  0.3017
  792MOL0     C 6806  -0.127   0.244   5.929  0.6885  0.0203  0.5996
  792MOL0     C 6807   0.006   0.252   5.998 -0.4851 -0.7346  0.0077
  792MOL0     C 6808   0.040   0.401   6.045  0.4747  0.0215 -0.0055
  792MOL0     O 6809   0.175   0.420   6.046 -0.1908  0.2799  0.2159
  792MOL0     C 6810   0.232   0.544   6.068 -0.8258  0.2690 -0.4384
  792MOL0     C 6811   0.159   0.657   6.101 -0.2665  0.3979  0.8448
  792MOL0     C 6812   0.222   0.783   6.118 -0.3207  0.5620 -0.3470
  792MOL0     C 6813   0.135   0.890   6.156  0.1572 -0.2321  0.0633
  792MOL0     C 6814   0.367   0.786   6.127  0.0541  0.0696 -0.2961
  792MOL0     C 6815   0.447   0.897   6.188  0.3101 -0.3005 -0.1741
  792MOL0     O 6816   0.582   0.880   6.198  0.1952  0.4174  0.5492
  792MOL0     C 6817   0.660   0.994   6.175  1.0962  0.3384 -0.1132
  792MOL0     C 6818   0.732   1.066   6.278 -0.1613  0.3354  0.1756
  792MOL0     C 6819   0.817   1.173   6.244  0.1626 -0.5097  0.4210
  792MOL0     C 6820   0.824   1.198   6.102 -0.2299 -0.4144 -0.5884
  792MOL0     O 6821   0.891   1.298   6.057 -0.1449 -0.1910 -0.2078
  792MOL0     C 6822   1.028   1.327   6.104  0.5168 -0.3770 -0.3711
  792MOL0     C 6823   1.121   1.372   5.990  0.1015  0.4616 -0.9083
  792MOL0     C 6824   1.265   1.352   6.044  0.4828  0.0767  0.1908
  792MOL0     C 6825   1.364   1.394   5.940 -0.1958  0.2328 -0.6733
  792MOL0     C 6826   1.497   1.408   6.015  0.6549  0.0880  0.0058
  792MOL0     C 6827   1.553   1.283   6.092  0.7210  0.5313 -0.0550
  792MOL0     C 6828   1.592   1.176   5.992  0.1622 -0.0802 -0.1308
  792MOL0     C 6829   1.712   1.217   5.905  0.4344  0.3795 -0.0391
  792MOL0    Cl 6830   1.864   1.257   6.002  0.4617  0.3788 -0.0891
  792MOL0     C 6831   0.756   1.123   6.008  0.1186  0.4941 -0.2952
  792MOL0     C 6832   0.663   1.032   6.040 -0.4577 -0.2556  0.2315
  792MOL0     O 6833   0.387   0.995   6.235  0.2132 -0.2594 -0.5183
  792MOL0     C 6834   0.441   0.670   6.087  0.0829  0.4880  0.4948
  792MOL0     C 6835   0.366   0.557   6.054 -0.9343  0.2327 -0.5333
  792MOL0     N 6836  -0.395   0.109   5.784  0.0730 -0.3960 -0.2780
  792MOL0     N 6837  -0.428   0.104   5.661 -0.3230  0.2295  0.3053
  792MOL0     C 6838  -0.057   0.444   4.722 -0.3474  0.3894 -1.0074
  792MOL0     C 6839   0.065   0.390   4.755 -0.6515 -0.1890  0.6363
  792MOL0     C 6840   0.392   0.115   4.852 -0.0106  0.3222 -0.2585
  792MOL0     C 6841   0.477   0.086   4.743  0.1177  0.6701  0.0463
  792MOL0     C 6842   0.608   0.048   4.767  0.3503  0.5700  0.0481
  792MOL0     C 6843   0.664   0.061   4.895  0.2105  0.7286 -0.0024
  792MOL0     O 6844   0.796   0.022   4.921  0.0791  0.2934 -0.8517
  792MOL0     C 6845   0.876  -0.034   4.816 -0.3115  0.5745  0.1841
  792MOL0     C 6846   0.997  -0.101   4.880 -0.3027  0.5972  0.8806
  792MOL0     C 6847   1.117  -0.011   4.916 -0.0418 -0.1094 -0.0278
  792MOL0     C 6848   1.227  -0.087   5.002  0.5168  0.2358  0.5394
  792MOL0     C 6849   1.186  -0.122   5.139  0.6132  0.4365  0.0582
  792MOL0     C 6850   1.144  -0.164   5.245  0.2506 -0.2873  0.2881
  792MOL0     C 6851   0.581   0.097   5.007  0.2061 -0.5819 -0.1512
  792MOL0     C 6852   0.443   0.133   4.986  0.5957  0.5635  0.5244
  792MOL0     H 6853   0.041   0.095   4.569  0.1750 -0.1329 -0.4364
  792MOL0     H 6854  -0.186   0.184   4.545  0.5689 -0.0341 -0.9686
  792MOL0     H 6855  -0.297   0.585   4.744  0.3406  1.1502  0.0325
  792MOL0     H 6856  -0.431   0.548   4.637  0.4412  1.0914  0.9888
  792MOL0     H 6857  -0.522   0.461   4.841  1.1070 -0.7639  2.7123
  792MOL0     H 6858  -0.455   0.327   4.757 -0.0574  0.4687 -0.1072
  792MOL0     H 6859  -0.240   0.352   4.901 -0.9905 -1.5064  0.7568
  792MOL0     H 6860  -0.310   0.496   4.969  0.6471  0.7620  0.3952
  792MOL0     H 6861  -0.486   0.327   5.054  0.1840  1.0420  0.6915
  792MOL0     H 6862  -0.400   0.201   4.970  0.9100  0.1873 -1.5282
  792MOL0     H 6863  -0.181   0.258   5.113  0.8164  1.4642  0.5124
  792MOL0     H 6864  -0.275   0.359   5.205  3.4953  1.1111 -0.4030
  792MOL0     H 6865  -0.446   0.165   5.244  0.0174  0.6569  0.7211
  792MOL0     H 6866  -0.314   0.062   5.180 -2.2228 -2.3650  2.4981
  792MOL0     H 6867  -0.168   0.174   5.349  0.8005 -0.2240  1.3646
  792MOL0     H 6868  -0.308   0.263   5.412  1.2518 -0.6833  0.1131
  792MOL0     H 6869  -0.239  -0.031   5.429  1.1433  0.7903  0.2590
  792MOL0     H 6870  -0.410   0.016   5.412  0.4518  0.6350 -2.4064
  792MOL0     H 6871  -0.098   0.051   5.670  0.0001  0.3777  0.4485
  792MOL0     H 6872  -0.227   0.072   6.012 -3.0681  4.8155  0.2895
  792MOL0     H 6873  -0.085   0.039   5.903  1.9776  2.7717  0.4722
  792MOL0     H 6874  -0.204   0.301   5.983 -1.1058 -0.1839 -1.6257
  792MOL0     H 6875  -0.120   0.283   5.827 -4.6113  0.4979  0.1334
  792MOL0     H 6876   0.088   0.225   5.931  0.1251 -0.0399  0.4563
  792MOL0     H 6877   0.005   0.178   6.079 -4.2501  0.5061  1.3077
  792MOL0     H 6878  -0.015   0.420   6.137 -2.1101  2.1688 -1.8584
  792MOL0     H 6879  -0.000   0.471   5.971 -1.9840 -1.7274 -0.4648
  792MOL0     H 6880   0.051   0.654   6.104 -0.2328 -0.8974  2.5667
  792MOL0     H 6881   0.183   0.988   6.157  2.2025 -1.1076 -2.2038
  792MOL0     H 6882   0.038   0.891   6.106 -0.1078  1.0242  0.5521
  792MOL0     H 6883   0.106   0.875   6.261 -0.6146 -0.5798 -0.1901
  792MOL0     H 6884   0.717   1.019   6.374  1.8163 -2.1141 -0.6006
  792MOL0     H 6885   0.867   1.230   6.321  2.0167  0.3986 -1.3451
  792MOL0     H 6886   1.024   1.409   6.177  0.3928  0.9596 -1.8323
  792MOL0     H 6887   1.076   1.239   6.147  0.8090  0.8599  2.0318
  792MOL0     H 6888   1.106   1.321   5.894  1.6465  1.3092 -1.6356
  792MOL0     H 6889   1.096   1.476   5.967 -1.1976 -0.1411 -2.3348
  792MOL0     H 6890   1.283   1.245   6.055  2.5909  0.3800  0.0449
  792MOL0     H 6891   1.268   1.396   6.144 -4.0745 -0.0837  0.6254
  792MOL0     H 6892   1.364   1.319   5.860 -0.4819  0.2111 -0.6538
  792MOL0     H 6893   1.341   1.490   5.894 -0.4963 -0.2550 -1.5617
  792MOL0     H 6894   1.465   1.476   6.094  0.3530 -0.9725  0.8160
  792MOL0     H 6895   1.568   1.463   5.952 -1.0177  1.0266 -1.1497
  792MOL0     H 6896   1.640   1.324   6.144  0.5842  0.8823 -0.0982
  792MOL0     H 6897   1.481   1.238   6.161  1.3899 -0.7813 -0.1917
  792MOL0     H 6898   1.510   1.152   5.924 -0.8007  0.9408  0.6333
  792MOL0     H 6899   1.621   1.087   6.049  0.7174  0.2031  0.0388
  792MOL0     H 6900   1.689   1.291   5.828 -3.5200 -1.1925 -0.6036
  792MOL0     H 6901   1.743   1.137   5.837 -1.4557  0.9711 -1.7212
  792MOL0     H 6902   0.760   1.158   5.906 -1.1357  0.8763 -0.2326
  792MOL0     H 6903   0.594   0.987   5.970 -1.2396  0.2917  0.6310
  792MOL0     H 6904   0.548   0.660   6.070 -0.3553  0.2255 -2.6366
  792MOL0     H 6905   0.427   0.470   6.031  0.7681  0.2902  3.0455
  792MOL0     H 6906  -0.067   0.543   4.765  1.0799  0.7734 -1.5131
  792MOL0     H 6907   0.137   0.451   4.808 -0.7302  1.5245 -1.0872
  792MOL0     H 6908   0.445   0.068   4.641 -0.6241 -2.5187  0.7209
  792MOL0     H 6909   0.670   0.017   4.683  1.1606 -2.2872  1.5925
  792MOL0     H 6910   0.830  -0.105   4.746 -0.6323 -1.4447  2.3249
  792MOL0     H 6911   0.894   0.060   4.763 -1.5190  0.0652 -1.2026
  792MOL0     H 6912   1.023  -0.190   4.823  0.4159  1.3204  0.0445
  792MOL0     H 6913   0.967  -0.145   4.976  0.1923 -0.4311  0.5742
  792MOL0     H 6914   1.089   0.084   4.963  3.5231  1.8331 -1.4233
  792MOL0     H 6915   1.157   0.011   4.817 -0.0963 -3.4579 -0.9122
  792MOL0     H 6916   1.320  -0.029   5.009 -1.0499  3.1938 -1.0039
  792MOL0     H 6917   1.247  -0.183   4.955 -0.4695  0.6753 -0.8435
  792MOL0     H 6918   1.090  -0.196   5.331 -0.1789 -1.1434 -0.2953
  792MOL0     H 6919   0.621   0.099   5.108  3.4771 -3.7455 -1.1758
  792MOL0     H 6920   0.377   0.160   5.068  0.3691 -0.1978  0.6016
  793MOL0     O 6921   0.447   3.855   3.741 -0.5755  0.1863  0.4572
  793MOL0     C 6922   0.464   3.962   3.787  0.4440  0.2260  0.6134
  793MOL0     O 6923   0.364   4.047   3.814 -0.6320 -0.1433 -0.2351
  793MOL0     C 6924   0.241   4.020   3.769  0.0170 -0.3070  0.3166
  793MOL0     C 6925   0.169   3.903   3.798  1.1273 -0.4479 -0.0866
  793MOL0     C 6926   0.040   3.884   3.750  0.7094 -0.1782  0.6963
  793MOL0     C 6927  -0.031   3.987   3.698  0.4875 -0.1828 -0.6935
  793MOL0     O 6928  -0.164   3.993   3.655  0.6464  0.6751 -0.0550
  793MOL0     C 6929  -0.206   3.898   3.556  0.6922  0.0112 -0.5430
  793MOL0     C 6930  -0.337   3.945   3.488  0.3470  0.1060 -1.2071
  793MOL0     C 6931  -0.447   3.976   3.590 -0.3458 -1.0624 -0.5577
  793MOL0     C 6932  -0.592   3.952   3.534 -0.0765  0.4287 -0.6293
  793MOL0     C 6933  -0.693   4.008   3.616  0.2085 -1.2444 -0.1750
  793MOL0     C 6934  -0.828   3.982   3.552  0.7605  0.5966  0.3401
  793MOL0     C 6935  -0.957   4.024   3.633  0.7413 -0.8895 -0.1418
  793MOL0     C 6936  -0.969   4.176   3.647 -0.1999 -0.1235  0.2857
  793MOL0     N 6937  -1.087   4.231   3.704 -0.7761  0.4203  0.9446
  793MOL0     C 6938  -1.215   4.201   3.668 -0.9146 -0.1496 -0.1178
  793MOL0     C 6939  -1.299   4.271   3.748 -0.1356  0.4175 -0.5143
  793MOL0     C 6940  -1.452   4.261   3.743 -0.9865  0.1032 -0.2481
  793MOL0     C 6941  -1.539   4.293   3.871  0.6035 -0.3020 -0.6581
  793MOL0     C 6942  -1.556   4.441   3.896  0.9235  0.3420  0.0525
  793MOL0     C 6943  -1.701   4.491   3.892  0.0871  0.6122  0.3522
  793MOL0     O 6944  -1.747   4.493   3.755  0.0177 -0.2458  0.5643
  793MOL0     C 6945  -1.880   4.522   3.728 -0.0020 -0.5961  0.7575
  793MOL0     C 6946  -1.924   4.492   3.601 -0.1586  0.2769  0.6832
  793MOL0     C 6947  -2.058   4.503   3.554  0.1218  0.3074  0.7659
  793MOL0     C 6948  -2.094   4.426   3.429  0.1476 -0.3715 -0.5884
  793MOL0     C 6949  -2.152   4.561   3.638  0.1340  0.0872  0.6819
  793MOL0     C 6950  -2.296   4.583   3.603 -0.7556 -0.0250  0.7653
  793MOL0     O 6951  -2.387   4.592   3.704  0.6035 -0.2481 -0.3291
  793MOL0     C 6952  -2.513   4.630   3.684  0.1487 -0.8106  1.0801
  793MOL0     C 6953  -2.600   4.561   3.603 -0.3121  0.7930 -0.0199
  793MOL0     C 6954  -2.736   4.593   3.605 -0.5101 -0.5444  1.0611
  793MOL0     C 6955  -2.788   4.709   3.666 -0.3818  0.0776  0.4438
  793MOL0     O 6956  -2.918   4.743   3.661 -0.3893  0.4129  0.0227
  793MOL0     C 6957  -2.995   4.637   3.721  0.2234 -0.5775 -0.2552
  793MOL0     C 6958  -3.107   4.705   3.794  0.0719 -0.1774  0.0437
  793MOL0     C 6959  -3.227   4.607   3.798 -0.1354 -0.4291  0.1799
  793MOL0     C 6960  -3.323   4.648   3.905  0.5113  0.4965  0.2506
  793MOL0     C 6961  -3.456   4.578   3.890  0.0445  0.2858 -0.3260
  793MOL0     C 6962  -3.569   4.620   3.989 -0.5372 -1.1884 -0.2923
  793MOL0     C 6963  -3.695   4.544   3.954  0.2733  0.5402 -0.3668
  793MOL0     C 6964  -3.825   4.592   4.016  0.1625  0.1346  0.1935
  793MOL0    Cl 6965  -3.946   4.481   3.941 -0.0661 -0.5674 -0.4021
  793MOL0     C 6966  -2.696   4.785   3.741 -0.6945 -0.6819 -0.1905
  793MOL0     C 6967  -2.562   4.743   3.755 -0.3360 -0.2968  0.5587
  793MOL0     O 6968  -2.320   4.595   3.480  0.2500  0.3022 -0.3589
  793MOL0     C 6969  -2.110   4.606   3.764 -0.7613 -0.0408  0.8206
  793MOL0     C 6970  -1.980   4.585   3.810  0.5458  0.0602  0.4600
  793MOL0     N 6971  -1.219   4.363   3.826  0.9636  0.7396 -0.2162
  793MOL0     N 6972  -1.097   4.328   3.795 -0.6019  0.8644 -0.3732
  793MOL0     C 6973   0.032   4.111   3.673 -0.6130  0.1796  0.1220
  793MOL0     C 6974   0.170   4.129   3.712  0.3124 -0.3293  0.2278
  793MOL0     C 6975   0.603   3.990   3.844 -0.7987 -0.4373 -0.2748
  793MOL0     C 6976   0.696   3.884   3.853  0.4597  0.2270 -0.3986
  793MOL0     C 6977   0.824   3.891   3.913  0.5403 -0.4205  0.1041
  793MOL0     C 6978   0.870   4.015   3.962  0.0538 -0.6560 -0.1874
  793MOL0     O 6979   1.001   4.040   3.991 -0.0708 -0.5599 -0.2023
  793MOL0     C 6980   1.089   3.938   4.027 -0.0132 -0.1418  0.1981
  793MOL0     C 6981   1.212   3.979   4.116  0.0679 -0.6986 -0.4491
  793MOL0     C 6982   1.289   3.853   4.155 -0.7213  0.2279 -0.5581
  793MOL0     C 6983   1.386   3.876   4.269 -1.0549 -0.5639 -1.1685
  793MOL0     C 6984   1.508   3.960   4.233 -0.2867  0.3017  0.3124
  793MOL0     C 6985   1.595   4.038   4.192 -0.1995 -0.0497 -0.3390
  793MOL0     C 6986   0.785   4.128   3.935 -0.1205  0.3155 -0.8106
  793MOL0     C 6987   0.647   4.117   3.890  0.1761 -0.9834  0.2026
  793MOL0     H 6988   0.213   3.823   3.858  2.6254 -1.8968 -2.8968
  793MOL0     H 6989  -0.001   3.784   3.765  0.6467 -0.2552  0.0269
  793MOL0     H 6990  -0.129   3.877   3.481  1.6693 -0.8643  0.6507
  793MOL0     H 6991  -0.230   3.809   3.616  1.9258  1.0962  1.6898
  793MOL0     H 6992  -0.312   4.031   3.425 -0.7670  0.7578 -0.7763
  793MOL0     H 6993  -0.363   3.861   3.423 -0.5271 -0.3080 -0.3381
  793MOL0     H 6994  -0.439   3.910   3.677 -5.0290  1.7918  2.4642
  793MOL0     H 6995  -0.449   4.079   3.628 -3.4087 -1.2069 -0.1258
  793MOL0     H 6996  -0.599   3.994   3.433 -1.4389 -1.7213 -1.4998
  793MOL0     H 6997  -0.605   3.844   3.524  1.8395  0.3092 -2.9040
  793MOL0     H 6998  -0.691   3.991   3.725 -0.9906  1.2187  0.3052
  793MOL0     H 6999  -0.687   4.117   3.624  1.5602 -1.4456  3.5433
  793MOL0     H 7000  -0.839   4.041   3.460 -0.5824  0.9697  0.7115
  793MOL0     H 7001  -0.847   3.876   3.535 -1.9657  0.5583  2.8288
  793MOL0     H 7002  -1.041   3.979   3.580 -0.8201  0.8894  0.7415
  793MOL0     H 7003  -0.954   3.980   3.733 -1.2866  0.6839  0.6724
  793MOL0     H 7004  -0.964   4.228   3.551 -1.5495  0.5254  0.5464
  793MOL0     H 7005  -0.889   4.200   3.719 -0.7139  0.4921  0.6612
  793MOL0     H 7006  -1.256   4.142   3.587 -0.8089 -2.0428  1.1525
  793MOL0     H 7007  -1.483   4.322   3.657  0.5446  1.8435  0.3585
  793MOL0     H 7008  -1.483   4.163   3.707  1.4338 -1.7125  2.1931
  793MOL0     H 7009  -1.491   4.256   3.962 -0.9306 -3.6607 -1.0720
  793MOL0     H 7010  -1.635   4.241   3.863  1.0785 -1.6514  1.4561
  793MOL0     H 7011  -1.492   4.506   3.835  0.1639  2.4015  1.3353
  793MOL0     H 7012  -1.534   4.470   3.999 -0.3447 -1.0769  0.7649
  793MOL0     H 7013  -1.713   4.586   3.945 -1.8178  2.3576 -2.9121
  793MOL0     H 7014  -1.759   4.415   3.946  2.3812 -0.0159  2.0708
  793MOL0     H 7015  -1.858   4.440   3.532 -0.5826 -1.6237  1.6287
  793MOL0     H 7016  -2.040   4.331   3.421 -1.1474 -1.1046 -1.0499
  793MOL0     H 7017  -2.199   4.395   3.432 -1.0909  3.0621 -2.6241
  793MOL0     H 7018  -2.078   4.483   3.337  2.3155  1.5713  0.8820
  793MOL0     H 7019  -2.570   4.472   3.549 -1.3325  0.1464  0.4501
  793MOL0     H 7020  -2.805   4.538   3.542  2.2589 -1.6645 -1.1900
  793MOL0     H 7021  -3.038   4.586   3.634 -1.1541 -0.9240  0.6052
  793MOL0     H 7022  -2.949   4.566   3.790 -0.7355  2.8975  4.4823
  793MOL0     H 7023  -3.088   4.723   3.900 -0.5843  0.5389  0.0445
  793MOL0     H 7024  -3.126   4.798   3.740  0.2594 -1.8902 -3.2237
  793MOL0     H 7025  -3.187   4.507   3.814 -1.5076 -0.9261  0.6219
  793MOL0     H 7026  -3.272   4.609   3.698  3.5792 -0.8902 -1.6909
  793MOL0     H 7027  -3.281   4.620   4.002 -0.8742  3.6452  1.8845
  793MOL0     H 7028  -3.330   4.756   3.916  1.8725  0.5012  1.2894
  793MOL0     H 7029  -3.443   4.472   3.913 -0.7555 -0.1194 -1.6666
  793MOL0     H 7030  -3.482   4.592   3.785  2.5437 -0.3249 -1.0827
  793MOL0     H 7031  -3.535   4.603   4.092 -0.8372  1.6321  0.3594
  793MOL0     H 7032  -3.589   4.727   3.983 -1.3343 -1.1542  1.8729
  793MOL0     H 7033  -3.679   4.445   3.996 -0.2600  1.6636  2.7857
  793MOL0     H 7034  -3.710   4.547   3.846 -0.4905  1.6714 -0.2453
  793MOL0     H 7035  -3.848   4.696   3.991 -2.0228 -0.5553 -0.9748
  793MOL0     H 7036  -3.832   4.577   4.124 -0.0809 -0.9769  0.0323
  793MOL0     H 7037  -2.730   4.876   3.789 -0.5372 -1.2806  1.0950
  793MOL0     H 7038  -2.504   4.798   3.828  0.2079  0.7618 -0.6471
  793MOL0     H 7039  -2.181   4.638   3.841 -0.5148  0.3784  0.8771
  793MOL0     H 7040  -1.955   4.596   3.915  1.0565 -0.2255  0.3670
  793MOL0     H 7041  -0.032   4.194   3.645  0.7056  1.3644  0.5222
  793MOL0     H 7042   0.215   4.227   3.699  3.6129 -1.1220  3.6729
  793MOL0     H 7043   0.668   3.786   3.815  0.7804  0.0998 -0.3020
  793MOL0     H 7044   0.885   3.803   3.931 -0.9746 -1.6656 -0.5612
  793MOL0     H 7045   1.031   3.866   4.087  1.0439 -2.2198 -1.1337
  793MOL0     H 7046   1.138   3.897   3.938  3.2801  1.5611  1.0843
  793MOL0     H 7047   1.171   4.034   4.201 -1.4915 -1.1519 -0.8745
  793MOL0     H 7048   1.272   4.048   4.057  0.7755  1.5441  2.6193
  793MOL0     H 7049   1.346   3.821   4.067 -2.7985 -1.5384 -1.3453
  793MOL0     H 7050   1.221   3.771   4.177  0.7065 -0.9963 -0.5566
  793MOL0     H 7051   1.421   3.777   4.299 -0.9220 -0.0749  0.4065
  793MOL0     H 7052   1.344   3.925   4.357  0.4077 -1.3905  0.0522
  793MOL0     H 7053   1.675   4.097   4.154 -1.4496  0.6537 -2.0250
  793MOL0     H 7054   0.822   4.223   3.969  1.0391 -0.2294 -0.5200
  793MOL0     H 7055   0.572   4.194   3.876  0.0404 -1.4309 -1.8124
  794MOL0     O 7056   9.625   8.895   6.194 -0.3870 -0.4417  0.2692
  794MOL0     C 7057   9.675   9.005   6.149 -0.1243  0.5948 -1.1551
  794MOL0     O 7058   9.608   9.115   6.124 -0.3894 -0.4154 -0.6560
  794MOL0     C 7059   9.483   9.142   6.179  0.5110 -0.0335  0.3046
  794MOL0     C 7060   9.372   9.062   6.149  0.6051  0.3733 -0.6290
  794MOL0     C 7061   9.241   9.084   6.207  0.4449  0.5604 -0.2315
  794MOL0     C 7062   9.215   9.198   6.287 -0.1862 -0.2749  1.1103
  794MOL0     O 7063   9.092   9.240   6.336  0.4453  0.4736  0.5293
  794MOL0     C 7064   9.006   9.136   6.379  0.7706  0.1713  0.1234
  794MOL0     C 7065   8.887   9.190   6.453  0.4983 -0.5225 -0.2931
  794MOL0     C 7066   8.821   9.086   6.546  0.0423  0.4174 -0.0051
  794MOL0     C 7067   8.745   8.975   6.472 -0.1538 -0.6240  0.5748
  794MOL0     C 7068   8.691   8.874   6.574  1.0995  0.1542 -0.2380
  794MOL0     C 7069   8.640   8.755   6.504  0.2594  0.6182  0.0469
  794MOL0     C 7070   8.550   8.780   6.379  0.4722  0.8488 -0.1347
  794MOL0     C 7071   8.475   8.656   6.326  0.1264  0.5742  0.2774
  794MOL0     N 7072   8.357   8.629   6.403  0.7091 -0.6697  0.1560
  794MOL0     C 7073   8.225   8.683   6.397 -0.4317  0.1478  0.1122
  794MOL0     C 7074   8.153   8.586   6.449  0.1122 -0.0012 -0.2836
  794MOL0     C 7075   8.001   8.562   6.462 -0.2353 -0.4965 -0.8865
  794MOL0     C 7076   7.957   8.429   6.389 -0.7653 -0.3107 -1.0995
  794MOL0     C 7077   7.983   8.442   6.240  0.9916 -0.1436  0.1700
  794MOL0     C 7078   7.907   8.333   6.161  0.4322  0.4202  0.2000
  794MOL0     O 7079   7.762   8.331   6.190  0.3581 -0.3502 -0.1557
  794MOL0     C 7080   7.687   8.258   6.099 -0.4965 -0.6382 -0.5183
  794MOL0     C 7081   7.726   8.137   6.048  0.1264 -0.2139 -1.0132
  794MOL0     C 7082   7.643   8.064   5.965 -0.3448 -0.2826 -0.6643
  794MOL0     C 7083   7.687   7.940   5.900  0.3467  0.3028  0.1251
  794MOL0     C 7084   7.517   8.114   5.946 -0.0694 -0.3099  0.0134
  794MOL0     C 7085   7.412   8.048   5.876 -0.3631  0.9451  0.5048
  794MOL0     O 7086   7.341   7.951   5.953 -0.4627 -0.6508  0.2302
  794MOL0     C 7087   7.227   7.897   5.893  0.5239  0.4928 -0.5274
  794MOL0     C 7088   7.109   7.972   5.894  0.8588  0.2330  0.2363
  794MOL0     C 7089   6.983   7.924   5.854  0.0473 -0.5927  0.0352
  794MOL0     C 7090   6.985   7.790   5.812 -0.4144 -0.0812 -1.2379
  794MOL0     O 7091   6.873   7.714   5.785  0.2426  0.6008 -0.3124
  794MOL0     C 7092   6.752   7.759   5.845 -0.4332 -0.3378  0.0455
  794MOL0     C 7093   6.635   7.659   5.820 -0.0408 -0.4579 -0.4862
  794MOL0     C 7094   6.515   7.703   5.899 -0.2992  0.2770 -0.2468
  794MOL0     C 7095   6.398   7.623   5.860  0.2267  0.1918 -0.3911
  794MOL0     C 7096   6.274   7.663   5.942 -0.3410 -0.7404 -0.6985
  794MOL0     C 7097   6.262   7.606   6.081  0.4799  0.2188 -0.0529
  794MOL0     C 7098   6.118   7.640   6.144 -0.3572 -0.0205 -0.1764
  794MOL0     C 7099   6.114   7.574   6.277 -0.0127 -0.1328 -0.4440
  794MOL0    Cl 7100   6.245   7.624   6.391  0.2397  0.8424 -0.5193
  794MOL0     C 7101   7.101   7.709   5.807  0.9008 -0.4438  0.4020
  794MOL0     C 7102   7.225   7.768   5.848  0.2229 -0.3541  0.6557
  794MOL0     O 7103   7.412   8.061   5.754  0.5301  0.4292 -0.0497
  794MOL0     C 7104   7.482   8.242   5.987  0.5541 -0.8927  0.0720
  794MOL0     C 7105   7.568   8.318   6.060 -0.6747  0.2716  0.6497
  794MOL0     N 7106   8.228   8.471   6.486 -0.1918 -0.3131  0.1601
  794MOL0     N 7107   8.348   8.514   6.476  0.0058 -0.2141  0.6740
  794MOL0     C 7108   9.329   9.283   6.310 -0.0216 -0.1619 -0.7911
  794MOL0     C 7109   9.458   9.252   6.258  0.8166 -0.4746 -0.1927
  794MOL0     C 7110   9.822   8.997   6.106  0.6114 -0.3457 -0.8553
  794MOL0     C 7111   9.900   9.106   6.061 -0.6414 -0.3351  0.2451
  794MOL0     C 7112  10.033   9.100   6.025 -1.2770  0.6450 -1.6468
  794MOL0     C 7113  10.108   8.988   6.050 -0.1686  0.4787  0.0127
  794MOL0     O 7114  10.239   9.000   6.014 -1.4300 -0.1624 -0.3026
  794MOL0     C 7115  10.336   8.900   6.076 -0.1383 -0.3844 -0.2501
  794MOL0     C 7116  10.362   8.794   5.970  0.7512  0.3248  0.6153
  794MOL0     C 7117  10.467   8.676   6.004 -0.3953  0.0726  0.2751
  794MOL0     C 7118  10.384   8.550   6.041  0.7382  1.1447 -0.1333
  794MOL0     C 7119  10.475   8.439   6.047  0.2846 -0.8733  1.3739
  794MOL0     C 7120  10.545   8.347   6.044  0.0036  0.0938  0.3705
  794MOL0     C 7121  10.041   8.876   6.104 -0.2589 -0.7165 -0.2818
  794MOL0     C 7122   9.902   8.882   6.127 -0.5057  0.6021 -0.1723
  794MOL0     H 7123   9.377   8.981   6.077  1.7205  1.0245 -1.3171
  794MOL0     H 7124   9.156   9.020   6.186 -1.3593  2.5256  0.7519
  794MOL0     H 7125   8.966   9.075   6.297 -2.5855  2.6165 -0.2454
  794MOL0     H 7126   9.068   9.071   6.442  1.1094 -2.6467 -2.8250
  794MOL0     H 7127   8.904   9.276   6.519  1.0146  0.7895 -2.0583
  794MOL0     H 7128   8.813   9.232   6.384 -0.9515 -0.7677  1.0621
  794MOL0     H 7129   8.903   9.038   6.601 -1.0970  0.5412  1.8864
  794MOL0     H 7130   8.759   9.128   6.626  1.4784  1.1416  0.7669
  794MOL0     H 7131   8.658   9.011   6.416  0.9785  1.0484 -0.2226
  794MOL0     H 7132   8.813   8.929   6.400 -2.0573  0.4770 -2.0870
  794MOL0     H 7133   8.767   8.848   6.648 -0.3537  0.0193  1.2741
  794MOL0     H 7134   8.602   8.915   6.622  0.8135  0.5660 -1.1049
  794MOL0     H 7135   8.723   8.694   6.469 -0.1818  0.6131 -1.0242
  794MOL0     H 7136   8.579   8.702   6.579  2.4847 -0.3079  1.2829
  794MOL0     H 7137   8.478   8.859   6.402 -2.0729 -1.6564  1.2229
  794MOL0     H 7138   8.619   8.809   6.299 -1.0437  0.0680 -1.8014
  794MOL0     H 7139   8.534   8.564   6.322 -1.6320 -0.5520 -1.7701
  794MOL0     H 7140   8.441   8.681   6.225  1.6444 -0.4701 -0.5387
  794MOL0     H 7141   8.202   8.781   6.357  1.2815  1.6507  2.5562
  794MOL0     H 7142   7.973   8.558   6.567 -0.4937 -1.3349 -0.9814
  794MOL0     H 7143   7.944   8.643   6.416 -1.0871 -0.1957  0.6440
  794MOL0     H 7144   7.851   8.412   6.409 -0.5148 -1.1305 -0.4391
  794MOL0     H 7145   8.012   8.338   6.413 -1.1484 -0.8619 -2.2323
  794MOL0     H 7146   8.091   8.440   6.226  0.6352  1.1993 -4.5394
  794MOL0     H 7147   7.942   8.539   6.208  0.0332  0.0644  1.9378
  794MOL0     H 7148   7.959   8.237   6.173 -1.4521 -0.6281  0.3981
  794MOL0     H 7149   7.919   8.364   6.057  2.5022  2.2572  0.9114
  794MOL0     H 7150   7.819   8.081   6.059 -0.6678 -1.3307  0.3007
  794MOL0     H 7151   7.690   7.957   5.792 -0.5424 -1.5109 -0.2172
  794MOL0     H 7152   7.787   7.911   5.933 -0.0318 -0.1346  0.8944
  794MOL0     H 7153   7.625   7.851   5.912 -2.1997  1.6120 -2.1955
  794MOL0     H 7154   7.121   8.077   5.921 -0.5283  0.7986 -1.2173
  794MOL0     H 7155   6.900   7.993   5.848 -0.5725 -1.4002 -0.8125
  794MOL0     H 7156   6.758   7.776   5.953 -3.7470  0.6636  0.1859
  794MOL0     H 7157   6.740   7.856   5.795  0.8616 -0.5256 -0.6773
  794MOL0     H 7158   6.617   7.665   5.712  0.6977 -0.8154 -0.6311
  794MOL0     H 7159   6.673   7.561   5.848 -0.3238 -0.6898 -0.9025
  794MOL0     H 7160   6.496   7.810   5.885 -1.7977  0.1842  0.8167
  794MOL0     H 7161   6.545   7.678   6.002 -0.3152 -0.3863 -0.4004
  794MOL0     H 7162   6.375   7.628   5.753 -0.5745  0.4932 -0.2110
  794MOL0     H 7163   6.421   7.519   5.885 -1.1556 -0.0344 -0.0138
  794MOL0     H 7164   6.185   7.641   5.882 -1.7404  0.2393  0.9109
  794MOL0     H 7165   6.285   7.772   5.951  3.1547 -1.0480  0.3942
  794MOL0     H 7166   6.281   7.499   6.086 -0.1942 -0.1759 -3.5841
  794MOL0     H 7167   6.335   7.650   6.150 -0.1315 -2.1621  2.2726
  794MOL0     H 7168   6.038   7.607   6.078 -0.8376  1.3594 -0.3115
  794MOL0     H 7169   6.099   7.747   6.159 -0.4011  0.2679 -2.0867
  794MOL0     H 7170   6.114   7.466   6.260  0.9879  0.0114 -1.4816
  794MOL0     H 7171   6.019   7.605   6.322 -0.0951  1.5003 -1.6575
  794MOL0     H 7172   7.092   7.603   5.785 -0.0643 -0.6561  1.7161
  794MOL0     H 7173   7.318   7.713   5.846  0.2224 -0.3335 -0.0705
  794MOL0     H 7174   7.379   8.274   5.978  0.4352 -1.4283 -0.4947
  794MOL0     H 7175   7.539   8.416   6.094 -0.8479  1.0071 -1.4570
  794MOL0     H 7176   9.323   9.371   6.374 -0.4131 -1.4330  0.9883
  794MOL0     H 7177   9.544   9.314   6.280 -0.0370  0.3142  1.0219
  794MOL0     H 7178   9.833   9.187   6.035 -1.4737 -1.5509 -1.5859
  794MOL0     H 7179  10.088   9.186   5.987 -1.2564  2.4715  2.0820
  794MOL0     H 7180  10.422   8.959   6.108 -0.5185 -1.4048  3.0006
  794MOL0     H 7181  10.297   8.866   6.173  1.2246  0.8006  0.7566
  794MOL0     H 7182  10.400   8.836   5.877  1.5301 -1.8741 -0.1207
  794MOL0     H 7183  10.265   8.749   5.948  1.9828 -2.1801 -0.0683
  794MOL0     H 7184  10.534   8.709   6.084  0.1854  0.4811 -0.3660
  794MOL0     H 7185  10.537   8.672   5.920 -0.5986  1.2190  0.0216
  794MOL0     H 7186  10.307   8.514   5.972  1.6112 -3.4304  0.9721
  794MOL0     H 7187  10.338   8.574   6.137  2.1727  1.7051  0.4432
  794MOL0     H 7188  10.606   8.259   6.037  1.4506  1.0340  0.8839
  794MOL0     H 7189  10.105   8.799   6.144 -2.2150  0.4182  6.1937
  794MOL0     H 7190   9.858   8.790   6.164  0.1383 -0.9332 -2.8922
  795MOL0     O 7191   8.735   6.570   6.413 -0.5275  0.2813  0.5820
  795MOL0     C 7192   8.673   6.657   6.341 -0.7736  0.1778  0.0066
  795MOL0     O 7193   8.554   6.640   6.287  0.2504 -0.3816  0.6829
  795MOL0     C 7194   8.463   6.535   6.309 -0.4337  0.2159  0.0463
  795MOL0     C 7195   8.343   6.534   6.236 -0.5594  0.0057 -0.4599
  795MOL0     C 7196   8.244   6.430   6.256 -0.0028  0.6370  0.2752
  795MOL0     C 7197   8.279   6.325   6.345 -0.1536  0.0525 -0.4801
  795MOL0     O 7198   8.199   6.217   6.359  0.6906  0.0250 -0.4510
  795MOL0     C 7199   8.065   6.249   6.400 -0.3346 -0.3746  0.2022
  795MOL0     C 7200   8.041   6.274   6.551 -0.3476 -0.0328 -0.2178
  795MOL0     C 7201   7.899   6.231   6.585 -0.3871 -0.0733 -0.4456
  795MOL0     C 7202   7.886   6.189   6.732  0.1696  0.2938 -0.4883
  795MOL0     C 7203   7.743   6.152   6.769 -1.0538  0.4781 -0.6650
  795MOL0     C 7204   7.716   6.141   6.920  0.1797  0.0725 -1.0231
  795MOL0     C 7205   7.562   6.144   6.941 -0.5195 -0.3401  0.7878
  795MOL0     C 7206   7.537   6.115   7.086 -0.4296  0.4162 -0.6819
  795MOL0     N 7207   7.391   6.086   7.106 -0.4952 -0.6322 -0.2730
  795MOL0     C 7208   7.294   6.065   7.012 -0.4221 -0.3276  0.8944
  795MOL0     C 7209   7.182   6.041   7.080 -1.1305 -0.9654 -0.4189
  795MOL0     C 7210   7.050   5.994   7.035  0.9808  0.4723  0.5424
  795MOL0     C 7211   6.935   6.096   7.058  1.1133 -1.1008 -0.7380
  795MOL0     C 7212   6.795   6.041   7.025 -0.6236 -0.4330 -0.0397
  795MOL0     C 7213   6.692   6.142   7.058 -0.0291  0.4974 -0.1481
  795MOL0     O 7214   6.563   6.096   7.015  0.5352 -0.3818 -0.0981
  795MOL0     C 7215   6.442   6.168   7.033  0.1901 -0.7651 -0.5829
  795MOL0     C 7216   6.428   6.295   7.081  0.5657  0.0281  0.9229
  795MOL0     C 7217   6.301   6.355   7.082  0.3018  0.1886  0.5297
  795MOL0     C 7218   6.290   6.489   7.143  0.0051 -0.4114  0.6238
  795MOL0     C 7219   6.188   6.282   7.039 -0.2113 -1.4516  0.4146
  795MOL0     C 7220   6.052   6.336   7.057 -0.7133  0.4590 -0.6654
  795MOL0     O 7221   5.964   6.226   7.058  0.0807 -0.1254  0.6725
  795MOL0     C 7222   5.826   6.244   7.058  0.0187 -0.3903 -0.6078
  795MOL0     C 7223   5.745   6.151   6.990 -1.0016 -0.2401 -0.1489
  795MOL0     C 7224   5.608   6.170   6.975 -0.5969 -0.2757 -0.8505
  795MOL0     C 7225   5.549   6.274   7.053  0.7303  0.4860  0.3698
  795MOL0     O 7226   5.409   6.286   7.057 -0.3892 -0.3981  0.4466
  795MOL0     C 7227   5.345   6.274   6.925 -0.1247 -0.3025 -0.6245
  795MOL0     C 7228   5.193   6.306   6.936 -0.8286 -0.0015 -0.4084
  795MOL0     C 7229   5.117   6.199   7.013 -0.3128 -0.1275 -0.1643
  795MOL0     C 7230   4.983   6.246   7.078  0.0187 -0.2544  0.1351
  795MOL0     C 7231   4.892   6.320   6.986 -0.4293  0.2946  0.1362
  795MOL0     C 7232   4.745   6.306   7.033 -0.2304 -0.2765 -0.2680
  795MOL0     C 7233   4.650   6.379   6.933 -0.0724 -0.3433  0.7365
  795MOL0     C 7234   4.498   6.382   6.972  0.3914 -0.0814 -0.8210
  795MOL0    Cl 7235   4.427   6.218   6.991 -0.6753  0.4454  0.4067
  795MOL0     C 7236   5.624   6.368   7.128 -0.7826 -0.0820  0.3000
  795MOL0     C 7237   5.766   6.349   7.129 -0.0197  0.0786  0.2151
  795MOL0     O 7238   6.025   6.454   7.067 -0.0364  0.1280 -0.2970
  795MOL0     C 7239   6.206   6.151   6.991  0.2885 -0.1417  1.2558
  795MOL0     C 7240   6.331   6.098   6.981  0.0639  0.2895  0.5312
  795MOL0     N 7241   7.211   6.062   7.215  0.2437  0.3363 -0.3813
  795MOL0     N 7242   7.335   6.088   7.226  0.3035 -0.4084 -0.4816
  795MOL0     C 7243   8.402   6.324   6.421  1.3272  0.4300  0.3231
  795MOL0     C 7244   8.482   6.431   6.409  0.3570 -0.9578  0.6636
  795MOL0     C 7245   8.748   6.775   6.301  0.2508  0.3422  1.2833
  795MOL0     C 7246   8.869   6.814   6.366  0.4408  0.2816 -0.0057
  795MOL0     C 7247   8.941   6.916   6.312 -0.4300  0.1364  0.9292
  795MOL0     C 7248   8.904   6.995   6.200 -0.5565  1.4370  0.3795
  795MOL0     O 7249   8.980   7.092   6.146  0.4367 -0.0128 -0.1910
  795MOL0     C 7250   9.126   7.092   6.171  1.0668  0.3094 -0.9006
  795MOL0     C 7251   9.188   7.211   6.111 -0.0890 -0.1590  0.0453
  795MOL0     C 7252   9.226   7.188   5.964  0.9444 -0.3390 -0.0187
  795MOL0     C 7253   9.100   7.156   5.877  0.5409  0.2285 -0.1046
  795MOL0     C 7254   9.135   7.152   5.733  0.8604 -0.2126 -0.9841
  795MOL0     C 7255   9.133   7.144   5.610 -0.4566 -0.4915  0.0871
  795MOL0     C 7256   8.775   6.964   6.148 -0.1392  0.0755 -0.4832
  795MOL0     C 7257   8.701   6.858   6.196  0.4236  0.8143  0.2457
  795MOL0     H 7258   8.325   6.614   6.165  0.0093  2.1003  1.6339
  795MOL0     H 7259   8.161   6.418   6.187 -0.1699 -2.4453  0.8895
  795MOL0     H 7260   8.020   6.330   6.343  2.6826  1.0307 -0.3806
  795MOL0     H 7261   8.009   6.159   6.374  1.6473 -0.8618 -2.9565
  795MOL0     H 7262   8.121   6.226   6.608  0.7016  1.4033 -0.4360
  795MOL0     H 7263   8.052   6.381   6.571  0.8943 -0.2341  0.2532
  795MOL0     H 7264   7.820   6.297   6.547 -0.4713 -1.0931 -2.1412
  795MOL0     H 7265   7.878   6.136   6.536 -1.1832 -0.4165  0.5313
  795MOL0     H 7266   7.949   6.101   6.749 -0.7589  0.0008  1.9156
  795MOL0     H 7267   7.917   6.268   6.802  0.0108  0.2178 -0.3297
  795MOL0     H 7268   7.671   6.214   6.715  1.0320  0.8998 -3.1394
  795MOL0     H 7269   7.730   6.053   6.723 -0.0063  0.3453 -0.6866
  795MOL0     H 7270   7.750   6.041   6.950  0.8041 -0.1442 -2.3708
  795MOL0     H 7271   7.758   6.220   6.982 -1.3010 -1.2553  1.8604
  795MOL0     H 7272   7.518   6.236   6.900 -1.5560 -1.5417 -0.9085
  795MOL0     H 7273   7.526   6.063   6.878 -2.4542  1.8052 -1.0640
  795MOL0     H 7274   7.558   6.202   7.150  0.2145 -0.3482  0.1767
  795MOL0     H 7275   7.589   6.026   7.123 -2.1044 -0.2374  0.1668
  795MOL0     H 7276   7.310   6.058   6.905  2.2168 -3.4582  1.3675
  795MOL0     H 7277   7.055   5.971   6.928 -0.3274 -1.9734  0.9366
  795MOL0     H 7278   7.023   5.900   7.083  2.4181  0.2646  0.9969
  795MOL0     H 7279   6.954   6.186   6.997  0.0008  1.0985  1.9513
  795MOL0     H 7280   6.931   6.125   7.163  2.3669 -0.7974 -0.7567
  795MOL0     H 7281   6.780   5.944   7.074 -0.4706 -1.2464 -1.5234
  795MOL0     H 7282   6.797   6.019   6.918  0.9419  0.8449 -0.3024
  795MOL0     H 7283   6.699   6.235   7.002 -1.5273 -0.3661 -1.8809
  795MOL0     H 7284   6.685   6.161   7.166 -1.1757  2.3114 -0.4903
  795MOL0     H 7285   6.516   6.357   7.095  1.1893 -0.1441 -1.7429
  795MOL0     H 7286   6.232   6.479   7.236  2.1268 -0.6515  1.9763
  795MOL0     H 7287   6.388   6.535   7.157  0.0690 -0.6091  0.8296
  795MOL0     H 7288   6.242   6.547   7.064 -0.0094  0.5257  1.3020
  795MOL0     H 7289   5.790   6.081   6.920  3.2068  3.2736 -1.4165
  795MOL0     H 7290   5.556   6.088   6.927  1.3794 -1.5915 -0.8288
  795MOL0     H 7291   5.394   6.344   6.856 -0.9948  0.3613 -0.5788
  795MOL0     H 7292   5.362   6.176   6.880 -1.9334  0.0485 -2.1804
  795MOL0     H 7293   5.175   6.402   6.984 -0.9396 -0.5767  0.7279
  795MOL0     H 7294   5.145   6.324   6.839 -1.9907  1.5360  0.4135
  795MOL0     H 7295   5.187   6.170   7.093  0.6067  2.6482  0.1258
  795MOL0     H 7296   5.099   6.118   6.941  3.4352  0.2621 -1.7780
  795MOL0     H 7297   4.932   6.161   7.125 -0.0860 -0.2628  0.0066
  795MOL0     H 7298   5.004   6.317   7.158  0.1675 -2.6795  2.3663
  795MOL0     H 7299   4.906   6.284   6.884  2.3903  2.1601 -0.2421
  795MOL0     H 7300   4.922   6.425   6.985 -0.5279  0.3575 -2.5345
  795MOL0     H 7301   4.727   6.199   7.040  0.3305 -0.3334  0.4559
  795MOL0     H 7302   4.748   6.366   7.125  2.5524 -2.9516  1.5859
  795MOL0     H 7303   4.661   6.340   6.831  0.5609 -0.1490  0.7272
  795MOL0     H 7304   4.674   6.485   6.926 -2.9011  0.2924 -0.8530
  795MOL0     H 7305   4.439   6.437   6.898  0.1458  0.5034 -0.2011
  795MOL0     H 7306   4.490   6.435   7.068  0.6883  0.8189 -1.2731
  795MOL0     H 7307   5.585   6.451   7.186 -0.4210  0.2300  0.1002
  795MOL0     H 7308   5.832   6.414   7.186  1.4944 -0.9263 -0.3428
  795MOL0     H 7309   6.132   6.083   6.950 -0.0039  1.4846 -1.0877
  795MOL0     H 7310   6.356   5.999   6.947  0.2705  0.4159  0.3093
  795MOL0     H 7311   8.420   6.251   6.499 -1.8431  0.1257  0.9003
  795MOL0     H 7312   8.558   6.443   6.486  1.5139  0.1683 -0.5930
  795MOL0     H 7313   8.903   6.771   6.460 -0.4932 -1.0462 -0.2442
  795MOL0     H 7314   9.040   6.941   6.348  0.8705 -1.8082 -1.0340
  795MOL0     H 7315   9.151   7.099   6.277  0.4340  2.4348 -0.8517
  795MOL0     H 7316   9.162   7.005   6.116 -0.9943  0.5534 -2.7808
  795MOL0     H 7317   9.283   7.229   6.162  0.9398  0.2001 -1.8989
  795MOL0     H 7318   9.118   7.293   6.126 -0.2510 -0.6881  2.7043
  795MOL0     H 7319   9.297   7.105   5.963 -1.0861 -2.2120 -2.3060
  795MOL0     H 7320   9.268   7.278   5.919  0.0935  0.7177  1.2287
  795MOL0     H 7321   9.019   7.228   5.891 -0.5818 -1.0089  0.1049
  795MOL0     H 7322   9.053   7.059   5.897 -2.5597  1.2927 -1.6110
  795MOL0     H 7323   9.145   7.146   5.503 -0.1646  0.0995  0.1300
  795MOL0     H 7324   8.727   7.025   6.072 -0.3564  2.6168  1.5189
  795MOL0     H 7325   8.605   6.834   6.151 -0.3104 -0.9625  2.6175
  796MOL0     O 7326  10.028   2.537   8.314 -0.1814  0.0013 -0.4552
  796MOL0     C 7327  10.035   2.664   8.317 -0.1387 -0.1899  0.7043
  796MOL0     O 7328   9.932   2.756   8.327 -0.1909 -0.4634 -0.2491
  796MOL0     C 7329   9.796   2.722   8.345 -0.7228 -0.4353  0.2188
  796MOL0     C 7330   9.742   2.601   8.333 -0.3041 -0.0838 -0.1133
  796MOL0     C 7331   9.602   2.577   8.360  0.1518  0.2874 -0.5505
  796MOL0     C 7332   9.521   2.684   8.412 -1.4339  0.6820  0.0558
  796MOL0     O 7333   9.392   2.673   8.455 -0.1752  1.0094 -0.3838
  796MOL0     C 7334   9.317   2.574   8.382  0.1118  0.3287  0.8126
  796MOL0     C 7335   9.167   2.614   8.386  0.2198 -0.1162 -0.4314
  796MOL0     C 7336   9.095   2.589   8.260  0.6214  0.6024 -0.3002
  796MOL0     C 7337   9.019   2.454   8.263  0.1154  0.1762  0.3274
  796MOL0     C 7338   8.919   2.436   8.149 -0.3783  0.0104 -0.8149
  796MOL0     C 7339   8.818   2.325   8.186  0.2043 -0.3814 -0.5346
  796MOL0     C 7340   8.701   2.300   8.099 -0.0052  0.3030 -0.5161
  796MOL0     C 7341   8.594   2.399   8.133 -0.2877  0.0515 -1.0246
  796MOL0     N 7342   8.492   2.399   8.032  1.0996 -0.4220  0.3966
  796MOL0     C 7343   8.401   2.301   8.005 -0.2286 -0.5881 -0.9051
  796MOL0     C 7344   8.333   2.343   7.894 -0.1103  0.6328 -0.0083
  796MOL0     C 7345   8.203   2.283   7.843  0.2191 -0.0292 -0.6041
  796MOL0     C 7346   8.079   2.313   7.937 -0.6584  0.0710 -0.7435
  796MOL0     C 7347   8.056   2.467   7.938  0.6588 -0.8231 -0.4455
  796MOL0     C 7348   7.920   2.506   7.990  0.3621 -0.1384 -0.7000
  796MOL0     O 7349   7.826   2.479   7.888 -0.3406 -0.0596  0.7085
  796MOL0     C 7350   7.693   2.519   7.922 -0.4350 -0.1341 -0.8005
  796MOL0     C 7351   7.627   2.451   8.022 -0.1679  0.0635  0.4034
  796MOL0     C 7352   7.496   2.494   8.055  1.0095 -0.2002  0.0253
  796MOL0     C 7353   7.433   2.408   8.164 -0.0224 -0.4106  0.1807
  796MOL0     C 7354   7.430   2.598   7.986 -0.4361 -0.1915 -0.3105
  796MOL0     C 7355   7.290   2.636   8.010  0.7249 -0.6643  0.5555
  796MOL0     O 7356   7.210   2.534   8.053 -0.5597 -0.9444  0.2966
  796MOL0     C 7357   7.072   2.572   8.063 -0.3794  0.2082  0.8539
  796MOL0     C 7358   7.015   2.604   8.187 -0.0087  0.0366  0.2738
  796MOL0     C 7359   6.879   2.629   8.192  0.0489 -0.3177 -0.4421
  796MOL0     C 7360   6.802   2.613   8.080  1.2277  0.0520 -0.4207
  796MOL0     O 7361   6.662   2.639   8.080 -0.0931  0.3008 -0.4977
  796MOL0     C 7362   6.604   2.633   8.206  0.2437  0.2561  0.3602
  796MOL0     C 7363   6.453   2.612   8.182  0.3120  0.2360  0.1309
  796MOL0     C 7364   6.390   2.623   8.323 -0.3105  0.3477 -0.1196
  796MOL0     C 7365   6.239   2.609   8.333  0.1851  0.7881 -0.5183
  796MOL0     C 7366   6.156   2.704   8.250 -0.2987  0.4056 -0.0057
  796MOL0     C 7367   6.008   2.714   8.291  0.1093 -0.2540  0.1290
  796MOL0     C 7368   5.938   2.809   8.188  0.3384 -0.3532 -0.6172
  796MOL0     C 7369   5.783   2.814   8.198 -0.1625 -0.0079 -0.5711
  796MOL0    Cl 7370   5.722   2.966   8.135 -0.0456  0.0325 -0.6438
  796MOL0     C 7371   6.860   2.580   7.958  0.0404  0.4538  0.7765
  796MOL0     C 7372   6.993   2.556   7.950  0.1437  0.1943  0.7064
  796MOL0     O 7373   7.257   2.751   7.979 -0.6651 -0.4287  0.0685
  796MOL0     C 7374   7.502   2.663   7.887  1.0482 -0.2836  0.8474
  796MOL0     C 7375   7.633   2.624   7.854  1.0877  0.0361 -0.1698
  796MOL0     N 7376   8.397   2.453   7.849 -0.4029 -1.1983 -0.8032
  796MOL0     N 7377   8.494   2.483   7.927  0.0573  0.3495  0.2187
  796MOL0     C 7378   9.582   2.808   8.411  0.0106  1.3221 -0.5427
  796MOL0     C 7379   9.715   2.827   8.372 -0.9528 -0.6323 -1.4101
  796MOL0     C 7380  10.175   2.716   8.314  0.4945  0.7703  0.1025
  796MOL0     C 7381  10.284   2.634   8.280 -0.2279  0.2764 -0.0239
  796MOL0     C 7382  10.423   2.674   8.290  0.3930  0.1924 -0.0565
  796MOL0     C 7383  10.440   2.809   8.324  0.0653  0.5689  0.1261
  796MOL0     O 7384  10.556   2.884   8.320 -0.0006  0.1002 -0.3285
  796MOL0     C 7385  10.669   2.830   8.262  0.5128  0.1570  0.4264
  796MOL0     C 7386  10.795   2.912   8.287  0.5718  0.6306  0.2935
  796MOL0     C 7387  10.843   2.907   8.430 -0.2663 -0.3712 -0.0338
  796MOL0     C 7388  10.975   2.971   8.459  0.1980 -1.0950  0.8454
  796MOL0     C 7389  11.081   2.938   8.362  0.1438  0.1321 -0.2270
  796MOL0     C 7390  11.172   2.905   8.281  0.6308  0.5029 -0.7807
  796MOL0     C 7391  10.330   2.881   8.369 -0.7626  0.1477 -0.0105
  796MOL0     C 7392  10.197   2.842   8.372  0.3685  0.3346 -0.1343
  796MOL0     H 7393   9.805   2.514   8.319 -0.9098 -0.3808 -1.1382
  796MOL0     H 7394   9.570   2.474   8.354 -0.7122  0.6203 -3.8276
  796MOL0     H 7395   9.345   2.570   8.276  0.4468 -1.6914  0.9282
  796MOL0     H 7396   9.331   2.472   8.421 -0.5978 -0.3780 -0.6852
  796MOL0     H 7397   9.115   2.551   8.459 -0.4832  0.2259 -0.6259
  796MOL0     H 7398   9.159   2.720   8.411  0.0913 -0.1934 -0.1352
  796MOL0     H 7399   9.012   2.660   8.253 -0.2949 -0.5157 -1.1544
  796MOL0     H 7400   9.155   2.599   8.169  2.6982  2.4233  1.1445
  796MOL0     H 7401   9.094   2.381   8.293  0.2352  0.9383  2.0242
  796MOL0     H 7402   8.960   2.460   8.355 -1.0279 -0.6649 -0.3207
  796MOL0     H 7403   8.873   2.531   8.119  0.6282  1.4468  1.9319
  796MOL0     H 7404   8.985   2.405   8.067 -0.8712 -1.9130 -0.5387
  796MOL0     H 7405   8.878   2.234   8.197  1.2253  0.3578  0.1977
  796MOL0     H 7406   8.785   2.327   8.291  2.5769  0.9830  0.2654
  796MOL0     H 7407   8.739   2.317   7.998  1.6310 -2.0132 -0.3593
  796MOL0     H 7408   8.669   2.196   8.104  3.3159 -0.7496  1.5039
  796MOL0     H 7409   8.639   2.498   8.123  0.3508 -0.2102 -0.8269
  796MOL0     H 7410   8.552   2.400   8.234  1.1383  2.3944 -0.3815
  796MOL0     H 7411   8.370   2.226   8.077 -2.3841  1.3472  0.3148
  796MOL0     H 7412   8.191   2.318   7.740  3.3017  1.5230 -0.5615
  796MOL0     H 7413   8.224   2.176   7.848  1.2731  0.2180  2.1516
  796MOL0     H 7414   8.100   2.281   8.040  0.0948  0.0407 -0.9022
  796MOL0     H 7415   7.984   2.267   7.909 -0.7750 -1.9555  2.5066
  796MOL0     H 7416   8.070   2.503   7.836  1.7880 -2.3850 -0.8896
  796MOL0     H 7417   8.122   2.524   8.005 -0.1782 -0.0355 -0.2650
  796MOL0     H 7418   7.925   2.613   8.013  1.4957 -0.2528 -0.3555
  796MOL0     H 7419   7.897   2.449   8.081  0.6124  2.2197  0.9499
  796MOL0     H 7420   7.675   2.367   8.071 -1.6521 -1.2788 -0.3466
  796MOL0     H 7421   7.502   2.352   8.228  1.0325 -1.0428 -1.4326
  796MOL0     H 7422   7.384   2.476   8.234 -0.9739 -1.1788  0.2814
  796MOL0     H 7423   7.358   2.342   8.120 -0.4797  1.2211 -1.6603
  796MOL0     H 7424   7.078   2.627   8.272  0.4802  2.4236 -0.6559
  796MOL0     H 7425   6.840   2.668   8.285  0.4710  1.2092 -0.8681
  796MOL0     H 7426   6.632   2.543   8.263 -2.1810  0.3871  1.9438
  796MOL0     H 7427   6.620   2.723   8.265 -2.5927  1.5070 -0.6180
  796MOL0     H 7428   6.415   2.687   8.112 -1.9119  2.0403  3.0246
  796MOL0     H 7429   6.427   2.512   8.145 -1.6609 -0.0473  2.0683
  796MOL0     H 7430   6.415   2.722   8.365  0.0145  0.2895 -0.1692
  796MOL0     H 7431   6.432   2.541   8.382  0.5009 -1.9841 -3.6518
  796MOL0     H 7432   6.208   2.506   8.315 -0.1155  0.2939  2.2838
  796MOL0     H 7433   6.211   2.624   8.438 -0.2602 -0.4430 -0.4499
  796MOL0     H 7434   6.167   2.674   8.145  1.8899  3.7832 -0.9131
  796MOL0     H 7435   6.200   2.804   8.246  0.1949  0.3138  1.9736
  796MOL0     H 7436   5.961   2.615   8.286 -0.3198 -0.0739  0.5903
  796MOL0     H 7437   5.995   2.745   8.395  4.1941 -0.7981  0.9762
  796MOL0     H 7438   5.964   2.786   8.084 -1.8044  0.9400 -1.5149
  796MOL0     H 7439   5.978   2.907   8.218 -2.0675 -0.3292  3.1538
  796MOL0     H 7440   5.753   2.797   8.302  2.1122  0.9623  0.3008
  796MOL0     H 7441   5.738   2.731   8.143 -1.5444  0.8900 -0.8524
  796MOL0     H 7442   6.800   2.578   7.867  1.1577  0.8473  0.0152
  796MOL0     H 7443   7.033   2.520   7.856 -0.2636  2.5802 -0.4509
  796MOL0     H 7444   7.457   2.750   7.842  0.4073 -1.1433 -0.2051
  796MOL0     H 7445   7.684   2.671   7.770 -1.7295  0.7710 -1.6190
  796MOL0     H 7446   9.519   2.890   8.444 -1.3892  0.5974 -1.3463
  796MOL0     H 7447   9.762   2.925   8.375  4.0996 -2.7740  0.6352
  796MOL0     H 7448  10.278   2.537   8.232  0.5036  0.8232 -1.2980
  796MOL0     H 7449  10.500   2.606   8.255 -2.1808 -3.2890  0.5086
  796MOL0     H 7450  10.685   2.730   8.303  1.0889 -0.3617 -1.0182
  796MOL0     H 7451  10.655   2.822   8.154  3.1086  2.5011 -0.2221
  796MOL0     H 7452  10.789   3.015   8.250 -2.5184 -0.1361 -1.7381
  796MOL0     H 7453  10.866   2.870   8.215 -0.9243 -1.5786  0.0047
  796MOL0     H 7454  10.849   2.803   8.465  0.7797  0.2416  1.7152
  796MOL0     H 7455  10.764   2.951   8.493  0.0742 -2.7570  2.2312
  796MOL0     H 7456  11.018   2.932   8.551 -0.2296 -2.0660  0.6481
  796MOL0     H 7457  10.958   3.078   8.471 -2.1135 -1.0356 -1.9502
  796MOL0     H 7458  11.239   2.873   8.205 -1.3162  1.1767 -2.8988
  796MOL0     H 7459  10.341   2.981   8.409  0.1652 -0.4113  1.2099
  796MOL0     H 7460  10.118   2.898   8.421 -1.2447 -1.2272 -0.8361
  797MOL0     O 7461   8.573   0.045   9.455  0.6641  0.6995 -0.7586
  797MOL0     C 7462   8.556   0.159   9.420 -0.8129 -0.5575  1.4761
  797MOL0     O 7463   8.438   0.229   9.397 -0.2166 -0.6093 -0.1984
  797MOL0     C 7464   8.318   0.169   9.415  0.5220 -0.0339  0.1143
  797MOL0     C 7465   8.283   0.045   9.364 -0.6526  0.2904  0.2800
  797MOL0     C 7466   8.153   0.001   9.386 -0.7168 -0.6405  0.3726
  797MOL0     C 7467   8.055   0.086   9.452 -0.0492 -0.1816  1.0365
  797MOL0     O 7468   7.927   0.047   9.472  0.5079  0.7298  0.5579
  797MOL0     C 7469   7.862  -0.043   9.387 -0.4824  0.9582  0.3157
  797MOL0     C 7470   7.713  -0.043   9.413 -0.0034 -0.1023 -0.0362
  797MOL0     C 7471   7.666  -0.108   9.546  0.2300 -0.7003 -0.5529
  797MOL0     C 7472   7.509  -0.108   9.546  0.6968 -0.6223 -0.4917
  797MOL0     C 7473   7.451  -0.220   9.454 -0.6764 -1.1159 -0.5728
  797MOL0     C 7474   7.306  -0.257   9.501 -0.1493  0.0869 -0.1854
  797MOL0     C 7475   7.250  -0.378   9.416  0.1107 -1.2933  0.7991
  797MOL0     C 7476   7.321  -0.512   9.459  0.8147 -0.3886  0.4783
  797MOL0     N 7477   7.296  -0.616   9.360 -0.8169  0.3581  0.1701
  797MOL0     C 7478   7.168  -0.665   9.323 -0.0440 -1.2037 -0.0878
  797MOL0     C 7479   7.189  -0.733   9.206  0.2545 -0.1721  0.5039
  797MOL0     C 7480   7.087  -0.808   9.116  0.7154  0.8367 -0.0400
  797MOL0     C 7481   7.157  -0.920   9.037  0.7257  0.5155 -0.9033
  797MOL0     C 7482   7.066  -1.004   8.934 -0.6997 -0.1606 -1.1349
  797MOL0     C 7483   6.931  -1.043   8.986  0.1296  0.6191  0.5908
  797MOL0     O 7484   6.842  -0.939   8.976 -0.8501  0.0470 -0.7898
  797MOL0     C 7485   6.708  -0.959   8.951  0.3933  0.4175 -1.0636
  797MOL0     C 7486   6.632  -0.843   8.940 -0.3597  0.3329 -0.4575
  797MOL0     C 7487   6.498  -0.853   8.902  0.2673 -0.7955 -0.3529
  797MOL0     C 7488   6.436  -0.717   8.874  0.0383  0.3955  0.4275
  797MOL0     C 7489   6.429  -0.982   8.895 -0.1396 -1.1543 -0.2266
  797MOL0     C 7490   6.282  -0.993   8.875 -0.2039  0.1540 -0.6727
  797MOL0     O 7491   6.234  -1.123   8.870  0.0422 -0.5350  0.1516
  797MOL0     C 7492   6.105  -1.146   8.849  0.4433 -0.8492 -0.9696
  797MOL0     C 7493   6.068  -1.259   8.774  0.1755  0.2844 -0.7356
  797MOL0     C 7494   5.935  -1.292   8.744 -0.2320  0.2933  0.5411
  797MOL0     C 7495   5.831  -1.207   8.787 -0.6862  0.4278  0.1917
  797MOL0     O 7496   5.695  -1.230   8.766 -0.0941  0.3372 -0.7251
  797MOL0     C 7497   5.659  -1.353   8.691  0.1756 -0.4986  0.3914
  797MOL0     C 7498   5.510  -1.386   8.676 -0.0547 -0.7572  0.5074
  797MOL0     C 7499   5.443  -1.398   8.815 -0.9549 -0.5660 -0.0376
  797MOL0     C 7500   5.301  -1.412   8.800 -0.7449  1.4480  0.3218
  797MOL0     C 7501   5.235  -1.441   8.931  0.7135 -0.4671  0.1235
  797MOL0     C 7502   5.077  -1.426   8.918 -0.6235 -0.0981 -0.0118
  797MOL0     C 7503   4.992  -1.468   9.042  0.3193  0.4935 -0.3244
  797MOL0     C 7504   4.844  -1.434   9.027  0.4379 -0.6438  0.4035
  797MOL0    Cl 7505   4.815  -1.264   9.030  0.0520  0.1145  0.4949
  797MOL0     C 7506   5.866  -1.104   8.871 -0.5685 -0.7392  0.5288
  797MOL0     C 7507   6.002  -1.067   8.898  0.6281  0.3486 -0.4610
  797MOL0     O 7508   6.214  -0.890   8.876  0.0138  0.2364 -0.8711
  797MOL0     C 7509   6.509  -1.100   8.905  0.4120  0.4442  0.1004
  797MOL0     C 7510   6.644  -1.080   8.926  0.3133  0.6089  0.3152
  797MOL0     N 7511   7.326  -0.725   9.172 -0.5573  0.4280  0.6452
  797MOL0     N 7512   7.385  -0.666   9.273  0.2808  0.3151 -0.4703
  797MOL0     C 7513   8.092   0.205   9.507  0.0572 -0.2238  0.3410
  797MOL0     C 7514   8.224   0.249   9.488 -0.9740  0.1199 -0.3082
  797MOL0     C 7515   8.685   0.223   9.387 -0.0043 -0.6271 -0.2119
  797MOL0     C 7516   8.691   0.358   9.336  0.2754  0.9012 -0.5016
  797MOL0     C 7517   8.809   0.415   9.292  0.5335 -0.5941 -0.4061
  797MOL0     C 7518   8.939   0.363   9.323  0.6871 -0.1368  0.3092
  797MOL0     O 7519   9.047   0.447   9.281  0.4323 -0.1026 -0.9026
  797MOL0     C 7520   9.178   0.373   9.305  0.2084  0.2974  0.0755
  797MOL0     C 7521   9.290   0.475   9.281 -0.2065 -0.2100  0.4052
  797MOL0     C 7522   9.433   0.433   9.335 -0.2798 -0.3258  0.2568
  797MOL0     C 7523   9.544   0.523   9.268 -0.4359 -0.1894 -0.5507
  797MOL0     C 7524   9.678   0.481   9.309 -0.3331 -0.0672  0.2189
  797MOL0     C 7525   9.781   0.441   9.351 -0.4458  0.0521 -0.4748
  797MOL0     C 7526   8.932   0.230   9.368 -0.8946  0.5039  0.1058
  797MOL0     C 7527   8.811   0.162   9.407  0.0977 -0.9825  0.7833
  797MOL0     H 7528   8.350  -0.016   9.303 -0.5498  2.5813 -2.0966
  797MOL0     H 7529   8.125  -0.098   9.351  1.0127 -1.0052 -0.0513
  797MOL0     H 7530   7.864  -0.018   9.280 -2.9418 -1.7398 -0.4766
  797MOL0     H 7531   7.902  -0.144   9.396 -0.0502  0.3765 -4.7866
  797MOL0     H 7532   7.673   0.058   9.403 -1.5112 -0.7262 -0.5920
  797MOL0     H 7533   7.664  -0.106   9.338 -3.8355 -1.9186  3.5851
  797MOL0     H 7534   7.714  -0.205   9.559  2.8655  0.5506 -0.3738
  797MOL0     H 7535   7.703  -0.038   9.622 -1.3633  1.0414 -1.2865
  797MOL0     H 7536   7.473  -0.120   9.649  0.9947 -0.3391 -0.3541
  797MOL0     H 7537   7.469  -0.008   9.529  0.5912 -0.1098  2.2548
  797MOL0     H 7538   7.449  -0.178   9.352 -2.5634  0.4273  0.0382
  797MOL0     H 7539   7.516  -0.306   9.468  0.7784 -0.0780 -0.7110
  797MOL0     H 7540   7.305  -0.292   9.605  0.4443 -0.6913 -0.4393
  797MOL0     H 7541   7.238  -0.172   9.486  0.0455 -0.0247 -1.8856
  797MOL0     H 7542   7.145  -0.384   9.445 -0.8662  3.4202 -0.8046
  797MOL0     H 7543   7.260  -0.352   9.310  1.9292  0.5746  1.3582
  797MOL0     H 7544   7.282  -0.542   9.557  1.1051  1.5204  1.2284
  797MOL0     H 7545   7.428  -0.487   9.463  0.5626  0.8882 -0.1694
  797MOL0     H 7546   7.076  -0.637   9.373 -0.1163  2.3125 -1.8661
  797MOL0     H 7547   7.019  -0.855   9.188  2.5400  0.0222  1.2459
  797MOL0     H 7548   7.035  -0.730   9.060  0.3066 -0.4225 -1.4768
  797MOL0     H 7549   7.202  -0.989   9.108 -2.6313  0.5937  1.5319
  797MOL0     H 7550   7.245  -0.878   8.988  2.1107 -3.0500 -1.7932
  797MOL0     H 7551   7.126  -1.093   8.913 -3.6835 -2.3560 -1.0450
  797MOL0     H 7552   7.068  -0.937   8.847 -1.2063  1.8312  0.3302
  797MOL0     H 7553   6.935  -1.080   9.089 -0.0928 -0.0875  0.3540
  797MOL0     H 7554   6.901  -1.120   8.914  1.4491 -0.2581  0.9444
  797MOL0     H 7555   6.680  -0.745   8.951  0.5548 -0.0964 -0.5028
  797MOL0     H 7556   6.364  -0.692   8.953 -1.4180 -0.7014 -0.5063
  797MOL0     H 7557   6.504  -0.631   8.879 -1.2193  1.3767  1.5893
  797MOL0     H 7558   6.388  -0.715   8.776 -1.9101 -1.6045  1.2775
  797MOL0     H 7559   6.146  -1.315   8.723  1.7057  1.2829  0.4623
  797MOL0     H 7560   5.920  -1.369   8.670  0.7284 -0.8573  1.5081
  797MOL0     H 7561   5.697  -1.334   8.590  1.7388  1.6808  1.2980
  797MOL0     H 7562   5.701  -1.446   8.730 -0.2333  0.0243  2.1390
  797MOL0     H 7563   5.459  -1.309   8.618  0.2942 -0.1304  1.0283
  797MOL0     H 7564   5.507  -1.485   8.629  0.9485 -1.2941  1.5435
  797MOL0     H 7565   5.466  -1.310   8.875 -0.9280 -0.5715 -0.0390
  797MOL0     H 7566   5.481  -1.485   8.871 -0.0409 -0.3991 -0.3791
  797MOL0     H 7567   5.271  -1.315   8.761 -1.9051  0.6627 -0.7881
  797MOL0     H 7568   5.278  -1.493   8.730 -7.3555  1.3262  1.9739
  797MOL0     H 7569   5.273  -1.369   9.004  1.9887 -2.9686  2.0855
  797MOL0     H 7570   5.264  -1.536   8.976  2.2910 -0.1659 -0.2184
  797MOL0     H 7571   5.057  -1.323   8.887 -0.7935 -1.0067 -3.2766
  797MOL0     H 7572   5.049  -1.476   8.825  2.1351  1.4980 -1.8101
  797MOL0     H 7573   5.025  -1.427   9.138  1.9097 -1.7772  0.1688
  797MOL0     H 7574   5.013  -1.571   9.069 -0.2986  0.6481  0.8437
  797MOL0     H 7575   4.764  -1.472   9.092 -1.5412 -1.1603 -2.1643
  797MOL0     H 7576   4.816  -1.452   8.923 -0.4638  6.8352 -1.1867
  797MOL0     H 7577   5.796  -1.045   8.928 -1.2083 -2.4600  1.6079
  797MOL0     H 7578   6.024  -0.986   8.966  2.2607  0.4071 -1.0206
  797MOL0     H 7579   6.475  -1.203   8.898  1.1503  0.1179  1.1311
  797MOL0     H 7580   6.701  -1.168   8.955  1.6279  1.6580  1.0399
  797MOL0     H 7581   8.018   0.270   9.552 -0.1434  0.4113 -0.8646
  797MOL0     H 7582   8.260   0.347   9.516  0.8317 -0.3707 -0.8013
  797MOL0     H 7583   8.598   0.412   9.344 -0.0861  0.1171  1.0099
  797MOL0     H 7584   8.796   0.511   9.243 -0.6191 -0.8392 -0.6084
  797MOL0     H 7585   9.185   0.336   9.408  0.1500  0.5524  0.1722
  797MOL0     H 7586   9.189   0.290   9.236  0.6265  1.6776 -1.5878
  797MOL0     H 7587   9.250   0.569   9.322 -0.4469 -1.0777  2.2819
  797MOL0     H 7588   9.292   0.491   9.173 -1.3020  0.3229  0.4418
  797MOL0     H 7589   9.463   0.329   9.318  0.1386 -0.3772  1.2240
  797MOL0     H 7590   9.424   0.452   9.442 -1.3306 -1.0916  0.3199
  797MOL0     H 7591   9.526   0.626   9.300 -0.3219  0.6203 -2.8893
  797MOL0     H 7592   9.540   0.520   9.159 -0.0993  0.1664 -0.5776
  797MOL0     H 7593   9.880   0.416   9.385 -0.0206  1.7397 -0.3649
  797MOL0     H 7594   9.026   0.177   9.378  0.3147  2.2399 -1.4166
  797MOL0     H 7595   8.816   0.064   9.452  2.0009 -1.6956 -0.8344
  798MOL0     O 7596  10.559   9.739   0.229 -0.2708 -0.3943  0.5585
  798MOL0     C 7597  10.642   9.778   0.311  1.3148 -0.0457  0.4740
  798MOL0     O 7598  10.630   9.890   0.392  0.1994  0.6427  0.6855
  798MOL0     C 7599  10.520   9.966   0.399  0.1877 -1.3755  0.7320
  798MOL0     C 7600  10.552  10.104   0.408  0.1722  0.0370 -0.1614
  798MOL0     C 7601  10.445  10.194   0.414 -0.2487  0.6876 -0.3722
  798MOL0     C 7602  10.315  10.154   0.415  0.7138  0.5333  0.2963
  798MOL0     O 7603  10.209  10.248   0.419 -0.3079 -0.3137 -0.9146
  798MOL0     C 7604  10.219  10.375   0.350 -0.0370  0.6238 -0.2675
  798MOL0     C 7605  10.223  10.486   0.456  0.3065  0.0115  0.4515
  798MOL0     C 7606  10.111  10.474   0.553  0.3114  1.0513 -0.3309
  798MOL0     C 7607  10.087  10.615   0.603  0.7185  0.2392 -1.1578
  798MOL0     C 7608   9.979  10.615   0.712  0.6858  0.9023 -0.4197
  798MOL0     C 7609   9.848  10.649   0.654  0.0361  0.0038  0.4787
  798MOL0     C 7610   9.760  10.675   0.779  0.2785  0.4166  0.1797
  798MOL0     C 7611   9.617  10.725   0.733  0.5162  0.3826  0.2801
  798MOL0     N 7612   9.517  10.691   0.843  0.0134  0.2033  0.2849
  798MOL0     C 7613   9.447  10.781   0.905 -0.5249 -0.2855 -0.7039
  798MOL0     C 7614   9.356  10.718   0.982 -0.0389  0.3363  0.1982
  798MOL0     C 7615   9.239  10.778   1.055 -0.4446  0.0100  0.2770
  798MOL0     C 7616   9.126  10.810   0.960 -0.8503 -0.8946  0.5708
  798MOL0     C 7617   9.066  10.702   0.866 -1.4205 -0.5111 -0.0056
  798MOL0     C 7618   9.004  10.594   0.957 -0.2754  0.7016 -0.8104
  798MOL0     O 7619   8.912  10.522   0.880 -0.7417  0.1842  0.8428
  798MOL0     C 7620   8.776  10.532   0.913  0.5306 -0.3931 -0.7537
  798MOL0     C 7621   8.694  10.434   0.857 -0.7884  0.0096  0.2596
  798MOL0     C 7622   8.555  10.443   0.862 -0.1084  0.1272  0.4052
  798MOL0     C 7623   8.481  10.332   0.786 -0.0792 -0.5927  0.0948
  798MOL0     C 7624   8.493  10.554   0.933  0.2964 -0.5112 -0.7287
  798MOL0     C 7625   8.341  10.571   0.955  0.0444  0.3291  0.1053
  798MOL0     O 7626   8.264  10.462   0.939 -0.5343  0.9947 -0.2082
  798MOL0     C 7627   8.138  10.455   0.987  0.5524  0.9405  0.5561
  798MOL0     C 7628   8.080  10.335   0.980 -0.3849 -0.2099 -0.5380
  798MOL0     C 7629   7.950  10.300   1.011 -0.1657  0.4629  0.1090
  798MOL0     C 7630   7.871  10.402   1.070 -0.0711  0.2239 -0.7457
  798MOL0     O 7631   7.742  10.371   1.088  0.0838 -0.5574  0.4868
  798MOL0     C 7632   7.645  10.477   1.092 -0.2248 -0.2900  0.7041
  798MOL0     C 7633   7.503  10.429   1.081 -0.1582 -0.5174  0.2241
  798MOL0     C 7634   7.449  10.348   1.200 -0.7926  0.8261 -0.6391
  798MOL0     C 7635   7.296  10.335   1.180  0.2272  0.8320 -0.0831
  798MOL0     C 7636   7.220  10.280   1.299 -0.5766 -0.1523 -0.1671
  798MOL0     C 7637   7.234  10.130   1.312  0.8674  0.9248 -1.4243
  798MOL0     C 7638   7.157  10.056   1.426 -0.5395  0.2565 -0.0058
  798MOL0     C 7639   7.129  10.135   1.551 -0.2130 -0.1436  0.2661
  798MOL0    Cl 7640   7.047  10.040   1.679  0.1375  0.4290 -0.3142
  798MOL0     C 7641   7.923  10.531   1.099 -0.0560  0.3691  0.1548
  798MOL0     C 7642   8.052  10.555   1.047 -0.7676  0.3718 -0.3884
  798MOL0     O 7643   8.302  10.689   0.973  0.0720  0.1982  0.2814
  798MOL0     C 7644   8.578  10.654   0.982 -0.5707  0.1568  0.2485
  798MOL0     C 7645   8.718  10.642   0.974  0.2409 -0.3673 -0.2269
  798MOL0     N 7646   9.383  10.584   0.978  0.1405  0.2853  0.5084
  798MOL0     N 7647   9.468  10.570   0.880 -0.1918 -0.1291  0.0901
  798MOL0     C 7648  10.287  10.019   0.404  0.3203  0.5553 -1.1818
  798MOL0     C 7649  10.386   9.921   0.394 -1.1817  0.7489  0.1569
  798MOL0     C 7650  10.764   9.701   0.321  0.6327  0.4575 -0.6028
  798MOL0     C 7651  10.768   9.559   0.289  0.6759 -0.0369  0.7118
  798MOL0     C 7652  10.891   9.493   0.284 -0.1268  0.0245  0.0921
  798MOL0     C 7653  11.000   9.551   0.346  0.2965  0.5810  0.3656
  798MOL0     O 7654  11.126   9.488   0.356 -0.3041 -0.5065 -0.1013
  798MOL0     C 7655  11.142   9.344   0.344  0.3018 -0.3203 -0.3417
  798MOL0     C 7656  11.079   9.265   0.459  0.4969  0.2631 -0.3137
  798MOL0     C 7657  11.107   9.325   0.591 -0.0456 -0.8126 -0.4442
  798MOL0     C 7658  11.071   9.235   0.707  0.2149  0.2785  0.4209
  798MOL0     C 7659  11.120   9.274   0.837 -0.5061 -0.2320 -0.9723
  798MOL0     C 7660  11.160   9.328   0.944  0.0349 -0.7209  0.4000
  798MOL0     C 7661  10.995   9.683   0.361  0.0863  0.3883  0.8200
  798MOL0     C 7662  10.882   9.762   0.356 -0.2573  0.1062 -0.1787
  798MOL0     H 7663  10.654  10.140   0.419  1.6023 -3.0811 -1.9501
  798MOL0     H 7664  10.465  10.298   0.441  0.6248  0.8245 -1.4629
  798MOL0     H 7665  10.310  10.391   0.292 -0.2427 -1.4906 -1.2605
  798MOL0     H 7666  10.136  10.389   0.279  0.1274  1.6852 -0.2622
  798MOL0     H 7667  10.320  10.492   0.505  0.9342 -2.2512 -0.3778
  798MOL0     H 7668  10.212  10.580   0.402 -4.6468  0.4024  1.5851
  798MOL0     H 7669  10.015  10.451   0.506  0.3095 -0.0615  0.1999
  798MOL0     H 7670  10.128  10.400   0.631 -0.8010 -1.1731 -2.0965
  798MOL0     H 7671  10.179  10.650   0.651  0.6342 -1.5082  0.4083
  798MOL0     H 7672  10.062  10.689   0.527 -1.3704  3.2797  2.1601
  798MOL0     H 7673   9.967  10.527   0.776 -0.2503  3.4007  3.1670
  798MOL0     H 7674  10.016  10.682   0.791  0.5419 -1.5523  1.8544
  798MOL0     H 7675   9.866  10.737   0.592  0.9979 -0.0017  0.7211
  798MOL0     H 7676   9.819  10.568   0.587  1.4506 -1.1226  1.1457
  798MOL0     H 7677   9.751  10.585   0.841 -0.7234  0.2298 -0.2118
  798MOL0     H 7678   9.809  10.748   0.844  0.8219  0.9699 -0.8271
  798MOL0     H 7679   9.596  10.686   0.633  0.8721 -2.6130  1.2697
  798MOL0     H 7680   9.626  10.832   0.717  0.7155  0.2801 -0.3515
  798MOL0     H 7681   9.461  10.887   0.888  0.4289 -0.6712 -2.6170
  798MOL0     H 7682   9.199  10.708   1.130 -0.6551 -2.7109 -2.2186
  798MOL0     H 7683   9.270  10.872   1.103 -0.8569  0.4290 -0.2701
  798MOL0     H 7684   9.161  10.888   0.892 -4.3034  0.5287  0.2486
  798MOL0     H 7685   9.038  10.855   1.007 -1.8126 -1.9698 -0.1328
  798MOL0     H 7686   9.148  10.662   0.806 -1.7503  0.9321 -1.4943
  798MOL0     H 7687   9.002  10.757   0.796 -3.0897 -3.3972 -0.8885
  798MOL0     H 7688   8.966  10.618   1.056  2.0334  1.6956 -0.1027
  798MOL0     H 7689   9.093  10.533   0.976 -0.3996  0.6572 -0.3634
  798MOL0     H 7690   8.748  10.361   0.797  1.3272 -0.9925  3.1473
  798MOL0     H 7691   8.386  10.373   0.751  0.7580  0.1185 -1.4578
  798MOL0     H 7692   8.535  10.291   0.701 -0.0345 -0.5927  0.1233
  798MOL0     H 7693   8.459  10.256   0.862  1.2062  0.9907  2.1744
  798MOL0     H 7694   8.147  10.263   0.933 -1.2351 -0.4853 -1.3627
  798MOL0     H 7695   7.913  10.201   0.985  0.3738  0.4616 -0.6619
  798MOL0     H 7696   7.658  10.539   1.181  1.0489  1.0330 -0.3675
  798MOL0     H 7697   7.674  10.539   1.007 -2.0615  0.1653  0.3536
  798MOL0     H 7698   7.437  10.515   1.073  1.2343  0.6980  1.3149
  798MOL0     H 7699   7.494  10.372   0.988  1.9762  2.4125 -1.9577
  798MOL0     H 7700   7.468  10.404   1.292  0.7959 -1.0940  0.2759
  798MOL0     H 7701   7.502  10.253   1.209 -0.5098  1.2127  3.1624
  798MOL0     H 7702   7.264  10.438   1.166  0.1719  0.8358  0.0746
  798MOL0     H 7703   7.280  10.273   1.091  3.4024 -3.4192  1.8959
  798MOL0     H 7704   7.117  10.298   1.269 -0.7389 -0.8321 -0.0300
  798MOL0     H 7705   7.252  10.338   1.386  0.6632 -1.4214  0.2712
  798MOL0     H 7706   7.201  10.082   1.219 -1.7151 -1.0316  0.3371
  798MOL0     H 7707   7.339  10.101   1.321  0.2540 -2.2084 -2.8977
  798MOL0     H 7708   7.216   9.968   1.454 -1.3477  0.4256  2.3649
  798MOL0     H 7709   7.061  10.016   1.393 -1.0476 -0.2594  2.0015
  798MOL0     H 7710   7.067  10.222   1.525 -0.3083 -0.3192 -0.0969
  798MOL0     H 7711   7.222  10.158   1.604  0.5728 -2.8196  0.2171
  798MOL0     H 7712   7.860  10.607   1.145 -1.0167 -1.9591  2.9776
  798MOL0     H 7713   8.084  10.659   1.046  0.3736  0.0397 -0.0653
  798MOL0     H 7714   8.538  10.749   1.018 -0.6369  0.4421 -0.5677
  798MOL0     H 7715   8.769  10.726   1.020  0.5122 -0.2895 -0.6584
  798MOL0     H 7716  10.184   9.986   0.411  0.4738 -0.0113 -1.5206
  798MOL0     H 7717  10.364   9.816   0.377 -4.2719  1.3332  0.0094
  798MOL0     H 7718  10.679   9.514   0.246  0.0307  0.5542  1.4093
  798MOL0     H 7719  10.894   9.391   0.248 -0.0164  0.5349 -1.3934
  798MOL0     H 7720  11.098   9.316   0.248 -0.3957  0.3598 -0.2289
  798MOL0     H 7721  11.250   9.326   0.344  0.2920 -0.3810 -0.6948
  798MOL0     H 7722  11.110   9.160   0.461  2.6971  0.7841  3.8318
  798MOL0     H 7723  10.971   9.277   0.445  0.9088  3.4382 -1.5088
  798MOL0     H 7724  11.068   9.427   0.597 -2.1192 -1.5924  0.2738
  798MOL0     H 7725  11.215   9.336   0.589  0.0594 -0.3015  2.6320
  798MOL0     H 7726  11.106   9.133   0.688 -1.8467 -0.5437  0.7299
  798MOL0     H 7727  10.962   9.240   0.708  0.2086  0.9580 -0.9889
  798MOL0     H 7728  11.203   9.380   1.027  0.4367  1.1561 -0.9009
  798MOL0     H 7729  11.085   9.740   0.385  2.3028 -2.7150  0.5027
  798MOL0     H 7730  10.905   9.864   0.385 -1.2069 -0.3923  2.5786
  799MOL0     O 7731   2.894   5.920   4.838 -0.0563 -0.0777 -0.1656
  799MOL0     C 7732   2.921   5.897   4.719  0.1716 -0.4311 -0.4350
  799MOL0     O 7733   2.842   5.933   4.613  0.1847 -0.0255  0.3850
  799MOL0     C 7734   2.715   5.982   4.631  0.1661  0.2862  0.7081
  799MOL0     C 7735   2.633   5.957   4.745 -0.6472  0.6693  0.1529
  799MOL0     C 7736   2.506   6.012   4.751  0.5591  0.1732 -1.0301
  799MOL0     C 7737   2.446   6.096   4.658 -0.6660  0.4509 -0.2289
  799MOL0     O 7738   2.315   6.133   4.654  0.2478 -0.1709 -0.6554
  799MOL0     C 7739   2.220   6.068   4.745  0.6354 -0.0202 -0.2641
  799MOL0     C 7740   2.073   6.123   4.712 -0.8304  0.0861  0.0782
  799MOL0     C 7741   1.965   6.074   4.802 -0.3981 -0.7126 -0.0534
  799MOL0     C 7742   1.940   5.923   4.802  0.4610 -0.0576  0.4115
  799MOL0     C 7743   1.865   5.877   4.931  0.3062 -0.3534  0.3222
  799MOL0     C 7744   1.710   5.891   4.927  0.1281  0.7446 -0.3883
  799MOL0     C 7745   1.645   5.777   4.833 -0.1610  0.4165 -0.0903
  799MOL0     C 7746   1.610   5.660   4.927  0.2683 -0.4420 -0.1230
  799MOL0     N 7747   1.552   5.556   4.843  0.6186  0.8904  0.6766
  799MOL0     C 7748   1.429   5.482   4.861  0.7795 -0.4601 -0.1259
  799MOL0     C 7749   1.426   5.386   4.769 -0.2815  0.2460  0.7678
  799MOL0     C 7750   1.317   5.291   4.742  0.6529  1.3512  0.2808
  799MOL0     C 7751   1.243   5.296   4.610 -0.3226  0.0242 -0.0729
  799MOL0     C 7752   1.166   5.430   4.610 -0.5435 -0.9066 -0.7517
  799MOL0     C 7753   1.022   5.411   4.639 -0.6291 -0.2760 -0.4431
  799MOL0     O 7754   0.960   5.527   4.591  0.5102 -0.0552  0.0082
  799MOL0     C 7755   0.838   5.521   4.528  0.1012  0.1294  0.0567
  799MOL0     C 7756   0.759   5.405   4.513 -0.2211  0.4949 -0.9857
  799MOL0     C 7757   0.632   5.403   4.455  0.2376 -0.8805  0.3801
  799MOL0     C 7758   0.576   5.281   4.398  0.3850 -0.2625  0.2655
  799MOL0     C 7759   0.572   5.526   4.416 -0.3574 -0.5231  0.4918
  799MOL0     C 7760   0.428   5.532   4.384 -0.0886  0.3961  0.6234
  799MOL0     O 7761   0.341   5.449   4.445  0.2906  0.0092 -0.2689
  799MOL0     C 7762   0.212   5.464   4.398 -0.3781 -1.2651 -0.0664
  799MOL0     C 7763   0.136   5.363   4.331  0.0371  0.3064  0.8000
  799MOL0     C 7764   0.018   5.396   4.261 -0.4183 -0.2273  0.3661
  799MOL0     C 7765  -0.039   5.524   4.280 -0.1918  0.6656 -0.5662
  799MOL0     O 7766  -0.161   5.573   4.243  0.5767 -0.1995  0.0780
  799MOL0     C 7767  -0.238   5.493   4.160 -0.3167 -0.2519 -0.0221
  799MOL0     C 7768  -0.373   5.550   4.171  0.4923 -0.7604  0.3403
  799MOL0     C 7769  -0.415   5.636   4.052  0.3446 -0.1935  0.0983
  799MOL0     C 7770  -0.551   5.693   4.065  0.7309 -0.8282 -0.8876
  799MOL0     C 7771  -0.578   5.785   3.944 -0.7283  0.5536  0.2395
  799MOL0     C 7772  -0.709   5.865   3.947  0.3446 -1.7459 -0.6191
  799MOL0     C 7773  -0.825   5.768   3.967  0.2249  0.7135  0.2561
  799MOL0     C 7774  -0.967   5.816   3.952 -0.2161  0.2863  0.8508
  799MOL0    Cl 7775  -1.092   5.683   3.979 -0.0584 -0.0398  0.2953
  799MOL0     C 7776   0.017   5.612   4.369 -0.7746  0.5655  0.0512
  799MOL0     C 7777   0.146   5.589   4.415  0.3151 -0.4581 -0.9977
  799MOL0     O 7778   0.401   5.628   4.305  1.0500 -0.0807 -0.5351
  799MOL0     C 7779   0.637   5.648   4.456  0.0897  0.6201  0.0749
  799MOL0     C 7780   0.768   5.643   4.506  0.0387 -0.4689 -0.1166
  799MOL0     N 7781   1.543   5.390   4.701  0.1499  0.2384 -1.0272
  799MOL0     N 7782   1.613   5.496   4.735 -0.0762  1.1211  0.1080
  799MOL0     C 7783   2.527   6.119   4.547 -0.1769  0.1999 -0.0916
  799MOL0     C 7784   2.656   6.067   4.531  0.4850  0.5555  0.0731
  799MOL0     C 7785   3.057   5.844   4.675 -0.0301  0.3002 -0.5280
  799MOL0     C 7786   3.103   5.851   4.545  0.7309  0.5402  0.4485
  799MOL0     C 7787   3.233   5.828   4.498 -0.0328 -0.6308  0.0972
  799MOL0     C 7788   3.329   5.784   4.587 -0.5077 -0.4068 -0.7365
  799MOL0     O 7789   3.449   5.756   4.527 -0.8094 -0.0409 -0.3908
  799MOL0     C 7790   3.564   5.731   4.605 -0.2058  0.4008  0.3580
  799MOL0     C 7791   3.685   5.791   4.520 -0.5826 -0.2712 -0.2785
  799MOL0     C 7792   3.706   5.722   4.390 -0.6544 -0.8448  0.7745
  799MOL0     C 7793   3.844   5.749   4.324 -0.0107 -0.1509 -0.0642
  799MOL0     C 7794   3.841   5.867   4.238 -0.2558 -0.2908 -0.4660
  799MOL0     C 7795   3.834   5.977   4.182 -0.5675  0.5334  0.5949
  799MOL0     C 7796   3.288   5.767   4.725 -0.1274 -0.6729  0.2500
  799MOL0     C 7797   3.154   5.796   4.771 -0.1304  0.6214  0.7315
  799MOL0     H 7798   2.665   5.895   4.828 -1.4612 -1.5498 -1.1023
  799MOL0     H 7799   2.448   5.992   4.841  1.0286  2.2941 -0.1879
  799MOL0     H 7800   2.220   5.961   4.720  0.7168  0.4246 -2.3906
  799MOL0     H 7801   2.247   6.079   4.850  3.9156  0.0511 -1.0033
  799MOL0     H 7802   2.076   6.232   4.720  1.7650  0.0810 -0.0916
  799MOL0     H 7803   2.046   6.094   4.610  1.2194 -1.6100 -0.0531
  799MOL0     H 7804   2.008   6.097   4.900 -3.5179  0.8291  1.0599
  799MOL0     H 7805   1.871   6.125   4.783 -1.7007 -1.7361  3.0342
  799MOL0     H 7806   1.872   5.888   4.724  0.3214 -2.3545  1.4792
  799MOL0     H 7807   2.025   5.854   4.801 -0.0276 -0.7433 -2.5319
  799MOL0     H 7808   1.901   5.778   4.963 -0.4299 -0.2177  1.6189
  799MOL0     H 7809   1.897   5.946   5.009 -0.6274 -0.4920  0.8301
  799MOL0     H 7810   1.668   5.894   5.028  0.8294  0.1001 -0.0704
  799MOL0     H 7811   1.691   5.988   4.879  0.0837  0.8979 -0.0678
  799MOL0     H 7812   1.560   5.826   4.784 -0.3302  1.4849  1.2066
  799MOL0     H 7813   1.722   5.747   4.761 -0.0499 -0.5984  0.4321
  799MOL0     H 7814   1.540   5.687   5.006 -0.7472 -0.4150 -1.0104
  799MOL0     H 7815   1.697   5.617   4.977 -1.5515 -5.1668 -0.5588
  799MOL0     H 7816   1.353   5.513   4.932 -1.1523  0.9823 -2.6404
  799MOL0     H 7817   1.356   5.190   4.756  0.0125  0.6143 -2.5963
  799MOL0     H 7818   1.244   5.308   4.821 -2.1318 -1.6813 -1.4142
  799MOL0     H 7819   1.177   5.210   4.612 -0.2265 -0.0891 -1.2432
  799MOL0     H 7820   1.323   5.295   4.535 -0.7024 -0.0597 -0.4778
  799MOL0     H 7821   1.178   5.481   4.514  2.3335 -1.0008 -0.5384
  799MOL0     H 7822   1.200   5.504   4.684  0.1481 -0.5412 -1.4219
  799MOL0     H 7823   1.020   5.398   4.748  3.1624 -1.7222 -0.4114
  799MOL0     H 7824   0.994   5.316   4.592  1.9726 -1.0209 -0.6103
  799MOL0     H 7825   0.799   5.308   4.539 -1.7462 -0.0809 -0.6562
  799MOL0     H 7826   0.655   5.205   4.398  0.9788  0.3325  0.0901
  799MOL0     H 7827   0.484   5.248   4.447  0.2211 -2.3636 -1.3424
  799MOL0     H 7828   0.548   5.304   4.295  1.1731  1.9653  0.4695
  799MOL0     H 7829   0.177   5.263   4.321 -3.5127 -1.0915 -3.0456
  799MOL0     H 7830  -0.029   5.316   4.205  0.6669 -0.3558 -0.3782
  799MOL0     H 7831  -0.201   5.495   4.057 -0.6552 -0.7486 -0.1552
  799MOL0     H 7832  -0.246   5.390   4.196  1.4225  0.2001  1.8185
  799MOL0     H 7833  -0.446   5.470   4.186 -1.2771  0.8113  0.4734
  799MOL0     H 7834  -0.375   5.618   4.257  0.6081  1.6469 -1.4613
  799MOL0     H 7835  -0.426   5.572   3.964  0.0019 -0.1134  0.0835
  799MOL0     H 7836  -0.337   5.712   4.044 -1.6889  2.4939  3.2328
  799MOL0     H 7837  -0.625   5.613   4.061 -0.1867 -0.1219  0.8794
  799MOL0     H 7838  -0.557   5.736   4.166 -1.8896 -1.4025 -0.7416
  799MOL0     H 7839  -0.593   5.716   3.861  0.1215  2.7598 -1.8803
  799MOL0     H 7840  -0.484   5.841   3.935  1.1071 -2.5907 -2.0210
  799MOL0     H 7841  -0.698   5.942   4.025 -2.2560  0.1804 -1.9859
  799MOL0     H 7842  -0.729   5.931   3.862 -0.8998 -1.4318 -0.1123
  799MOL0     H 7843  -0.827   5.736   4.071 -1.2797 -0.6313 -0.1574
  799MOL0     H 7844  -0.814   5.677   3.907 -0.9416  1.7538 -1.6503
  799MOL0     H 7845  -0.982   5.833   3.845 -2.3342  1.3510  1.2711
  799MOL0     H 7846  -0.992   5.904   4.012  3.1115  2.7674 -1.0297
  799MOL0     H 7847  -0.037   5.701   4.399 -0.5659  0.1852  1.6052
  799MOL0     H 7848   0.188   5.664   4.482 -0.6193 -3.3615  3.2081
  799MOL0     H 7849   0.569   5.732   4.449 -0.1918  0.4095  0.2137
  799MOL0     H 7850   0.812   5.738   4.534 -2.0638  1.9262 -4.0313
  799MOL0     H 7851   2.490   6.171   4.459 -1.1178 -0.2423  0.0193
  799MOL0     H 7852   2.714   6.098   4.445 -0.4332  1.8279 -0.1061
  799MOL0     H 7853   3.037   5.890   4.468  1.2234  0.3361 -0.0867
  799MOL0     H 7854   3.263   5.827   4.393 -2.9376 -1.0206 -0.8096
  799MOL0     H 7855   3.557   5.772   4.706 -0.6012  1.7835 -0.2051
  799MOL0     H 7856   3.591   5.625   4.614  0.0931  0.5384  1.1759
  799MOL0     H 7857   3.782   5.790   4.571  0.6239  1.8652 -2.3419
  799MOL0     H 7858   3.665   5.896   4.496 -1.7067 -0.8165 -1.9381
  799MOL0     H 7859   3.619   5.755   4.331  0.5022  1.0990  0.0578
  799MOL0     H 7860   3.695   5.613   4.393  2.7634 -1.4532 -2.3802
  799MOL0     H 7861   3.867   5.662   4.261 -2.9141 -0.9015 -0.2519
  799MOL0     H 7862   3.924   5.747   4.398 -0.3323 -3.1834  0.3482
  799MOL0     H 7863   3.826   6.076   4.141 -0.7987  0.0949 -0.4546
  799MOL0     H 7864   3.367   5.738   4.794 -0.4254 -0.8758  0.5062
  799MOL0     H 7865   3.124   5.780   4.874 -0.2128 -0.4675  0.5489
  800MOL0     O 7866   2.391   4.421   6.527  0.2091 -0.2829 -0.2598
  800MOL0     C 7867   2.430   4.447   6.639 -0.3459 -0.1943  0.0564
  800MOL0     O 7868   2.349   4.476   6.743  0.7851 -0.0438  0.5868
  800MOL0     C 7869   2.214   4.460   6.738  0.0266  1.2114  0.5052
  800MOL0     C 7870   2.130   4.558   6.800  0.1614  0.3788  0.2586
  800MOL0     C 7871   1.989   4.545   6.797 -0.0021 -0.1938  0.3139
  800MOL0     C 7872   1.928   4.426   6.748 -0.4645 -0.5026 -0.0191
  800MOL0     O 7873   1.791   4.429   6.739  0.1792 -0.0885  0.1217
  800MOL0     C 7874   1.727   4.315   6.685 -1.1141  0.0436  0.4599
  800MOL0     C 7875   1.580   4.323   6.711 -0.3030  0.2834  0.1610
  800MOL0     C 7876   1.513   4.184   6.711 -0.1924  0.0071 -0.4027
  800MOL0     C 7877   1.362   4.198   6.747 -0.4648  0.8491 -0.5958
  800MOL0     C 7878   1.302   4.065   6.781  0.5939  0.0385 -0.2455
  800MOL0     C 7879   1.152   4.097   6.771  1.0709 -0.0824 -0.0889
  800MOL0     C 7880   1.057   3.982   6.827 -1.5646 -0.6836  0.3012
  800MOL0     C 7881   0.919   4.025   6.844  0.5661  0.5216  0.6715
  800MOL0     N 7882   0.847   3.911   6.906 -0.0707 -0.6235 -0.4091
  800MOL0     C 7883   0.756   3.835   6.839 -0.3333  0.8029  0.1961
  800MOL0     C 7884   0.702   3.749   6.928 -0.1447  1.0625  0.3260
  800MOL0     C 7885   0.578   3.665   6.901  0.8193  0.8968 -0.1662
  800MOL0     C 7886   0.611   3.530   6.844  0.4552  0.2083  0.3240
  800MOL0     C 7887   0.479   3.443   6.818 -0.6293 -0.1566 -0.0931
  800MOL0     C 7888   0.371   3.435   6.927 -0.5841 -0.2199 -0.3784
  800MOL0     O 7889   0.291   3.548   6.930  0.2472  0.0696 -0.4633
  800MOL0     C 7890   0.178   3.545   7.007 -0.1696 -0.4524  1.2869
  800MOL0     C 7891   0.166   3.461   7.117  0.0568 -0.4518  0.2249
  800MOL0     C 7892   0.044   3.454   7.186 -0.0337  0.1904  0.4726
  800MOL0     C 7893   0.039   3.346   7.299 -0.1969  0.2474 -0.1746
  800MOL0     C 7894  -0.079   3.514   7.143 -0.9244 -0.0735 -0.0143
  800MOL0     C 7895  -0.210   3.506   7.197  0.6429  0.1594  0.0380
  800MOL0     O 7896  -0.303   3.590   7.148 -0.3176  0.3493 -0.1298
  800MOL0     C 7897  -0.442   3.589   7.167 -0.5205  0.3970 -0.8521
  800MOL0     C 7898  -0.518   3.462   7.177  0.9930 -0.4877 -0.9935
  800MOL0     C 7899  -0.655   3.468   7.171 -0.5151  0.4198 -0.7243
  800MOL0     C 7900  -0.727   3.583   7.140 -0.3446  0.3446 -0.0066
  800MOL0     O 7901  -0.871   3.585   7.125 -0.1659 -0.2121  0.6047
  800MOL0     C 7902  -0.942   3.463   7.111  0.0271  0.0061 -0.6360
  800MOL0     C 7903  -1.088   3.491   7.054  0.4537  0.5696 -0.5172
  800MOL0     C 7904  -1.166   3.355   7.052 -0.2412  0.1276  0.4118
  800MOL0     C 7905  -1.312   3.378   7.003 -0.3977 -0.6110 -0.0816
  800MOL0     C 7906  -1.407   3.273   7.052  0.1747 -0.2113  1.3276
  800MOL0     C 7907  -1.405   3.132   6.993 -0.6546  1.7830 -0.1673
  800MOL0     C 7908  -1.522   3.049   7.038 -0.4536 -0.0005 -0.3122
  800MOL0     C 7909  -1.499   2.902   7.004 -0.0111 -0.2251  0.2207
  800MOL0    Cl 7910  -1.645   2.822   7.067  0.1372 -0.0153  0.3462
  800MOL0     C 7911  -0.659   3.705   7.129 -0.1723 -0.0951  0.7755
  800MOL0     C 7912  -0.520   3.704   7.144 -0.3030 -0.1616  0.0659
  800MOL0     O 7913  -0.236   3.425   7.283 -0.1060  0.3799 -0.3075
  800MOL0     C 7914  -0.053   3.607   7.041 -0.3706  0.2827  0.6487
  800MOL0     C 7915   0.068   3.629   6.978  0.5732  0.2582 -0.9872
  800MOL0     N 7916   0.751   3.781   7.054 -0.2155  1.3383  0.3381
  800MOL0     N 7917   0.840   3.868   7.033 -0.2499 -0.2791 -0.5039
  800MOL0     C 7918   2.016   4.337   6.684  0.2552 -0.0073  0.1681
  800MOL0     C 7919   2.151   4.351   6.675  0.1671  0.6933 -0.3506
  800MOL0     C 7920   2.577   4.440   6.667 -0.3525 -0.2880 -0.0839
  800MOL0     C 7921   2.624   4.488   6.792  0.2629  0.4176 -0.4990
  800MOL0     C 7922   2.764   4.494   6.813 -0.5239 -0.4072  0.0668
  800MOL0     C 7923   2.861   4.447   6.724 -0.9972  0.0876 -0.3764
  800MOL0     O 7924   2.995   4.481   6.735 -0.1548  0.4585  0.1568
  800MOL0     C 7925   3.073   4.361   6.747  0.9826  0.7697  0.6780
  800MOL0     C 7926   3.221   4.388   6.716  0.5054  0.3759  0.2078
  800MOL0     C 7927   3.312   4.267   6.694  0.0136  0.0273  0.9591
  800MOL0     C 7928   3.280   4.158   6.794 -0.3573  0.4614 -0.1567
  800MOL0     C 7929   3.404   4.081   6.797  0.0991  0.3235 -0.3026
  800MOL0     C 7930   3.499   4.005   6.784 -0.6406 -0.7599 -0.0596
  800MOL0     C 7931   2.810   4.394   6.603  0.5771 -0.9924  0.3595
  800MOL0     C 7932   2.667   4.402   6.575 -0.8087 -0.0319 -0.0441
  800MOL0     H 7933   2.177   4.638   6.856  0.8888  0.8856 -1.0354
  800MOL0     H 7934   1.918   4.611   6.844 -0.1261  1.6593 -2.3336
  800MOL0     H 7935   1.742   4.309   6.577 -0.6867 -1.0565  0.5718
  800MOL0     H 7936   1.772   4.228   6.732  0.8857 -0.7800 -2.6827
  800MOL0     H 7937   1.566   4.372   6.807  2.0892  1.1452  0.1295
  800MOL0     H 7938   1.538   4.397   6.641  2.9833  2.6266  0.4329
  800MOL0     H 7939   1.521   4.126   6.618 -1.6840 -1.3512  0.2667
  800MOL0     H 7940   1.548   4.123   6.794 -1.0507 -0.1132 -0.1120
  800MOL0     H 7941   1.344   4.269   6.828 -3.2169  0.4761 -0.7785
  800MOL0     H 7942   1.320   4.248   6.659 -1.8094 -2.3552 -1.9234
  800MOL0     H 7943   1.327   3.991   6.703 -0.5667  0.0606 -0.6600
  800MOL0     H 7944   1.334   4.050   6.884  3.0582 -1.1911 -1.0983
  800MOL0     H 7945   1.139   4.181   6.840  1.1989  2.7128 -3.2105
  800MOL0     H 7946   1.110   4.134   6.677 -0.6391 -2.6075 -0.4150
  800MOL0     H 7947   1.054   3.898   6.757 -3.9732 -2.5870  2.4749
  800MOL0     H 7948   1.103   3.931   6.913  2.2491 -2.5716 -2.5554
  800MOL0     H 7949   0.872   4.054   6.749  1.5151 -0.0225  0.0144
  800MOL0     H 7950   0.926   4.105   6.917 -0.6555  0.1475  1.2224
  800MOL0     H 7951   0.742   3.842   6.732  3.9417 -3.5747 -1.0047
  800MOL0     H 7952   0.530   3.652   6.998  1.0962  3.0547  0.3143
  800MOL0     H 7953   0.509   3.722   6.839  0.5419 -1.8320 -2.5784
  800MOL0     H 7954   0.679   3.467   6.902 -0.3910 -1.1673 -0.1332
  800MOL0     H 7955   0.669   3.558   6.755 -0.3493  0.7050 -0.0520
  800MOL0     H 7956   0.515   3.340   6.811  0.6092  0.2324  0.2959
  800MOL0     H 7957   0.434   3.465   6.721  4.1295  0.7016 -2.3866
  800MOL0     H 7958   0.421   3.416   7.023 -0.2771  0.1439 -0.4659
  800MOL0     H 7959   0.303   3.353   6.902 -3.6737  1.7198  1.1251
  800MOL0     H 7960   0.250   3.411   7.165  0.3051 -0.6672 -0.4200
  800MOL0     H 7961   0.139   3.333   7.342 -0.2254 -0.3404 -0.2808
  800MOL0     H 7962  -0.031   3.378   7.377  0.6497  2.0896 -0.1167
  800MOL0     H 7963   0.017   3.250   7.252  2.9071  0.7754 -3.1245
  800MOL0     H 7964  -0.473   3.363   7.180  0.3660 -0.7826  2.3594
  800MOL0     H 7965  -0.698   3.368   7.169  1.9612 -0.7493  0.0789
  800MOL0     H 7966  -0.879   3.411   7.038  1.6638  2.3988 -1.0858
  800MOL0     H 7967  -0.944   3.416   7.209 -0.1731  1.3281  0.0172
  800MOL0     H 7968  -1.142   3.562   7.117 -0.6393 -0.6546 -0.0243
  800MOL0     H 7969  -1.085   3.528   6.951 -1.7397 -2.5706 -1.8534
  800MOL0     H 7970  -1.157   3.314   7.153  2.7822 -1.5363 -0.4325
  800MOL0     H 7971  -1.119   3.282   6.985 -2.3071 -1.7447  0.8554
  800MOL0     H 7972  -1.345   3.478   7.032  1.7569  2.1271 -5.4802
  800MOL0     H 7973  -1.316   3.378   6.893 -0.7881 -0.8196 -0.0694
  800MOL0     H 7974  -1.510   3.309   7.044 -0.1604 -0.8653  2.5554
  800MOL0     H 7975  -1.384   3.267   7.158  1.6425 -1.2372  0.9708
  800MOL0     H 7976  -1.415   3.130   6.884 -3.8540 -0.1799  0.0277
  800MOL0     H 7977  -1.309   3.105   7.037 -2.0824 -1.4041  1.3040
  800MOL0     H 7978  -1.607   3.084   6.979  0.8505 -0.0913 -2.3442
  800MOL0     H 7979  -1.553   3.060   7.142 -1.2518 -0.0617 -0.5354
  800MOL0     H 7980  -1.406   2.863   7.046  0.2454 -0.9574 -0.9878
  800MOL0     H 7981  -1.496   2.894   6.895 -2.0565 -0.1348  0.1045
  800MOL0     H 7982  -0.714   3.798   7.120 -0.8326 -0.6799 -2.4427
  800MOL0     H 7983  -0.465   3.796   7.127 -0.2013 -0.3686 -0.7706
  800MOL0     H 7984  -0.128   3.673   6.999  1.3785  1.7521 -0.2676
  800MOL0     H 7985   0.079   3.710   6.907  2.6011  1.5249  0.6358
  800MOL0     H 7986   1.968   4.259   6.625  0.8492  0.0468 -0.3913
  800MOL0     H 7987   2.210   4.277   6.622  3.0883  2.0341  0.8344
  800MOL0     H 7988   2.549   4.535   6.855 -0.6475 -0.7374 -0.6939
  800MOL0     H 7989   2.799   4.538   6.906 -1.6024  0.7230 -0.0479
  800MOL0     H 7990   3.058   4.318   6.847 -1.5427 -0.6978 -0.2219
  800MOL0     H 7991   3.035   4.283   6.681  0.0118  1.2303  0.6715
  800MOL0     H 7992   3.259   4.453   6.796  0.5046 -1.1608  1.5086
  800MOL0     H 7993   3.223   4.444   6.622  0.2919 -3.9614 -2.6502
  800MOL0     H 7994   3.415   4.300   6.707 -0.4402  1.0546  2.1234
  800MOL0     H 7995   3.305   4.227   6.592  1.0615  3.8234 -0.7774
  800MOL0     H 7996   3.194   4.096   6.769  0.2270 -0.2754 -0.3666
  800MOL0     H 7997   3.269   4.195   6.896 -2.0768 -0.5019  0.0381
  800MOL0     H 7998   3.576   3.934   6.762  0.3556  0.7174 -1.6353
  800MOL0     H 7999   2.879   4.373   6.522  0.0788 -3.2376  0.4709
  800MOL0     H 8000   2.628   4.361   6.483 -0.9800  0.5016 -0.2097
  801MOL0     O 8001   0.653   6.204   3.827 -0.3849 -0.8757  0.2688
  801MOL0     C 8002   0.717   6.130   3.901 -0.6735 -0.0177 -0.1393
  801MOL0     O 8003   0.668   6.023   3.983  0.8902  0.4036 -0.3122
  801MOL0     C 8004   0.530   6.005   4.003 -0.7172 -0.5880 -0.1861
  801MOL0     C 8005   0.440   6.113   4.004  0.0190  0.2818 -0.0303
  801MOL0     C 8006   0.302   6.087   4.028 -0.0737  0.2796 -0.0325
  801MOL0     C 8007   0.251   5.955   4.054  1.1872  0.5633  1.1291
  801MOL0     O 8008   0.117   5.926   4.075 -0.7321 -0.0573  0.0021
  801MOL0     C 8009   0.015   5.994   4.006 -0.3638 -0.0827  0.3596
  801MOL0     C 8010  -0.119   5.916   4.022 -0.9147 -0.2679 -0.2738
  801MOL0     C 8011  -0.204   5.957   3.893  0.0754 -0.1820 -0.9837
  801MOL0     C 8012  -0.284   6.083   3.907 -0.7666  0.1037 -0.2472
  801MOL0     C 8013  -0.383   6.088   3.793  0.0719 -0.2258 -0.2655
  801MOL0     C 8014  -0.468   6.213   3.811  0.0835  0.6546 -0.1671
  801MOL0     C 8015  -0.575   6.219   3.696  0.6096 -0.2387  0.2097
  801MOL0     C 8016  -0.683   6.334   3.706  0.6298  1.1623 -0.7577
  801MOL0     N 8017  -0.774   6.304   3.819  0.6608  0.2456  0.5361
  801MOL0     C 8018  -0.904   6.263   3.829  0.3197  0.8123 -0.2581
  801MOL0     C 8019  -0.939   6.270   3.958  0.5165 -0.0312 -0.1832
  801MOL0     C 8020  -1.067   6.212   4.019  0.2779 -0.5442  0.7566
  801MOL0     C 8021  -1.193   6.298   3.982 -0.2655 -0.3472  0.5452
  801MOL0     C 8022  -1.250   6.292   3.833  0.3434  0.8868  0.0764
  801MOL0     C 8023  -1.331   6.421   3.795  0.0872 -0.2168  0.5262
  801MOL0     O 8024  -1.424   6.458   3.896 -0.4533 -0.3388  0.4243
  801MOL0     C 8025  -1.558   6.445   3.872  0.7531  0.2399 -0.1360
  801MOL0     C 8026  -1.612   6.493   3.750 -0.3694 -0.4423 -0.2098
  801MOL0     C 8027  -1.756   6.508   3.738  0.6065  0.2730 -0.1569
  801MOL0     C 8028  -1.803   6.584   3.615  0.2087 -0.7945  0.1190
  801MOL0     C 8029  -1.837   6.458   3.850 -0.3902  0.2606  0.3312
  801MOL0     C 8030  -1.980   6.458   3.849 -0.0694 -0.5910  0.7693
  801MOL0     O 8031  -2.053   6.360   3.911  0.0634  0.1223 -0.5030
  801MOL0     C 8032  -2.187   6.384   3.928 -0.4209 -0.9446 -0.3718
  801MOL0     C 8033  -2.233   6.450   4.043  0.0861 -0.0809  0.7270
  801MOL0     C 8034  -2.371   6.466   4.061 -0.5837 -0.2133 -0.0443
  801MOL0     C 8035  -2.462   6.413   3.968 -0.3106  0.1955 -0.0412
  801MOL0     O 8036  -2.596   6.431   4.006 -0.8801 -0.1767 -0.1636
  801MOL0     C 8037  -2.695   6.350   3.943 -0.4718 -0.6064  0.4792
  801MOL0     C 8038  -2.805   6.314   4.044  0.3360  0.6952 -0.1369
  801MOL0     C 8039  -2.902   6.429   4.076  0.3812 -0.5313 -0.4510
  801MOL0     C 8040  -3.005   6.442   3.955 -0.0203 -0.1437 -0.2117
  801MOL0     C 8041  -3.085   6.573   3.980  0.5047  0.0823  0.0484
  801MOL0     C 8042  -3.210   6.580   3.887 -0.0785  1.2247 -0.2421
  801MOL0     C 8043  -3.327   6.495   3.945 -0.7729 -0.1207 -0.1367
  801MOL0     C 8044  -3.432   6.451   3.840 -0.6181 -0.0378  0.1264
  801MOL0    Cl 8045  -3.499   6.597   3.772  0.4486  0.0514  0.1444
  801MOL0     C 8046  -2.418   6.368   3.844 -0.5283  1.0949 -0.2691
  801MOL0     C 8047  -2.278   6.345   3.826 -0.3225 -0.2232 -0.1859
  801MOL0     O 8048  -2.027   6.560   3.796  0.6133 -0.1536  0.0906
  801MOL0     C 8049  -1.780   6.395   3.959 -0.0628 -1.2668 -0.0261
  801MOL0     C 8050  -1.645   6.408   3.977  0.0403  0.3121  0.5212
  801MOL0     N 8051  -0.840   6.342   4.024 -0.0981  1.2263  0.0838
  801MOL0     N 8052  -0.741   6.359   3.944  0.0929  1.1857  0.6387
  801MOL0     C 8053   0.347   5.853   4.068 -0.3568 -0.2294 -0.5899
  801MOL0     C 8054   0.487   5.881   4.042 -0.2670  0.3900  0.5541
  801MOL0     C 8055   0.864   6.138   3.904  0.6220  0.0685  0.1412
  801MOL0     C 8056   0.936   6.063   3.986 -0.4343  0.7505 -0.2571
  801MOL0     C 8057   1.076   6.069   3.993 -0.5543  0.1753  0.8226
  801MOL0     C 8058   1.143   6.156   3.908  0.2124 -0.4422 -0.2539
  801MOL0     O 8059   1.277   6.170   3.921 -0.3214  0.6447  0.2118
  801MOL0     C 8060   1.367   6.107   4.018 -0.1651 -0.3179 -0.2066
  801MOL0     C 8061   1.357   6.196   4.143  0.1539 -0.1949  0.2718
  801MOL0     C 8062   1.455   6.182   4.262 -0.4366 -0.3887 -0.0965
  801MOL0     C 8063   1.588   6.267   4.239 -0.3638  0.4134 -0.4678
  801MOL0     C 8064   1.675   6.219   4.133  0.5162  0.3204  0.8133
  801MOL0     C 8065   1.739   6.193   4.032  1.3299 -0.5286 -0.2236
  801MOL0     C 8066   1.066   6.231   3.820  0.1600 -0.1502  1.4373
  801MOL0     C 8067   0.932   6.222   3.808  0.9875 -0.1832  0.3021
  801MOL0     H 8068   0.468   6.216   3.983  2.0073 -0.1775  0.1417
  801MOL0     H 8069   0.231   6.168   4.039 -2.0856 -1.3753 -0.2806
  801MOL0     H 8070   0.004   6.102   4.025 -1.0297  0.1311 -1.0931
  801MOL0     H 8071   0.048   5.992   3.901  0.3278  2.9778  0.4130
  801MOL0     H 8072  -0.089   5.811   4.008  2.2894  0.5960 -0.7633
  801MOL0     H 8073  -0.161   5.925   4.123 -1.7199 -3.7548 -0.1644
  801MOL0     H 8074  -0.144   5.955   3.802 -1.4239  2.2697 -2.1405
  801MOL0     H 8075  -0.278   5.880   3.870 -3.0635  2.2362  0.2089
  801MOL0     H 8076  -0.334   6.080   4.004 -2.1313 -0.0445 -0.9288
  801MOL0     H 8077  -0.221   6.171   3.894  2.4349 -2.2726 -2.6714
  801MOL0     H 8078  -0.330   6.091   3.697  0.5596 -0.9760 -0.0257
  801MOL0     H 8079  -0.454   6.005   3.795  0.3701 -0.5008  2.8363
  801MOL0     H 8080  -0.505   6.213   3.914 -1.4594 -2.3085 -0.6061
  801MOL0     H 8081  -0.397   6.296   3.800  2.3622 -1.1503 -0.0080
  801MOL0     H 8082  -0.521   6.229   3.601 -2.9914  1.4302 -1.8843
  801MOL0     H 8083  -0.626   6.122   3.697 -2.4666  1.2526 -0.5769
  801MOL0     H 8084  -0.743   6.335   3.615  0.6751  6.0646 -1.0018
  801MOL0     H 8085  -0.641   6.433   3.726 -2.1243  2.8498 -2.6445
  801MOL0     H 8086  -0.957   6.215   3.747  2.5339 -2.2014 -0.1074
  801MOL0     H 8087  -1.079   6.113   3.973  1.9317 -0.0066 -0.9394
  801MOL0     H 8088  -1.057   6.204   4.127 -0.2302  0.1833  0.8615
  801MOL0     H 8089  -1.185   6.400   4.021 -2.1445 -0.0394  0.2233
  801MOL0     H 8090  -1.277   6.265   4.044 -1.6169  1.9736  0.0361
  801MOL0     H 8091  -1.321   6.209   3.824  0.2880  0.7488  1.4747
  801MOL0     H 8092  -1.165   6.270   3.768  0.6627 -0.8571  1.0105
  801MOL0     H 8093  -1.369   6.392   3.697  1.6433 -2.4194  0.5002
  801MOL0     H 8094  -1.267   6.509   3.781 -4.7908  3.8632  0.7336
  801MOL0     H 8095  -1.548   6.532   3.672 -1.7726  0.9843 -0.6972
  801MOL0     H 8096  -1.736   6.596   3.529 -0.7985  2.5407 -0.3505
  801MOL0     H 8097  -1.895   6.548   3.568 -0.5781  2.0303 -0.7590
  801MOL0     H 8098  -1.829   6.689   3.634  0.1210 -0.6797 -0.5871
  801MOL0     H 8099  -2.164   6.472   4.124  0.3036  0.7811  0.3134
  801MOL0     H 8100  -2.416   6.499   4.154 -0.5333  0.2720 -0.1868
  801MOL0     H 8101  -2.734   6.410   3.859 -0.8266  2.3810  2.6091
  801MOL0     H 8102  -2.658   6.259   3.896 -0.8280 -0.9399  0.8343
  801MOL0     H 8103  -2.863   6.228   4.007 -1.5495  1.7793  0.1851
  801MOL0     H 8104  -2.759   6.286   4.139 -2.3227  2.1691  1.6998
  801MOL0     H 8105  -2.848   6.523   4.089  2.1782 -1.9114  3.8890
  801MOL0     H 8106  -2.951   6.414   4.172  1.0190 -2.4492 -0.3856
  801MOL0     H 8107  -2.956   6.446   3.858  0.2370 -1.4197 -0.1544
  801MOL0     H 8108  -3.070   6.353   3.954 -3.2531  2.0664 -0.7745
  801MOL0     H 8109  -3.020   6.659   3.965  0.4097  0.1466  0.0042
  801MOL0     H 8110  -3.120   6.575   4.084 -1.5808 -2.0199 -0.5289
  801MOL0     H 8111  -3.234   6.685   3.868 -4.5154  0.4553  0.1010
  801MOL0     H 8112  -3.178   6.524   3.799 -0.3169  0.7755 -0.0460
  801MOL0     H 8113  -3.382   6.546   4.024  1.9090 -0.2330  1.9561
  801MOL0     H 8114  -3.282   6.409   3.995 -0.6953 -1.5426 -2.4843
  801MOL0     H 8115  -3.516   6.399   3.888 -0.4261 -0.2935  0.1852
  801MOL0     H 8116  -3.399   6.379   3.765  0.0360  0.1043  0.2720
  801MOL0     H 8117  -2.487   6.334   3.766 -2.1215 -0.4662  1.7053
  801MOL0     H 8118  -2.225   6.304   3.740  0.5304 -1.3324  0.8257
  801MOL0     H 8119  -1.846   6.352   4.034 -0.1627  1.2505  1.4363
  801MOL0     H 8120  -1.592   6.379   4.067 -0.2402 -1.4447  0.1599
  801MOL0     H 8121   0.320   5.757   4.111  1.3231  0.7874  3.1857
  801MOL0     H 8122   0.560   5.801   4.053 -2.4887 -1.6480  1.4104
  801MOL0     H 8123   0.887   5.994   4.054 -0.6991 -0.0024 -1.1875
  801MOL0     H 8124   1.125   6.002   4.063 -0.5466 -2.7515 -1.7816
  801MOL0     H 8125   1.344   6.005   4.049  0.6233 -0.8057 -1.1947
  801MOL0     H 8126   1.468   6.108   3.976  1.5034 -0.0305  3.4347
  801MOL0     H 8127   1.259   6.178   4.187  0.4615  1.2979  1.7047
  801MOL0     H 8128   1.369   6.303   4.121  3.2833 -0.3177  0.8222
  801MOL0     H 8129   1.481   6.076   4.266  1.8781 -0.2539 -4.3765
  801MOL0     H 8130   1.402   6.220   4.349  1.5743  2.6970 -0.0277
  801MOL0     H 8131   1.640   6.260   4.335 -2.3878 -2.4613  0.5666
  801MOL0     H 8132   1.581   6.374   4.219 -0.7793  0.0913 -2.2165
  801MOL0     H 8133   1.807   6.180   3.950  0.5023  2.6177 -1.5324
  801MOL0     H 8134   1.120   6.308   3.766 -0.5738  1.3507  2.7221
  801MOL0     H 8135   0.884   6.287   3.736 -2.4305 -0.5723  2.0634
  802MOL0     O 8136   2.268   8.890   9.838  0.4693 -0.1679 -0.0067
  802MOL0     C 8137   2.248   8.846   9.722  0.2271 -0.4434 -0.1004
  802MOL0     O 8138   2.190   8.726   9.694 -0.3561  0.2094 -0.4051
  802MOL0     C 8139   2.137   8.657   9.805  0.1340 -0.4329 -0.1295
  802MOL0     C 8140   2.229   8.596   9.897  0.1091  0.4303  0.0414
  802MOL0     C 8141   2.179   8.546  10.018 -0.0396 -0.4891 -0.3147
  802MOL0     C 8142   2.041   8.565  10.057 -0.9273  0.6610  0.0765
  802MOL0     O 8143   1.996   8.533  10.183  0.8388  0.4347 -0.1089
  802MOL0     C 8144   2.076   8.436  10.257  0.2768  0.2517 -0.9075
  802MOL0     C 8145   2.019   8.395  10.397 -0.2755  0.4369  0.3156
  802MOL0     C 8146   1.887   8.315  10.387 -0.7236  0.3654 -0.7093
  802MOL0     C 8147   1.821   8.295  10.523  0.2970 -0.2518  0.4097
  802MOL0     C 8148   1.708   8.187  10.519  0.6713 -0.5097 -0.7384
  802MOL0     C 8149   1.619   8.180  10.388 -0.3439  0.1844 -0.4563
  802MOL0     C 8150   1.498   8.082  10.402  0.3577  0.1501 -0.4632
  802MOL0     C 8151   1.399   8.127  10.513 -0.5292  0.0581 -0.2648
  802MOL0     N 8152   1.277   8.045  10.508  0.1602  0.3590 -0.3773
  802MOL0     C 8153   1.164   8.084  10.575  0.4755  0.8011 -0.5391
  802MOL0     C 8154   1.083   7.974  10.558 -0.9866 -0.1501  0.3093
  802MOL0     C 8155   0.945   7.954  10.613 -0.8220 -0.4118 -0.1691
  802MOL0     C 8156   0.834   8.007  10.509 -0.3409  0.2245 -0.7293
  802MOL0     C 8157   0.700   7.931  10.535  0.0111  0.1575 -0.2480
  802MOL0     C 8158   0.597   7.953  10.421  0.1665  0.8283  0.1802
  802MOL0     O 8159   0.486   7.858  10.444 -0.1780 -0.3068 -0.6138
  802MOL0     C 8160   0.380   7.839  10.368  0.7687  0.7648  0.6790
  802MOL0     C 8161   0.282   7.746  10.409  0.8383  1.1917  0.3542
  802MOL0     C 8162   0.170   7.734  10.319  0.6231  0.7798  0.3120
  802MOL0     C 8163   0.050   7.656  10.371 -0.4408  0.0385 -0.1477
  802MOL0     C 8164   0.164   7.801  10.192 -0.2353  0.6236  0.9178
  802MOL0     C 8165   0.054   7.779  10.088 -1.1732 -0.0060  0.7253
  802MOL0     O 8166   0.041   7.878   9.990  0.1481 -0.4149 -0.3918
  802MOL0     C 8167  -0.056   7.869   9.897  0.6595  0.1196  0.3257
  802MOL0     C 8168  -0.026   7.918   9.772 -0.7764 -0.4645  0.1710
  802MOL0     C 8169  -0.109   7.910   9.669 -0.0655  0.4493 -0.0157
  802MOL0     C 8170  -0.231   7.842   9.681  0.7042 -0.2540  1.2090
  802MOL0     O 8171  -0.300   7.831   9.558  0.7293 -0.0468 -0.1395
  802MOL0     C 8172  -0.429   7.770   9.559 -0.1271  0.0787 -0.0544
  802MOL0     C 8173  -0.508   7.793   9.438 -0.7146 -0.3477  0.0071
  802MOL0     C 8174  -0.649   7.734   9.455 -0.6248  0.4292  0.4167
  802MOL0     C 8175  -0.735   7.744   9.328 -0.0811 -0.7573  0.3311
  802MOL0     C 8176  -0.844   7.638   9.332 -0.6415 -0.0958 -0.3915
  802MOL0     C 8177  -0.920   7.654   9.199  0.3917  0.5825 -0.7744
  802MOL0     C 8178  -1.060   7.578   9.203  0.3906  0.0237 -0.3416
  802MOL0     C 8179  -1.172   7.680   9.217  0.7363  1.0141  0.4642
  802MOL0    Cl 8180  -1.178   7.743   9.392  0.4951 -0.3007  0.4394
  802MOL0     C 8181  -0.272   7.806   9.807  0.3657  1.0500 -1.1294
  802MOL0     C 8182  -0.189   7.818   9.917  0.1192 -0.3479  0.2639
  802MOL0     O 8183  -0.013   7.678  10.083 -0.4610 -1.0372 -0.4558
  802MOL0     C 8184   0.274   7.879  10.159  0.3606 -0.1048 -0.4598
  802MOL0     C 8185   0.377   7.902  10.245 -0.4908 -0.5060 -0.3231
  802MOL0     N 8186   1.152   7.873  10.482  0.8391 -1.3983  0.1797
  802MOL0     N 8187   1.267   7.918  10.463  0.1264 -0.2164  0.4071
  802MOL0     C 8188   1.958   8.616   9.957  0.4579  0.3330 -0.2574
  802MOL0     C 8189   2.001   8.669   9.838 -0.4815  0.5286  0.0111
  802MOL0     C 8190   2.300   8.918   9.605  0.0299 -0.3107  0.1941
  802MOL0     C 8191   2.256   8.888   9.474  0.2570  0.2386 -0.0823
  802MOL0     C 8192   2.308   8.960   9.360 -0.0139 -0.7123  0.6337
  802MOL0     C 8193   2.368   9.080   9.389 -0.5185  0.1349  0.2151
  802MOL0     O 8194   2.382   9.172   9.287  0.5495  0.9530 -0.4593
  802MOL0     C 8195   2.511   9.196   9.238  0.2445 -0.3997  0.5142
  802MOL0     C 8196   2.582   9.075   9.190 -0.2556  0.4480 -0.6455
  802MOL0     C 8197   2.549   9.039   9.051  0.1057  0.3744 -0.2559
  802MOL0     C 8198   2.671   8.979   8.979  0.5567 -0.6670  0.4341
  802MOL0     C 8199   2.694   8.835   9.004 -0.7344 -0.8100 -0.6114
  802MOL0     C 8200   2.706   8.716   9.027 -0.5029  0.2277  0.5080
  802MOL0     C 8201   2.412   9.116   9.515 -0.0162 -0.2552 -0.3667
  802MOL0     C 8202   2.377   9.037   9.622 -0.3131  0.5404  0.6326
  802MOL0     H 8203   2.334   8.581   9.872  0.1030  0.0624  0.2274
  802MOL0     H 8204   2.260   8.505  10.077  1.4213 -1.9793 -3.1375
  802MOL0     H 8205   2.103   8.348  10.198  2.7000  0.7227 -0.5908
  802MOL0     H 8206   2.161   8.493  10.295 -0.3679  0.1532  0.7845
  802MOL0     H 8207   2.091   8.325  10.441 -2.2648 -1.9691  0.0228
  802MOL0     H 8208   1.991   8.482  10.456  1.0294  1.8480 -1.0530
  802MOL0     H 8209   1.819   8.367  10.319 -1.1148 -1.0348 -1.4272
  802MOL0     H 8210   1.911   8.223  10.332  2.2763  0.8878 -0.4484
  802MOL0     H 8211   1.899   8.285  10.598  0.6852  0.0918  0.0519
  802MOL0     H 8212   1.769   8.386  10.554 -1.2445 -1.0392  0.2396
  802MOL0     H 8213   1.752   8.087  10.525 -2.9354 -2.4576 -2.9018
  802MOL0     H 8214   1.651   8.205  10.610  2.7517  1.4957  0.2588
  802MOL0     H 8215   1.582   8.279  10.360 -1.7241 -0.5141 -1.1926
  802MOL0     H 8216   1.672   8.144  10.299  1.7623 -1.7140  1.4152
  802MOL0     H 8217   1.452   8.086  10.303  2.6724 -0.1691 -1.6250
  802MOL0     H 8218   1.538   7.981  10.417  0.7536  0.5774  1.7941
  802MOL0     H 8219   1.373   8.233  10.505 -2.6701 -0.4572 -0.9913
  802MOL0     H 8220   1.444   8.107  10.610 -1.8844 -0.5803  0.2612
  802MOL0     H 8221   1.158   8.170  10.641  0.1685  0.8118 -0.5820
  802MOL0     H 8222   0.934   7.847  10.635 -0.7162 -0.5391 -0.7436
  802MOL0     H 8223   0.940   8.013  10.706 -0.6121  0.4942 -0.7236
  802MOL0     H 8224   0.872   7.973  10.412  0.5603 -2.0401  0.3379
  802MOL0     H 8225   0.817   8.114  10.500  1.8065  0.4806 -3.0468
  802MOL0     H 8226   0.652   7.979  10.621 -1.0904 -0.5036 -0.4741
  802MOL0     H 8227   0.712   7.823  10.547 -0.4506  0.2761  1.4645
  802MOL0     H 8228   0.632   7.930  10.320 -1.3258  1.9011 -0.6226
  802MOL0     H 8229   0.563   8.057  10.419 -2.4169  0.0724 -2.7241
  802MOL0     H 8230   0.297   7.678  10.492 -0.0867  0.5325  0.0071
  802MOL0     H 8231   0.062   7.552  10.340  0.6589 -0.1010  0.6755
  802MOL0     H 8232   0.052   7.662  10.480  0.6252 -0.7511 -0.1084
  802MOL0     H 8233  -0.045   7.695  10.333  0.6499  2.0391 -0.9907
  802MOL0     H 8234   0.072   7.963   9.761 -0.6499 -0.7368  0.1474
  802MOL0     H 8235  -0.077   7.933   9.568  0.8135  2.7630  0.7206
  802MOL0     H 8236  -0.406   7.665   9.580  0.9264  0.5165  1.1124
  802MOL0     H 8237  -0.488   7.793   9.648  1.2521 -1.5528  1.3526
  802MOL0     H 8238  -0.513   7.901   9.421 -1.0024 -0.6518 -2.1449
  802MOL0     H 8239  -0.456   7.732   9.363  1.7216  1.5127  0.0522
  802MOL0     H 8240  -0.701   7.779   9.540 -3.3465 -2.2744  0.3527
  802MOL0     H 8241  -0.630   7.632   9.489  1.3552  0.3673 -0.6898
  802MOL0     H 8242  -0.782   7.842   9.321  0.4757 -0.4864  0.3365
  802MOL0     H 8243  -0.662   7.748   9.247  0.4314  0.0489  0.8214
  802MOL0     H 8244  -0.910   7.649   9.418 -2.2870 -1.2463 -1.4471
  802MOL0     H 8245  -0.793   7.541   9.337 -1.0525 -0.2823  0.1648
  802MOL0     H 8246  -0.940   7.761   9.188  1.0314  1.0869  2.2918
  802MOL0     H 8247  -0.853   7.620   9.119  0.6006 -1.3218  0.1733
  802MOL0     H 8248  -1.071   7.495   9.273 -2.8864  0.0631 -0.6562
  802MOL0     H 8249  -1.067   7.528   9.105  2.4425 -0.9184 -0.0594
  802MOL0     H 8250  -1.270   7.633   9.206  2.2542 -2.2108 -0.2951
  802MOL0     H 8251  -1.174   7.760   9.142 -2.3876 -0.2278 -0.9276
  802MOL0     H 8252  -0.373   7.772   9.829 -0.1266  1.6254 -2.4168
  802MOL0     H 8253  -0.230   7.794  10.015 -4.9617 -0.2182 -1.5260
  802MOL0     H 8254   0.266   7.927  10.061  3.6449 -0.3711 -0.9716
  802MOL0     H 8255   0.459   7.970  10.225 -1.5814  0.0047 -3.5860
  802MOL0     H 8256   1.852   8.590   9.958  1.2678 -4.4895 -3.4851
  802MOL0     H 8257   1.929   8.710   9.768 -1.6322  0.0155  0.8649
  802MOL0     H 8258   2.179   8.813   9.463  1.4220 -0.7341 -2.2298
  802MOL0     H 8259   2.275   8.931   9.261  0.3832  3.1714 -0.8245
  802MOL0     H 8260   2.491   9.268   9.157  1.4006 -0.8615 -0.2007
  802MOL0     H 8261   2.575   9.253   9.306  1.8807 -1.5036 -0.0332
  802MOL0     H 8262   2.568   8.985   9.250  2.1778  0.4024 -0.0367
  802MOL0     H 8263   2.690   9.089   9.203 -0.2398 -2.0402  4.4496
  802MOL0     H 8264   2.504   9.109   8.980  0.5576 -1.6456 -2.7020
  802MOL0     H 8265   2.470   8.965   9.068 -1.6748  1.9657 -1.1691
  802MOL0     H 8266   2.762   9.038   9.000 -1.3132  3.0857 -1.0423
  802MOL0     H 8267   2.660   8.988   8.871  0.5742  2.2026  0.5796
  802MOL0     H 8268   2.722   8.612   9.047  0.6443  0.4329  0.7089
  802MOL0     H 8269   2.473   9.203   9.534 -0.4692 -0.0883  0.3432
  802MOL0     H 8270   2.411   9.072   9.719 -0.6776  0.5782  0.7480
  803MOL0     O 8271   1.850   0.887   1.107 -0.1423  0.6632 -0.0176
  803MOL0     C 8272   1.867   1.010   1.086  0.1556 -0.3545 -0.4098
  803MOL0     O 8273   1.761   1.096   1.067  0.1482 -0.1951  0.4239
  803MOL0     C 8274   1.632   1.051   1.089 -0.1163  0.2598  0.8691
  803MOL0     C 8275   1.545   1.046   0.974 -0.3904 -0.0427 -0.1769
  803MOL0     C 8276   1.414   0.995   0.988 -0.7070 -0.7865 -0.7619
  803MOL0     C 8277   1.361   0.974   1.121  0.0692 -0.0859  0.4229
  803MOL0     O 8278   1.232   0.957   1.149  0.0979  0.3133  0.0053
  803MOL0     C 8279   1.159   0.869   1.060 -0.1480 -0.0358 -0.0819
  803MOL0     C 8280   1.014   0.868   1.115  0.9961  0.4122 -0.3580
  803MOL0     C 8281   0.907   0.804   1.010 -0.3790 -0.2781 -0.1496
  803MOL0     C 8282   0.788   0.735   1.074 -0.4585  0.4497  0.0678
  803MOL0     C 8283   0.675   0.694   0.978  0.7867  0.0065  0.3980
  803MOL0     C 8284   0.583   0.804   0.925  0.3117  0.6886  0.0470
  803MOL0     C 8285   0.533   0.885   1.041  0.1693  0.1512  0.6560
  803MOL0     C 8286   0.405   0.961   1.000  0.1326  0.3248  0.1287
  803MOL0     N 8287   0.274   0.900   1.029 -1.1197  0.1554  0.1996
  803MOL0     C 8288   0.187   0.932   1.122  0.6886  0.2539 -0.8298
  803MOL0     C 8289   0.062   0.908   1.076  0.2148  0.5083  0.0113
  803MOL0     C 8290  -0.075   0.945   1.131 -0.1526  0.1659 -0.2511
  803MOL0     C 8291  -0.182   0.838   1.117 -0.3404 -0.1578  0.0568
  803MOL0     C 8292  -0.310   0.881   1.185  0.1075  0.0541  0.0546
  803MOL0     C 8293  -0.377   0.988   1.112  0.7114 -0.7654  0.3062
  803MOL0     O 8294  -0.497   1.021   1.195  0.4302 -0.1401  0.0698
  803MOL0     C 8295  -0.598   1.100   1.129 -0.0895  0.1556  0.5274
  803MOL0     C 8296  -0.581   1.167   0.998  0.2726 -0.4086 -0.6003
  803MOL0     C 8297  -0.686   1.229   0.928 -0.3621 -0.3553  0.0498
  803MOL0     C 8298  -0.643   1.301   0.804 -0.6127 -0.2140 -0.2278
  803MOL0     C 8299  -0.819   1.220   0.976  0.6867 -0.2522 -0.1715
  803MOL0     C 8300  -0.934   1.286   0.900 -0.0732  0.1625 -0.1596
  803MOL0     O 8301  -1.050   1.270   0.966 -0.7434  0.4015 -0.5542
  803MOL0     C 8302  -1.170   1.327   0.935  0.9121 -0.0324  0.1930
  803MOL0     C 8303  -1.210   1.396   0.815  0.2638 -0.4340 -0.3518
  803MOL0     C 8304  -1.336   1.461   0.806 -0.0981  1.2318 -0.2619
  803MOL0     C 8305  -1.421   1.466   0.920  0.4225  0.3769  0.1090
  803MOL0     O 8306  -1.539   1.533   0.916  0.3864 -0.7377  0.4339
  803MOL0     C 8307  -1.540   1.655   0.836  0.3951  0.0538 -0.0228
  803MOL0     C 8308  -1.649   1.738   0.889  0.1599  0.2136 -0.2470
  803MOL0     C 8309  -1.793   1.708   0.851 -0.1322  0.4371 -0.1605
  803MOL0     C 8310  -1.836   1.732   0.708  0.0423 -0.1092  0.4808
  803MOL0     C 8311  -1.990   1.722   0.697 -0.1178 -0.6676 -0.6969
  803MOL0     C 8312  -2.043   1.579   0.706 -0.4433 -0.0621 -0.5354
  803MOL0     C 8313  -2.191   1.574   0.661 -0.7411 -0.3189 -0.6234
  803MOL0     C 8314  -2.213   1.455   0.569  0.9314 -0.2555  0.0086
  803MOL0    Cl 8315  -2.161   1.305   0.645  0.6473  0.3386  0.6420
  803MOL0     C 8316  -1.394   1.384   1.031 -0.2919 -0.7401  0.3850
  803MOL0     C 8317  -1.272   1.309   1.035  0.1620 -0.0632 -0.0159
  803MOL0     O 8318  -0.917   1.345   0.792  0.0511 -0.1954  0.0663
  803MOL0     C 8319  -0.839   1.162   1.106 -0.1590  0.3054 -0.3716
  803MOL0     C 8320  -0.727   1.109   1.180  0.1290 -0.9274  0.3334
  803MOL0     N 8321   0.078   0.860   0.948 -0.2949 -0.4715  0.2600
  803MOL0     N 8322   0.202   0.847   0.921  0.5296  0.5522  0.5095
  803MOL0     C 8323   1.446   0.981   1.240  0.7636  0.2890  0.0497
  803MOL0     C 8324   1.583   1.014   1.217  0.8790  0.3540 -0.1950
  803MOL0     C 8325   2.003   1.058   1.078  0.5348  0.1329  0.2197
  803MOL0     C 8326   2.117   0.982   1.109  0.0337  0.0611  0.0426
  803MOL0     C 8327   2.250   1.029   1.090  0.0472  0.2602 -0.3591
  803MOL0     C 8328   2.269   1.156   1.043 -0.5617 -0.1805 -0.2435
  803MOL0     O 8329   2.388   1.219   1.017 -0.0331  0.1285 -0.5961
  803MOL0     C 8330   2.504   1.127   1.008 -0.3971  0.4799  0.0698
  803MOL0     C 8331   2.619   1.202   0.949 -0.0579  0.3055 -0.1380
  803MOL0     C 8332   2.585   1.271   0.808 -0.4824 -0.9388 -0.4920
  803MOL0     C 8333   2.692   1.373   0.768  0.9250 -0.0186  0.0185
  803MOL0     C 8334   2.823   1.302   0.763  0.0597 -0.1228 -0.9332
  803MOL0     C 8335   2.920   1.234   0.755  0.1758  0.0519 -0.2208
  803MOL0     C 8336   2.160   1.233   1.014 -0.0687  0.4219 -0.3992
  803MOL0     C 8337   2.025   1.185   1.031  0.0921 -0.1515  0.0570
  803MOL0     H 8338   1.590   1.077   0.880  1.8616 -0.4013  0.7294
  803MOL0     H 8339   1.349   1.003   0.901 -0.6026  2.6147 -0.6554
  803MOL0     H 8340   1.151   0.903   0.957 -0.8198 -0.5520 -0.2081
  803MOL0     H 8341   1.207   0.771   1.050  0.0487  0.1131 -0.6438
  803MOL0     H 8342   1.016   0.815   1.211  2.2711  0.9247 -0.0910
  803MOL0     H 8343   0.975   0.967   1.140 -3.8060 -0.9903 -1.1498
  803MOL0     H 8344   0.879   0.893   0.954  0.1021  0.3676  0.6228
  803MOL0     H 8345   0.962   0.739   0.941  0.4833  0.9834 -0.6726
  803MOL0     H 8346   0.832   0.646   1.121 -0.8139 -0.2656 -0.9114
  803MOL0     H 8347   0.751   0.791   1.160 -0.9195  0.9387 -0.4426
  803MOL0     H 8348   0.710   0.629   0.897 -3.6614 -2.3590  0.0425
  803MOL0     H 8349   0.610   0.628   1.036 -0.7535  0.7463 -0.4181
  803MOL0     H 8350   0.624   0.869   0.848  1.3271  0.4721  0.3973
  803MOL0     H 8351   0.501   0.745   0.883  0.3277 -0.3054  1.3211
  803MOL0     H 8352   0.503   0.827   1.129 -0.0128  1.8102  1.7188
  803MOL0     H 8353   0.610   0.954   1.075  0.1719 -0.4628  1.9341
  803MOL0     H 8354   0.422   0.980   0.894 -1.2179  1.8323  0.1209
  803MOL0     H 8355   0.407   1.056   1.054  0.9276 -0.5419  1.6758
  803MOL0     H 8356   0.204   0.992   1.211 -0.3995  2.5049 -2.0545
  803MOL0     H 8357  -0.063   0.956   1.239  0.6567 -0.2354 -0.2936
  803MOL0     H 8358  -0.101   1.044   1.091 -0.5285  0.3967  0.5391
  803MOL0     H 8359  -0.145   0.742   1.153 -0.7186 -0.2828  0.1125
  803MOL0     H 8360  -0.208   0.829   1.011 -1.4217  1.1972  0.1773
  803MOL0     H 8361  -0.290   0.909   1.289  1.3509  0.0928 -0.1869
  803MOL0     H 8362  -0.369   0.789   1.194  1.2013 -0.5976  0.7557
  803MOL0     H 8363  -0.411   0.952   1.015 -3.0316  1.9341  0.3982
  803MOL0     H 8364  -0.304   1.069   1.098 -1.1575  1.1256  0.9703
  803MOL0     H 8365  -0.482   1.180   0.954  0.7292 -1.5328  0.0485
  803MOL0     H 8366  -0.704   1.274   0.717 -1.2389  2.5057 -0.7219
  803MOL0     H 8367  -0.645   1.409   0.819 -0.2489 -0.1315 -0.7295
  803MOL0     H 8368  -0.538   1.283   0.780  0.2254 -1.2588  3.5771
  803MOL0     H 8369  -1.148   1.415   0.729  3.7528  1.7883  2.3792
  803MOL0     H 8370  -1.357   1.515   0.714  0.9433 -1.7176 -2.3627
  803MOL0     H 8371  -1.440   1.696   0.851 -0.5045  2.2457  0.2517
  803MOL0     H 8372  -1.562   1.633   0.731  1.0396  2.2926 -0.6837
  803MOL0     H 8373  -1.640   1.729   0.998 -2.4068  2.7529  0.2832
  803MOL0     H 8374  -1.629   1.843   0.865  0.6940  0.5216  1.3678
  803MOL0     H 8375  -1.841   1.776   0.922 -0.2134  0.0784  0.1288
  803MOL0     H 8376  -1.817   1.605   0.880  0.4854  0.4376  0.3710
  803MOL0     H 8377  -1.815   1.837   0.687 -1.3517 -0.1075 -1.1364
  803MOL0     H 8378  -1.783   1.673   0.633 -1.5444  0.1762 -0.9216
  803MOL0     H 8379  -2.027   1.771   0.606 -2.3653 -0.3112  0.3344
  803MOL0     H 8380  -2.022   1.765   0.792  1.5970  1.4249 -0.9888
  803MOL0     H 8381  -1.982   1.515   0.642 -1.0455 -1.0620 -0.1271
  803MOL0     H 8382  -2.029   1.550   0.811  0.3585 -0.7493 -0.8190
  803MOL0     H 8383  -2.211   1.668   0.611  0.5927  1.3615  1.7548
  803MOL0     H 8384  -2.258   1.570   0.748  0.8231  0.0065  0.6616
  803MOL0     H 8385  -2.166   1.450   0.470 -1.5718  3.3266 -1.5763
  803MOL0     H 8386  -2.318   1.456   0.540  1.2995 -1.0692 -1.4584
  803MOL0     H 8387  -1.467   1.374   1.110 -2.5087  0.7862 -1.3624
  803MOL0     H 8388  -1.247   1.241   1.116  0.6028 -0.1110 -0.1928
  803MOL0     H 8389  -0.939   1.156   1.146  0.3195  1.2273  1.0149
  803MOL0     H 8390  -0.743   1.058   1.275  0.9367  1.2405  1.6893
  803MOL0     H 8391   1.395   0.946   1.329 -0.5339 -0.6175 -1.0006
  803MOL0     H 8392   1.654   1.025   1.298  1.7435 -0.2918 -0.8484
  803MOL0     H 8393   2.111   0.898   1.178 -1.1366  1.8477  2.2207
  803MOL0     H 8394   2.333   0.968   1.125 -1.5930 -1.4059  0.8194
  803MOL0     H 8395   2.526   1.093   1.109 -1.1527  0.8323  0.3579
  803MOL0     H 8396   2.491   1.040   0.943  1.8702 -1.5992  2.2056
  803MOL0     H 8397   2.699   1.131   0.929 -0.0736 -0.0644  1.0213
  803MOL0     H 8398   2.662   1.275   1.018 -0.3019 -1.3470  1.8476
  803MOL0     H 8399   2.493   1.329   0.825 -0.5394 -0.8839 -0.9624
  803MOL0     H 8400   2.568   1.188   0.739 -1.4703 -0.0587 -1.3677
  803MOL0     H 8401   2.687   1.448   0.847 -3.5338  2.3863 -2.1342
  803MOL0     H 8402   2.682   1.434   0.677  0.6692  2.4418  1.5962
  803MOL0     H 8403   2.998   1.161   0.759 -0.0691 -0.2266 -0.5196
  803MOL0     H 8404   2.167   1.334   0.974 -0.8754  0.5348 -0.2719
  803MOL0     H 8405   1.951   1.259   1.002  0.1260 -0.5205 -0.9756
  804MOL0     O 8406   2.269   3.197   3.622 -0.6016  0.2677 -0.1002
  804MOL0     C 8407   2.307   3.129   3.716 -0.4546  0.1312 -0.2151
  804MOL0     O 8408   2.229   3.031   3.773 -0.0645  0.4386 -0.1243
  804MOL0     C 8409   2.124   2.984   3.702 -0.8130 -0.9240 -0.8558
  804MOL0     C 8410   2.159   2.900   3.593  0.2335 -0.9870 -0.3792
  804MOL0     C 8411   2.056   2.847   3.521  0.1051  0.1575  0.2167
  804MOL0     C 8412   1.919   2.881   3.542 -0.5817 -0.2085  0.7552
  804MOL0     O 8413   1.827   2.817   3.465  0.0228 -0.2393 -0.0475
  804MOL0     C 8414   1.690   2.856   3.484 -0.2041 -0.8298  0.0751
  804MOL0     C 8415   1.605   2.768   3.393  0.2840 -0.4813 -0.2427
  804MOL0     C 8416   1.460   2.808   3.402  0.0937  0.7097 -0.1528
  804MOL0     C 8417   1.379   2.691   3.333  0.4154 -0.7974 -0.3285
  804MOL0     C 8418   1.228   2.684   3.366 -0.2320 -0.3260  0.1024
  804MOL0     C 8419   1.133   2.795   3.329  0.4980  0.2070 -0.0254
  804MOL0     C 8420   0.988   2.750   3.386 -1.0446 -0.3296  0.5974
  804MOL0     C 8421   0.880   2.864   3.363  0.2009  0.5447 -0.4153
  804MOL0     N 8422   0.759   2.815   3.432  0.0392 -0.4667 -0.8026
  804MOL0     C 8423   0.663   2.725   3.383  1.0867 -0.7817  0.4618
  804MOL0     C 8424   0.557   2.739   3.471 -0.4782 -0.5073  0.8185
  804MOL0     C 8425   0.445   2.644   3.475  0.4138  0.1355  0.1638
  804MOL0     C 8426   0.324   2.666   3.393 -0.6896 -0.6960 -0.3404
  804MOL0     C 8427   0.248   2.782   3.440 -0.1520 -1.0308 -0.8418
  804MOL0     C 8428   0.149   2.820   3.334  0.0966  0.2721 -0.0534
  804MOL0     O 8429   0.214   2.869   3.218 -0.5259 -0.0903  0.3825
  804MOL0     C 8430   0.136   2.887   3.103 -0.4584 -0.9086 -0.2120
  804MOL0     C 8431   0.195   2.905   2.976  0.0106  0.1943 -0.4775
  804MOL0     C 8432   0.117   2.935   2.867 -0.4435  0.9308  0.1325
  804MOL0     C 8433   0.195   2.937   2.742 -0.5924 -0.2645  0.1797
  804MOL0     C 8434  -0.018   2.946   2.880  0.2646 -0.5581 -0.0737
  804MOL0     C 8435  -0.119   2.967   2.768 -0.0441 -0.2554  0.0347
  804MOL0     O 8436  -0.238   2.905   2.789  0.3948  0.4946 -0.5613
  804MOL0     C 8437  -0.333   2.901   2.691 -0.0344 -0.3726  0.2987
  804MOL0     C 8438  -0.310   2.898   2.551  0.1003 -1.4358 -0.2493
  804MOL0     C 8439  -0.417   2.886   2.461  0.5096  0.1970 -1.5880
  804MOL0     C 8440  -0.548   2.891   2.507 -0.4546  0.8567  0.7399
  804MOL0     O 8441  -0.658   2.879   2.419 -0.8177 -0.0410 -0.3948
  804MOL0     C 8442  -0.650   2.913   2.287  0.2424  1.0071 -0.2831
  804MOL0     C 8443  -0.621   3.058   2.266 -1.2398 -0.9725  0.1952
  804MOL0     C 8444  -0.726   3.167   2.328 -0.3270 -1.0111  0.6907
  804MOL0     C 8445  -0.752   3.170   2.480  0.0546  0.6536 -0.1944
  804MOL0     C 8446  -0.891   3.232   2.502 -0.5960 -0.5583  0.0396
  804MOL0     C 8447  -0.948   3.233   2.647  0.6544  0.0054 -1.1932
  804MOL0     C 8448  -0.999   3.094   2.693  0.0956 -0.8200 -0.1816
  804MOL0     C 8449  -1.044   3.103   2.841 -0.4788  0.4164  0.1270
  804MOL0    Cl 8450  -1.203   3.168   2.874  0.4389  0.3231  0.1830
  804MOL0     C 8451  -0.573   2.897   2.647 -0.8070  0.2990 -0.0135
  804MOL0     C 8452  -0.464   2.898   2.740  1.2640 -0.1636  0.2418
  804MOL0     O 8453  -0.082   3.028   2.668  0.4968 -0.0536 -0.5044
  804MOL0     C 8454  -0.074   2.931   3.008  0.7711 -0.3171 -0.4657
  804MOL0     C 8455  -0.002   2.904   3.114  0.2192  0.2183  0.2763
  804MOL0     N 8456   0.594   2.833   3.568 -0.3872 -0.1850  0.5475
  804MOL0     N 8457   0.705   2.879   3.538  0.7357  0.1783  0.5510
  804MOL0     C 8458   1.895   2.974   3.641  0.4777  0.4716 -0.0589
  804MOL0     C 8459   1.988   3.024   3.719  0.1716 -0.1918 -0.3679
  804MOL0     C 8460   2.437   3.162   3.782 -0.6053  0.1363  0.2239
  804MOL0     C 8461   2.496   3.296   3.785 -0.9476  0.1220 -0.3608
  804MOL0     C 8462   2.608   3.320   3.861  0.0280  0.2714  0.6940
  804MOL0     C 8463   2.675   3.218   3.928  0.0251  0.4166  0.0049
  804MOL0     O 8464   2.795   3.233   4.002  0.1921 -0.3058 -0.7090
  804MOL0     C 8465   2.852   3.364   4.026 -0.1229 -0.1019  0.9038
  804MOL0     C 8466   2.957   3.349   4.129  0.1569  0.7692 -0.2905
  804MOL0     C 8467   3.029   3.487   4.150  0.5417  0.5342  0.3856
  804MOL0     C 8468   3.140   3.481   4.251 -0.0951  0.4593  0.8029
  804MOL0     C 8469   3.098   3.555   4.366 -0.4185  0.1979  0.2153
  804MOL0     C 8470   3.090   3.609   4.474  0.5551  0.6505 -0.8666
  804MOL0     C 8471   2.624   3.087   3.918 -0.2982 -0.9152 -0.4181
  804MOL0     C 8472   2.503   3.066   3.855  0.0544 -0.1061 -0.3886
  804MOL0     H 8473   2.261   2.882   3.561  0.6914  2.3152 -1.1389
  804MOL0     H 8474   2.079   2.776   3.443 -0.1501  0.7976 -0.4596
  804MOL0     H 8475   1.664   2.838   3.588 -2.6971 -1.0937 -0.5377
  804MOL0     H 8476   1.672   2.961   3.457  2.0704  0.1983  2.1779
  804MOL0     H 8477   1.638   2.775   3.289  0.4966 -1.3539 -0.2424
  804MOL0     H 8478   1.616   2.665   3.427  1.6435 -0.3226 -0.1698
  804MOL0     H 8479   1.411   2.823   3.499 -2.2346  2.2195 -1.4806
  804MOL0     H 8480   1.446   2.904   3.352  0.6598  1.8449  1.7780
  804MOL0     H 8481   1.385   2.699   3.224 -1.6238 -3.5049 -0.7451
  804MOL0     H 8482   1.421   2.594   3.362 -0.0065 -0.9378 -0.1793
  804MOL0     H 8483   1.196   2.600   3.303  0.0436  0.8557 -1.7019
  804MOL0     H 8484   1.221   2.658   3.472 -2.9123  1.4889  0.4928
  804MOL0     H 8485   1.171   2.884   3.380  3.2294 -1.8015  1.7664
  804MOL0     H 8486   1.131   2.805   3.220 -0.4480 -2.1146 -0.2718
  804MOL0     H 8487   0.951   2.659   3.337  0.4567 -2.1142  2.6012
  804MOL0     H 8488   0.996   2.732   3.493 -1.0147  2.3361  1.1086
  804MOL0     H 8489   0.859   2.878   3.257 -1.2294  1.5224 -0.0413
  804MOL0     H 8490   0.923   2.959   3.394  0.9621 -0.1053  0.5680
  804MOL0     H 8491   0.658   2.673   3.289  1.7969  0.5602 -0.3460
  804MOL0     H 8492   0.485   2.542   3.465  0.6432  0.1752  0.6431
  804MOL0     H 8493   0.417   2.635   3.580 -1.4458 -2.9674 -0.4450
  804MOL0     H 8494   0.251   2.585   3.394 -2.0817  0.2455 -4.4314
  804MOL0     H 8495   0.355   2.675   3.288 -1.1783 -1.3244 -0.5443
  804MOL0     H 8496   0.319   2.864   3.444 -0.5238 -0.7299 -0.3819
  804MOL0     H 8497   0.200   2.768   3.537  3.3433 -1.2269  1.0111
  804MOL0     H 8498   0.082   2.897   3.373 -1.4744 -1.0606 -0.0101
  804MOL0     H 8499   0.090   2.732   3.306  1.9483 -1.2470  0.6359
  804MOL0     H 8500   0.302   2.889   2.973  0.1184  0.2620  1.6515
  804MOL0     H 8501   0.304   2.930   2.754 -0.4381  1.4225  0.0433
  804MOL0     H 8502   0.152   2.859   2.679 -2.5075  0.0087  1.0964
  804MOL0     H 8503   0.168   3.027   2.685  0.5113  0.5412  0.8727
  804MOL0     H 8504  -0.209   2.901   2.511  1.4257  0.5241  2.8670
  804MOL0     H 8505  -0.405   2.870   2.354 -0.8017  2.3621 -2.1212
  804MOL0     H 8506  -0.575   2.858   2.230 -0.2419  0.6029 -0.5380
  804MOL0     H 8507  -0.745   2.890   2.237 -1.0793  0.6279  2.2167
  804MOL0     H 8508  -0.522   3.076   2.310 -0.4829 -2.4651 -0.8075
  804MOL0     H 8509  -0.609   3.073   2.159 -1.6328  3.3439  0.5834
  804MOL0     H 8510  -0.819   3.153   2.272 -0.1151 -2.1191  0.5970
  804MOL0     H 8511  -0.692   3.269   2.306  0.5311 -1.4824 -0.2671
  804MOL0     H 8512  -0.770   3.067   2.511  2.5495  0.3140  0.3944
  804MOL0     H 8513  -0.673   3.207   2.546  3.0545  0.8883 -3.5715
  804MOL0     H 8514  -0.959   3.182   2.432 -0.9376 -0.4164  0.2646
  804MOL0     H 8515  -0.880   3.338   2.476  2.8887  0.3575  4.1644
  804MOL0     H 8516  -0.870   3.270   2.714  0.7535  0.2254 -1.4275
  804MOL0     H 8517  -1.034   3.299   2.659  0.2505 -0.9065  1.7189
  804MOL0     H 8518  -0.919   3.022   2.676 -0.6576 -1.5625 -0.7212
  804MOL0     H 8519  -1.086   3.060   2.635 -1.5218  2.0185  0.4333
  804MOL0     H 8520  -0.971   3.156   2.903  1.9920 -0.8478 -1.5110
  804MOL0     H 8521  -1.044   3.000   2.878 -1.0065  0.2362 -0.3685
  804MOL0     H 8522  -0.673   2.916   2.684 -0.9259  2.6159 -1.3330
  804MOL0     H 8523  -0.476   2.897   2.848 -0.2477 -0.8791  0.0931
  804MOL0     H 8524  -0.180   2.940   3.029  1.3199  4.5504  1.3720
  804MOL0     H 8525  -0.044   2.892   3.214  0.5556 -2.0758  0.1990
  804MOL0     H 8526   1.796   3.017   3.660  0.2991  1.2762 -2.4202
  804MOL0     H 8527   1.950   3.098   3.789  0.0441 -0.4598 -0.1531
  804MOL0     H 8528   2.452   3.376   3.726  0.8334  2.3913  1.2213
  804MOL0     H 8529   2.652   3.419   3.849 -0.2873  0.1891 -1.6353
  804MOL0     H 8530   2.901   3.405   3.938 -1.0386  1.1270  0.9416
  804MOL0     H 8531   2.777   3.442   4.045  0.3001  0.3252  0.8353
  804MOL0     H 8532   3.032   3.278   4.092 -0.9251 -0.0342 -0.9763
  804MOL0     H 8533   2.914   3.323   4.226 -0.3620  2.0302 -0.1647
  804MOL0     H 8534   2.959   3.568   4.172 -0.5160  0.0078 -0.8292
  804MOL0     H 8535   3.084   3.521   4.062  1.1331  3.0594  1.6537
  804MOL0     H 8536   3.225   3.531   4.204 -0.9318 -0.7097 -2.1487
  804MOL0     H 8537   3.172   3.383   4.288  2.4650 -0.0585 -2.3518
  804MOL0     H 8538   3.097   3.661   4.568  0.8818  1.2557 -1.2165
  804MOL0     H 8539   2.674   3.014   3.980  0.5337 -0.3856 -0.4488
  804MOL0     H 8540   2.459   2.968   3.872  2.5370 -1.9145 -3.2927
  805MOL0     O 8541   7.400   9.263   3.570 -0.7270 -0.6680 -0.1257
  805MOL0     C 8542   7.453   9.240   3.677 -0.1606 -0.0009  0.3758
  805MOL0     O 8543   7.384   9.229   3.803 -0.4710 -0.4975 -0.3890
  805MOL0     C 8544   7.250   9.221   3.787 -0.1303  0.4122 -0.1184
  805MOL0     C 8545   7.193   9.099   3.742 -1.1167 -1.0659 -0.1985
  805MOL0     C 8546   7.059   9.095   3.719  0.2986  0.3433  0.2117
  805MOL0     C 8547   6.971   9.202   3.738 -0.3437  0.3929  0.3899
  805MOL0     O 8548   6.844   9.182   3.694 -0.5273  0.5769  0.1597
  805MOL0     C 8549   6.802   9.290   3.608  0.1282  0.0776  0.1352
  805MOL0     C 8550   6.735   9.246   3.480 -0.2424  0.5376  0.5455
  805MOL0     C 8551   6.637   9.346   3.429  0.4549  0.0814  0.1366
  805MOL0     C 8552   6.576   9.298   3.296 -0.2247 -0.2656 -0.1644
  805MOL0     C 8553   6.507   9.410   3.221  0.6953  0.2205  0.0363
  805MOL0     C 8554   6.388   9.357   3.136 -0.4463  0.3433 -0.2452
  805MOL0     C 8555   6.412   9.247   3.037 -0.1925  0.8070 -0.8320
  805MOL0     C 8556   6.487   9.301   2.918 -0.3816 -0.2314  0.8879
  805MOL0     N 8557   6.407   9.392   2.834  0.4402  0.0761 -0.8390
  805MOL0     C 8558   6.296   9.350   2.767 -0.5060  0.4028 -0.3415
  805MOL0     C 8559   6.269   9.451   2.682  0.6420 -0.0912 -0.2404
  805MOL0     C 8560   6.145   9.453   2.583  0.7402  0.3320  0.0080
  805MOL0     C 8561   6.150   9.347   2.469  0.1510  0.2898  0.7564
  805MOL0     C 8562   6.032   9.358   2.364  0.3680 -0.0552 -0.0109
  805MOL0     C 8563   5.992   9.497   2.318 -0.0531 -0.4435 -0.6504
  805MOL0     O 8564   5.888   9.500   2.222 -0.3143 -0.4636  0.3437
  805MOL0     C 8565   5.775   9.425   2.250  0.0543 -0.3611  0.5516
  805MOL0     C 8566   5.759   9.305   2.191 -0.4844 -0.1717 -0.4446
  805MOL0     C 8567   5.630   9.232   2.202  0.0919 -0.3270  0.7210
  805MOL0     C 8568   5.624   9.094   2.145 -1.2632  0.0670  0.2982
  805MOL0     C 8569   5.524   9.291   2.278  0.3064  0.9425 -0.0103
  805MOL0     C 8570   5.390   9.226   2.284  0.4517  0.1547 -0.4138
  805MOL0     O 8571   5.355   9.142   2.179 -0.4144 -0.5041  0.2526
  805MOL0     C 8572   5.226   9.105   2.166  0.0146  0.7894 -0.0049
  805MOL0     C 8573   5.182   8.978   2.209 -0.4201  0.4460  0.4671
  805MOL0     C 8574   5.047   8.941   2.189  0.5760  0.1730 -0.9962
  805MOL0     C 8575   4.944   9.029   2.135 -0.7832  0.3278  0.1341
  805MOL0     O 8576   4.815   8.981   2.119  0.1002  0.0893  0.3877
  805MOL0     C 8577   4.713   9.070   2.060 -0.3826  0.4151  0.5125
  805MOL0     C 8578   4.591   8.982   2.032  0.3443  0.3543  0.0869
  805MOL0     C 8579   4.482   9.059   1.956  0.5536 -0.8045 -0.3844
  805MOL0     C 8580   4.384   8.954   1.901 -0.7975  0.5020 -0.4528
  805MOL0     C 8581   4.249   9.003   1.844  0.6867  0.5584 -0.7794
  805MOL0     C 8582   4.173   8.884   1.785  0.1955  0.3115  0.6640
  805MOL0     C 8583   4.035   8.929   1.716  0.2015 -0.2931  0.2685
  805MOL0     C 8584   3.936   8.952   1.825  0.4906  0.2558  0.0298
  805MOL0    Cl 8585   3.771   9.001   1.748 -0.9271  0.2680 -0.4667
  805MOL0     C 8586   4.998   9.154   2.089  0.7335  0.4848  0.2042
  805MOL0     C 8587   5.129   9.195   2.113  0.3683  0.2122 -0.6107
  805MOL0     O 8588   5.316   9.261   2.377  0.0632 -0.3710  0.5883
  805MOL0     C 8589   5.549   9.416   2.334 -0.6923  1.2220  0.7829
  805MOL0     C 8590   5.676   9.483   2.327 -0.1504  0.6294  0.1045
  805MOL0     N 8591   6.354   9.558   2.708 -0.1822 -0.4114  0.5632
  805MOL0     N 8592   6.436   9.516   2.795 -0.0920 -0.2756  0.2321
  805MOL0     C 8593   7.023   9.326   3.794  0.3211  0.0908 -0.6730
  805MOL0     C 8594   7.165   9.335   3.815  0.8955 -0.0428 -0.2050
  805MOL0     C 8595   7.599   9.238   3.663  0.1351 -0.9358  0.2838
  805MOL0     C 8596   7.676   9.258   3.775  0.4846  0.1785  0.2380
  805MOL0     C 8597   7.812   9.276   3.763 -0.1383  0.6933  0.3870
  805MOL0     C 8598   7.884   9.254   3.642 -0.8548  0.0433 -0.5321
  805MOL0     O 8599   8.022   9.286   3.618  0.4755 -0.9825  0.3188
  805MOL0     C 8600   8.120   9.237   3.705  0.7670 -0.4742 -0.3329
  805MOL0     C 8601   8.250   9.318   3.673  0.1595  0.4920 -0.7290
  805MOL0     C 8602   8.236   9.464   3.708  0.0122 -0.2062 -0.1739
  805MOL0     C 8603   8.256   9.506   3.852 -0.1123  0.1029  0.4953
  805MOL0     C 8604   8.122   9.507   3.915  0.1789  0.8076  0.0879
  805MOL0     C 8605   8.023   9.503   3.977  0.1428  0.4999  0.1647
  805MOL0     C 8606   7.805   9.228   3.534 -0.5317  0.0911 -0.1853
  805MOL0     C 8607   7.665   9.218   3.540 -0.2019  0.7814  0.3905
  805MOL0     H 8608   7.254   9.010   3.730  0.5235 -0.4041  2.2653
  805MOL0     H 8609   7.023   9.000   3.681 -0.5267  0.4918  0.6100
  805MOL0     H 8610   6.735   9.349   3.671  0.1435 -0.4377  0.6439
  805MOL0     H 8611   6.878   9.363   3.578 -1.6548  2.0696  0.2417
  805MOL0     H 8612   6.806   9.238   3.397  1.1181  0.9578  1.6316
  805MOL0     H 8613   6.688   9.149   3.493  0.0850 -0.0127 -1.8211
  805MOL0     H 8614   6.557   9.359   3.501 -1.8079  2.3368 -2.5642
  805MOL0     H 8615   6.684   9.445   3.425 -1.1745  0.8682 -0.2372
  805MOL0     H 8616   6.648   9.246   3.232  0.1125  1.1382 -0.9650
  805MOL0     H 8617   6.508   9.213   3.308  0.9823 -1.6465 -2.4545
  805MOL0     H 8618   6.479   9.490   3.289  1.3060  1.3868 -1.0322
  805MOL0     H 8619   6.580   9.458   3.156  0.9385  0.3351  0.3926
  805MOL0     H 8620   6.318   9.322   3.213  1.9644  1.6728  2.7311
  805MOL0     H 8621   6.333   9.443   3.097  1.4079  1.5875 -0.2451
  805MOL0     H 8622   6.469   9.166   3.085 -1.4860  1.0815  1.3292
  805MOL0     H 8623   6.316   9.214   2.996 -1.3236 -0.6396  2.6037
  805MOL0     H 8624   6.511   9.219   2.850 -1.2010 -0.5475  0.9689
  805MOL0     H 8625   6.586   9.338   2.946 -0.4319 -1.7965  3.4670
  805MOL0     H 8626   6.247   9.254   2.770 -0.1898  0.2593  1.5142
  805MOL0     H 8627   6.056   9.422   2.637 -0.0661  1.6621 -0.5170
  805MOL0     H 8628   6.137   9.557   2.550 -5.2264 -0.1163 -0.9746
  805MOL0     H 8629   6.159   9.243   2.502  1.9801 -0.0674 -0.6730
  805MOL0     H 8630   6.242   9.361   2.412 -0.4407 -0.6363 -0.4728
  805MOL0     H 8631   5.949   9.317   2.422  0.5286  0.1663  0.3878
  805MOL0     H 8632   6.050   9.297   2.275  1.8180 -0.5327  0.5642
  805MOL0     H 8633   6.083   9.534   2.271 -0.2652  0.9084 -0.0398
  805MOL0     H 8634   5.957   9.562   2.399 -2.2482 -1.8293 -0.4037
  805MOL0     H 8635   5.844   9.254   2.146 -2.6422 -2.1148 -2.6200
  805MOL0     H 8636   5.726   9.062   2.126 -1.4913 -0.3371 -0.2621
  805MOL0     H 8637   5.585   9.025   2.221  0.3652 -1.4658 -0.1819
  805MOL0     H 8638   5.569   9.093   2.051 -1.9476 -3.6835  0.5770
  805MOL0     H 8639   5.252   8.907   2.253 -0.3957 -0.4995 -1.0259
  805MOL0     H 8640   5.012   8.853   2.242  0.9840  1.3420  1.3508
  805MOL0     H 8641   4.692   9.153   2.128 -2.3178  0.4581 -0.0677
  805MOL0     H 8642   4.754   9.104   1.964  1.0907  1.8707  1.6070
  805MOL0     H 8643   4.620   8.900   1.966 -2.0464 -0.0911 -0.5303
  805MOL0     H 8644   4.558   8.933   2.124  1.5330 -0.5428  0.0580
  805MOL0     H 8645   4.525   9.117   1.874  2.4464 -0.1923  0.9772
  805MOL0     H 8646   4.435   9.137   2.016 -0.0701 -0.5435 -1.1877
  805MOL0     H 8647   4.434   8.888   1.829 -0.3127 -0.1935  0.5087
  805MOL0     H 8648   4.366   8.886   1.984  0.9653 -0.7494 -1.0359
  805MOL0     H 8649   4.255   9.085   1.770 -0.4895  2.9471  1.6060
  805MOL0     H 8650   4.199   9.053   1.927  3.5015 -0.4521  1.7055
  805MOL0     H 8651   4.242   8.830   1.720  2.5824  1.7697  1.8729
  805MOL0     H 8652   4.149   8.816   1.867  1.9624 -0.7474  0.3480
  805MOL0     H 8653   3.987   8.850   1.658 -2.9478  0.9813  0.9098
  805MOL0     H 8654   4.042   9.015   1.648 -4.8786 -1.2195 -1.8974
  805MOL0     H 8655   3.964   9.035   1.891  2.9880 -2.0004  2.0411
  805MOL0     H 8656   3.932   8.868   1.894  1.9980  0.4517  0.3892
  805MOL0     H 8657   4.939   9.218   2.024  1.4616  0.6119 -0.3341
  805MOL0     H 8658   5.151   9.297   2.083 -0.8139  0.9091  0.7786
  805MOL0     H 8659   5.461   9.472   2.365 -1.8017  1.4256 -2.4164
  805MOL0     H 8660   5.678   9.588   2.354  0.2525  0.9572 -1.1063
  805MOL0     H 8661   6.960   9.414   3.802  1.1452  0.5898  0.8873
  805MOL0     H 8662   7.210   9.431   3.839 -3.0053  1.9341  0.1171
  805MOL0     H 8663   7.639   9.269   3.876  1.8444 -2.4546  1.1204
  805MOL0     H 8664   7.865   9.291   3.856  0.6404  0.6232 -0.0370
  805MOL0     H 8665   8.089   9.250   3.809 -0.4847 -1.4112 -0.5620
  805MOL0     H 8666   8.127   9.130   3.682  1.8056 -0.1577 -1.6064
  805MOL0     H 8667   8.264   9.308   3.565  0.9703 -1.5524 -0.4903
  805MOL0     H 8668   8.343   9.283   3.718 -0.3036 -0.0494 -0.1852
  805MOL0     H 8669   8.137   9.499   3.675  0.8973  1.9824 -0.6390
  805MOL0     H 8670   8.314   9.516   3.653 -1.4869 -0.9055 -3.1924
  805MOL0     H 8671   8.292   9.609   3.854 -2.5960  1.0739  3.1743
  805MOL0     H 8672   8.328   9.440   3.899  0.4748  1.2800  1.3140
  805MOL0     H 8673   7.930   9.498   4.031  1.2523 -2.0444  2.1158
  805MOL0     H 8674   7.851   9.228   3.436 -1.6424  0.9196 -0.7186
  805MOL0     H 8675   7.612   9.190   3.449 -3.5972  1.1777  2.0704
  806MOL0     O 8676  10.623   5.747   5.416  0.2044  0.1668 -0.1132
  806MOL0     C 8677  10.721   5.745   5.498  0.1348  0.0184 -0.0561
  806MOL0     O 8678  10.719   5.787   5.631 -0.6247 -0.6185 -0.4545
  806MOL0     C 8679  10.598   5.835   5.683  0.2062  0.8967 -0.4239
  806MOL0     C 8680  10.540   5.942   5.616  0.0478 -0.6741 -0.5119
  806MOL0     C 8681  10.417   5.990   5.663 -0.5838  0.4694  0.0246
  806MOL0     C 8682  10.366   5.950   5.782 -0.3287  0.6283  0.5575
  806MOL0     O 8683  10.247   5.996   5.834 -0.7999  0.9464 -0.4536
  806MOL0     C 8684  10.141   5.912   5.792  1.0146  0.7861  0.7375
  806MOL0     C 8685  10.015   5.956   5.868 -0.4664  0.0095 -0.2412
  806MOL0     C 8686   9.887   5.890   5.830 -0.1275 -0.1670 -0.3070
  806MOL0     C 8687   9.775   5.940   5.922 -0.4543 -0.4819 -0.4018
  806MOL0     C 8688   9.649   5.858   5.903 -0.0192 -0.0961  0.6478
  806MOL0     C 8689   9.589   5.884   5.757 -0.1000 -0.3600 -1.2685
  806MOL0     C 8690   9.442   5.848   5.755  0.7329 -0.0456  0.8947
  806MOL0     C 8691   9.375   5.855   5.625 -1.5438  0.6268  0.5805
  806MOL0     N 8692   9.375   5.986   5.560 -0.0588  0.2176  0.4708
  806MOL0     C 8693   9.283   6.081   5.564  0.4304 -0.2043 -0.0631
  806MOL0     C 8694   9.324   6.176   5.484  0.9032 -0.7743  0.8250
  806MOL0     C 8695   9.255   6.314   5.484 -0.5604  1.1186  0.0230
  806MOL0     C 8696   9.141   6.338   5.395  0.4057  0.1413  0.1012
  806MOL0     C 8697   9.017   6.283   5.473 -0.5458  0.1919 -0.2770
  806MOL0     C 8698   8.893   6.271   5.381  0.2671 -1.0813  0.5094
  806MOL0     O 8699   8.823   6.398   5.358  0.6029  0.2272  0.4720
  806MOL0     C 8700   8.681   6.399   5.361  0.5796  1.0459 -0.6531
  806MOL0     C 8701   8.620   6.521   5.390 -0.4082 -0.2188  0.5295
  806MOL0     C 8702   8.480   6.535   5.391 -0.2972 -0.4097 -1.4355
  806MOL0     C 8703   8.429   6.679   5.417  0.1122 -0.7725 -0.0925
  806MOL0     C 8704   8.397   6.424   5.378 -0.4861 -0.4234 -0.4342
  806MOL0     C 8705   8.243   6.434   5.364 -0.6588  0.4015 -0.2999
  806MOL0     O 8706   8.189   6.311   5.326  0.0746  0.4996 -0.2893
  806MOL0     C 8707   8.050   6.300   5.319  0.7129 -0.2470  0.2200
  806MOL0     C 8708   7.967   6.274   5.436  0.9012 -0.6587  0.5389
  806MOL0     C 8709   7.831   6.275   5.429  0.5092  0.2065  0.0730
  806MOL0     C 8710   7.771   6.283   5.302  0.3683  0.8375 -0.5334
  806MOL0     O 8711   7.634   6.263   5.283  0.3528 -0.3899  0.2929
  806MOL0     C 8712   7.551   6.231   5.399  0.7855 -0.3299 -0.1553
  806MOL0     C 8713   7.403   6.197   5.357 -0.3317  0.8344 -0.4309
  806MOL0     C 8714   7.311   6.136   5.462  0.5089  0.7852 -0.0335
  806MOL0     C 8715   7.188   6.086   5.386 -0.1596 -1.4255 -0.5288
  806MOL0     C 8716   7.069   6.054   5.475 -0.1234 -0.9089 -0.5357
  806MOL0     C 8717   6.957   6.002   5.388  0.4757 -0.1533 -0.8984
  806MOL0     C 8718   6.829   5.973   5.469  0.4196  0.2148 -0.3350
  806MOL0     C 8719   6.717   5.906   5.379  0.0700 -0.1070 -0.1598
  806MOL0    Cl 8720   6.590   5.883   5.501  0.3167 -0.2132 -0.1695
  806MOL0     C 8721   7.861   6.300   5.186  0.5448  0.7859 -0.3867
  806MOL0     C 8722   7.996   6.304   5.197  0.1813  0.1349  0.6809
  806MOL0     O 8723   8.181   6.541   5.372  0.0209 -0.1317  0.3123
  806MOL0     C 8724   8.459   6.295   5.351  0.0332  0.0045  0.9757
  806MOL0     C 8725   8.599   6.284   5.343 -0.0284 -0.2863 -0.5570
  806MOL0     N 8726   9.436   6.130   5.417 -0.2998  0.3520  0.4437
  806MOL0     N 8727   9.471   6.017   5.466  0.4682 -0.2469 -0.2575
  806MOL0     C 8728  10.437   5.852   5.862 -0.6577  0.0457 -0.2809
  806MOL0     C 8729  10.554   5.803   5.810 -0.1608 -0.4545  0.2321
  806MOL0     C 8730  10.848   5.698   5.454 -0.2029 -0.0990 -0.1274
  806MOL0     C 8731  10.949   5.664   5.546  0.2620 -0.9405  0.0078
  806MOL0     C 8732  11.072   5.620   5.497 -0.1398 -1.2693 -0.0029
  806MOL0     C 8733  11.109   5.635   5.360 -0.8768 -0.2320 -0.1313
  806MOL0     O 8734  11.244   5.610   5.334 -0.2297 -0.2967  0.3295
  806MOL0     C 8735  11.296   5.621   5.202  0.7235  0.4189 -0.3822
  806MOL0     C 8736  11.449   5.637   5.216 -0.1484  1.0013  0.4082
  806MOL0     C 8737  11.482   5.771   5.271  0.3495 -0.2890  0.6229
  806MOL0     C 8738  11.636   5.784   5.303  0.1345  0.0016  0.3379
  806MOL0     C 8739  11.730   5.792   5.188  0.9782 -0.2138 -0.0795
  806MOL0     C 8740  11.807   5.791   5.092  0.4523 -0.3065  0.2016
  806MOL0     C 8741  11.001   5.657   5.272  0.2801  0.4465  0.1251
  806MOL0     C 8742  10.869   5.680   5.317 -0.1025  0.2136  0.3175
  806MOL0     H 8743  10.571   5.975   5.517  0.9689  1.9196  0.5535
  806MOL0     H 8744  10.352   6.048   5.598 -2.0645 -0.7584  0.3433
  806MOL0     H 8745  10.133   5.923   5.684  0.5794  3.5079  0.9738
  806MOL0     H 8746  10.160   5.806   5.810 -3.1818 -0.3766 -0.5340
  806MOL0     H 8747  10.032   5.941   5.975 -1.3269  0.1311 -0.0782
  806MOL0     H 8748  10.016   6.064   5.851  1.1200 -0.0536 -0.6950
  806MOL0     H 8749   9.862   5.912   5.726 -0.4962 -0.8107 -0.3620
  806MOL0     H 8750   9.899   5.782   5.842 -0.5983  0.0948  3.4684
  806MOL0     H 8751   9.800   5.935   6.029 -3.1227  1.6318  0.4541
  806MOL0     H 8752   9.761   6.048   5.910 -1.3845 -0.7241 -1.7004
  806MOL0     H 8753   9.674   5.751   5.904 -0.9213 -0.4545 -2.3773
  806MOL0     H 8754   9.578   5.881   5.983 -3.4615 -3.8971 -0.8742
  806MOL0     H 8755   9.596   5.991   5.739  0.8441 -0.0022  0.8423
  806MOL0     H 8756   9.644   5.837   5.675  0.2276 -0.2118 -1.1392
  806MOL0     H 8757   9.419   5.744   5.779 -0.7085  0.2946  1.0718
  806MOL0     H 8758   9.386   5.911   5.824  1.0375  1.2391  0.0042
  806MOL0     H 8759   9.275   5.813   5.615 -0.8881 -0.3904 -4.0423
  806MOL0     H 8760   9.436   5.785   5.568 -1.8356  1.0252 -0.2312
  806MOL0     H 8761   9.200   6.086   5.634  0.3667  0.1149 -0.1589
  806MOL0     H 8762   9.235   6.349   5.586 -2.4384  2.2543 -0.6966
  806MOL0     H 8763   9.330   6.380   5.439  1.1905 -0.8588 -0.1528
  806MOL0     H 8764   9.150   6.266   5.313  2.1273 -0.6117  0.9020
  806MOL0     H 8765   9.120   6.440   5.364  0.1949  0.0387 -0.1033
  806MOL0     H 8766   8.995   6.350   5.557  1.3154  2.1876 -1.2900
  806MOL0     H 8767   9.042   6.187   5.519 -0.8872 -1.1497 -2.7546
  806MOL0     H 8768   8.825   6.207   5.439 -0.0692 -1.9310 -0.7855
  806MOL0     H 8769   8.921   6.224   5.286 -0.8388  1.6557 -1.2883
  806MOL0     H 8770   8.681   6.609   5.408  0.3493 -0.6767  0.2779
  806MOL0     H 8771   8.512   6.749   5.402 -0.0894 -0.6441 -0.6209
  806MOL0     H 8772   8.350   6.699   5.344 -0.4146  1.8579  1.0817
  806MOL0     H 8773   8.397   6.696   5.520  0.1729 -1.1702 -0.0043
  806MOL0     H 8774   8.015   6.283   5.533  1.9576 -0.2097 -0.0121
  806MOL0     H 8775   7.779   6.250   5.521  4.0323 -0.7233  2.0049
  806MOL0     H 8776   7.577   6.146   5.463 -1.9994 -1.3548 -0.2548
  806MOL0     H 8777   7.552   6.317   5.467 -1.6201 -1.6716  1.7283
  806MOL0     H 8778   7.351   6.283   5.313  1.9246  2.0475 -0.9195
  806MOL0     H 8779   7.418   6.130   5.272  0.1002  1.7266 -1.0822
  806MOL0     H 8780   7.295   6.214   5.538  0.2402  2.6319 -1.8920
  806MOL0     H 8781   7.350   6.049   5.515 -0.0489  0.2085 -0.5584
  806MOL0     H 8782   7.160   6.165   5.315  0.6071  0.4711  1.1667
  806MOL0     H 8783   7.206   5.995   5.328 -0.4460 -0.6232 -1.9112
  806MOL0     H 8784   7.032   6.139   5.533  0.8830 -0.9196  0.1573
  806MOL0     H 8785   7.097   5.981   5.551 -0.4729  1.3701  1.9470
  806MOL0     H 8786   6.932   6.072   5.308 -1.6830  1.6899  1.1958
  806MOL0     H 8787   6.984   5.912   5.334  2.7698 -1.2964  1.9000
  806MOL0     H 8788   6.778   6.064   5.501 -0.0766  0.5663 -1.9882
  806MOL0     H 8789   6.843   5.914   5.560 -0.2273  1.5952  0.6888
  806MOL0     H 8790   6.754   5.811   5.339 -0.4359  0.6383 -2.5417
  806MOL0     H 8791   6.687   5.979   5.304  0.7710  1.2298  0.8236
  806MOL0     H 8792   7.832   6.298   5.081  0.4164  0.6233 -0.3485
  806MOL0     H 8793   8.053   6.309   5.105  0.2290 -1.8396  0.5557
  806MOL0     H 8794   8.393   6.213   5.325  0.3227  0.1922 -0.4364
  806MOL0     H 8795   8.643   6.188   5.320  0.2120 -0.0165 -1.2678
  806MOL0     H 8796  10.397   5.815   5.956  0.4997 -1.1675 -0.2328
  806MOL0     H 8797  10.599   5.718   5.859  0.5561 -1.5681 -2.2157
  806MOL0     H 8798  10.927   5.672   5.652  0.6823 -0.9321  0.0944
  806MOL0     H 8799  11.145   5.593   5.573  1.6297  0.6456 -0.9323
  806MOL0     H 8800  11.274   5.532   5.143 -1.0006 -0.7349  1.8319
  806MOL0     H 8801  11.256   5.710   5.153 -0.1098  1.7576  2.5202
  806MOL0     H 8802  11.482   5.637   5.112 -0.4961  1.6068  0.2896
  806MOL0     H 8803  11.493   5.553   5.271  1.3018  2.4547  1.5584
  806MOL0     H 8804  11.434   5.792   5.367 -1.8232  1.3036 -0.7215
  806MOL0     H 8805  11.457   5.844   5.194 -2.5694 -0.7206  1.0580
  806MOL0     H 8806  11.669   5.699   5.363 -0.6772 -0.7653 -0.2820
  806MOL0     H 8807  11.641   5.868   5.374 -3.0799  0.6492 -0.0271
  806MOL0     H 8808  11.883   5.825   5.025 -0.6249 -0.5349 -1.1750
  806MOL0     H 8809  11.012   5.645   5.165  0.6940 -0.4667  0.2612
  806MOL0     H 8810  10.797   5.696   5.237  0.0689  2.1831  0.5050
  807MOL0     O 8811   7.196   7.611   6.450  0.6401 -0.1466 -0.0983
  807MOL0     C 8812   7.250   7.651   6.343  0.4292  0.8158  0.9379
  807MOL0     O 8813   7.190   7.639   6.219 -0.2629  0.5982 -0.4136
  807MOL0     C 8814   7.071   7.573   6.200  0.5059  0.1276 -0.4295
  807MOL0     C 8815   7.076   7.437   6.240 -0.1880 -0.6068 -0.5899
  807MOL0     C 8816   6.959   7.364   6.226 -0.8572  1.1417 -0.1434
  807MOL0     C 8817   6.838   7.413   6.186  0.3382  0.4028 -0.2485
  807MOL0     O 8818   6.735   7.332   6.164 -0.0211 -0.1975  0.0760
  807MOL0     C 8819   6.601   7.389   6.164 -0.1111  0.0108  0.2945
  807MOL0     C 8820   6.566   7.482   6.292 -0.6241 -0.3269 -0.5567
  807MOL0     C 8821   6.629   7.433   6.422  0.1666  0.1158  0.4876
  807MOL0     C 8822   6.588   7.529   6.541 -0.2222  0.8108  0.1162
  807MOL0     C 8823   6.669   7.657   6.553 -0.4066 -0.4844  0.4946
  807MOL0     C 8824   6.723   7.688   6.702 -0.0042  0.9198  0.3040
  807MOL0     C 8825   6.602   7.717   6.795 -0.4550 -0.2360  0.9853
  807MOL0     C 8826   6.637   7.779   6.931  0.6091  0.7374  0.7322
  807MOL0     N 8827   6.517   7.828   6.994  0.8546  0.4060  0.7952
  807MOL0     C 8828   6.407   7.742   7.002 -0.2793  0.5222 -0.1966
  807MOL0     C 8829   6.298   7.827   6.995  0.1532  0.0113  0.0747
  807MOL0     C 8830   6.159   7.767   6.984 -0.3652  0.0015 -0.5201
  807MOL0     C 8831   6.075   7.783   7.115 -0.4236 -1.2108 -0.1928
  807MOL0     C 8832   5.921   7.765   7.088  0.1471  0.4653 -0.2159
  807MOL0     C 8833   5.841   7.824   7.200  0.1868  1.0696 -0.7599
  807MOL0     O 8834   5.704   7.785   7.198 -0.1776  0.5103  0.1298
  807MOL0     C 8835   5.618   7.853   7.275  0.1929 -0.0092 -0.5015
  807MOL0     C 8836   5.639   7.942   7.379  0.4405  0.3991 -0.3776
  807MOL0     C 8837   5.540   8.016   7.444  0.7146  0.5777  0.6492
  807MOL0     C 8838   5.577   8.104   7.563  0.3477  0.2951 -0.4987
  807MOL0     C 8839   5.403   7.976   7.422 -0.0392 -0.0626  0.4225
  807MOL0     C 8840   5.286   8.039   7.495  0.3474  0.1812  0.6816
  807MOL0     O 8841   5.169   7.965   7.487  0.3100  0.1642 -0.7710
  807MOL0     C 8842   5.047   8.026   7.502 -0.4518 -1.1593  0.1513
  807MOL0     C 8843   4.948   7.979   7.592 -0.3016 -0.1706 -1.5108
  807MOL0     C 8844   4.831   8.048   7.623  0.4789 -0.4317 -0.2201
  807MOL0     C 8845   4.804   8.167   7.559  0.8376  0.8113  0.1908
  807MOL0     O 8846   4.681   8.218   7.588 -0.6084 -0.3119 -0.0820
  807MOL0     C 8847   4.599   8.260   7.478 -0.2561  0.2681  0.1588
  807MOL0     C 8848   4.451   8.259   7.510 -0.5955  0.7694 -0.6296
  807MOL0     C 8849   4.407   8.121   7.560  0.1374  1.2622 -0.0654
  807MOL0     C 8850   4.398   8.011   7.448 -0.1163 -0.6974  0.2519
  807MOL0     C 8851   4.517   7.912   7.436  0.3461  0.0272  0.6227
  807MOL0     C 8852   4.479   7.793   7.355 -0.0548 -0.1585 -0.2938
  807MOL0     C 8853   4.599   7.691   7.360 -0.2844 -0.0617  0.1205
  807MOL0     C 8854   4.601   7.612   7.488  0.4087  0.0166  0.6938
  807MOL0    Cl 8855   4.483   7.474   7.490 -0.3693  0.1187  0.1528
  807MOL0     C 8856   4.896   8.218   7.466  0.0166 -0.4552 -0.3008
  807MOL0     C 8857   5.018   8.151   7.440  0.5052  0.2355 -0.3583
  807MOL0     O 8858   5.295   8.144   7.550  0.9185 -0.0245  0.3006
  807MOL0     C 8859   5.376   7.888   7.314  0.0336  0.0186 -0.0416
  807MOL0     C 8860   5.486   7.819   7.253  0.1783 -0.2176 -0.6939
  807MOL0     N 8861   6.344   7.952   7.004 -0.3713 -0.5698  0.4177
  807MOL0     N 8862   6.470   7.959   7.006 -0.5711 -0.2972 -0.3353
  807MOL0     C 8863   6.844   7.546   6.130  0.8290  0.3477  0.4963
  807MOL0     C 8864   6.958   7.621   6.141  0.6348 -0.7097  0.1943
  807MOL0     C 8865   7.389   7.705   6.344 -0.5460 -0.0109 -0.6350
  807MOL0     C 8866   7.468   7.694   6.459  0.8103  0.6108 -0.5198
  807MOL0     C 8867   7.583   7.765   6.468  0.2148 -0.2066 -0.4836
  807MOL0     C 8868   7.637   7.843   6.354  1.0827  0.4436 -1.0313
  807MOL0     O 8869   7.750   7.923   6.357  0.2497 -0.8732 -0.0145
  807MOL0     C 8870   7.824   7.940   6.477 -0.2847  0.4261  0.0597
  807MOL0     C 8871   7.916   8.057   6.469  0.2260 -0.0433  0.6617
  807MOL0     C 8872   8.031   8.058   6.571  0.4049  0.1181  0.2683
  807MOL0     C 8873   8.162   8.009   6.506  0.9735  0.4049 -0.0647
  807MOL0     C 8874   8.218   8.109   6.416 -0.4212 -0.4049 -0.7563
  807MOL0     C 8875   8.268   8.186   6.343  0.3130 -0.6730  0.1846
  807MOL0     C 8876   7.565   7.834   6.238  1.1756 -0.4548 -0.4927
  807MOL0     C 8877   7.449   7.760   6.230  0.2137  0.1314 -0.5266
  807MOL0     H 8878   7.170   7.404   6.283 -1.3936 -0.7125  2.2343
  807MOL0     H 8879   6.955   7.259   6.254 -0.5330  1.2110  0.1784
  807MOL0     H 8880   6.591   7.449   6.073  0.9151 -0.1736  0.0405
  807MOL0     H 8881   6.532   7.305   6.149  0.1218  0.0794 -1.4001
  807MOL0     H 8882   6.614   7.579   6.280  2.9293 -1.6889  1.1605
  807MOL0     H 8883   6.458   7.496   6.308 -0.8819 -2.8128  0.4109
  807MOL0     H 8884   6.583   7.335   6.436  0.7107 -0.3200 -0.6918
  807MOL0     H 8885   6.738   7.418   6.417  0.1667 -0.3323  1.5214
  807MOL0     H 8886   6.481   7.549   6.529 -0.4322 -1.1452 -2.0714
  807MOL0     H 8887   6.601   7.472   6.634  1.4849  0.8012 -0.1090
  807MOL0     H 8888   6.749   7.655   6.478  0.2578  1.8138  1.0357
  807MOL0     H 8889   6.604   7.738   6.519 -0.2481 -0.5135  0.1233
  807MOL0     H 8890   6.757   7.593   6.746  1.5258  1.5375  0.5270
  807MOL0     H 8891   6.797   7.769   6.706  1.7939 -0.6342 -0.2716
  807MOL0     H 8892   6.531   7.782   6.743 -0.0364 -1.3507 -1.0844
  807MOL0     H 8893   6.542   7.630   6.822 -3.2179  1.5559  1.0372
  807MOL0     H 8894   6.706   7.863   6.925  0.1114  1.1241  0.3254
  807MOL0     H 8895   6.684   7.702   6.994  0.8198 -0.1717 -0.4953
  807MOL0     H 8896   6.405   7.634   7.000 -1.3079  0.4619  1.7057
  807MOL0     H 8897   6.102   7.832   6.917 -1.5911 -1.3389 -0.8157
  807MOL0     H 8898   6.168   7.666   6.944  0.9239 -0.5306  0.9913
  807MOL0     H 8899   6.085   7.881   7.164  1.1682 -1.9427  1.0656
  807MOL0     H 8900   6.109   7.710   7.189 -1.6878 -0.0575  1.6120
  807MOL0     H 8901   5.909   7.657   7.073  0.8057  0.4426 -0.6510
  807MOL0     H 8902   5.879   7.801   6.993 -1.2169 -0.8862 -0.1719
  807MOL0     H 8903   5.854   7.932   7.188 -1.7969  1.6576  1.4896
  807MOL0     H 8904   5.875   7.780   7.294  1.0391 -0.2446 -1.6534
  807MOL0     H 8905   5.737   7.962   7.421 -0.6632 -0.7051  3.0690
  807MOL0     H 8906   5.579   8.046   7.655 -0.9723  2.9685  1.3781
  807MOL0     H 8907   5.679   8.141   7.553  0.2219  0.7816 -0.0498
  807MOL0     H 8908   5.507   8.188   7.576  0.4840  0.7328 -2.2996
  807MOL0     H 8909   4.972   7.887   7.644 -0.9828  0.9954  0.9936
  807MOL0     H 8910   4.760   7.991   7.683  1.9103 -1.0005  0.9909
  807MOL0     H 8911   4.624   8.363   7.452 -0.8789  0.5192  0.5302
  807MOL0     H 8912   4.619   8.196   7.391 -0.6349 -0.2285  0.4273
  807MOL0     H 8913   4.427   8.331   7.588  2.6987  1.2310  0.1114
  807MOL0     H 8914   4.395   8.280   7.418 -1.0932 -0.1378 -0.5446
  807MOL0     H 8915   4.309   8.127   7.609  0.8216 -1.8317  1.8968
  807MOL0     H 8916   4.476   8.078   7.633 -0.9621 -1.9524 -0.7624
  807MOL0     H 8917   4.310   7.950   7.471 -1.8134  1.4890 -0.0247
  807MOL0     H 8918   4.379   8.065   7.354  2.2699 -0.8551 -0.3894
  807MOL0     H 8919   4.542   7.879   7.538 -1.5337  1.1999  1.5125
  807MOL0     H 8920   4.602   7.957   7.385  1.3179 -0.9425  1.3311
  807MOL0     H 8921   4.391   7.746   7.400  0.5025 -0.3588  0.6060
  807MOL0     H 8922   4.459   7.818   7.250 -4.5949  0.5278  0.5128
  807MOL0     H 8923   4.694   7.740   7.341 -1.2941  1.8113 -0.3563
  807MOL0     H 8924   4.585   7.627   7.272 -0.4541 -1.8009  1.3653
  807MOL0     H 8925   4.565   7.668   7.575  0.9229  0.9766  0.3098
  807MOL0     H 8926   4.701   7.570   7.504  0.6085 -0.2626 -1.0959
  807MOL0     H 8927   4.883   8.311   7.411  0.5135 -1.0353 -1.4248
  807MOL0     H 8928   5.091   8.195   7.372 -1.9220  0.9641 -2.6641
  807MOL0     H 8929   5.277   7.865   7.278  0.6720 -1.5329 -0.8889
  807MOL0     H 8930   5.454   7.752   7.173  0.3637 -3.4526  1.7759
  807MOL0     H 8931   6.761   7.579   6.068  1.4002 -2.5928 -2.0749
  807MOL0     H 8932   6.945   7.724   6.108 -2.6952 -0.8864  0.6107
  807MOL0     H 8933   7.418   7.650   6.545 -0.0980  0.0221 -1.3325
  807MOL0     H 8934   7.625   7.771   6.568 -1.1338  3.2835  0.0241
  807MOL0     H 8935   7.758   7.955   6.562 -0.3194 -0.7460  0.2518
  807MOL0     H 8936   7.880   7.850   6.503  0.2721  0.6295 -0.3878
  807MOL0     H 8937   7.862   8.152   6.479  0.8263  0.2084  1.6577
  807MOL0     H 8938   7.961   8.067   6.370  2.4711 -1.8114  1.4087
  807MOL0     H 8939   7.994   7.984   6.642 -1.2759 -0.9314 -1.6147
  807MOL0     H 8940   8.054   8.153   6.619  5.3058  0.8975 -2.8086
  807MOL0     H 8941   8.151   7.922   6.441  1.9842  0.2169 -0.0045
  807MOL0     H 8942   8.232   7.979   6.584  0.6164 -0.4250 -0.0554
  807MOL0     H 8943   8.324   8.256   6.285  2.3911 -2.0931  0.3650
  807MOL0     H 8944   7.599   7.889   6.152  2.0544 -2.8390 -1.7672
  807MOL0     H 8945   7.392   7.758   6.137 -1.5206 -0.2061  0.4823
  808MOL0     O 8946   0.399  11.151   0.882  0.5734 -0.1745  0.0505
  808MOL0     C 8947   0.462  11.198   0.977  0.7402 -0.4015 -0.3274
  808MOL0     O 8948   0.404  11.219   1.101  0.3488  0.2082  0.0313
  808MOL0     C 8949   0.267  11.215   1.121  0.4033 -0.0572 -0.1210
  808MOL0     C 8950   0.218  11.155   1.237  0.5680 -0.7813 -0.5627
  808MOL0     C 8951   0.084  11.150   1.261 -0.4997 -0.2614  0.3187
  808MOL0     C 8952  -0.009  11.206   1.176 -0.2850 -0.2456 -0.2722
  808MOL0     O 8953  -0.150  11.224   1.189 -0.4522  0.6508 -0.7466
  808MOL0     C 8954  -0.211  11.163   1.303 -0.9319 -0.4409 -0.7429
  808MOL0     C 8955  -0.363  11.186   1.301 -0.1691  0.0332 -0.6446
  808MOL0     C 8956  -0.391  11.332   1.341  1.1404  0.0046 -0.0917
  808MOL0     C 8957  -0.547  11.353   1.331  0.8628 -0.9327 -0.1553
  808MOL0     C 8958  -0.602  11.458   1.433 -0.5441 -0.7401 -1.0629
  808MOL0     C 8959  -0.748  11.469   1.384  0.6679  0.5117 -0.0054
  808MOL0     C 8960  -0.847  11.541   1.483  0.7744  0.4250  0.6986
  808MOL0     C 8961  -0.794  11.675   1.537 -0.8046 -0.0443  0.1044
  808MOL0     N 8962  -0.900  11.734   1.626 -1.0461  0.0999 -0.6169
  808MOL0     C 8963  -1.029  11.763   1.596 -0.3295  0.0327 -0.9051
  808MOL0     C 8964  -1.078  11.826   1.708 -0.9282  0.2688 -0.4625
  808MOL0     C 8965  -1.221  11.866   1.748 -0.4164  0.3112  0.2322
  808MOL0     C 8966  -1.247  11.991   1.667  0.3356  0.2116 -0.5363
  808MOL0     C 8967  -1.393  12.034   1.677 -0.9479 -0.3634  1.3500
  808MOL0     C 8968  -1.463  12.040   1.810 -0.1277 -0.4892 -0.0537
  808MOL0     O 8969  -1.599  12.077   1.796 -0.2328 -0.0216  0.2508
  808MOL0     C 8970  -1.686  12.052   1.897 -0.3044 -0.9003 -0.2817
  808MOL0     C 8971  -1.797  12.134   1.880  1.1473 -0.3489  0.5364
  808MOL0     C 8972  -1.905  12.150   1.970 -0.5386 -0.7165 -0.0816
  808MOL0     C 8973  -2.009  12.262   1.935  0.3625 -0.3038  0.3630
  808MOL0     C 8974  -1.898  12.074   2.090  0.1335  0.3723  0.7813
  808MOL0     C 8975  -1.998  12.093   2.197 -0.0350  0.2037 -0.2514
  808MOL0     O 8976  -2.112  12.163   2.163 -0.2539  0.1312 -0.7317
  808MOL0     C 8977  -2.225  12.163   2.253 -0.0263  0.3402  0.0659
  808MOL0     C 8978  -2.308  12.277   2.268  1.3853 -0.5450 -0.0505
  808MOL0     C 8979  -2.412  12.271   2.361 -0.0738  0.0988  0.6275
  808MOL0     C 8980  -2.457  12.154   2.418  0.3261 -0.1416 -0.4601
  808MOL0     O 8981  -2.560  12.142   2.508  0.2754  0.0829  1.0753
  808MOL0     C 8982  -2.624  12.262   2.565  0.0918 -0.1022  0.5628
  808MOL0     C 8983  -2.740  12.223   2.659 -1.3451 -0.1064  0.2134
  808MOL0     C 8984  -2.854  12.158   2.576  0.2755 -0.3236 -0.6280
  808MOL0     C 8985  -2.859  12.003   2.601  1.1211 -0.2533  0.2394
  808MOL0     C 8986  -2.984  11.959   2.514  0.0808 -0.4579  0.1852
  808MOL0     C 8987  -2.996  11.807   2.503 -0.6725  0.5261  0.1667
  808MOL0     C 8988  -3.019  11.746   2.649  0.9247 -0.0578 -0.0366
  808MOL0     C 8989  -3.069  11.601   2.623 -0.1956 -0.4031  0.2198
  808MOL0    Cl 8990  -3.119  11.506   2.765  0.1985 -0.4393  0.3042
  808MOL0     C 8991  -2.388  12.038   2.402 -0.0250  0.2251  0.3866
  808MOL0     C 8992  -2.268  12.042   2.324 -1.0437  0.0396  0.2906
  808MOL0     O 8993  -1.979  12.037   2.301  0.1891  0.3560  0.4585
  808MOL0     C 8994  -1.781  11.994   2.109 -0.3706 -0.8954 -0.5120
  808MOL0     C 8995  -1.678  11.986   2.014 -0.2790  0.8736 -0.3706
  808MOL0     N 8996  -0.974  11.824   1.800  0.7698 -0.2474 -0.0585
  808MOL0     N 8997  -0.872  11.762   1.759  0.3662  0.3426  0.1037
  808MOL0     C 8998   0.038  11.270   1.059 -0.5128  0.0950 -0.4721
  808MOL0     C 8999   0.174  11.273   1.025  0.1516  0.4056 -0.4286
  808MOL0     C 9000   0.597  11.232   0.963 -0.7047 -0.8858 -0.2749
  808MOL0     C 9001   0.661  11.320   1.062  0.1306  0.2978 -0.7091
  808MOL0     C 9002   0.802  11.334   1.077 -0.8044 -0.6104 -0.9208
  808MOL0     C 9003   0.878  11.266   0.981  0.8033  0.6953  0.0244
  808MOL0     O 9004   1.017  11.276   0.981 -0.4695 -0.0909  1.0966
  808MOL0     C 9005   1.094  11.343   1.082 -0.3350 -0.4491  0.0074
  808MOL0     C 9006   1.094  11.258   1.205  0.6371  0.5377  0.5189
  808MOL0     C 9007   1.194  11.310   1.314  0.3191 -0.5257  0.1246
  808MOL0     C 9008   1.146  11.427   1.393  0.9588 -0.3565  0.3565
  808MOL0     C 9009   1.248  11.460   1.488  0.2913  0.2593 -0.0698
  808MOL0     C 9010   1.330  11.478   1.574 -0.8731  0.3051  0.3451
  808MOL0     C 9011   0.821  11.175   0.894 -0.1895  0.2997 -0.1459
  808MOL0     C 9012   0.683  11.157   0.890 -0.6892  0.2704  0.0501
  808MOL0     H 9013   0.271  11.085   1.301 -2.8455 -6.2192 -2.9926
  808MOL0     H 9014   0.043  11.099   1.347  0.0425  1.4622  1.6636
  808MOL0     H 9015  -0.167  11.064   1.318  2.7163  1.2057  0.6355
  808MOL0     H 9016  -0.169  11.215   1.389  1.7479 -1.5847 -1.2388
  808MOL0     H 9017  -0.408  11.145   1.210 -3.2701 -0.1466  0.8440
  808MOL0     H 9018  -0.408  11.125   1.379  1.3200  1.4520  1.4429
  808MOL0     H 9019  -0.348  11.354   1.439  2.3487  0.0693 -0.6232
  808MOL0     H 9020  -0.331  11.398   1.278  0.2077  2.4819  1.4638
  808MOL0     H 9021  -0.568  11.382   1.228 -2.7128 -0.5925  0.5130
  808MOL0     H 9022  -0.599  11.259   1.348  0.1918 -0.6112 -0.3715
  808MOL0     H 9023  -0.597  11.410   1.531 -0.4919 -0.8616 -1.1232
  808MOL0     H 9024  -0.551  11.554   1.443 -2.6170  0.2028  1.4114
  808MOL0     H 9025  -0.756  11.527   1.291  1.3319 -2.2716 -1.9333
  808MOL0     H 9026  -0.787  11.372   1.351 -0.1756 -0.1715  2.7500
  808MOL0     H 9027  -0.946  11.547   1.436  1.3856 -0.4805 -0.7292
  808MOL0     H 9028  -0.863  11.472   1.567 -0.4417 -0.2012 -0.0173
  808MOL0     H 9029  -0.777  11.747   1.457 -1.1513  0.6501  0.6372
  808MOL0     H 9030  -0.700  11.649   1.587 -1.1398 -1.7052 -0.0651
  808MOL0     H 9031  -1.083  11.738   1.505 -1.2653 -1.1392 -0.0631
  808MOL0     H 9032  -1.285  11.784   1.714 -1.6006  1.9777 -1.8610
  808MOL0     H 9033  -1.229  11.882   1.856 -1.6144  2.2837 -0.0809
  808MOL0     H 9034  -1.223  11.971   1.562 -2.2681  0.3058 -1.2228
  808MOL0     H 9035  -1.179  12.072   1.694  2.9552 -1.1069 -2.6512
  808MOL0     H 9036  -1.443  11.948   1.632  0.7154  0.0689 -1.5809
  808MOL0     H 9037  -1.417  12.126   1.623  1.7843 -0.2415  0.1821
  808MOL0     H 9038  -1.403  12.103   1.876  0.1064 -0.3393 -0.4041
  808MOL0     H 9039  -1.459  11.941   1.857 -0.1606 -0.0516  0.8800
  808MOL0     H 9040  -1.794  12.188   1.786 -0.7064 -1.4374 -0.2071
  808MOL0     H 9041  -1.984  12.303   1.837  0.2057  2.7167  1.4933
  808MOL0     H 9042  -2.114  12.231   1.935  0.1897  0.2745  0.0569
  808MOL0     H 9043  -1.989  12.353   1.993 -0.4542  0.8286 -1.0733
  808MOL0     H 9044  -2.289  12.369   2.215 -0.3874 -0.0674  0.1002
  808MOL0     H 9045  -2.476  12.356   2.382 -4.4519 -2.7570  0.1363
  808MOL0     H 9046  -2.550  12.315   2.625 -0.8907 -0.0936  1.7982
  808MOL0     H 9047  -2.656  12.339   2.494 -0.5437 -2.2512 -1.6344
  808MOL0     H 9048  -2.700  12.150   2.730  1.2133  1.4134  0.4846
  808MOL0     H 9049  -2.766  12.306   2.726 -2.6330 -2.5246  2.9796
  808MOL0     H 9050  -2.851  12.178   2.469  2.0751 -1.7458 -0.8968
  808MOL0     H 9051  -2.945  12.199   2.621  0.7267  0.0534 -0.0349
  808MOL0     H 9052  -2.766  11.952   2.575  0.8250  0.2628 -2.0799
  808MOL0     H 9053  -2.884  11.977   2.704  0.5369 -1.2222 -0.1406
  808MOL0     H 9054  -2.963  11.994   2.413 -0.7785  0.7376  0.3985
  808MOL0     H 9055  -3.076  12.004   2.553  0.8862  0.5346  0.9849
  808MOL0     H 9056  -3.077  11.774   2.438 -0.6088 -0.8274  0.7352
  808MOL0     H 9057  -2.906  11.768   2.456 -1.9247  1.6014 -3.4135
  808MOL0     H 9058  -3.096  11.801   2.704  0.9867  0.6819 -0.6646
  808MOL0     H 9059  -2.932  11.758   2.714 -0.0265  2.4687  0.8832
  808MOL0     H 9060  -2.993  11.548   2.565 -0.4313  0.7040 -1.1300
  808MOL0     H 9061  -3.156  11.612   2.559  1.6822  1.4647 -2.1958
  808MOL0     H 9062  -2.411  11.950   2.462  0.1573  0.1238  0.3087
  808MOL0     H 9063  -2.206  11.953   2.323  0.2843  0.9397  0.1646
  808MOL0     H 9064  -1.773  11.928   2.195 -2.9473 -1.1011 -0.3355
  808MOL0     H 9065  -1.591  11.921   2.023  0.0153  1.2425 -0.5071
  808MOL0     H 9066  -0.029  11.317   0.988  0.8453  0.6850 -1.3966
  808MOL0     H 9067   0.216  11.332   0.944  0.1199  1.4342  0.2738
  808MOL0     H 9068   0.593  11.380   1.122  0.0575  2.8012 -3.1020
  808MOL0     H 9069   0.852  11.393   1.154 -1.9749  1.1038 -1.4254
  808MOL0     H 9070   1.193  11.355   1.036  0.2659  0.9997  1.5997
  808MOL0     H 9071   1.058  11.442   1.109 -0.9741 -0.2215 -1.5646
  808MOL0     H 9072   1.128  11.159   1.175  2.2193  2.0534 -3.3321
  808MOL0     H 9073   0.993  11.257   1.248  0.3727  1.7471 -0.0258
  808MOL0     H 9074   1.292  11.330   1.270 -0.4598  1.5511 -0.8171
  808MOL0     H 9075   1.212  11.223   1.377  1.1149 -1.4052 -1.2421
  808MOL0     H 9076   1.051  11.404   1.443  0.0965  0.3980 -0.8893
  808MOL0     H 9077   1.127  11.501   1.315  1.1189 -0.9403 -0.2528
  808MOL0     H 9078   1.412  11.507   1.637  0.3520  0.4793 -1.2410
  808MOL0     H 9079   0.883  11.129   0.817  0.4567  3.0447 -1.3579
  808MOL0     H 9080   0.647  11.086   0.816  0.2729 -0.7328  0.5021
  809MOL0     O 9081   9.742   1.559   5.108  0.4259  0.4654 -0.3983
  809MOL0     C 9082   9.694   1.660   5.065  0.7796 -0.2117  0.1009
  809MOL0     O 9083   9.758   1.754   4.988 -0.2981 -0.0169 -0.3617
  809MOL0     C 9084   9.884   1.732   4.967 -0.3473 -0.8826  0.5292
  809MOL0     C 9085   9.991   1.788   5.045 -0.0336  0.2530 -0.3302
  809MOL0     C 9086  10.130   1.768   5.016  0.2777 -0.6386 -1.0456
  809MOL0     C 9087  10.174   1.685   4.909 -0.2789 -0.3205  0.5405
  809MOL0     O 9088  10.312   1.679   4.894 -0.5290 -0.0989 -0.5097
  809MOL0     C 9089  10.377   1.628   4.773  0.2880 -0.1733 -1.0051
  809MOL0     C 9090  10.412   1.480   4.774 -0.5024  0.7453  1.6528
  809MOL0     C 9091  10.530   1.454   4.874  0.1194 -0.5510  1.0370
  809MOL0     C 9092  10.532   1.301   4.907 -0.3151 -0.2637 -0.2819
  809MOL0     C 9093  10.631   1.256   5.010  1.3247  0.3222  0.1428
  809MOL0     C 9094  10.603   1.119   5.071 -0.1251 -0.4324 -1.0146
  809MOL0     C 9095  10.703   1.070   5.178 -0.1280 -0.7421  0.5493
  809MOL0     C 9096  10.820   0.981   5.114 -0.3693  0.6128 -0.3278
  809MOL0     N 9097  10.779   0.850   5.037 -0.5696 -0.7283 -0.2499
  809MOL0     C 9098  10.724   0.733   5.087 -0.1863  0.6058 -0.1542
  809MOL0     C 9099  10.685   0.670   4.977  0.5191  0.3020  0.6964
  809MOL0     C 9100  10.580   0.558   4.982 -0.4062  0.3354 -0.2151
  809MOL0     C 9101  10.440   0.610   5.033 -0.2339  0.6351  0.7683
  809MOL0     C 9102  10.337   0.487   5.025  0.9487 -0.4014 -1.1911
  809MOL0     C 9103  10.192   0.543   5.042  0.3417 -0.0601 -0.5702
  809MOL0     O 9104  10.095   0.440   5.048  0.1495 -0.0423 -0.8509
  809MOL0     C 9105   9.960   0.471   5.034 -0.8199  0.1671  0.9015
  809MOL0     C 9106   9.876   0.366   5.066  0.3602 -0.4070 -0.8053
  809MOL0     C 9107   9.738   0.376   5.050 -0.4891 -0.4995  0.0370
  809MOL0     C 9108   9.665   0.255   5.075 -0.2002  0.7389 -0.1949
  809MOL0     C 9109   9.681   0.496   5.001  0.5524 -0.7497  0.1523
  809MOL0     C 9110   9.535   0.523   4.974  0.6727  0.1147 -0.0069
  809MOL0     O 9111   9.493   0.647   4.964 -0.0020 -0.1114 -0.0503
  809MOL0     C 9112   9.365   0.695   4.993  0.5275  0.8182  0.0156
  809MOL0     C 9113   9.322   0.820   4.929 -0.1340  0.3374 -0.4950
  809MOL0     C 9114   9.189   0.867   4.957  0.1503 -0.3539 -0.0073
  809MOL0     C 9115   9.102   0.808   5.053 -0.0318 -0.3390 -0.0161
  809MOL0     O 9116   8.978   0.869   5.097 -0.0508  0.4063  0.0942
  809MOL0     C 9117   8.929   0.976   5.017  1.1115 -0.5253 -0.6672
  809MOL0     C 9118   8.781   1.009   5.042  0.2259 -0.1389  0.1168
  809MOL0     C 9119   8.740   1.071   5.173  0.3526  0.2375 -0.3224
  809MOL0     C 9120   8.709   0.963   5.274  0.2456  0.2538 -0.3244
  809MOL0     C 9121   8.669   1.022   5.414  0.7895  0.7001  0.4875
  809MOL0     C 9122   8.706   0.922   5.524  0.5040 -0.3346  0.0069
  809MOL0     C 9123   8.679   0.970   5.664 -0.7170 -0.3714 -0.0858
  809MOL0     C 9124   8.720   0.873   5.769 -0.9666 -0.9076  0.6673
  809MOL0    Cl 9125   8.635   0.714   5.760  0.2740 -0.2374  0.0050
  809MOL0     C 9126   9.145   0.684   5.096  0.1455  0.1492 -0.4272
  809MOL0     C 9127   9.261   0.619   5.057  0.1744 -0.0196 -0.1681
  809MOL0     O 9128   9.460   0.424   4.966 -0.2790 -0.5928  0.1511
  809MOL0     C 9129   9.771   0.601   4.975 -0.3045  0.3924  0.1254
  809MOL0     C 9130   9.904   0.591   4.989 -0.4171 -0.2292 -0.7298
  809MOL0     N 9131  10.717   0.744   4.867 -0.5828  0.4148  0.0550
  809MOL0     N 9132  10.771   0.850   4.898  0.1616 -0.1844  0.1586
  809MOL0     C 9133  10.072   1.621   4.835 -0.4877 -0.4415  0.4854
  809MOL0     C 9134   9.933   1.648   4.862  0.4894  0.3767  0.4363
  809MOL0     C 9135   9.557   1.698   5.113  0.6506 -0.6173  0.1420
  809MOL0     C 9136   9.504   1.828   5.088  0.7488 -0.0538 -0.3026
  809MOL0     C 9137   9.374   1.857   5.124  0.2041  0.1559 -0.4465
  809MOL0     C 9138   9.302   1.771   5.197  0.6278  0.2581  0.2338
  809MOL0     O 9139   9.187   1.821   5.262  0.1168  0.3576  0.0005
  809MOL0     C 9140   9.069   1.754   5.214 -0.0299 -0.2357 -0.4502
  809MOL0     C 9141   9.014   1.813   5.083  0.2970  0.4496 -0.5085
  809MOL0     C 9142   8.976   1.964   5.115  0.5895 -0.1804  0.1452
  809MOL0     C 9143   8.960   2.044   4.987 -0.8776 -0.2716 -0.4619
  809MOL0     C 9144   9.098   2.083   4.939 -1.0005  0.9490  0.2545
  809MOL0     C 9145   9.205   2.102   4.882 -0.1929  0.4750  0.2823
  809MOL0     C 9146   9.349   1.641   5.232 -0.1163 -0.0450  0.3508
  809MOL0     C 9147   9.476   1.610   5.196  0.2648 -0.0706 -0.0404
  809MOL0     H 9148   9.968   1.842   5.136 -3.7519 -1.1560 -0.2969
  809MOL0     H 9149  10.190   1.809   5.097 -1.1092 -2.3311  0.9564
  809MOL0     H 9150  10.320   1.648   4.682  0.0325  4.0470 -0.1460
  809MOL0     H 9151  10.474   1.678   4.758 -0.0960  0.2906 -2.0502
  809MOL0     H 9152  10.328   1.430   4.824 -0.0613 -1.1941  0.5254
  809MOL0     H 9153  10.433   1.432   4.678 -1.4680 -1.8714  2.6637
  809MOL0     H 9154  10.626   1.489   4.835  1.0520 -1.8567  2.0859
  809MOL0     H 9155  10.513   1.515   4.964  0.3798  0.0143  0.7118
  809MOL0     H 9156  10.439   1.261   4.948  0.0452  0.9210  1.7927
  809MOL0     H 9157  10.555   1.252   4.811  1.8507 -2.4725  1.2310
  809MOL0     H 9158  10.726   1.254   4.956 -0.1475 -1.5989 -2.6423
  809MOL0     H 9159  10.634   1.326   5.093 -1.8274  1.9190 -0.9458
  809MOL0     H 9160  10.507   1.127   5.123  0.7230 -0.7319  0.6723
  809MOL0     H 9161  10.590   1.044   4.993 -0.9570 -1.0238 -0.3283
  809MOL0     H 9162  10.754   1.150   5.233  0.6074 -1.1906  0.5409
  809MOL0     H 9163  10.668   1.008   5.261  4.0755 -3.4843  0.5944
  809MOL0     H 9164  10.877   0.947   5.202 -0.6091 -0.5433 -0.6003
  809MOL0     H 9165  10.883   1.042   5.049 -0.8899 -0.1160 -1.5527
  809MOL0     H 9166  10.707   0.693   5.186  1.5674  1.2035  0.4336
  809MOL0     H 9167  10.577   0.503   4.887 -1.7069 -2.2033  1.1748
  809MOL0     H 9168  10.609   0.486   5.059 -3.0924  0.7882  1.3642
  809MOL0     H 9169  10.397   0.694   4.978 -1.5595  0.0061  0.8141
  809MOL0     H 9170  10.450   0.638   5.138  0.1420  2.8742  0.1822
  809MOL0     H 9171  10.371   0.403   5.086  2.1448 -0.1397 -1.4744
  809MOL0     H 9172  10.336   0.442   4.925 -0.4350 -2.3505 -0.3724
  809MOL0     H 9173  10.168   0.605   4.955  1.9893 -0.6418 -1.4931
  809MOL0     H 9174  10.183   0.600   5.134 -0.5452 -0.5232 -0.3547
  809MOL0     H 9175   9.921   0.279   5.113  0.4793  1.2531  2.4156
  809MOL0     H 9176   9.718   0.174   5.125 -1.2983 -0.3178 -0.7118
  809MOL0     H 9177   9.578   0.267   5.140  1.9962  0.4047  3.0489
  809MOL0     H 9178   9.646   0.218   4.974  0.7977 -0.9138  0.1963
  809MOL0     H 9179   9.387   0.879   4.865 -0.0483 -1.3751 -2.0885
  809MOL0     H 9180   9.157   0.957   4.905  2.0197 -1.1246 -2.6992
  809MOL0     H 9181   8.982   1.068   5.044 -0.7969  0.4750 -0.2062
  809MOL0     H 9182   8.940   0.943   4.913  0.2761 -2.5438 -0.1753
  809MOL0     H 9183   8.757   1.084   4.966  1.0115 -1.5151 -1.5859
  809MOL0     H 9184   8.730   0.915   5.017  0.5920 -0.2321 -0.3103
  809MOL0     H 9185   8.652   1.132   5.150  1.8112  2.5754 -0.0697
  809MOL0     H 9186   8.810   1.147   5.209 -0.6482  0.7134  0.6551
  809MOL0     H 9187   8.629   0.895   5.242 -2.1008  2.3092  0.9134
  809MOL0     H 9188   8.796   0.898   5.293 -0.0628 -0.0002  0.2526
  809MOL0     H 9189   8.562   1.042   5.424  1.2841  4.4228  0.0623
  809MOL0     H 9190   8.725   1.116   5.427  1.6516  0.3066 -0.3247
  809MOL0     H 9191   8.659   0.826   5.502  0.0708  0.4140 -2.7138
  809MOL0     H 9192   8.813   0.904   5.524  0.4680 -0.5690 -0.6591
  809MOL0     H 9193   8.572   0.989   5.681 -0.4765  0.1937  0.9375
  809MOL0     H 9194   8.731   1.064   5.686  0.0549 -0.5751 -1.0096
  809MOL0     H 9195   8.699   0.918   5.866  0.2436  0.9222  0.1441
  809MOL0     H 9196   8.828   0.854   5.761 -0.5878  1.0537  0.6391
  809MOL0     H 9197   9.076   0.642   5.169  0.2138  3.1433  1.5468
  809MOL0     H 9198   9.269   0.517   5.094 -0.2679 -0.6168 -1.6254
  809MOL0     H 9199   9.730   0.692   4.934 -2.4100 -0.7150 -0.3704
  809MOL0     H 9200   9.955   0.682   4.958 -5.0643  3.3426  0.8591
  809MOL0     H 9201  10.096   1.549   4.758 -3.5837  0.7281 -1.8250
  809MOL0     H 9202   9.875   1.587   4.794  3.0436 -1.6380 -0.0505
  809MOL0     H 9203   9.553   1.905   5.030 -0.4488  0.0232 -1.2485
  809MOL0     H 9204   9.332   1.957   5.116 -1.7122 -0.4423  1.3347
  809MOL0     H 9205   9.086   1.646   5.209  1.5972 -0.0322  0.2721
  809MOL0     H 9206   9.005   1.772   5.301 -0.0413  1.0082 -0.6921
  809MOL0     H 9207   8.936   1.759   5.029 -0.5910  0.5168  0.6743
  809MOL0     H 9208   9.099   1.815   5.015 -2.0384 -2.0135 -3.8151
  809MOL0     H 9209   9.048   2.019   5.176  1.6308  0.7564 -1.8292
  809MOL0     H 9210   8.882   1.955   5.170  0.8205 -3.3981  0.2498
  809MOL0     H 9211   8.899   2.130   5.016 -1.5608 -0.5039 -1.1713
  809MOL0     H 9212   8.904   1.972   4.927  0.0007 -4.1203  2.8613
  809MOL0     H 9213   9.289   2.117   4.818  0.8886  2.6610  2.0510
  809MOL0     H 9214   9.298   1.568   5.294  1.8110 -1.2135  0.6271
  809MOL0     H 9215   9.517   1.511   5.216  0.6847 -0.1995 -1.3911
  810MOL0     O 9216   2.938   3.513  10.448  0.3501 -0.3195 -0.0734
  810MOL0     C 9217   2.930   3.398  10.489  0.5609  0.3888 -0.3343
  810MOL0     O 9218   2.818   3.310  10.465 -0.1713  0.2783 -1.2136
  810MOL0     C 9219   2.760   3.292  10.348 -0.9772  0.4868  0.2839
  810MOL0     C 9220   2.640   3.214  10.345  0.6517 -0.2895  0.8192
  810MOL0     C 9221   2.583   3.179  10.219  0.5540  0.5090  0.1972
  810MOL0     C 9222   2.643   3.216  10.094  0.3264  0.7511  0.2531
  810MOL0     O 9223   2.584   3.197   9.971 -0.8539  0.1736  0.1985
  810MOL0     C 9224   2.479   3.274   9.925  0.5571 -0.7942  0.4377
  810MOL0     C 9225   2.342   3.211   9.945 -0.5943  0.0549 -0.9998
  810MOL0     C 9226   2.314   3.084   9.860 -0.4381  0.7134 -0.7418
  810MOL0     C 9227   2.163   3.056   9.862 -0.7000  0.5462 -1.0796
  810MOL0     C 9228   2.127   2.917   9.824  0.0372 -0.3312  0.1208
  810MOL0     C 9229   1.977   2.916   9.780 -0.2311  0.0267  0.4338
  810MOL0     C 9230   1.920   2.779   9.762 -0.2371  0.0280  0.8252
  810MOL0     C 9231   1.929   2.752   9.605 -0.8491  0.7811 -0.0890
  810MOL0     N 9232   1.954   2.604   9.581  0.0797 -0.0905 -0.1890
  810MOL0     C 9233   2.044   2.532   9.642  0.6220 -1.0889 -0.1024
  810MOL0     C 9234   2.022   2.405   9.591 -0.3606 -0.8776  0.3394
  810MOL0     C 9235   2.068   2.283   9.655  0.0065 -0.0038 -0.5544
  810MOL0     C 9236   2.061   2.163   9.553  1.0180 -0.1777  0.0673
  810MOL0     C 9237   2.100   2.039   9.626  0.9013  0.3185 -0.0611
  810MOL0     C 9238   2.119   1.914   9.532 -0.0809  0.0579  0.2140
  810MOL0     O 9239   2.220   1.943   9.426 -0.6149 -1.0798  0.0659
  810MOL0     C 9240   2.347   1.948   9.471 -0.2919 -0.6179  0.6554
  810MOL0     C 9241   2.408   2.071   9.509 -0.3976  0.9080  0.3876
  810MOL0     C 9242   2.548   2.069   9.547  0.6691  0.2754 -0.6987
  810MOL0     C 9243   2.611   2.196   9.605  0.1318 -0.4695 -1.0857
  810MOL0     C 9244   2.629   1.951   9.533  0.7375  0.3533 -0.4517
  810MOL0     C 9245   2.773   1.940   9.559  0.7942 -0.6169  0.3404
  810MOL0     O 9246   2.847   2.043   9.509 -0.0860  0.1296 -0.4407
  810MOL0     C 9247   2.974   2.070   9.554 -0.0859 -0.7870  0.2132
  810MOL0     C 9248   3.032   2.191   9.505 -0.6597  0.6571  0.5335
  810MOL0     C 9249   3.165   2.229   9.537 -0.9215  0.2881  0.3129
  810MOL0     C 9250   3.235   2.159   9.643  0.5907  0.8179 -0.0290
  810MOL0     O 9251   3.352   2.188   9.697 -0.4691 -0.8829  0.9207
  810MOL0     C 9252   3.440   2.289   9.641 -0.2693 -0.4669  0.5414
  810MOL0     C 9253   3.542   2.318   9.747  0.7198 -0.3569  0.1123
  810MOL0     C 9254   3.644   2.206   9.745  0.6746 -0.7062 -0.8486
  810MOL0     C 9255   3.765   2.240   9.830 -0.5933  0.3477 -0.2018
  810MOL0     C 9256   3.833   2.113   9.894 -0.0099 -0.6989 -0.3302
  810MOL0     C 9257   3.980   2.144   9.951  0.2861  1.0138  0.6497
  810MOL0     C 9258   3.982   2.236  10.069  0.3898 -0.0495 -0.3710
  810MOL0     C 9259   4.112   2.220  10.157  0.4717 -0.7309  0.1868
  810MOL0    Cl 9260   4.119   2.065  10.235  0.2034 -0.0146 -0.5489
  810MOL0     C 9261   3.169   2.052   9.702  0.2966  0.9152  0.1712
  810MOL0     C 9262   3.041   2.006   9.659  0.1234  0.0535 -0.2099
  810MOL0     O 9263   2.817   1.846   9.623 -0.0476  0.1248 -0.4848
  810MOL0     C 9264   2.563   1.831   9.487 -0.3133 -0.4212 -0.6423
  810MOL0     C 9265   2.419   1.831   9.464 -0.7156 -0.1947 -0.0164
  810MOL0     N 9266   1.944   2.413   9.478 -0.3320 -0.5070 -0.8680
  810MOL0     N 9267   1.892   2.531   9.482  0.4099 -0.2682 -0.2847
  810MOL0     C 9268   2.758   3.294  10.107  0.0454 -0.8553  0.1622
  810MOL0     C 9269   2.809   3.336  10.222  0.1500  0.2189 -0.5035
  810MOL0     C 9270   3.042   3.347  10.574 -0.1783  0.1964 -0.3267
  810MOL0     C 9271   3.036   3.228  10.648  1.2226 -0.7959 -0.7349
  810MOL0     C 9272   3.147   3.178  10.717  0.1537  0.3997 -0.4148
  810MOL0     C 9273   3.259   3.261  10.739 -0.2550  0.2556  0.8051
  810MOL0     O 9274   3.350   3.213  10.825  0.2073 -0.2393 -0.0680
  810MOL0     C 9275   3.479   3.280  10.837 -0.0175 -0.1997  0.0967
  810MOL0     C 9276   3.586   3.211  10.930  0.3837 -0.4156  0.0828
  810MOL0     C 9277   3.733   3.247  10.887  0.4285 -0.0978 -0.2831
  810MOL0     C 9278   3.838   3.177  10.977  0.0237 -0.4672  0.4069
  810MOL0     C 9279   3.814   3.188  11.120 -0.4923 -0.3115  0.5607
  810MOL0     C 9280   3.772   3.188  11.233 -0.1656  0.5405  0.2355
  810MOL0     C 9281   3.272   3.380  10.664  0.0942  0.0895 -0.1705
  810MOL0     C 9282   3.161   3.416  10.581 -0.8225 -0.3997 -0.7860
  810MOL0     H 9283   2.585   3.177  10.432 -0.3521 -1.5325 -0.2930
  810MOL0     H 9284   2.499   3.110  10.221  0.7340  0.3021  2.1893
  810MOL0     H 9285   2.478   3.379   9.955  0.0850 -0.9785  1.0798
  810MOL0     H 9286   2.490   3.279   9.816  2.3667 -0.1269  0.6084
  810MOL0     H 9287   2.343   3.190  10.053  1.5413  0.3509 -0.9243
  810MOL0     H 9288   2.263   3.282   9.920  0.0179  1.1967  0.1727
  810MOL0     H 9289   2.355   3.080   9.759  0.1680 -2.8092 -0.4893
  810MOL0     H 9290   2.359   3.002   9.917  0.1502  1.2811 -0.3708
  810MOL0     H 9291   2.122   3.072   9.962 -2.2417  2.4969 -1.9527
  810MOL0     H 9292   2.124   3.128   9.789 -1.3062  0.5774 -0.7320
  810MOL0     H 9293   2.184   2.907   9.732  1.5669  1.6541  0.8065
  810MOL0     H 9294   2.156   2.853   9.908  1.9655 -1.0795 -1.0358
  810MOL0     H 9295   1.932   2.959   9.871  1.7323  1.7680  0.6544
  810MOL0     H 9296   1.947   2.979   9.696 -5.1326 -1.5332  0.6706
  810MOL0     H 9297   1.966   2.711   9.834  1.0229  0.9171  0.8937
  810MOL0     H 9298   1.813   2.793   9.782 -0.1853  1.5170  0.2003
  810MOL0     H 9299   1.996   2.815   9.545  1.1187  1.7259  2.8763
  810MOL0     H 9300   1.834   2.768   9.553 -0.2192 -3.1506 -2.9186
  810MOL0     H 9301   2.093   2.566   9.733  0.3355 -2.7686  0.7128
  810MOL0     H 9302   2.170   2.288   9.694 -0.6365 -2.5499  1.7305
  810MOL0     H 9303   2.003   2.254   9.738 -0.6764  3.6070  0.3355
  810MOL0     H 9304   2.125   2.186   9.468 -1.1807  1.9270 -1.1252
  810MOL0     H 9305   1.962   2.152   9.507  2.8428 -5.3016 -3.6716
  810MOL0     H 9306   2.038   2.004   9.709 -1.2835 -0.4193 -1.8858
  810MOL0     H 9307   2.197   2.054   9.674 -0.1838  0.8442  2.0807
  810MOL0     H 9308   2.023   1.892   9.484 -0.8455  4.4700 -0.7663
  810MOL0     H 9309   2.158   1.829   9.589  0.6367  0.6312  0.5928
  810MOL0     H 9310   2.351   2.162   9.509  0.3621  1.4384 -1.3931
  810MOL0     H 9311   2.646   2.251   9.517  2.5213 -1.2695 -0.7019
  810MOL0     H 9312   2.542   2.262   9.659 -1.0595 -0.0351 -3.0472
  810MOL0     H 9313   2.700   2.180   9.666 -1.0337  0.6113  1.0240
  810MOL0     H 9314   2.985   2.248   9.426  0.5919  1.6581  0.4674
  810MOL0     H 9315   3.216   2.299   9.472  1.5285  0.1818  1.9704
  810MOL0     H 9316   3.479   2.250   9.547 -0.9378 -0.8772  0.4262
  810MOL0     H 9317   3.387   2.382   9.619  2.8782  1.2914 -0.1591
  810MOL0     H 9318   3.587   2.415   9.726 -0.8873  0.6718  1.1808
  810MOL0     H 9319   3.488   2.326   9.842 -2.4178  1.7900 -1.6531
  810MOL0     H 9320   3.687   2.202   9.645 -0.6940  1.1082 -1.5751
  810MOL0     H 9321   3.607   2.106   9.770 -0.1039 -0.3762 -0.6507
  810MOL0     H 9322   3.841   2.289   9.767 -0.9234  2.0317  0.6563
  810MOL0     H 9323   3.738   2.313   9.906  1.6400  3.5388 -2.1803
  810MOL0     H 9324   3.836   2.042   9.811  2.3583  0.3199 -1.2277
  810MOL0     H 9325   3.780   2.059   9.972  2.3962 -1.2927  0.9951
  810MOL0     H 9326   4.022   2.045   9.973 -1.2612 -0.2637 -1.7049
  810MOL0     H 9327   4.048   2.181   9.875  1.4191  1.5155  1.8663
  810MOL0     H 9328   3.895   2.222  10.133  1.4916  1.9202  1.7127
  810MOL0     H 9329   3.973   2.339  10.032 -0.6522 -0.2182 -0.6262
  810MOL0     H 9330   4.108   2.308  10.222  2.8956 -0.0514 -0.4731
  810MOL0     H 9331   4.191   2.248  10.087 -1.1567 -1.5347 -2.1052
  810MOL0     H 9332   3.232   2.000   9.773 -0.2837 -0.1020 -0.0461
  810MOL0     H 9333   3.012   1.930   9.731 -2.7191  2.2368  1.1550
  810MOL0     H 9334   2.628   1.745   9.484  1.9391  1.0661  1.5721
  810MOL0     H 9335   2.371   1.735   9.454  1.3915 -1.2596 -0.3963
  810MOL0     H 9336   2.822   3.340  10.033  0.7692 -0.3998  1.0450
  810MOL0     H 9337   2.900   3.396  10.224  1.2136 -1.3429  0.0787
  810MOL0     H 9338   2.946   3.168  10.648 -0.1639  1.1066  1.3749
  810MOL0     H 9339   3.148   3.086  10.774  1.3603  0.9058  0.4124
  810MOL0     H 9340   3.523   3.280  10.736 -0.9570 -1.6002 -0.3462
  810MOL0     H 9341   3.464   3.380  10.879  2.4737 -0.2262  1.2518
  810MOL0     H 9342   3.578   3.102  10.922  0.7453 -0.5558  1.4798
  810MOL0     H 9343   3.564   3.247  11.031  2.2635  0.9071  0.0748
  810MOL0     H 9344   3.738   3.355  10.900 -1.6749 -0.0468  0.6115
  810MOL0     H 9345   3.746   3.220  10.782  2.4244 -0.9405  0.1312
  810MOL0     H 9346   3.935   3.223  10.957  0.5390 -1.7115  0.0003
  810MOL0     H 9347   3.843   3.069  10.962 -1.2363 -0.8781  2.4869
  810MOL0     H 9348   3.723   3.199  11.328 -0.8841 -1.4891  0.1385
  810MOL0     H 9349   3.358   3.446  10.667  2.4245 -2.7476  0.0068
  810MOL0     H 9350   3.166   3.513  10.531 -1.9684  0.4482  0.6520
  811MOL0     O 9351   8.179   4.085   0.702  0.3884  0.2794 -0.7186
  811MOL0     C 9352   8.205   4.153   0.604  1.1884 -0.1552 -0.4242
  811MOL0     O 9353   8.117   4.229   0.538 -0.1113  0.6870  0.2251
  811MOL0     C 9354   7.987   4.220   0.569  0.3627  0.5637 -0.1821
  811MOL0     C 9355   7.925   4.309   0.646 -0.1752 -0.8286 -0.2161
  811MOL0     C 9356   7.793   4.298   0.686 -0.2654 -0.3264  0.2908
  811MOL0     C 9357   7.714   4.188   0.653 -0.2831  0.0986  0.8717
  811MOL0     O 9358   7.588   4.166   0.696 -0.1172  0.6851 -0.2275
  811MOL0     C 9359   7.477   4.250   0.659  0.0285  0.1375 -0.1754
  811MOL0     C 9360   7.407   4.238   0.528 -0.1554  1.4922 -0.4807
  811MOL0     C 9361   7.267   4.283   0.534 -0.0676  0.3240 -0.5163
  811MOL0     C 9362   7.201   4.287   0.396 -0.4878  0.0231 -0.9205
  811MOL0     C 9363   7.103   4.402   0.371  0.6840  0.4206 -0.0801
  811MOL0     C 9364   6.995   4.420   0.485  0.3804 -0.1305  1.0267
  811MOL0     C 9365   6.915   4.553   0.460  0.0546  0.1340 -0.5312
  811MOL0     C 9366   6.807   4.562   0.574 -0.0067 -0.8321  0.0591
  811MOL0     N 9367   6.731   4.694   0.571 -0.0270  0.1323 -0.4447
  811MOL0     C 9368   6.635   4.737   0.479  0.6452  0.2424 -0.9571
  811MOL0     C 9369   6.611   4.866   0.526 -0.6586  0.0499  0.3977
  811MOL0     C 9370   6.495   4.953   0.485 -0.5598  0.2308 -0.2766
  811MOL0     C 9371   6.368   4.938   0.558 -0.8650 -0.0691 -0.4043
  811MOL0     C 9372   6.297   4.805   0.539 -0.7415  0.1448 -0.1550
  811MOL0     C 9373   6.164   4.804   0.610 -0.3280  0.7902 -0.1971
  811MOL0     O 9374   6.059   4.867   0.540 -0.0881  0.3685  0.4433
  811MOL0     C 9375   5.931   4.858   0.582 -1.4753  0.7604  0.8394
  811MOL0     C 9376   5.900   4.791   0.704 -0.4554  0.6461  0.0313
  811MOL0     C 9377   5.765   4.789   0.744  0.0611 -0.3600  0.7224
  811MOL0     C 9378   5.731   4.748   0.887  0.1274 -0.5362 -0.0650
  811MOL0     C 9379   5.664   4.834   0.657 -0.6287  0.0406  0.9421
  811MOL0     C 9380   5.514   4.838   0.678  0.0789 -0.3428 -0.6241
  811MOL0     O 9381   5.431   4.849   0.576 -0.6796  0.4153  0.7317
  811MOL0     C 9382   5.309   4.901   0.605 -0.4267 -0.0544  0.0797
  811MOL0     C 9383   5.210   4.818   0.639  0.1258  0.4780  0.6960
  811MOL0     C 9384   5.074   4.863   0.658 -0.4852 -0.0747 -0.6867
  811MOL0     C 9385   5.056   5.011   0.651 -0.3676  0.6588  0.7992
  811MOL0     O 9386   4.934   5.065   0.679 -0.2284  0.4743 -0.8611
  811MOL0     C 9387   4.833   4.978   0.728  0.7138  0.1314 -0.1595
  811MOL0     C 9388   4.714   5.056   0.778 -0.6359  0.1701  0.0551
  811MOL0     C 9389   4.580   4.992   0.772  0.0787 -0.0309  0.2956
  811MOL0     C 9390   4.552   4.864   0.849 -1.1614  0.2485 -1.4369
  811MOL0     C 9391   4.560   4.880   1.000 -1.3674 -0.4412 -0.0205
  811MOL0     C 9392   4.515   4.752   1.076 -0.0256 -0.2548  1.0597
  811MOL0     C 9393   4.574   4.741   1.218  0.0787 -0.1552  0.2007
  811MOL0     C 9394   4.523   4.845   1.312  0.0234 -0.0286  0.8922
  811MOL0    Cl 9395   4.558   4.772   1.475  0.0481 -0.1739 -0.1780
  811MOL0     C 9396   5.163   5.096   0.621  0.4166 -0.0611 -0.3577
  811MOL0     C 9397   5.291   5.040   0.590 -0.1773  0.2920  1.1710
  811MOL0     O 9398   5.484   4.848   0.796  0.6510  0.8365  0.4158
  811MOL0     C 9399   5.702   4.888   0.529 -0.5299  1.1660  0.0496
  811MOL0     C 9400   5.829   4.903   0.497  0.4756  0.4961 -0.2505
  811MOL0     N 9401   6.699   4.900   0.625  0.8961 -0.1119  0.5033
  811MOL0     N 9402   6.764   4.794   0.654  0.2205 -0.2431 -0.4227
  811MOL0     C 9403   7.770   4.087   0.571 -0.1124  0.3898 -0.3923
  811MOL0     C 9404   7.911   4.107   0.533 -0.5073  0.4919  0.0945
  811MOL0     C 9405   8.343   4.139   0.560 -0.1399  0.3141 -0.4996
  811MOL0     C 9406   8.409   4.239   0.490 -0.0812 -0.8538 -0.0157
  811MOL0     C 9407   8.542   4.219   0.441  0.6961  0.6460  0.3264
  811MOL0     C 9408   8.624   4.117   0.479 -0.0129 -0.5735  0.0475
  811MOL0     O 9409   8.751   4.106   0.427 -0.0938 -0.1332  1.2439
  811MOL0     C 9410   8.816   3.978   0.447 -0.1585  0.1589 -0.2526
  811MOL0     C 9411   8.963   3.973   0.407 -0.4805  0.3015  0.3581
  811MOL0     C 9412   9.023   3.835   0.398 -0.4636  0.6900  0.4104
  811MOL0     C 9413   9.165   3.844   0.358  0.1843  0.7830  0.4198
  811MOL0     C 9414   9.257   3.876   0.467 -0.5925 -0.3849 -1.1653
  811MOL0     C 9415   9.348   3.903   0.543 -0.2668  1.0837  0.0264
  811MOL0     C 9416   8.564   4.021   0.558  1.0168  1.0035 -0.5993
  811MOL0     C 9417   8.428   4.029   0.601 -0.5360 -0.1637 -0.0193
  811MOL0     H 9418   7.976   4.392   0.693  0.2087 -1.2878  0.1964
  811MOL0     H 9419   7.751   4.378   0.746  1.6263  0.4067  0.6810
  811MOL0     H 9420   7.404   4.235   0.739  0.1925  1.3370  0.2229
  811MOL0     H 9421   7.507   4.353   0.678 -0.2744 -0.0937  1.7914
  811MOL0     H 9422   7.458   4.281   0.441 -0.4586 -0.5999 -1.7492
  811MOL0     H 9423   7.404   4.132   0.503  0.1748  1.2746  0.3761
  811MOL0     H 9424   7.209   4.222   0.604 -1.1365  0.8747 -0.9014
  811MOL0     H 9425   7.269   4.385   0.573  1.3830 -0.3085  1.2086
  811MOL0     H 9426   7.278   4.315   0.323 -0.7646  3.2211 -0.1402
  811MOL0     H 9427   7.151   4.193   0.371 -2.2620  1.3748 -2.7803
  811MOL0     H 9428   7.157   4.497   0.374  1.5527 -0.0784  1.1128
  811MOL0     H 9429   7.047   4.386   0.278 -0.7673 -0.5444  0.9292
  811MOL0     H 9430   6.926   4.335   0.481 -2.4420  2.1008 -0.7890
  811MOL0     H 9431   7.032   4.419   0.588  0.1907 -0.8641  1.0982
  811MOL0     H 9432   6.978   4.642   0.467 -1.0971  0.8902  0.5337
  811MOL0     H 9433   6.872   4.541   0.360  0.8873 -3.7182 -0.5688
  811MOL0     H 9434   6.849   4.550   0.675 -0.3381 -0.9255  0.1880
  811MOL0     H 9435   6.747   4.472   0.553 -0.5884 -0.5383  0.4383
  811MOL0     H 9436   6.588   4.674   0.404  0.0390  0.3680 -0.6868
  811MOL0     H 9437   6.520   5.059   0.494 -1.8041  0.4083  1.4338
  811MOL0     H 9438   6.471   4.934   0.379 -0.0999 -0.5879 -0.2486
  811MOL0     H 9439   6.305   5.024   0.532  0.7263  0.6873 -2.0034
  811MOL0     H 9440   6.393   4.946   0.664 -3.2503 -0.5049  0.2621
  811MOL0     H 9441   6.355   4.724   0.586 -0.2400  2.0980  2.8699
  811MOL0     H 9442   6.289   4.788   0.432  1.7002  2.6416 -0.8501
  811MOL0     H 9443   6.185   4.852   0.706  0.2517 -3.3812  1.9994
  811MOL0     H 9444   6.134   4.701   0.632  1.2358  0.2216 -0.5452
  811MOL0     H 9445   5.972   4.753   0.776 -0.3044  1.0798  0.1186
  811MOL0     H 9446   5.671   4.657   0.873  3.0649 -2.4127 -1.6861
  811MOL0     H 9447   5.823   4.727   0.942  1.7974  0.5275 -2.2773
  811MOL0     H 9448   5.669   4.822   0.937 -0.7493 -0.4211 -1.2751
  811MOL0     H 9449   5.240   4.713   0.642 -1.2930 -0.1805 -2.7023
  811MOL0     H 9450   4.997   4.791   0.682 -1.1810  0.3933 -1.4505
  811MOL0     H 9451   4.799   4.922   0.641  1.2159 -2.8841  1.4622
  811MOL0     H 9452   4.859   4.911   0.810  2.6405  1.1455  0.1082
  811MOL0     H 9453   4.736   5.091   0.879  0.4059 -0.8441  0.1994
  811MOL0     H 9454   4.697   5.148   0.722 -0.3849 -0.4359 -1.0387
  811MOL0     H 9455   4.572   4.963   0.667  2.5952 -0.2930  0.1190
  811MOL0     H 9456   4.503   5.066   0.795  0.4096  0.0553  1.1941
  811MOL0     H 9457   4.451   4.830   0.826 -1.7897  1.1702 -0.1856
  811MOL0     H 9458   4.631   4.792   0.827 -1.5520 -0.6896  0.0535
  811MOL0     H 9459   4.500   4.966   1.030  1.7732  1.4945  1.2211
  811MOL0     H 9460   4.658   4.922   1.024 -1.6282  0.5459 -0.6063
  811MOL0     H 9461   4.406   4.752   1.084 -0.4940  0.8915 -2.9842
  811MOL0     H 9462   4.537   4.661   1.018 -1.7536  1.2113 -2.1740
  811MOL0     H 9463   4.680   4.766   1.217 -0.0147  0.4313 -2.3522
  811MOL0     H 9464   4.557   4.642   1.261  2.3290 -0.2108  1.1265
  811MOL0     H 9465   4.417   4.870   1.301  0.0866 -0.1220 -0.0956
  811MOL0     H 9466   4.578   4.938   1.292 -0.8570  0.4423  0.5922
  811MOL0     H 9467   5.160   5.204   0.629  0.8146 -0.0824  0.0846
  811MOL0     H 9468   5.375   5.106   0.574  1.0830 -1.0189  2.1185
  811MOL0     H 9469   5.617   4.924   0.472 -1.3315 -0.8565 -0.1110
  811MOL0     H 9470   5.855   4.955   0.406  0.4781 -0.1875 -0.6424
  811MOL0     H 9471   7.714   4.001   0.535  0.1744  0.4565 -1.0112
  811MOL0     H 9472   7.961   4.048   0.456 -1.3146 -0.9124  0.6172
  811MOL0     H 9473   8.352   4.328   0.468  0.8258 -0.3441 -0.3646
  811MOL0     H 9474   8.586   4.286   0.368 -0.2905  1.7649  0.7160
  811MOL0     H 9475   8.808   3.957   0.554  1.7491  4.2084  0.8985
  811MOL0     H 9476   8.771   3.903   0.382  2.0301 -1.1846 -0.3049
  811MOL0     H 9477   9.027   4.027   0.477 -1.7582  0.7478  1.2349
  811MOL0     H 9478   8.969   4.009   0.304 -0.8282 -0.3426  0.1058
  811MOL0     H 9479   8.961   3.783   0.325 -1.2199  0.0550  1.4774
  811MOL0     H 9480   9.019   3.779   0.492  0.2513  1.9825  1.2375
  811MOL0     H 9481   9.175   3.910   0.271 -0.4101  0.3683  0.0312
  811MOL0     H 9482   9.200   3.746   0.323 -0.4467  0.5315  0.4883
  811MOL0     H 9483   9.417   3.939   0.617 -1.0120  0.3808  1.0832
  811MOL0     H 9484   8.619   3.937   0.598 -0.7088  0.4274  0.6603
  811MOL0     H 9485   8.382   3.951   0.660  0.9398 -2.7695 -2.0545
  812MOL0     O 9486   3.577  11.239   3.321 -0.2116 -0.3955 -0.8548
  812MOL0     C 9487   3.622  11.211   3.214 -0.2817  0.4903 -0.1512
  812MOL0     O 9488   3.565  11.129   3.124 -0.3087  0.0816  0.2448
  812MOL0     C 9489   3.440  11.067   3.153  0.6011  0.1996  0.0347
  812MOL0     C 9490   3.321  11.103   3.090  0.6957  0.1620  0.6399
  812MOL0     C 9491   3.206  11.030   3.115  0.0192  0.1178 -0.3052
  812MOL0     C 9492   3.209  10.927   3.211 -0.7126  0.2521  0.0826
  812MOL0     O 9493   3.092  10.859   3.245 -0.6226 -0.2905  0.4297
  812MOL0     C 9494   3.071  10.749   3.156  0.0151  0.3801  0.0233
  812MOL0     C 9495   2.932  10.711   3.153 -0.3724 -0.2374  0.5299
  812MOL0     C 9496   2.900  10.605   3.042  0.0018  0.0118  1.2192
  812MOL0     C 9497   2.754  10.579   3.036  0.9830 -0.6037  0.5709
  812MOL0     C 9498   2.699  10.480   2.928 -0.1839  0.0683  0.2354
  812MOL0     C 9499   2.543  10.457   2.929 -0.7568  0.0250 -0.1314
  812MOL0     C 9500   2.520  10.335   2.841 -0.6341 -0.0096 -0.0661
  812MOL0     C 9501   2.370  10.321   2.840  0.6378 -0.6015  0.1129
  812MOL0     N 9502   2.341  10.195   2.761  0.2930 -0.3782  0.1288
  812MOL0     C 9503   2.351  10.192   2.627  0.3129 -0.6801 -0.2215
  812MOL0     C 9504   2.324  10.060   2.597 -0.9084  0.0820  1.0281
  812MOL0     C 9505   2.346  10.003   2.467 -0.4958  0.0673 -0.5160
  812MOL0     C 9506   2.226  10.026   2.374  0.3485  0.3790  0.0435
  812MOL0     C 9507   2.093   9.951   2.411 -0.3881  0.7036  0.6177
  812MOL0     C 9508   1.983   9.998   2.320  0.0352 -0.4782 -1.0716
  812MOL0     O 9509   1.863   9.934   2.343 -0.2254  0.2471  0.1261
  812MOL0     C 9510   1.753   9.989   2.287  0.0020  1.1665 -0.7022
  812MOL0     C 9511   1.631   9.941   2.328  0.3102 -0.3097  0.5349
  812MOL0     C 9512   1.512   9.989   2.267 -0.4773  0.3360 -0.6709
  812MOL0     C 9513   1.391   9.933   2.338 -0.6023  0.1912 -0.3541
  812MOL0     C 9514   1.521  10.091   2.168  0.9317  0.0462  0.3642
  812MOL0     C 9515   1.399  10.154   2.113  0.2561  0.4479 -0.2431
  812MOL0     O 9516   1.278  10.131   2.179  0.1225 -0.1340  0.0800
  812MOL0     C 9517   1.162  10.181   2.119 -0.6052  0.7678 -0.1107
  812MOL0     C 9518   1.060  10.086   2.098 -0.1332  0.7130  0.2195
  812MOL0     C 9519   0.933  10.123   2.050 -0.3294 -0.5258 -0.3476
  812MOL0     C 9520   0.903  10.264   2.027  0.0945  0.1159  0.0338
  812MOL0     O 9521   0.772  10.292   1.984 -0.2277 -0.3524  0.5182
  812MOL0     C 9522   0.736  10.432   1.972  1.2552  0.2705 -0.6180
  812MOL0     C 9523   0.599  10.437   1.897 -0.3864 -0.4133 -0.1951
  812MOL0     C 9524   0.475  10.425   1.990 -0.4158 -0.6900  0.1171
  812MOL0     C 9525   0.340  10.432   1.911 -0.4812  0.1145  0.8228
  812MOL0     C 9526   0.217  10.451   2.002  0.0238  0.1471 -0.2795
  812MOL0     C 9527   0.087  10.444   1.916  0.4280  0.0528  0.2929
  812MOL0     C 9528  -0.045  10.495   1.989  0.0466 -0.2928 -0.3751
  812MOL0     C 9529  -0.168  10.459   1.885 -1.2458  0.2022 -1.1014
  812MOL0    Cl 9530  -0.133  10.494   1.713  0.0196  0.0906  0.0361
  812MOL0     C 9531   1.007  10.361   2.046  0.0778 -0.2540 -0.2252
  812MOL0     C 9532   1.134  10.314   2.089 -1.1269 -0.3030  0.5506
  812MOL0     O 9533   1.406  10.221   2.015 -1.0638  0.2246  0.2189
  812MOL0     C 9534   1.645  10.135   2.127 -0.1038 -0.2757  0.3708
  812MOL0     C 9535   1.764  10.074   2.178 -0.2134 -0.9031  0.7271
  812MOL0     N 9536   2.302   9.986   2.715  0.6248  0.3198  0.0427
  812MOL0     N 9537   2.312  10.067   2.804 -0.0886  0.8145 -0.8380
  812MOL0     C 9538   3.329  10.897   3.281  0.2704 -0.0049 -0.2434
  812MOL0     C 9539   3.439  10.972   3.252  0.3759  0.2400 -1.5980
  812MOL0     C 9540   3.766  11.250   3.192  0.4820 -0.4764 -0.4199
  812MOL0     C 9541   3.846  11.204   3.081  0.7711 -0.3438 -0.4566
  812MOL0     C 9542   3.974  11.258   3.060 -0.5154 -0.0217 -0.3118
  812MOL0     C 9543   4.021  11.352   3.147 -0.9737 -1.1671 -0.8133
  812MOL0     O 9544   4.159  11.381   3.127 -0.5105  0.1223 -0.1772
  812MOL0     C 9545   4.233  11.473   3.211  0.3848  0.4702  0.0569
  812MOL0     C 9546   4.216  11.624   3.169  0.0570 -0.3377 -0.2447
  812MOL0     C 9547   4.336  11.723   3.172  0.3724 -0.6008  0.0674
  812MOL0     C 9548   4.462  11.672   3.098 -0.5775 -0.1374 -0.8508
  812MOL0     C 9549   4.549  11.781   3.064 -0.3736 -0.9414 -0.4812
  812MOL0     C 9550   4.612  11.887   3.063  0.1219 -0.1966  0.3324
  812MOL0     C 9551   3.948  11.394   3.251 -0.5265  0.0037 -0.1756
  812MOL0     C 9552   3.825  11.338   3.282  0.8226  0.1241  0.1797
  812MOL0     H 9553   3.312  11.177   3.011 -0.4559  1.1762  1.6689
  812MOL0     H 9554   3.116  11.052   3.058  0.7355  0.3238 -1.3838
  812MOL0     H 9555   3.103  10.771   3.054  1.3046 -0.5339  0.2046
  812MOL0     H 9556   3.123  10.657   3.184  0.7044 -0.0494 -2.4483
  812MOL0     H 9557   2.917  10.666   3.251 -0.6589 -1.6936 -0.1472
  812MOL0     H 9558   2.872  10.800   3.131 -2.2286 -2.0952 -2.8625
  812MOL0     H 9559   2.937  10.640   2.946  0.1373  0.3172  1.3805
  812MOL0     H 9560   2.945  10.506   3.058  2.2858  0.6008 -1.0511
  812MOL0     H 9561   2.729  10.533   3.133 -1.4557 -0.5325  0.0505
  812MOL0     H 9562   2.698  10.672   3.021  2.1538 -0.0668 -0.5391
  812MOL0     H 9563   2.726  10.515   2.828  0.3910 -1.6335 -0.2390
  812MOL0     H 9564   2.755  10.388   2.947  2.8573  1.5331 -0.8537
  812MOL0     H 9565   2.503  10.428   3.026 -0.0463  0.7072  0.3717
  812MOL0     H 9566   2.489  10.545   2.891 -1.4125 -0.2074  0.2585
  812MOL0     H 9567   2.558  10.338   2.739 -2.4478  0.8929 -0.7497
  812MOL0     H 9568   2.569  10.256   2.898  1.7409  2.3371  1.4142
  812MOL0     H 9569   2.334  10.403   2.777  3.0831  1.0693  0.7845
  812MOL0     H 9570   2.322  10.327   2.938 -2.3298 -1.1850 -1.1840
  812MOL0     H 9571   2.382  10.262   2.550 -0.2437 -0.4216 -0.2097
  812MOL0     H 9572   2.443  10.034   2.427  1.4302 -0.3980  3.3727
  812MOL0     H 9573   2.347   9.895   2.486 -0.9204  0.1701  0.1333
  812MOL0     H 9574   2.262  10.003   2.273  2.6083  3.1135  0.1047
  812MOL0     H 9575   2.203  10.133   2.377  0.0146  0.2960  2.0169
  812MOL0     H 9576   2.060   9.978   2.511  0.5336 -0.5064  1.2654
  812MOL0     H 9577   2.105   9.843   2.401 -0.0497  0.5033  2.7332
  812MOL0     H 9578   2.008   9.999   2.214 -3.2225  2.6971 -2.0374
  812MOL0     H 9579   1.973  10.104   2.347 -0.6973 -0.8794  0.3142
  812MOL0     H 9580   1.621   9.858   2.397  2.2495 -1.6183 -0.6594
  812MOL0     H 9581   1.319   9.879   2.276 -0.2703 -2.0748  1.0997
  812MOL0     H 9582   1.416   9.866   2.421  1.7062 -0.4975 -1.5297
  812MOL0     H 9583   1.354  10.020   2.393  1.3916  0.1908  1.0973
  812MOL0     H 9584   1.091   9.982   2.109  1.7363  0.9904 -1.8853
  812MOL0     H 9585   0.852  10.055   2.026 -3.4951  2.7152  0.2715
  812MOL0     H 9586   0.730  10.483   2.068  1.5808 -1.1935  0.2084
  812MOL0     H 9587   0.812  10.494   1.924  1.0396  1.3808  0.4268
  812MOL0     H 9588   0.595  10.539   1.858  2.9889  0.3164  1.0103
  812MOL0     H 9589   0.602  10.372   1.809  0.7187  1.8161 -1.8781
  812MOL0     H 9590   0.483  10.515   2.052  0.4124 -0.8621  0.2681
  812MOL0     H 9591   0.484  10.343   2.062  1.4700 -0.6962 -0.0746
  812MOL0     H 9592   0.357  10.513   1.839 -0.0804 -2.4956 -2.2376
  812MOL0     H 9593   0.335  10.342   1.848 -2.2421  0.9087 -0.2705
  812MOL0     H 9594   0.209  10.550   2.047  1.0207  0.2129 -0.2300
  812MOL0     H 9595   0.221  10.381   2.086  0.4016 -2.4947 -2.3730
  812MOL0     H 9596   0.105  10.493   1.820  2.1277 -1.5553 -0.2482
  812MOL0     H 9597   0.063  10.340   1.893  0.6927 -0.2926  1.4704
  812MOL0     H 9598  -0.041  10.602   2.011  0.1264 -0.7979  2.4763
  812MOL0     H 9599  -0.054  10.447   2.087 -1.6704 -0.5168 -0.6073
  812MOL0     H 9600  -0.256  10.511   1.923 -1.2087 -2.2735  3.0659
  812MOL0     H 9601  -0.180  10.351   1.898  0.6976  0.2724  2.6169
  812MOL0     H 9602   0.998  10.466   2.021 -1.9232  0.0261  1.3973
  812MOL0     H 9603   1.215  10.385   2.090  0.8554 -2.2451 -3.1753
  812MOL0     H 9604   1.657  10.209   2.049  1.4010 -1.4243 -0.5534
  812MOL0     H 9605   1.847  10.098   2.113  0.6193 -2.7016  1.0473
  812MOL0     H 9606   3.317  10.825   3.361 -3.0611 -0.2962 -0.8751
  812MOL0     H 9607   3.533  10.954   3.303  0.1885  1.9869 -0.5651
  812MOL0     H 9608   3.797  11.137   3.011 -1.3657  1.7583 -1.1292
  812MOL0     H 9609   4.038  11.237   2.975 -0.9485 -1.6572 -0.2735
  812MOL0     H 9610   4.192  11.458   3.311  0.5825  0.1690  0.0910
  812MOL0     H 9611   4.337  11.442   3.215 -0.0943 -1.1688  0.6117
  812MOL0     H 9612   4.149  11.683   3.231  0.3506  2.3402 -2.2863
  812MOL0     H 9613   4.178  11.626   3.066 -1.8946 -2.1943  0.3697
  812MOL0     H 9614   4.366  11.737   3.277  0.7271  0.1363 -0.1286
  812MOL0     H 9615   4.310  11.822   3.134  1.8013 -0.8536 -1.6535
  812MOL0     H 9616   4.434  11.612   3.010  0.9416 -0.3427 -1.2142
  812MOL0     H 9617   4.519  11.613   3.170  0.1990 -0.2761 -1.5681
  812MOL0     H 9618   4.657  11.982   3.043 -2.5053  1.1313  0.2455
  812MOL0     H 9619   3.986  11.478   3.308 -2.0224 -0.3241  1.3708
  812MOL0     H 9620   3.767  11.377   3.365 -1.9149 -0.0024 -1.5461
  813MOL0     O 9621   1.435   3.968   5.521 -0.5826  0.5049  0.1532
  813MOL0     C 9622   1.369   4.068   5.538  0.3173 -0.0494  0.0814
  813MOL0     O 9623   1.402   4.176   5.617  0.2189  0.5638  0.5406
  813MOL0     C 9624   1.530   4.196   5.653  0.9637  0.3440  0.0094
  813MOL0     C 9625   1.588   4.138   5.767  0.6714  0.3415 -0.6423
  813MOL0     C 9626   1.719   4.161   5.802 -0.2282  0.3653  0.2061
  813MOL0     C 9627   1.799   4.239   5.732  0.2939 -0.5660  0.2950
  813MOL0     O 9628   1.928   4.266   5.760  0.2329  0.0599 -0.0051
  813MOL0     C 9629   1.996   4.220   5.879 -0.5294 -0.3442  0.0645
  813MOL0     C 9630   2.056   4.080   5.856 -0.5742 -0.1080 -0.9557
  813MOL0     C 9631   2.172   4.071   5.753 -0.4656 -0.0440  0.2445
  813MOL0     C 9632   2.291   4.172   5.773  0.0092  0.3383  0.9646
  813MOL0     C 9633   2.404   4.158   5.666  0.3473  0.4209 -0.4871
  813MOL0     C 9634   2.448   4.002   5.658  0.5761 -0.5765 -0.6217
  813MOL0     C 9635   2.581   3.994   5.590 -0.0176  0.8668 -0.2528
  813MOL0     C 9636   2.650   3.859   5.616 -0.0640 -0.7417 -0.4401
  813MOL0     N 9637   2.568   3.741   5.614  0.3608  0.1872 -0.2050
  813MOL0     C 9638   2.574   3.647   5.714  0.9022  0.2711 -0.5071
  813MOL0     C 9639   2.482   3.552   5.678  0.2996 -0.3328  0.1271
  813MOL0     C 9640   2.472   3.417   5.740  0.5160 -0.2977  0.1567
  813MOL0     C 9641   2.397   3.434   5.875  0.4977 -0.9087 -0.7051
  813MOL0     C 9642   2.284   3.336   5.897  0.3224 -0.7736  0.0597
  813MOL0     C 9643   2.161   3.384   5.807 -0.3260  0.6281 -0.2365
  813MOL0     O 9644   2.066   3.285   5.799 -0.2326 -0.8543 -0.7023
  813MOL0     C 9645   1.940   3.313   5.844  0.4980 -0.7583 -0.4006
  813MOL0     C 9646   1.853   3.211   5.830 -0.1757 -0.0966 -0.5351
  813MOL0     C 9647   1.706   3.215   5.853 -0.3707 -0.1701  0.0743
  813MOL0     C 9648   1.633   3.079   5.852 -0.1597 -0.0684 -0.7483
  813MOL0     C 9649   1.656   3.343   5.889 -0.0854  0.3226  0.0366
  813MOL0     C 9650   1.510   3.370   5.918  0.7799  0.1861 -0.4340
  813MOL0     O 9651   1.428   3.282   5.867  0.0010  0.1117  0.0216
  813MOL0     C 9652   1.293   3.292   5.893  0.5810  0.5709  0.2459
  813MOL0     C 9653   1.222   3.390   5.832  0.1712 -0.7884 -0.2108
  813MOL0     C 9654   1.080   3.405   5.844  0.6558  0.5131 -0.5835
  813MOL0     C 9655   1.012   3.307   5.918  1.2758 -0.0194 -0.1522
  813MOL0     O 9656   0.883   3.331   5.940  0.1742  0.4987 -0.0364
  813MOL0     C 9657   0.809   3.256   6.034  0.2197  0.2699 -0.3857
  813MOL0     C 9658   0.693   3.341   6.053 -0.6086 -0.1887  0.8773
  813MOL0     C 9659   0.593   3.279   6.148 -0.6291 -0.0201  0.4295
  813MOL0     C 9660   0.474   3.366   6.156  0.2949  0.4996 -0.0956
  813MOL0     C 9661   0.356   3.298   6.224  0.1494  0.1013 -1.1798
  813MOL0     C 9662   0.257   3.224   6.128 -0.1807  0.0590 -0.4879
  813MOL0     C 9663   0.146   3.158   6.202 -0.8109  0.3300 -0.7559
  813MOL0     C 9664   0.061   3.079   6.105 -0.6392 -0.1896 -0.0561
  813MOL0    Cl 9665  -0.080   3.015   6.195  0.2506  0.6496 -0.2850
  813MOL0     C 9666   1.085   3.199   5.972  0.9191 -1.3400 -0.0166
  813MOL0     C 9667   1.226   3.195   5.966 -0.3022 -0.9580  0.3540
  813MOL0     O 9668   1.473   3.474   5.991 -0.4070 -0.4071 -0.2715
  813MOL0     C 9669   1.741   3.446   5.925 -0.2618 -0.4792  0.2496
  813MOL0     C 9670   1.883   3.431   5.912 -0.1650 -0.1715 -0.5923
  813MOL0     N 9671   2.423   3.592   5.561  0.1744 -0.2587 -0.2568
  813MOL0     N 9672   2.478   3.706   5.525 -0.5980  0.6100  0.2938
  813MOL0     C 9673   1.745   4.291   5.614 -0.0436 -0.0709 -0.4801
  813MOL0     C 9674   1.611   4.269   5.575 -0.2133  0.1575 -0.8410
  813MOL0     C 9675   1.227   4.069   5.485 -0.3135 -0.2440 -0.1861
  813MOL0     C 9676   1.127   4.152   5.531 -0.0212 -1.2441 -0.1857
  813MOL0     C 9677   0.999   4.148   5.487  0.0800 -0.3713  0.0059
  813MOL0     C 9678   0.959   4.057   5.387  0.7670 -0.7249 -1.3875
  813MOL0     O 9679   0.841   4.047   5.311 -0.9327  0.4593 -0.0243
  813MOL0     C 9680   0.736   4.128   5.372 -0.1492  0.5538 -0.1897
  813MOL0     C 9681   0.622   4.093   5.274  1.3822 -0.4627 -0.9660
  813MOL0     C 9682   0.577   4.226   5.199  0.6862  1.1059 -0.2369
  813MOL0     C 9683   0.463   4.303   5.275 -0.5185  0.0107 -0.9193
  813MOL0     C 9684   0.333   4.258   5.230  1.0473  0.1652  0.0309
  813MOL0     C 9685   0.237   4.218   5.170  0.9973  0.2484 -0.7386
  813MOL0     C 9686   1.062   3.975   5.333  0.1756  0.2778 -0.0141
  813MOL0     C 9687   1.190   3.988   5.380  0.2488 -0.2701  1.4774
  813MOL0     H 9688   1.527   4.072   5.827 -2.6070  4.1715  0.6992
  813MOL0     H 9689   1.757   4.117   5.893 -0.2248  0.9606  0.4976
  813MOL0     H 9690   2.088   4.277   5.895 -0.9898  0.0505  1.4830
  813MOL0     H 9691   1.929   4.227   5.965 -0.9141  0.1383 -0.2691
  813MOL0     H 9692   2.079   4.035   5.953  0.0329  0.3415 -0.8816
  813MOL0     H 9693   1.987   4.019   5.798  2.9702 -2.7562 -2.7934
  813MOL0     H 9694   2.199   3.965   5.752  0.8699  0.2611  1.1766
  813MOL0     H 9695   2.124   4.100   5.659 -0.3238  1.9247  0.7259
  813MOL0     H 9696   2.262   4.278   5.780  2.2231  1.0523  0.2391
  813MOL0     H 9697   2.328   4.142   5.871  1.3748 -0.9288  0.0962
  813MOL0     H 9698   2.371   4.206   5.573 -0.0596 -1.2598 -1.2340
  813MOL0     H 9699   2.495   4.209   5.699  0.1734  0.8062 -0.5946
  813MOL0     H 9700   2.452   3.951   5.754  2.4157  2.8110  1.2749
  813MOL0     H 9701   2.371   3.956   5.595  0.2969 -0.6413 -0.2308
  813MOL0     H 9702   2.558   4.012   5.484  2.2874 -0.9188 -1.1636
  813MOL0     H 9703   2.652   4.074   5.614 -0.3432  1.3138 -0.7507
  813MOL0     H 9704   2.689   3.870   5.718  2.6489  1.6590 -1.5822
  813MOL0     H 9705   2.741   3.844   5.557 -0.0875 -0.5992 -0.5130
  813MOL0     H 9706   2.640   3.633   5.799 -0.0035  1.8830  0.5225
  813MOL0     H 9707   2.419   3.346   5.676  1.3633  0.0671 -0.9638
  813MOL0     H 9708   2.573   3.375   5.739  0.9638  0.7565 -0.1896
  813MOL0     H 9709   2.366   3.537   5.895 -3.0852 -2.1864  1.2964
  813MOL0     H 9710   2.466   3.416   5.958 -2.5609  0.3629  2.3464
  813MOL0     H 9711   2.269   3.324   6.005 -0.0643  3.4767  0.6667
  813MOL0     H 9712   2.327   3.243   5.858  1.9568 -0.6217  1.3598
  813MOL0     H 9713   2.194   3.397   5.703 -1.9384  0.5762 -0.7906
  813MOL0     H 9714   2.119   3.481   5.834  0.0425  0.6615  0.2185
  813MOL0     H 9715   1.891   3.114   5.798  2.1038  0.6844 -0.4022
  813MOL0     H 9716   1.565   3.065   5.936  1.5402 -1.1000  0.5135
  813MOL0     H 9717   1.568   3.073   5.764  0.6636  3.1466 -1.7192
  813MOL0     H 9718   1.714   3.005   5.855  0.6788  0.8574  2.0538
  813MOL0     H 9719   1.272   3.467   5.774 -0.8027  0.8860  1.0923
  813MOL0     H 9720   1.028   3.486   5.793 -2.3288  0.1272  1.5915
  813MOL0     H 9721   0.781   3.156   6.000 -4.4551  1.3828 -0.4581
  813MOL0     H 9722   0.870   3.248   6.125  0.8215  2.7425 -0.5067
  813MOL0     H 9723   0.726   3.439   6.087 -0.7722  0.1322  0.1416
  813MOL0     H 9724   0.653   3.366   5.954  1.4512 -0.8262 -0.1704
  813MOL0     H 9725   0.639   3.273   6.247  0.8702 -1.9351 -0.3236
  813MOL0     H 9726   0.571   3.178   6.113 -1.6971  0.7483 -1.2409
  813MOL0     H 9727   0.486   3.462   6.208  1.0810  1.2110 -1.5313
  813MOL0     H 9728   0.449   3.392   6.053 -3.3006  1.3974  0.8557
  813MOL0     H 9729   0.297   3.373   6.277 -0.5437  0.2422 -2.1307
  813MOL0     H 9730   0.394   3.223   6.294 -3.4306 -0.6577  0.1711
  813MOL0     H 9731   0.223   3.299   6.057  3.2597  2.0076 -0.3021
  813MOL0     H 9732   0.313   3.144   6.080  0.3658 -0.3305  0.7588
  813MOL0     H 9733   0.083   3.232   6.251 -1.8191  0.2648 -1.9325
  813MOL0     H 9734   0.188   3.092   6.279  3.3243  0.8649 -2.3066
  813MOL0     H 9735   0.117   2.990   6.074 -1.1212 -0.3859 -0.3743
  813MOL0     H 9736   0.031   3.141   6.020 -2.2880  0.8516  1.2183
  813MOL0     H 9737   1.027   3.123   6.024  0.6137 -1.2219 -0.1794
  813MOL0     H 9738   1.278   3.105   5.998  0.1107 -1.0505 -0.5455
  813MOL0     H 9739   1.698   3.535   5.970  1.8346  0.0108  1.4368
  813MOL0     H 9740   1.949   3.513   5.937 -0.7334  0.2822 -0.5598
  813MOL0     H 9741   1.802   4.356   5.549 -0.6242  0.9248 -0.0147
  813MOL0     H 9742   1.575   4.305   5.479 -1.2543 -4.5537 -2.5241
  813MOL0     H 9743   1.136   4.226   5.610 -1.4412 -2.9530  1.6998
  813MOL0     H 9744   0.933   4.229   5.516  2.0564  2.0062 -1.6763
  813MOL0     H 9745   0.713   4.089   5.471  0.5470  0.4833 -0.0553
  813MOL0     H 9746   0.773   4.230   5.384  1.7460 -0.4300  3.6407
  813MOL0     H 9747   0.544   4.054   5.341  2.8488  0.8350  1.6252
  813MOL0     H 9748   0.645   4.017   5.198  1.3943  0.9010 -2.3847
  813MOL0     H 9749   0.550   4.204   5.095  0.2950  0.9189 -0.0971
  813MOL0     H 9750   0.667   4.288   5.198  0.4658  1.6645  3.0691
  813MOL0     H 9751   0.479   4.409   5.256 -0.6435  0.3696  0.8468
  813MOL0     H 9752   0.484   4.280   5.380  2.1930 -1.4002 -1.7025
  813MOL0     H 9753   0.146   4.190   5.123 -0.2818  1.8992  0.6077
  813MOL0     H 9754   1.038   3.911   5.249  2.6678 -2.5055  1.1890
  813MOL0     H 9755   1.266   3.926   5.333 -0.6279 -1.2051  1.2434
  814MOL0     O 9756   8.368   2.019   3.404  0.0235 -0.0850  0.0710
  814MOL0     C 9757   8.423   2.041   3.513  0.0445 -0.6982  0.6328
  814MOL0     O 9758   8.375   2.023   3.635  0.4164  0.6173  0.4265
  814MOL0     C 9759   8.247   1.982   3.662  0.4987 -1.3726 -0.8367
  814MOL0     C 9760   8.172   1.888   3.587 -0.4528  0.1734 -0.4215
  814MOL0     C 9761   8.035   1.866   3.622  0.7909 -0.0194  0.1535
  814MOL0     C 9762   7.967   1.953   3.707 -0.0746  0.9319  0.0764
  814MOL0     O 9763   7.825   1.949   3.740 -0.1917 -0.2343 -0.1350
  814MOL0     C 9764   7.738   1.867   3.666  0.0025  0.4554  0.1872
  814MOL0     C 9765   7.607   1.937   3.650  0.1044  0.2095 -0.1483
  814MOL0     C 9766   7.481   1.863   3.599  0.1835 -0.3527  0.8734
  814MOL0     C 9767   7.360   1.950   3.618  0.5023 -0.1596  0.7891
  814MOL0     C 9768   7.238   1.896   3.556  0.0817 -0.1943 -0.6907
  814MOL0     C 9769   7.112   1.972   3.570  0.3673 -0.1814  0.8514
  814MOL0     C 9770   7.009   1.877   3.499 -0.0552  0.6595 -0.1583
  814MOL0     C 9771   6.870   1.952   3.493  0.0475  0.5821  0.4548
  814MOL0     N 9772   6.805   1.983   3.623 -0.4305 -0.5569  0.2440
  814MOL0     C 9773   6.674   1.962   3.638  0.3843 -0.3580  0.2298
  814MOL0     C 9774   6.655   2.030   3.754  1.0357  0.1574 -0.4922
  814MOL0     C 9775   6.522   2.062   3.829 -0.6793 -0.4141  0.1990
  814MOL0     C 9776   6.403   1.981   3.785 -0.5567 -0.2035  0.4226
  814MOL0     C 9777   6.288   2.028   3.873 -0.1886  0.2750  0.2002
  814MOL0     C 9778   6.178   1.921   3.873  0.1134  0.0724 -0.1932
  814MOL0     O 9779   6.075   1.967   3.966 -0.7031  0.1919 -0.0557
  814MOL0     C 9780   5.968   1.887   3.987  0.2506  0.3844 -0.3879
  814MOL0     C 9781   5.867   1.940   4.066 -1.3738  0.8143  0.2055
  814MOL0     C 9782   5.729   1.908   4.061  0.6629 -0.0585 -1.3707
  814MOL0     C 9783   5.629   2.008   4.107 -0.3922 -0.4731 -0.3359
  814MOL0     C 9784   5.695   1.791   3.983  0.0130 -0.1274  0.3825
  814MOL0     C 9785   5.558   1.729   3.979  1.2288 -0.0828 -0.0971
  814MOL0     O 9786   5.460   1.776   4.062 -0.3197  0.3324  0.1658
  814MOL0     C 9787   5.335   1.713   4.053 -0.0915 -0.4116 -0.2707
  814MOL0     C 9788   5.229   1.772   3.987 -0.3901 -0.6960 -0.3169
  814MOL0     C 9789   5.096   1.715   3.986 -0.9471  0.2767 -0.3724
  814MOL0     C 9790   5.078   1.600   4.052 -0.4437  0.5141  0.4029
  814MOL0     O 9791   4.953   1.547   4.041 -0.7872 -0.0845 -0.3350
  814MOL0     C 9792   4.937   1.406   4.005 -0.3521 -0.3916 -1.1387
  814MOL0     C 9793   4.794   1.380   4.024 -0.4272 -0.1257  0.3888
  814MOL0     C 9794   4.758   1.231   4.009  0.2347  0.5671 -0.0440
  814MOL0     C 9795   4.646   1.180   4.099  0.2143  0.3727 -0.2151
  814MOL0     C 9796   4.610   1.032   4.056  0.1221  0.3907  0.4982
  814MOL0     C 9797   4.504   1.000   4.165 -0.0026  0.3641 -0.4975
  814MOL0     C 9798   4.483   0.846   4.171  0.4830 -0.1204 -0.5207
  814MOL0     C 9799   4.343   0.813   4.199  0.0821  0.8065 -0.6123
  814MOL0    Cl 9800   4.242   0.866   4.071  0.3262  0.3365 -0.0689
  814MOL0     C 9801   5.187   1.538   4.120  0.5966  0.0073  0.0436
  814MOL0     C 9802   5.310   1.600   4.127 -0.1938 -0.0611 -0.0037
  814MOL0     O 9803   5.538   1.647   3.882  0.0231  0.4156 -0.7597
  814MOL0     C 9804   5.799   1.718   3.910  0.1081 -0.5666  0.1015
  814MOL0     C 9805   5.933   1.769   3.915 -0.6644 -0.6954  0.4734
  814MOL0     N 9806   6.771   2.076   3.805  0.0470  0.0828  0.5809
  814MOL0     N 9807   6.863   2.027   3.730  0.3517 -0.8962 -0.5208
  814MOL0     C 9808   8.045   2.046   3.776  0.4231  0.0082 -0.2266
  814MOL0     C 9809   8.187   2.055   3.753 -0.6055 -0.9087 -0.3278
  814MOL0     C 9810   8.559   2.087   3.503  0.4196 -0.5819 -0.4857
  814MOL0     C 9811   8.641   2.045   3.392 -0.2914 -0.9809 -0.0683
  814MOL0     C 9812   8.777   2.055   3.400  0.5916 -0.6514  0.6371
  814MOL0     C 9813   8.843   2.126   3.499  0.4561  0.3285  0.2082
  814MOL0     O 9814   8.975   2.152   3.494 -0.1792 -0.3792 -0.1701
  814MOL0     C 9815   9.040   2.266   3.556  0.3845  0.1133  0.1751
  814MOL0     C 9816   9.189   2.242   3.542  0.0695  0.5967  0.1183
  814MOL0     C 9817   9.268   2.328   3.640  0.4805 -0.8496  0.1351
  814MOL0     C 9818   9.304   2.261   3.769  0.1028  0.1333 -0.0165
  814MOL0     C 9819   9.189   2.228   3.849  0.5354 -0.2551  0.6975
  814MOL0     C 9820   9.085   2.218   3.917  0.4316 -0.2156  0.3212
  814MOL0     C 9821   8.766   2.161   3.615 -0.1136  0.1222 -0.2882
  814MOL0     C 9822   8.626   2.144   3.616  0.4500 -0.1612 -0.1455
  814MOL0     H 9823   8.214   1.824   3.510 -0.2283  0.4474 -0.5289
  814MOL0     H 9824   7.973   1.794   3.568 -0.1171  0.7125  0.1924
  814MOL0     H 9825   7.775   1.833   3.569 -1.4790 -1.6165  0.2743
  814MOL0     H 9826   7.733   1.776   3.728  0.0391  1.6308  1.9842
  814MOL0     H 9827   7.572   1.993   3.737  0.3015  4.5474 -2.5768
  814MOL0     H 9828   7.628   2.017   3.578 -1.2078  0.6412 -0.0806
  814MOL0     H 9829   7.502   1.844   3.494  0.2910 -2.1041  1.1875
  814MOL0     H 9830   7.447   1.771   3.648  1.3858 -1.0663  0.4086
  814MOL0     H 9831   7.340   1.969   3.724  1.0695  0.0829  0.8547
  814MOL0     H 9832   7.371   2.046   3.566  2.6281 -0.9133 -0.2183
  814MOL0     H 9833   7.267   1.888   3.450 -1.2750 -0.9460 -1.0290
  814MOL0     H 9834   7.229   1.794   3.593  0.3015 -0.1272 -0.4494
  814MOL0     H 9835   7.089   1.986   3.676  2.2303 -0.4658  1.3164
  814MOL0     H 9836   7.117   2.070   3.520  2.6289 -1.0617 -0.8276
  814MOL0     H 9837   7.044   1.861   3.397 -1.4701  1.7037 -0.8235
  814MOL0     H 9838   6.999   1.780   3.550 -1.1389  0.3906 -0.8532
  814MOL0     H 9839   6.798   1.894   3.436  0.8223  1.7855 -1.8502
  814MOL0     H 9840   6.876   2.043   3.434  0.1009 -0.2879 -0.9127
  814MOL0     H 9841   6.597   1.923   3.573 -2.0228  1.9608  1.5100
  814MOL0     H 9842   6.550   2.039   3.932  3.4296  1.7629 -0.1949
  814MOL0     H 9843   6.498   2.169   3.829  0.0543 -0.2409  0.7604
  814MOL0     H 9844   6.423   1.876   3.805  0.8984  0.3405  2.0300
  814MOL0     H 9845   6.375   1.999   3.680 -1.1387  1.1559  0.7933
  814MOL0     H 9846   6.256   2.126   3.835 -1.0253  0.0302  0.2599
  814MOL0     H 9847   6.330   2.048   3.972 -1.4114 -1.9142  1.2314
  814MOL0     H 9848   6.227   1.832   3.915 -1.3822 -0.4206  0.5942
  814MOL0     H 9849   6.144   1.914   3.770  1.1598 -0.9808 -0.5024
  814MOL0     H 9850   5.898   2.027   4.122  2.4236 -1.6695  2.4037
  814MOL0     H 9851   5.556   1.975   4.182  0.4733 -0.5051  0.5206
  814MOL0     H 9852   5.683   2.098   4.137  0.5332 -1.9967  3.0379
  814MOL0     H 9853   5.571   2.041   4.020  0.1638  0.2358 -0.4410
  814MOL0     H 9854   5.236   1.857   3.920 -0.0304 -1.7505 -1.6737
  814MOL0     H 9855   5.027   1.764   3.918  0.6982  1.0988 -1.5292
  814MOL0     H 9856   4.975   1.390   3.903  0.2028 -0.4548 -0.9277
  814MOL0     H 9857   4.992   1.334   4.066 -0.4713  0.7707  0.3815
  814MOL0     H 9858   4.768   1.398   4.129  0.6071  1.0181  0.4654
  814MOL0     H 9859   4.743   1.444   3.952 -0.4941  1.0988  1.5021
  814MOL0     H 9860   4.843   1.170   4.040  1.7904  2.6678  0.0188
  814MOL0     H 9861   4.736   1.204   3.905 -0.2120 -0.9244  0.4061
  814MOL0     H 9862   4.687   1.184   4.200  1.8878 -2.9254 -0.6097
  814MOL0     H 9863   4.553   1.236   4.093 -1.3117 -2.1336 -3.8732
  814MOL0     H 9864   4.699   0.970   4.061 -1.4036 -2.1657 -1.2565
  814MOL0     H 9865   4.567   1.037   3.955 -0.0925  1.8500  0.6342
  814MOL0     H 9866   4.537   1.025   4.266  2.2803  0.7203 -1.2711
  814MOL0     H 9867   4.413   1.055   4.139  0.0977  0.2937 -1.0073
  814MOL0     H 9868   4.545   0.804   4.251  0.7237  3.2477  1.2089
  814MOL0     H 9869   4.512   0.799   4.076  0.4346  1.1961 -1.2120
  814MOL0     H 9870   4.320   0.862   4.294 -0.2583 -1.3230  0.4540
  814MOL0     H 9871   4.325   0.706   4.208  2.2426  0.5363  1.6493
  814MOL0     H 9872   5.171   1.446   4.176 -0.2548  0.5930  0.7789
  814MOL0     H 9873   5.395   1.551   4.172 -0.6827 -0.6808  0.2563
  814MOL0     H 9874   5.780   1.634   3.844  3.3817 -0.4616 -1.1825
  814MOL0     H 9875   6.009   1.718   3.857  0.3078  2.8761 -1.7573
  814MOL0     H 9876   8.005   2.125   3.839 -0.0447  0.4158 -1.0276
  814MOL0     H 9877   8.233   2.147   3.787 -1.8223 -0.3415 -0.1249
  814MOL0     H 9878   8.610   1.988   3.305  1.2894 -0.0834 -1.2544
  814MOL0     H 9879   8.834   1.996   3.329 -1.5377  0.9004 -2.6142
  814MOL0     H 9880   9.004   2.350   3.495 -1.2385 -1.2504 -0.8636
  814MOL0     H 9881   9.008   2.279   3.659  0.8816  1.1822  0.2098
  814MOL0     H 9882   9.234   2.249   3.443 -0.7318  1.9066 -0.1784
  814MOL0     H 9883   9.208   2.137   3.566  1.2933  0.7647 -0.0701
  814MOL0     H 9884   9.217   2.422   3.662  0.0136 -1.6092  2.5881
  814MOL0     H 9885   9.365   2.356   3.598  0.4362 -0.5704  0.2212
  814MOL0     H 9886   9.352   2.329   3.839  0.0307  1.5265 -1.2688
  814MOL0     H 9887   9.374   2.179   3.750  0.6038 -0.1015  2.4970
  814MOL0     H 9888   8.994   2.192   3.966  0.3516 -0.7384 -0.0974
  814MOL0     H 9889   8.816   2.213   3.696 -2.2420 -0.5513  1.5411
  814MOL0     H 9890   8.583   2.180   3.709  0.0815 -0.1510 -0.3181
  815MOL0     O 9891   9.424   3.214   5.309 -0.3412 -0.2253  0.1120
  815MOL0     C 9892   9.403   3.100   5.361 -0.9740 -0.9427  0.2157
  815MOL0     O 9893   9.292   3.031   5.361  0.0044  0.4702  0.0445
  815MOL0     C 9894   9.189   3.078   5.290 -0.3831 -0.0692  0.4297
  815MOL0     C 9895   9.069   3.072   5.357 -0.7532 -0.1041  0.0063
  815MOL0     C 9896   8.958   3.111   5.288 -0.1180 -0.5033  0.0174
  815MOL0     C 9897   8.951   3.153   5.157 -0.3208 -0.3872  0.6608
  815MOL0     O 9898   8.827   3.186   5.111  0.5031  0.1618 -0.1461
  815MOL0     C 9899   8.813   3.205   4.969 -0.0663 -0.1061  0.3849
  815MOL0     C 9900   8.662   3.231   4.914  0.5649  0.3578 -0.4465
  815MOL0     C 9901   8.571   3.095   4.917  0.1098  0.4933  0.7101
  815MOL0     C 9902   8.645   2.962   4.892 -0.2392  0.1623 -0.8330
  815MOL0     C 9903   8.556   2.847   4.885 -0.3955 -0.7522  0.0399
  815MOL0     C 9904   8.456   2.832   5.006 -0.8010  0.4504 -0.3514
  815MOL0     C 9905   8.397   2.694   5.013  0.5287 -0.8888  0.4744
  815MOL0     C 9906   8.386   2.640   5.153 -0.7110  0.2983  0.5748
  815MOL0     N 9907   8.316   2.731   5.241 -0.2186 -0.2083  0.1846
  815MOL0     C 9908   8.182   2.756   5.245 -0.4809 -0.7323  0.7809
  815MOL0     C 9909   8.163   2.831   5.355  0.4597 -0.4259  0.4544
  815MOL0     C 9910   8.039   2.887   5.409  0.4021  0.1330 -0.8328
  815MOL0     C 9911   7.933   2.769   5.425 -0.2669 -0.4645 -0.2776
  815MOL0     C 9912   7.823   2.828   5.514  0.1814  0.2082 -0.0842
  815MOL0     C 9913   7.715   2.725   5.544 -0.5575 -0.1503 -0.1024
  815MOL0     O 9914   7.609   2.809   5.568  0.0254  0.6423 -0.3204
  815MOL0     C 9915   7.484   2.760   5.569  0.4773  0.1701 -1.0555
  815MOL0     C 9916   7.443   2.633   5.536 -0.2681 -0.6033  0.0490
  815MOL0     C 9917   7.306   2.590   5.538 -0.7881 -0.5190 -0.7905
  815MOL0     C 9918   7.273   2.450   5.502  0.2322  0.5488 -0.2099
  815MOL0     C 9919   7.216   2.684   5.581  0.0679 -0.2340  0.3345
  815MOL0     C 9920   7.066   2.665   5.580 -0.1761 -0.3699 -0.2448
  815MOL0     O 9921   7.010   2.620   5.469 -0.2208 -0.4914  0.0694
  815MOL0     C 9922   6.877   2.600   5.469  0.6937  0.6457  0.4042
  815MOL0     C 9923   6.840   2.470   5.434  0.3913 -0.5192 -0.0291
  815MOL0     C 9924   6.703   2.433   5.424  0.1517  0.5005 -0.8760
  815MOL0     C 9925   6.602   2.530   5.451 -0.8245 -0.2308  0.0608
  815MOL0     O 9926   6.472   2.487   5.440  0.0144  0.6942 -0.1781
  815MOL0     C 9927   6.360   2.547   5.509 -0.2749  0.2294 -0.3357
  815MOL0     C 9928   6.239   2.471   5.472  0.1367  0.1808  0.7780
  815MOL0     C 9929   6.116   2.545   5.527 -0.0038  0.7095  0.5402
  815MOL0     C 9930   5.981   2.469   5.497 -0.6815  0.1956 -0.1788
  815MOL0     C 9931   5.858   2.555   5.548 -0.0523 -0.2155  0.0739
  815MOL0     C 9932   5.728   2.487   5.523  0.0369 -0.5170  0.5263
  815MOL0     C 9933   5.618   2.590   5.559 -0.0028  0.2109  0.0493
  815MOL0     C 9934   5.492   2.515   5.564 -0.5891  0.1194 -0.2273
  815MOL0    Cl 9935   5.456   2.425   5.411 -0.0723 -0.1436  0.0052
  815MOL0     C 9936   6.637   2.666   5.481 -0.4807  0.0026 -0.3167
  815MOL0     C 9937   6.776   2.699   5.492 -0.3835 -0.8637 -0.5726
  815MOL0     O 9938   7.013   2.687   5.685  0.0405 -0.0685 -0.5297
  815MOL0     C 9939   7.249   2.808   5.634 -0.4159  0.2651 -0.3511
  815MOL0     C 9940   7.387   2.845   5.623 -0.5149  0.4542 -0.1390
  815MOL0     N 9941   8.283   2.837   5.420  0.6336 -0.5499  0.8681
  815MOL0     N 9942   8.377   2.783   5.353 -0.4606 -1.0896  0.6751
  815MOL0     C 9943   9.069   3.165   5.096 -0.7190  0.5626  0.9223
  815MOL0     C 9944   9.186   3.117   5.156 -0.3092  0.0329  0.4637
  815MOL0     C 9945   9.523   3.043   5.429  0.3796 -0.5173  1.0187
  815MOL0     C 9946   9.513   2.929   5.512 -0.1756  0.2188  0.1061
  815MOL0     C 9947   9.622   2.888   5.587  0.6441 -0.6624  0.3382
  815MOL0     C 9948   9.745   2.939   5.571 -0.2454  0.3024  0.2271
  815MOL0     O 9949   9.852   2.894   5.631  0.0084  0.4866 -0.2606
  815MOL0     C 9950   9.989   2.954   5.621 -0.1633 -0.1096 -0.1847
  815MOL0     C 9951  10.082   2.864   5.700 -1.0314  0.6780  0.7054
  815MOL0     C 9952  10.104   2.728   5.631  0.7909 -0.2489  0.0243
  815MOL0     C 9953  10.198   2.638   5.715 -0.5632  0.0704 -0.5586
  815MOL0     C 9954  10.328   2.693   5.737  0.1485  0.3059  0.9908
  815MOL0     C 9955  10.439   2.738   5.730  0.5831 -0.6530 -0.2217
  815MOL0     C 9956   9.755   3.049   5.489 -0.1718 -0.2434 -0.0863
  815MOL0     C 9957   9.648   3.094   5.418 -0.1443  0.3493 -0.6894
  815MOL0     H 9958   9.052   3.023   5.453 -0.2812 -1.9599 -0.8063
  815MOL0     H 9959   8.860   3.111   5.334 -0.3917  0.1238 -0.5428
  815MOL0     H 9960   8.872   3.293   4.944 -0.3366  0.3446  1.2873
  815MOL0     H 9961   8.849   3.121   4.910  1.6492  2.1466 -1.9714
  815MOL0     H 9962   8.609   3.309   4.970  1.2659 -0.3825  1.3525
  815MOL0     H 9963   8.685   3.265   4.813  3.2556 -3.4725 -1.3532
  815MOL0     H 9964   8.529   3.092   5.017  1.2679  0.0633  1.2038
  815MOL0     H 9965   8.491   3.103   4.843 -0.0124  1.0055  0.8939
  815MOL0     H 9966   8.705   2.962   4.801  1.2201 -1.1355  0.0696
  815MOL0     H 9967   8.719   2.949   4.972 -0.5591 -0.1003 -0.5735
  815MOL0     H 9968   8.498   2.854   4.793  0.7140  0.1580 -0.6153
  815MOL0     H 9969   8.615   2.756   4.878  0.2672 -0.2450 -1.2621
  815MOL0     H 9970   8.508   2.855   5.099  2.5661 -0.8351 -1.7499
  815MOL0     H 9971   8.377   2.904   4.983 -1.4306 -0.9156 -2.8208
  815MOL0     H 9972   8.300   2.689   4.964  0.3783  1.5495  0.4418
  815MOL0     H 9973   8.457   2.620   4.959  2.3469  0.8008  0.0990
  815MOL0     H 9974   8.486   2.620   5.190 -0.1241  1.0308 -0.5318
  815MOL0     H 9975   8.327   2.548   5.154  0.6058 -0.5718  1.5533
  815MOL0     H 9976   8.111   2.731   5.166 -1.2435 -0.5008  1.3763
  815MOL0     H 9977   8.056   2.930   5.508 -2.6854  1.8739 -0.9365
  815MOL0     H 9978   8.013   2.969   5.341  0.8149  0.0340 -1.1127
  815MOL0     H 9979   7.987   2.689   5.477 -0.5566 -0.5334 -0.0845
  815MOL0     H 9980   7.904   2.731   5.327 -2.0121 -0.8407  0.3482
  815MOL0     H 9981   7.784   2.915   5.460  0.1569  0.0464 -0.3294
  815MOL0     H 9982   7.867   2.867   5.607  0.1354  1.0115 -0.3890
  815MOL0     H 9983   7.744   2.661   5.628 -3.0114  0.7875  1.5821
  815MOL0     H 9984   7.699   2.667   5.453 -0.6913  0.2376 -0.3283
  815MOL0     H 9985   7.517   2.557   5.514  1.3792  0.7402  0.6865
  815MOL0     H 9986   7.208   2.414   5.582 -1.2972 -1.2477 -2.1443
  815MOL0     H 9987   7.224   2.431   5.405 -1.4594 -4.5553  1.3434
  815MOL0     H 9988   7.368   2.396   5.508  0.7695  0.7777 -4.0723
  815MOL0     H 9989   6.917   2.393   5.435 -1.4441 -2.4979 -1.5724
  815MOL0     H 9990   6.680   2.327   5.417  3.8177 -0.5763  0.9137
  815MOL0     H 9991   6.375   2.552   5.617 -0.4611  5.0016 -0.3225
  815MOL0     H 9992   6.350   2.651   5.478 -0.8341 -0.1716 -1.5591
  815MOL0     H 9993   6.236   2.473   5.363 -4.5080  2.6250  0.7000
  815MOL0     H 9994   6.256   2.377   5.524  2.5148  0.4907  0.6829
  815MOL0     H 9995   6.113   2.641   5.475  2.6504 -0.2717 -1.6626
  815MOL0     H 9996   6.129   2.565   5.634 -2.6187 -1.3547  1.3510
  815MOL0     H 9997   5.981   2.452   5.389  0.2870 -2.7873  0.1758
  815MOL0     H 9998   5.971   2.369   5.542  0.3574 -1.0874 -2.5829
  815MOL0     H 9999   5.861   2.653   5.501  2.0545 -0.6167 -0.7307
  815MOL0     H10000   5.868   2.572   5.655 -0.6705 -2.3075  0.5272
  815MOL0     H10001   5.734   2.451   5.420  1.8555 -1.0318  0.7658
  815MOL0     H10002   5.717   2.402   5.590  5.1741 -0.5939  1.7368
  815MOL0     H10003   5.610   2.658   5.474 -0.1704 -2.0917 -1.9128
  815MOL0     H10004   5.633   2.635   5.657 -3.0103  0.4916  0.4600
  815MOL0     H10005   5.409   2.586   5.574  0.6540  1.4385  1.3942
  815MOL0     H10006   5.485   2.449   5.651 -0.1092 -2.3250 -1.9414
  815MOL0     H10007   6.554   2.734   5.497  0.6707  1.4380 -0.3454
  815MOL0     H10008   6.796   2.805   5.503 -2.4128 -0.4641 -0.2170
  815MOL0     H10009   7.174   2.880   5.666  1.9478  2.8182 -0.2208
  815MOL0     H10010   7.409   2.947   5.651 -0.3243  0.7623 -1.3258
  815MOL0     H10011   9.079   3.197   4.993 -0.7723 -0.9711  0.4042
  815MOL0     H10012   9.271   3.113   5.088 -1.2195 -1.3533 -0.6630
  815MOL0     H10013   9.416   2.893   5.546  0.5746 -1.1769  0.8473
  815MOL0     H10014   9.609   2.803   5.653 -0.5722 -1.2757 -0.6448
  815MOL0     H10015  10.020   2.966   5.516 -1.3415  0.4736 -0.4772
  815MOL0     H10016  10.000   3.054   5.664  1.5310  0.3208 -1.4954
  815MOL0     H10017  10.047   2.861   5.804  0.5980 -0.8112  1.2454
  815MOL0     H10018  10.181   2.910   5.696  0.4398 -2.3695 -2.0695
  815MOL0     H10019  10.143   2.736   5.529 -1.7930 -0.8754 -1.0931
  815MOL0     H10020  10.011   2.672   5.636  0.5782  0.2050  2.0554
  815MOL0     H10021  10.201   2.542   5.663 -3.0293  0.1617 -0.9643
  815MOL0     H10022  10.150   2.623   5.812  0.2285  1.8527  0.1563
  815MOL0     H10023  10.543   2.761   5.730  0.3483  0.4860  0.1468
  815MOL0     H10024   9.849   3.101   5.475 -1.2568  1.6330 -0.7668
  815MOL0     H10025   9.659   3.188   5.365  0.6608 -0.2461 -1.6112
  816MOL0     O10026   4.142   3.960   3.860 -0.0287  0.1578 -0.1712
  816MOL0     C10027   4.220   4.024   3.796 -0.3106 -0.0757 -0.9916
  816MOL0     O10028   4.190   4.147   3.747  0.1513  0.3605 -0.2322
  816MOL0     C10029   4.069   4.211   3.744  0.3319 -0.8284  0.0513
  816MOL0     C10030   4.069   4.328   3.676 -0.4408 -0.1485 -0.5669
  816MOL0     C10031   3.947   4.396   3.663  0.5284 -0.4073 -0.4186
  816MOL0     C10032   3.826   4.353   3.715  0.4073 -0.7701 -0.6959
  816MOL0     O10033   3.718   4.439   3.708  0.2868  0.4423  0.2930
  816MOL0     C10034   3.669   4.488   3.836 -0.1639 -1.2815  0.4302
  816MOL0     C10035   3.542   4.580   3.806  0.0793 -0.6785 -0.4333
  816MOL0     C10036   3.510   4.593   3.654 -0.0086 -0.2862  0.5211
  816MOL0     C10037   3.389   4.691   3.634 -0.2153 -0.3839 -0.4730
  816MOL0     C10038   3.265   4.607   3.675 -0.4723  0.3282  0.2000
  816MOL0     C10039   3.138   4.655   3.604  1.1212 -0.4096  0.8666
  816MOL0     C10040   3.089   4.790   3.647 -0.5188  0.8802  0.2796
  816MOL0     C10041   2.935   4.793   3.618 -0.5219 -0.1145  0.0314
  816MOL0     N10042   2.892   4.935   3.630 -0.2605  0.5076  0.4114
  816MOL0     C10043   2.856   5.020   3.525  0.5886 -0.2801 -0.0204
  816MOL0     C10044   2.798   5.125   3.592 -0.8325  0.1636 -0.3976
  816MOL0     C10045   2.750   5.257   3.519  1.2760 -1.1014 -0.5624
  816MOL0     C10046   2.613   5.293   3.571  0.3184 -0.2021 -0.1037
  816MOL0     C10047   2.586   5.440   3.557  0.8085 -0.2994 -0.2435
  816MOL0     C10048   2.442   5.469   3.553 -0.6023 -0.7336  0.5171
  816MOL0     O10049   2.388   5.419   3.428  0.5663 -0.7135  0.1127
  816MOL0     C10050   2.256   5.453   3.396 -0.4661  0.5594  0.1104
  816MOL0     C10051   2.218   5.426   3.273  0.8178  0.5499  0.9665
  816MOL0     C10052   2.083   5.455   3.231 -0.8496  0.5321 -0.5479
  816MOL0     C10053   2.062   5.448   3.089  0.0172  0.8217  0.1566
  816MOL0     C10054   1.986   5.516   3.315 -0.1088  0.5273 -0.1081
  816MOL0     C10055   1.849   5.555   3.282 -0.1271  0.8954 -0.8693
  816MOL0     O10056   1.761   5.564   3.389  0.1983 -0.4918 -0.4007
  816MOL0     C10057   1.630   5.584   3.359  0.0912  0.2097  0.4342
  816MOL0     C10058   1.577   5.697   3.410 -0.4220 -0.4027 -0.7910
  816MOL0     C10059   1.443   5.733   3.385  0.6110 -0.3181  0.5559
  816MOL0     C10060   1.358   5.649   3.314  0.3295 -0.9503 -0.3522
  816MOL0     O10061   1.220   5.671   3.297  0.2630 -0.2823  0.3473
  816MOL0     C10062   1.171   5.783   3.372  0.5630  1.1234  0.2471
  816MOL0     C10063   1.023   5.811   3.350 -0.4263 -0.0270  0.1871
  816MOL0     C10064   0.959   5.902   3.463 -0.1832 -0.3388 -0.8997
  816MOL0     C10065   0.824   5.925   3.410  0.2512 -0.4790  0.5652
  816MOL0     C10066   0.725   6.010   3.500  0.1534 -0.1654  0.2665
  816MOL0     C10067   0.581   6.037   3.451 -0.8175  0.0983  0.1895
  816MOL0     C10068   0.492   5.906   3.448 -0.6492 -0.3208  0.2250
  816MOL0     C10069   0.365   5.929   3.359 -0.1639 -0.2579 -0.7444
  816MOL0    Cl10070   0.261   5.795   3.366 -0.3001  0.1262  0.5792
  816MOL0     C10071   1.410   5.532   3.261  0.5897 -0.5012  0.5746
  816MOL0     C10072   1.548   5.502   3.276 -0.1239 -0.1861 -0.1918
  816MOL0     O10073   1.820   5.570   3.163  0.0293 -0.7980  0.2306
  816MOL0     C10074   2.025   5.528   3.457 -0.7484 -0.8145  0.6449
  816MOL0     C10075   2.166   5.509   3.489  1.5112  0.3678  0.2739
  816MOL0     N10076   2.796   5.102   3.730  0.1072 -0.3530  0.5138
  816MOL0     N10077   2.851   4.990   3.751 -0.2253 -0.0208 -0.1863
  816MOL0     C10078   3.830   4.227   3.776  0.2923  0.2970 -0.2017
  816MOL0     C10079   3.948   4.156   3.781  0.0566 -0.4168  0.6130
  816MOL0     C10080   4.367   3.983   3.791  0.2575 -1.1835 -0.3039
  816MOL0     C10081   4.421   3.895   3.885 -0.2855  0.2465  0.1433
  816MOL0     C10082   4.559   3.862   3.879 -0.3694 -0.5572 -0.7934
  816MOL0     C10083   4.648   3.945   3.798 -0.5993  0.3111  0.8805
  816MOL0     O10084   4.782   3.921   3.807 -0.5662 -0.0835 -0.2247
  816MOL0     C10085   4.856   3.980   3.699 -0.2941  0.0456 -0.4948
  816MOL0     C10086   5.002   3.957   3.737  0.0408 -0.5242 -0.6260
  816MOL0     C10087   5.039   4.043   3.859  0.2026 -0.0161 -0.0593
  816MOL0     C10088   5.189   4.066   3.862  0.5394 -0.5450 -0.3004
  816MOL0     C10089   5.237   4.040   3.994 -0.3191 -0.6399 -1.3906
  816MOL0     C10090   5.261   4.014   4.115 -0.6171  0.6444  0.3097
  816MOL0     C10091   4.589   4.043   3.715  0.3222  0.4844  0.1078
  816MOL0     C10092   4.450   4.058   3.710  0.4540  0.3636  0.5963
  816MOL0     H10093   4.147   4.380   3.621 -1.9594  1.2328 -1.5089
  816MOL0     H10094   3.931   4.494   3.619 -1.7222 -0.8637 -0.7821
  816MOL0     H10095   3.632   4.405   3.896 -0.5250 -0.3716  1.5150
  816MOL0     H10096   3.755   4.535   3.885 -1.4046 -1.9847  3.5393
  816MOL0     H10097   3.458   4.529   3.853  0.4305  0.2885  1.3204
  816MOL0     H10098   3.559   4.680   3.849  1.8310 -0.7730 -0.8340
  816MOL0     H10099   3.591   4.629   3.589  1.7198  2.3836  3.8306
  816MOL0     H10100   3.483   4.495   3.614  0.1690 -0.7695  1.5733
  816MOL0     H10101   3.399   4.784   3.691 -7.0685  0.4572  0.1147
  816MOL0     H10102   3.380   4.726   3.531  1.8181  1.1172 -0.1907
  816MOL0     H10103   3.277   4.507   3.631  0.8675 -1.6967  4.5400
  816MOL0     H10104   3.248   4.593   3.782  0.0916  0.5421  0.3194
  816MOL0     H10105   3.155   4.653   3.496 -2.6345  1.3451  0.1009
  816MOL0     H10106   3.062   4.579   3.623 -0.4061  0.8539 -0.0263
  816MOL0     H10107   3.108   4.811   3.752 -0.9266 -0.3351  0.6167
  816MOL0     H10108   3.147   4.854   3.580 -2.6868  2.3896 -0.2520
  816MOL0     H10109   2.891   4.739   3.702  0.0656  0.3795  0.6600
  816MOL0     H10110   2.907   4.758   3.518 -0.2355  0.4349 -0.2444
  816MOL0     H10111   2.870   5.007   3.418 -1.6363 -2.1399 -0.1429
  816MOL0     H10112   2.804   5.351   3.531  0.4721 -0.5123 -1.4195
  816MOL0     H10113   2.739   5.237   3.412 -2.8808 -3.5703  0.0922
  816MOL0     H10114   2.588   5.270   3.675  0.5047  0.3660  0.0758
  816MOL0     H10115   2.546   5.229   3.513  1.4325  0.3909 -2.1588
  816MOL0     H10116   2.633   5.473   3.464 -0.5011  1.2548 -0.4057
  816MOL0     H10117   2.624   5.498   3.641 -0.3661  0.2081 -0.0338
  816MOL0     H10118   2.422   5.576   3.567 -1.7178 -0.6817 -1.1670
  816MOL0     H10119   2.398   5.424   3.643  1.2309 -0.8080  1.4112
  816MOL0     H10120   2.295   5.398   3.202  0.1423  2.0802 -0.4420
  816MOL0     H10121   2.069   5.544   3.037  3.2349  0.3036 -0.6274
  816MOL0     H10122   2.148   5.402   3.038  1.0317  2.7794 -0.0039
  816MOL0     H10123   1.977   5.384   3.064  1.7805 -1.5994 -0.0479
  816MOL0     H10124   1.630   5.768   3.473  0.7320 -0.9334 -1.1247
  816MOL0     H10125   1.401   5.819   3.436 -2.2767 -2.0113  1.2559
  816MOL0     H10126   1.189   5.758   3.477 -1.4963 -1.1750  0.1250
  816MOL0     H10127   1.208   5.882   3.343  0.1423  0.8623 -1.2513
  816MOL0     H10128   1.009   5.853   3.250  1.3653 -0.8400 -0.4377
  816MOL0     H10129   0.961   5.720   3.346 -1.0268 -0.0433  4.8013
  816MOL0     H10130   1.016   5.995   3.474  0.6829 -0.9494 -0.0963
  816MOL0     H10131   0.959   5.856   3.562 -0.7170  0.2620 -0.6086
  816MOL0     H10132   0.835   5.986   3.319 -1.1810  2.7075  2.3819
  816MOL0     H10133   0.776   5.829   3.391 -3.3812  0.9458  1.7000
  816MOL0     H10134   0.778   6.104   3.518 -1.2949  0.6788  0.3039
  816MOL0     H10135   0.720   5.958   3.596 -1.0136  0.9421  0.8309
  816MOL0     H10136   0.533   6.108   3.519 -2.2082 -0.2271 -0.4016
  816MOL0     H10137   0.572   6.079   3.351  1.9741  0.8891  0.2083
  816MOL0     H10138   0.460   5.885   3.550 -0.1660 -1.0069  0.2483
  816MOL0     H10139   0.551   5.821   3.410  4.5790  2.6275  0.7276
  816MOL0     H10140   0.393   5.933   3.254 -0.9793  2.2124 -0.9344
  816MOL0     H10141   0.310   6.023   3.374  1.8168  0.5981  1.8136
  816MOL0     H10142   1.348   5.465   3.203 -1.8331  2.1536 -0.0987
  816MOL0     H10143   1.588   5.410   3.234  0.0691 -0.7953  1.2720
  816MOL0     H10144   1.960   5.566   3.535  0.6921  0.8082  1.1006
  816MOL0     H10145   2.185   5.502   3.596 -3.2458  2.1009  1.4572
  816MOL0     H10146   3.741   4.180   3.818  0.3565 -1.5597 -1.9900
  816MOL0     H10147   3.939   4.055   3.818  0.9124 -1.4983 -1.9047
  816MOL0     H10148   4.351   3.854   3.957 -1.7489  0.0467 -1.3322
  816MOL0     H10149   4.594   3.793   3.955  0.3523 -0.8968 -1.4197
  816MOL0     H10150   4.839   3.930   3.604 -0.8490  0.5394 -0.6632
  816MOL0     H10151   4.839   4.087   3.680 -0.0921  0.3668  0.9607
  816MOL0     H10152   5.070   3.983   3.655  0.0452  1.5679 -0.0142
  816MOL0     H10153   5.007   3.849   3.756 -2.3574 -0.6899 -0.5417
  816MOL0     H10154   5.001   3.992   3.948 -0.6002  1.5580  0.5402
  816MOL0     H10155   4.980   4.135   3.857  0.3703  0.1037  0.3970
  816MOL0     H10156   5.199   4.172   3.836  0.5686  0.3912  3.1022
  816MOL0     H10157   5.252   4.033   3.779  0.7733  2.7839 -1.5783
  816MOL0     H10158   5.273   3.992   4.220  0.4609 -2.9537 -0.4138
  816MOL0     H10159   4.645   4.103   3.645  1.6892 -0.8054  0.0298
  816MOL0     H10160   4.412   4.134   3.642  1.0914  0.3623  0.2352
  817MOL0     O10161   3.670   8.410   8.157 -0.1239  0.5242  0.3705
  817MOL0     C10162   3.705   8.368   8.265 -0.3621  0.5034 -0.3724
  817MOL0     O10163   3.631   8.288   8.345 -0.2729 -0.7319 -0.3171
  817MOL0     C10164   3.494   8.280   8.343  0.2241 -0.3792  0.6337
  817MOL0     C10165   3.404   8.375   8.302  0.5787 -1.0861  0.2857
  817MOL0     C10166   3.270   8.360   8.326 -0.2565 -0.5363 -0.0415
  817MOL0     C10167   3.218   8.244   8.376  0.6004  0.0768 -1.1181
  817MOL0     O10168   3.084   8.210   8.386 -0.9453  0.1440 -0.7475
  817MOL0     C10169   2.990   8.298   8.319 -0.1367 -0.5821  0.1686
  817MOL0     C10170   2.868   8.220   8.288 -0.0874  0.7645  0.3193
  817MOL0     C10171   2.767   8.213   8.408  0.1351 -0.3526 -0.1103
  817MOL0     C10172   2.619   8.196   8.367 -2.0823 -0.2334  0.7708
  817MOL0     C10173   2.532   8.229   8.491 -0.4159 -0.5484  0.6991
  817MOL0     C10174   2.379   8.221   8.460  0.9338  0.4899 -0.8102
  817MOL0     C10175   2.292   8.257   8.577  0.0295  0.4036 -0.0702
  817MOL0     C10176   2.148   8.280   8.532 -0.3226  0.1998  0.0723
  817MOL0     N10177   2.067   8.327   8.644  0.3320 -0.0684  0.6018
  817MOL0     C10178   2.046   8.442   8.713 -0.9865  0.2485 -0.5028
  817MOL0     C10179   1.955   8.415   8.811  0.5999  0.4048  0.7856
  817MOL0     C10180   1.903   8.507   8.908  0.3419 -0.0282  0.1910
  817MOL0     C10181   1.796   8.605   8.854  0.5130  0.1819 -0.4881
  817MOL0     C10182   1.756   8.691   8.972  0.0868 -0.7052 -0.4953
  817MOL0     C10183   1.615   8.766   8.948 -0.1046  0.2903  0.4495
  817MOL0     O10184   1.629   8.858   8.841 -0.0457  0.1246  1.0794
  817MOL0     C10185   1.519   8.935   8.812  0.5175  0.0696  0.7706
  817MOL0     C10186   1.526   9.000   8.688 -0.1237  0.2903 -0.6986
  817MOL0     C10187   1.426   9.071   8.630  0.0072  0.3137 -0.0287
  817MOL0     C10188   1.451   9.125   8.492 -0.6353  0.0104 -0.7493
  817MOL0     C10189   1.302   9.093   8.699  0.1892  0.1046 -0.0289
  817MOL0     C10190   1.186   9.175   8.665 -0.0565 -0.0474 -0.1083
  817MOL0     O10191   1.069   9.136   8.712 -0.0984 -0.0318  0.1043
  817MOL0     C10192   0.966   9.227   8.708 -0.7446  0.7209 -0.4428
  817MOL0     C10193   0.853   9.193   8.639  0.6841 -0.5647 -1.3659
  817MOL0     C10194   0.728   9.264   8.657 -0.3740 -0.0620 -0.5587
  817MOL0     C10195   0.737   9.387   8.723  0.0264  0.4795  0.7525
  817MOL0     O10196   0.618   9.455   8.737  0.1585  0.2720 -1.2095
  817MOL0     C10197   0.535   9.420   8.853  0.5605  0.1438 -0.0826
  817MOL0     C10198   0.401   9.498   8.862  0.2167  0.7175  0.0749
  817MOL0     C10199   0.329   9.496   8.723 -0.3242  0.6002 -0.3667
  817MOL0     C10200   0.181   9.555   8.722 -0.3038 -0.0105 -0.3760
  817MOL0     C10201   0.109   9.594   8.587 -0.6988 -0.7343 -0.6758
  817MOL0     C10202  -0.032   9.640   8.619 -0.1201 -0.9521  0.3835
  817MOL0     C10203  -0.089   9.697   8.487 -0.2340 -0.5929 -0.8722
  817MOL0     C10204  -0.232   9.757   8.497 -0.5300 -0.4796  0.0399
  817MOL0    Cl10205  -0.343   9.628   8.574  0.2680  0.0759 -0.3221
  817MOL0     C10206   0.853   9.421   8.796 -0.6115  0.2606 -0.0615
  817MOL0     C10207   0.975   9.353   8.779 -0.0306  0.7364 -0.4226
  817MOL0     O10208   1.207   9.282   8.608  0.6174  1.1035 -0.5323
  817MOL0     C10209   1.289   9.018   8.815 -0.1779  0.7949  0.5043
  817MOL0     C10210   1.392   8.943   8.871 -0.0621 -0.1131 -0.0567
  817MOL0     N10211   1.921   8.288   8.798  0.6168  0.3195 -0.3546
  817MOL0     N10212   1.984   8.237   8.700 -0.3121  0.5040 -0.1660
  817MOL0     C10213   3.307   8.146   8.413  0.2248  0.4301 -0.4519
  817MOL0     C10214   3.438   8.160   8.400 -0.5457  0.2805  0.5451
  817MOL0     C10215   3.846   8.397   8.302 -0.1128  0.4668  0.3118
  817MOL0     C10216   3.908   8.308   8.396 -0.8746  0.4365  0.1392
  817MOL0     C10217   4.040   8.330   8.439 -0.9468  0.3243  0.5554
  817MOL0     C10218   4.124   8.417   8.366 -0.5928  1.0719 -0.7196
  817MOL0     O10219   4.254   8.416   8.373 -0.9404  0.2760 -0.1294
  817MOL0     C10220   4.320   8.377   8.501 -0.2923 -0.8745 -0.2443
  817MOL0     C10221   4.460   8.432   8.507  0.1381 -0.3192  0.1084
  817MOL0     C10222   4.462   8.580   8.466  0.1417  0.1150 -0.1194
  817MOL0     C10223   4.603   8.644   8.484  0.9340  0.2369 -0.6505
  817MOL0     C10224   4.718   8.577   8.422  0.2136 -0.1999  0.1953
  817MOL0     C10225   4.803   8.500   8.379 -0.7077  0.7189 -0.0588
  817MOL0     C10226   4.068   8.501   8.272 -0.3428 -0.0349 -0.3608
  817MOL0     C10227   3.930   8.486   8.239 -0.4437 -0.1543  0.2086
  817MOL0     H10228   3.442   8.473   8.273 -0.5564 -0.5059  0.7121
  817MOL0     H10229   3.206   8.446   8.313 -0.7684 -0.7197  1.1231
  817MOL0     H10230   2.986   8.388   8.382  0.9874  1.1389 -2.0792
  817MOL0     H10231   3.025   8.327   8.220 -0.4349 -3.1441 -0.7479
  817MOL0     H10232   2.811   8.264   8.206  0.8931 -1.9403 -1.9580
  817MOL0     H10233   2.889   8.116   8.261  0.1923 -0.0291  3.2181
  817MOL0     H10234   2.794   8.129   8.473  1.5778  0.6041  0.5822
  817MOL0     H10235   2.782   8.298   8.475  2.5363  0.6511 -1.7531
  817MOL0     H10236   2.604   8.276   8.294 -1.6976 -0.7145  0.1422
  817MOL0     H10237   2.613   8.102   8.311 -0.5859 -1.0080  1.8280
  817MOL0     H10238   2.551   8.157   8.571  1.8834 -0.5247  0.2295
  817MOL0     H10239   2.546   8.332   8.525 -5.5152  0.9097 -0.7428
  817MOL0     H10240   2.363   8.292   8.378  2.5033  2.9626  0.8878
  817MOL0     H10241   2.355   8.120   8.427 -2.2160  1.0375 -0.5621
  817MOL0     H10242   2.305   8.169   8.640 -0.0856 -1.0855 -2.0082
  817MOL0     H10243   2.339   8.341   8.629 -2.2104  1.4154  0.4529
  817MOL0     H10244   2.102   8.186   8.502 -1.2613  0.5240  0.4508
  817MOL0     H10245   2.141   8.358   8.456  0.0904  1.3684  1.1965
  817MOL0     H10246   2.086   8.543   8.706 -1.9011  0.8099  1.4213
  817MOL0     H10247   1.859   8.447   8.988  1.9109 -0.2268  0.9639
  817MOL0     H10248   1.985   8.565   8.953  0.8611 -0.1325 -0.6051
  817MOL0     H10249   1.709   8.546   8.824 -1.4762  1.1947  2.7189
  817MOL0     H10250   1.840   8.667   8.775  0.5718 -0.2129 -0.7637
  817MOL0     H10251   1.833   8.760   9.007 -0.7257 -0.8323  1.7832
  817MOL0     H10252   1.740   8.628   9.060  0.3600  1.7800  1.4493
  817MOL0     H10253   1.589   8.817   9.041  1.1333 -0.0200  0.9878
  817MOL0     H10254   1.538   8.692   8.923  0.5985 -0.3545  0.1476
  817MOL0     H10255   1.602   8.967   8.617 -0.6179 -2.6154 -0.0024
  817MOL0     H10256   1.502   9.049   8.432 -1.1546 -0.6436 -0.3688
  817MOL0     H10257   1.352   9.158   8.459 -0.9345  0.2205  0.3153
  817MOL0     H10258   1.518   9.210   8.506  0.5108 -0.6700 -1.9023
  817MOL0     H10259   0.862   9.097   8.590 -1.7640 -2.2921  1.2684
  817MOL0     H10260   0.636   9.213   8.635 -0.3177 -0.6116  0.4361
  817MOL0     H10261   0.514   9.312   8.845 -2.3721  0.6366 -0.3038
  817MOL0     H10262   0.598   9.435   8.941  1.1156  3.1339 -0.9070
  817MOL0     H10263   0.339   9.454   8.940  1.0985  0.5849  0.7152
  817MOL0     H10264   0.427   9.602   8.887 -0.0086  0.5509  1.0380
  817MOL0     H10265   0.327   9.393   8.686 -1.2607  1.2938 -2.4064
  817MOL0     H10266   0.385   9.552   8.648 -0.5461  0.6715 -0.4794
  817MOL0     H10267   0.129   9.487   8.789  1.1894 -0.4680  0.3710
  817MOL0     H10268   0.186   9.643   8.788  4.3688 -1.1286  1.1810
  817MOL0     H10269   0.117   9.519   8.508  0.2377  0.6640 -1.9731
  817MOL0     H10270   0.163   9.677   8.540 -1.2164  0.0281  0.0435
  817MOL0     H10271  -0.096   9.564   8.666 -0.7961 -1.3385 -1.1125
  817MOL0     H10272  -0.026   9.718   8.696  0.5896  0.1897 -0.7914
  817MOL0     H10273  -0.097   9.625   8.405  2.3562 -1.9248 -0.0610
  817MOL0     H10274  -0.015   9.768   8.450  1.7919 -1.8111  0.6279
  817MOL0     H10275  -0.256   9.790   8.395  1.8185  1.4877  0.0316
  817MOL0     H10276  -0.235   9.841   8.566  2.0999 -1.8308  1.9663
  817MOL0     H10277   0.862   9.502   8.867  0.8069 -1.9024  2.4156
  817MOL0     H10278   1.065   9.384   8.832  0.8289 -1.9150 -0.1321
  817MOL0     H10279   1.203   9.020   8.880  0.5870  0.0197  1.5699
  817MOL0     H10280   1.366   8.883   8.957 -1.3668  0.3060 -0.1438
  817MOL0     H10281   3.271   8.051   8.451  1.3628 -0.1573 -0.8238
  817MOL0     H10282   3.507   8.084   8.433 -0.4126 -0.0906 -0.5300
  817MOL0     H10283   3.848   8.238   8.454 -2.7531  1.2462 -0.7419
  817MOL0     H10284   4.078   8.271   8.522  0.0031  0.4758  0.2342
  817MOL0     H10285   4.262   8.415   8.586 -0.6890 -1.7017 -0.1353
  817MOL0     H10286   4.334   8.269   8.508 -2.6745 -1.1261  2.4159
  817MOL0     H10287   4.525   8.372   8.443 -1.3931 -1.1322 -0.7307
  817MOL0     H10288   4.521   8.427   8.598  2.3616  0.9958 -1.1951
  817MOL0     H10289   4.389   8.629   8.530  0.1314 -0.5136  0.3575
  817MOL0     H10290   4.437   8.586   8.360  0.9388 -3.5257 -0.6480
  817MOL0     H10291   4.637   8.663   8.586  0.3761  0.8736 -0.5752
  817MOL0     H10292   4.590   8.743   8.438  0.2980  0.1360 -0.7062
  817MOL0     H10293   4.888   8.434   8.380 -0.6677  0.7689 -0.1256
  817MOL0     H10294   4.133   8.575   8.226  1.0449 -0.4490  0.8474
  817MOL0     H10295   3.894   8.536   8.150  3.3014 -1.5627 -2.3507
  818MOL0     O10296   3.252  10.588   2.953  0.5529  0.0609  0.3180
  818MOL0     C10297   3.341  10.572   2.865 -0.4479  0.1892  0.0377
  818MOL0     O10298   3.352  10.462   2.778  0.8011 -0.8756 -0.1942
  818MOL0     C10299   3.249  10.373   2.770 -0.2489  0.9721  0.2190
  818MOL0     C10300   3.283  10.231   2.782  0.6577 -0.2962  0.5392
  818MOL0     C10301   3.181  10.137   2.756  0.8721  0.0073 -0.2964
  818MOL0     C10302   3.048  10.174   2.758 -0.1847  0.9343  0.5235
  818MOL0     O10303   2.957  10.067   2.754  0.2879  0.0769  0.2234
  818MOL0     C10304   2.875  10.058   2.629 -0.4240  0.3049  0.3725
  818MOL0     C10305   2.734  10.019   2.677 -0.5434 -0.8138 -0.3382
  818MOL0     C10306   2.725   9.881   2.746  0.0628  0.0071 -0.5333
  818MOL0     C10307   2.580   9.859   2.800 -0.3818  0.0596  0.2228
  818MOL0     C10308   2.559   9.738   2.886 -0.7848  0.2792 -0.5137
  818MOL0     C10309   2.403   9.704   2.885  0.6251 -0.3645  0.5973
  818MOL0     C10310   2.378   9.587   2.975 -1.0325  0.1346  0.4958
  818MOL0     C10311   2.230   9.561   3.000 -0.3780 -0.5047 -0.2059
  818MOL0     N10312   2.152   9.517   2.878  0.1773  0.3591 -0.7070
  818MOL0     C10313   2.082   9.607   2.800  0.4017  0.4087  1.1288
  818MOL0     C10314   2.023   9.523   2.706  1.1159 -0.5939 -0.1398
  818MOL0     C10315   1.939   9.562   2.588  0.9233  0.3701 -0.1621
  818MOL0     C10316   1.830   9.458   2.548 -0.4288 -1.1987 -1.1367
  818MOL0     C10317   1.797   9.493   2.403  0.4447  0.0900  0.0999
  818MOL0     C10318   1.679   9.413   2.349  0.6045  0.5202  0.4492
  818MOL0     O10319   1.612   9.482   2.249  0.6945 -0.3965  0.0266
  818MOL0     C10320   1.477   9.481   2.227  0.5133 -0.1508 -0.3174
  818MOL0     C10321   1.398   9.387   2.280 -0.2680  0.6684 -0.3873
  818MOL0     C10322   1.264   9.391   2.268  0.8455 -0.0273 -0.2392
  818MOL0     C10323   1.197   9.269   2.334  0.7098 -0.5680  0.2094
  818MOL0     C10324   1.195   9.507   2.217 -0.1599  0.5158 -0.3772
  818MOL0     C10325   1.050   9.520   2.208  0.6106  0.2251  0.1946
  818MOL0     O10326   1.000   9.605   2.112 -0.3471  0.4946 -0.2497
  818MOL0     C10327   0.863   9.612   2.085 -0.0860 -0.2205  0.0878
  818MOL0     C10328   0.785   9.490   2.100  0.5926 -0.2442  0.5532
  818MOL0     C10329   0.651   9.508   2.077 -0.6368  0.0116  0.4125
  818MOL0     C10330   0.596   9.620   2.009 -0.3182 -0.2389  0.2500
  818MOL0     O10331   0.465   9.638   1.960  0.2301  0.9571  0.2028
  818MOL0     C10332   0.366   9.544   2.003  0.8342  0.1421 -1.2687
  818MOL0     C10333   0.221   9.598   1.973 -0.6093  0.6076  0.4597
  818MOL0     C10334   0.182   9.604   1.822  0.3902  1.1736  0.0575
  818MOL0     C10335   0.211   9.473   1.752  0.4498  0.4980  0.6296
  818MOL0     C10336   0.155   9.464   1.613 -0.5888  0.3812  0.1305
  818MOL0     C10337   0.212   9.337   1.539 -0.2100  0.6877  0.0204
  818MOL0     C10338   0.176   9.341   1.390  0.3815  0.2075 -0.7544
  818MOL0     C10339   0.193   9.201   1.326 -0.3656  0.3847 -0.9359
  818MOL0    Cl10340   0.367   9.149   1.342  0.0163  0.5075  0.1320
  818MOL0     C10341   0.675   9.732   1.985 -0.8377 -0.5591 -0.2980
  818MOL0     C10342   0.812   9.729   2.023 -0.3917  0.3501  0.0561
  818MOL0     O10343   0.983   9.463   2.290  0.0256 -0.4016 -0.1459
  818MOL0     C10344   1.283   9.600   2.156  0.1073 -0.3721  0.8366
  818MOL0     C10345   1.421   9.595   2.168  0.2683  0.9394 -0.2174
  818MOL0     N10346   2.059   9.391   2.732  0.2089 -0.4209  0.4065
  818MOL0     N10347   2.149   9.394   2.836 -0.1339 -0.0403  0.6708
  818MOL0     C10348   3.018  10.306   2.746  0.6319  0.3435  0.1007
  818MOL0     C10349   3.116  10.406   2.738  0.6140 -0.1250  0.1203
  818MOL0     C10350   3.453  10.666   2.857 -0.8716  0.7370 -0.2238
  818MOL0     C10351   3.575  10.642   2.786 -0.1920  0.1099  0.3402
  818MOL0     C10352   3.674  10.739   2.776 -0.2620  0.2772 -0.2591
  818MOL0     C10353   3.669  10.863   2.840 -0.4884  1.3404 -0.1265
  818MOL0     O10354   3.761  10.968   2.828  0.4250 -0.8649 -0.0654
  818MOL0     C10355   3.874  10.945   2.746 -0.2328 -0.3862 -0.3585
  818MOL0     C10356   3.951  11.070   2.731  0.0631 -0.6234  0.3201
  818MOL0     C10357   4.064  11.071   2.629 -0.3531  0.0316  0.0796
  818MOL0     C10358   4.136  11.211   2.640 -0.1676 -0.2611  0.3464
  818MOL0     C10359   4.249  11.209   2.551  0.6838 -0.0467  0.6590
  818MOL0     C10360   4.347  11.231   2.487 -0.4460  0.7785  0.1821
  818MOL0     C10361   3.555  10.888   2.910  0.3599 -0.2609  0.4862
  818MOL0     C10362   3.449  10.797   2.921  0.1346  1.0758 -0.0913
  818MOL0     H10363   3.386  10.200   2.798  0.5093 -1.5015 -0.6298
  818MOL0     H10364   3.190  10.029   2.744 -2.6821 -0.1219 -3.6796
  818MOL0     H10365   2.880  10.147   2.565 -4.1509  0.6738  0.3730
  818MOL0     H10366   2.915   9.980   2.564  0.1280  1.9826 -1.4172
  818MOL0     H10367   2.717  10.082   2.765  4.0200  1.4205 -0.7717
  818MOL0     H10368   2.654  10.033   2.604  0.6080  1.5754 -1.2615
  818MOL0     H10369   2.757   9.803   2.675  0.4695 -1.5439  1.2823
  818MOL0     H10370   2.785   9.883   2.837  1.0786  3.9240 -1.1221
  818MOL0     H10371   2.556   9.946   2.862 -2.1599 -0.0054 -0.3017
  818MOL0     H10372   2.519   9.864   2.709 -0.5499 -0.3829  0.3059
  818MOL0     H10373   2.622   9.661   2.839  0.2357 -0.4841  1.9515
  818MOL0     H10374   2.603   9.755   2.984 -0.2118  1.3763 -0.9419
  818MOL0     H10375   2.346   9.791   2.919 -1.0323 -0.1937 -2.2590
  818MOL0     H10376   2.369   9.676   2.785 -0.4968  0.0229  0.8579
  818MOL0     H10377   2.425   9.498   2.935 -0.3280 -0.4854  2.5750
  818MOL0     H10378   2.438   9.600   3.066  0.1904 -0.3953 -0.2058
  818MOL0     H10379   2.181   9.653   3.034 -2.6153 -2.3068  1.9277
  818MOL0     H10380   2.222   9.486   3.080 -1.6855 -3.5271 -2.9137
  818MOL0     H10381   2.093   9.712   2.823  2.5372  0.2568  0.9264
  818MOL0     H10382   1.896   9.661   2.606  2.0142  0.4428  2.4526
  818MOL0     H10383   2.007   9.560   2.502  1.3970  0.9887  0.1890
  818MOL0     H10384   1.743   9.474   2.613  0.4912 -1.2626  0.1472
  818MOL0     H10385   1.866   9.355   2.561 -2.1519 -1.7859 -0.7524
  818MOL0     H10386   1.880   9.485   2.333  0.8100 -0.5319  0.5988
  818MOL0     H10387   1.760   9.596   2.411  2.9487  0.9744  1.1472
  818MOL0     H10388   1.614   9.376   2.429 -1.3737 -0.7090 -1.6168
  818MOL0     H10389   1.725   9.320   2.312  0.6096 -0.1001  1.9494
  818MOL0     H10390   1.443   9.299   2.324 -1.3597  1.0470  1.6045
  818MOL0     H10391   1.263   9.190   2.368  1.6790 -0.2041 -0.7784
  818MOL0     H10392   1.132   9.297   2.417 -0.8210  0.7581 -1.3455
  818MOL0     H10393   1.129   9.223   2.261 -1.5031  2.6539  0.0063
  818MOL0     H10394   0.833   9.396   2.123  3.5976  0.7392 -1.1593
  818MOL0     H10395   0.584   9.426   2.102  1.6215 -1.4201  2.2095
  818MOL0     H10396   0.372   9.444   1.958 -2.2013 -0.1943 -1.1648
  818MOL0     H10397   0.379   9.521   2.109 -1.1060 -1.0994 -1.2471
  818MOL0     H10398   0.143   9.537   2.019  0.8510 -1.4306  0.3474
  818MOL0     H10399   0.220   9.703   2.004  0.3269  1.7945 -3.0443
  818MOL0     H10400   0.230   9.685   1.765  4.2472  0.4923  2.0090
  818MOL0     H10401   0.077   9.628   1.803 -0.0960 -0.3968  0.6043
  818MOL0     H10402   0.319   9.458   1.746  0.4789  1.0540 -0.7713
  818MOL0     H10403   0.175   9.391   1.814  0.3344 -0.0803 -0.1830
  818MOL0     H10404   0.203   9.544   1.556  0.0320 -0.8484 -1.1284
  818MOL0     H10405   0.045   9.468   1.610 -0.6500 -1.1810 -0.2751
  818MOL0     H10406   0.321   9.345   1.548 -0.3788  0.9040  3.5462
  818MOL0     H10407   0.183   9.242   1.587  0.3695  0.0815 -0.8068
  818MOL0     H10408   0.247   9.410   1.344 -0.1839  2.7626  1.8593
  818MOL0     H10409   0.072   9.373   1.384  0.9734  2.6155  0.4444
  818MOL0     H10410   0.161   9.194   1.222 -1.0937  0.7286 -0.7400
  818MOL0     H10411   0.126   9.130   1.375 -1.2130  1.5122 -0.4172
  818MOL0     H10412   0.638   9.826   1.945  2.0100  1.2635  1.0317
  818MOL0     H10413   0.890   9.804   2.013  0.8658 -1.2112 -2.6744
  818MOL0     H10414   1.234   9.681   2.104 -2.7578 -2.6373 -0.2339
  818MOL0     H10415   1.482   9.676   2.131 -1.0598  1.3259 -1.6534
  818MOL0     H10416   2.913  10.332   2.747  1.0445  2.1671  0.8583
  818MOL0     H10417   3.089  10.508   2.713 -0.1216 -0.4356 -0.3816
  818MOL0     H10418   3.594  10.539   2.756 -1.4604 -0.6672  2.0351
  818MOL0     H10419   3.770  10.712   2.733 -1.1173  1.7159 -3.3463
  818MOL0     H10420   3.940  10.868   2.788 -1.3589 -1.7257 -0.9755
  818MOL0     H10421   3.843  10.906   2.648  0.1627 -2.4241  0.2800
  818MOL0     H10422   3.998  11.091   2.827  1.0459 -1.6767  0.0883
  818MOL0     H10423   3.883  11.153   2.708 -1.8562 -0.9456  3.9894
  818MOL0     H10424   4.030  11.052   2.527 -3.1985  1.4100  0.6836
  818MOL0     H10425   4.143  10.999   2.652 -1.3107 -1.2344 -0.4661
  818MOL0     H10426   4.178  11.211   2.741  2.3532 -1.7184 -0.6132
  818MOL0     H10427   4.063  11.293   2.632  1.5710  1.1665 -2.6543
  818MOL0     H10428   4.406  11.260   2.402 -0.0278 -0.3908  0.0579
  818MOL0     H10429   3.546  10.992   2.941 -0.4021  0.0865 -0.8324
  818MOL0     H10430   3.368  10.826   2.988 -0.5116 -2.3292  0.7923
  819MOL0     O10431  10.575   6.411   0.611  0.1857 -0.6550  0.2564
  819MOL0     C10432  10.589   6.382   0.497 -0.5405  0.1593 -0.3846
  819MOL0     O10433  10.494   6.405   0.402 -0.4581  0.8168  0.2794
  819MOL0     C10434  10.363   6.446   0.421  0.4705 -1.7748 -0.0418
  819MOL0     C10435  10.327   6.533   0.529 -0.6480  0.3488  0.2227
  819MOL0     C10436  10.194   6.579   0.539 -0.4908 -0.7928 -0.0653
  819MOL0     C10437  10.089   6.538   0.439 -0.5438  0.4311  0.7795
  819MOL0     O10438   9.956   6.554   0.471  0.5148 -0.3959 -0.4506
  819MOL0     C10439   9.872   6.607   0.369 -0.3906  0.3729 -1.3491
  819MOL0     C10440   9.769   6.705   0.423 -0.2995  0.0719 -0.0262
  819MOL0     C10441   9.661   6.737   0.319 -0.0942 -0.6939 -0.5056
  819MOL0     C10442   9.582   6.858   0.372 -0.2955  0.7065 -0.0796
  819MOL0     C10443   9.457   6.882   0.284  0.0823 -0.3691 -0.4035
  819MOL0     C10444   9.352   6.987   0.319  0.3288 -0.0210  0.1795
  819MOL0     C10445   9.331   7.001   0.464  0.0785 -0.2745  0.1162
  819MOL0     C10446   9.223   7.103   0.502  0.5072  0.5395  0.3402
  819MOL0     N10447   9.246   7.232   0.444  1.0105 -0.1747  0.4466
  819MOL0     C10448   9.372   7.295   0.439  0.1403  0.0008 -0.5240
  819MOL0     C10449   9.354   7.401   0.360 -0.2192 -0.6245 -0.4243
  819MOL0     C10450   9.464   7.499   0.314  0.4188 -0.2613  0.3181
  819MOL0     C10451   9.495   7.606   0.423 -0.2861  0.4779 -0.2915
  819MOL0     C10452   9.388   7.701   0.476 -0.8445  0.4516 -0.0911
  819MOL0     C10453   9.320   7.793   0.377 -0.4121 -0.8746  0.1482
  819MOL0     O10454   9.218   7.867   0.437 -0.2008  0.1955  0.0072
  819MOL0     C10455   9.097   7.811   0.464  0.5233 -0.2181  0.8192
  819MOL0     C10456   9.021   7.875   0.561 -0.3321  0.0201 -0.7570
  819MOL0     C10457   8.892   7.820   0.601 -1.1644  0.2802 -0.5883
  819MOL0     C10458   8.818   7.908   0.702  0.6950 -0.9174 -0.0141
  819MOL0     C10459   8.849   7.700   0.537  0.0618 -0.4988 -0.2188
  819MOL0     C10460   8.706   7.649   0.561 -0.5824  0.5635  0.1034
  819MOL0     O10461   8.660   7.652   0.687 -0.4030  1.1898 -0.2588
  819MOL0     C10462   8.527   7.625   0.703  0.3901  0.1923  0.7028
  819MOL0     C10463   8.487   7.494   0.727  0.2940 -0.0581 -0.8440
  819MOL0     C10464   8.344   7.481   0.757 -0.0180 -0.2882  0.1471
  819MOL0     C10465   8.252   7.582   0.763  0.4601 -0.5300 -0.1486
  819MOL0     O10466   8.125   7.560   0.812  0.1695  0.2712  0.2960
  819MOL0     C10467   8.046   7.488   0.711 -0.0499  0.2691 -0.1862
  819MOL0     C10468   7.901   7.510   0.730  0.3152 -0.5074 -0.3085
  819MOL0     C10469   7.868   7.647   0.717  0.3692 -0.6969  0.0357
  819MOL0     C10470   7.714   7.676   0.732  0.4966 -0.4729  0.3997
  819MOL0     C10471   7.671   7.820   0.686  0.6099  0.8193 -0.5731
  819MOL0     C10472   7.683   7.818   0.534 -0.8895 -0.9071  0.3088
  819MOL0     C10473   7.630   7.945   0.470  0.1033  0.0469 -0.1400
  819MOL0     C10474   7.685   7.959   0.334  0.1039 -0.6126  0.0634
  819MOL0    Cl10475   7.676   7.816   0.230  0.1374 -0.4788  0.0622
  819MOL0     C10476   8.297   7.711   0.738  1.2191 -0.1136 -0.0542
  819MOL0     C10477   8.435   7.726   0.701  1.0715  0.2440 -0.8610
  819MOL0     O10478   8.642   7.617   0.461 -0.1913 -0.7626  0.4279
  819MOL0     C10479   8.926   7.642   0.433 -0.1850 -0.3188  0.5684
  819MOL0     C10480   9.047   7.702   0.394  0.6003  0.0340 -1.1514
  819MOL0     N10481   9.223   7.399   0.319  0.5543  0.6323  0.2868
  819MOL0     N10482   9.158   7.306   0.362  0.6449  0.0384  0.6273
  819MOL0     C10483  10.129   6.456   0.330  0.2680 -0.2764 -0.2222
  819MOL0     C10484  10.261   6.410   0.320 -0.4648 -0.3429 -0.4294
  819MOL0     C10485  10.721   6.322   0.458  0.5068  1.3175  0.4154
  819MOL0     C10486  10.825   6.309   0.549 -0.5936 -0.5121  0.6600
  819MOL0     C10487  10.951   6.273   0.518 -0.1403 -0.0417  0.2286
  819MOL0     C10488  10.974   6.241   0.379 -0.5759 -0.2820 -0.7766
  819MOL0     O10489  11.096   6.211   0.326 -0.1073  0.0200 -0.2892
  819MOL0     C10490  11.223   6.224   0.396  0.7870 -1.2896  0.6351
  819MOL0     C10491  11.245   6.100   0.473 -0.4505 -0.2058  1.3453
  819MOL0     C10492  11.312   6.109   0.614 -0.3336 -0.3215  0.2141
  819MOL0     C10493  11.392   5.982   0.632 -0.3825 -0.3185  0.3963
  819MOL0     C10494  11.526   5.992   0.557 -0.0747  0.5502 -0.0671
  819MOL0     C10495  11.628   5.995   0.502 -0.1786 -0.7746 -0.5860
  819MOL0     C10496  10.874   6.252   0.280  0.4040 -0.1829  0.3742
  819MOL0     C10497  10.746   6.299   0.323  0.4955 -0.2583  0.7392
  819MOL0     H10498  10.397   6.567   0.605  0.0705  1.0398 -0.7382
  819MOL0     H10499  10.169   6.630   0.632  2.1801 -0.2747  0.4537
  819MOL0     H10500   9.926   6.665   0.294 -0.6898  3.4656  0.6424
  819MOL0     H10501   9.821   6.531   0.308 -0.3567  2.4835 -4.2545
  819MOL0     H10502   9.722   6.661   0.511  2.4935 -3.5096 -0.0825
  819MOL0     H10503   9.826   6.794   0.448 -0.0517 -0.3036  0.7666
  819MOL0     H10504   9.692   6.774   0.221 -1.4669  4.3499  0.6976
  819MOL0     H10505   9.598   6.649   0.300 -3.0025  1.3932 -1.1455
  819MOL0     H10506   9.546   6.828   0.471  4.3323 -2.9157  0.8344
  819MOL0     H10507   9.638   6.950   0.392 -1.6317  1.6344 -0.4466
  819MOL0     H10508   9.487   6.904   0.181  0.6041 -2.1634 -0.6699
  819MOL0     H10509   9.413   6.782   0.283 -0.0045 -0.3287 -0.5835
  819MOL0     H10510   9.372   7.082   0.268 -2.9817  1.2351  0.9206
  819MOL0     H10511   9.258   6.953   0.276  0.4591  1.5107 -1.4346
  819MOL0     H10512   9.295   6.906   0.505 -4.0102  0.5105 -1.1989
  819MOL0     H10513   9.424   7.038   0.509 -0.1188 -0.2766  0.5286
  819MOL0     H10514   9.217   7.113   0.611 -1.4804 -1.7326  0.5415
  819MOL0     H10515   9.128   7.057   0.475  1.7187 -1.4063 -0.8264
  819MOL0     H10516   9.463   7.274   0.495 -0.6318 -0.6166  0.5284
  819MOL0     H10517   9.561   7.456   0.285  0.9496  3.5320 -5.1821
  819MOL0     H10518   9.426   7.540   0.220  1.1058  0.7388  0.4615
  819MOL0     H10519   9.574   7.660   0.369 -0.1419  0.3976 -0.1620
  819MOL0     H10520   9.547   7.556   0.505 -1.0808  1.5934  0.9442
  819MOL0     H10521   9.441   7.767   0.544 -2.9401 -2.0170  4.3814
  819MOL0     H10522   9.314   7.645   0.534 -0.0324  0.9133  1.4150
  819MOL0     H10523   9.283   7.738   0.290  0.1568 -0.8029 -0.1487
  819MOL0     H10524   9.398   7.856   0.334  0.2892 -2.3883 -0.8907
  819MOL0     H10525   9.049   7.964   0.615 -0.0360 -0.0466 -0.7966
  819MOL0     H10526   8.710   7.918   0.686  0.6216  1.3406  1.3638
  819MOL0     H10527   8.822   7.863   0.802 -2.6049 -2.9033 -0.6427
  819MOL0     H10528   8.855   8.011   0.702 -2.0801  0.2007 -1.2836
  819MOL0     H10529   8.560   7.414   0.732  0.0069 -0.5367 -2.9996
  819MOL0     H10530   8.310   7.381   0.784 -1.6130  0.5729  1.4800
  819MOL0     H10531   8.094   7.503   0.613  2.9705 -2.6723  0.6152
  819MOL0     H10532   8.055   7.381   0.733 -2.2986  0.3730  1.5405
  819MOL0     H10533   7.845   7.448   0.659  1.7462  0.4872 -2.3859
  819MOL0     H10534   7.874   7.488   0.834  1.8721 -0.1540  0.1956
  819MOL0     H10535   7.900   7.684   0.619  0.2778  2.5852  1.1253
  819MOL0     H10536   7.915   7.712   0.791 -3.6001  1.5021  0.8767
  819MOL0     H10537   7.659   7.604   0.671 -1.1595  2.2033 -1.4676
  819MOL0     H10538   7.681   7.663   0.836  0.0151  0.2808  0.3512
  819MOL0     H10539   7.724   7.896   0.744  1.0440 -1.1581  1.7765
  819MOL0     H10540   7.564   7.828   0.709 -0.0493 -2.1359 -2.0749
  819MOL0     H10541   7.790   7.813   0.509 -1.0233 -1.3688 -0.1809
  819MOL0     H10542   7.624   7.736   0.494 -1.9298  0.0187 -0.0997
  819MOL0     H10543   7.649   8.029   0.537  0.1860 -0.4387  0.4550
  819MOL0     H10544   7.523   7.922   0.467  0.8353 -5.0049  2.1529
  819MOL0     H10545   7.793   7.978   0.335  0.8552 -4.1125  0.1634
  819MOL0     H10546   7.650   8.047   0.280  1.7606  0.1557  0.1589
  819MOL0     H10547   8.232   7.797   0.745  1.3519  0.1308 -1.3935
  819MOL0     H10548   8.476   7.824   0.678  0.9252 -0.3098 -3.9788
  819MOL0     H10549   8.885   7.559   0.377 -0.1104  1.5768 -2.5219
  819MOL0     H10550   9.096   7.664   0.304  0.9337  2.5789 -2.1228
  819MOL0     H10551  10.059   6.440   0.249  0.8484  1.3981 -1.0969
  819MOL0     H10552  10.302   6.362   0.232 -0.1393 -0.7322 -0.0706
  819MOL0     H10553  10.798   6.341   0.649  0.9314  1.2117  0.5760
  819MOL0     H10554  11.031   6.273   0.592  0.8927 -0.5157 -0.8503
  819MOL0     H10555  11.298   6.238   0.318 -1.1604  2.4939 -0.8198
  819MOL0     H10556  11.223   6.318   0.453  1.9805 -0.0784 -1.2637
  819MOL0     H10557  11.299   6.030   0.408 -1.7564  1.3760 -1.6303
  819MOL0     H10558  11.145   6.063   0.497 -1.8909  0.5327 -2.7786
  819MOL0     H10559  11.232   6.116   0.688  2.3104  0.1457  3.2267
  819MOL0     H10560  11.371   6.201   0.605 -3.3561  1.6580 -0.7058
  819MOL0     H10561  11.344   5.893   0.589 -0.1533 -0.0321 -0.4851
  819MOL0     H10562  11.415   5.970   0.738  0.3527 -1.0981  0.1643
  819MOL0     H10563  11.726   5.993   0.459  0.0869 -4.3022 -0.0967
  819MOL0     H10564  10.890   6.206   0.184 -1.6199 -1.8996  0.7773
  819MOL0     H10565  10.662   6.295   0.254 -0.3314  1.2731  1.6173
  820MOL0     O10566   4.293   0.054   7.258  0.7687  0.1872 -0.0654
  820MOL0     C10567   4.326  -0.023   7.352  0.1792 -0.1415  0.5797
  820MOL0     O10568   4.237  -0.096   7.424  0.5658 -0.1604 -0.3714
  820MOL0     C10569   4.103  -0.081   7.392 -0.8865 -0.4458  0.7990
  820MOL0     C10570   4.018  -0.181   7.353  0.2804  0.0759 -0.0945
  820MOL0     C10571   3.879  -0.154   7.321 -0.0431  0.3076  0.0014
  820MOL0     C10572   3.817  -0.033   7.360 -0.1210 -0.9847  0.7232
  820MOL0     O10573   3.687   0.007   7.326 -0.2033  0.1366 -0.1935
  820MOL0     C10574   3.604  -0.102   7.281  0.0645  0.4434 -0.5521
  820MOL0     C10575   3.470  -0.031   7.241 -0.4923 -0.2295 -0.2662
  820MOL0     C10576   3.372  -0.135   7.182 -0.3188 -0.4814  0.0914
  820MOL0     C10577   3.233  -0.068   7.178 -0.4694  0.3197 -0.3882
  820MOL0     C10578   3.128  -0.151   7.098 -0.2887 -0.2430  0.3326
  820MOL0     C10579   2.994  -0.089   7.132 -0.5821  0.4154  0.0547
  820MOL0     C10580   2.889  -0.115   7.024  0.7978 -0.9056  0.1242
  820MOL0     C10581   2.791   0.007   7.031 -0.4972 -0.4955 -0.2235
  820MOL0     N10582   2.660  -0.026   6.970  0.6471 -0.2912  0.4260
  820MOL0     C10583   2.549  -0.067   7.044 -0.0485  0.2858  0.6511
  820MOL0     C10584   2.447  -0.082   6.955 -0.9486  0.0444  0.3047
  820MOL0     C10585   2.297  -0.117   6.974  0.0736  0.2670  0.2484
  820MOL0     C10586   2.228  -0.014   7.057  0.2195  0.4344 -1.0294
  820MOL0     C10587   2.086  -0.057   7.110 -0.7759 -0.0152 -0.2355
  820MOL0     C10588   1.985  -0.063   6.995  0.2418  0.3824 -0.6277
  820MOL0     O10589   1.862  -0.135   7.032 -0.2377  0.1060 -0.7981
  820MOL0     C10590   1.746  -0.129   6.963 -0.3331 -0.3293 -0.7676
  820MOL0     C10591   1.723  -0.063   6.845 -0.4396  0.1759  0.0980
  820MOL0     C10592   1.602  -0.048   6.783  0.4140 -0.4746 -0.4276
  820MOL0     C10593   1.599   0.017   6.642 -0.1151 -0.0651  0.9524
  820MOL0     C10594   1.487  -0.105   6.846 -0.5304 -0.3064 -0.4484
  820MOL0     C10595   1.348  -0.084   6.803 -0.5763  0.7643  0.1765
  820MOL0     O10596   1.269  -0.192   6.819  0.4464 -0.0211  0.4633
  820MOL0     C10597   1.140  -0.183   6.791  0.4222  0.0818 -0.2059
  820MOL0     C10598   1.051  -0.200   6.896  0.5045 -0.6374 -0.1509
  820MOL0     C10599   0.913  -0.204   6.881  0.2735  0.3089 -0.0280
  820MOL0     C10600   0.853  -0.182   6.754 -0.8191  0.4568 -0.5276
  820MOL0     O10601   0.719  -0.184   6.750  0.0455  0.6666 -0.3768
  820MOL0     C10602   0.667  -0.208   6.626 -0.3131  0.3662 -0.2006
  820MOL0     C10603   0.523  -0.165   6.621  0.4061 -0.3729  0.5005
  820MOL0     C10604   0.518  -0.012   6.598 -0.3635  0.6755  0.0429
  820MOL0     C10605   0.378   0.054   6.594  0.2627 -0.2789  0.5324
  820MOL0     C10606   0.396   0.213   6.597  0.4990  0.5602 -0.1672
  820MOL0     C10607   0.416   0.270   6.452  0.1833  0.0189 -0.0266
  820MOL0     C10608   0.435   0.415   6.455  0.6490  0.7906  0.5739
  820MOL0     C10609   0.572   0.461   6.490  0.8709 -0.6533 -0.2203
  820MOL0    Cl10610   0.540   0.637   6.500  0.2754  0.3030 -0.2634
  820MOL0     C10611   0.945  -0.158   6.651 -0.7191 -0.7459  0.5191
  820MOL0     C10612   1.090  -0.159   6.665  0.6887  0.6647  0.0871
  820MOL0     O10613   1.307   0.018   6.756  0.2857  0.1814  0.2986
  820MOL0     C10614   1.505  -0.175   6.960 -0.3062  0.8165  0.1181
  820MOL0     C10615   1.634  -0.191   7.021  0.0222  0.1310 -0.2402
  820MOL0     N10616   2.497  -0.058   6.828 -0.9471 -0.1226 -0.8527
  820MOL0     N10617   2.623  -0.037   6.836 -0.1022  0.0928  0.3847
  820MOL0     C10618   3.911   0.069   7.395 -0.4114  0.0013  0.4971
  820MOL0     C10619   4.050   0.049   7.410  0.5612  0.0565 -0.1795
  820MOL0     C10620   4.470  -0.030   7.370  0.0947 -0.2748 -0.6017
  820MOL0     C10621   4.555   0.034   7.289 -1.0010 -0.1982 -0.5789
  820MOL0     C10622   4.693   0.034   7.315 -0.0951  0.5028 -0.9723
  820MOL0     C10623   4.748  -0.042   7.413 -0.1121  0.0991 -0.7429
  820MOL0     O10624   4.879  -0.070   7.441  0.1913 -0.0016  0.1683
  820MOL0     C10625   4.975  -0.023   7.346  0.2678 -0.1760  0.5102
  820MOL0     C10626   5.115  -0.078   7.373 -0.3068 -0.1376  1.2112
  820MOL0     C10627   5.209  -0.033   7.249 -0.1891 -0.4109 -0.3628
  820MOL0     C10628   5.350  -0.090   7.267 -0.3507 -0.4820 -0.3792
  820MOL0     C10629   5.433  -0.051   7.161 -0.2489 -0.3224 -1.1806
  820MOL0     C10630   5.504   0.000   7.079 -0.4039  0.7359  0.0479
  820MOL0     C10631   4.662  -0.118   7.495 -0.5880 -0.3403  0.3873
  820MOL0     C10632   4.523  -0.103   7.481  0.2020  0.5802  0.2647
  820MOL0     H10633   4.062  -0.281   7.349  0.6641  0.2249  0.3488
  820MOL0     H10634   3.821  -0.231   7.272  0.8710  0.7671 -1.8714
  820MOL0     H10635   3.648  -0.144   7.190 -0.5313  1.3588 -1.2805
  820MOL0     H10636   3.597  -0.188   7.349  1.1483 -0.6201 -1.7216
  820MOL0     H10637   3.414   0.011   7.326 -3.1187 -0.7564 -1.6059
  820MOL0     H10638   3.493   0.045   7.166  1.8291 -2.0590 -1.5152
  820MOL0     H10639   3.390  -0.156   7.076 -3.5030  0.2426 -0.7033
  820MOL0     H10640   3.380  -0.229   7.236  0.0782 -2.3822 -3.0424
  820MOL0     H10641   3.211  -0.059   7.285  1.9827  1.5646  0.0953
  820MOL0     H10642   3.234   0.033   7.136 -1.2996  0.4058 -0.2072
  820MOL0     H10643   3.148  -0.148   6.990  2.0555  0.8720  0.7339
  820MOL0     H10644   3.124  -0.255   7.129 -0.4130  0.4012  2.6632
  820MOL0     H10645   2.963  -0.131   7.228 -0.3990 -0.5133 -0.2751
  820MOL0     H10646   3.006   0.019   7.146  0.1376  0.3939 -0.3413
  820MOL0     H10647   2.926  -0.114   6.921  2.9036  2.7972  0.7177
  820MOL0     H10648   2.824  -0.201   7.039 -3.7564  1.7648 -2.2036
  820MOL0     H10649   2.824   0.100   6.983  0.5653 -1.1215 -0.7396
  820MOL0     H10650   2.771   0.018   7.138  0.2235  3.3855 -0.3549
  820MOL0     H10651   2.543  -0.074   7.152 -0.8181 -2.9234  0.4978
  820MOL0     H10652   2.255  -0.117   6.873  0.9222  0.2548 -0.1156
  820MOL0     H10653   2.280  -0.214   7.021 -1.9944  1.4782  2.1310
  820MOL0     H10654   2.225   0.080   7.001  1.4844  0.6708 -0.7149
  820MOL0     H10655   2.282   0.007   7.149 -2.9122  2.2848  0.5370
  820MOL0     H10656   2.064   0.026   7.178 -0.6219  1.4818 -1.9310
  820MOL0     H10657   2.085  -0.148   7.169  0.6275 -0.4187 -0.7947
  820MOL0     H10658   2.037  -0.106   6.909  0.8704 -0.8660  0.3490
  820MOL0     H10659   1.961   0.039   6.963  1.6815  1.3645  1.2009
  820MOL0     H10660   1.812  -0.024   6.797 -0.9007 -0.2981 -1.1875
  820MOL0     H10661   1.698   0.004   6.598  1.3356  5.6431  1.7729
  820MOL0     H10662   1.520  -0.026   6.581 -0.8147 -0.9145  2.3888
  820MOL0     H10663   1.594   0.126   6.643  2.8297  0.2622 -1.9345
  820MOL0     H10664   1.100  -0.208   6.992  0.5734  2.2589  0.1629
  820MOL0     H10665   0.842  -0.236   6.957 -1.6845  0.0264 -1.8951
  820MOL0     H10666   0.733  -0.158   6.553 -0.8512  0.0657 -0.9057
  820MOL0     H10667   0.667  -0.316   6.608  1.6544  0.3518 -0.3818
  820MOL0     H10668   0.477  -0.211   6.532 -2.9321  0.2333  1.7624
  820MOL0     H10669   0.476  -0.192   6.715 -0.3630  1.0274  0.5560
  820MOL0     H10670   0.552   0.010   6.496 -0.7158  0.1909 -0.1851
  820MOL0     H10671   0.578   0.041   6.673  0.7887  0.1317 -0.4763
  820MOL0     H10672   0.315   0.019   6.512  0.8011 -1.4961  0.6254
  820MOL0     H10673   0.323   0.021   6.682 -1.8630 -0.2747 -0.7363
  820MOL0     H10674   0.471   0.230   6.674 -0.0813  1.1382  0.2878
  820MOL0     H10675   0.306   0.262   6.637 -0.7146 -0.6125 -1.3203
  820MOL0     H10676   0.506   0.221   6.413  0.3430 -0.2315  0.6357
  820MOL0     H10677   0.327   0.249   6.391 -0.6276  2.5962  0.1650
  820MOL0     H10678   0.359   0.460   6.519 -0.1759  0.7999 -0.3829
  820MOL0     H10679   0.417   0.446   6.351  4.8879  1.3562 -0.1568
  820MOL0     H10680   0.646   0.431   6.415  0.6186 -3.9520  0.7039
  820MOL0     H10681   0.596   0.415   6.586  1.1879  2.2835  1.1974
  820MOL0     H10682   0.924  -0.140   6.546 -0.5882 -1.6474  0.3330
  820MOL0     H10683   1.157  -0.144   6.581 -1.9496  0.4707 -2.2165
  820MOL0     H10684   1.417  -0.208   7.015  0.8882  0.7194  2.0639
  820MOL0     H10685   1.637  -0.234   7.121  2.7915  2.6924  0.9654
  820MOL0     H10686   3.875   0.171   7.397 -0.8646 -0.1599  0.8531
  820MOL0     H10687   4.111   0.139   7.420 -1.6481  1.8073 -1.5132
  820MOL0     H10688   4.521   0.096   7.206 -0.7780 -0.6194 -0.9899
  820MOL0     H10689   4.753   0.093   7.245  1.0614  1.5106  0.7597
  820MOL0     H10690   4.943  -0.049   7.245 -2.7647  2.9968  0.4491
  820MOL0     H10691   4.969   0.086   7.347 -0.6588 -0.2075  1.7306
  820MOL0     H10692   5.119  -0.187   7.373  0.0345 -0.1268  1.4237
  820MOL0     H10693   5.143  -0.034   7.469  0.3414 -0.8136  1.3412
  820MOL0     H10694   5.209   0.077   7.245 -0.7637 -0.4264 -0.9315
  820MOL0     H10695   5.168  -0.072   7.156 -1.2497  1.0656 -0.5506
  820MOL0     H10696   5.347  -0.199   7.272 -3.6094 -0.4165  1.3286
  820MOL0     H10697   5.392  -0.061   7.364  1.8772 -4.1545 -0.0395
  820MOL0     H10698   5.568   0.027   6.997 -0.1713 -0.9441 -0.3453
  820MOL0     H10699   4.713  -0.193   7.554  2.5126 -0.4405 -2.1272
  820MOL0     H10700   4.454  -0.139   7.557  1.2522  1.2552  1.5844
  821MOL0     O10701   5.762   9.121  10.672  0.8649 -0.2021 -0.3323
  821MOL0     C10702   5.781   9.062  10.564  0.1843 -0.0595  0.6506
  821MOL0     O10703   5.724   8.940  10.529  0.4305 -0.7085 -0.0406
  821MOL0     C10704   5.632   8.879  10.609  0.3022  1.1947  0.2733
  821MOL0     C10705   5.677   8.782  10.702  0.1271 -0.5145 -0.1561
  821MOL0     C10706   5.586   8.714  10.780 -0.1483  0.0089 -0.5020
  821MOL0     C10707   5.447   8.731  10.754 -0.0865 -0.3594  0.5576
  821MOL0     O10708   5.359   8.644  10.804  0.9417  0.1329 -0.0368
  821MOL0     C10709   5.348   8.534  10.719  0.2700  0.0814  0.2142
  821MOL0     C10710   5.246   8.433  10.778 -0.6186  0.5180 -0.1605
  821MOL0     C10711   5.093   8.490  10.763  0.3545 -0.3244 -0.4896
  821MOL0     C10712   4.994   8.401  10.831 -0.1926  0.0309 -0.1356
  821MOL0     C10713   4.852   8.429  10.785 -0.5038  0.2291  0.7058
  821MOL0     C10714   4.808   8.368  10.658  0.2524  0.1804 -1.3119
  821MOL0     C10715   4.677   8.421  10.599  0.9465 -0.3810 -0.3317
  821MOL0     C10716   4.541   8.386  10.668  0.3481  0.5142 -0.0738
  821MOL0     N10717   4.419   8.429  10.593 -1.1393 -0.3239 -0.0847
  821MOL0     C10718   4.412   8.492  10.464 -0.0244  0.3112 -0.6936
  821MOL0     C10719   4.283   8.523  10.450  0.4619  0.6425 -0.3878
  821MOL0     C10720   4.223   8.587  10.330 -0.8342 -0.3789 -0.7366
  821MOL0     C10721   4.080   8.592  10.340  0.6922  0.1196  0.7270
  821MOL0     C10722   4.016   8.682  10.228  0.5887 -0.0729  0.1289
  821MOL0     C10723   3.864   8.677  10.241 -0.2580  0.0300  0.3913
  821MOL0     O10724   3.804   8.769  10.149  0.4782 -0.0685 -0.4358
  821MOL0     C10725   3.674   8.754  10.114 -0.2079 -0.2192  0.1045
  821MOL0     C10726   3.620   8.852  10.037  0.3535 -0.0099 -0.1282
  821MOL0     C10727   3.485   8.848  10.007  0.6908  0.4947  0.2976
  821MOL0     C10728   3.433   8.960   9.914  0.2895 -0.2191 -0.5694
  821MOL0     C10729   3.393   8.752  10.060 -0.7452 -1.4726 -0.1290
  821MOL0     C10730   3.237   8.743  10.032 -1.4758  0.0093  0.2817
  821MOL0     O10731   3.183   8.624  10.070 -0.3142  0.4287  0.8014
  821MOL0     C10732   3.046   8.617  10.079 -0.7851 -0.3013  0.7919
  821MOL0     C10733   2.969   8.572   9.973 -0.1970  1.4168 -0.4075
  821MOL0     C10734   2.828   8.586   9.971  0.4243 -0.7754 -0.0180
  821MOL0     C10735   2.763   8.623  10.081  0.1918 -0.5706 -0.7900
  821MOL0     O10736   2.626   8.629  10.061 -0.0560  0.3726 -0.5314
  821MOL0     C10737   2.548   8.692  10.158  0.6288 -1.4232  0.3411
  821MOL0     C10738   2.501   8.605  10.270 -0.1012  0.1644 -0.8171
  821MOL0     C10739   2.448   8.701  10.378 -0.4703  0.9154 -0.4647
  821MOL0     C10740   2.434   8.641  10.518 -0.9533  0.6028  1.1153
  821MOL0     C10741   2.295   8.643  10.568  0.0997 -0.4288 -0.6543
  821MOL0     C10742   2.273   8.589  10.718  0.5765  0.1458 -0.7284
  821MOL0     C10743   2.133   8.631  10.766 -0.5769  0.8538 -0.8474
  821MOL0     C10744   2.076   8.557  10.892 -0.3504  0.1201  0.1774
  821MOL0    Cl10745   2.110   8.382  10.885 -0.1450  0.0024 -0.0251
  821MOL0     C10746   2.840   8.649  10.195  0.1794 -0.3860 -0.6677
  821MOL0     C10747   2.979   8.657  10.193 -0.8733  0.0308 -0.1086
  821MOL0     O10748   3.182   8.837   9.983 -0.3592 -0.7173 -0.1987
  821MOL0     C10749   3.451   8.658  10.145 -0.2010 -0.6848 -0.2688
  821MOL0     C10750   3.589   8.659  10.167  0.3988  0.8053  0.1266
  821MOL0     N10751   4.211   8.475  10.561  0.1318 -0.0135  0.1849
  821MOL0     N10752   4.299   8.413  10.637 -0.5094  0.4072 -0.7567
  821MOL0     C10753   5.403   8.823  10.650  0.0992 -0.8903  0.2142
  821MOL0     C10754   5.503   8.893  10.580 -0.3186  0.7280 -0.2844
  821MOL0     C10755   5.886   9.125  10.474 -0.0667  0.2121 -0.5045
  821MOL0     C10756   5.958   9.231  10.514  0.0951 -0.0065  0.2258
  821MOL0     C10757   6.057   9.294  10.435 -0.0888 -0.2071  0.5621
  821MOL0     C10758   6.087   9.248  10.304 -0.4361  0.6945  0.1403
  821MOL0     O10759   6.185   9.284  10.224 -0.1013 -0.1935  0.1466
  821MOL0     C10760   6.265   9.402  10.254  0.3529  0.1343  0.3788
  821MOL0     C10761   6.195   9.535  10.241  1.1146  0.5138 -0.2503
  821MOL0     C10762   6.299   9.647  10.244 -0.3115  0.1684  0.9936
  821MOL0     C10763   6.344   9.685  10.379 -0.1672  0.2916  0.6635
  821MOL0     C10764   6.407   9.819  10.363  1.3676 -1.0012  0.9733
  821MOL0     C10765   6.462   9.927  10.335  0.3743 -0.3005  0.6806
  821MOL0     C10766   6.012   9.136  10.260  0.2068 -0.5847 -0.0531
  821MOL0     C10767   5.913   9.073  10.351 -0.3144 -0.4439  0.5811
  821MOL0     H10768   5.783   8.777  10.724  0.5079  1.0790 -1.4692
  821MOL0     H10769   5.602   8.642  10.858 -1.1855  0.8803  0.5612
  821MOL0     H10770   5.295   8.559  10.626 -0.0254  2.2151  0.8839
  821MOL0     H10771   5.442   8.484  10.696 -1.6952 -3.7199 -0.3166
  821MOL0     H10772   5.250   8.334  10.732  0.5622  0.6547 -0.3861
  821MOL0     H10773   5.263   8.428  10.886 -2.9566 -1.9917  0.2138
  821MOL0     H10774   5.089   8.589  10.808  2.9201 -0.1984 -0.3630
  821MOL0     H10775   5.071   8.508  10.658 -1.4052  0.6190  0.0059
  821MOL0     H10776   5.015   8.295  10.814 -2.3900 -0.3414 -0.9016
  821MOL0     H10777   4.992   8.416  10.939  2.9638  0.3883 -0.0402
  821MOL0     H10778   4.783   8.409  10.868 -1.9215 -0.6308 -0.6412
  821MOL0     H10779   4.854   8.538  10.771 -1.2248  0.3100  1.1591
  821MOL0     H10780   4.887   8.395  10.588  1.0557  3.1238  0.5512
  821MOL0     H10781   4.804   8.259  10.672  0.3693  0.4410  1.1404
  821MOL0     H10782   4.689   8.529  10.589 -0.2648 -0.4719 -3.9598
  821MOL0     H10783   4.670   8.382  10.497 -2.3300  3.4463 -1.8448
  821MOL0     H10784   4.548   8.438  10.764  0.1958 -0.8486  0.7028
  821MOL0     H10785   4.536   8.278  10.678  0.0131  0.5549  0.2426
  821MOL0     H10786   4.487   8.516  10.389 -1.0146  0.4948 -1.6626
  821MOL0     H10787   4.258   8.691  10.328  0.4970 -0.8015 -0.4347
  821MOL0     H10788   4.252   8.545  10.233  1.1455  1.6018 -1.0853
  821MOL0     H10789   4.048   8.638  10.434 -2.3579  2.4906 -1.2772
  821MOL0     H10790   4.035   8.493  10.332  2.8512 -0.9017  0.4567
  821MOL0     H10791   4.053   8.654  10.129  2.4446 -0.1297  0.7952
  821MOL0     H10792   4.058   8.782  10.248  1.0431 -0.4238  1.0069
  821MOL0     H10793   3.826   8.690  10.343 -2.8993  0.1920 -0.5424
  821MOL0     H10794   3.838   8.573  10.216  2.2926 -1.3439  2.8171
  821MOL0     H10795   3.697   8.923  10.010  0.5556  0.6901  2.1288
  821MOL0     H10796   3.361   9.015   9.975  1.4293 -1.0312  1.6392
  821MOL0     H10797   3.507   9.032   9.879 -1.6036  1.6141 -0.9779
  821MOL0     H10798   3.372   8.918   9.834 -0.0402 -0.7500 -0.0507
  821MOL0     H10799   3.020   8.533   9.885 -0.1284 -0.0648  0.2549
  821MOL0     H10800   2.769   8.562   9.883 -0.9702 -2.8165  1.4074
  821MOL0     H10801   2.607   8.776  10.196 -0.2208  0.0022 -1.3485
  821MOL0     H10802   2.463   8.740  10.108  1.8072  2.0398  1.3670
  821MOL0     H10803   2.424   8.540  10.228  0.7304 -0.5400 -1.2835
  821MOL0     H10804   2.590   8.550  10.302  0.0597  1.0360  0.2676
  821MOL0     H10805   2.352   8.742  10.344 -1.6296 -0.3562  1.1184
  821MOL0     H10806   2.503   8.796  10.379  1.7202 -0.2807 -1.1131
  821MOL0     H10807   2.479   8.542  10.514 -0.5506  0.8266 -0.6901
  821MOL0     H10808   2.491   8.702  10.589 -0.2667 -0.2640  1.3298
  821MOL0     H10809   2.233   8.576  10.507  2.0389 -2.0444 -0.9863
  821MOL0     H10810   2.263   8.746  10.552 -1.2495 -0.8628 -0.9182
  821MOL0     H10811   2.279   8.480  10.712 -2.5184 -0.2775  1.6608
  821MOL0     H10812   2.348   8.625  10.789  0.9029 -0.3077 -0.8378
  821MOL0     H10813   2.057   8.617  10.688  0.0641  1.7362 -1.6587
  821MOL0     H10814   2.145   8.734  10.800  1.4218  1.1789 -2.3311
  821MOL0     H10815   1.970   8.585  10.900 -0.6053 -0.4213 -1.0786
  821MOL0     H10816   2.129   8.581  10.985  0.7956  0.3837 -0.5275
  821MOL0     H10817   2.791   8.691  10.282  0.2614  3.0332 -2.1119
  821MOL0     H10818   3.031   8.681  10.285 -0.4533  2.6000 -0.9435
  821MOL0     H10819   3.388   8.586  10.198 -0.6757 -1.1697 -1.4590
  821MOL0     H10820   3.618   8.592  10.247 -2.2330 -0.2641  0.3196
  821MOL0     H10821   5.298   8.840  10.626 -0.0234  0.0286  1.3220
  821MOL0     H10822   5.458   8.951  10.500 -0.2020 -0.1699 -1.0193
  821MOL0     H10823   5.947   9.284  10.608  1.6298  1.4322 -0.3475
  821MOL0     H10824   6.110   9.374  10.485  0.2923  0.8646 -1.4815
  821MOL0     H10825   6.304   9.404  10.356 -0.0000 -0.6962  0.5415
  821MOL0     H10826   6.346   9.404  10.181  0.9845 -1.1374  1.0084
  821MOL0     H10827   6.109   9.550  10.307  0.8078 -1.1300 -0.2442
  821MOL0     H10828   6.151   9.529  10.141 -2.6245  2.3624  1.0739
  821MOL0     H10829   6.261   9.736  10.194 -0.3892 -0.5870 -0.3444
  821MOL0     H10830   6.390   9.622  10.190 -1.3913 -1.6195 -0.1466
  821MOL0     H10831   6.412   9.613  10.426  0.0462 -0.0144 -0.0984
  821MOL0     H10832   6.256   9.696  10.443 -0.0323 -1.5866  1.2081
  821MOL0     H10833   6.498  10.027  10.322  0.3027 -0.1098  1.8416
  821MOL0     H10834   6.033   9.093  10.162 -2.4688  0.9562 -1.4061
  821MOL0     H10835   5.860   8.988  10.309 -2.8076  1.3649 -0.1593
  822MOL0     O10836   9.059   3.430   7.809  0.0164  0.7068 -0.2644
  822MOL0     C10837   9.155   3.449   7.737 -0.1126 -0.2786  0.1238
  822MOL0     O10838   9.197   3.570   7.692 -0.1207  0.1134 -0.3014
  822MOL0     C10839   9.124   3.671   7.747  0.1019  0.4834  0.0267
  822MOL0     C10840   9.025   3.731   7.670 -0.3850  0.9655  0.4595
  822MOL0     C10841   8.947   3.844   7.712  0.2847 -0.5212 -0.2909
  822MOL0     C10842   8.962   3.886   7.846  0.3369  0.6059  0.3265
  822MOL0     O10843   8.885   3.974   7.914  0.4925 -0.2590 -0.2097
  822MOL0     C10844   8.769   4.035   7.848 -0.4980 -0.2373 -0.3425
  822MOL0     C10845   8.670   4.104   7.942 -0.6957  0.1346  0.1617
  822MOL0     C10846   8.559   4.171   7.867  0.1141  0.4872  0.1777
  822MOL0     C10847   8.509   4.284   7.955  0.7257  1.1994  0.6404
  822MOL0     C10848   8.388   4.355   7.881 -0.7537 -0.5957 -0.1706
  822MOL0     C10849   8.346   4.478   7.971  0.0724 -0.3977  0.6270
  822MOL0     C10850   8.223   4.559   7.928 -1.2190 -0.1793  0.2888
  822MOL0     C10851   8.103   4.482   7.885 -0.0188  0.4468 -0.4114
  822MOL0     N10852   7.980   4.556   7.908 -0.0795 -0.4916  0.4525
  822MOL0     C10853   7.934   4.591   8.035  0.7681  0.2102 -0.4097
  822MOL0     C10854   7.807   4.632   8.007 -0.1275  0.3153  0.2345
  822MOL0     C10855   7.698   4.669   8.106  0.5171 -0.0552  0.1413
  822MOL0     C10856   7.555   4.621   8.087 -1.1486  0.3836  0.7703
  822MOL0     C10857   7.481   4.714   7.992  0.1352  0.2463  0.2511
  822MOL0     C10858   7.332   4.703   8.018 -0.4470 -0.0109 -0.5702
  822MOL0     O10859   7.256   4.771   7.911  0.5893 -0.1360  0.3058
  822MOL0     C10860   7.117   4.776   7.917  0.8476  0.4575  0.0733
  822MOL0     C10861   7.042   4.774   8.036 -0.5849 -0.2529 -0.3769
  822MOL0     C10862   6.895   4.785   8.045 -0.5584 -0.7131 -0.1294
  822MOL0     C10863   6.830   4.782   8.182 -0.0391  0.5368  0.2194
  822MOL0     C10864   6.827   4.802   7.924  0.1976 -0.7257 -0.8510
  822MOL0     C10865   6.676   4.802   7.909  0.0239 -0.0894  0.0650
  822MOL0     O10866   6.629   4.807   7.784 -0.1271 -0.2375 -0.2369
  822MOL0     C10867   6.491   4.820   7.772 -0.0097  0.2918  0.6476
  822MOL0     C10868   6.406   4.717   7.819 -0.8610 -0.1121  0.2114
  822MOL0     C10869   6.272   4.732   7.800 -0.2614 -0.9966 -0.2871
  822MOL0     C10870   6.211   4.845   7.749 -0.3321  1.2854 -0.3743
  822MOL0     O10871   6.071   4.836   7.740 -0.2462  0.0282  0.9753
  822MOL0     C10872   6.001   4.965   7.744 -0.4002  0.3009  0.8449
  822MOL0     C10873   5.861   4.945   7.795 -1.2239  0.2116  0.1781
  822MOL0     C10874   5.761   4.889   7.699  0.3960  0.0612  0.6352
  822MOL0     C10875   5.608   4.893   7.722 -0.4026  0.2564 -0.7646
  822MOL0     C10876   5.531   4.863   7.598 -0.1815 -0.2891  0.2111
  822MOL0     C10877   5.390   4.839   7.632 -0.3068  0.4912  0.1114
  822MOL0     C10878   5.323   4.841   7.504  0.4254 -0.6330 -0.4035
  822MOL0     C10879   5.177   4.822   7.515 -0.9639 -0.5994  0.1261
  822MOL0    Cl10880   5.094   4.977   7.571  0.1241 -0.1584 -0.3021
  822MOL0     C10881   6.299   4.937   7.695 -0.6252 -0.2798 -0.2755
  822MOL0     C10882   6.440   4.934   7.710  0.5001  0.4316 -0.0477
  822MOL0     O10883   6.612   4.814   8.009  0.1728  0.5452 -0.0541
  822MOL0     C10884   6.904   4.798   7.798 -0.2497 -0.0364 -0.2157
  822MOL0     C10885   7.048   4.790   7.798  0.4956  0.2819 -0.4699
  822MOL0     N10886   7.792   4.637   7.869 -0.2285  1.1031  0.4975
  822MOL0     N10887   7.896   4.590   7.810  0.1515 -0.7284  0.5647
  822MOL0     C10888   9.074   3.834   7.915  0.1369 -0.0069  0.2821
  822MOL0     C10889   9.160   3.730   7.866  0.5364 -0.4816  0.5857
  822MOL0     C10890   9.237   3.328   7.701 -0.2021 -0.6899 -0.7016
  822MOL0     C10891   9.198   3.197   7.708  0.0739 -0.7867 -0.6940
  822MOL0     C10892   9.277   3.087   7.670 -0.1658  0.0094  0.3566
  822MOL0     C10893   9.411   3.109   7.621  0.0965  0.4696  0.4418
  822MOL0     O10894   9.483   3.003   7.583 -0.6364 -0.2938 -0.3594
  822MOL0     C10895   9.585   3.017   7.492  0.0973  0.0559 -0.8771
  822MOL0     C10896   9.641   2.889   7.451 -0.0478  0.0136 -0.2468
  822MOL0     C10897   9.729   2.821   7.557  0.6389  0.2141 -0.6698
  822MOL0     C10898   9.785   2.681   7.501 -0.1012  0.5659 -0.1813
  822MOL0     C10899   9.673   2.578   7.506  0.0841 -1.0284 -0.0717
  822MOL0     C10900   9.584   2.495   7.497  0.2785 -0.2210  0.2489
  822MOL0     C10901   9.458   3.243   7.618 -1.0789  0.0043 -0.9195
  822MOL0     C10902   9.367   3.348   7.661 -0.3018  0.1573 -0.1992
  822MOL0     H10903   9.007   3.683   7.574 -2.1021  0.2103  1.1028
  822MOL0     H10904   8.877   3.888   7.642  0.6140  0.0539 -0.2670
  822MOL0     H10905   8.815   4.104   7.777  0.0914  1.2981  1.4578
  822MOL0     H10906   8.708   3.961   7.796  1.3384 -2.4716  0.5546
  822MOL0     H10907   8.631   4.030   8.013  2.9766 -1.0588  1.1479
  822MOL0     H10908   8.734   4.175   7.995  1.0750 -0.6216 -0.8609
  822MOL0     H10909   8.599   4.221   7.778  2.4515  2.1787  2.0861
  822MOL0     H10910   8.467   4.118   7.839 -1.2157  1.9930  1.4978
  822MOL0     H10911   8.465   4.245   8.046  0.4107  2.6374  1.1341
  822MOL0     H10912   8.593   4.355   7.952  2.2508 -0.5598 -0.9600
  822MOL0     H10913   8.427   4.379   7.782 -0.1739 -0.6353  0.0419
  822MOL0     H10914   8.299   4.291   7.875  0.1576 -1.9121 -0.0560
  822MOL0     H10915   8.360   4.458   8.078  4.7995 -1.0759  0.1312
  822MOL0     H10916   8.423   4.554   7.954 -2.3578  1.7443 -1.6427
  822MOL0     H10917   8.193   4.632   8.004  1.3978  2.2658 -0.8763
  822MOL0     H10918   8.257   4.624   7.847  0.1906 -1.6584 -0.3618
  822MOL0     H10919   8.099   4.388   7.941  0.5775  0.3593 -0.5038
  822MOL0     H10920   8.101   4.444   7.782 -0.7839 -1.3695  0.2240
  822MOL0     H10921   7.983   4.579   8.131 -2.0399  0.7707  1.2327
  822MOL0     H10922   7.729   4.622   8.200 -1.6746 -0.2244  0.8201
  822MOL0     H10923   7.705   4.777   8.124 -1.5643  0.2189 -0.4379
  822MOL0     H10924   7.499   4.621   8.181 -3.2469  1.7010 -0.4127
  822MOL0     H10925   7.546   4.516   8.059 -1.8264  1.1082 -2.0496
  822MOL0     H10926   7.502   4.694   7.887  0.3796  1.8788 -0.0451
  822MOL0     H10927   7.514   4.817   8.009 -1.6448  1.2651 -1.9918
  822MOL0     H10928   7.321   4.757   8.113  1.4195  0.8467 -0.7831
  822MOL0     H10929   7.310   4.597   8.033  0.7140 -0.2791 -0.6239
  822MOL0     H10930   7.094   4.765   8.130 -0.5284  0.3249 -0.3496
  822MOL0     H10931   6.767   4.870   8.198 -2.6111 -0.0227 -4.7856
  822MOL0     H10932   6.764   4.694   8.180  0.2026  0.3415 -2.0069
  822MOL0     H10933   6.903   4.780   8.263  0.1350  1.0625  0.0833
  822MOL0     H10934   6.445   4.628   7.868 -1.0594 -0.4455 -0.2328
  822MOL0     H10935   6.200   4.654   7.822 -2.4227  0.9369 -0.1164
  822MOL0     H10936   6.052   5.027   7.818 -2.4471 -0.7663  3.2887
  822MOL0     H10937   6.003   5.023   7.651  0.9447 -0.4075  0.4024
  822MOL0     H10938   5.875   4.872   7.876 -0.7425  1.8428  1.6355
  822MOL0     H10939   5.804   5.027   7.839 -4.5426  0.1295 -3.4561
  822MOL0     H10940   5.792   4.785   7.689  5.4831  1.3311  0.1483
  822MOL0     H10941   5.796   4.940   7.608  2.2048  2.2224  2.4130
  822MOL0     H10942   5.597   4.817   7.800  0.2472  0.8112 -0.1115
  822MOL0     H10943   5.573   4.991   7.757 -1.3016 -0.4130  0.2740
  822MOL0     H10944   5.568   4.768   7.556 -1.2677 -1.1559  1.1417
  822MOL0     H10945   5.540   4.942   7.523 -1.2423  1.4485  1.8413
  822MOL0     H10946   5.383   4.749   7.693 -1.4127  1.0820  0.8956
  822MOL0     H10947   5.345   4.913   7.698  2.4915  0.5690  2.0863
  822MOL0     H10948   5.364   4.755   7.451  2.2997 -1.7926  2.6521
  822MOL0     H10949   5.342   4.937   7.455  1.9311 -0.2901  0.7761
  822MOL0     H10950   5.151   4.739   7.581 -4.0215 -0.5949 -0.9314
  822MOL0     H10951   5.145   4.799   7.413  2.2208 -0.5024 -1.0045
  822MOL0     H10952   6.249   5.017   7.642 -0.3278  0.9874  1.3029
  822MOL0     H10953   6.505   5.009   7.666 -1.1794  2.4489  0.7202
  822MOL0     H10954   6.856   4.796   7.701  3.0532 -0.2489 -1.9648
  822MOL0     H10955   7.112   4.807   7.713  0.8851  0.2146 -0.1923
  822MOL0     H10956   9.090   3.872   8.016 -1.5977  1.3765  0.0830
  822MOL0     H10957   9.248   3.691   7.916  0.6181 -1.8876 -0.5701
  822MOL0     H10958   9.098   3.173   7.742 -0.2113 -1.8470 -2.2230
  822MOL0     H10959   9.247   2.983   7.673 -0.6611 -0.0051 -2.3508
  822MOL0     H10960   9.544   3.068   7.405  0.1435 -0.2139 -1.0570
  822MOL0     H10961   9.660   3.084   7.535 -0.9601  1.8648 -1.7424
  822MOL0     H10962   9.696   2.904   7.358 -2.4133 -0.2538 -1.7820
  822MOL0     H10963   9.556   2.822   7.432 -1.8489  1.4119  2.2874
  822MOL0     H10964   9.680   2.797   7.652  2.3767 -1.0467 -0.0385
  822MOL0     H10965   9.814   2.878   7.595 -0.4297  1.3342  0.1238
  822MOL0     H10966   9.868   2.659   7.569  1.7813  2.3913 -1.7260
  822MOL0     H10967   9.826   2.698   7.400 -0.7886 -1.6171 -0.8746
  822MOL0     H10968   9.504   2.424   7.483  0.8823 -0.7944 -0.3453
  822MOL0     H10969   9.559   3.258   7.582 -0.5246 -1.0990  0.0895
  822MOL0     H10970   9.401   3.452   7.658 -1.1802  0.4770 -3.8311
  823MOL0     O10971   4.960   9.576   6.875  0.6493  0.7514  0.3712
  823MOL0     C10972   5.006   9.670   6.937  0.1997  1.1144 -0.2547
  823MOL0     O10973   4.938   9.748   7.024  0.4228  0.4647  0.2598
  823MOL0     C10974   4.802   9.728   7.050  0.1585  0.4191  0.6193
  823MOL0     C10975   4.698   9.674   6.965 -0.0715 -0.1267 -1.1688
  823MOL0     C10976   4.569   9.642   7.014  0.5094  0.2747  0.1074
  823MOL0     C10977   4.541   9.681   7.147  0.3292 -0.2454  0.5994
  823MOL0     O10978   4.417   9.673   7.205  0.9579  0.2730  0.9034
  823MOL0     C10979   4.306   9.624   7.134  1.4092 -0.1559 -0.3711
  823MOL0     C10980   4.185   9.603   7.234  0.1399  0.1316 -0.0528
  823MOL0     C10981   4.105   9.731   7.244  0.1990 -0.8142 -0.2054
  823MOL0     C10982   3.986   9.702   7.339 -0.2150 -0.1553  0.7710
  823MOL0     C10983   3.904   9.825   7.360 -0.2591 -0.9627 -0.1127
  823MOL0     C10984   3.790   9.801   7.464  0.5250  0.3425  0.0964
  823MOL0     C10985   3.680   9.700   7.419 -0.1495 -0.5788  0.2064
  823MOL0     C10986   3.551   9.695   7.509  0.2213 -0.3592 -0.3723
  823MOL0     N10987   3.463   9.581   7.460  0.0047  1.0199  0.4058
  823MOL0     C10988   3.396   9.572   7.340  0.2705 -0.6082  0.5165
  823MOL0     C10989   3.335   9.451   7.341 -0.0234  0.2230  0.5509
  823MOL0     C10990   3.249   9.393   7.238 -0.1033 -0.7540 -0.2248
  823MOL0     C10991   3.096   9.430   7.268 -0.0714 -0.8129  0.4226
  823MOL0     C10992   3.064   9.580   7.233 -0.1439 -0.2570  1.0034
  823MOL0     C10993   2.928   9.632   7.267  0.2492 -0.3361  0.4390
  823MOL0     O10994   2.916   9.772   7.242  0.1003 -0.9054  0.2316
  823MOL0     C10995   2.785   9.815   7.218 -0.0495 -0.0093 -0.4065
  823MOL0     C10996   2.723   9.908   7.303  0.6310 -0.1043 -0.2771
  823MOL0     C10997   2.586   9.939   7.293  0.0327 -0.2024 -0.1574
  823MOL0     C10998   2.523  10.020   7.410  0.1378  0.5202 -0.3952
  823MOL0     C10999   2.509   9.884   7.188  0.1000  0.5442 -0.7947
  823MOL0     C11000   2.367   9.913   7.162  0.7209 -0.0755  0.4120
  823MOL0     O11001   2.303   9.820   7.089  0.0291 -0.1309  0.2892
  823MOL0     C11002   2.176   9.843   7.043 -0.3116 -0.0241  0.4601
  823MOL0     C11003   2.067   9.766   7.086  0.0582 -0.4379  0.5612
  823MOL0     C11004   1.939   9.798   7.038 -0.5466  0.3209  0.4579
  823MOL0     C11005   1.913   9.900   6.953 -0.3240  0.6772 -0.1061
  823MOL0     O11006   1.789   9.914   6.895 -1.3336 -0.0481  0.1303
  823MOL0     C11007   1.744  10.052   6.888  0.6130  0.4704 -0.1459
  823MOL0     C11008   1.589  10.070   6.904  1.0739  0.8360 -0.1493
  823MOL0     C11009   1.518   9.990   7.006 -0.1004  0.0754  0.2209
  823MOL0     C11010   1.374  10.046   7.037 -0.4796  0.7830  0.6230
  823MOL0     C11011   1.286   9.938   7.108 -0.2799  0.2778  0.0569
  823MOL0     C11012   1.140   9.984   7.108 -0.4899 -0.0457  0.2596
  823MOL0     C11013   1.041   9.873   7.168  0.4642  0.7117 -0.3324
  823MOL0     C11014   0.883   9.909   7.154 -0.2270  0.3704  0.1988
  823MOL0    Cl11015   0.777   9.801   7.242  0.1324  0.4202  0.3320
  823MOL0     C11016   2.019   9.980   6.914  0.6699 -0.2227 -0.5930
  823MOL0     C11017   2.152   9.951   6.962  0.4757 -0.1328  1.2985
  823MOL0     O11018   2.333  10.027   7.179  0.5548 -0.4333  0.3208
  823MOL0     C11019   2.579   9.798   7.097 -0.2713 -0.3945  0.3278
  823MOL0     C11020   2.709   9.761   7.118 -1.0104  0.1010  0.5854
  823MOL0     N11021   3.358   9.391   7.461  0.2404 -0.4901 -0.0452
  823MOL0     N11022   3.437   9.463   7.532  0.6775  0.1125 -0.1530
  823MOL0     C11023   4.638   9.745   7.228 -0.1531  0.3265  0.0702
  823MOL0     C11024   4.765   9.766   7.181 -0.5379 -0.4054 -0.2321
  823MOL0     C11025   5.148   9.692   6.925 -0.1230 -1.2634 -1.3210
  823MOL0     C11026   5.224   9.656   6.812 -0.3905 -0.1727 -0.4112
  823MOL0     C11027   5.362   9.685   6.808  0.2527 -0.3582 -0.3118
  823MOL0     C11028   5.433   9.724   6.920  0.2699  0.1639 -0.4260
  823MOL0     O11029   5.569   9.738   6.914 -0.7893  0.4019  0.5106
  823MOL0     C11030   5.637   9.664   7.015  0.2196 -0.1152  0.9155
  823MOL0     C11031   5.783   9.647   6.977  0.2394 -0.6452 -0.2177
  823MOL0     C11032   5.865   9.554   7.058 -0.3042  0.3922  0.1248
  823MOL0     C11033   5.842   9.568   7.207  0.1515 -0.5840  0.4382
  823MOL0     C11034   5.948   9.507   7.285  0.3638 -0.4922  0.5192
  823MOL0     C11035   6.038   9.447   7.343 -0.3809  0.4546  0.5406
  823MOL0     C11036   5.358   9.761   7.035  0.4421 -1.0229 -0.0402
  823MOL0     C11037   5.219   9.742   7.041 -0.6120 -0.2406  0.0724
  823MOL0     H11038   4.729   9.635   6.869  0.7112  2.2946 -1.9584
  823MOL0     H11039   4.492   9.602   6.948  1.7034 -1.8999 -0.0609
  823MOL0     H11040   4.282   9.704   7.064  2.2817  2.8167  2.4970
  823MOL0     H11041   4.326   9.524   7.094 -0.9649 -1.6070  1.6710
  823MOL0     H11042   4.118   9.527   7.192 -1.4210  1.9714 -1.0765
  823MOL0     H11043   4.217   9.568   7.333 -1.5088  3.1690  1.6948
  823MOL0     H11044   4.165   9.811   7.287 -2.2800  0.8632  0.3648
  823MOL0     H11045   4.080   9.770   7.144 -2.0502  0.0684  0.6292
  823MOL0     H11046   3.923   9.622   7.298 -0.7850 -0.0508  1.4312
  823MOL0     H11047   4.032   9.681   7.436 -0.2335  2.5198  1.4401
  823MOL0     H11048   3.967   9.906   7.398  2.0703 -1.3280 -2.8062
  823MOL0     H11049   3.861   9.861   7.266 -0.0547  0.0914  0.1885
  823MOL0     H11050   3.836   9.759   7.555  1.3856  0.7408 -0.1442
  823MOL0     H11051   3.743   9.890   7.505  1.4492  0.8091  0.1780
  823MOL0     H11052   3.659   9.728   7.315  1.0828 -1.5149 -0.3279
  823MOL0     H11053   3.731   9.605   7.400  0.0067 -0.0634 -2.4226
  823MOL0     H11054   3.510   9.797   7.506  0.9274 -0.0960 -1.6409
  823MOL0     H11055   3.579   9.681   7.614  0.0210 -2.4085 -0.5570
  823MOL0     H11056   3.395   9.644   7.260 -1.9461 -0.4774  0.5837
  823MOL0     H11057   3.269   9.417   7.133 -1.9623 -1.7308 -0.8592
  823MOL0     H11058   3.263   9.285   7.243 -2.1701 -1.0141  2.5949
  823MOL0     H11059   3.079   9.411   7.374  0.6999 -0.1174  0.6842
  823MOL0     H11060   3.039   9.366   7.200  0.8245 -2.1467  0.9006
  823MOL0     H11061   3.089   9.584   7.127  1.5962 -2.7669  1.2508
  823MOL0     H11062   3.137   9.642   7.285  0.2875  0.2467 -0.1810
  823MOL0     H11063   2.919   9.606   7.373 -1.3673 -1.4362  0.0781
  823MOL0     H11064   2.851   9.568   7.222  0.5398 -0.6556  0.3898
  823MOL0     H11065   2.778   9.953   7.385 -0.2159 -0.8412  0.7198
  823MOL0     H11066   2.455   9.944   7.449 -0.7534  0.5800 -1.7481
  823MOL0     H11067   2.600  10.036   7.486 -0.3291 -2.9742  1.0001
  823MOL0     H11068   2.476  10.117   7.391  1.4487  1.5333  1.1957
  823MOL0     H11069   2.084   9.686   7.158 -1.8181 -0.2725  1.2446
  823MOL0     H11070   1.860   9.733   7.073  1.8285 -1.5173  2.8647
  823MOL0     H11071   1.787  10.114   6.967 -2.2910  2.5819 -0.0546
  823MOL0     H11072   1.786  10.083   6.792  0.1815  1.9342  0.1027
  823MOL0     H11073   1.567  10.176   6.924  2.7911  1.1666  0.1283
  823MOL0     H11074   1.543  10.028   6.815 -1.9088 -1.1405  2.1007
  823MOL0     H11075   1.566   9.985   7.105 -1.6440  0.9349  1.0480
  823MOL0     H11076   1.509   9.888   6.968 -1.6552 -0.1975  1.1986
  823MOL0     H11077   1.388  10.118   7.118  0.9314 -0.6630  1.7238
  823MOL0     H11078   1.339  10.087   6.942 -0.4852  1.3230  0.8583
  823MOL0     H11079   1.320   9.932   7.212  1.5038 -0.3500 -0.5260
  823MOL0     H11080   1.288   9.839   7.061 -2.7020  0.2548 -0.1183
  823MOL0     H11081   1.139  10.069   7.177 -2.8018 -0.5571  0.9260
  823MOL0     H11082   1.097  10.015   7.012 -2.6030  2.9947  2.0360
  823MOL0     H11083   1.064   9.848   7.272 -1.0446 -1.1865 -0.4017
  823MOL0     H11084   1.058   9.788   7.102 -1.2028 -0.5151  0.7244
  823MOL0     H11085   0.850   9.908   7.049  0.4980 -2.8360 -0.1091
  823MOL0     H11086   0.867  10.008   7.197 -0.1367 -0.0090  1.1081
  823MOL0     H11087   2.000  10.070   6.857  3.6217  0.6971 -0.3190
  823MOL0     H11088   2.232  10.010   6.919 -2.6031  1.3045 -3.1642
  823MOL0     H11089   2.537   9.758   7.006 -1.1657 -1.2758  1.1008
  823MOL0     H11090   2.747   9.687   7.048 -1.7887  0.4421 -0.2179
  823MOL0     H11091   4.615   9.778   7.329  0.7027 -0.5914  0.5801
  823MOL0     H11092   4.846   9.817   7.233 -0.0739 -0.0216 -1.3061
  823MOL0     H11093   5.182   9.604   6.727  0.5613  0.1341 -1.0868
  823MOL0     H11094   5.421   9.664   6.720  1.1235  3.8490 -0.9608
  823MOL0     H11095   5.615   9.709   7.112 -2.0142  2.1112 -0.4817
  823MOL0     H11096   5.603   9.560   7.007  3.2050 -1.0851 -1.2404
  823MOL0     H11097   5.833   9.743   6.964  3.2371 -1.7702  1.7554
  823MOL0     H11098   5.790   9.596   6.880 -0.0953 -0.6145 -0.2595
  823MOL0     H11099   5.969   9.572   7.026 -0.8024  2.3626 -0.5328
  823MOL0     H11100   5.839   9.452   7.029  0.8182  0.7649 -2.5039
  823MOL0     H11101   5.741   9.539   7.235 -1.3071  2.6286 -0.9999
  823MOL0     H11102   5.837   9.676   7.224  0.6532  0.6379 -5.3224
  823MOL0     H11103   6.122   9.402   7.392 -0.5905  0.1561  0.6302
  823MOL0     H11104   5.413   9.799   7.121  2.0048  0.5267 -1.6379
  823MOL0     H11105   5.161   9.763   7.131 -0.1837  1.4123 -0.0104
  824MOL0     O11106   3.324   4.824   5.991 -0.1620  0.5302 -0.4581
  824MOL0     C11107   3.361   4.744   5.903  0.2604  0.6414  0.2079
  824MOL0     O11108   3.280   4.701   5.801  0.2876 -0.1761 -0.0422
  824MOL0     C11109   3.145   4.703   5.807  0.2801  0.5433 -0.1902
  824MOL0     C11110   3.079   4.813   5.823  0.2869 -0.7620 -0.3365
  824MOL0     C11111   2.942   4.826   5.815  0.3589  0.2931 -0.1066
  824MOL0     C11112   2.870   4.707   5.796  0.3656  0.2620 -0.4652
  824MOL0     O11113   2.736   4.706   5.776 -0.1686  0.5094  0.1811
  824MOL0     C11114   2.697   4.705   5.635  0.8179 -0.0411  0.1395
  824MOL0     C11115   2.558   4.648   5.617 -0.2571  0.6412 -0.3825
  824MOL0     C11116   2.539   4.584   5.475  0.3129  0.5551 -0.6587
  824MOL0     C11117   2.398   4.518   5.465 -0.8363  0.2014 -0.0973
  824MOL0     C11118   2.342   4.528   5.319  0.4105  0.1723 -0.7241
  824MOL0     C11119   2.366   4.398   5.253 -0.1236 -1.2000 -0.0823
  824MOL0     C11120   2.356   4.407   5.101 -0.0851 -0.6463 -0.9178
  824MOL0     C11121   2.224   4.479   5.059 -0.4459  0.1988  0.4483
  824MOL0     N11122   2.183   4.484   4.914 -0.6481  1.3737 -0.1741
  824MOL0     C11123   2.191   4.385   4.819  0.5420  0.1416 -0.0966
  824MOL0     C11124   2.143   4.442   4.703  0.1075 -0.4914 -0.1672
  824MOL0     C11125   2.112   4.371   4.575 -0.6286 -0.0970 -0.4409
  824MOL0     C11126   2.036   4.241   4.595 -0.5727  0.1575  0.1594
  824MOL0     C11127   1.974   4.181   4.462  0.0982  0.3293  0.2905
  824MOL0     C11128   1.834   4.222   4.440 -0.6978 -0.6350 -0.5108
  824MOL0     O11129   1.818   4.367   4.446 -0.0190 -0.1960  0.0341
  824MOL0     C11130   1.688   4.423   4.436 -0.3549  0.0138 -0.4219
  824MOL0     C11131   1.578   4.357   4.382 -0.4985  0.8275  0.7885
  824MOL0     C11132   1.450   4.419   4.369 -0.2831  0.5443 -0.8184
  824MOL0     C11133   1.332   4.337   4.305 -0.5454  0.5523  0.1652
  824MOL0     C11134   1.437   4.554   4.412  0.5559 -0.2306 -0.3889
  824MOL0     C11135   1.307   4.636   4.398  0.1496  0.2843 -0.1333
  824MOL0     O11136   1.189   4.568   4.377  0.4625  0.2120 -0.2256
  824MOL0     C11137   1.061   4.626   4.363  0.8372 -0.1087  0.2016
  824MOL0     C11138   1.025   4.759   4.400 -0.3909 -0.0135 -0.3147
  824MOL0     C11139   0.905   4.812   4.359 -0.9551 -1.3139 -0.0050
  824MOL0     C11140   0.809   4.742   4.292  0.2837  0.0030  0.1821
  824MOL0     O11141   0.691   4.792   4.248  0.1177 -0.3336 -0.0684
  824MOL0     C11142   0.665   4.933   4.226 -0.0812  0.1752  0.1723
  824MOL0     C11143   0.525   4.961   4.180  0.6298 -0.1207  0.7033
  824MOL0     C11144   0.424   4.901   4.275  0.3778 -0.5842 -0.3943
  824MOL0     C11145   0.279   4.919   4.221  0.0828 -0.6010 -0.0194
  824MOL0     C11146   0.164   4.856   4.296  0.1400  0.0693 -0.2197
  824MOL0     C11147   0.040   4.939   4.286  0.1666  0.6292  0.9406
  824MOL0     C11148  -0.082   4.845   4.315 -0.2435 -0.2498 -0.1748
  824MOL0     C11149  -0.216   4.911   4.295  0.3449 -0.0570  0.0151
  824MOL0    Cl11150  -0.252   5.030   4.414  0.1533 -0.3456  0.1630
  824MOL0     C11151   0.830   4.605   4.264  0.5899  0.3449 -1.8393
  824MOL0     C11152   0.962   4.548   4.299 -0.2967 -0.1193 -0.5096
  824MOL0     O11153   1.317   4.755   4.398 -0.9589 -0.2048  0.3340
  824MOL0     C11154   1.553   4.621   4.456  0.2937  1.0864 -0.2930
  824MOL0     C11155   1.674   4.554   4.478  0.4110 -0.1821 -0.1151
  824MOL0     N11156   2.095   4.568   4.730 -0.0111 -0.9057  0.7042
  824MOL0     N11157   2.122   4.592   4.855  0.0514 -0.0068  0.5678
  824MOL0     C11158   2.938   4.587   5.778  0.5070 -1.4212 -0.6136
  824MOL0     C11159   3.078   4.587   5.778 -0.5058 -0.3760 -0.3022
  824MOL0     C11160   3.506   4.712   5.884  0.9009 -0.3191 -0.6850
  824MOL0     C11161   3.598   4.784   5.962  0.3795 -0.6144 -0.0360
  824MOL0     C11162   3.732   4.762   5.954 -0.3517  0.2600  0.1557
  824MOL0     C11163   3.782   4.660   5.877  1.1104  0.7300  0.3509
  824MOL0     O11164   3.919   4.646   5.883  0.0170  0.5275 -0.3102
  824MOL0     C11165   3.987   4.538   5.827  0.3526 -0.5514  0.3637
  824MOL0     C11166   3.998   4.438   5.944  0.7331  0.1715 -0.0535
  824MOL0     C11167   4.105   4.332   5.932  0.2722 -1.0874 -0.5250
  824MOL0     C11168   4.124   4.250   6.068 -0.2457  0.3314  0.9797
  824MOL0     C11169   4.243   4.169   6.075  0.5718  0.0658  0.4027
  824MOL0     C11170   4.344   4.109   6.070  0.0493 -0.7481 -0.3784
  824MOL0     C11171   3.684   4.574   5.801 -0.2715 -0.2467  0.7292
  824MOL0     C11172   3.548   4.607   5.808 -0.0623 -0.1558 -0.4978
  824MOL0     H11173   3.118   4.912   5.841  1.2157 -0.2438 -4.2583
  824MOL0     H11174   2.883   4.917   5.826 -3.3084 -1.6565 -1.6292
  824MOL0     H11175   2.690   4.809   5.602 -2.2746  0.5231  2.1806
  824MOL0     H11176   2.774   4.653   5.577  3.9121  1.0849  2.8789
  824MOL0     H11177   2.547   4.566   5.688  1.0082  2.7756  2.4490
  824MOL0     H11178   2.485   4.727   5.636 -0.8661  0.4479 -1.7580
  824MOL0     H11179   2.548   4.660   5.397 -0.9228  3.7860  2.1081
  824MOL0     H11180   2.619   4.514   5.449  0.6367  1.0116 -0.9113
  824MOL0     H11181   2.393   4.412   5.493  1.1055  0.6966  2.5103
  824MOL0     H11182   2.324   4.567   5.529 -3.6149 -4.1884  0.4919
  824MOL0     H11183   2.234   4.538   5.332  0.8738  2.3184  2.5956
  824MOL0     H11184   2.369   4.614   5.257 -0.6083 -0.1014 -1.5780
  824MOL0     H11185   2.468   4.362   5.272  0.8888  1.7685  0.6684
  824MOL0     H11186   2.300   4.318   5.288  0.7078 -1.9269 -0.1416
  824MOL0     H11187   2.438   4.475   5.076 -0.0482 -0.3486 -0.0280
  824MOL0     H11188   2.368   4.310   5.051 -0.6057 -1.0292 -0.2995
  824MOL0     H11189   2.231   4.584   5.088 -1.5918  0.7479 -1.1308
  824MOL0     H11190   2.151   4.432   5.125  3.4552  0.0734  5.3204
  824MOL0     H11191   2.223   4.281   4.829 -1.1042 -0.5148 -1.1724
  824MOL0     H11192   2.071   4.445   4.505 -1.4368 -0.2863 -0.1778
  824MOL0     H11193   2.211   4.340   4.542  0.4930  0.8023  1.8491
  824MOL0     H11194   1.952   4.249   4.664 -1.3350 -0.2087 -0.7147
  824MOL0     H11195   2.108   4.165   4.628 -0.2719  0.4022  0.0768
  824MOL0     H11196   1.972   4.072   4.464 -0.8021  0.2375 -2.2030
  824MOL0     H11197   2.033   4.215   4.376  1.2394  5.3251  2.6815
  824MOL0     H11198   1.782   4.179   4.527  1.5890 -1.4107  0.5657
  824MOL0     H11199   1.801   4.178   4.345 -0.5092 -0.6663 -0.5621
  824MOL0     H11200   1.587   4.252   4.354  0.2294  1.5416 -2.0327
  824MOL0     H11201   1.361   4.233   4.288  1.0376  0.6745  1.8858
  824MOL0     H11202   1.262   4.321   4.387  0.9521 -1.0688  1.1888
  824MOL0     H11203   1.291   4.382   4.213 -0.5633 -1.1620 -0.7030
  824MOL0     H11204   1.086   4.827   4.459 -1.5294 -0.8898  1.9541
  824MOL0     H11205   0.882   4.909   4.402 -0.2849 -1.4502  0.6926
  824MOL0     H11206   0.676   4.986   4.320  1.9472  2.9704 -1.4881
  824MOL0     H11207   0.735   4.975   4.153 -1.6360  2.5065 -0.0841
  824MOL0     H11208   0.503   5.068   4.183  0.7915 -0.0993  2.1039
  824MOL0     H11209   0.517   4.910   4.084 -0.2498 -0.5400  0.9837
  824MOL0     H11210   0.434   4.956   4.369 -1.3792 -0.0829 -0.4581
  824MOL0     H11211   0.439   4.793   4.282  0.0711 -0.7057 -1.4110
  824MOL0     H11212   0.264   5.028   4.222 -4.9769 -1.0384 -1.5102
  824MOL0     H11213   0.273   4.878   4.120  1.3386 -0.5079 -0.1542
  824MOL0     H11214   0.199   4.852   4.400 -2.1876  2.5628  0.7850
  824MOL0     H11215   0.145   4.754   4.260 -2.1289  0.5045 -0.4335
  824MOL0     H11216   0.047   5.021   4.359 -0.2874  0.6119  1.0076
  824MOL0     H11217   0.026   4.977   4.185  0.5712  2.9286  1.7062
  824MOL0     H11218  -0.073   4.814   4.420 -1.3953 -0.5578 -0.1609
  824MOL0     H11219  -0.087   4.759   4.247  0.9538 -0.0071 -0.6096
  824MOL0     H11220  -0.296   4.836   4.297 -0.3805  0.7054  0.8504
  824MOL0     H11221  -0.223   4.964   4.200  0.3312 -1.6441 -0.8954
  824MOL0     H11222   0.747   4.549   4.222 -1.8936  3.3662 -1.3323
  824MOL0     H11223   0.986   4.447   4.269  0.5365  0.0917 -0.5900
  824MOL0     H11224   1.535   4.725   4.483  0.3910  0.6590  1.5093
  824MOL0     H11225   1.755   4.617   4.513  0.5076  0.7530 -1.8828
  824MOL0     H11226   2.884   4.497   5.752  1.8003 -2.6265  0.6756
  824MOL0     H11227   3.131   4.496   5.752 -2.0904 -1.0105 -1.4501
  824MOL0     H11228   3.569   4.861   6.033 -0.1857 -0.3300 -0.5607
  824MOL0     H11229   3.797   4.825   6.015 -0.0842  1.1521 -1.0077
  824MOL0     H11230   3.937   4.487   5.744  1.8651 -2.2328  0.4004
  824MOL0     H11231   4.084   4.561   5.781 -1.6513 -1.2390 -5.0042
  824MOL0     H11232   3.901   4.389   5.954  0.2014  1.0170 -0.9014
  824MOL0     H11233   4.011   4.493   6.037 -0.5486 -2.1170  1.5673
  824MOL0     H11234   4.200   4.382   5.913 -1.1957  1.4131 -1.8493
  824MOL0     H11235   4.091   4.263   5.848 -3.5592 -0.2527 -0.7693
  824MOL0     H11236   4.034   4.191   6.087 -0.7293  1.0275  0.8800
  824MOL0     H11237   4.138   4.317   6.154  1.0179  1.0378  0.2537
  824MOL0     H11238   4.433   4.049   6.078  0.7163  0.2864  0.3149
  824MOL0     H11239   3.718   4.496   5.733 -1.0381  1.2170 -1.4577
  824MOL0     H11240   3.473   4.542   5.765 -3.2663  3.0684 -0.2888
  825MOL0     O11241   7.068   0.694   4.503  0.3805 -0.6904 -0.7577
  825MOL0     C11242   7.168   0.680   4.569 -0.0724  0.0251 -0.2454
  825MOL0     O11243   7.173   0.705   4.704  0.0062  0.1924  0.2486
  825MOL0     C11244   7.055   0.725   4.767 -0.3294 -0.3589  0.0613
  825MOL0     C11245   7.022   0.846   4.818 -0.5349  1.2770 -0.2941
  825MOL0     C11246   6.904   0.858   4.897 -0.0721 -0.3247  0.1665
  825MOL0     C11247   6.813   0.752   4.913  0.2247 -0.5733 -0.6456
  825MOL0     O11248   6.703   0.759   4.999  0.0608 -0.1036  0.2473
  825MOL0     C11249   6.593   0.689   4.950  0.6427  0.5343  0.0524
  825MOL0     C11250   6.461   0.726   5.006  0.5500 -0.3820 -0.0629
  825MOL0     C11251   6.356   0.655   4.931 -0.4961  0.0778 -0.2964
  825MOL0     C11252   6.218   0.699   4.975  0.8547 -0.3212  0.5420
  825MOL0     C11253   6.116   0.597   4.904 -0.5241  0.0283  0.6110
  825MOL0     C11254   5.971   0.633   4.938 -0.5796  0.1363 -0.0568
  825MOL0     C11255   5.869   0.522   4.904  0.3575  0.6044 -0.6267
  825MOL0     C11256   5.865   0.496   4.756 -0.1338 -0.7538  0.6626
  825MOL0     N11257   5.738   0.428   4.724 -0.1604  0.8891  0.2784
  825MOL0     C11258   5.679   0.341   4.811 -0.6881 -0.5284  0.0912
  825MOL0     C11259   5.573   0.298   4.744 -0.3306  0.3431 -0.4418
  825MOL0     C11260   5.474   0.196   4.791  0.0386  1.0191 -0.3049
  825MOL0     C11261   5.330   0.241   4.777 -0.2367 -0.3036  0.2398
  825MOL0     C11262   5.278   0.246   4.633  0.3676 -0.8705 -0.7092
  825MOL0     C11263   5.127   0.238   4.617  0.1191 -0.4142 -0.5480
  825MOL0     O11264   5.086   0.099   4.653  0.2820 -0.5656  0.9323
  825MOL0     C11265   4.959   0.067   4.677  0.1053 -0.1116 -0.2465
  825MOL0     C11266   4.850   0.151   4.662 -0.0298  0.1786  0.0764
  825MOL0     C11267   4.717   0.103   4.681  0.9504 -0.2947  0.9657
  825MOL0     C11268   4.606   0.200   4.648 -0.5828  0.0479  0.1304
  825MOL0     C11269   4.694  -0.028   4.734 -0.4017 -0.9534  0.8083
  825MOL0     C11270   4.569  -0.094   4.754  0.7241  0.0414 -0.6020
  825MOL0     O11271   4.465  -0.030   4.817 -0.0641 -1.0635  0.4624
  825MOL0     C11272   4.338  -0.083   4.820  0.1937  0.4032  0.0113
  825MOL0     C11273   4.274  -0.117   4.700 -0.1904 -0.7176  0.6630
  825MOL0     C11274   4.147  -0.162   4.696  0.7768  0.4274 -1.2096
  825MOL0     C11275   4.082  -0.209   4.820  0.2865  0.3730 -1.0276
  825MOL0     O11276   3.960  -0.265   4.824 -0.5742  0.2617  0.7574
  825MOL0     C11277   3.945  -0.381   4.900 -0.1648  0.1948 -0.2953
  825MOL0     C11278   3.825  -0.463   4.851 -0.0454  0.5862 -0.2361
  825MOL0     C11279   3.807  -0.583   4.941  0.7138 -0.9104  0.1038
  825MOL0     C11280   3.673  -0.656   4.931 -0.3973 -0.3963  0.6938
  825MOL0     C11281   3.675  -0.765   5.033  0.1056 -0.0130  0.9855
  825MOL0     C11282   3.538  -0.846   5.042  0.9971 -0.0307  0.4388
  825MOL0     C11283   3.535  -0.943   5.162 -0.0058  0.1883  0.3541
  825MOL0     C11284   3.402  -1.024   5.162 -1.1198  0.7180 -0.2387
  825MOL0    Cl11285   3.253  -0.936   5.217  0.0013  0.5237  0.2640
  825MOL0     C11286   4.153  -0.179   4.938  0.0204 -0.3088 -1.2597
  825MOL0     C11287   4.278  -0.115   4.939  0.2647  1.6726 -0.3579
  825MOL0     O11288   4.568  -0.202   4.692  0.6325 -0.2140  0.1699
  825MOL0     C11289   4.807  -0.109   4.749 -0.0990 -0.0085 -0.1606
  825MOL0     C11290   4.936  -0.063   4.718  0.7116  0.7492  0.2535
  825MOL0     N11291   5.582   0.339   4.621 -0.1901 -0.1858  0.0719
  825MOL0     N11292   5.671   0.432   4.607  0.2198 -0.2310  0.6219
  825MOL0     C11293   6.840   0.631   4.849 -0.5033  0.1074 -0.3681
  825MOL0     C11294   6.961   0.629   4.771 -0.5056 -0.0555  0.2511
  825MOL0     C11295   7.285   0.647   4.502  0.1399  0.1503  0.6881
  825MOL0     C11296   7.407   0.663   4.560 -0.0115 -0.3069  0.4902
  825MOL0     C11297   7.526   0.618   4.496  0.6409 -0.1636  0.3659
  825MOL0     C11298   7.524   0.582   4.363 -0.6759  0.8579 -0.0227
  825MOL0     O11299   7.644   0.544   4.305 -0.3974 -0.6588 -0.0640
  825MOL0     C11300   7.663   0.403   4.295  0.5444 -0.0246  0.4065
  825MOL0     C11301   7.799   0.354   4.240  0.0810  0.8183 -0.6938
  825MOL0     C11302   7.907   0.398   4.332  0.7875 -0.2082 -0.3984
  825MOL0     C11303   8.037   0.322   4.313  0.0199  0.1869  0.2050
  825MOL0     C11304   8.121   0.379   4.201  1.2800  0.1146  0.4875
  825MOL0     C11305   8.195   0.425   4.119 -0.7852  0.2309  0.1061
  825MOL0     C11306   7.400   0.563   4.300 -0.5897  0.2385  0.5786
  825MOL0     C11307   7.285   0.584   4.373  0.0819  0.3618  0.3948
  825MOL0     H11308   7.090   0.931   4.812  1.9115 -0.5903 -0.9042
  825MOL0     H11309   6.905   0.953   4.951  0.4084 -0.3365  0.1809
  825MOL0     H11310   6.573   0.700   4.843  0.7567  1.5633  0.1346
  825MOL0     H11311   6.590   0.580   4.965 -1.2826  0.4676 -0.5887
  825MOL0     H11312   6.448   0.696   5.111 -1.2744  0.4025 -0.0276
  825MOL0     H11313   6.448   0.834   4.990  0.2231 -0.5173 -0.7041
  825MOL0     H11314   6.371   0.676   4.825 -2.8452 -0.3752 -0.7762
  825MOL0     H11315   6.370   0.549   4.952 -0.4243  0.4843  1.9782
  825MOL0     H11316   6.203   0.700   5.083 -0.7339 -3.5863  0.5042
  825MOL0     H11317   6.192   0.797   4.935 -0.6974 -1.8150 -2.5085
  825MOL0     H11318   6.128   0.594   4.795  0.5719  2.4245  0.6085
  825MOL0     H11319   6.135   0.491   4.926 -1.5316  0.4311  3.9431
  825MOL0     H11320   5.955   0.652   5.044 -0.8298  2.3988 -0.4541
  825MOL0     H11321   5.951   0.723   4.880  1.4924 -2.0075 -4.6224
  825MOL0     H11322   5.880   0.425   4.954  2.0003  0.4315 -1.2525
  825MOL0     H11323   5.772   0.555   4.941  0.4583 -0.7746  1.0115
  825MOL0     H11324   5.950   0.433   4.727  0.1127 -1.3167  2.5064
  825MOL0     H11325   5.868   0.595   4.708 -2.7077 -0.7650  0.3213
  825MOL0     H11326   5.704   0.308   4.911  2.3840  0.7514 -0.1320
  825MOL0     H11327   5.491   0.104   4.735  0.8467  2.1099 -1.9513
  825MOL0     H11328   5.484   0.175   4.898  1.9739  1.4876 -0.3535
  825MOL0     H11329   5.327   0.344   4.814  1.4975 -0.6052  1.2901
  825MOL0     H11330   5.276   0.166   4.836  1.7240 -1.2635  0.8656
  825MOL0     H11331   5.317   0.166   4.570  0.1278 -0.3984 -1.4753
  825MOL0     H11332   5.318   0.339   4.590  2.7842 -2.0653 -1.2451
  825MOL0     H11333   5.103   0.264   4.513  2.2801 -0.0925 -1.0097
  825MOL0     H11334   5.070   0.297   4.690  3.6467  0.2577  1.8785
  825MOL0     H11335   4.870   0.249   4.619 -1.3190  0.2094 -0.5032
  825MOL0     H11336   4.553   0.225   4.740 -1.7280 -2.2136  0.1582
  825MOL0     H11337   4.648   0.282   4.589  3.1675 -1.7371  0.0949
  825MOL0     H11338   4.533   0.150   4.583  0.4622  1.4056 -2.2314
  825MOL0     H11339   4.322  -0.092   4.605  0.0115  3.0355  1.5950
  825MOL0     H11340   4.108  -0.183   4.597  0.2557 -0.7486 -0.7787
  825MOL0     H11341   4.035  -0.443   4.898  0.7067  1.3446  1.1124
  825MOL0     H11342   3.925  -0.369   5.007  4.7846 -1.0832  1.0047
  825MOL0     H11343   3.735  -0.401   4.859 -0.9464 -0.5016 -1.5945
  825MOL0     H11344   3.841  -0.485   4.745  1.2785 -2.0471  0.4370
  825MOL0     H11345   3.824  -0.556   5.046 -1.4948 -2.1876  0.8367
  825MOL0     H11346   3.887  -0.651   4.911  0.3314 -0.7128 -1.4523
  825MOL0     H11347   3.590  -0.591   4.960 -1.3344 -0.0960 -2.3502
  825MOL0     H11348   3.653  -0.698   4.832  1.3423 -1.6531  0.8411
  825MOL0     H11349   3.707  -0.721   5.128 -0.2688 -0.4877  1.3319
  825MOL0     H11350   3.753  -0.835   5.003 -0.5076 -0.3071  0.0538
  825MOL0     H11351   3.456  -0.775   5.056 -0.3942 -1.7549  1.4044
  825MOL0     H11352   3.517  -0.900   4.949 -0.9211 -1.8149  1.8125
  825MOL0     H11353   3.546  -0.884   5.254  1.0090 -0.9954  1.0226
  825MOL0     H11354   3.614  -1.018   5.150 -1.5076 -1.2312 -1.2082
  825MOL0     H11355   3.414  -1.106   5.233  2.1613  0.3545 -1.0298
  825MOL0     H11356   3.396  -1.060   5.059 -0.5952 -1.5016  0.4587
  825MOL0     H11357   4.112  -0.210   5.034  0.5076 -0.8559 -1.2199
  825MOL0     H11358   4.329  -0.100   5.033  2.8988 -0.6386 -1.2905
  825MOL0     H11359   4.798  -0.214   4.777 -0.0128 -1.1769 -3.9492
  825MOL0     H11360   5.017  -0.135   4.724  1.2520  1.0319 -2.4146
  825MOL0     H11361   6.779   0.543   4.865  0.3954 -0.6073 -0.7327
  825MOL0     H11362   6.991   0.534   4.728 -1.8212 -0.1916 -0.4052
  825MOL0     H11363   7.414   0.704   4.660 -0.6307 -0.0639  0.4390
  825MOL0     H11364   7.615   0.630   4.557 -0.1552 -0.3586  1.6138
  825MOL0     H11365   7.643   0.364   4.395  0.5107 -0.5826  0.1840
  825MOL0     H11366   7.597   0.362   4.218  2.9567 -1.4912 -0.9809
  825MOL0     H11367   7.813   0.374   4.133 -0.1801  0.3119 -0.8287
  825MOL0     H11368   7.800   0.245   4.248 -0.2630  0.9025  0.6216
  825MOL0     H11369   7.882   0.387   4.438  0.5186  1.2876 -0.2924
  825MOL0     H11370   7.918   0.505   4.315 -3.5679  0.2266 -1.7166
  825MOL0     H11371   8.013   0.216   4.299  1.3916 -0.4366  2.1408
  825MOL0     H11372   8.101   0.337   4.400 -0.7824  3.9685  0.3119
  825MOL0     H11373   8.240   0.486   4.044 -1.6883  1.7407  0.7517
  825MOL0     H11374   7.395   0.537   4.195 -0.4369  3.2807 -0.2833
  825MOL0     H11375   7.190   0.575   4.322  0.4482  0.2178 -0.2670
  826MOL0     O11376   2.896   0.968   9.281 -0.3929  0.2219  0.0325
  826MOL0     C11377   2.996   0.971   9.357 -0.7261 -0.1183  0.0374
  826MOL0     O11378   3.051   0.861   9.421 -0.4556 -0.2412  0.3864
  826MOL0     C11379   3.006   0.734   9.390 -0.3109  0.1880 -1.3394
  826MOL0     C11380   3.010   0.646   9.503 -0.0664  0.7127 -0.1302
  826MOL0     C11381   2.962   0.518   9.496 -1.0499 -0.6951 -0.2110
  826MOL0     C11382   2.911   0.475   9.370  0.2744 -0.1583 -0.5251
  826MOL0     O11383   2.862   0.348   9.354 -0.3781  0.3634  0.6446
  826MOL0     C11384   2.747   0.330   9.440 -0.1788  0.4131  0.1139
  826MOL0     C11385   2.661   0.202   9.410 -0.1653 -0.1580  0.0420
  826MOL0     C11386   2.547   0.184   9.515  0.2917 -0.0867  0.4614
  826MOL0     C11387   2.463   0.065   9.494 -0.4939  0.1316  1.1666
  826MOL0     C11388   2.318   0.092   9.514 -0.4445 -0.0029  0.5209
  826MOL0     C11389   2.248   0.175   9.403 -0.3784  0.3380 -0.8163
  826MOL0     C11390   2.095   0.188   9.426 -0.2992  0.2539  0.0974
  826MOL0     C11391   2.011   0.065   9.418 -0.4353  0.1004  0.6298
  826MOL0     N11392   1.868   0.092   9.444 -0.1832  0.2033  0.5315
  826MOL0     C11393   1.811   0.135   9.565 -0.6774  0.3315 -0.4014
  826MOL0     C11394   1.679   0.145   9.533  0.2110 -0.2000 -0.6620
  826MOL0     C11395   1.568   0.190   9.638 -1.2695 -0.8487  0.4037
  826MOL0     C11396   1.442   0.113   9.616  1.0768  0.6732 -0.1712
  826MOL0     C11397   1.333   0.168   9.696  0.4935 -0.1044 -0.7869
  826MOL0     C11398   1.192   0.113   9.675  0.2588  0.0941 -0.2262
  826MOL0     O11399   1.095   0.190   9.748 -0.0078 -0.0571  0.4496
  826MOL0     C11400   0.972   0.130   9.744  0.3800  0.0942  0.6353
  826MOL0     C11401   0.937   0.037   9.842 -0.2187 -0.2625 -0.4827
  826MOL0     C11402   0.810  -0.024   9.844 -0.3364 -0.2961 -0.6681
  826MOL0     C11403   0.771  -0.117   9.963 -0.6985  0.1014 -0.1127
  826MOL0     C11404   0.714   0.007   9.745 -0.4428  0.4689 -0.2118
  826MOL0     C11405   0.573  -0.039   9.743 -0.3588  0.1366  0.2382
  826MOL0     O11406   0.502  -0.003   9.631  0.2381 -0.0154 -0.1551
  826MOL0     C11407   0.369  -0.023   9.629  0.6146  0.6473 -0.1576
  826MOL0     C11408   0.277   0.082   9.650  0.3944  0.0629 -0.3726
  826MOL0     C11409   0.144   0.054   9.664 -0.6616 -0.4170 -0.1841
  826MOL0     C11410   0.089  -0.074   9.655  1.8550 -0.1634 -0.2214
  826MOL0     O11411  -0.049  -0.085   9.676  1.0326  0.6918 -0.7229
  826MOL0     C11412  -0.096  -0.217   9.696  0.1936 -0.0833 -0.1207
  826MOL0     C11413  -0.230  -0.199   9.748 -0.3467  0.2728 -0.4826
  826MOL0     C11414  -0.278  -0.342   9.762  0.5692  0.3044 -0.4108
  826MOL0     C11415  -0.345  -0.379   9.898  0.0032  0.5170 -0.4189
  826MOL0     C11416  -0.461  -0.287   9.933 -0.1503  1.5090 -0.7419
  826MOL0     C11417  -0.583  -0.306   9.836  0.3161 -0.6552 -0.4404
  826MOL0     C11418  -0.704  -0.251   9.899  0.8270 -0.4960 -0.0404
  826MOL0     C11419  -0.818  -0.287   9.809  0.4345 -0.0228  0.0583
  826MOL0    Cl11420  -0.970  -0.323   9.905 -0.0974 -0.3733 -0.0258
  826MOL0     C11421   0.175  -0.179   9.620 -0.4315  0.6118 -0.2186
  826MOL0     C11422   0.314  -0.154   9.617 -0.0787 -0.3484 -0.5144
  826MOL0     O11423   0.520  -0.088   9.840 -0.4683 -0.0192 -0.1640
  826MOL0     C11424   0.754   0.097   9.643 -0.0938 -0.3686  0.8611
  826MOL0     C11425   0.878   0.161   9.651  0.3600  0.5640  0.8636
  826MOL0     N11426   1.667   0.131   9.397  0.2769 -0.2955 -0.5753
  826MOL0     N11427   1.779   0.100   9.342 -0.0539 -0.2100  0.0832
  826MOL0     C11428   2.909   0.559   9.260  0.1047 -0.2350  0.0749
  826MOL0     C11429   2.967   0.687   9.267 -0.4407 -0.3779  0.0031
  826MOL0     C11430   3.073   1.099   9.371  0.0614  0.2154 -0.5251
  826MOL0     C11431   3.174   1.104   9.477  0.7911  0.0955  0.0837
  826MOL0     C11432   3.246   1.227   9.497 -0.2540 -0.3805  0.0018
  826MOL0     C11433   3.233   1.335   9.406 -0.1438 -0.1909  0.8612
  826MOL0     O11434   3.304   1.450   9.402 -0.0962  0.3772  0.1505
  826MOL0     C11435   3.438   1.467   9.456 -0.6841  0.8420  0.5803
  826MOL0     C11436   3.540   1.391   9.367  0.1030  0.0882  0.1004
  826MOL0     C11437   3.682   1.400   9.424  0.2938  0.2091  0.2066
  826MOL0     C11438   3.703   1.336   9.561 -0.8628 -0.0673  0.0548
  826MOL0     C11439   3.680   1.192   9.566  0.3145 -0.8911  0.5912
  826MOL0     C11440   3.640   1.077   9.556  0.8200 -0.0717 -0.0163
  826MOL0     C11441   3.128   1.325   9.308 -0.8061 -0.8344  0.3452
  826MOL0     C11442   3.053   1.213   9.289 -0.5021  0.1979 -0.1712
  826MOL0     H11443   3.049   0.666   9.602  1.8624  0.6861 -0.8326
  826MOL0     H11444   2.957   0.456   9.585 -2.1360 -0.6611 -0.2445
  826MOL0     H11445   2.775   0.322   9.545 -2.0361 -3.4065  0.4986
  826MOL0     H11446   2.684   0.417   9.420 -2.3663 -0.9729  0.6364
  826MOL0     H11447   2.625   0.204   9.307  1.1436 -0.4983 -0.4390
  826MOL0     H11448   2.727   0.116   9.422  0.7392  0.3874 -0.8555
  826MOL0     H11449   2.587   0.175   9.616  2.3866 -0.8996 -0.3790
  826MOL0     H11450   2.489   0.275   9.527  1.7375  0.5911  2.7407
  826MOL0     H11451   2.479   0.024   9.394  0.3846  2.5864  0.2169
  826MOL0     H11452   2.486  -0.015   9.564 -0.7306 -1.5260 -0.5766
  826MOL0     H11453   2.265  -0.004   9.512 -0.1721 -0.1609 -1.4673
  826MOL0     H11454   2.299   0.132   9.614 -2.7052  0.1731  0.0807
  826MOL0     H11455   2.284   0.278   9.408  0.5430  0.0318 -0.8897
  826MOL0     H11456   2.270   0.128   9.307  2.5564 -0.3317  0.0870
  826MOL0     H11457   2.083   0.231   9.526 -0.6402  1.3737 -0.4142
  826MOL0     H11458   2.049   0.254   9.352 -1.9751 -2.3954 -1.3693
  826MOL0     H11459   2.053  -0.001   9.495  3.2808 -0.1714 -1.4394
  826MOL0     H11460   2.022   0.020   9.320 -1.7719  1.7796 -0.3468
  826MOL0     H11461   1.847   0.159   9.664 -2.2444  0.6067  0.1222
  826MOL0     H11462   1.611   0.156   9.733  0.2812  1.1735  0.5029
  826MOL0     H11463   1.544   0.297   9.636  0.9210 -0.3147 -0.2351
  826MOL0     H11464   1.459   0.007   9.641  2.2075  0.0145 -3.3089
  826MOL0     H11465   1.409   0.116   9.512  0.5320 -0.2922 -0.0398
  826MOL0     H11466   1.330   0.277   9.692 -1.0368  0.0030  1.6175
  826MOL0     H11467   1.354   0.163   9.803 -1.5106  3.2319 -0.1290
  826MOL0     H11468   1.179   0.006   9.692 -3.4514  0.1517 -1.8328
  826MOL0     H11469   1.169   0.127   9.569 -1.1221  2.9754  0.3571
  826MOL0     H11470   1.002   0.021   9.927  1.6801  0.0885 -1.7984
  826MOL0     H11471   0.684  -0.078  10.015 -0.3361  0.6354  0.1107
  826MOL0     H11472   0.757  -0.221   9.932 -0.8645 -0.2372  1.0607
  826MOL0     H11473   0.851  -0.112  10.038  2.7968 -3.3815 -3.1719
  826MOL0     H11474   0.312   0.184   9.647  4.3513 -1.0690  0.6690
  826MOL0     H11475   0.080   0.135   9.696 -1.5437 -0.8226 -0.8498
  826MOL0     H11476  -0.106  -0.273   9.603  2.3015 -0.0769 -0.3969
  826MOL0     H11477  -0.028  -0.263   9.769  2.4662  3.6902  0.3996
  826MOL0     H11478  -0.228  -0.160   9.850  0.6322 -1.3370  0.1582
  826MOL0     H11479  -0.297  -0.135   9.690 -0.7289  0.3596  0.0469
  826MOL0     H11480  -0.195  -0.410   9.743 -1.5203 -2.2082 -1.1481
  826MOL0     H11481  -0.348  -0.360   9.680  0.3379 -2.1094  0.2407
  826MOL0     H11482  -0.379  -0.483   9.898  1.2830  0.0562  1.5784
  826MOL0     H11483  -0.280  -0.369   9.985 -0.6960  2.8673 -0.0869
  826MOL0     H11484  -0.432  -0.182   9.938  0.6371  1.2510  2.5098
  826MOL0     H11485  -0.485  -0.303  10.039  2.4180 -0.8464 -0.3876
  826MOL0     H11486  -0.552  -0.262   9.740  2.4565 -3.8661 -1.3915
  826MOL0     H11487  -0.580  -0.413   9.813  1.2356 -0.2089 -2.6888
  826MOL0     H11488  -0.692  -0.142   9.899 -0.9912 -0.2223 -2.1686
  826MOL0     H11489  -0.722  -0.291   9.999  0.9656 -1.7836 -0.5118
  826MOL0     H11490  -0.803  -0.373   9.744  0.1358 -1.2933  1.6235
  826MOL0     H11491  -0.852  -0.206   9.744  0.4637 -0.1482 -0.1147
  826MOL0     H11492   0.139  -0.281   9.607 -1.1893  0.8457  0.0171
  826MOL0     H11493   0.376  -0.241   9.599  1.3792  0.8488 -1.5011
  826MOL0     H11494   0.690   0.115   9.557 -1.7485 -0.3769  2.0457
  826MOL0     H11495   0.904   0.241   9.582 -4.4244  2.0056  0.3336
  826MOL0     H11496   2.860   0.515   9.174  2.0303 -2.0782 -0.1563
  826MOL0     H11497   2.971   0.756   9.183 -1.9748  1.8111  1.6359
  826MOL0     H11498   3.191   1.015   9.537  0.9771 -0.2571 -0.4815
  826MOL0     H11499   3.329   1.230   9.566 -1.4411 -2.1110  1.6208
  826MOL0     H11500   3.480   1.567   9.463  1.3860 -0.0303  1.5841
  826MOL0     H11501   3.446   1.417   9.553  1.1745  0.4217  0.2506
  826MOL0     H11502   3.548   1.443   9.271  5.0254 -1.4664 -0.5751
  826MOL0     H11503   3.511   1.287   9.350 -0.5684 -0.1343  2.2743
  826MOL0     H11504   3.718   1.503   9.432 -0.9487  0.5774  1.6695
  826MOL0     H11505   3.738   1.354   9.342 -1.7344  1.5119 -2.0348
  826MOL0     H11506   3.647   1.394   9.635 -1.0021 -0.0379 -0.0739
  826MOL0     H11507   3.807   1.357   9.587 -0.4908 -2.2672  0.5995
  826MOL0     H11508   3.622   0.973   9.539  0.3143 -0.0084  0.1100
  826MOL0     H11509   3.103   1.412   9.248 -1.9678  0.9441  3.1585
  826MOL0     H11510   2.975   1.212   9.214 -0.2041  1.4072 -0.5188
  827MOL0     O11511   0.138   3.327  11.161  0.6763  0.2417 -0.3182
  827MOL0     C11512   0.249   3.300  11.116 -0.5328 -0.8302 -1.1402
  827MOL0     O11513   0.286   3.199  11.035  0.1060 -0.0256  0.0064
  827MOL0     C11514   0.205   3.122  10.958  0.3170  0.5461 -0.3403
  827MOL0     C11515   0.258   3.057  10.845 -1.0251 -0.9307  0.3744
  827MOL0     C11516   0.184   2.964  10.774  0.4525  0.3872 -0.3327
  827MOL0     C11517   0.055   2.927  10.813 -0.1178 -0.7423  0.1232
  827MOL0     O11518  -0.007   2.840  10.723  0.8179 -0.6765 -0.4491
  827MOL0     C11519  -0.123   2.774  10.770 -0.3726  0.5812 -1.0630
  827MOL0     C11520  -0.158   2.658  10.679 -0.7788 -0.3708 -0.4541
  827MOL0     C11521  -0.208   2.710  10.546  0.6404 -0.0256  0.1069
  827MOL0     C11522  -0.313   2.615  10.473 -0.8508 -0.0193  0.0312
  827MOL0     C11523  -0.385   2.694  10.373  1.1275 -0.1206  0.4757
  827MOL0     C11524  -0.485   2.600  10.307  0.0832  0.4439  0.1132
  827MOL0     C11525  -0.559   2.696  10.208 -0.2955  0.2450 -0.1681
  827MOL0     C11526  -0.593   2.621  10.078 -0.0245 -0.0790 -0.2265
  827MOL0     N11527  -0.470   2.600   9.999  0.5394 -0.9114 -1.1913
  827MOL0     C11528  -0.379   2.697   9.961 -0.0405  0.1046  0.6344
  827MOL0     C11529  -0.275   2.628   9.902 -0.3919  0.5684 -1.3596
  827MOL0     C11530  -0.160   2.667   9.820  0.4471 -0.3815  0.4844
  827MOL0     C11531  -0.215   2.751   9.705 -0.2784 -0.0987  0.0129
  827MOL0     C11532  -0.308   2.678   9.600 -0.1394 -0.3705 -0.1072
  827MOL0     C11533  -0.242   2.567   9.527  0.4675 -0.8898  0.4678
  827MOL0     O11534  -0.329   2.524   9.427  0.0210  0.3523 -0.0106
  827MOL0     C11535  -0.466   2.484   9.453  0.7063 -0.3795 -0.5032
  827MOL0     C11536  -0.559   2.512   9.354 -0.7603 -0.6971 -0.3599
  827MOL0     C11537  -0.695   2.489   9.375 -0.3225 -0.1952  0.7940
  827MOL0     C11538  -0.778   2.523   9.259  0.2411 -0.0988  0.1447
  827MOL0     C11539  -0.741   2.415   9.490  0.2064 -0.1281 -0.4913
  827MOL0     C11540  -0.880   2.365   9.513  0.0333  0.1409 -0.6046
  827MOL0     O11541  -0.893   2.280   9.615 -0.5418  0.0737 -0.5568
  827MOL0     C11542  -1.010   2.216   9.653  0.3808  0.5190 -0.7173
  827MOL0     C11543  -1.019   2.079   9.698  0.7064  0.1351  0.8070
  827MOL0     C11544  -1.149   2.037   9.750  0.1143  0.6613  0.5301
  827MOL0     C11545  -1.262   2.114   9.755 -0.6819 -0.6194 -0.6035
  827MOL0     O11546  -1.384   2.066   9.800 -0.1732 -0.4793 -0.2270
  827MOL0     C11547  -1.460   2.149   9.880  0.0348  0.0069 -0.4642
  827MOL0     C11548  -1.579   2.086   9.947  0.1700 -0.8268  0.0838
  827MOL0     C11549  -1.655   2.197  10.024 -0.5862  0.2793 -0.3696
  827MOL0     C11550  -1.795   2.159  10.080 -0.1056  0.3230  0.6661
  827MOL0     C11551  -1.856   2.277  10.151  0.6692  0.4317  0.6771
  827MOL0     C11552  -1.975   2.224  10.235 -0.7626  0.2761  0.1253
  827MOL0     C11553  -2.042   2.346  10.302  0.0005 -0.3128  0.5139
  827MOL0     C11554  -2.172   2.309  10.365  0.2434  0.1316  0.6822
  827MOL0    Cl11555  -2.236   2.438  10.464 -0.6943 -0.2253 -0.2912
  827MOL0     C11556  -1.242   2.255   9.730  0.0289  0.3372 -0.8195
  827MOL0     C11557  -1.122   2.299   9.671 -0.1476 -0.0218  0.2466
  827MOL0     O11558  -0.971   2.406   9.444 -0.6038 -0.4336  0.0167
  827MOL0     C11559  -0.643   2.389   9.585 -0.3819 -0.2616  0.0347
  827MOL0     C11560  -0.512   2.416   9.565 -0.3498  0.2588  0.1153
  827MOL0     N11561  -0.320   2.498   9.893 -0.2447 -0.3453 -0.1437
  827MOL0     N11562  -0.421   2.474   9.969 -0.4615 -0.4016 -0.3002
  827MOL0     C11563  -0.007   3.002  10.922 -0.1309  0.3097 -0.1711
  827MOL0     C11564   0.073   3.088  10.994 -0.1541 -0.2066 -0.2646
  827MOL0     C11565   0.363   3.378  11.161 -0.1173  0.3922  0.6090
  827MOL0     C11566   0.343   3.503  11.224 -0.6101 -0.6366  0.7981
  827MOL0     C11567   0.462   3.575  11.259  0.1593  0.1238 -1.4822
  827MOL0     C11568   0.593   3.528  11.230  0.5951  0.3326  0.8944
  827MOL0     O11569   0.690   3.608  11.287 -0.1797  0.8362  0.1532
  827MOL0     C11570   0.824   3.578  11.236 -0.2923  0.1739 -0.2452
  827MOL0     C11571   0.926   3.682  11.292  0.3155  0.4984 -0.4999
  827MOL0     C11572   0.926   3.671  11.445  0.0106 -0.5210 -0.1659
  827MOL0     C11573   1.049   3.730  11.513 -0.3701 -0.2881 -0.2480
  827MOL0     C11574   1.156   3.639  11.491  0.5091  0.4093  0.1890
  827MOL0     C11575   1.243   3.556  11.467  0.1929 -0.0457  0.2587
  827MOL0     C11576   0.610   3.404  11.160  0.0711  0.0247 -1.0392
  827MOL0     C11577   0.495   3.333  11.136 -1.0323  0.2254  0.3256
  827MOL0     H11578   0.360   3.069  10.811 -1.9204  1.1212 -1.8949
  827MOL0     H11579   0.215   2.914  10.682 -1.5072  1.1380 -1.4711
  827MOL0     H11580  -0.117   2.742  10.874 -1.3458  2.7035 -0.3163
  827MOL0     H11581  -0.205   2.846  10.767  0.0652  1.1599  0.1911
  827MOL0     H11582  -0.063   2.605  10.664  0.7516  2.2321 -0.6500
  827MOL0     H11583  -0.224   2.593  10.737  1.9159 -2.0577  0.9548
  827MOL0     H11584  -0.255   2.806  10.569 -3.0088 -2.0101  1.9222
  827MOL0     H11585  -0.120   2.729  10.484 -0.6306  2.7322 -1.0177
  827MOL0     H11586  -0.263   2.530  10.426 -3.5492 -0.5910 -2.0827
  827MOL0     H11587  -0.391   2.573  10.536 -0.3293 -1.5648 -0.3029
  827MOL0     H11588  -0.434   2.783  10.414 -3.0500 -1.8289 -0.2648
  827MOL0     H11589  -0.306   2.722  10.303 -0.1905  1.7861 -0.3411
  827MOL0     H11590  -0.440   2.517  10.252 -4.3602 -0.6470 -2.4347
  827MOL0     H11591  -0.556   2.549  10.374  0.4476  1.1840  1.0834
  827MOL0     H11592  -0.644   2.740  10.260  0.3225  1.6130 -0.2659
  827MOL0     H11593  -0.500   2.783  10.178  1.1916  0.1448  2.2156
  827MOL0     H11594  -0.667   2.684  10.028  2.1671  3.5056  0.7298
  827MOL0     H11595  -0.619   2.519  10.109 -0.9982 -0.1035 -1.0796
  827MOL0     H11596  -0.397   2.803   9.976 -3.2704 -0.4962  1.7938
  827MOL0     H11597  -0.086   2.730   9.871 -0.9950  3.9680 -2.2649
  827MOL0     H11598  -0.114   2.573   9.789 -0.7418 -0.6965 -0.3661
  827MOL0     H11599  -0.136   2.803   9.651  2.0000 -0.4717  2.7714
  827MOL0     H11600  -0.267   2.834   9.754 -5.0146 -3.1236  0.8879
  827MOL0     H11601  -0.339   2.756   9.530 -1.7513  0.3337  1.3243
  827MOL0     H11602  -0.400   2.639   9.644  0.4318 -1.4396  0.1517
  827MOL0     H11603  -0.216   2.488   9.598  1.5525 -1.7124 -0.8042
  827MOL0     H11604  -0.157   2.609   9.473 -0.3463 -0.7417 -0.7556
  827MOL0     H11605  -0.516   2.552   9.262  0.5938 -0.8760  0.1653
  827MOL0     H11606  -0.736   2.596   9.189 -1.1976 -0.0922 -0.7540
  827MOL0     H11607  -0.801   2.426   9.215  0.3334  0.1695 -0.5065
  827MOL0     H11608  -0.870   2.572   9.293  0.0128  0.4676 -1.1994
  827MOL0     H11609  -0.940   2.010   9.671  1.0479  1.4934 -2.0747
  827MOL0     H11610  -1.166   1.932   9.772 -0.9389  0.4993 -0.9391
  827MOL0     H11611  -1.401   2.198   9.958 -1.1159 -0.1574  0.5313
  827MOL0     H11612  -1.493   2.233   9.817  1.2772 -0.0007 -1.1664
  827MOL0     H11613  -1.650   2.050   9.871 -1.8282  2.5863  0.1529
  827MOL0     H11614  -1.553   2.010  10.021  0.0307 -0.6803  0.2851
  827MOL0     H11615  -1.665   2.288   9.965 -0.4268  0.6821  0.2085
  827MOL0     H11616  -1.591   2.223  10.109  1.7280  0.0983 -1.9504
  827MOL0     H11617  -1.853   2.121   9.995  0.8179 -0.6829  0.4659
  827MOL0     H11618  -1.784   2.069  10.141  1.7748 -0.1445 -0.2982
  827MOL0     H11619  -1.898   2.340  10.072  2.9052 -0.7594 -1.5629
  827MOL0     H11620  -1.782   2.327  10.214  1.6049  1.0093 -0.8301
  827MOL0     H11621  -2.045   2.158  10.183  1.0713  0.9814 -3.5954
  827MOL0     H11622  -1.934   2.161  10.314 -0.7178 -0.6458 -0.6113
  827MOL0     H11623  -2.062   2.421  10.225 -0.3943  0.7667  1.6469
  827MOL0     H11624  -1.971   2.382  10.377 -0.2791 -0.4417  0.8401
  827MOL0     H11625  -2.152   2.223  10.430 -0.1525 -0.3823  0.1357
  827MOL0     H11626  -2.246   2.284  10.289  1.7812  2.0576 -1.5958
  827MOL0     H11627  -1.322   2.327   9.746  0.2128  0.8541 -2.1130
  827MOL0     H11628  -1.124   2.407   9.659 -1.8595  0.2278  2.2404
  827MOL0     H11629  -0.659   2.321   9.669  0.0831 -0.6464 -0.1884
  827MOL0     H11630  -0.440   2.378   9.636 -1.1670 -0.5124  0.5570
  827MOL0     H11631  -0.104   2.970  10.960  0.7879 -2.1905  0.2713
  827MOL0     H11632   0.029   3.148  11.073  3.0744  0.6508  1.0893
  827MOL0     H11633   0.252   3.551  11.259  0.4373  2.0342  0.1142
  827MOL0     H11634   0.462   3.665  11.320  3.5605 -1.3552  1.0123
  827MOL0     H11635   0.846   3.472  11.256 -1.6809 -1.4041 -5.5659
  827MOL0     H11636   0.811   3.586  11.128 -0.6150 -1.8127 -0.3913
  827MOL0     H11637   0.898   3.781  11.253 -0.8129 -0.1242 -1.3469
  827MOL0     H11638   1.026   3.659  11.255 -0.5658 -1.7999 -1.6713
  827MOL0     H11639   0.902   3.571  11.479 -2.3947  0.2643  0.5974
  827MOL0     H11640   0.838   3.729  11.474 -0.2603 -1.1443  0.2703
  827MOL0     H11641   1.034   3.731  11.621  1.8305 -1.1544  0.1148
  827MOL0     H11642   1.072   3.830  11.474 -1.4194 -0.2293 -0.7754
  827MOL0     H11643   1.330   3.499  11.438  0.1290  1.3209 -3.1731
  827MOL0     H11644   0.703   3.352  11.139 -0.8714 -2.7542  1.0697
  827MOL0     H11645   0.521   3.233  11.105 -0.2271  0.6382 -0.3744
  828MOL0     O11646   7.833   1.791   8.678  0.0680  0.4697 -0.4330
  828MOL0     C11647   7.831   1.788   8.554 -0.3614  0.6760 -0.5098
  828MOL0     O11648   7.737   1.731   8.481  0.7836 -0.1161 -0.4900
  828MOL0     C11649   7.607   1.723   8.538 -1.0154  0.1674 -0.2560
  828MOL0     C11650   7.529   1.618   8.484 -0.2611 -0.1520 -0.3971
  828MOL0     C11651   7.395   1.608   8.518  0.1037  0.5895  0.1536
  828MOL0     C11652   7.333   1.698   8.597  0.2297 -0.0058 -0.0468
  828MOL0     O11653   7.203   1.665   8.627 -0.1486  0.1544 -0.9929
  828MOL0     C11654   7.136   1.745   8.727  0.0533  0.2209 -0.0242
  828MOL0     C11655   7.002   1.673   8.764 -0.4237  0.3207 -0.4961
  828MOL0     C11656   6.914   1.756   8.850  0.0779  0.7158  0.5968
  828MOL0     C11657   6.782   1.685   8.859  0.9428 -0.9525 -0.0060
  828MOL0     C11658   6.660   1.772   8.902  0.2580 -0.4088  0.4356
  828MOL0     C11659   6.605   1.852   8.785  0.0879  0.2800 -1.1094
  828MOL0     C11660   6.470   1.922   8.800 -0.0685 -0.1911 -0.1570
  828MOL0     C11661   6.354   1.826   8.816  0.5178 -0.5703  1.1561
  828MOL0     N11662   6.320   1.759   8.693 -0.3381 -0.4725  0.9525
  828MOL0     C11663   6.322   1.810   8.562  0.5043 -0.2359 -0.1853
  828MOL0     C11664   6.291   1.703   8.489  0.6443  0.3118  1.3057
  828MOL0     C11665   6.317   1.690   8.336 -0.2370 -0.7773 -0.2708
  828MOL0     C11666   6.190   1.641   8.257  0.0548  0.2490  0.1455
  828MOL0     C11667   6.068   1.732   8.281 -0.2152 -0.3078  0.6473
  828MOL0     C11668   5.964   1.687   8.391 -0.0726 -0.0126 -0.1506
  828MOL0     O11669   5.838   1.753   8.371  0.5578  0.0132  0.5357
  828MOL0     C11670   5.727   1.724   8.444 -0.1228 -0.4527 -0.1227
  828MOL0     C11671   5.609   1.778   8.398 -0.1604 -0.2572  0.5903
  828MOL0     C11672   5.487   1.732   8.435  0.2071  0.5082 -1.1712
  828MOL0     C11673   5.358   1.801   8.388 -0.3511 -0.7189 -0.6823
  828MOL0     C11674   5.473   1.640   8.537  0.0774  0.8719 -0.8907
  828MOL0     C11675   5.343   1.605   8.606 -0.3247 -0.2932 -0.3872
  828MOL0     O11676   5.344   1.483   8.672 -0.5945 -0.1720 -0.2723
  828MOL0     C11677   5.233   1.426   8.737 -0.0319  0.0705 -0.7219
  828MOL0     C11678   5.100   1.447   8.699 -0.3028 -0.3392 -0.8413
  828MOL0     C11679   4.997   1.385   8.767 -0.0734 -0.0582 -0.2079
  828MOL0     C11680   5.019   1.309   8.885  1.0715 -0.4804  0.4825
  828MOL0     O11681   4.915   1.250   8.945  0.6800 -0.3443  0.6538
  828MOL0     C11682   4.911   1.111   8.942 -0.0804 -0.3686 -0.2829
  828MOL0     C11683   4.760   1.073   8.969  0.1577  0.4855 -1.0624
  828MOL0     C11684   4.720   1.034   9.112  0.9223 -0.7553  0.6327
  828MOL0     C11685   4.566   1.023   9.138 -0.6052 -0.3971  0.1458
  828MOL0     C11686   4.529   0.986   9.280 -0.2171 -0.0407  0.1029
  828MOL0     C11687   4.376   1.009   9.311  0.1347 -1.4472  0.1374
  828MOL0     C11688   4.326   0.962   9.455 -0.0122  0.4213 -0.2301
  828MOL0     C11689   4.322   0.812   9.493 -0.1232  0.5003  0.6131
  828MOL0    Cl11690   4.482   0.750   9.523 -0.1248 -0.2961 -0.0029
  828MOL0     C11691   5.153   1.283   8.921  0.2762 -0.3321 -0.1416
  828MOL0     C11692   5.258   1.340   8.842 -0.0355  0.3774 -0.3791
  828MOL0     O11693   5.253   1.689   8.612  0.2756  0.0297 -0.3187
  828MOL0     C11694   5.591   1.581   8.592 -0.4178 -0.0843 -0.0844
  828MOL0     C11695   5.720   1.618   8.541 -0.7688 -0.6096  0.0893
  828MOL0     N11696   6.264   1.595   8.564 -0.0851  0.0329  0.1559
  828MOL0     N11697   6.274   1.633   8.684 -0.0001 -0.3426 -0.3390
  828MOL0     C11698   7.410   1.799   8.654 -0.0489 -0.8941 -0.3266
  828MOL0     C11699   7.546   1.816   8.623 -0.3308  0.4483 -0.6571
  828MOL0     C11700   7.951   1.835   8.471  0.6778  0.2643 -0.3451
  828MOL0     C11701   8.052   1.917   8.536 -0.3639  0.1446  0.3497
  828MOL0     C11702   8.167   1.954   8.472  0.7338  0.1393  0.5031
  828MOL0     C11703   8.175   1.931   8.335 -0.6633 -0.7553  0.3137
  828MOL0     O11704   8.266   1.990   8.250  0.5382 -0.3331 -0.4538
  828MOL0     C11705   8.378   1.909   8.220  0.1723  0.0293  0.0553
  828MOL0     C11706   8.468   1.866   8.343 -0.6346  0.6528  0.1613
  828MOL0     C11707   8.534   1.991   8.393 -0.5722  0.1504 -0.8034
  828MOL0     C11708   8.648   1.967   8.496 -0.3762  0.1746  0.0688
  828MOL0     C11709   8.754   2.069   8.504 -0.8833  0.8239 -0.2211
  828MOL0     C11710   8.849   2.134   8.516 -0.3241 -0.8076  0.8642
  828MOL0     C11711   8.075   1.854   8.275 -0.0250 -0.1649  0.4284
  828MOL0     C11712   7.962   1.804   8.338  0.0547  0.0729 -0.9386
  828MOL0     H11713   7.581   1.556   8.412 -0.6702 -2.0026  0.8230
  828MOL0     H11714   7.341   1.521   8.482  0.0512  0.7538 -0.1642
  828MOL0     H11715   7.191   1.770   8.818 -0.4877  0.6891  0.1800
  828MOL0     H11716   7.116   1.842   8.681  0.8516  1.9759  3.0414
  828MOL0     H11717   6.959   1.631   8.673  0.2294  1.9949 -1.6309
  828MOL0     H11718   7.027   1.585   8.823  2.0601 -0.4308 -2.4933
  828MOL0     H11719   6.953   1.758   8.952 -0.1903 -0.1486  0.7263
  828MOL0     H11720   6.893   1.850   8.798 -4.5975 -0.9532 -1.1071
  828MOL0     H11721   6.761   1.642   8.761 -1.5550  2.1548 -1.0063
  828MOL0     H11722   6.793   1.605   8.932  0.6892 -1.4312 -0.4857
  828MOL0     H11723   6.583   1.712   8.950  0.4049 -0.1151  1.0421
  828MOL0     H11724   6.685   1.849   8.975  0.4660  0.9579 -1.0075
  828MOL0     H11725   6.679   1.929   8.762  0.8437 -1.0182 -3.3629
  828MOL0     H11726   6.590   1.775   8.708  1.1065 -1.7485  0.6181
  828MOL0     H11727   6.462   1.983   8.891 -1.7165 -0.7778  0.1385
  828MOL0     H11728   6.454   1.989   8.714  0.7539  0.6365  0.3166
  828MOL0     H11729   6.266   1.879   8.852  2.0522  1.6316  1.8803
  828MOL0     H11730   6.374   1.741   8.882  1.7202 -2.1258 -1.0498
  828MOL0     H11731   6.351   1.904   8.516  1.0616  1.6290  3.6335
  828MOL0     H11732   6.345   1.791   8.303  1.4392 -0.0581  2.8903
  828MOL0     H11733   6.396   1.616   8.317  0.6257 -0.6630  2.3705
  828MOL0     H11734   6.166   1.543   8.300  0.8883 -0.3508 -0.7191
  828MOL0     H11735   6.218   1.628   8.152  3.0241  0.3560  0.8329
  828MOL0     H11736   6.029   1.746   8.179 -0.0548  1.7976  0.8417
  828MOL0     H11737   6.115   1.825   8.313  0.1661  0.1561 -1.1496
  828MOL0     H11738   5.994   1.721   8.490 -4.0484  0.7826  0.9823
  828MOL0     H11739   5.953   1.578   8.388  0.4707 -0.3192  3.8160
  828MOL0     H11740   5.611   1.864   8.331  2.1477  0.3339  1.3291
  828MOL0     H11741   5.311   1.871   8.458 -0.7619  0.8138 -2.4087
  828MOL0     H11742   5.383   1.874   8.310 -2.2932  2.1043  1.1473
  828MOL0     H11743   5.287   1.728   8.348 -1.9842  0.9271 -0.9157
  828MOL0     H11744   5.076   1.505   8.611  2.4337  1.2490 -0.6450
  828MOL0     H11745   4.892   1.386   8.739  0.3156  1.0248 -1.7465
  828MOL0     H11746   4.944   1.075   8.843 -0.2838  1.0283 -0.8771
  828MOL0     H11747   4.979   1.072   9.017  0.4072  1.2095  0.1267
  828MOL0     H11748   4.693   1.153   8.934 -2.0434 -0.2647  1.0873
  828MOL0     H11749   4.737   0.983   8.911 -3.3304  0.7397 -0.3112
  828MOL0     H11750   4.751   1.117   9.177  1.9190  0.8568 -1.7621
  828MOL0     H11751   4.771   0.945   9.151  1.5201  0.5137  2.9294
  828MOL0     H11752   4.518   1.120   9.122  1.1820  0.3702 -0.9643
  828MOL0     H11753   4.522   0.950   9.068 -1.5217  0.0309  0.2651
  828MOL0     H11754   4.574   1.046   9.360 -0.0064 -1.4898  1.1248
  828MOL0     H11755   4.563   0.885   9.307  1.1173  0.6789  1.2899
  828MOL0     H11756   4.364   1.117   9.299  1.8071 -1.2221  0.2684
  828MOL0     H11757   4.319   0.957   9.232 -0.2444 -0.6618 -0.1120
  828MOL0     H11758   4.231   1.014   9.466 -1.1787 -1.6719  0.1237
  828MOL0     H11759   4.392   1.006   9.530 -0.1654 -0.5630  0.5042
  828MOL0     H11760   4.296   0.752   9.405  2.5218 -1.8303  1.2580
  828MOL0     H11761   4.256   0.793   9.578 -1.2334 -1.6931 -0.6465
  828MOL0     H11762   5.174   1.214   9.003 -2.3404 -0.9737  0.0858
  828MOL0     H11763   5.361   1.314   8.868 -0.7924 -2.3601  0.2565
  828MOL0     H11764   5.599   1.505   8.669  1.7410  1.4604  1.3042
  828MOL0     H11765   5.806   1.559   8.572  2.2944  3.2723 -0.1282
  828MOL0     H11766   7.371   1.865   8.731 -0.3099  1.3997 -2.3349
  828MOL0     H11767   7.599   1.896   8.674  2.1016  0.0805 -2.4004
  828MOL0     H11768   8.053   1.938   8.642  0.6845 -0.2647  0.4295
  828MOL0     H11769   8.234   2.023   8.522  2.4519  0.2867 -1.8076
  828MOL0     H11770   8.349   1.816   8.171 -2.9763 -0.0246  1.7437
  828MOL0     H11771   8.428   1.975   8.148  0.8634 -0.3914  0.1429
  828MOL0     H11772   8.548   1.799   8.310 -0.3299  1.2575 -0.3340
  828MOL0     H11773   8.417   1.810   8.422  1.3224 -0.0794  0.9658
  828MOL0     H11774   8.452   2.047   8.440 -1.0675  2.2866 -3.8966
  828MOL0     H11775   8.568   2.057   8.313 -1.6360  0.4222 -1.0519
  828MOL0     H11776   8.697   1.872   8.472 -0.1958  0.3218 -0.1531
  828MOL0     H11777   8.603   1.946   8.594  0.2640  0.2023  0.3685
  828MOL0     H11778   8.936   2.196   8.529  0.1326 -0.4570 -2.8212
  828MOL0     H11779   8.077   1.841   8.167 -1.8309 -1.1811  0.4854
  828MOL0     H11780   7.887   1.750   8.280  0.9052 -0.6510 -1.3811
  829MOL0     O11781   8.021   0.372  10.296  0.4833  0.0532  0.4395
  829MOL0     C11782   8.097   0.355  10.386 -0.6050  1.0779 -0.4682
  829MOL0     O11783   8.067   0.339  10.518 -1.0330  0.2533  0.5055
  829MOL0     C11784   7.937   0.340  10.560  0.6184 -0.3895 -0.3152
  829MOL0     C11785   7.908   0.229  10.644 -0.3191 -0.8624  0.9659
  829MOL0     C11786   7.786   0.213  10.696 -0.0552  0.8528 -0.4243
  829MOL0     C11787   7.683   0.303  10.668  1.1485  0.5913 -0.4534
  829MOL0     O11788   7.553   0.291  10.714  0.6938  0.1936  0.3704
  829MOL0     C11789   7.508   0.153  10.735 -0.6943 -0.3018  0.2787
  829MOL0     C11790   7.379   0.161  10.815  0.4119  0.0191 -0.1120
  829MOL0     C11791   7.297   0.033  10.798  0.2525 -0.4101 -0.5407
  829MOL0     C11792   7.163   0.024  10.871 -0.1117  0.3739  0.3490
  829MOL0     C11793   7.051   0.099  10.802 -0.6236  0.9773  1.1049
  829MOL0     C11794   6.917   0.090  10.868 -0.1020 -1.3128  0.1413
  829MOL0     C11795   6.830   0.206  10.823  0.1514 -0.2523  0.4626
  829MOL0     C11796   6.792   0.206  10.680 -1.4699  0.0953 -0.2954
  829MOL0     N11797   6.672   0.284  10.660 -0.1332  0.4684 -0.0756
  829MOL0     C11798   6.648   0.412  10.703  0.6477 -0.4266  0.3289
  829MOL0     C11799   6.515   0.419  10.676  0.9367 -0.7654 -0.7426
  829MOL0     C11800   6.442   0.551  10.687  0.1565 -0.5533  0.4290
  829MOL0     C11801   6.393   0.569  10.832  0.0905  1.1382 -0.3134
  829MOL0     C11802   6.338   0.704  10.849  0.0449  0.0794  0.2848
  829MOL0     C11803   6.210   0.716  10.769  0.3921  0.9927 -0.4326
  829MOL0     O11804   6.121   0.800  10.842 -0.6461  0.0003  0.3899
  829MOL0     C11805   5.990   0.805  10.824  0.1717 -0.0628  0.7512
  829MOL0     C11806   5.915   0.760  10.712  0.7216 -1.0598 -0.2535
  829MOL0     C11807   5.770   0.767  10.717 -0.1406 -0.6351 -0.2811
  829MOL0     C11808   5.694   0.701  10.593 -0.0488  0.3898 -0.3770
  829MOL0     C11809   5.702   0.831  10.814  0.1129  0.3858  0.4934
  829MOL0     C11810   5.559   0.842  10.811 -0.8612  0.7584 -0.1273
  829MOL0     O11811   5.500   0.931  10.725 -0.2498  0.1362  0.2076
  829MOL0     C11812   5.363   0.938  10.707 -0.5143 -0.0313  0.1605
  829MOL0     C11813   5.315   1.068  10.698  0.6106  0.0670  0.0860
  829MOL0     C11814   5.179   1.092  10.675  0.7614 -0.6973 -0.4176
  829MOL0     C11815   5.094   0.978  10.662  0.2919 -0.8211 -0.2387
  829MOL0     O11816   4.959   1.008  10.649  0.4309 -0.0831 -0.5768
  829MOL0     C11817   4.876   0.902  10.610  1.1114 -0.3814 -0.6806
  829MOL0     C11818   4.739   0.967  10.582 -0.1117  0.3226  0.1965
  829MOL0     C11819   4.655   1.009  10.706 -0.0838 -0.3551 -0.1525
  829MOL0     C11820   4.517   1.074  10.665 -0.7161  0.0909 -0.3892
  829MOL0     C11821   4.455   1.154  10.775  0.5364  0.7000 -0.5114
  829MOL0     C11822   4.325   1.214  10.717  0.4231 -0.8887 -0.0491
  829MOL0     C11823   4.282   1.330  10.804 -0.1849 -0.4301  0.4025
  829MOL0     C11824   4.136   1.362  10.776 -0.1520  0.4957 -0.1932
  829MOL0    Cl11825   4.095   1.424  10.604  0.1240 -0.2249  0.4628
  829MOL0     C11826   5.144   0.849  10.665 -0.4175  0.7803 -0.0898
  829MOL0     C11827   5.277   0.825  10.694 -0.2993  0.1555 -0.9563
  829MOL0     O11828   5.501   0.764  10.888 -0.2021 -0.1399  0.0130
  829MOL0     C11829   5.786   0.888  10.919  0.2541 -0.0860  0.7681
  829MOL0     C11830   5.927   0.875  10.921  0.8633  0.0055 -0.7203
  829MOL0     N11831   6.462   0.310  10.615  0.4243  0.0935 -0.1841
  829MOL0     N11832   6.563   0.230  10.595 -0.3531 -0.3070  0.1717
  829MOL0     C11833   7.713   0.413  10.584 -0.0953 -0.0090  0.9121
  829MOL0     C11834   7.835   0.429  10.526 -0.8486  0.1140 -0.0830
  829MOL0     C11835   8.245   0.351  10.358 -0.6677 -0.6007  0.3434
  829MOL0     C11836   8.289   0.328  10.223  0.2830 -0.1212 -0.0624
  829MOL0     C11837   8.424   0.334  10.193  0.3354 -0.1235 -0.6410
  829MOL0     C11838   8.525   0.353  10.290  0.1369 -0.2899 -0.2269
  829MOL0     O11839   8.655   0.353  10.272  0.4888  0.0708  0.1284
  829MOL0     C11840   8.689   0.372  10.133 -0.2344 -0.1648 -0.1892
  829MOL0     C11841   8.831   0.428  10.146 -1.0911 -1.8153  0.9409
  829MOL0     C11842   8.931   0.304  10.147 -0.4423  0.6142  0.0398
  829MOL0     C11843   9.081   0.353  10.155 -0.3962 -0.0605 -1.1950
  829MOL0     C11844   9.182   0.241  10.162 -0.0353  0.1735 -0.2080
  829MOL0     C11845   9.258   0.151  10.178 -0.1732 -0.6211  0.1633
  829MOL0     C11846   8.480   0.367  10.419 -0.2825 -1.0461 -0.4663
  829MOL0     C11847   8.338   0.371  10.452  0.2896  0.5315  0.7851
  829MOL0     H11848   7.998   0.174  10.669  0.9633  0.7845  0.2044
  829MOL0     H11849   7.778   0.123  10.757  0.1113  0.8658 -0.3829
  829MOL0     H11850   7.475   0.107  10.641 -1.7165  2.8236 -1.0230
  829MOL0     H11851   7.576   0.094  10.798  0.0273 -0.1938 -0.3796
  829MOL0     H11852   7.401   0.191  10.918 -1.2425 -0.7233  0.4891
  829MOL0     H11853   7.310   0.239  10.783 -2.2703 -2.0423  0.3290
  829MOL0     H11854   7.271   0.029  10.692 -1.4522  0.5766 -0.2067
  829MOL0     H11855   7.350  -0.055  10.835  0.3910  0.7755  2.4006
  829MOL0     H11856   7.128  -0.080  10.869  2.8289 -0.7219 -1.8666
  829MOL0     H11857   7.168   0.063  10.973  0.0611 -1.1339  0.9405
  829MOL0     H11858   7.069   0.205  10.779  1.0211  0.8447  1.6304
  829MOL0     H11859   7.032   0.057  10.702  0.6149  0.2802  1.1367
  829MOL0     H11860   6.871  -0.010  10.863 -1.1051 -0.9365  1.2829
  829MOL0     H11861   6.941   0.110  10.973 -1.0819  0.6145  0.0294
  829MOL0     H11862   6.738   0.186  10.878 -0.3998 -1.6294 -0.8902
  829MOL0     H11863   6.874   0.301  10.854  0.7823 -0.1756 -0.6217
  829MOL0     H11864   6.769   0.109  10.635 -0.6170  0.1872 -0.9446
  829MOL0     H11865   6.867   0.241  10.609 -0.7155 -3.4796 -1.4625
  829MOL0     H11866   6.709   0.487  10.753  0.6047 -0.7332  0.8376
  829MOL0     H11867   6.503   0.638  10.662 -0.9040  0.5924  1.6779
  829MOL0     H11868   6.357   0.538  10.619  0.0305  1.8451  0.0346
  829MOL0     H11869   6.481   0.555  10.895  0.1674  0.7499 -0.5036
  829MOL0     H11870   6.321   0.488  10.848 -1.0379  2.0103 -0.7922
  829MOL0     H11871   6.413   0.784  10.841  1.3045 -1.0635  0.1726
  829MOL0     H11872   6.302   0.708  10.952 -0.9646 -0.7129 -0.0255
  829MOL0     H11873   6.163   0.618  10.756  0.7125  0.2609  3.1026
  829MOL0     H11874   6.239   0.761  10.673  1.4408  0.7727 -0.2265
  829MOL0     H11875   5.955   0.712  10.623  2.0117 -1.8362  0.7066
  829MOL0     H11876   5.632   0.773  10.540 -0.9865 -1.3758 -1.7832
  829MOL0     H11877   5.757   0.674  10.507 -2.9124 -1.0345 -2.1716
  829MOL0     H11878   5.643   0.616  10.640  1.9957 -0.2843  0.7558
  829MOL0     H11879   5.388   1.149  10.704 -0.5082  1.1747 -0.7165
  829MOL0     H11880   5.147   1.195  10.665 -0.6196 -1.1514 -0.8948
  829MOL0     H11881   4.917   0.846  10.525  1.5513 -0.6898 -0.2714
  829MOL0     H11882   4.850   0.829  10.687 -0.3071 -1.0769 -1.7717
  829MOL0     H11883   4.744   1.047  10.508 -0.7660 -0.2277 -0.4624
  829MOL0     H11884   4.684   0.888  10.530  1.0924  0.2476 -1.0062
  829MOL0     H11885   4.716   1.085  10.757 -0.4282  0.2102 -0.5597
  829MOL0     H11886   4.634   0.926  10.773 -0.3172  1.1107  1.6930
  829MOL0     H11887   4.543   1.142  10.583  0.4322  1.2097  0.8387
  829MOL0     H11888   4.449   0.996  10.631 -1.1166 -0.0482  0.7033
  829MOL0     H11889   4.529   1.228  10.807  1.7138 -0.3906 -0.6253
  829MOL0     H11890   4.428   1.082  10.854  1.5738  0.2660 -0.5323
  829MOL0     H11891   4.341   1.252  10.615 -5.2555 -3.2219 -2.1843
  829MOL0     H11892   4.255   1.130  10.711  1.7581 -2.2659  2.3322
  829MOL0     H11893   4.344   1.417  10.782  0.3930 -0.8381  0.3819
  829MOL0     H11894   4.298   1.305  10.909 -2.4113 -0.3159  0.8139
  829MOL0     H11895   4.092   1.410  10.864  1.6822  1.2593  0.3716
  829MOL0     H11896   4.086   1.265  10.775  1.1644 -0.2937  2.0936
  829MOL0     H11897   5.083   0.761  10.646 -0.8605  1.3194 -1.2784
  829MOL0     H11898   5.320   0.725  10.687  2.1971  1.0835 -0.0327
  829MOL0     H11899   5.741   0.950  10.996  1.0138  1.8914 -0.3052
  829MOL0     H11900   5.981   0.926  11.001 -1.4362  1.4303  0.0353
  829MOL0     H11901   7.634   0.485  10.568  0.1662  0.7942  2.9599
  829MOL0     H11902   7.841   0.506  10.449 -2.6197 -0.6136 -1.0025
  829MOL0     H11903   8.204   0.322  10.156 -0.7785 -0.7328  1.2901
  829MOL0     H11904   8.446   0.317  10.088  1.7010 -0.4374 -0.3223
  829MOL0     H11905   8.674   0.287  10.066  1.4249  0.2402 -1.1358
  829MOL0     H11906   8.632   0.461  10.102 -0.4370 -0.1597  0.1868
  829MOL0     H11907   8.838   0.478  10.243 -1.2935  0.3643 -0.1098
  829MOL0     H11908   8.865   0.496  10.068  3.1669  0.2785  4.1713
  829MOL0     H11909   8.918   0.239  10.061  0.2168  0.9163 -0.2968
  829MOL0     H11910   8.899   0.236  10.226 -1.9026 -2.2638 -2.8166
  829MOL0     H11911   9.081   0.408  10.249 -2.5611  0.1345 -1.2621
  829MOL0     H11912   9.112   0.415  10.070  2.0387  0.2328 -0.1977
  829MOL0     H11913   9.337   0.078  10.186 -1.0837 -1.9585 -2.0877
  829MOL0     H11914   8.551   0.387  10.499  1.4770 -2.6073 -1.5514
  829MOL0     H11915   8.306   0.413  10.547  2.4175  3.2575  0.4155
  830MOL0     O11916   3.343   1.940   8.250  0.1150 -0.5571  0.2625
  830MOL0     C11917   3.426   1.912   8.161  0.7868 -0.2061 -0.8180
  830MOL0     O11918   3.408   1.835   8.059 -0.8352  0.2145 -0.2642
  830MOL0     C11919   3.293   1.766   8.051  1.3397 -0.7041  0.2972
  830MOL0     C11920   3.250   1.669   8.147 -0.7386  0.7732  0.0355
  830MOL0     C11921   3.155   1.574   8.115 -0.2251 -0.3251 -0.4747
  830MOL0     C11922   3.075   1.587   7.993 -1.5223 -0.1331 -1.1007
  830MOL0     O11923   2.973   1.510   7.960  0.1725 -0.5475  0.2051
  830MOL0     C11924   2.871   1.495   8.059  0.4632  0.6939 -0.5213
  830MOL0     C11925   2.736   1.437   8.012 -0.8933 -0.3419  0.4638
  830MOL0     C11926   2.623   1.542   7.993  0.1935 -0.1752  0.4738
  830MOL0     C11927   2.503   1.460   7.936  0.6160 -0.3003  0.2393
  830MOL0     C11928   2.382   1.546   7.894  0.3495 -0.2306  0.2845
  830MOL0     C11929   2.289   1.478   7.795  0.0212  0.2017  0.2006
  830MOL0     C11930   2.167   1.564   7.759 -0.2894  1.1375 -0.1157
  830MOL0     C11931   2.066   1.571   7.873 -0.8842  0.1518  0.4818
  830MOL0     N11932   1.932   1.573   7.824  0.8399 -0.6502  0.4004
  830MOL0     C11933   1.841   1.481   7.861  0.0462 -0.5954 -0.0371
  830MOL0     C11934   1.732   1.511   7.788  0.1544  0.8970 -0.2355
  830MOL0     C11935   1.611   1.426   7.801 -0.6883  0.2474  0.8128
  830MOL0     C11936   1.532   1.486   7.914 -0.3081 -0.0776  0.4972
  830MOL0     C11937   1.415   1.399   7.974 -1.6910  0.1621 -0.0559
  830MOL0     C11938   1.356   1.466   8.092  0.3564  0.1356 -0.2026
  830MOL0     O11939   1.274   1.385   8.170  0.0066  0.5395 -0.4626
  830MOL0     C11940   1.142   1.393   8.175 -0.3188 -0.5045 -0.7174
  830MOL0     C11941   1.085   1.319   8.278 -0.6693 -0.4440 -0.0552
  830MOL0     C11942   0.943   1.317   8.288  0.4282 -0.5246 -0.2672
  830MOL0     C11943   0.889   1.240   8.395 -0.2975 -0.3378  0.4939
  830MOL0     C11944   0.859   1.389   8.197  0.0249  0.1779  0.6116
  830MOL0     C11945   0.716   1.396   8.213  0.2648 -1.1147  0.2042
  830MOL0     O11946   0.652   1.502   8.143  0.8427 -0.1737  0.0030
  830MOL0     C11947   0.518   1.490   8.154  0.8607 -1.0034  0.3138
  830MOL0     C11948   0.456   1.564   8.257 -0.9498  1.0782  0.3776
  830MOL0     C11949   0.317   1.557   8.276  0.2275 -0.2621  0.5582
  830MOL0     C11950   0.238   1.486   8.181  0.8416 -0.6809 -0.8262
  830MOL0     O11951   0.103   1.478   8.177  0.5817  0.2133 -0.2970
  830MOL0     C11952   0.023   1.476   8.295 -0.1851 -0.4687 -0.5819
  830MOL0     C11953  -0.086   1.582   8.307  0.0680  0.0100  0.4987
  830MOL0     C11954  -0.183   1.540   8.415 -0.0048 -0.0744 -0.2853
  830MOL0     C11955  -0.292   1.647   8.425  0.1613 -0.4336  0.5238
  830MOL0     C11956  -0.393   1.599   8.534  0.4493 -0.4610 -0.1905
  830MOL0     C11957  -0.497   1.496   8.485 -0.3508 -0.0063 -0.4890
  830MOL0     C11958  -0.615   1.485   8.592  0.0611  0.2702  0.4447
  830MOL0     C11959  -0.731   1.399   8.546 -0.2359  0.7411  0.0374
  830MOL0    Cl11960  -0.789   1.467   8.394 -0.1307 -0.1549  0.3770
  830MOL0     C11961   0.303   1.421   8.075  0.3582 -0.3918 -0.2855
  830MOL0     C11962   0.438   1.429   8.059  0.4730  0.4261  0.2409
  830MOL0     O11963   0.661   1.289   8.254  0.1968  0.1778 -0.6358
  830MOL0     C11964   0.923   1.457   8.093 -0.5718  1.2873 -0.3562
  830MOL0     C11965   1.064   1.456   8.079 -0.1894 -0.0967  0.6881
  830MOL0     N11966   1.756   1.617   7.696 -0.6984  0.3816 -0.2071
  830MOL0     N11967   1.875   1.660   7.726 -0.5305  0.2296  0.9838
  830MOL0     C11968   3.109   1.687   7.906 -0.6446 -0.4245 -0.3690
  830MOL0     C11969   3.217   1.783   7.931 -0.3351  0.8514 -0.0169
  830MOL0     C11970   3.555   1.983   8.167 -1.0456  0.2191 -0.2707
  830MOL0     C11971   3.679   1.914   8.134 -0.6692 -0.4441 -0.6925
  830MOL0     C11972   3.800   1.978   8.129  0.0523 -0.1381 -0.8273
  830MOL0     C11973   3.810   2.108   8.178 -0.0741 -0.2583  0.4966
  830MOL0     O11974   3.938   2.156   8.192 -0.2583 -0.1957 -0.2451
  830MOL0     C11975   3.954   2.297   8.224  0.4259  0.0442 -0.0236
  830MOL0     C11976   4.101   2.304   8.272  0.3366  0.0105  0.7250
  830MOL0     C11977   4.123   2.210   8.392  0.2014 -0.6089 -0.1271
  830MOL0     C11978   4.264   2.243   8.437  0.4333 -0.2948 -0.1642
  830MOL0     C11979   4.315   2.151   8.540 -0.4498  0.4812  0.1269
  830MOL0     C11980   4.350   2.070   8.623 -0.4522  0.3380 -0.2891
  830MOL0     C11981   3.687   2.175   8.203  0.6224 -0.5150 -0.5345
  830MOL0     C11982   3.564   2.115   8.203 -0.7550 -0.5847  0.1417
  830MOL0     H11983   3.298   1.650   8.242 -3.8758 -2.6456  1.2206
  830MOL0     H11984   3.136   1.491   8.182 -1.0181 -0.0164 -0.3093
  830MOL0     H11985   2.909   1.430   8.139 -0.8544 -0.3943 -0.7553
  830MOL0     H11986   2.852   1.595   8.100 -1.2466  0.4146 -0.5768
  830MOL0     H11987   2.756   1.395   7.913 -0.3815  2.5108 -0.7575
  830MOL0     H11988   2.702   1.361   8.083  0.1535 -1.1654  0.0927
  830MOL0     H11989   2.589   1.585   8.088 -1.4603 -0.3368 -0.0178
  830MOL0     H11990   2.645   1.619   7.919  0.4568 -1.7592 -1.1578
  830MOL0     H11991   2.535   1.403   7.848 -1.4994  2.8787 -2.8449
  830MOL0     H11992   2.464   1.390   8.011 -1.6928 -0.3487 -0.9462
  830MOL0     H11993   2.328   1.565   7.987 -1.4252 -2.7577 -0.1174
  830MOL0     H11994   2.416   1.643   7.856  1.8647 -0.2373  1.5172
  830MOL0     H11995   2.328   1.457   7.695 -2.1809  0.0883 -0.6915
  830MOL0     H11996   2.259   1.382   7.837  1.3833 -0.2297  0.2442
  830MOL0     H11997   2.191   1.668   7.735 -0.7599  1.0873 -0.8442
  830MOL0     H11998   2.125   1.517   7.670  0.2163  0.1973  0.1302
  830MOL0     H11999   2.082   1.664   7.927 -1.6518  0.3692  0.3491
  830MOL0     H12000   2.077   1.488   7.943 -0.2595  0.2890  0.5505
  830MOL0     H12001   1.852   1.386   7.911  0.1588 -0.4233  0.2643
  830MOL0     H12002   1.554   1.424   7.707 -0.4959 -1.0447  0.7133
  830MOL0     H12003   1.641   1.325   7.829  0.8357  0.8508  1.4973
  830MOL0     H12004   1.472   1.567   7.873  0.5960 -0.3062 -1.4440
  830MOL0     H12005   1.594   1.521   7.997  1.4610  0.9857 -1.1686
  830MOL0     H12006   1.471   1.307   7.996  1.2631  1.7016 -0.5283
  830MOL0     H12007   1.339   1.385   7.897 -1.4042  2.7420 -0.9286
  830MOL0     H12008   1.299   1.557   8.072  0.4057  0.4407  0.9548
  830MOL0     H12009   1.434   1.490   8.165 -0.0031 -2.4040  1.1178
  830MOL0     H12010   1.146   1.270   8.354 -0.0413 -1.5366 -1.2318
  830MOL0     H12011   0.824   1.306   8.453  0.8524  1.2013  0.0999
  830MOL0     H12012   0.832   1.154   8.359  1.4092 -1.8742  1.2981
  830MOL0     H12013   0.967   1.195   8.458 -1.4910 -3.2989  0.0300
  830MOL0     H12014   0.529   1.605   8.325 -0.5152  0.3702  0.3485
  830MOL0     H12015   0.258   1.602   8.355 -1.0317 -1.8755  0.6075
  830MOL0     H12016  -0.023   1.377   8.297 -0.9109 -0.1265  0.4683
  830MOL0     H12017   0.081   1.483   8.388  0.3773  1.8454 -1.0480
  830MOL0     H12018  -0.042   1.678   8.335  1.5175  0.9189 -4.0097
  830MOL0     H12019  -0.140   1.603   8.214  0.7376  1.5323  0.4155
  830MOL0     H12020  -0.140   1.523   8.514  0.0592 -1.1726 -0.4891
  830MOL0     H12021  -0.219   1.444   8.379 -1.7240  0.3131  0.2651
  830MOL0     H12022  -0.252   1.748   8.435  3.1017 -1.0746 -2.6553
  830MOL0     H12023  -0.338   1.641   8.325  0.6682  0.6028  0.2204
  830MOL0     H12024  -0.441   1.691   8.568  2.1026 -0.1462  1.4175
  830MOL0     H12025  -0.342   1.552   8.619  3.0992 -0.4492 -1.6552
  830MOL0     H12026  -0.544   1.537   8.395 -1.4091 -2.0181 -0.9207
  830MOL0     H12027  -0.458   1.398   8.455 -0.3647 -0.1560 -0.0343
  830MOL0     H12028  -0.652   1.587   8.607 -1.2197  0.2370 -2.0296
  830MOL0     H12029  -0.572   1.442   8.683  2.2935 -1.2779 -1.2331
  830MOL0     H12030  -0.806   1.405   8.625  0.6878  0.6730  0.9399
  830MOL0     H12031  -0.695   1.297   8.528 -1.6084  0.0596  1.0467
  830MOL0     H12032   0.248   1.365   8.001 -0.0735  0.9360 -1.0038
  830MOL0     H12033   0.498   1.381   7.982  3.5949  3.9516  0.2009
  830MOL0     H12034   0.863   1.515   8.024 -3.0658 -0.0058  0.5888
  830MOL0     H12035   1.111   1.505   7.995  0.8160 -1.0213  0.6908
  830MOL0     H12036   3.060   1.687   7.809 -0.0371  0.3083 -0.6932
  830MOL0     H12037   3.240   1.855   7.853  0.8982 -3.9605 -4.7394
  830MOL0     H12038   3.665   1.813   8.095 -0.7526 -2.2046  3.4541
  830MOL0     H12039   3.891   1.925   8.101  1.5740  0.7726  2.0357
  830MOL0     H12040   3.929   2.355   8.134  0.2809 -0.5303 -0.3560
  830MOL0     H12041   3.888   2.323   8.307 -0.0008 -4.0935  1.1066
  830MOL0     H12042   4.132   2.407   8.292 -0.2172  0.4526 -0.6386
  830MOL0     H12043   4.170   2.270   8.194 -1.1874  0.4558 -0.8540
  830MOL0     H12044   4.117   2.105   8.364  1.9673 -0.2326 -2.1758
  830MOL0     H12045   4.051   2.232   8.471  0.5521  1.2108 -0.2683
  830MOL0     H12046   4.260   2.349   8.464 -0.2012  0.3619 -2.5329
  830MOL0     H12047   4.337   2.225   8.357  0.1855 -3.6508  0.2281
  830MOL0     H12048   4.383   1.995   8.692 -0.1627 -0.9056 -1.7236
  830MOL0     H12049   3.682   2.275   8.243 -1.3758 -0.4220 -0.9383
  830MOL0     H12050   3.471   2.162   8.232 -0.8673 -0.3855 -0.5241
  831MOL0     O12051   0.724   8.626   9.278 -0.8636 -0.1704  0.1961
  831MOL0     C12052   0.701   8.635   9.403 -0.3366 -0.2814  0.2148
  831MOL0     O12053   0.571   8.640   9.459 -0.5438 -0.6808 -0.1155
  831MOL0     C12054   0.471   8.612   9.369 -0.1940  1.0716  0.4605
  831MOL0     C12055   0.392   8.712   9.320 -1.0147  0.1677 -0.5606
  831MOL0     C12056   0.296   8.690   9.228 -0.7574 -0.2371  0.4197
  831MOL0     C12057   0.274   8.563   9.175 -0.3566  0.0981 -0.2458
  831MOL0     O12058   0.174   8.552   9.080  0.5562  0.2178  0.2619
  831MOL0     C12059   0.122   8.420   9.038 -0.0389  0.5204 -0.9660
  831MOL0     C12060   0.188   8.385   8.902  0.1765  0.8490  0.1302
  831MOL0     C12061   0.108   8.284   8.835  0.2082  0.4141  0.6839
  831MOL0     C12062   0.097   8.152   8.910 -0.1113  0.5805  0.5908
  831MOL0     C12063   0.039   8.050   8.812  0.1153 -0.1167  0.3431
  831MOL0     C12064  -0.003   7.922   8.887 -0.1582 -0.2604 -1.3763
  831MOL0     C12065  -0.074   7.815   8.813 -0.6920  0.0382 -0.1810
  831MOL0     C12066  -0.221   7.853   8.790  0.0374 -0.7498  0.1467
  831MOL0     N12067  -0.286   7.763   8.698  0.4379 -0.8020  0.1200
  831MOL0     C12068  -0.282   7.769   8.562  0.2500 -0.1198 -0.4941
  831MOL0     C12069  -0.371   7.665   8.535  0.3266 -0.5379 -0.1590
  831MOL0     C12070  -0.403   7.631   8.399 -0.3686  0.7235  1.3646
  831MOL0     C12071  -0.441   7.747   8.300 -0.2204  0.7925  0.2356
  831MOL0     C12072  -0.489   7.689   8.163 -0.1406 -0.4158 -0.2425
  831MOL0     C12073  -0.461   7.801   8.065  0.8057 -0.2708 -0.1543
  831MOL0     O12074  -0.547   7.916   8.076  0.2475 -0.1228  0.0682
  831MOL0     C12075  -0.681   7.907   8.063 -0.0153  0.5476  0.8649
  831MOL0     C12076  -0.742   8.017   8.114  0.3710 -0.9601 -0.0036
  831MOL0     C12077  -0.883   8.038   8.112  0.1831  0.0112 -1.1958
  831MOL0     C12078  -0.931   8.163   8.180  0.5755 -0.4473 -0.1766
  831MOL0     C12079  -0.967   7.943   8.044 -1.1289  0.3736  0.1075
  831MOL0     C12080  -1.112   7.962   8.036  0.3272 -0.3740  0.6862
  831MOL0     O12081  -1.177   7.996   8.150 -0.4834 -0.0857  0.5947
  831MOL0     C12082  -1.314   8.016   8.149  0.4579  0.2213 -0.0862
  831MOL0     C12083  -1.357   8.145   8.112 -0.0285 -1.1309 -0.1556
  831MOL0     C12084  -1.493   8.185   8.131 -0.2732 -0.0518 -0.0425
  831MOL0     C12085  -1.591   8.091   8.169  0.3787 -0.2155  0.4994
  831MOL0     O12086  -1.725   8.134   8.175 -0.0261 -0.1162  0.4486
  831MOL0     C12087  -1.826   8.033   8.188 -0.4611 -0.4728 -0.0872
  831MOL0     C12088  -1.973   8.081   8.177  0.7745  0.2418  0.0888
  831MOL0     C12089  -2.078   7.985   8.219 -0.2865  0.5582  0.3853
  831MOL0     C12090  -2.207   8.057   8.229 -0.0013 -0.3706  0.0277
  831MOL0     C12091  -2.323   7.965   8.237  0.6205  0.5250 -0.1754
  831MOL0     C12092  -2.324   7.866   8.116 -1.3339  0.2710 -0.1995
  831MOL0     C12093  -2.465   7.815   8.077 -0.1536 -0.3213  0.1045
  831MOL0     C12094  -2.508   7.712   8.176  0.0332 -0.6839 -0.1784
  831MOL0    Cl12095  -2.678   7.712   8.190 -0.3038  0.3356 -0.0662
  831MOL0     C12096  -1.547   7.959   8.205  0.3078 -0.3298 -0.7407
  831MOL0     C12097  -1.416   7.925   8.197 -0.3074  0.0753 -0.6790
  831MOL0     O12098  -1.165   7.949   7.923 -0.1264 -0.8311  0.0071
  831MOL0     C12099  -0.900   7.830   7.986 -0.9095 -0.7049 -0.9991
  831MOL0     C12100  -0.761   7.807   8.000 -0.0167 -0.7525 -0.2795
  831MOL0     N12101  -0.431   7.624   8.650 -0.1064  0.4067 -0.0250
  831MOL0     N12102  -0.379   7.679   8.743  0.1220  0.2077  0.2410
  831MOL0     C12103   0.355   8.454   9.230  0.3316 -0.7599 -0.1614
  831MOL0     C12104   0.453   8.481   9.320  0.1176 -1.0193 -0.2105
  831MOL0     C12105   0.816   8.659   9.493  0.2214  0.3504 -0.1568
  831MOL0     C12106   0.796   8.676   9.632  0.3704  0.8715 -0.0821
  831MOL0     C12107   0.904   8.696   9.711 -0.5373  0.1953 -0.0273
  831MOL0     C12108   1.045   8.705   9.662 -0.5272  0.5767 -0.1919
  831MOL0     O12109   1.153   8.704   9.747  0.5640  0.7131 -0.3173
  831MOL0     C12110   1.126   8.730   9.887 -0.1987  0.1111  0.3473
  831MOL0     C12111   1.250   8.748   9.976  0.3747  0.0561  0.3175
  831MOL0     C12112   1.326   8.866   9.922  0.1369 -0.6355 -0.0021
  831MOL0     C12113   1.459   8.884   9.993 -0.2127 -0.0073 -0.7446
  831MOL0     C12114   1.546   8.973   9.920  0.1680  0.1758 -0.6877
  831MOL0     C12115   1.612   9.029   9.831  0.2606  0.3966 -0.1059
  831MOL0     C12116   1.062   8.689   9.523 -0.4936 -0.0339  0.5340
  831MOL0     C12117   0.946   8.667   9.441 -0.3496 -0.0012 -0.5725
  831MOL0     H12118   0.423   8.808   9.361 -0.3178 -1.1005  2.0524
  831MOL0     H12119   0.238   8.773   9.191 -2.7822 -2.1394 -0.9655
  831MOL0     H12120   0.141   8.342   9.112  0.7070  0.2142 -1.4718
  831MOL0     H12121   0.013   8.418   9.024 -0.0907 -1.2099 -0.5604
  831MOL0     H12122   0.201   8.472   8.837 -1.9309 -0.1306 -1.7313
  831MOL0     H12123   0.288   8.350   8.930 -0.3715 -0.6070  0.3449
  831MOL0     H12124   0.014   8.334   8.811  0.2395 -0.0187 -0.4257
  831MOL0     H12125   0.158   8.268   8.739 -1.6081  0.9056 -0.3877
  831MOL0     H12126   0.196   8.120   8.945 -1.5522 -0.9893  3.5778
  831MOL0     H12127   0.021   8.152   8.989 -1.3991 -0.4292 -0.6181
  831MOL0     H12128  -0.050   8.091   8.763 -0.1867 -1.1380  0.0242
  831MOL0     H12129   0.117   8.033   8.738  0.7345  0.4463  0.8547
  831MOL0     H12130   0.083   7.873   8.933 -0.2941 -0.3558 -1.2200
  831MOL0     H12131  -0.071   7.951   8.968 -1.0712 -0.2688 -2.1271
  831MOL0     H12132  -0.029   7.784   8.718 -1.3773 -3.1759  0.4174
  831MOL0     H12133  -0.081   7.725   8.875 -0.6364  0.1410 -0.0257
  831MOL0     H12134  -0.232   7.956   8.754  0.9750 -1.2123 -1.5471
  831MOL0     H12135  -0.275   7.844   8.885 -0.2308 -0.0458  0.0693
  831MOL0     H12136  -0.227   7.824   8.487  0.8163 -0.7647 -0.5586
  831MOL0     H12137  -0.318   7.588   8.345 -0.6251  0.0686  1.4757
  831MOL0     H12138  -0.485   7.559   8.406 -0.5883  1.1339  3.6705
  831MOL0     H12139  -0.353   7.812   8.296  0.3814  0.1207  1.7406
  831MOL0     H12140  -0.533   7.794   8.334 -0.3088  0.8210 -0.0396
  831MOL0     H12141  -0.596   7.673   8.182  0.3869 -0.5742  3.2914
  831MOL0     H12142  -0.449   7.592   8.133 -0.0423 -0.3991 -0.1698
  831MOL0     H12143  -0.469   7.755   7.966  0.1816  1.0568 -0.7543
  831MOL0     H12144  -0.359   7.839   8.076  0.1486  1.2644  1.0347
  831MOL0     H12145  -0.679   8.097   8.152 -0.1504 -0.0299 -1.0571
  831MOL0     H12146  -0.998   8.210   8.107  2.3349 -0.9415 -2.2055
  831MOL0     H12147  -0.981   8.131   8.272  1.8557  1.3618  1.2153
  831MOL0     H12148  -0.847   8.229   8.198  0.8816 -0.8033 -0.2881
  831MOL0     H12149  -1.285   8.220   8.079 -1.0679  0.6057  1.3479
  831MOL0     H12150  -1.520   8.284   8.096  3.8060  1.0878 -0.4127
  831MOL0     H12151  -1.811   7.957   8.110  0.1538 -1.3030  0.8157
  831MOL0     H12152  -1.814   7.983   8.284  1.6655 -0.1541 -0.1489
  831MOL0     H12153  -1.974   8.158   8.254  1.7711  0.1383  0.2169
  831MOL0     H12154  -1.988   8.120   8.076 -0.8634 -2.6045 -0.9023
  831MOL0     H12155  -2.055   7.945   8.319 -0.4447 -0.3692  0.0589
  831MOL0     H12156  -2.083   7.899   8.152 -0.8179 -1.1507  2.4966
  831MOL0     H12157  -2.223   8.103   8.327  1.7275  1.6509 -0.5485
  831MOL0     H12158  -2.217   8.125   8.143 -0.8355 -0.5095  0.0029
  831MOL0     H12159  -2.419   8.016   8.233 -1.3629 -2.9303 -0.8468
  831MOL0     H12160  -2.315   7.907   8.329 -2.8581  2.2302  1.3663
  831MOL0     H12161  -2.306   7.931   8.029 -0.8981  0.5595  0.1036
  831MOL0     H12162  -2.251   7.785   8.119 -0.8460  0.6727 -0.7982
  831MOL0     H12163  -2.465   7.766   7.980  0.0218 -2.0333  0.9284
  831MOL0     H12164  -2.550   7.884   8.076 -1.2143 -1.5723  0.4496
  831MOL0     H12165  -2.469   7.734   8.276 -0.3728  4.3509 -0.8728
  831MOL0     H12166  -2.478   7.613   8.139 -0.8533 -0.4707 -1.5572
  831MOL0     H12167  -1.612   7.879   8.241  1.3626 -1.4747 -1.3194
  831MOL0     H12168  -1.372   7.833   8.235  2.3866  0.7931 -1.8494
  831MOL0     H12169  -0.960   7.760   7.928  1.0045 -2.6212 -0.8264
  831MOL0     H12170  -0.712   7.724   7.950 -1.0755 -1.1183 -0.7243
  831MOL0     H12171   0.354   8.347   9.210 -0.5764 -0.6917 -0.5152
  831MOL0     H12172   0.514   8.399   9.357 -1.7901 -1.8841  1.1857
  831MOL0     H12173   0.701   8.672   9.683  2.2878  0.9145  3.9336
  831MOL0     H12174   0.892   8.700   9.819 -1.0178  3.1819 -0.0872
  831MOL0     H12175   1.065   8.821   9.891  0.3531  0.4512  1.2298
  831MOL0     H12176   1.085   8.637   9.928 -0.6230 -1.1955 -2.7702
  831MOL0     H12177   1.310   8.656   9.978 -1.9714 -1.5509  1.6415
  831MOL0     H12178   1.206   8.760  10.075 -2.8223 -0.8984 -0.8818
  831MOL0     H12179   1.273   8.961   9.924  2.2721  0.5965  0.5579
  831MOL0     H12180   1.340   8.849   9.815  0.0355 -0.3272 -0.0641
  831MOL0     H12181   1.504   8.785   9.991 -1.7631 -0.7938  0.8076
  831MOL0     H12182   1.452   8.907  10.099  2.5333  0.0555 -0.5028
  831MOL0     H12183   1.671   9.074   9.754  1.5465  0.5416  0.9235
  831MOL0     H12184   1.160   8.684   9.476  1.2330  5.0544  2.8436
  831MOL0     H12185   0.956   8.644   9.335 -0.2967  1.0255 -0.7935
  832MOL0     O12186   2.372   7.941   6.869 -0.2589  0.7537 -0.9479
  832MOL0     C12187   2.435   7.997   6.783  0.6046 -0.0209  1.0373
  832MOL0     O12188   2.387   8.044   6.663  0.5428 -0.2944  0.1085
  832MOL0     C12189   2.252   8.059   6.638 -0.1831 -0.1353  0.2477
  832MOL0     C12190   2.153   8.090   6.734  0.1328 -0.8864 -0.3532
  832MOL0     C12191   2.018   8.065   6.701  0.4575  0.9776  0.1994
  832MOL0     C12192   1.981   8.016   6.577 -0.3317 -0.5191 -0.1242
  832MOL0     O12193   1.852   7.999   6.556 -0.1710  0.0382 -0.1284
  832MOL0     C12194   1.814   7.929   6.446 -0.2318 -0.4961 -0.6184
  832MOL0     C12195   1.660   7.942   6.458 -0.7962  0.8809  0.2104
  832MOL0     C12196   1.613   7.873   6.592 -0.0115  0.2335  0.1214
  832MOL0     C12197   1.463   7.836   6.589  0.3016 -0.4835  0.0756
  832MOL0     C12198   1.423   7.740   6.708 -0.4529  0.7460  0.8662
  832MOL0     C12199   1.282   7.702   6.704 -0.1944 -0.8804 -0.3920
  832MOL0     C12200   1.262   7.610   6.814  0.4736  0.8391  0.5485
  832MOL0     C12201   1.116   7.568   6.835 -0.6746  0.6296  0.7513
  832MOL0     N12202   1.014   7.672   6.852 -0.1901 -0.1188  0.0124
  832MOL0     C12203   1.000   7.751   6.966  0.1858 -0.4832 -0.5326
  832MOL0     C12204   0.885   7.826   6.952 -0.4042  0.1627 -0.0900
  832MOL0     C12205   0.822   7.911   7.057  0.4856 -0.4906  0.1873
  832MOL0     C12206   0.668   7.923   7.028  0.3181 -0.0642 -0.0149
  832MOL0     C12207   0.602   7.789   7.052 -1.0084  0.3462  0.1294
  832MOL0     C12208   0.457   7.817   7.037 -1.1053  0.7107  0.0019
  832MOL0     O12209   0.403   7.892   7.147 -0.2586  0.5695  0.0451
  832MOL0     C12210   0.289   7.952   7.125  1.1183 -0.2148 -0.0682
  832MOL0     C12211   0.250   8.077   7.194  0.3376  0.1882 -0.0318
  832MOL0     C12212   0.129   8.143   7.169  0.3780  0.3972 -0.0581
  832MOL0     C12213   0.085   8.261   7.246 -0.6364 -0.1680 -0.5115
  832MOL0     C12214   0.033   8.079   7.086  0.4453 -0.6689 -0.3056
  832MOL0     C12215  -0.106   8.131   7.067  0.1430  0.4454  0.1555
  832MOL0     O12216  -0.159   8.106   6.942  0.1906  0.4343 -0.0210
  832MOL0     C12217  -0.273   8.185   6.926  0.5090  0.1386 -0.3606
  832MOL0     C12218  -0.263   8.315   6.889 -0.0845  0.6137 -0.5594
  832MOL0     C12219  -0.367   8.404   6.892  0.5730 -0.0584  0.3775
  832MOL0     C12220  -0.487   8.360   6.952  0.5143 -0.2709 -0.3040
  832MOL0     O12221  -0.589   8.455   6.982 -0.2405 -0.1493 -0.0973
  832MOL0     C12222  -0.711   8.463   6.910 -0.2778 -0.9599  1.6330
  832MOL0     C12223  -0.818   8.477   7.015  0.2170  0.1129 -0.6263
  832MOL0     C12224  -0.951   8.540   6.972  0.7654 -0.1612  0.0637
  832MOL0     C12225  -1.031   8.419   6.914  0.7016 -0.2408 -0.7527
  832MOL0     C12226  -1.150   8.465   6.827 -0.2817 -0.3804 -0.4258
  832MOL0     C12227  -1.253   8.365   6.801  0.1811  0.6327 -0.0016
  832MOL0     C12228  -1.299   8.382   6.660 -0.0502  0.0663 -0.8247
  832MOL0     C12229  -1.403   8.268   6.638 -0.0900  0.1691 -0.3569
  832MOL0    Cl12230  -1.457   8.290   6.468  0.1289 -0.2379  0.6192
  832MOL0     C12231  -0.503   8.223   6.987  0.0782  0.0114 -0.0783
  832MOL0     C12232  -0.402   8.134   6.969 -0.6601 -0.1183  0.0480
  832MOL0     O12233  -0.171   8.177   7.164 -0.0233 -0.5692  0.1899
  832MOL0     C12234   0.071   7.968   7.011  0.5087  0.7863 -1.4480
  832MOL0     C12235   0.196   7.901   7.025  0.0023 -0.4364  0.2679
  832MOL0     N12236   0.845   7.792   6.817  0.1136  0.1091 -0.2127
  832MOL0     N12237   0.913   7.695   6.773 -0.7259 -0.3695 -0.9176
  832MOL0     C12238   2.079   7.998   6.478 -0.3988  0.8013  0.1305
  832MOL0     C12239   2.210   8.000   6.517 -0.2770 -0.5173 -0.6336
  832MOL0     C12240   2.580   8.018   6.797 -0.0735  0.3558 -0.2245
  832MOL0     C12241   2.644   8.103   6.710 -0.3062  0.4167 -0.1629
  832MOL0     C12242   2.774   8.148   6.730 -0.7052 -0.0077 -0.4437
  832MOL0     C12243   2.856   8.090   6.829  0.9119  0.3023  0.0573
  832MOL0     O12244   2.981   8.129   6.858 -0.5852 -0.1451  0.4584
  832MOL0     C12245   3.033   8.241   6.784  1.0381 -0.2449 -0.0460
  832MOL0     C12246   3.169   8.273   6.844  0.8228 -0.5850  0.3474
  832MOL0     C12247   3.172   8.316   6.993  0.3445 -0.2432  0.1791
  832MOL0     C12248   3.145   8.469   7.008 -0.3026 -0.6699 -0.3096
  832MOL0     C12249   3.156   8.498   7.155  0.0234  0.1027  0.2530
  832MOL0     C12250   3.170   8.519   7.271  0.3200 -0.1092 -0.3624
  832MOL0     C12251   2.792   7.998   6.915  0.7488 -0.8202 -0.7944
  832MOL0     C12252   2.656   7.965   6.901 -0.3981 -0.3524 -0.3357
  832MOL0     H12253   2.195   8.127   6.827 -2.8622  0.9899  0.3921
  832MOL0     H12254   1.943   8.093   6.775  1.7375 -0.5081  2.1471
  832MOL0     H12255   1.843   7.984   6.356 -2.7444 -0.7607 -1.6656
  832MOL0     H12256   1.845   7.824   6.443 -0.2891 -0.5236 -0.2517
  832MOL0     H12257   1.631   8.048   6.452 -1.4900  1.0113  3.7721
  832MOL0     H12258   1.622   7.888   6.371  1.4463  0.6081 -0.6663
  832MOL0     H12259   1.678   7.788   6.614  0.9167  1.0334  0.5323
  832MOL0     H12260   1.626   7.942   6.676  0.6941  0.4731 -0.1814
  832MOL0     H12261   1.403   7.926   6.608  1.1768  0.2556 -0.5855
  832MOL0     H12262   1.430   7.800   6.491 -0.4121  2.0296 -0.6777
  832MOL0     H12263   1.485   7.650   6.697  0.5584  1.6593 -2.0766
  832MOL0     H12264   1.449   7.797   6.798  1.3239  1.5685 -0.1038
  832MOL0     H12265   1.224   7.792   6.726 -1.2620 -1.9679  1.4355
  832MOL0     H12266   1.248   7.656   6.611  0.3030 -0.2612 -0.8925
  832MOL0     H12267   1.322   7.520   6.800 -0.4677  0.0145  1.6701
  832MOL0     H12268   1.298   7.651   6.909  2.5679 -1.9260  1.0903
  832MOL0     H12269   1.106   7.497   6.918 -0.4672  0.1014  0.3329
  832MOL0     H12270   1.098   7.511   6.743 -0.3433 -0.0065  1.0749
  832MOL0     H12271   1.059   7.750   7.057  0.5498 -0.5930 -0.7685
  832MOL0     H12272   0.828   7.862   7.155  0.2557 -1.4136 -0.2488
  832MOL0     H12273   0.878   8.004   7.072 -0.2444  0.0154 -0.1912
  832MOL0     H12274   0.645   7.949   6.925  0.8875 -0.9748 -0.3881
  832MOL0     H12275   0.627   7.994   7.101  2.3496 -0.1887  1.3611
  832MOL0     H12276   0.620   7.762   7.156  0.6727  0.1191 -0.1808
  832MOL0     H12277   0.645   7.714   6.984  0.8002  1.8988 -0.5305
  832MOL0     H12278   0.417   7.715   7.029  1.0629 -0.0378 -2.5810
  832MOL0     H12279   0.433   7.860   6.939 -2.3329 -0.2849 -0.1699
  832MOL0     H12280   0.319   8.108   7.272  2.0079 -0.7464 -1.0808
  832MOL0     H12281   0.174   8.310   7.286 -0.1031 -1.3806 -0.1532
  832MOL0     H12282   0.033   8.333   7.183 -0.1010  0.0787 -0.6729
  832MOL0     H12283   0.026   8.231   7.333 -0.8101  3.2911  0.6957
  832MOL0     H12284  -0.161   8.331   6.853  0.4577 -2.3360 -0.5813
  832MOL0     H12285  -0.354   8.510   6.870 -2.6959 -0.1128 -2.8929
  832MOL0     H12286  -0.709   8.546   6.838  2.6569 -1.5755  0.8488
  832MOL0     H12287  -0.727   8.378   6.843 -1.6671  1.5482 -1.4762
  832MOL0     H12288  -0.841   8.381   7.061 -0.1831  0.3048 -0.4217
  832MOL0     H12289  -0.774   8.526   7.102 -1.3332 -1.5348  1.1814
  832MOL0     H12290  -0.923   8.609   6.891 -1.4597 -1.2890 -1.7750
  832MOL0     H12291  -1.011   8.600   7.040  0.9097 -0.2234  0.2464
  832MOL0     H12292  -0.971   8.349   6.856  0.5290 -2.1811  1.2656
  832MOL0     H12293  -1.075   8.359   6.995 -1.6270 -0.0544 -1.8009
  832MOL0     H12294  -1.105   8.507   6.737  2.5252  1.6741  1.7264
  832MOL0     H12295  -1.203   8.543   6.883  0.8366  0.5653 -0.6569
  832MOL0     H12296  -1.211   8.265   6.809  2.6569  1.6469  0.6569
  832MOL0     H12297  -1.332   8.374   6.876  0.2144  1.8489 -0.0879
  832MOL0     H12298  -1.212   8.374   6.594  0.6266  0.2979  0.0138
  832MOL0     H12299  -1.352   8.475   6.642 -1.6079 -1.0263 -2.1845
  832MOL0     H12300  -1.478   8.276   6.717 -0.7278  1.5838 -1.0663
  832MOL0     H12301  -1.357   8.169   6.643 -0.7470 -0.1661 -0.7376
  832MOL0     H12302  -0.593   8.180   7.029 -0.5807  1.2895 -0.1277
  832MOL0     H12303  -0.414   8.032   7.005  2.6319 -0.9158 -0.7903
  832MOL0     H12304   0.001   7.915   6.947  0.6359 -0.1925 -0.7982
  832MOL0     H12305   0.219   7.809   6.971 -0.6563 -3.1014  4.0944
  832MOL0     H12306   2.054   7.972   6.375 -1.6379 -1.1279  0.8506
  832MOL0     H12307   2.286   7.963   6.448  0.1410 -0.2448 -0.3285
  832MOL0     H12308   2.593   8.147   6.625 -0.1929 -2.1142 -1.6566
  832MOL0     H12309   2.806   8.220   6.655  2.1038 -3.1514 -2.5461
  832MOL0     H12310   3.059   8.217   6.680  1.1539  0.0324 -0.0805
  832MOL0     H12311   2.969   8.328   6.802  0.8630  0.5586 -3.7067
  832MOL0     H12312   3.221   8.352   6.790  2.4967 -0.8939  1.4637
  832MOL0     H12313   3.232   8.184   6.840  3.8386  1.4332 -2.6044
  832MOL0     H12314   3.278   8.299   7.014  0.4135  1.4431  1.3967
  832MOL0     H12315   3.102   8.261   7.056  0.7098  1.3703  2.0683
  832MOL0     H12316   3.053   8.505   6.961 -1.1423  0.8675  2.3273
  832MOL0     H12317   3.230   8.522   6.965 -1.2755  1.2799  0.0640
  832MOL0     H12318   3.198   8.525   7.375  2.7599 -0.9317 -0.9004
  832MOL0     H12319   2.847   7.941   6.989 -0.1599  0.3592  0.8696
  832MOL0     H12320   2.598   7.905   6.971 -1.3906  0.4244 -0.4652
  833MOL0     O12321   7.938   7.583   1.636  0.9604  0.3470  0.3572
  833MOL0     C12322   8.005   7.685   1.638 -0.3702 -0.3574  0.2989
  833MOL0     O12323   7.951   7.812   1.664 -0.5986  0.4515 -0.4071
  833MOL0     C12324   7.821   7.818   1.703  0.3531  0.5528  0.6279
  833MOL0     C12325   7.778   7.841   1.834  0.3929 -0.0120 -0.1720
  833MOL0     C12326   7.644   7.844   1.874 -0.7458 -0.2287  0.2440
  833MOL0     C12327   7.544   7.841   1.779 -0.4573  0.1736 -1.1836
  833MOL0     O12328   7.415   7.849   1.827 -0.1211  0.2006  0.0624
  833MOL0     C12329   7.312   7.797   1.737  0.2438  0.0902 -0.1720
  833MOL0     C12330   7.180   7.842   1.792 -0.6079 -0.3558  0.4106
  833MOL0     C12331   7.068   7.775   1.710 -0.1566 -0.0765  0.1227
  833MOL0     C12332   7.058   7.623   1.719 -0.7789  0.4520 -0.4073
  833MOL0     C12333   7.022   7.581   1.863  0.3686 -0.0216 -0.6110
  833MOL0     C12334   6.968   7.432   1.869  0.3804 -0.3800 -0.0299
  833MOL0     C12335   6.841   7.399   1.782 -1.0534  0.6261  0.2496
  833MOL0     C12336   6.713   7.470   1.802 -0.7361 -0.3812 -0.1102
  833MOL0     N12337   6.629   7.429   1.691 -0.2967 -0.5107  0.1954
  833MOL0     C12338   6.525   7.339   1.711  0.4926  0.0605  0.1726
  833MOL0     C12339   6.487   7.297   1.587 -0.2214 -0.1066  0.5529
  833MOL0     C12340   6.382   7.189   1.557 -0.0636 -0.3116 -0.2968
  833MOL0     C12341   6.272   7.232   1.467  0.6689 -0.5650 -0.1864
  833MOL0     C12342   6.182   7.121   1.420  0.4903  0.6689  0.1856
  833MOL0     C12343   6.057   7.163   1.338 -0.9290  0.4862  0.3491
  833MOL0     O12344   6.035   7.073   1.233 -0.1502  0.8552  0.0263
  833MOL0     C12345   5.913   7.060   1.173  0.4161  0.4721 -0.6729
  833MOL0     C12346   5.802   7.132   1.206 -0.3677 -1.0653  0.1633
  833MOL0     C12347   5.681   7.110   1.135 -0.8048  0.5420 -0.3379
  833MOL0     C12348   5.565   7.202   1.175  0.5956  0.6207  0.3466
  833MOL0     C12349   5.666   7.012   1.036  0.1230  0.4093  0.0818
  833MOL0     C12350   5.548   6.979   0.952  0.9663  0.5405 -0.9546
  833MOL0     O12351   5.558   6.881   0.857  0.0277  0.3814  0.0874
  833MOL0     C12352   5.449   6.851   0.776  0.0562  0.1229  0.1608
  833MOL0     C12353   5.332   6.804   0.827  0.3602  0.3498  0.5391
  833MOL0     C12354   5.220   6.790   0.747  0.4635  0.7846 -1.1108
  833MOL0     C12355   5.234   6.815   0.610  0.7478  0.2314 -0.2546
  833MOL0     O12356   5.127   6.822   0.517 -0.0327 -0.1700 -0.4725
  833MOL0     C12357   5.001   6.774   0.551 -0.6691 -0.1323 -0.0302
  833MOL0     C12358   4.917   6.873   0.618  0.6103  0.1218  0.3234
  833MOL0     C12359   4.784   6.823   0.685 -0.5148  0.4714 -0.2876
  833MOL0     C12360   4.687   6.748   0.589  0.5235  0.5589  0.1594
  833MOL0     C12361   4.555   6.700   0.662 -0.9744  0.3469  0.2384
  833MOL0     C12362   4.434   6.693   0.566  0.0761  0.8328 -0.2924
  833MOL0     C12363   4.315   6.594   0.609  0.1327 -0.1659  0.2723
  833MOL0     C12364   4.188   6.622   0.533  0.5405 -0.2211 -0.7490
  833MOL0    Cl12365   4.084   6.467   0.535 -0.1577  0.1034  0.0376
  833MOL0     C12366   5.350   6.870   0.559 -0.1957 -0.1877 -0.7826
  833MOL0     C12367   5.456   6.881   0.638 -0.7767 -0.3417  0.0256
  833MOL0     O12368   5.437   7.031   0.984 -0.0384  0.8200  0.4339
  833MOL0     C12369   5.782   6.937   1.008 -0.8655 -0.1838 -0.9376
  833MOL0     C12370   5.903   6.962   1.074  0.2277  0.2735  0.0585
  833MOL0     N12371   6.565   7.370   1.494 -0.4266 -0.6533  0.3872
  833MOL0     N12372   6.653   7.434   1.560 -0.3013  0.0431 -0.4170
  833MOL0     C12373   7.582   7.836   1.647  0.4443  0.4223  0.7558
  833MOL0     C12374   7.711   7.820   1.605 -0.9139  0.2194 -0.3861
  833MOL0     C12375   8.147   7.677   1.602 -0.0222 -1.0775 -0.1576
  833MOL0     C12376   8.218   7.798   1.583  0.9096 -0.3846  0.6182
  833MOL0     C12377   8.356   7.796   1.548  0.0468  0.4208 -0.2031
  833MOL0     C12378   8.424   7.668   1.568 -0.2752  0.0135 -0.8143
  833MOL0     O12379   8.562   7.651   1.571  0.3976 -0.1930  0.2328
  833MOL0     C12380   8.635   7.779   1.575 -0.7305 -0.1596 -0.3153
  833MOL0     C12381   8.786   7.751   1.594  0.1731 -0.0019 -0.0619
  833MOL0     C12382   8.843   7.684   1.475  0.2488  0.1564  0.0732
  833MOL0     C12383   9.000   7.691   1.475  0.6672 -0.6834 -0.0493
  833MOL0     C12384   9.049   7.599   1.374 -0.4195 -0.1477 -0.6986
  833MOL0     C12385   9.099   7.518   1.305  0.3982 -0.7045  0.9886
  833MOL0     C12386   8.353   7.549   1.583 -0.1310  0.1395  0.4165
  833MOL0     C12387   8.213   7.560   1.604 -0.7990  1.0633  0.4660
  833MOL0     H12388   7.857   7.858   1.906  0.2914  3.0123 -0.6684
  833MOL0     H12389   7.623   7.852   1.981  2.1777  1.4718  0.7930
  833MOL0     H12390   7.312   7.841   1.637 -0.2698  0.6467  0.0650
  833MOL0     H12391   7.323   7.688   1.732  2.1903  0.2930 -1.5905
  833MOL0     H12392   7.168   7.830   1.900 -2.5888 -0.0871  0.2450
  833MOL0     H12393   7.171   7.950   1.777 -1.3761 -0.0357  2.7667
  833MOL0     H12394   6.970   7.814   1.738 -0.6849 -1.5766  0.4447
  833MOL0     H12395   7.082   7.806   1.606  1.5167  1.8744  0.8504
  833MOL0     H12396   6.988   7.585   1.645 -1.1222 -2.3537  1.2377
  833MOL0     H12397   7.151   7.573   1.692 -2.6485 -2.2093 -2.4301
  833MOL0     H12398   7.112   7.584   1.925 -0.9665  0.6739  1.4201
  833MOL0     H12399   6.952   7.654   1.905  0.2785 -0.4089 -0.0796
  833MOL0     H12400   7.046   7.359   1.843  1.3369  0.5074  0.2771
  833MOL0     H12401   6.938   7.403   1.970 -4.2015 -1.6235 -1.5124
  833MOL0     H12402   6.868   7.410   1.676 -0.7278  2.4505  0.4875
  833MOL0     H12403   6.819   7.294   1.800 -1.2309  0.5129 -0.6107
  833MOL0     H12404   6.744   7.574   1.788  1.2544 -0.8939  0.1336
  833MOL0     H12405   6.678   7.454   1.904 -2.8412  1.8421 -0.4137
  833MOL0     H12406   6.476   7.302   1.800 -1.2781  0.4380 -0.5901
  833MOL0     H12407   6.429   7.105   1.505 -0.4066  0.4534 -1.9093
  833MOL0     H12408   6.345   7.158   1.655  2.5873  0.9965  1.2266
  833MOL0     H12409   6.316   7.277   1.378  0.2757  1.4658  0.5980
  833MOL0     H12410   6.223   7.313   1.521  0.3465 -0.8219 -0.0853
  833MOL0     H12411   6.161   7.067   1.513  1.1848  0.7170  0.3781
  833MOL0     H12412   6.247   7.063   1.355  2.2152  0.6866  1.7953
  833MOL0     H12413   6.079   7.264   1.300 -2.2562  1.1700  1.3283
  833MOL0     H12414   5.975   7.170   1.410 -1.2866  1.6241 -0.1478
  833MOL0     H12415   5.813   7.208   1.283  1.3720 -1.8160  0.7125
  833MOL0     H12416   5.603   7.297   1.213  2.8127 -0.6998  1.6138
  833MOL0     H12417   5.484   7.227   1.106  1.9171 -1.1902 -2.0108
  833MOL0     H12418   5.522   7.158   1.266  0.5947 -0.2596 -0.0696
  833MOL0     H12419   5.338   6.782   0.933 -4.1343 -0.4918  0.8167
  833MOL0     H12420   5.123   6.750   0.771  0.4728 -0.3301 -2.8103
  833MOL0     H12421   4.953   6.758   0.454  0.9782  0.6537 -1.0257
  833MOL0     H12422   5.013   6.676   0.597 -0.0455  0.4287  1.0618
  833MOL0     H12423   4.968   6.921   0.701 -0.7365 -1.5548  2.2124
  833MOL0     H12424   4.897   6.947   0.540  1.5327  0.4980  0.4369
  833MOL0     H12425   4.738   6.910   0.732  2.7925  2.5618 -0.6115
  833MOL0     H12426   4.811   6.744   0.756  0.3770 -1.3012 -2.4272
  833MOL0     H12427   4.653   6.812   0.506  0.6118  0.6952  0.2275
  833MOL0     H12428   4.742   6.662   0.551 -1.6333 -0.9003  0.1170
  833MOL0     H12429   4.521   6.771   0.739 -3.0299  0.4376 -0.6825
  833MOL0     H12430   4.559   6.603   0.711  2.2945  1.2206  1.9839
  833MOL0     H12431   4.381   6.788   0.578 -3.9905 -1.0910 -1.2726
  833MOL0     H12432   4.459   6.677   0.461 -0.4250  1.7871 -0.5712
  833MOL0     H12433   4.288   6.600   0.715  0.5761 -2.8030  0.5826
  833MOL0     H12434   4.351   6.493   0.588  0.6162  0.2171 -0.8067
  833MOL0     H12435   4.229   6.649   0.435  1.6496  1.3167  0.1054
  833MOL0     H12436   4.123   6.697   0.579 -1.2599 -2.4890  0.6297
  833MOL0     H12437   5.359   6.902   0.456 -1.7158  0.2053 -0.8236
  833MOL0     H12438   5.555   6.918   0.612 -0.6174  1.5072  2.8726
  833MOL0     H12439   5.787   6.853   0.939 -0.0845 -0.7599 -0.1940
  833MOL0     H12440   5.995   6.908   1.053  1.3281  2.1722 -0.2559
  833MOL0     H12441   7.509   7.858   1.570  0.6538  1.6188  0.8786
  833MOL0     H12442   7.742   7.812   1.501  2.6498 -1.0061  0.6235
  833MOL0     H12443   8.165   7.892   1.589  2.6465  0.9195 -2.3149
  833MOL0     H12444   8.401   7.892   1.521  1.1934  1.2867  3.9327
  833MOL0     H12445   8.620   7.849   1.492  2.8341  2.4223  0.9711
  833MOL0     H12446   8.615   7.833   1.668  0.4707  0.5240 -0.4359
  833MOL0     H12447   8.792   7.680   1.676  1.3973  0.4445  0.2569
  833MOL0     H12448   8.835   7.846   1.618  0.0986  0.5608 -1.9713
  833MOL0     H12449   8.808   7.728   1.381  0.6006  2.2342  0.8550
  833MOL0     H12450   8.819   7.577   1.473  1.0641 -0.0429 -2.4160
  833MOL0     H12451   9.035   7.664   1.575  2.1070  1.1480  0.0002
  833MOL0     H12452   9.042   7.791   1.459 -0.6359 -0.5389 -3.3535
  833MOL0     H12453   9.155   7.457   1.237 -0.0215 -2.0090  1.7958
  833MOL0     H12454   8.403   7.452   1.583  1.7130  1.0290  1.8820
  833MOL0     H12455   8.146   7.476   1.621  0.0189  0.2896 -0.0618
  834MOL0     O12456   2.040   2.140   4.618  0.7833 -0.5484  0.0211
  834MOL0     C12457   2.067   2.113   4.504 -0.7802  0.4414  0.6408
  834MOL0     O12458   1.986   2.067   4.410 -0.5147  0.0778 -0.1398
  834MOL0     C12459   1.857   2.027   4.455 -0.6526 -0.2801 -0.0655
  834MOL0     C12460   1.759   2.119   4.491 -0.5286  1.4747  0.0289
  834MOL0     C12461   1.629   2.076   4.528 -0.5306  0.6541  0.6308
  834MOL0     C12462   1.610   1.937   4.542  0.1984 -0.3591  0.8484
  834MOL0     O12463   1.483   1.897   4.580  0.0257  0.0454  0.4087
  834MOL0     C12464   1.392   1.914   4.475  0.2985 -0.1064 -0.4419
  834MOL0     C12465   1.300   1.791   4.476  0.4322  0.0242 -0.1793
  834MOL0     C12466   1.199   1.822   4.590  0.0588  0.3125  0.2882
  834MOL0     C12467   1.119   1.705   4.626 -0.3980  0.0370 -1.0769
  834MOL0     C12468   1.036   1.742   4.752  0.1127 -0.3770  0.6192
  834MOL0     C12469   0.904   1.807   4.707 -0.3343  0.1418 -0.0395
  834MOL0     C12470   0.815   1.816   4.835  0.7564 -0.1493  0.0319
  834MOL0     C12471   0.665   1.820   4.787 -0.5473  0.5483  0.0999
  834MOL0     N12472   0.576   1.830   4.899  0.5831 -0.0762 -0.5367
  834MOL0     C12473   0.443   1.799   4.892  0.1220  0.4291  0.6009
  834MOL0     C12474   0.381   1.842   5.003 -0.2807  0.0769  0.8031
  834MOL0     C12475   0.241   1.815   5.038  0.1176 -0.7144  0.8081
  834MOL0     C12476   0.227   1.794   5.190 -0.6298 -0.5797  0.4858
  834MOL0     C12477   0.080   1.753   5.221  0.7271 -0.3440  0.3503
  834MOL0     C12478   0.030   1.789   5.360 -0.7866  0.2048 -0.0484
  834MOL0     O12479  -0.100   1.733   5.383 -0.7390  0.1239  0.4501
  834MOL0     C12480  -0.162   1.780   5.495 -0.7656 -0.1244 -1.3053
  834MOL0     C12481  -0.300   1.756   5.507 -0.2284  0.2791 -0.8703
  834MOL0     C12482  -0.376   1.790   5.618  0.8282 -0.4308  0.1927
  834MOL0     C12483  -0.518   1.739   5.615  0.4448  0.0506  0.7437
  834MOL0     C12484  -0.313   1.845   5.728  0.5568  0.3992 -0.2129
  834MOL0     C12485  -0.381   1.883   5.858 -0.7595  0.7984  0.6523
  834MOL0     O12486  -0.299   1.925   5.961 -0.5356 -0.1973 -0.2883
  834MOL0     C12487  -0.340   1.966   6.091 -0.1178  0.9930  0.3560
  834MOL0     C12488  -0.238   2.036   6.168  0.4189  0.7688  0.4684
  834MOL0     C12489  -0.260   2.079   6.299 -0.5905 -0.0286  0.4237
  834MOL0     C12490  -0.384   2.052   6.360 -0.2882 -0.1515 -0.8225
  834MOL0     O12491  -0.419   2.090   6.491  0.0909 -0.0671  0.1798
  834MOL0     C12492  -0.319   2.138   6.581 -0.2887 -0.0114 -0.2012
  834MOL0     C12493  -0.409   2.186   6.698 -0.2184  0.7337  1.3296
  834MOL0     C12494  -0.468   2.321   6.664  0.0143  0.2046 -0.5122
  834MOL0     C12495  -0.487   2.410   6.791 -0.2646 -0.5196 -0.4951
  834MOL0     C12496  -0.564   2.534   6.751  0.3386 -0.1980 -0.2539
  834MOL0     C12497  -0.713   2.500   6.753 -0.2322 -0.2005  0.3128
  834MOL0     C12498  -0.800   2.610   6.689  0.2713 -0.3152  0.3203
  834MOL0     C12499  -0.946   2.604   6.739  0.0492  0.2977  0.2753
  834MOL0    Cl12500  -0.946   2.667   6.908 -0.3896 -0.4295  0.0601
  834MOL0     C12501  -0.481   1.976   6.295  0.1448 -0.4560  0.1500
  834MOL0     C12502  -0.467   1.936   6.154 -0.1603  0.3095  0.8322
  834MOL0     O12503  -0.501   1.900   5.853  0.6300 -0.2225 -0.3032
  834MOL0     C12504  -0.173   1.869   5.722  0.3388  0.0145  0.1828
  834MOL0     C12505  -0.095   1.834   5.611  0.2387 -0.3625 -0.6220
  834MOL0     N12506   0.478   1.892   5.092  0.1551  0.0841  0.8753
  834MOL0     N12507   0.592   1.880   5.029  0.4583 -0.2471  0.4382
  834MOL0     C12508   1.717   1.843   4.519  0.7157  0.0493 -0.1880
  834MOL0     C12509   1.837   1.890   4.468 -0.7665 -0.5886 -0.1055
  834MOL0     C12510   2.196   2.162   4.450  0.2237 -0.0806 -0.2753
  834MOL0     C12511   2.247   2.109   4.336 -0.0474 -0.8292 -0.2385
  834MOL0     C12512   2.372   2.144   4.284 -0.2345 -0.3707  0.0261
  834MOL0     C12513   2.456   2.234   4.350  0.0265  0.0854  0.4232
  834MOL0     O12514   2.579   2.272   4.300 -0.0979 -0.1271  0.2714
  834MOL0     C12515   2.635   2.206   4.188  0.4399 -0.1071 -0.5963
  834MOL0     C12516   2.788   2.212   4.179 -0.5439 -0.9986 -0.2442
  834MOL0     C12517   2.855   2.138   4.295  0.5216 -0.4189  0.8660
  834MOL0     C12518   3.010   2.130   4.284 -0.4702 -0.5102  0.1780
  834MOL0     C12519   3.079   2.266   4.269 -0.1513 -0.5942 -0.0825
  834MOL0     C12520   3.137   2.377   4.263 -0.1472 -0.3305  1.2102
  834MOL0     C12521   2.406   2.290   4.464  0.1193  0.1158 -1.1576
  834MOL0     C12522   2.279   2.255   4.518 -0.3924  0.5935 -0.0875
  834MOL0     H12523   1.793   2.222   4.488 -2.0442  1.9868 -0.5475
  834MOL0     H12524   1.551   2.148   4.547 -0.3477  1.2404 -0.6906
  834MOL0     H12525   1.330   2.002   4.494  2.0823  0.3104  5.6657
  834MOL0     H12526   1.444   1.913   4.379  0.8713  0.7523 -0.1618
  834MOL0     H12527   1.234   1.779   4.390  0.0262 -0.8152  0.2405
  834MOL0     H12528   1.356   1.698   4.491 -0.6811 -0.6616 -0.1878
  834MOL0     H12529   1.261   1.844   4.677  0.4403  1.0515 -0.1552
  834MOL0     H12530   1.128   1.904   4.571  0.1788  0.7593  1.6764
  834MOL0     H12531   1.057   1.661   4.547  0.1315 -0.2353 -1.3420
  834MOL0     H12532   1.187   1.626   4.656 -0.7750  0.5130  1.1808
  834MOL0     H12533   1.022   1.645   4.802  0.2268 -0.1036  1.1955
  834MOL0     H12534   1.088   1.817   4.812 -0.7346 -0.4265  1.4463
  834MOL0     H12535   0.927   1.901   4.656  0.7034 -0.9344 -1.6347
  834MOL0     H12536   0.855   1.737   4.639 -2.0124 -0.1762  1.4165
  834MOL0     H12537   0.822   1.736   4.909 -0.7394  0.1325  0.5115
  834MOL0     H12538   0.853   1.906   4.882  0.4121 -0.3563  0.7147
  834MOL0     H12539   0.647   1.726   4.735 -2.0126 -0.3577  2.1122
  834MOL0     H12540   0.663   1.908   4.721  1.2380  2.8290  2.8009
  834MOL0     H12541   0.391   1.762   4.803 -0.2801  3.5378 -0.5694
  834MOL0     H12542   0.189   1.905   5.006 -0.4594 -1.1949  0.3679
  834MOL0     H12543   0.212   1.725   4.982 -0.5027 -0.1150  0.1536
  834MOL0     H12544   0.249   1.885   5.246  1.6393 -0.7729  0.0030
  834MOL0     H12545   0.299   1.718   5.222  1.6393  0.7892 -1.0776
  834MOL0     H12546   0.060   1.649   5.193  1.3137 -0.1242 -0.9616
  834MOL0     H12547   0.029   1.822   5.152 -0.3141  0.8530  2.2354
  834MOL0     H12548   0.029   1.898   5.368  1.5629  0.1659  2.2352
  834MOL0     H12549   0.104   1.750   5.431 -2.5554  1.7293  2.8465
  834MOL0     H12550  -0.349   1.712   5.421  0.7472  0.2630 -1.4447
  834MOL0     H12551  -0.544   1.720   5.511 -4.9892  0.7158  1.6885
  834MOL0     H12552  -0.526   1.658   5.687  3.1001  1.7278  3.1596
  834MOL0     H12553  -0.587   1.818   5.649  2.0274  0.9540  2.0050
  834MOL0     H12554  -0.145   2.054   6.114 -0.0089  3.7768  0.5642
  834MOL0     H12555  -0.176   2.127   6.348  1.7600 -2.2040 -1.2757
  834MOL0     H12556  -0.249   2.059   6.610  1.7798  2.1250  0.9083
  834MOL0     H12557  -0.261   2.219   6.537 -0.1121  0.7926  1.4567
  834MOL0     H12558  -0.488   2.113   6.722 -0.2663 -0.9068 -2.8414
  834MOL0     H12559  -0.346   2.203   6.786  2.1261  1.1825 -0.3467
  834MOL0     H12560  -0.561   2.318   6.607 -0.4152  2.0641  0.0160
  834MOL0     H12561  -0.394   2.380   6.609  1.7775 -0.8688  0.6155
  834MOL0     H12562  -0.548   2.354   6.862 -1.3183 -0.9698 -1.7158
  834MOL0     H12563  -0.387   2.437   6.828  0.1711  2.2074 -3.2280
  834MOL0     H12564  -0.522   2.580   6.661  2.7888 -1.9653 -0.1131
  834MOL0     H12565  -0.550   2.603   6.835 -1.4674  0.8336 -0.7623
  834MOL0     H12566  -0.724   2.408   6.696 -1.6687  0.1165  0.0346
  834MOL0     H12567  -0.745   2.494   6.858  0.9348  0.4897  0.7315
  834MOL0     H12568  -0.799   2.607   6.580 -0.3626  3.9005 -0.0001
  834MOL0     H12569  -0.754   2.708   6.707 -1.2334  0.2606  1.2875
  834MOL0     H12570  -0.990   2.504   6.734 -1.6438  0.8390  2.9141
  834MOL0     H12571  -0.993   2.681   6.676  0.5518  0.1234 -0.3292
  834MOL0     H12572  -0.568   1.943   6.351 -2.0097 -1.1935 -3.3136
  834MOL0     H12573  -0.543   1.869   6.114 -2.4705  0.5539  4.3475
  834MOL0     H12574  -0.119   1.906   5.809 -1.6142  0.3033  1.3302
  834MOL0     H12575   0.010   1.859   5.602  0.1078  0.3078 -0.3088
  834MOL0     H12576   1.683   1.740   4.523 -1.4339  0.6963 -0.6799
  834MOL0     H12577   1.921   1.830   4.436  0.7229  0.4852  1.5450
  834MOL0     H12578   2.194   2.029   4.286 -1.1160  0.0728 -0.5692
  834MOL0     H12579   2.391   2.083   4.196 -1.1757  1.2818 -1.3670
  834MOL0     H12580   2.600   2.103   4.196 -4.1670  1.3343  3.7220
  834MOL0     H12581   2.601   2.250   4.094 -2.2104  0.0487  0.3428
  834MOL0     H12582   2.815   2.318   4.178 -0.6835 -0.9638 -0.3665
  834MOL0     H12583   2.816   2.163   4.086 -3.8020 -0.3089 -1.7360
  834MOL0     H12584   2.821   2.034   4.294 -0.0010 -0.4201  4.2419
  834MOL0     H12585   2.809   2.180   4.386 -1.6488  0.4751 -0.5552
  834MOL0     H12586   3.038   2.083   4.189 -0.6033  1.4295 -0.8785
  834MOL0     H12587   3.062   2.076   4.363  1.5384 -1.0638 -1.4183
  834MOL0     H12588   3.181   2.474   4.258  1.5134 -0.9693  2.5874
  834MOL0     H12589   2.468   2.366   4.510  0.9112 -0.5119 -1.1673
  834MOL0     H12590   2.246   2.299   4.612  2.2408  2.7481 -0.0311
  835MOL0     O12591   3.680   3.712   0.080  0.2473 -0.4032 -1.1539
  835MOL0     C12592   3.745   3.615   0.052  0.6627 -0.4206 -0.9185
  835MOL0     O12593   3.704   3.517  -0.032  0.2275 -0.3970  0.6859
  835MOL0     C12594   3.573   3.509  -0.064 -0.0123  0.9486  0.4396
  835MOL0     C12595   3.499   3.391  -0.034 -0.2599  0.8989 -0.1220
  835MOL0     C12596   3.355   3.374  -0.054 -0.5973  0.1275 -0.7358
  835MOL0     C12597   3.295   3.478  -0.130  0.2890  0.1494 -0.1256
  835MOL0     O12598   3.162   3.460  -0.136 -0.0328  0.2217 -0.8221
  835MOL0     C12599   3.108   3.499  -0.262  1.0052 -0.3231  0.2100
  835MOL0     C12600   2.985   3.591  -0.248  0.8524 -0.1306  0.2554
  835MOL0     C12601   2.924   3.627  -0.378  0.6627 -0.2959  0.7245
  835MOL0     C12602   2.776   3.668  -0.348 -0.0463  0.3493  0.4046
  835MOL0     C12603   2.691   3.706  -0.474 -0.0364  0.0974  0.6471
  835MOL0     C12604   2.664   3.593  -0.569 -0.0391  0.3015  0.4415
  835MOL0     C12605   2.591   3.640  -0.692  0.0124  0.4245  0.9401
  835MOL0     C12606   2.524   3.528  -0.779  0.9638  0.0653 -0.6767
  835MOL0     N12607   2.459   3.581  -0.899  1.1816 -0.1075  0.0189
  835MOL0     C12608   2.496   3.584  -1.029  0.2908 -0.0573 -0.3850
  835MOL0     C12609   2.391   3.630  -1.097  0.6482  0.1179 -0.4831
  835MOL0     C12610   2.384   3.681  -1.238  0.2944 -0.4702  0.1868
  835MOL0     C12611   2.351   3.834  -1.248 -0.2987  0.2690  0.4413
  835MOL0     C12612   2.372   3.884  -1.390  0.8085  0.3020  0.6349
  835MOL0     C12613   2.265   3.835  -1.484  0.1287 -0.9532  0.0378
  835MOL0     O12614   2.130   3.849  -1.436 -0.1602 -0.0270  0.0430
  835MOL0     C12615   2.034   3.836  -1.535 -0.1006 -0.1059 -1.3818
  835MOL0     C12616   1.913   3.896  -1.500 -0.5115 -0.4004  0.2096
  835MOL0     C12617   1.803   3.887  -1.580  0.6524 -0.5895 -0.3321
  835MOL0     C12618   1.671   3.954  -1.534 -0.4041  0.0798  1.0370
  835MOL0     C12619   1.812   3.815  -1.700 -0.2430 -0.5651  0.2680
  835MOL0     C12620   1.697   3.773  -1.783  0.4921 -0.6744 -0.2953
  835MOL0     O12621   1.585   3.737  -1.721 -0.0483 -0.0873  0.3918
  835MOL0     C12622   1.463   3.739  -1.785  0.1918 -0.1482  0.1241
  835MOL0     C12623   1.368   3.656  -1.725  0.7216 -0.1329  0.1070
  835MOL0     C12624   1.240   3.651  -1.765 -0.5284  0.1670 -0.4623
  835MOL0     C12625   1.196   3.725  -1.878 -0.7818  0.2656 -0.2112
  835MOL0     O12626   1.069   3.722  -1.925  0.6696 -0.5712 -0.0107
  835MOL0     C12627   0.967   3.665  -1.849 -0.0896 -0.0129  0.2379
  835MOL0     C12628   0.828   3.676  -1.921 -0.4474 -0.5393  0.2591
  835MOL0     C12629   0.734   3.594  -1.854  0.6673  0.1611  0.9237
  835MOL0     C12630   0.655   3.658  -1.742  0.2390 -0.2188 -0.1610
  835MOL0     C12631   0.573   3.547  -1.674  0.1418 -0.1983 -1.0515
  835MOL0     C12632   0.497   3.617  -1.559  0.1785  0.2681 -0.0431
  835MOL0     C12633   0.582   3.640  -1.442  0.8099 -0.7214 -0.2027
  835MOL0     C12634   0.486   3.665  -1.322  0.1168  0.0944 -0.4053
  835MOL0    Cl12635   0.379   3.811  -1.333  0.1687  0.1032 -0.0871
  835MOL0     C12636   1.290   3.808  -1.945 -0.3489 -0.8614 -0.4659
  835MOL0     C12637   1.423   3.809  -1.898 -0.1093 -0.0050  0.0136
  835MOL0     O12638   1.709   3.775  -1.904  0.0904  0.1697  0.6437
  835MOL0     C12639   1.934   3.754  -1.731  1.0936  0.5937 -0.6439
  835MOL0     C12640   2.044   3.760  -1.648 -0.3846 -0.0452 -0.0083
  835MOL0     N12641   2.281   3.652  -1.010  0.7728 -0.0448 -0.3816
  835MOL0     N12642   2.330   3.621  -0.892  0.0483 -0.2141  0.0835
  835MOL0     C12643   3.366   3.584  -0.172  0.0365 -0.8355  0.5627
  835MOL0     C12644   3.503   3.606  -0.131 -0.5150 -0.8254 -0.1183
  835MOL0     C12645   3.888   3.601   0.116 -0.3273 -0.4187  0.3505
  835MOL0     C12646   3.984   3.512   0.073 -0.4388 -0.3185  0.4862
  835MOL0     C12647   4.116   3.538   0.103  0.0743 -0.7846 -0.3196
  835MOL0     C12648   4.155   3.650   0.176 -0.2902 -0.6489 -0.1006
  835MOL0     O12649   4.290   3.662   0.199  0.3549 -0.1520 -0.9284
  835MOL0     C12650   4.349   3.772   0.268  0.0104  0.5312 -0.7113
  835MOL0     C12651   4.386   3.864   0.153 -0.2601 -0.4189 -0.1447
  835MOL0     C12652   4.487   3.975   0.169 -0.0647  0.1023 -0.8885
  835MOL0     C12653   4.465   4.049   0.309  1.1194 -0.2294 -0.5847
  835MOL0     C12654   4.526   4.184   0.297 -0.1714 -0.4848 -0.2751
  835MOL0     C12655   4.588   4.292   0.272  0.0021  0.8989  0.4947
  835MOL0     C12656   4.056   3.743   0.226  0.0589  0.3064 -0.0554
  835MOL0     C12657   3.922   3.709   0.200 -0.6259  0.3776  0.7275
  835MOL0     H12658   3.541   3.308   0.021 -1.1712  0.6788  0.2606
  835MOL0     H12659   3.297   3.291  -0.014 -2.1604  1.8534  0.8078
  835MOL0     H12660   3.167   3.553  -0.336 -1.4695 -0.2310 -1.8237
  835MOL0     H12661   3.088   3.403  -0.311  0.2398  1.5287 -3.3805
  835MOL0     H12662   2.921   3.529  -0.184  0.9605 -0.6484 -0.1270
  835MOL0     H12663   3.011   3.681  -0.192 -2.2234 -0.1970  2.0409
  835MOL0     H12664   2.982   3.696  -0.441 -0.4476  0.0186 -0.0016
  835MOL0     H12665   2.926   3.542  -0.447 -2.0539  1.4761 -1.8000
  835MOL0     H12666   2.733   3.576  -0.307 -0.0999 -1.0910 -2.5975
  835MOL0     H12667   2.770   3.742  -0.268 -3.0748 -0.4809  1.1010
  835MOL0     H12668   2.599   3.752  -0.436 -0.1679  1.7574 -1.5056
  835MOL0     H12669   2.750   3.782  -0.526  0.4047 -0.5740  0.1552
  835MOL0     H12670   2.753   3.539  -0.603  1.2467  2.4419  0.2280
  835MOL0     H12671   2.600   3.515  -0.527 -2.4728  2.4482  0.9440
  835MOL0     H12672   2.514   3.714  -0.668  1.0892  3.0341 -2.8524
  835MOL0     H12673   2.667   3.693  -0.750 -1.2487 -0.3231 -1.5435
  835MOL0     H12674   2.455   3.480  -0.709  0.0210  1.1826 -0.8098
  835MOL0     H12675   2.608   3.461  -0.801  2.0850  0.8701  0.9287
  835MOL0     H12676   2.597   3.560  -1.059  0.4345  1.2832 -1.0329
  835MOL0     H12677   2.478   3.661  -1.290  0.3287  0.1473  0.0085
  835MOL0     H12678   2.316   3.622  -1.300 -0.4389  0.7882 -0.2523
  835MOL0     H12679   2.413   3.895  -1.180 -0.2353  1.9628 -1.0649
  835MOL0     H12680   2.247   3.839  -1.215 -0.7762 -0.8174 -0.8351
  835MOL0     H12681   2.462   3.841  -1.435 -1.8485 -2.4460 -2.6943
  835MOL0     H12682   2.370   3.993  -1.388 -1.2847  0.3829 -1.3600
  835MOL0     H12683   2.287   3.730  -1.508 -0.0759 -0.3578 -3.3131
  835MOL0     H12684   2.270   3.889  -1.579  0.1298  0.5411  0.8620
  835MOL0     H12685   1.905   3.952  -1.407 -0.7197 -2.2683  1.3735
  835MOL0     H12686   1.602   3.879  -1.494  0.8166 -2.0394 -0.5974
  835MOL0     H12687   1.700   4.033  -1.464  1.5419 -0.4919  0.9269
  835MOL0     H12688   1.625   4.004  -1.620  1.7847  2.2860  1.0156
  835MOL0     H12689   1.410   3.601  -1.641 -0.6915  2.7174  2.9054
  835MOL0     H12690   1.175   3.581  -1.714 -0.0008  1.2913  1.8825
  835MOL0     H12691   0.995   3.560  -1.832  2.5195  0.5893  0.0261
  835MOL0     H12692   0.962   3.716  -1.753  0.7148  0.0136  0.2717
  835MOL0     H12693   0.796   3.781  -1.924 -1.8696 -0.9690 -0.8633
  835MOL0     H12694   0.843   3.635  -2.021  1.5433 -1.7889  0.9994
  835MOL0     H12695   0.784   3.503  -1.820 -0.9670 -0.3749  1.9972
  835MOL0     H12696   0.662   3.553  -1.925 -0.1043 -1.8792  2.7715
  835MOL0     H12697   0.723   3.706  -1.671  0.8874 -2.3248  0.7404
  835MOL0     H12698   0.575   3.721  -1.780  0.7210  1.0030  0.7901
  835MOL0     H12699   0.641   3.468  -1.641  1.1680 -0.0160 -2.6022
  835MOL0     H12700   0.498   3.513  -1.746  0.9064  0.8397 -2.4085
  835MOL0     H12701   0.453   3.713  -1.589 -0.5382  0.8530  2.6074
  835MOL0     H12702   0.420   3.548  -1.523  2.5404 -1.2679  2.4056
  835MOL0     H12703   0.646   3.728  -1.453 -0.8447  0.6286  0.5260
  835MOL0     H12704   0.640   3.552  -1.415  1.2324  0.0296  1.4955
  835MOL0     H12705   0.545   3.689  -1.233  0.3523  1.6065 -0.9430
  835MOL0     H12706   0.413   3.585  -1.307 -1.0870  1.2957  0.3848
  835MOL0     H12707   1.251   3.863  -2.031 -1.2421 -0.6317  0.0708
  835MOL0     H12708   1.494   3.878  -1.943  2.5807 -3.2232 -1.0778
  835MOL0     H12709   1.936   3.692  -1.820  1.1924 -0.2438 -0.0754
  835MOL0     H12710   2.131   3.701  -1.673 -0.6527  0.8126 -3.4128
  835MOL0     H12711   3.310   3.661  -0.225 -1.8919 -1.5571  1.4314
  835MOL0     H12712   3.541   3.705  -0.153  0.7946 -1.3294 -0.2445
  835MOL0     H12713   3.962   3.440  -0.005  0.3222  0.6956 -0.7215
  835MOL0     H12714   4.184   3.461   0.067  3.1361  1.8731 -0.5782
  835MOL0     H12715   4.292   3.820   0.348 -0.7425 -2.2309  0.5453
  835MOL0     H12716   4.437   3.739   0.325 -0.3025 -0.5693 -0.8466
  835MOL0     H12717   4.292   3.903   0.112 -0.6347 -2.2294 -1.1369
  835MOL0     H12718   4.445   3.806   0.081  2.4009 -1.5240  2.7141
  835MOL0     H12719   4.484   4.055   0.094 -0.5754  0.5659 -0.3887
  835MOL0     H12720   4.585   3.928   0.164 -0.8537 -1.6755 -0.2721
  835MOL0     H12721   4.516   3.989   0.385 -0.1812 -3.1816 -1.9057
  835MOL0     H12722   4.359   4.053   0.337  0.0792  0.0096 -4.1089
  835MOL0     H12723   4.639   4.384   0.250 -3.6652  2.8828 -0.6242
  835MOL0     H12724   4.086   3.819   0.297 -0.7422 -0.3902  1.0451
  835MOL0     H12725   3.848   3.784   0.226 -1.1718  0.6152 -1.3137
  836MOL0     O12726  10.017   9.042   1.046 -0.1437 -0.4788 -0.2539
  836MOL0     C12727  10.002   9.168   1.053  0.7941 -0.1933 -0.1055
  836MOL0     O12728   9.921   9.231   1.137  0.1769  0.8021 -0.3473
  836MOL0     C12729   9.845   9.165   1.231  0.0297  0.5177 -0.7861
  836MOL0     C12730   9.857   9.212   1.360  0.5938 -0.5981 -0.3034
  836MOL0     C12731   9.782   9.152   1.458  0.3607 -0.3780 -0.1770
  836MOL0     C12732   9.702   9.039   1.431  0.7145  0.2401  0.1791
  836MOL0     O12733   9.629   8.972   1.528  0.6655 -0.0229 -0.1986
  836MOL0     C12734   9.612   9.023   1.658 -0.6232  0.1010 -0.3479
  836MOL0     C12735   9.516   8.940   1.753  0.2869  0.4676 -0.0995
  836MOL0     C12736   9.387   8.903   1.674 -0.6793 -0.2409  0.2783
  836MOL0     C12737   9.286   8.818   1.756 -0.1787  0.2326  0.2279
  836MOL0     C12738   9.223   8.907   1.864  0.9959  0.7127 -0.0469
  836MOL0     C12739   9.104   8.819   1.927 -0.0337  0.2306  0.3579
  836MOL0     C12740   9.021   8.901   2.035 -0.9603 -0.1123  0.8613
  836MOL0     C12741   8.940   9.018   1.981  0.0017 -0.7273  0.4001
  836MOL0     N12742   8.883   9.067   2.104 -1.1680 -0.1115  0.0864
  836MOL0     C12743   8.916   9.185   2.171 -0.4578 -0.2246  0.1983
  836MOL0     C12744   8.856   9.170   2.291 -0.6794  0.3101  0.3372
  836MOL0     C12745   8.876   9.262   2.415  0.3462 -0.0305  0.0146
  836MOL0     C12746   8.893   9.177   2.542  0.3297 -0.1891  0.3788
  836MOL0     C12747   9.021   9.091   2.538  0.1112  0.6477  0.6682
  836MOL0     C12748   9.154   9.173   2.519  0.4243  0.8996 -0.0938
  836MOL0     O12749   9.170   9.145   2.371 -0.6448 -0.4117 -0.0905
  836MOL0     C12750   9.260   9.224   2.307 -0.2108  0.0036 -0.0316
  836MOL0     C12751   9.337   9.326   2.356  0.3313  0.0345 -0.4053
  836MOL0     C12752   9.433   9.387   2.279 -0.0396 -0.3372 -0.3051
  836MOL0     C12753   9.515   9.496   2.344  1.6358  0.0596  0.4837
  836MOL0     C12754   9.469   9.339   2.147  0.3757 -0.2154 -0.3337
  836MOL0     C12755   9.583   9.379   2.053  0.4138 -0.1476 -0.5294
  836MOL0     O12756   9.609   9.513   2.055  0.3630  0.6000  0.3663
  836MOL0     C12757   9.718   9.551   1.980  0.5709 -0.3972 -0.1805
  836MOL0     C12758   9.696   9.597   1.852  0.8387 -0.5921 -0.1710
  836MOL0     C12759   9.808   9.630   1.783  1.1479  0.1540  0.7579
  836MOL0     C12760   9.939   9.627   1.833 -0.2070  0.3147 -0.5166
  836MOL0     O12761  10.038   9.661   1.749  0.5215  0.2211  0.1218
  836MOL0     C12762  10.163   9.716   1.814 -0.7601  0.0834  0.7564
  836MOL0     C12763  10.274   9.729   1.708 -0.2022  0.1920 -0.3637
  836MOL0     C12764  10.408   9.758   1.769  0.1582  0.0527 -0.4070
  836MOL0     C12765  10.517   9.730   1.660  0.0205 -0.4208 -0.0926
  836MOL0     C12766  10.653   9.783   1.709 -0.1598  0.2890  0.1187
  836MOL0     C12767  10.771   9.749   1.627  0.2184  0.5686  0.1703
  836MOL0     C12768  10.770   9.815   1.490  0.1713 -0.5540  0.5076
  836MOL0     C12769  10.826   9.736   1.362 -1.4280 -0.1185  0.3193
  836MOL0    Cl12770  10.738   9.588   1.328 -0.0131 -0.0200  0.3853
  836MOL0     C12771   9.953   9.574   1.962  0.5203  0.1369 -0.2642
  836MOL0     C12772   9.842   9.543   2.037 -0.5308 -0.2680 -0.1540
  836MOL0     O12773   9.643   9.296   1.992 -0.1771  0.2253  0.2761
  836MOL0     C12774   9.395   9.229   2.108  0.1406 -0.1050  0.0665
  836MOL0     C12775   9.283   9.187   2.180 -0.6124  0.2697  0.0292
  836MOL0     N12776   8.796   9.045   2.298 -0.7602 -0.6198 -0.2299
  836MOL0     N12777   8.802   8.995   2.188 -0.8838  0.7117  0.6889
  836MOL0     C12778   9.687   8.998   1.297 -0.5466  0.0032 -0.1514
  836MOL0     C12779   9.765   9.049   1.201 -0.7788 -0.6279 -0.0988
  836MOL0     C12780  10.076   9.251   0.948 -0.7275 -0.1626  0.5492
  836MOL0     C12781  10.059   9.389   0.948  0.4448 -0.3790  1.0541
  836MOL0     C12782  10.125   9.461   0.849  0.2215 -0.8130  0.1262
  836MOL0     C12783  10.215   9.404   0.759 -0.1838 -0.7144 -0.1503
  836MOL0     O12784  10.297   9.489   0.674 -0.2925 -0.2895 -0.2148
  836MOL0     C12785  10.374   9.430   0.572 -1.0715  0.2269  0.3235
  836MOL0     C12786  10.520   9.405   0.610  0.6679  0.4586 -0.2148
  836MOL0     C12787  10.602   9.531   0.609  0.1976 -0.3402 -0.4919
  836MOL0     C12788  10.747   9.505   0.630 -0.3839  0.3349  0.4800
  836MOL0     C12789  10.781   9.467   0.771  0.3717  0.0578  0.3167
  836MOL0     C12790  10.823   9.450   0.886 -0.2889 -0.2900  0.2530
  836MOL0     C12791  10.227   9.262   0.760  0.0991  0.6142 -0.5057
  836MOL0     C12792  10.162   9.188   0.849  0.0310  0.0830  0.1557
  836MOL0     H12793   9.918   9.299   1.382 -0.6590  0.2146  0.0914
  836MOL0     H12794   9.780   9.193   1.558 -2.6852 -0.4017 -0.1475
  836MOL0     H12795   9.708   9.043   1.707 -0.0229  0.3566 -1.5810
  836MOL0     H12796   9.555   9.117   1.656 -0.7604  0.1506  2.3502
  836MOL0     H12797   9.557   8.844   1.784 -0.6681 -0.5671 -1.8238
  836MOL0     H12798   9.490   8.987   1.848  0.6369  0.4506  0.0043
  836MOL0     H12799   9.347   8.999   1.642 -2.6964 -1.1284 -0.0461
  836MOL0     H12800   9.409   8.843   1.585  0.3943 -1.2998  1.2278
  836MOL0     H12801   9.208   8.783   1.689 -1.1701  2.4120  0.1455
  836MOL0     H12802   9.333   8.726   1.792  2.9648  2.2094  1.6788
  836MOL0     H12803   9.295   8.934   1.943 -0.3554  1.3521  0.9944
  836MOL0     H12804   9.185   9.002   1.827  1.8718  0.7358 -0.9453
  836MOL0     H12805   9.046   8.797   1.837 -2.1621 -0.5623  1.8415
  836MOL0     H12806   9.137   8.726   1.975  1.7728  1.4225  1.5822
  836MOL0     H12807   8.950   8.836   2.088 -0.8180 -0.1175  1.0471
  836MOL0     H12808   9.093   8.950   2.101  0.8820  1.0731 -1.8893
  836MOL0     H12809   8.872   8.974   1.907 -1.4459  0.1870  1.1585
  836MOL0     H12810   9.000   9.094   1.930 -1.5148 -0.8940 -1.7828
  836MOL0     H12811   8.962   9.272   2.125 -0.2239 -0.5772 -0.2425
  836MOL0     H12812   8.967   9.321   2.404  0.9368 -1.1323 -1.3643
  836MOL0     H12813   8.787   9.326   2.423  0.8102  0.5864  0.3268
  836MOL0     H12814   8.809   9.107   2.547 -0.0204 -0.0673 -2.4144
  836MOL0     H12815   8.908   9.232   2.636  1.6924 -2.0390  1.3072
  836MOL0     H12816   8.996   9.020   2.459 -6.2952  3.3462 -0.4294
  836MOL0     H12817   9.032   9.037   2.633 -1.9334  0.2772  0.7364
  836MOL0     H12818   9.236   9.130   2.577 -0.3815  0.1113  0.5063
  836MOL0     H12819   9.147   9.279   2.544 -0.0398  0.5682  1.2989
  836MOL0     H12820   9.310   9.362   2.455 -0.0998  0.8418 -0.8010
  836MOL0     H12821   9.525   9.589   2.286 -1.8898 -0.9565 -2.1000
  836MOL0     H12822   9.479   9.532   2.440 -0.7586  0.2375 -0.4206
  836MOL0     H12823   9.614   9.454   2.364  0.9752 -1.9578 -0.2409
  836MOL0     H12824   9.598   9.609   1.808  1.2653 -1.0675 -1.2904
  836MOL0     H12825   9.805   9.658   1.678  2.5196 -3.5389 -0.4576
  836MOL0     H12826  10.144   9.819   1.847 -0.2205 -0.0329  1.4610
  836MOL0     H12827  10.204   9.658   1.898  1.1703  0.4197  0.0951
  836MOL0     H12828  10.282   9.632   1.658 -2.1515 -1.1015  1.6703
  836MOL0     H12829  10.251   9.811   1.640  1.1755  1.5234  0.6979
  836MOL0     H12830  10.429   9.686   1.848  1.4706  2.1307  1.2373
  836MOL0     H12831  10.402   9.856   1.817 -0.9099  0.8496 -2.0949
  836MOL0     H12832  10.530   9.623   1.644  0.9323 -0.1874 -0.9980
  836MOL0     H12833  10.495   9.773   1.562  1.5060 -0.8308 -0.6153
  836MOL0     H12834  10.665   9.740   1.809 -1.8523  0.4462  0.4125
  836MOL0     H12835  10.646   9.891   1.724 -0.5972  0.7535 -2.9612
  836MOL0     H12836  10.864   9.766   1.683  2.0587  2.1604 -3.0739
  836MOL0     H12837  10.768   9.641   1.608 -3.5239  0.6140 -0.2888
  836MOL0     H12838  10.832   9.906   1.497 -1.5267  0.6946  0.0296
  836MOL0     H12839  10.670   9.856   1.469  1.4185  2.3804 -0.2991
  836MOL0     H12840  10.929   9.704   1.382 -1.6897 -1.3173 -0.1498
  836MOL0     H12841  10.836   9.800   1.274 -1.3891  0.8428  1.0085
  836MOL0     H12842  10.053   9.565   2.002 -0.3149 -0.0561  1.9058
  836MOL0     H12843   9.863   9.510   2.139 -0.7040 -0.0196 -0.0362
  836MOL0     H12844   9.408   9.186   2.009  0.6232 -1.7035  0.7953
  836MOL0     H12845   9.219   9.112   2.134 -0.7215  1.7948 -2.4700
  836MOL0     H12846   9.620   8.915   1.275  1.0239 -2.1060  2.4209
  836MOL0     H12847   9.762   9.015   1.099  0.3329  3.6717 -1.8145
  836MOL0     H12848   9.979   9.435   1.005  1.8016  1.4982  1.5758
  836MOL0     H12849  10.102   9.567   0.838 -1.1430 -0.9171  1.5560
  836MOL0     H12850  10.332   9.338   0.530  0.0322  0.2797 -0.9705
  836MOL0     H12851  10.370   9.492   0.482  3.5782  1.6377  0.8372
  836MOL0     H12852  10.561   9.347   0.527 -1.5982 -2.4126  0.5106
  836MOL0     H12853  10.525   9.345   0.701  0.7249 -2.2817 -1.9086
  836MOL0     H12854  10.575   9.607   0.683 -0.7690 -0.4765 -0.6904
  836MOL0     H12855  10.590   9.572   0.508  1.6244  0.5018 -0.3469
  836MOL0     H12856  10.810   9.591   0.604 -1.2657  0.5813 -0.9592
  836MOL0     H12857  10.776   9.427   0.559 -2.1289 -2.2704  2.4532
  836MOL0     H12858  10.854   9.436   0.988 -1.3772 -2.0742  0.3698
  836MOL0     H12859  10.287   9.209   0.687 -1.8672  0.9240 -2.4571
  836MOL0     H12860  10.162   9.080   0.856  0.0384  0.0212 -0.7198
  837MOL0     O12861   5.157   0.839   4.724 -0.3979  0.2933  0.0903
  837MOL0     C12862   5.252   0.764   4.718 -0.2058  0.0729  1.0903
  837MOL0     O12863   5.266   0.658   4.634 -0.4461  0.0500  0.4239
  837MOL0     C12864   5.163   0.615   4.561 -0.1786  0.5558  0.3732
  837MOL0     C12865   5.036   0.583   4.610 -0.4877 -0.5225  0.1020
  837MOL0     C12866   4.934   0.525   4.533  0.6152 -0.5467 -0.2988
  837MOL0     C12867   4.961   0.494   4.400  0.3821  0.5346 -0.8077
  837MOL0     O12868   4.864   0.434   4.328  0.1058  0.4348  0.8120
  837MOL0     C12869   4.895   0.326   4.241 -0.5773 -0.2849  0.1517
  837MOL0     C12870   4.780   0.246   4.197  0.2041  0.1462 -0.3837
  837MOL0     C12871   4.730   0.156   4.314 -0.7863  0.7194  0.2780
  837MOL0     C12872   4.620   0.065   4.261  0.5519  0.3458  0.5518
  837MOL0     C12873   4.546  -0.039   4.348 -0.3279  0.4013 -1.2592
  837MOL0     C12874   4.504  -0.162   4.264  0.5948 -0.6653  0.5720
  837MOL0     C12875   4.437  -0.284   4.338 -0.8753 -0.6605 -0.0043
  837MOL0     C12876   4.377  -0.382   4.232  0.7371  0.5031 -0.9108
  837MOL0     N12877   4.256  -0.325   4.165 -0.0856 -0.6745  0.6482
  837MOL0     C12878   4.133  -0.279   4.218 -0.1524  0.0085 -1.4506
  837MOL0     C12879   4.070  -0.224   4.113 -0.8702  0.3870 -0.6076
  837MOL0     C12880   3.938  -0.157   4.112 -0.7926 -0.8799  0.2253
  837MOL0     C12881   3.820  -0.258   4.134 -1.2337 -0.1160 -0.2614
  837MOL0     C12882   3.826  -0.365   4.025  0.0141 -0.1427 -0.0958
  837MOL0     C12883   3.684  -0.420   3.996  0.5368 -0.3482 -0.3108
  837MOL0     O12884   3.623  -0.478   4.119  0.6987 -0.2820  0.1194
  837MOL0     C12885   3.492  -0.522   4.118 -0.1760 -0.6672  0.4976
  837MOL0     C12886   3.454  -0.583   4.230  0.4241  0.3501  0.3834
  837MOL0     C12887   3.326  -0.632   4.250  0.3502  0.7139 -0.3323
  837MOL0     C12888   3.300  -0.697   4.386  0.4406  0.1870 -0.7203
  837MOL0     C12889   3.230  -0.617   4.146  0.5362 -0.1440 -0.4084
  837MOL0     C12890   3.080  -0.648   4.164  0.2693 -0.8230  0.3057
  837MOL0     O12891   2.990  -0.649   4.049 -0.2135  0.1237  0.1120
  837MOL0     C12892   2.866  -0.701   4.059  0.7500 -0.2745 -0.4264
  837MOL0     C12893   2.767  -0.630   3.989  0.0940  0.1014  0.8147
  837MOL0     C12894   2.632  -0.672   3.983 -0.9225 -0.4305 -0.4915
  837MOL0     C12895   2.594  -0.782   4.064 -0.0331  1.2606 -0.8363
  837MOL0     O12896   2.469  -0.821   4.089 -0.1994  0.3887  0.5674
  837MOL0     C12897   2.358  -0.779   4.009 -0.0844 -0.7919  0.1082
  837MOL0     C12898   2.242  -0.863   4.063 -0.9728  0.3619 -0.4180
  837MOL0     C12899   2.139  -0.880   3.940 -0.4066  0.0200  0.0333
  837MOL0     C12900   2.010  -0.935   3.991 -0.0201  0.0677 -0.4871
  837MOL0     C12901   1.923  -0.987   3.878 -0.1882  0.1659  0.8929
  837MOL0     C12902   1.785  -1.036   3.922  0.1380  0.9925  0.3607
  837MOL0     C12903   1.709  -1.112   3.814 -0.2121  0.1727  0.0167
  837MOL0     C12904   1.597  -1.027   3.753 -0.8013  0.4576 -0.3113
  837MOL0    Cl12905   1.470  -0.985   3.883  0.0717 -0.3682 -0.3192
  837MOL0     C12906   2.692  -0.861   4.129  0.0979  0.1856 -0.6630
  837MOL0     C12907   2.824  -0.825   4.124  0.6028 -0.3726  0.1255
  837MOL0     O12908   3.051  -0.683   4.274  0.3505  0.6683  0.4770
  837MOL0     C12909   3.273  -0.554   4.032  0.2382  0.6815  1.0463
  837MOL0     C12910   3.403  -0.512   4.014 -0.2982 -0.1902 -0.3708
  837MOL0     N12911   4.142  -0.264   4.003  0.4819  0.7375 -0.0371
  837MOL0     N12912   4.254  -0.307   4.033 -0.4477 -0.1055 -0.3765
  837MOL0     C12913   5.088   0.523   4.344 -0.2690 -0.2767  0.0410
  837MOL0     C12914   5.188   0.579   4.423 -0.2002 -0.2563 -0.2521
  837MOL0     C12915   5.374   0.809   4.793 -0.6590  0.0177 -0.0962
  837MOL0     C12916   5.494   0.765   4.742  0.1859  0.8135  0.8655
  837MOL0     C12917   5.613   0.788   4.821 -0.0146 -0.1132  0.2466
  837MOL0     C12918   5.614   0.861   4.941 -0.3500  0.4237 -0.6207
  837MOL0     O12919   5.729   0.855   5.011  0.3186 -0.0263  0.4057
  837MOL0     C12920   5.732   0.926   5.137 -0.8864  0.7091 -0.5601
  837MOL0     C12921   5.659   0.848   5.245 -0.9491  0.2008 -0.2100
  837MOL0     C12922   5.690   0.698   5.250  0.3261 -0.1418 -1.0547
  837MOL0     C12923   5.651   0.658   5.396  0.0502  0.5474  0.4136
  837MOL0     C12924   5.515   0.685   5.443  0.0084  0.1701  0.3132
  837MOL0     C12925   5.402   0.722   5.475  0.6536 -0.0928  0.1665
  837MOL0     C12926   5.484   0.907   4.988 -0.2349 -0.9518  0.0633
  837MOL0     C12927   5.368   0.882   4.912 -0.4851  0.3279 -0.4484
  837MOL0     H12928   5.017   0.612   4.713 -0.5842  0.6782 -0.2413
  837MOL0     H12929   4.832   0.513   4.566  1.0309  2.9451  2.8798
  837MOL0     H12930   4.930   0.373   4.149 -0.1247 -0.8935  0.0096
  837MOL0     H12931   4.970   0.259   4.284  0.8329 -0.5227 -2.5156
  837MOL0     H12932   4.694   0.308   4.170  0.0067 -1.0724 -2.7726
  837MOL0     H12933   4.806   0.201   4.101  2.7479 -0.7707  0.6303
  837MOL0     H12934   4.807   0.089   4.354 -2.0201 -0.9124  0.0517
  837MOL0     H12935   4.688   0.209   4.400  0.3247  0.2732  1.1234
  837MOL0     H12936   4.534   0.121   4.223  0.8102 -0.0368 -0.6355
  837MOL0     H12937   4.658   0.014   4.172  0.0764 -0.7943  0.9903
  837MOL0     H12938   4.615  -0.065   4.429 -0.5217  2.8229 -0.2391
  837MOL0     H12939   4.453   0.004   4.385 -0.9513 -2.8648  1.5180
  837MOL0     H12940   4.429  -0.120   4.196  0.7946  1.4351  1.5594
  837MOL0     H12941   4.586  -0.196   4.201 -0.4005 -1.8705 -0.1256
  837MOL0     H12942   4.510  -0.335   4.401  1.9453  3.4939  0.4509
  837MOL0     H12943   4.357  -0.264   4.410  1.7935 -0.9224  3.2355
  837MOL0     H12944   4.343  -0.471   4.285  0.9633  1.0220  0.1538
  837MOL0     H12945   4.451  -0.411   4.158  2.4808  0.3645  0.7898
  837MOL0     H12946   4.096  -0.274   4.320 -0.3074 -1.9001 -1.3848
  837MOL0     H12947   3.939  -0.078   4.187 -0.4390 -1.3327  0.7032
  837MOL0     H12948   3.929  -0.110   4.014  0.8084 -2.0004 -0.5073
  837MOL0     H12949   3.723  -0.208   4.146 -1.8993 -1.5522  0.6241
  837MOL0     H12950   3.843  -0.311   4.227 -0.3226  0.1240 -0.3369
  837MOL0     H12951   3.881  -0.448   4.070 -3.4377 -2.8429 -0.4711
  837MOL0     H12952   3.872  -0.322   3.935  1.1470  1.4299  1.1870
  837MOL0     H12953   3.691  -0.499   3.921  0.5173 -1.0289  0.3967
  837MOL0     H12954   3.621  -0.337   3.962  2.0928  0.3318 -1.6748
  837MOL0     H12955   3.537  -0.582   4.299  1.1066 -1.5699 -0.3506
  837MOL0     H12956   3.399  -0.732   4.418  1.6172  1.5995 -2.6316
  837MOL0     H12957   3.260  -0.631   4.463  1.3945 -0.4477  0.3588
  837MOL0     H12958   3.239  -0.787   4.379 -2.3983  1.6382  2.4312
  837MOL0     H12959   2.799  -0.547   3.926  0.2959 -0.2978  0.3852
  837MOL0     H12960   2.565  -0.612   3.922 -0.9927 -0.1494 -0.1400
  837MOL0     H12961   2.355  -0.671   4.024  3.9383 -0.3147 -1.1372
  837MOL0     H12962   2.374  -0.792   3.901  1.0236 -0.7585  0.2525
  837MOL0     H12963   2.278  -0.966   4.079 -0.2646  0.8475  1.3088
  837MOL0     H12964   2.206  -0.807   4.149  0.9172  1.2465 -0.1351
  837MOL0     H12965   2.178  -0.944   3.861 -1.7330 -2.4416  1.2584
  837MOL0     H12966   2.110  -0.781   3.902 -3.1135 -0.1716  1.3464
  837MOL0     H12967   2.032  -1.026   4.048 -1.4180 -0.6227 -0.9866
  837MOL0     H12968   1.965  -0.853   4.047 -0.1226  1.0424 -1.9619
  837MOL0     H12969   1.976  -1.076   3.844 -2.3306 -1.7462  2.3373
  837MOL0     H12970   1.909  -0.922   3.791 -0.2938 -1.3375 -0.2465
  837MOL0     H12971   1.813  -1.107   4.001 -1.4799 -0.3955 -0.2517
  837MOL0     H12972   1.728  -0.956   3.970 -0.6260 -0.0632  1.2628
  837MOL0     H12973   1.660  -1.197   3.861  2.4740 -1.9232 -0.7493
  837MOL0     H12974   1.784  -1.148   3.743  0.3661  1.2617  0.0440
  837MOL0     H12975   1.549  -1.084   3.674 -2.1184  1.3702 -0.2029
  837MOL0     H12976   1.643  -0.938   3.710  0.2033  1.2281  2.1630
  837MOL0     H12977   2.671  -0.948   4.192 -0.6486  0.6448 -0.2585
  837MOL0     H12978   2.907  -0.888   4.155  1.4910  0.2363 -0.9277
  837MOL0     H12979   3.198  -0.538   3.955  1.6058  1.3932 -0.1871
  837MOL0     H12980   3.429  -0.465   3.920 -1.8856 -1.3866 -1.4564
  837MOL0     H12981   5.100   0.496   4.239 -1.3454 -0.2360 -0.1079
  837MOL0     H12982   5.279   0.610   4.372  0.0452  0.1658  0.4163
  837MOL0     H12983   5.501   0.695   4.659 -2.7191  2.3952 -0.8669
  837MOL0     H12984   5.703   0.745   4.778 -0.0998  0.0555 -0.1097
  837MOL0     H12985   5.834   0.950   5.169 -1.0510  0.8902 -0.1716
  837MOL0     H12986   5.686   1.025   5.135  0.5809  1.5012  1.6740
  837MOL0     H12987   5.551   0.857   5.229 -0.9442  1.1719  0.2576
  837MOL0     H12988   5.679   0.896   5.341  0.1405  0.9783 -0.8057
  837MOL0     H12989   5.798   0.692   5.232  0.0979 -2.2636 -2.0867
  837MOL0     H12990   5.641   0.637   5.173  1.4794 -1.3209 -0.8973
  837MOL0     H12991   5.723   0.703   5.465 -0.1207  0.4478  0.6587
  837MOL0     H12992   5.668   0.550   5.406  0.9981  0.3131 -2.5689
  837MOL0     H12993   5.308   0.769   5.501  1.0175  0.1159  1.1675
  837MOL0     H12994   5.472   0.977   5.070 -2.5815 -1.7268  0.4498
  837MOL0     H12995   5.272   0.921   4.943 -1.5715 -3.0269  0.8390
  838MOL0     O12996  10.189  10.206  10.037 -0.3138 -0.1662  0.2299
  838MOL0     C12997  10.258  10.260  10.122  0.3771  0.0114 -0.0267
  838MOL0     O12998  10.209  10.324  10.236 -1.0008 -0.0520  0.2828
  838MOL0     C12999  10.081  10.299  10.277  0.1076 -0.8707  0.7404
  838MOL0     C13000  10.010  10.187  10.244 -0.9716  0.1324 -0.2748
  838MOL0     C13001   9.881  10.175  10.287 -0.4534  0.0269  1.1583
  838MOL0     C13002   9.811  10.279  10.351 -0.3301 -0.1266  0.1456
  838MOL0     O13003   9.682  10.283  10.375  0.2631  0.3539  0.1445
  838MOL0     C13004   9.614  10.159  10.381  0.0445  0.0379  0.2809
  838MOL0     C13005   9.459  10.174  10.399  0.2740 -0.8661 -0.5448
  838MOL0     C13006   9.420  10.192  10.557  0.4788  0.3352  0.3027
  838MOL0     C13007   9.272  10.170  10.584  0.2302 -0.5340 -0.2117
  838MOL0     C13008   9.237  10.166  10.736  0.4347  0.1056 -0.4685
  838MOL0     C13009   9.104  10.090  10.757 -0.6924  0.0212 -0.5835
  838MOL0     C13010   9.073  10.095  10.902  0.2487  0.3420  1.1479
  838MOL0     C13011   8.993  10.218  10.940 -0.3973  0.3828  0.5431
  838MOL0     N13012   8.958  10.212  11.083  0.7343  0.6698 -0.0546
  838MOL0     C13013   8.826  10.181  11.118 -0.3042  0.0807 -0.1922
  838MOL0     C13014   8.819  10.209  11.253 -1.0182  0.6142  0.1616
  838MOL0     C13015   8.699  10.205  11.342  0.5756  0.0196  0.3095
  838MOL0     C13016   8.666  10.056  11.375 -0.7235 -0.3385  0.0036
  838MOL0     C13017   8.538  10.034  11.459 -0.7110  0.3843 -0.0504
  838MOL0     C13018   8.508   9.880  11.473  0.2980 -0.7813  0.1678
  838MOL0     O13019   8.406   9.829  11.561 -0.0870  0.3172 -0.4574
  838MOL0     C13020   8.285   9.864  11.525  0.5819 -0.0446 -0.2047
  838MOL0     C13021   8.208   9.787  11.438  0.1958  0.0655 -0.3730
  838MOL0     C13022   8.074   9.818  11.395  0.6995 -1.0656  0.2092
  838MOL0     C13023   8.004   9.723  11.311  0.9381  0.1226 -0.5629
  838MOL0     C13024   8.017   9.943  11.439 -0.5999 -0.4652 -0.5465
  838MOL0     C13025   7.882   9.991  11.406  0.4209  0.7084  0.6792
  838MOL0     O13026   7.831  10.077  11.505 -0.2336 -0.3928  0.2980
  838MOL0     C13027   7.714  10.137  11.474  0.8304 -0.9645  0.7948
  838MOL0     C13028   7.602  10.066  11.523  0.5713 -0.2250 -0.2944
  838MOL0     C13029   7.476  10.106  11.483 -0.6709  0.4518  0.5916
  838MOL0     C13030   7.463  10.221  11.404  0.4040  0.3351 -0.3317
  838MOL0     O13031   7.346  10.280  11.356  0.0864 -0.5810  0.2255
  838MOL0     C13032   7.248  10.316  11.461 -0.9153  0.2934  0.8582
  838MOL0     C13033   7.117  10.363  11.400  0.4251  0.0367 -0.2980
  838MOL0     C13034   7.126  10.420  11.258  0.2072  0.3146 -0.7060
  838MOL0     C13035   6.987  10.478  11.221  0.2877  0.1560  0.2455
  838MOL0     C13036   6.960  10.464  11.074 -0.0509  0.1892  0.1485
  838MOL0     C13037   6.838  10.555  11.043 -0.4284 -0.6289 -0.3182
  838MOL0     C13038   6.815  10.545  10.892  0.8048 -0.3556  0.0898
  838MOL0     C13039   6.706  10.644  10.855 -0.7311  0.2818 -0.2273
  838MOL0    Cl13040   6.705  10.688  10.686  0.6752  0.4292  0.2143
  838MOL0     C13041   7.572  10.291  11.354 -0.1620  0.2187  0.8704
  838MOL0     C13042   7.699  10.250  11.385  0.1989  0.8242  0.4956
  838MOL0     O13043   7.824   9.964  11.301 -0.2968  0.3207 -0.3701
  838MOL0     C13044   8.096  10.013  11.531 -0.1541 -0.0511 -0.2629
  838MOL0     C13045   8.223   9.977  11.572  0.0601 -0.2631  0.4037
  838MOL0     N13046   8.950  10.238  11.294  0.2349  0.4177  0.2895
  838MOL0     N13047   9.031  10.248  11.190  0.3430  0.3149 -0.5666
  838MOL0     C13048   9.876  10.397  10.379 -0.3904  1.1311 -0.2829
  838MOL0     C13049  10.010  10.401  10.342 -0.1693 -0.5822  0.0422
  838MOL0     C13050  10.405  10.238  10.104  0.1396 -0.3283 -0.5221
  838MOL0     C13051  10.462  10.190   9.984 -1.3042  0.2573  0.2186
  838MOL0     C13052  10.598  10.152   9.984 -0.1078  0.6780  0.0352
  838MOL0     C13053  10.682  10.188  10.098  0.0957  0.0631  0.8647
  838MOL0     O13054  10.810  10.159  10.120  0.4708  0.4384 -0.7622
  838MOL0     C13055  10.899  10.142  10.011  0.0814  0.7823  0.2346
  838MOL0     C13056  11.029  10.227  10.027  0.8402 -0.0770 -0.2986
  838MOL0     C13057  11.122  10.166  10.136  0.1712  0.7186 -0.2054
  838MOL0     C13058  11.240  10.247  10.158  0.2247 -0.3851 -0.2196
  838MOL0     C13059  11.311  10.196  10.280  0.1936 -0.4876  0.3371
  838MOL0     C13060  11.373  10.154  10.379 -0.3696  0.5622 -0.6516
  838MOL0     C13061  10.623  10.258  10.207 -0.6936  0.6819 -0.5033
  838MOL0     C13062  10.491  10.279  10.205 -0.3061  0.5156  0.1133
  838MOL0     H13063  10.057  10.098  10.204  1.6201  1.0560  0.5153
  838MOL0     H13064   9.833  10.080  10.263  0.8348 -0.8705  1.9662
  838MOL0     H13065   9.628  10.111  10.284 -1.2163 -1.4071  0.7661
  838MOL0     H13066   9.651  10.087  10.455 -2.9677  0.1529  2.0435
  838MOL0     H13067   9.420  10.256  10.337 -1.3976 -1.9426 -1.0089
  838MOL0     H13068   9.414  10.082  10.359 -0.8331 -0.1916 -0.8974
  838MOL0     H13069   9.480  10.113  10.605 -0.7526 -0.4161  0.6446
  838MOL0     H13070   9.454  10.290  10.593 -0.3113  1.3524 -1.6010
  838MOL0     H13071   9.214  10.256  10.549  1.5780  0.2833 -0.5171
  838MOL0     H13072   9.240  10.072  10.547 -3.0152 -0.2675  1.4831
  838MOL0     H13073   9.316  10.115  10.792 -0.1872 -0.7554 -0.3581
  838MOL0     H13074   9.244  10.269  10.771  3.8965  0.8752 -2.9611
  838MOL0     H13075   9.024  10.134  10.696  0.2221  0.8516 -1.2216
  838MOL0     H13076   9.119   9.986  10.727 -0.1660 -0.8032  2.2152
  838MOL0     H13077   9.015  10.010  10.940  0.7420  1.5770  5.0842
  838MOL0     H13078   9.160  10.094  10.968 -0.6975 -0.7912  2.4528
  838MOL0     H13079   8.909  10.227  10.871  1.4906  2.6313 -1.6817
  838MOL0     H13080   9.050  10.308  10.915  2.5893 -1.5553 -0.1044
  838MOL0     H13081   8.742  10.165  11.052 -1.2893 -0.7380  1.2001
  838MOL0     H13082   8.708  10.263  11.434 -0.7792  0.8504 -0.0569
  838MOL0     H13083   8.613  10.235  11.282  1.3018 -3.9406 -3.2360
  838MOL0     H13084   8.757  10.012  11.418 -1.0435  1.2933  2.6012
  838MOL0     H13085   8.649  10.004  11.280 -1.0039  1.0320 -0.7133
  838MOL0     H13086   8.460  10.079  11.396 -1.1175 -2.7525 -1.9828
  838MOL0     H13087   8.554  10.088  11.553  1.7978 -1.5157  0.7137
  838MOL0     H13088   8.594   9.818  11.499  0.4251 -1.5076 -1.8405
  838MOL0     H13089   8.481   9.846  11.373 -0.1992 -1.4871  0.5381
  838MOL0     H13090   8.253   9.691  11.415  1.6798  0.2542  1.5696
  838MOL0     H13091   7.941   9.776  11.240 -0.8813  0.8419  1.4812
  838MOL0     H13092   8.069   9.655  11.254  0.8017 -0.5305  0.0468
  838MOL0     H13093   7.947   9.663  11.382 -0.6097 -0.1042 -1.9339
  838MOL0     H13094   7.612   9.977  11.585 -1.3647 -1.3696 -1.5310
  838MOL0     H13095   7.399  10.051  11.537  1.0492 -0.1623  2.5513
  838MOL0     H13096   7.227  10.229  11.523  1.0801 -1.6557 -1.0042
  838MOL0     H13097   7.289  10.396  11.523  0.4318  2.2739 -2.2864
  838MOL0     H13098   7.047  10.279  11.393  1.3826 -0.6734 -1.8616
  838MOL0     H13099   7.076  10.442  11.464  1.7885  0.4976  0.0474
  838MOL0     H13100   7.164  10.334  11.203  2.4660 -0.8608  2.4267
  838MOL0     H13101   7.190  10.508  11.248 -2.5633  2.5200 -0.5457
  838MOL0     H13102   6.911  10.411  11.262 -0.3420 -0.0134 -1.1323
  838MOL0     H13103   6.979  10.580  11.259  0.2305  1.1305 -2.1684
  838MOL0     H13104   6.926  10.370  11.031 -2.6232  2.2298 -2.7331
  838MOL0     H13105   7.058  10.484  11.029  0.1667 -0.9271  0.1163
  838MOL0     H13106   6.757  10.524  11.110  0.9931 -3.4052  0.2644
  838MOL0     H13107   6.875  10.656  11.065 -2.1179 -0.0522  0.0435
  838MOL0     H13108   6.784  10.443  10.867 -0.4137 -0.7227  2.7562
  838MOL0     H13109   6.904  10.567  10.832  0.2093 -2.2323 -1.5902
  838MOL0     H13110   6.728  10.741  10.901 -0.8574  0.7997 -1.2287
  838MOL0     H13111   6.617  10.604  10.904  1.2820  0.2853  3.9175
  838MOL0     H13112   7.553  10.378  11.293 -1.3935 -1.1584 -0.8151
  838MOL0     H13113   7.794  10.297  11.359  0.0067  1.2552  0.5634
  838MOL0     H13114   8.059  10.104  11.578  0.8507 -0.9892  2.5519
  838MOL0     H13115   8.280  10.047  11.632 -3.5767  2.0273  1.4897
  838MOL0     H13116   9.817  10.479  10.420  0.0592  0.3428  2.1039
  838MOL0     H13117  10.065  10.495  10.351 -1.6132  0.3887 -0.8893
  838MOL0     H13118  10.395  10.156   9.906 -0.5927  1.3917 -0.9225
  838MOL0     H13119  10.644  10.109   9.896 -0.4568 -1.2850  0.7551
  838MOL0     H13120  10.928  10.037  10.003  1.2050  1.0137  0.9485
  838MOL0     H13121  10.851  10.158   9.914  0.5339 -2.4888 -0.6668
  838MOL0     H13122  11.013  10.333  10.049  2.2148 -0.4312  2.8427
  838MOL0     H13123  11.088  10.211   9.936  2.4563  1.5287  0.4017
  838MOL0     H13124  11.154  10.068  10.100 -1.2470  0.5345 -1.0278
  838MOL0     H13125  11.073  10.144  10.232  0.8147 -1.0114 -0.2327
  838MOL0     H13126  11.209  10.351  10.174 -0.8879 -0.9260  1.4577
  838MOL0     H13127  11.305  10.243  10.071  1.5344 -0.8639  0.7442
  838MOL0     H13128  11.419  10.108  10.464 -3.2333 -1.4523 -0.0422
  838MOL0     H13129  10.686  10.284  10.292  0.6918  1.2267 -1.6458
  838MOL0     H13130  10.447  10.317  10.297  0.0138  0.7569  0.1660
  839MOL0     O13131   7.940   5.611   0.397  0.2943  0.1588 -0.4311
  839MOL0     C13132   8.001   5.717   0.420 -0.6749  0.1498  0.3823
  839MOL0     O13133   7.958   5.826   0.493  0.1119 -0.4259 -1.0291
  839MOL0     C13134   7.841   5.823   0.564 -0.4231  0.0365  0.4212
  839MOL0     C13135   7.842   5.895   0.677  0.4046 -0.3786  0.4016
  839MOL0     C13136   7.725   5.935   0.734 -0.4427 -0.4711  0.1207
  839MOL0     C13137   7.599   5.879   0.703  0.6735  0.1696  0.8356
  839MOL0     O13138   7.492   5.920   0.781 -0.0484  0.1992 -0.0486
  839MOL0     C13139   7.380   5.825   0.777  0.1311 -0.1941  0.0417
  839MOL0     C13140   7.266   5.876   0.861  0.0457  0.2359  0.0409
  839MOL0     C13141   7.207   5.994   0.778  0.3586  0.3889  0.1546
  839MOL0     C13142   7.083   6.056   0.850  1.4876  0.3558  0.0869
  839MOL0     C13143   7.003   6.158   0.775  0.8347  0.5945 -0.0014
  839MOL0     C13144   6.924   6.263   0.861  0.9143 -0.9948  0.8188
  839MOL0     C13145   6.828   6.208   0.968 -0.4228  0.4084 -0.1335
  839MOL0     C13146   6.701   6.159   0.905  0.0427  0.6677  0.0191
  839MOL0     N13147   6.592   6.144   1.007 -0.5913  0.4153  0.1946
  839MOL0     C13148   6.564   6.028   1.072  0.5157  0.0893  0.1059
  839MOL0     C13149   6.462   6.062   1.156 -0.3189 -0.0877  0.3490
  839MOL0     C13150   6.405   5.967   1.252 -0.1303 -0.6853 -0.6943
  839MOL0     C13151   6.250   5.958   1.220  0.1695  0.2429 -0.3903
  839MOL0     C13152   6.189   5.862   1.314  1.1491  1.3424  0.3433
  839MOL0     C13153   6.184   5.905   1.458  0.2578  0.0839  0.2115
  839MOL0     O13154   6.121   6.034   1.468  0.2876 -0.0977 -0.6857
  839MOL0     C13155   5.984   6.037   1.501 -0.2000  0.4055 -0.3632
  839MOL0     C13156   5.893   6.054   1.394  0.0024  0.3068 -0.8827
  839MOL0     C13157   5.749   6.068   1.424 -0.0106 -0.8600  0.0984
  839MOL0     C13158   5.661   6.086   1.295  0.0973 -0.0792 -1.0450
  839MOL0     C13159   5.700   6.073   1.559 -0.0102 -0.2079  0.4212
  839MOL0     C13160   5.558   6.071   1.593  0.2898  0.4124  0.8407
  839MOL0     O13161   5.536   6.048   1.722 -0.2622  0.0559  0.1406
  839MOL0     C13162   5.405   6.039   1.754 -0.2138  0.6249 -0.0011
  839MOL0     C13163   5.323   6.152   1.739  0.1073 -0.3355 -0.0061
  839MOL0     C13164   5.190   6.146   1.775 -0.4028  0.2837  0.7290
  839MOL0     C13165   5.136   6.023   1.823  0.0010  0.9277  0.4330
  839MOL0     O13166   5.005   6.006   1.868 -0.3295 -0.5460 -0.2523
  839MOL0     C13167   4.960   6.112   1.956 -0.5435 -0.9371 -0.9441
  839MOL0     C13168   4.834   6.162   1.891 -0.5927 -0.0754  0.0729
  839MOL0     C13169   4.777   6.268   1.996 -0.4677  0.5570 -0.2789
  839MOL0     C13170   4.655   6.338   1.949 -1.1603  0.7475 -0.3273
  839MOL0     C13171   4.533   6.239   1.933  0.3522 -0.2170  0.1283
  839MOL0     C13172   4.420   6.318   1.864 -0.2465 -0.0591 -0.5503
  839MOL0     C13173   4.285   6.250   1.866  0.3406 -0.6956  0.0747
  839MOL0     C13174   4.174   6.346   1.823  0.1500  0.0308  0.2436
  839MOL0    Cl13175   4.016   6.272   1.822 -0.1157  0.3047  0.1580
  839MOL0     C13176   5.218   5.910   1.833 -0.3179  0.6633 -0.5373
  839MOL0     C13177   5.347   5.919   1.796 -0.7626  0.4013  0.2182
  839MOL0     O13178   5.475   6.055   1.505  0.6501  0.8114  0.0922
  839MOL0     C13179   5.800   6.065   1.661 -0.1626 -1.0552 -0.3441
  839MOL0     C13180   5.934   6.039   1.633 -0.2762 -0.0007 -0.2879
  839MOL0     N13181   6.440   6.200   1.147  0.5131  0.2600 -0.2187
  839MOL0     N13182   6.518   6.242   1.054 -0.7480 -0.1715  0.4249
  839MOL0     C13183   7.587   5.794   0.592  0.0803  0.1865 -0.7610
  839MOL0     C13184   7.713   5.771   0.518  0.0071  0.1093 -0.1280
  839MOL0     C13185   8.149   5.709   0.393 -0.1288 -0.3663  0.5901
  839MOL0     C13186   8.207   5.606   0.319  0.2232 -0.4133 -0.6458
  839MOL0     C13187   8.343   5.602   0.301  0.2234 -0.7598  0.6058
  839MOL0     C13188   8.432   5.695   0.360 -0.2858 -0.0550 -0.1940
  839MOL0     O13189   8.573   5.689   0.355  0.6222  0.1301  0.3469
  839MOL0     C13190   8.644   5.572   0.301  0.1264  0.0287 -0.0212
  839MOL0     C13191   8.793   5.591   0.270  0.0649 -0.2286 -0.4235
  839MOL0     C13192   8.879   5.615   0.396  0.5280  0.9243  0.3548
  839MOL0     C13193   9.029   5.608   0.359  0.4760 -0.1211 -0.8365
  839MOL0     C13194   9.099   5.582   0.484 -0.0614 -0.2994  0.1070
  839MOL0     C13195   9.174   5.545   0.569 -0.6729  0.2178 -0.5063
  839MOL0     C13196   8.369   5.806   0.429  0.4353 -0.2781  0.5093
  839MOL0     C13197   8.228   5.811   0.444 -0.0174 -0.1937  0.4172
  839MOL0     H13198   7.938   5.933   0.711  0.2768 -1.3870  2.0343
  839MOL0     H13199   7.750   6.014   0.804  1.8173  0.9832 -2.1104
  839MOL0     H13200   7.345   5.819   0.673 -1.2926  0.0729  0.4813
  839MOL0     H13201   7.421   5.730   0.811 -0.8842 -0.0853  1.6562
  839MOL0     H13202   7.191   5.800   0.886  0.5136 -0.3929 -0.4363
  839MOL0     H13203   7.308   5.916   0.953  2.6826  0.0710 -1.0028
  839MOL0     H13204   7.289   6.066   0.765  2.4908 -1.8108  0.7692
  839MOL0     H13205   7.177   5.959   0.678 -3.1851  0.0028  1.2056
  839MOL0     H13206   7.011   5.978   0.879  0.0700  0.3954 -2.9096
  839MOL0     H13207   7.124   6.113   0.934  2.0223  2.0956 -1.2910
  839MOL0     H13208   7.065   6.215   0.705 -1.5754  0.5654 -2.3210
  839MOL0     H13209   6.934   6.106   0.709  2.0220 -0.3756 -0.4919
  839MOL0     H13210   6.994   6.310   0.930  0.9876  0.2684 -0.0950
  839MOL0     H13211   6.882   6.348   0.807  0.3958  0.0706  2.8027
  839MOL0     H13212   6.868   6.118   1.017  0.3121  0.5182 -0.5174
  839MOL0     H13213   6.813   6.290   1.037 -0.4584  2.0068 -1.9588
  839MOL0     H13214   6.716   6.061   0.860  2.7462  0.4860  1.0967
  839MOL0     H13215   6.670   6.234   0.831  2.4084  2.9851  1.1644
  839MOL0     H13216   6.603   5.930   1.048  1.2175  0.1945  0.7903
  839MOL0     H13217   6.442   5.864   1.250 -1.3707 -1.1371 -1.5712
  839MOL0     H13218   6.430   6.006   1.351  1.0931 -1.8169 -0.5216
  839MOL0     H13219   6.232   5.936   1.115 -1.7226  3.6864 -0.9364
  839MOL0     H13220   6.202   6.056   1.223 -0.7525 -0.2207  1.4139
  839MOL0     H13221   6.246   5.769   1.307  1.2000  1.4894 -1.9300
  839MOL0     H13222   6.087   5.842   1.279  1.6846 -0.0846 -0.5057
  839MOL0     H13223   6.284   5.922   1.501  1.7027  0.7033 -3.0791
  839MOL0     H13224   6.129   5.832   1.517 -1.7909  1.1688 -0.2832
  839MOL0     H13225   5.931   6.051   1.293  0.5199 -0.9719 -0.6623
  839MOL0     H13226   5.594   6.000   1.290  1.1960 -1.0063 -0.3483
  839MOL0     H13227   5.600   6.175   1.311  0.7200 -0.0348  1.5440
  839MOL0     H13228   5.722   6.099   1.205  0.3612  0.6117 -0.7759
  839MOL0     H13229   5.372   6.239   1.695 -1.3758  0.0527 -0.9881
  839MOL0     H13230   5.139   6.242   1.773 -2.2505 -0.6493  0.8278
  839MOL0     H13231   4.947   6.088   2.062 -0.7887  1.6915 -0.3034
  839MOL0     H13232   5.032   6.195   1.956 -0.1033 -1.2999  0.0700
  839MOL0     H13233   4.859   6.213   1.798 -1.1814  1.0586  0.5085
  839MOL0     H13234   4.772   6.072   1.881  1.6085 -2.8576  6.2159
  839MOL0     H13235   4.860   6.335   2.021 -1.6615  1.6134  0.9988
  839MOL0     H13236   4.743   6.222   2.090 -1.2258  0.4373 -0.6020
  839MOL0     H13237   4.626   6.411   2.025  0.8539  1.4281 -0.1573
  839MOL0     H13238   4.692   6.385   1.857  0.5137 -1.3923 -0.8222
  839MOL0     H13239   4.502   6.220   2.037  1.7910 -0.4696  0.5360
  839MOL0     H13240   4.549   6.145   1.879  1.4565  0.0398 -0.0135
  839MOL0     H13241   4.411   6.414   1.916 -0.3468 -0.0916 -0.5079
  839MOL0     H13242   4.455   6.336   1.762 -1.2540 -0.0185 -0.8972
  839MOL0     H13243   4.256   6.203   1.960  0.5991 -4.6862 -1.6281
  839MOL0     H13244   4.294   6.167   1.796 -1.2072 -1.2731  0.5211
  839MOL0     H13245   4.189   6.371   1.718  1.3212  0.9160  0.6015
  839MOL0     H13246   4.179   6.442   1.875 -0.3956  0.3032 -0.1947
  839MOL0     H13247   5.178   5.814   1.864  0.6096  0.6540  0.7102
  839MOL0     H13248   5.404   5.827   1.800 -1.3750  0.0342  0.8904
  839MOL0     H13249   5.760   6.070   1.762 -0.7884 -0.4786 -0.6146
  839MOL0     H13250   5.995   6.027   1.723  1.0089  0.3668 -1.0816
  839MOL0     H13251   7.500   5.744   0.552  0.6302  0.0028 -1.7724
  839MOL0     H13252   7.687   5.726   0.423 -1.2436 -2.4792  1.3527
  839MOL0     H13253   8.143   5.534   0.269 -1.1831 -0.6452  1.3910
  839MOL0     H13254   8.374   5.523   0.232 -3.6043  0.1142 -2.4653
  839MOL0     H13255   8.631   5.488   0.369 -0.3798  0.4900  0.4697
  839MOL0     H13256   8.595   5.543   0.208  0.5327  0.1917 -0.2866
  839MOL0     H13257   8.795   5.677   0.203  0.4669 -0.0706 -0.2116
  839MOL0     H13258   8.835   5.511   0.208  1.6267  0.9398 -0.9493
  839MOL0     H13259   8.855   5.540   0.472  1.3499 -0.5468 -0.7746
  839MOL0     H13260   8.860   5.711   0.446 -0.7280  0.7025  0.3329
  839MOL0     H13261   9.057   5.694   0.297 -2.4833  0.6778 -1.2235
  839MOL0     H13262   9.039   5.519   0.297 -0.5183 -1.2354  0.5399
  839MOL0     H13263   9.242   5.513   0.646  1.3787  1.9352 -1.5157
  839MOL0     H13264   8.422   5.889   0.473 -0.3638  0.3310  0.3485
  839MOL0     H13265   8.191   5.895   0.502  1.1090  0.0542  0.7854
  840MOL0     O13266   2.085   6.815   3.461 -0.5060  0.1282 -0.1574
  840MOL0     C13267   2.151   6.789   3.358  0.1301  0.1216 -0.7279
  840MOL0     O13268   2.101   6.794   3.227  0.9388  0.5817 -0.6979
  840MOL0     C13269   1.963   6.811   3.223 -0.4258 -0.4509  0.5131
  840MOL0     C13270   1.897   6.926   3.287  0.1903  0.4281  0.6294
  840MOL0     C13271   1.754   6.951   3.272  0.6870  0.0309 -0.1634
  840MOL0     C13272   1.677   6.852   3.204 -0.0016  0.2490  0.7976
  840MOL0     O13273   1.544   6.861   3.182  0.7437  0.5305 -0.3416
  840MOL0     C13274   1.482   6.974   3.122  0.0156 -0.2455 -0.8428
  840MOL0     C13275   1.332   6.965   3.140  0.5904  0.0078  0.6558
  840MOL0     C13276   1.266   7.097   3.088 -0.1753  0.6395  0.5350
  840MOL0     C13277   1.125   7.111   3.132  1.0337  0.0543  0.6553
  840MOL0     C13278   1.066   7.234   3.077  0.0009 -0.6688  0.4862
  840MOL0     C13279   0.926   7.247   3.111 -0.3278  0.5081 -0.0695
  840MOL0     C13280   0.858   7.374   3.053  0.0219 -0.4391 -0.1799
  840MOL0     C13281   0.726   7.390   3.116  0.5539 -1.0393 -0.6501
  840MOL0     N13282   0.648   7.511   3.061  0.3277  0.3567 -0.4800
  840MOL0     C13283   0.705   7.630   3.027 -0.2032 -0.1938  0.7891
  840MOL0     C13284   0.597   7.715   3.002  0.5086  0.5737 -0.7720
  840MOL0     C13285   0.611   7.865   2.972 -0.7641 -0.8387  0.4454
  840MOL0     C13286   0.514   7.945   3.051 -0.1431  0.0687  0.0277
  840MOL0     C13287   0.537   8.103   3.030  0.2678  0.1251 -0.2643
  840MOL0     C13288   0.677   8.166   3.056  0.8864 -0.0869 -0.0432
  840MOL0     O13289   0.702   8.123   3.193  0.0507 -0.1718  0.3475
  840MOL0     C13290   0.791   8.194   3.265  0.1375 -0.4282 -0.2897
  840MOL0     C13291   0.888   8.291   3.219  0.4599 -0.2058  0.3447
  840MOL0     C13292   0.972   8.360   3.308 -0.1964 -0.0337  0.1339
  840MOL0     C13293   1.074   8.459   3.248 -0.2990 -0.1042  0.4314
  840MOL0     C13294   0.971   8.328   3.445  0.5172  0.0529 -0.0660
  840MOL0     C13295   1.069   8.378   3.552 -0.1560  0.2913 -0.7358
  840MOL0     O13296   1.028   8.365   3.684 -0.1517 -0.7158  0.0549
  840MOL0     C13297   1.119   8.354   3.787 -0.2055 -0.4979 -1.0550
  840MOL0     C13298   1.061   8.366   3.915 -0.2089  0.1561 -0.8612
  840MOL0     C13299   1.135   8.349   4.039  0.4833 -0.4851  0.0833
  840MOL0     C13300   1.273   8.314   4.023  0.2888 -0.3440 -1.0956
  840MOL0     O13301   1.357   8.287   4.129 -0.0844  0.1134  0.2584
  840MOL0     C13302   1.336   8.363   4.251 -0.6347  0.5732 -1.2191
  840MOL0     C13303   1.378   8.513   4.243  0.3349 -0.0117  0.8400
  840MOL0     C13304   1.348   8.581   4.373 -0.7549 -0.0705  0.2028
  840MOL0     C13305   1.453   8.692   4.403  0.1489  0.4621 -0.6505
  840MOL0     C13306   1.412   8.755   4.531 -0.2269  0.2674  0.1504
  840MOL0     C13307   1.529   8.826   4.591  0.8594 -0.2358  0.1894
  840MOL0     C13308   1.480   8.906   4.720 -0.4013 -0.3871 -0.7292
  840MOL0     C13309   1.526   9.048   4.713 -0.5650 -1.0501 -0.3728
  840MOL0    Cl13310   1.426   9.127   4.583  0.0055 -0.0687 -0.2969
  840MOL0     C13311   1.323   8.302   3.892 -0.1131 -0.0326 -0.9009
  840MOL0     C13312   1.254   8.322   3.778  0.7530  1.2791  0.9439
  840MOL0     O13313   1.177   8.418   3.507 -0.6522 -0.3067 -0.2582
  840MOL0     C13314   0.874   8.240   3.488  0.2000 -0.0967 -0.4069
  840MOL0     C13315   0.790   8.173   3.398  0.0341 -0.2106 -0.0274
  840MOL0     N13316   0.482   7.631   3.010 -0.2513 -0.5799 -0.8503
  840MOL0     N13317   0.521   7.513   3.049  0.1592 -0.1919 -0.6565
  840MOL0     C13318   1.746   6.739   3.150 -0.5259  0.7712 -0.2346
  840MOL0     C13319   1.881   6.721   3.156  0.3824 -0.4717  0.3159
  840MOL0     C13320   2.287   6.740   3.378  0.0441  0.7873 -0.3356
  840MOL0     C13321   2.364   6.712   3.264 -0.9762  0.8343 -0.7635
  840MOL0     C13322   2.497   6.662   3.286 -0.8065 -0.6085 -0.4656
  840MOL0     C13323   2.539   6.640   3.418  0.1021  0.9660 -0.2619
  840MOL0     O13324   2.669   6.590   3.447 -0.1738  0.3240  0.4546
  840MOL0     C13325   2.769   6.582   3.345 -0.5230  0.1642 -0.4241
  840MOL0     C13326   2.901   6.554   3.408 -0.1054  0.3967 -0.3719
  840MOL0     C13327   2.912   6.424   3.486  0.4622  0.0334  0.5722
  840MOL0     C13328   3.050   6.400   3.542  0.5254 -0.2716  0.1287
  840MOL0     C13329   3.058   6.281   3.633 -0.0065  0.4774  0.0816
  840MOL0     C13330   3.063   6.174   3.691  0.7735 -0.0354  0.2373
  840MOL0     C13331   2.459   6.674   3.528 -0.0155 -0.0689 -0.0262
  840MOL0     C13332   2.329   6.713   3.506 -0.0949 -0.0429 -0.5086
  840MOL0     H13333   1.951   6.996   3.349 -0.5493 -0.8629  2.8485
  840MOL0     H13334   1.706   7.039   3.313 -2.0799 -0.5502 -1.9093
  840MOL0     H13335   1.514   7.067   3.170  0.6986 -1.4639  1.1992
  840MOL0     H13336   1.503   6.983   3.015 -0.8081  2.1079 -0.8440
  840MOL0     H13337   1.293   6.890   3.071  0.4574  0.8092 -0.1601
  840MOL0     H13338   1.292   6.956   3.242 -1.3929 -2.1666 -0.2272
  840MOL0     H13339   1.317   7.185   3.128 -2.3617  0.6333  3.7926
  840MOL0     H13340   1.284   7.100   2.981  1.7333  1.4262  0.8444
  840MOL0     H13341   1.076   7.023   3.089  1.8892 -0.4111  0.6176
  840MOL0     H13342   1.124   7.117   3.241 -0.4702  1.7802  0.6037
  840MOL0     H13343   1.114   7.324   3.117  0.3360  0.4699 -2.2449
  840MOL0     H13344   1.078   7.226   2.968  0.6225  0.7514  0.4337
  840MOL0     H13345   0.869   7.159   3.082 -1.5108  1.0576  0.5069
  840MOL0     H13346   0.921   7.248   3.220 -1.1787 -1.8794 -0.0444
  840MOL0     H13347   0.915   7.465   3.071 -1.8700  0.2702  3.0553
  840MOL0     H13348   0.848   7.349   2.947 -0.5645  0.7061 -0.4078
  840MOL0     H13349   0.729   7.420   3.221  0.6628 -0.5266 -0.7939
  840MOL0     H13350   0.670   7.297   3.107 -1.2674 -0.2375  1.4860
  840MOL0     H13351   0.810   7.654   3.038  0.2218 -0.5845 -1.7650
  840MOL0     H13352   0.715   7.895   2.981 -0.6723 -0.3080 -1.7897
  840MOL0     H13353   0.585   7.875   2.866 -0.8169  2.9333  0.6748
  840MOL0     H13354   0.523   7.923   3.158  3.3766  0.3245 -0.1164
  840MOL0     H13355   0.416   7.914   3.014 -0.3205  0.7133 -0.0546
  840MOL0     H13356   0.462   8.157   3.089 -0.7181  0.5524 -1.8274
  840MOL0     H13357   0.491   8.135   2.936  0.0244 -0.6208 -0.4028
  840MOL0     H13358   0.666   8.274   3.040  0.6597 -0.1004  0.0101
  840MOL0     H13359   0.743   8.127   2.978  1.4338  1.4146 -0.3730
  840MOL0     H13360   0.895   8.312   3.113 -0.2299 -2.3691 -0.1849
  840MOL0     H13361   1.074   8.556   3.298 -0.2550  1.3396 -2.1436
  840MOL0     H13362   1.177   8.424   3.236 -0.4632 -0.5652  0.3477
  840MOL0     H13363   1.035   8.485   3.149 -0.6643 -1.4767  0.2017
  840MOL0     H13364   0.958   8.399   3.920 -0.7580 -1.5736  0.1343
  840MOL0     H13365   1.087   8.357   4.136  1.1975 -0.5975  0.4537
  840MOL0     H13366   1.233   8.354   4.288 -0.3761 -0.7131 -0.7774
  840MOL0     H13367   1.401   8.322   4.328 -1.4016 -3.0940 -2.3191
  840MOL0     H13368   1.484   8.510   4.216 -0.1620  0.6732 -1.4288
  840MOL0     H13369   1.322   8.560   4.161  2.9683 -2.2481 -2.5473
  840MOL0     H13370   1.341   8.506   4.452  0.9477 -0.0509  0.4001
  840MOL0     H13371   1.256   8.640   4.371 -0.2775  0.6745 -0.6544
  840MOL0     H13372   1.550   8.642   4.414 -0.4813 -0.3347  2.0242
  840MOL0     H13373   1.464   8.763   4.320  1.0521  1.7623  0.5276
  840MOL0     H13374   1.386   8.679   4.605  0.8688 -1.8415 -1.5180
  840MOL0     H13375   1.327   8.821   4.515  0.4702  1.1255 -0.0604
  840MOL0     H13376   1.594   8.745   4.624 -0.0093 -0.0654  2.5317
  840MOL0     H13377   1.578   8.889   4.516  2.7714 -0.2837  1.3400
  840MOL0     H13378   1.527   8.876   4.814 -0.4293  3.1520  0.5642
  840MOL0     H13379   1.372   8.904   4.738 -0.7059 -3.5443 -2.1246
  840MOL0     H13380   1.629   9.062   4.679 -0.7039 -0.5417 -0.6065
  840MOL0     H13381   1.521   9.100   4.809  2.7673  3.0799 -2.0858
  840MOL0     H13382   1.427   8.270   3.886  0.0432 -0.1695  1.4677
  840MOL0     H13383   1.314   8.317   3.688  0.4676 -1.2183  0.8361
  840MOL0     H13384   0.863   8.229   3.595  0.9684  1.6260 -0.1251
  840MOL0     H13385   0.714   8.104   3.431  0.4373  0.1385  1.7285
  840MOL0     H13386   1.681   6.668   3.101 -1.0043  0.1696  1.1993
  840MOL0     H13387   1.910   6.626   3.112  1.6000 -0.0006  0.0495
  840MOL0     H13388   2.332   6.723   3.161 -1.4430 -0.1429 -0.7362
  840MOL0     H13389   2.557   6.642   3.198 -2.7267 -0.2328 -1.9206
  840MOL0     H13390   2.747   6.494   3.284  1.2703  0.8328 -2.1178
  840MOL0     H13391   2.771   6.674   3.286  5.2103 -0.7457 -2.1856
  840MOL0     H13392   2.909   6.632   3.485 -0.4876  0.1441 -0.0742
  840MOL0     H13393   2.973   6.567   3.326 -2.2620 -2.1517 -2.8649
  840MOL0     H13394   2.895   6.343   3.415  2.3237 -0.7886  0.9783
  840MOL0     H13395   2.836   6.419   3.564  1.2374  2.6461  1.6196
  840MOL0     H13396   3.083   6.484   3.603 -1.7297 -1.3826  3.1073
  840MOL0     H13397   3.127   6.382   3.466  1.9795 -0.2527  1.5469
  840MOL0     H13398   3.055   6.073   3.728  0.1842  0.2485  0.8942
  840MOL0     H13399   2.494   6.663   3.630 -3.1720  2.0176  1.4484
  840MOL0     H13400   2.272   6.732   3.596 -1.1204 -1.9963 -0.6848
  841MOL0     O13401   0.898  10.479   9.086 -0.5972 -0.5928  0.5868
  841MOL0     C13402   0.965  10.425   8.999 -0.0148  0.6975  0.2171
  841MOL0     O13403   0.944  10.297   8.947 -0.0065 -0.5748 -0.4800
  841MOL0     C13404   0.821  10.227   8.952 -1.1485 -0.5972 -0.5746
  841MOL0     C13405   0.826  10.109   8.878 -0.0646  0.2523  0.1457
  841MOL0     C13406   0.719  10.015   8.876  0.3769  0.2274 -0.5827
  841MOL0     C13407   0.602  10.048   8.950  0.0076  0.1628  0.3130
  841MOL0     O13408   0.497   9.955   8.937 -0.1606 -0.0062  0.6197
  841MOL0     C13409   0.364   9.991   8.979 -0.2926  0.4720 -0.4359
  841MOL0     C13410   0.300   9.856   8.961 -0.3773 -0.2736  0.0396
  841MOL0     C13411   0.158   9.840   9.011  0.0791  0.7035  0.1359
  841MOL0     C13412   0.064   9.930   8.923 -0.1587 -0.5165  0.1341
  841MOL0     C13413  -0.076   9.887   8.966 -0.6693  0.1864  0.5769
  841MOL0     C13414  -0.178   9.946   8.876  0.4296  0.0947 -0.6073
  841MOL0     C13415  -0.305   9.867   8.889 -0.8377  0.4095  0.0353
  841MOL0     C13416  -0.433   9.942   8.833 -0.1210  1.3199 -0.5767
  841MOL0     N13417  -0.553   9.857   8.824  0.1294 -0.8039 -0.4603
  841MOL0     C13418  -0.547   9.721   8.822 -0.2551 -0.2712 -0.0883
  841MOL0     C13419  -0.677   9.687   8.798  0.0508  0.9772 -0.1064
  841MOL0     C13420  -0.716   9.543   8.810 -0.4471 -0.4152  0.1715
  841MOL0     C13421  -0.776   9.510   8.947 -0.8626 -0.7429  0.6597
  841MOL0     C13422  -0.902   9.580   8.974 -0.6318 -0.2330 -0.2041
  841MOL0     C13423  -0.977   9.503   9.086  0.0428 -0.4194  0.1279
  841MOL0     O13424  -1.083   9.570   9.153 -0.3713 -0.4518  0.2866
  841MOL0     C13425  -1.214   9.562   9.111 -0.1509 -0.4863 -0.6562
  841MOL0     C13426  -1.260   9.508   8.992  0.7027 -0.0709  0.2435
  841MOL0     C13427  -1.402   9.492   8.975 -0.4736 -0.7177 -0.3512
  841MOL0     C13428  -1.444   9.406   8.854  0.4541 -0.1682 -0.7979
  841MOL0     C13429  -1.501   9.526   9.073 -1.6278  1.1799  0.2880
  841MOL0     C13430  -1.642   9.502   9.070  0.1001  0.7553 -0.1834
  841MOL0     O13431  -1.699   9.426   8.971 -0.0420 -0.5177  0.4476
  841MOL0     C13432  -1.819   9.370   9.000 -0.2837  0.7531  0.9836
  841MOL0     C13433  -1.934   9.442   9.006 -0.0324  0.4320  0.1860
  841MOL0     C13434  -2.064   9.379   9.017 -0.0810  0.0205 -0.2900
  841MOL0     C13435  -2.073   9.243   9.010  0.9777  0.3489 -0.5892
  841MOL0     O13436  -2.196   9.171   9.023  0.1309  0.2682 -0.5664
  841MOL0     C13437  -2.289   9.217   9.116  0.9090  0.2063 -1.1338
  841MOL0     C13438  -2.414   9.123   9.108 -0.0178  0.3474 -1.0314
  841MOL0     C13439  -2.503   9.156   9.232 -0.4585 -0.0377 -0.1734
  841MOL0     C13440  -2.655   9.132   9.219  0.4919  0.7713  0.0416
  841MOL0     C13441  -2.724   9.212   9.330  0.1454  0.8047  0.4387
  841MOL0     C13442  -2.853   9.140   9.367  0.3157 -0.0666 -0.5031
  841MOL0     C13443  -2.951   9.116   9.246  0.5732  0.9748 -1.0479
  841MOL0     C13444  -3.068   9.025   9.289 -0.5088  0.1279  0.3088
  841MOL0    Cl13445  -3.180   8.999   9.162 -0.1313 -0.1606  0.1408
  841MOL0     C13446  -1.957   9.171   9.003 -0.5088  0.1335  0.3759
  841MOL0     C13447  -1.829   9.225   9.007 -1.2279 -0.3804 -0.4135
  841MOL0     O13448  -1.700   9.548   9.168  0.3989 -0.0997 -0.0873
  841MOL0     C13449  -1.446   9.601   9.176 -0.1063  0.0090  0.1769
  841MOL0     C13450  -1.308   9.614   9.200 -0.4221  0.1987 -0.1330
  841MOL0     N13451  -0.748   9.796   8.772  0.1652  0.0234 -0.2146
  841MOL0     N13452  -0.679   9.905   8.797 -0.5228  0.3604 -0.5071
  841MOL0     C13453   0.592  10.174   9.013  0.2329  0.4283 -0.0109
  841MOL0     C13454   0.702  10.260   9.009  0.0335  0.1278 -0.2852
  841MOL0     C13455   1.076  10.503   8.941  0.2471 -0.4866 -1.0449
  841MOL0     C13456   1.168  10.444   8.855  0.2645 -0.3548 -0.5039
  841MOL0     C13457   1.288  10.507   8.826  1.0640  0.3561  0.2879
  841MOL0     C13458   1.319  10.635   8.876  0.2104  0.2617 -0.0855
  841MOL0     O13459   1.442  10.685   8.851 -0.4238  0.3584 -0.1316
  841MOL0     C13460   1.478  10.814   8.903  0.4180 -0.2257  0.1821
  841MOL0     C13461   1.606  10.863   8.838 -0.4755  0.2934  0.1382
  841MOL0     C13462   1.665  10.979   8.920 -0.1978  0.7026  0.3854
  841MOL0     C13463   1.798  10.944   8.988 -0.1811  0.0175 -0.7245
  841MOL0     C13464   1.784  10.875   9.116  0.4654  0.0655  0.2848
  841MOL0     C13465   1.754  10.823   9.225 -0.2935 -0.6758  0.0616
  841MOL0     C13466   1.223  10.697   8.954  0.3735 -0.4646  0.1563
  841MOL0     C13467   1.109  10.635   8.984 -0.5926 -0.2785 -0.3083
  841MOL0     H13468   0.907  10.097   8.806 -0.2175 -0.8427  0.1289
  841MOL0     H13469   0.711   9.930   8.808 -1.5488 -0.8649  0.9265
  841MOL0     H13470   0.360  10.025   9.083 -1.2492  1.4650 -0.7711
  841MOL0     H13471   0.320  10.069   8.916  0.0263  2.0571  1.2217
  841MOL0     H13472   0.298   9.826   8.856 -0.6226 -2.2490  0.5788
  841MOL0     H13473   0.375   9.796   9.012  0.7718  0.4881 -0.6848
  841MOL0     H13474   0.135   9.733   9.006  0.2824  0.6474  0.3682
  841MOL0     H13475   0.157   9.865   9.117  2.4118  1.4488  0.0419
  841MOL0     H13476   0.083  10.035   8.944  3.3261 -1.5104  2.9671
  841MOL0     H13477   0.072   9.910   8.815 -0.0537 -0.0378  0.0516
  841MOL0     H13478  -0.082   9.779   8.951 -0.5021  0.5952 -3.4642
  841MOL0     H13479  -0.097   9.897   9.073  1.7763  1.1507  1.0385
  841MOL0     H13480  -0.185  10.054   8.892 -0.3268  0.1161 -0.9998
  841MOL0     H13481  -0.145   9.937   8.772 -2.4409 -0.4687 -1.5586
  841MOL0     H13482  -0.298   9.771   8.836  0.1295 -0.2935  1.3771
  841MOL0     H13483  -0.325   9.855   8.996  0.7318  1.3863  0.4688
  841MOL0     H13484  -0.406   9.979   8.733  1.0797 -2.8775 -2.0241
  841MOL0     H13485  -0.458  10.032   8.890  1.8740  1.8010 -0.3604
  841MOL0     H13486  -0.472   9.649   8.853 -0.8304 -0.1630  1.6426
  841MOL0     H13487  -0.801   9.535   8.741 -0.0504 -1.9073 -0.1965
  841MOL0     H13488  -0.638   9.474   8.776 -1.1987  0.3849 -3.5882
  841MOL0     H13489  -0.700   9.548   9.016 -1.9791  1.5044  0.7150
  841MOL0     H13490  -0.794   9.403   8.960  0.3305 -1.4003 -2.2774
  841MOL0     H13491  -0.955   9.588   8.878  1.0876  1.8066 -1.0800
  841MOL0     H13492  -0.892   9.686   9.000  0.5750 -0.1402 -0.9368
  841MOL0     H13493  -0.905   9.482   9.165 -0.0445 -0.5620  0.1720
  841MOL0     H13494  -1.017   9.413   9.038 -2.6380  1.5197 -1.5520
  841MOL0     H13495  -1.206   9.469   8.906 -0.9149  0.9046 -1.2716
  841MOL0     H13496  -1.359   9.385   8.788 -1.8577 -1.9980 -3.4039
  841MOL0     H13497  -1.479   9.306   8.883  1.5725  0.2360  2.3775
  841MOL0     H13498  -1.516   9.457   8.790  0.5569 -1.7760 -2.2863
  841MOL0     H13499  -1.928   9.550   9.022 -1.1598  0.3498  1.2867
  841MOL0     H13500  -2.152   9.442   9.032  0.5803  1.1488 -1.0206
  841MOL0     H13501  -2.249   9.216   9.217 -1.4656  1.2006 -0.1116
  841MOL0     H13502  -2.317   9.319   9.091  1.8819  1.4763  2.4686
  841MOL0     H13503  -2.470   9.146   9.016 -0.3084  0.5919 -0.7977
  841MOL0     H13504  -2.383   9.019   9.113  0.5936  0.5846  0.6418
  841MOL0     H13505  -2.487   9.263   9.249 -0.9993  0.2130 -1.1894
  841MOL0     H13506  -2.461   9.107   9.321  2.6823  0.0640 -1.4936
  841MOL0     H13507  -2.707   9.154   9.125 -3.0223  1.8384  2.0270
  841MOL0     H13508  -2.664   9.024   9.236 -0.1014  0.4877 -1.8701
  841MOL0     H13509  -2.751   9.313   9.298 -2.3190  1.0450  2.9498
  841MOL0     H13510  -2.658   9.218   9.417 -0.9203  2.2825  1.1970
  841MOL0     H13511  -2.823   9.041   9.403 -1.3506 -1.1157 -1.8069
  841MOL0     H13512  -2.901   9.191   9.450  1.4237 -0.3554  0.3519
  841MOL0     H13513  -2.896   9.073   9.163  1.7081  2.7940 -1.2876
  841MOL0     H13514  -2.990   9.213   9.213  1.1055  0.3841 -3.6288
  841MOL0     H13515  -3.116   9.078   9.372 -0.0354  1.0054  0.0346
  841MOL0     H13516  -3.034   8.928   9.325 -1.4204 -0.4436 -0.3415
  841MOL0     H13517  -1.975   9.064   8.999  1.9869 -0.4464  2.1168
  841MOL0     H13518  -1.745   9.158   9.017 -0.9115  0.1807  0.8698
  841MOL0     H13519  -1.510   9.641   9.254  1.1498 -2.1235  2.4364
  841MOL0     H13520  -1.280   9.659   9.295 -1.7374 -1.9833  1.4087
  841MOL0     H13521   0.497  10.181   9.065  0.8794 -1.9064  1.6541
  841MOL0     H13522   0.689  10.352   9.065  0.8288 -0.7846  1.4548
  841MOL0     H13523   1.146  10.349   8.808 -0.0861 -0.1151 -0.8303
  841MOL0     H13524   1.358  10.467   8.753  2.7425 -0.8434  2.4590
  841MOL0     H13525   1.414  10.899   8.877  1.0524  0.3815  0.5813
  841MOL0     H13526   1.489  10.820   9.012  1.5927 -0.0557  0.0667
  841MOL0     H13527   1.591  10.893   8.734  2.2570  1.1632 -0.0825
  841MOL0     H13528   1.683  10.785   8.831  2.7097  3.2284 -0.2549
  841MOL0     H13529   1.590  11.022   8.986  0.8584 -1.1291  2.8974
  841MOL0     H13530   1.680  11.041   8.830 -0.3125 -0.2768 -0.3296
  841MOL0     H13531   1.859  11.034   8.988  0.9764 -0.7225 -1.9294
  841MOL0     H13532   1.862  10.873   8.934  3.0783  1.6077  0.8086
  841MOL0     H13533   1.735  10.781   9.322 -1.8333  0.5637  0.3423
  841MOL0     H13534   1.222  10.803   8.978 -0.7384 -0.2234 -0.8891
  841MOL0     H13535   1.043  10.690   9.051 -0.3938 -0.7133  0.2580
  842MOL0     O13536   5.347   8.893   7.401  0.2695 -0.0152  0.2343
  842MOL0     C13537   5.400   8.904   7.289  0.4370  0.6083  0.0656
  842MOL0     O13538   5.351   8.959   7.170  0.4756  0.0775 -0.8068
  842MOL0     C13539   5.223   9.009   7.166 -0.3109  1.0283 -0.1839
  842MOL0     C13540   5.199   9.102   7.071  0.2755 -1.2476  0.1544
  842MOL0     C13541   5.075   9.167   7.073 -0.4393  0.0847  0.8116
  842MOL0     C13542   4.974   9.127   7.154  0.0126 -0.0186 -0.3378
  842MOL0     O13543   4.848   9.174   7.134 -0.3952  0.0128 -0.0332
  842MOL0     C13544   4.836   9.316   7.137 -0.1146  0.3319 -0.1361
  842MOL0     C13545   4.796   9.378   7.272  0.4072  0.6760 -0.9923
  842MOL0     C13546   4.676   9.322   7.349 -0.0381  0.8116  0.5983
  842MOL0     C13547   4.662   9.400   7.474  0.5521 -0.4913 -0.1803
  842MOL0     C13548   4.533   9.357   7.536 -0.7509  0.3582  0.2535
  842MOL0     C13549   4.514   9.408   7.680  0.7339  0.0990 -0.6447
  842MOL0     C13550   4.368   9.374   7.725  1.0385  0.3185 -0.1333
  842MOL0     C13551   4.327   9.471   7.841 -0.2320  0.5854  0.0633
  842MOL0     N13552   4.192   9.524   7.834 -0.1635 -0.1169  0.2677
  842MOL0     C13553   4.073   9.466   7.791 -0.4143 -0.1472 -1.0336
  842MOL0     C13554   3.977   9.534   7.845  0.3261 -0.4413 -0.9286
  842MOL0     C13555   3.825   9.508   7.841  0.8395 -0.4854 -0.0439
  842MOL0     C13556   3.743   9.623   7.918 -0.1724 -0.2726 -0.3853
  842MOL0     C13557   3.598   9.585   7.907 -0.3842 -0.2195  0.0512
  842MOL0     C13558   3.503   9.678   7.978  0.2561 -0.5818 -0.0041
  842MOL0     O13559   3.396   9.605   8.035 -0.2549 -0.4435  0.0052
  842MOL0     C13560   3.292   9.578   7.956 -0.2644 -0.1457  0.2299
  842MOL0     C13561   3.267   9.637   7.827  0.5127 -0.1801 -0.3190
  842MOL0     C13562   3.152   9.608   7.758 -0.5667 -0.0267  0.7808
  842MOL0     C13563   3.141   9.663   7.616  0.0649  0.1239 -0.0736
  842MOL0     C13564   3.049   9.527   7.821  0.0580  0.0721 -0.7491
  842MOL0     C13565   2.927   9.478   7.750 -0.2124 -0.0436  0.1710
  842MOL0     O13566   2.864   9.375   7.815  0.3477  0.7081  0.3564
  842MOL0     C13567   2.737   9.332   7.773 -0.7645  0.1951 -0.1617
  842MOL0     C13568   2.705   9.191   7.769 -0.3741 -0.4228 -0.6852
  842MOL0     C13569   2.575   9.152   7.745  0.3831  0.1508 -0.7857
  842MOL0     C13570   2.472   9.244   7.728 -0.2721 -0.1387  0.6222
  842MOL0     O13571   2.347   9.194   7.699 -0.2066  0.6072 -0.6090
  842MOL0     C13572   2.316   9.209   7.560 -0.5860  0.0943  0.5039
  842MOL0     C13573   2.166   9.155   7.551  0.2637  0.0974  0.2564
  842MOL0     C13574   2.067   9.251   7.599  0.0202 -0.2405 -0.8524
  842MOL0     C13575   1.934   9.184   7.578  0.0131  0.0445  0.1672
  842MOL0     C13576   1.827   9.264   7.642  0.2870  0.4852 -0.5087
  842MOL0     C13577   1.678   9.224   7.618  0.2305 -0.3639 -0.4780
  842MOL0     C13578   1.614   9.257   7.476  0.7583  0.6319  0.1293
  842MOL0     C13579   1.474   9.188   7.455  0.3983  0.4391  0.1800
  842MOL0    Cl13580   1.362   9.267   7.568  0.0457 -0.2496 -0.5219
  842MOL0     C13581   2.499   9.377   7.735  0.9515 -0.2766  0.3622
  842MOL0     C13582   2.628   9.425   7.756 -0.7258 -0.0903 -1.2260
  842MOL0     O13583   2.897   9.524   7.644 -0.7204  1.3757  0.8936
  842MOL0     C13584   3.071   9.479   7.952  0.0300  0.7267 -0.1511
  842MOL0     C13585   3.192   9.507   8.013  1.3577  0.3220 -0.2937
  842MOL0     N13586   4.032   9.640   7.912 -0.2477 -0.0056  0.4861
  842MOL0     N13587   4.159   9.634   7.908  0.2302 -0.4833  0.7112
  842MOL0     C13588   4.985   9.022   7.238  0.7215  0.9164  0.5384
  842MOL0     C13589   5.115   8.968   7.245  0.8451 -0.8534  0.4940
  842MOL0     C13590   5.534   8.844   7.287  0.4492 -1.0918  0.4555
  842MOL0     C13591   5.619   8.880   7.177 -0.2907 -1.0269  1.1826
  842MOL0     C13592   5.749   8.822   7.155 -0.1703  0.6598 -0.1923
  842MOL0     C13593   5.804   8.741   7.254  0.3219  0.0279 -0.3372
  842MOL0     O13594   5.929   8.696   7.236 -1.0991 -0.5536  0.6116
  842MOL0     C13595   6.034   8.775   7.304  0.1493 -0.9462 -0.0941
  842MOL0     C13596   6.062   8.724   7.442  0.2196 -0.0689 -0.5426
  842MOL0     C13597   6.100   8.572   7.456 -0.0426  0.2098  0.3108
  842MOL0     C13598   6.219   8.534   7.367 -0.5236  0.1687  0.2783
  842MOL0     C13599   6.343   8.581   7.426  0.3108  0.8597  0.5629
  842MOL0     C13600   6.452   8.598   7.473 -0.1625 -0.0274 -0.0714
  842MOL0     C13601   5.730   8.715   7.369  0.0192  0.5800 -0.0549
  842MOL0     C13602   5.598   8.764   7.384  0.1663 -0.1224  0.5187
  842MOL0     H13603   5.270   9.130   6.994 -1.6563 -0.5514 -1.4528
  842MOL0     H13604   5.044   9.237   6.996 -3.4249  0.8530  2.5525
  842MOL0     H13605   4.928   9.371   7.114  1.7431 -1.6156  2.1845
  842MOL0     H13606   4.762   9.335   7.058 -0.6079  0.2075  0.2895
  842MOL0     H13607   4.888   9.359   7.328 -2.0440 -0.0761  3.1934
  842MOL0     H13608   4.790   9.487   7.265  0.0075  0.7106 -0.2351
  842MOL0     H13609   4.592   9.331   7.280 -0.3043 -0.5779  0.6984
  842MOL0     H13610   4.690   9.215   7.366  0.5958  0.5882 -1.0883
  842MOL0     H13611   4.750   9.394   7.538  1.5471  2.5935 -1.0706
  842MOL0     H13612   4.654   9.508   7.458  1.0838 -0.6048 -1.3587
  842MOL0     H13613   4.448   9.386   7.473  0.8522 -0.5369 -2.4469
  842MOL0     H13614   4.539   9.248   7.539  0.6441  0.3985 -0.4865
  842MOL0     H13615   4.578   9.349   7.746  0.6774 -0.4795 -1.0947
  842MOL0     H13616   4.516   9.517   7.692  0.9253 -0.2318  3.4917
  842MOL0     H13617   4.291   9.397   7.650 -0.0111  2.7233  1.5446
  842MOL0     H13618   4.356   9.272   7.763 -0.8392  0.5900  0.1025
  842MOL0     H13619   4.394   9.557   7.848  0.4173  0.0409  0.7671
  842MOL0     H13620   4.345   9.419   7.935  0.9607 -1.2946 -1.1188
  842MOL0     H13621   4.059   9.365   7.754 -1.2674  0.1824 -1.6215
  842MOL0     H13622   3.786   9.506   7.739  2.8864  3.9053 -1.1632
  842MOL0     H13623   3.803   9.416   7.897  2.6281 -1.5614 -0.9996
  842MOL0     H13624   3.772   9.720   7.876 -0.8639  0.5295  0.9344
  842MOL0     H13625   3.777   9.635   8.021  0.4293 -0.2082 -0.5869
  842MOL0     H13626   3.582   9.482   7.938 -0.6232 -0.5463 -1.1071
  842MOL0     H13627   3.573   9.584   7.801 -0.9750  0.9523  0.1528
  842MOL0     H13628   3.460   9.763   7.924 -2.5633 -0.3029  2.4326
  842MOL0     H13629   3.557   9.723   8.061 -0.5013 -1.5385  1.0413
  842MOL0     H13630   3.348   9.682   7.770 -0.3944  1.6981 -0.1829
  842MOL0     H13631   3.044   9.705   7.586 -0.9682 -2.9507 -1.4754
  842MOL0     H13632   3.207   9.748   7.600  0.0128 -0.0941 -1.6079
  842MOL0     H13633   3.166   9.583   7.546  2.1328 -0.1158  0.8864
  842MOL0     H13634   2.783   9.117   7.781 -0.5030 -0.1376  2.5427
  842MOL0     H13635   2.540   9.049   7.743 -2.0649  0.8739  0.7715
  842MOL0     H13636   2.315   9.311   7.520  0.0085 -0.5801 -1.3809
  842MOL0     H13637   2.379   9.145   7.496 -1.6199  0.2081 -0.6662
  842MOL0     H13638   2.145   9.132   7.446 -1.2983 -0.1921  0.6087
  842MOL0     H13639   2.161   9.060   7.605  0.5340 -0.8146 -1.2551
  842MOL0     H13640   2.071   9.345   7.542 -0.7855  1.1149  1.2160
  842MOL0     H13641   2.082   9.269   7.706  1.6790 -0.9187 -0.9427
  842MOL0     H13642   1.918   9.176   7.470 -0.2274 -2.2746  0.3187
  842MOL0     H13643   1.942   9.084   7.622 -1.8839 -1.1106 -1.9181
  842MOL0     H13644   1.834   9.372   7.625  3.2605  0.4440 -0.1396
  842MOL0     H13645   1.845   9.254   7.750  2.4255  4.2337 -0.3450
  842MOL0     H13646   1.665   9.123   7.656  1.7366 -1.0618 -1.6812
  842MOL0     H13647   1.634   9.298   7.686  1.2472 -0.0041 -0.1866
  842MOL0     H13648   1.686   9.223   7.401 -0.4590  1.8170 -1.6414
  842MOL0     H13649   1.598   9.364   7.459  0.6332  0.2302 -2.8167
  842MOL0     H13650   1.482   9.082   7.479 -2.4253 -0.0973 -0.8778
  842MOL0     H13651   1.438   9.204   7.353  0.5278  1.4124  0.2712
  842MOL0     H13652   2.419   9.449   7.722  3.7171  2.5798 -2.5814
  842MOL0     H13653   2.646   9.529   7.777 -0.9200 -0.4071  0.6596
  842MOL0     H13654   2.988   9.427   7.999 -1.5308  2.7177 -0.5492
  842MOL0     H13655   3.202   9.484   8.118  2.4461 -1.9163 -0.8309
  842MOL0     H13656   4.899   8.990   7.296 -0.7254  0.4400 -1.7049
  842MOL0     H13657   5.116   8.882   7.312 -1.3441 -1.6718 -0.4125
  842MOL0     H13658   5.580   8.943   7.098 -0.6204 -0.8357  1.4918
  842MOL0     H13659   5.788   8.841   7.056 -0.6411  2.3164 -0.0996
  842MOL0     H13660   6.129   8.769   7.248  0.4979 -4.6096  0.6520
  842MOL0     H13661   5.999   8.877   7.319  1.0069 -0.8179  1.1202
  842MOL0     H13662   5.977   8.743   7.508 -0.6641  1.4631 -2.0409
  842MOL0     H13663   6.144   8.788   7.478 -1.3406  1.4993  0.3726
  842MOL0     H13664   6.010   8.512   7.440  0.3058 -0.4756  0.8509
  842MOL0     H13665   6.133   8.551   7.559  2.9011  1.2388 -0.3249
  842MOL0     H13666   6.202   8.578   7.269  0.5253 -1.0417 -0.4772
  842MOL0     H13667   6.222   8.425   7.366  2.4326  0.1699 -0.9531
  842MOL0     H13668   6.541   8.632   7.521  0.8238 -3.4942  0.8505
  842MOL0     H13669   5.750   8.643   7.448 -2.6564 -0.1947  0.0232
  842MOL0     H13670   5.542   8.723   7.468  0.0804 -1.3136 -0.0949
  843MOL0     O13671   0.810   8.281   6.321  0.8368  0.0743 -0.2309
  843MOL0     C13672   0.845   8.173   6.378 -0.1027 -0.1472 -0.0157
  843MOL0     O13673   0.814   8.051   6.331 -0.1005 -0.0810 -0.3224
  843MOL0     C13674   0.703   8.038   6.252 -0.5760 -0.0212 -0.8830
  843MOL0     C13675   0.592   8.116   6.261  0.6078 -0.0848 -0.0600
  843MOL0     C13676   0.482   8.107   6.169  0.2652  0.2345 -0.9747
  843MOL0     C13677   0.474   8.001   6.074 -0.0151 -0.6722 -0.3668
  843MOL0     O13678   0.384   7.985   5.977  0.7333  0.1065 -0.3074
  843MOL0     C13679   0.298   8.100   5.949 -0.3762 -1.0952 -0.0266
  843MOL0     C13680   0.254   8.074   5.807 -0.5209  0.6822 -1.0789
  843MOL0     C13681   0.122   8.139   5.782  0.6314 -0.4667  0.2397
  843MOL0     C13682  -0.004   8.045   5.786  0.5682 -0.4846 -0.5106
  843MOL0     C13683  -0.133   8.122   5.748 -0.0604 -0.4962 -0.4968
  843MOL0     C13684  -0.243   8.033   5.736 -0.1586  0.3480  0.0333
  843MOL0     C13685  -0.367   8.098   5.679 -0.4805  0.0828 -0.6777
  843MOL0     C13686  -0.478   7.996   5.647 -0.1918 -0.5352  0.6114
  843MOL0     N13687  -0.600   8.068   5.614  0.2844 -0.4758 -0.2500
  843MOL0     C13688  -0.668   8.142   5.711  0.6834  0.7423 -0.0480
  843MOL0     C13689  -0.786   8.187   5.653 -0.0497  0.5395  0.3658
  843MOL0     C13690  -0.886   8.280   5.713 -0.3826 -0.9729 -0.0772
  843MOL0     C13691  -0.961   8.370   5.604  0.2492 -0.0693 -0.0968
  843MOL0     C13692  -1.064   8.456   5.680 -0.0881  0.1894  0.3274
  843MOL0     C13693  -1.142   8.549   5.588 -0.2595  0.1380  0.4806
  843MOL0     O13694  -1.216   8.641   5.665 -0.0900  0.6222 -0.1523
  843MOL0     C13695  -1.353   8.624   5.690  0.4526 -0.2021  0.4997
  843MOL0     C13696  -1.434   8.533   5.626  0.5606  0.1241 -0.1718
  843MOL0     C13697  -1.571   8.530   5.660  0.0290 -0.2504 -0.2595
  843MOL0     C13698  -1.669   8.451   5.579 -0.6228  0.1057 -0.6990
  843MOL0     C13699  -1.620   8.605   5.777  0.1889 -0.0977  0.3478
  843MOL0     C13700  -1.761   8.604   5.826 -0.1673 -0.3189  0.1817
  843MOL0     O13701  -1.830   8.718   5.838 -0.2068 -0.7732  0.1959
  843MOL0     C13702  -1.947   8.717   5.914  0.1072 -0.0390  0.3748
  843MOL0     C13703  -1.956   8.744   6.056  0.2120 -1.1520 -0.0210
  843MOL0     C13704  -2.077   8.770   6.121 -0.4963  0.4767  0.4824
  843MOL0     C13705  -2.203   8.776   6.047 -0.4351  0.2080 -0.3229
  843MOL0     O13706  -2.319   8.810   6.111 -0.9153  0.1999 -0.0973
  843MOL0     C13707  -2.438   8.747   6.075 -0.9284 -0.1244 -0.3100
  843MOL0     C13708  -2.517   8.845   5.981  0.5471 -0.1864 -0.0141
  843MOL0     C13709  -2.659   8.799   5.977  1.7326  0.5615 -0.3037
  843MOL0     C13710  -2.778   8.900   5.948 -0.1460  0.5632 -0.3082
  843MOL0     C13711  -2.904   8.859   5.872 -0.8284 -0.0642  0.0341
  843MOL0     C13712  -3.003   8.786   5.968 -0.0231  0.9036 -0.3189
  843MOL0     C13713  -3.111   8.720   5.884 -0.7487  0.2685  0.1186
  843MOL0     C13714  -3.224   8.672   5.974  0.3939 -1.3260 -0.2359
  843MOL0    Cl13715  -3.300   8.810   6.067  0.0173  0.3852  0.2370
  843MOL0     C13716  -2.189   8.748   5.909  1.0058 -0.3439 -0.1871
  843MOL0     C13717  -2.066   8.726   5.843 -0.4449 -0.6203 -0.4232
  843MOL0     O13718  -1.805   8.493   5.863 -0.2901 -0.0771  0.0504
  843MOL0     C13719  -1.533   8.695   5.835 -0.5684 -0.4634 -0.4860
  843MOL0     C13720  -1.405   8.707   5.796  1.0573  0.2445 -0.7302
  843MOL0     N13721  -0.783   8.132   5.524 -0.2511 -0.7306  0.4096
  843MOL0     N13722  -0.678   8.064   5.498  0.0536 -0.4904 -0.5824
  843MOL0     C13723   0.583   7.916   6.073  0.0558 -0.3477  0.2899
  843MOL0     C13724   0.697   7.933   6.156  0.1051  0.5690  0.4190
  843MOL0     C13725   0.936   8.197   6.498 -0.6415  0.1605  0.6282
  843MOL0     C13726   0.957   8.099   6.600  0.0948  0.3137 -0.1250
  843MOL0     C13727   1.029   8.131   6.718  0.0856  0.0253  0.7893
  843MOL0     C13728   1.084   8.260   6.739 -0.6742 -0.1360 -0.3210
  843MOL0     O13729   1.138   8.309   6.854 -0.2451  0.6084  0.5849
  843MOL0     C13730   1.244   8.223   6.902 -0.3171  0.5639 -0.1773
  843MOL0     C13731   1.354   8.194   6.795 -0.3888  0.0605  0.1396
  843MOL0     C13732   1.413   8.306   6.711 -0.9026  0.8171 -0.1373
  843MOL0     C13733   1.555   8.271   6.657  0.3144  1.0381  0.5270
  843MOL0     C13734   1.663   8.270   6.762 -0.7728 -0.8957  0.9473
  843MOL0     C13735   1.734   8.266   6.861 -1.1362 -0.2986 -0.2058
  843MOL0     C13736   1.054   8.355   6.646  0.7178  0.2004  0.0195
  843MOL0     C13737   0.989   8.326   6.523  0.0102  0.0064 -0.5476
  843MOL0     H13738   0.572   8.171   6.353  0.8676 -1.9563  1.1516
  843MOL0     H13739   0.396   8.174   6.178  0.3406  0.2464 -0.3481
  843MOL0     H13740   0.204   8.098   6.005 -0.4427 -2.3176 -0.1468
  843MOL0     H13741   0.350   8.194   5.970 -0.9140 -0.2987 -1.9732
  843MOL0     H13742   0.332   8.110   5.740  0.4227 -0.4232 -0.6166
  843MOL0     H13743   0.242   7.968   5.784 -0.4515  0.7528 -1.4368
  843MOL0     H13744   0.110   8.221   5.853  1.1371 -0.3930  0.2470
  843MOL0     H13745   0.122   8.192   5.686 -0.6934  3.1536  2.0494
  843MOL0     H13746   0.010   7.964   5.713  0.1194 -1.0787  0.0489
  843MOL0     H13747  -0.027   7.984   5.874 -3.4782 -3.5139 -3.2732
  843MOL0     H13748  -0.157   8.191   5.830 -2.3582  0.2090 -1.6931
  843MOL0     H13749  -0.117   8.182   5.657  0.0524  1.7404  0.9080
  843MOL0     H13750  -0.216   7.949   5.672  0.8316 -1.9847  3.2660
  843MOL0     H13751  -0.261   7.987   5.834 -3.1643 -0.7749 -0.9279
  843MOL0     H13752  -0.403   8.175   5.749  1.4503  1.7568 -1.4522
  843MOL0     H13753  -0.344   8.154   5.588  0.1466  1.5461  0.3486
  843MOL0     H13754  -0.494   7.931   5.734  3.6802 -0.5455  1.4997
  843MOL0     H13755  -0.448   7.936   5.561 -2.1384 -0.6705 -0.0263
  843MOL0     H13756  -0.644   8.170   5.813 -0.6446  1.9248 -0.0292
  843MOL0     H13757  -0.961   8.217   5.762  0.9427 -1.6210  1.2006
  843MOL0     H13758  -0.836   8.343   5.788 -2.0338  0.8811 -0.4491
  843MOL0     H13759  -1.019   8.317   5.529 -0.2110  1.5407 -0.9397
  843MOL0     H13760  -0.882   8.426   5.552  1.7337 -0.9126  1.1482
  843MOL0     H13761  -1.020   8.523   5.755 -0.4001 -0.2060  0.8746
  843MOL0     H13762  -1.140   8.407   5.741 -0.1403  0.4845  0.5000
  843MOL0     H13763  -1.209   8.483   5.532 -2.5361 -1.0059  4.1701
  843MOL0     H13764  -1.065   8.605   5.534  1.8471 -2.2264  0.8219
  843MOL0     H13765  -1.399   8.459   5.555 -1.5479  0.7022 -1.9392
  843MOL0     H13766  -1.740   8.402   5.646  0.5489 -2.3108 -1.1363
  843MOL0     H13767  -1.726   8.519   5.514  1.1736  0.0060 -2.4697
  843MOL0     H13768  -1.622   8.374   5.518 -1.8512 -1.3339  0.0934
  843MOL0     H13769  -1.865   8.733   6.114 -0.5970  1.5148  1.9364
  843MOL0     H13770  -2.077   8.801   6.225  5.3648 -3.5971  2.1885
  843MOL0     H13771  -2.413   8.649   6.032 -0.2961  0.3127 -0.9580
  843MOL0     H13772  -2.479   8.739   6.176  1.7797  1.3972  1.0054
  843MOL0     H13773  -2.525   8.949   6.013 -1.2667 -0.0486 -0.8027
  843MOL0     H13774  -2.480   8.842   5.878  0.8397  1.0415  0.0430
  843MOL0     H13775  -2.685   8.750   6.071 -2.0960  0.4932 -1.2183
  843MOL0     H13776  -2.660   8.719   5.902  1.6966  0.2711  0.0041
  843MOL0     H13777  -2.806   8.949   6.042  2.1780 -0.4752  0.9990
  843MOL0     H13778  -2.717   8.967   5.888  2.4148 -2.1123 -0.9268
  843MOL0     H13779  -2.876   8.794   5.788 -0.2106 -0.5094  0.5721
  843MOL0     H13780  -2.952   8.949   5.834 -0.0728  0.0712 -0.6211
  843MOL0     H13781  -2.945   8.707   6.017  0.6266  0.4302 -1.7918
  843MOL0     H13782  -3.039   8.861   6.039  2.8940 -0.0332  2.3561
  843MOL0     H13783  -3.074   8.631   5.833 -0.4841  0.4007  0.0788
  843MOL0     H13784  -3.158   8.796   5.820 -1.7817 -0.6462 -0.2558
  843MOL0     H13785  -3.186   8.594   6.040 -2.0146 -2.3334  0.0344
  843MOL0     H13786  -3.313   8.636   5.922  0.4941  0.0025 -1.3979
  843MOL0     H13787  -2.280   8.749   5.849 -0.0262 -2.6563  1.2335
  843MOL0     H13788  -2.056   8.712   5.736 -2.7067 -3.3000 -0.3808
  843MOL0     H13789  -1.566   8.766   5.910  1.9124  1.3573 -0.9836
  843MOL0     H13790  -1.341   8.773   5.853  0.8753  0.7166 -1.0689
  843MOL0     H13791   0.587   7.827   6.011  2.5500  0.8986 -1.5318
  843MOL0     H13792   0.783   7.870   6.138  0.3149  0.8261  0.5060
  843MOL0     H13793   0.912   8.000   6.595 -0.9630  0.6595  1.8102
  843MOL0     H13794   1.027   8.071   6.809  0.3715  0.9385  1.4030
  843MOL0     H13795   1.279   8.268   6.995 -1.5838 -1.4183  1.3092
  843MOL0     H13796   1.200   8.127   6.926  0.5114  0.5696  1.4938
  843MOL0     H13797   1.313   8.122   6.723 -0.1415  1.8453 -1.8971
  843MOL0     H13798   1.429   8.140   6.854  1.4738  1.4720 -0.8221
  843MOL0     H13799   1.425   8.398   6.770  0.2692  0.2673  0.5239
  843MOL0     H13800   1.343   8.325   6.628 -1.8394 -0.0904  0.4309
  843MOL0     H13801   1.570   8.350   6.582  0.5040  1.9634  1.5109
  843MOL0     H13802   1.551   8.177   6.602 -2.1092  1.0558  0.5646
  843MOL0     H13803   1.808   8.264   6.939  0.4981  2.2564 -1.5647
  843MOL0     H13804   1.077   8.460   6.664 -1.3745  1.1537 -2.2444
  843MOL0     H13805   0.983   8.411   6.455 -2.7665 -0.9846 -1.6644
  844MOL0     O13806   1.506   4.967   5.933  1.1359  0.4434  0.5853
  844MOL0     C13807   1.569   5.015   6.025  0.0973 -0.3643 -0.0087
  844MOL0     O13808   1.517   5.052   6.147 -0.4035  0.2736  0.2228
  844MOL0     C13809   1.386   5.011   6.162 -0.5683 -0.9305 -0.6938
  844MOL0     C13810   1.356   4.888   6.224  0.0557  0.4788 -0.3793
  844MOL0     C13811   1.225   4.848   6.250 -0.5781 -0.2040  0.3368
  844MOL0     C13812   1.125   4.938   6.239 -0.2252 -0.8658  0.9458
  844MOL0     O13813   0.994   4.908   6.270  0.1804  1.1088 -0.3704
  844MOL0     C13814   0.967   4.908   6.410  0.9997 -0.2765 -0.3323
  844MOL0     C13815   0.831   4.835   6.430 -0.4835  0.1881 -0.1644
  844MOL0     C13816   0.778   4.851   6.572 -0.1699  0.0986 -0.3682
  844MOL0     C13817   0.676   4.740   6.608 -0.0730 -0.4150 -0.7215
  844MOL0     C13818   0.602   4.760   6.737  0.7940  0.2172  0.4198
  844MOL0     C13819   0.513   4.643   6.774  0.7932  0.4717  0.1948
  844MOL0     C13820   0.468   4.646   6.916 -0.1110 -0.1294  0.3753
  844MOL0     C13821   0.362   4.540   6.951 -0.0883 -0.1917  0.2595
  844MOL0     N13822   0.301   4.543   7.091 -0.0744 -0.4955  1.0868
  844MOL0     C13823   0.367   4.504   7.201  0.0199  0.2147 -0.8019
  844MOL0     C13824   0.288   4.542   7.307 -0.1437  0.2101 -0.6332
  844MOL0     C13825   0.313   4.518   7.453 -0.1011 -0.2362  0.5306
  844MOL0     C13826   0.201   4.447   7.530  0.6061 -0.1899  0.1872
  844MOL0     C13827   0.185   4.293   7.503 -0.3160  0.8312  0.0930
  844MOL0     C13828   0.116   4.275   7.375  0.7024 -0.9213 -0.2317
  844MOL0     O13829   0.095   4.138   7.345  0.5734  0.1414 -0.9680
  844MOL0     C13830   0.013   4.060   7.425 -0.6953 -0.0896 -0.6158
  844MOL0     C13831  -0.083   4.100   7.523 -0.2908  0.2324 -0.0453
  844MOL0     C13832  -0.166   4.005   7.588 -0.5065 -0.5086 -0.0618
  844MOL0     C13833  -0.281   4.059   7.670 -0.0982  0.2169  0.4694
  844MOL0     C13834  -0.132   3.868   7.573 -0.1278  0.1530 -0.1910
  844MOL0     C13835  -0.193   3.754   7.654  0.0515 -1.0217 -0.6402
  844MOL0     O13836  -0.193   3.624   7.611 -0.2301  0.5600 -0.6394
  844MOL0     C13837  -0.316   3.564   7.638 -0.4138 -0.0345 -0.5590
  844MOL0     C13838  -0.361   3.500   7.753  0.2618 -0.5253 -0.3422
  844MOL0     C13839  -0.492   3.448   7.757  0.1402  0.0429 -0.6667
  844MOL0     C13840  -0.582   3.452   7.658 -0.0222  0.7459 -1.0122
  844MOL0     O13841  -0.713   3.415   7.672 -0.0129 -0.2301  0.7793
  844MOL0     C13842  -0.745   3.335   7.784 -0.8179 -0.0990 -0.1100
  844MOL0     C13843  -0.895   3.294   7.774 -0.7853 -0.1136  0.5946
  844MOL0     C13844  -0.981   3.415   7.823 -0.1688  0.0019 -0.2131
  844MOL0     C13845  -1.121   3.386   7.777  0.0257 -0.5136 -0.6042
  844MOL0     C13846  -1.223   3.494   7.815  0.3006 -0.1055 -0.6305
  844MOL0     C13847  -1.360   3.458   7.772  0.5516  0.0159  0.0974
  844MOL0     C13848  -1.461   3.561   7.822 -0.4668 -0.6217 -0.0988
  844MOL0     C13849  -1.604   3.535   7.773  0.0368  0.1542  0.1840
  844MOL0    Cl13850  -1.653   3.382   7.840  0.2886 -0.0751  0.6293
  844MOL0     C13851  -0.532   3.509   7.542 -0.0711 -0.1436 -0.0531
  844MOL0     C13852  -0.403   3.570   7.527  0.3734  0.4338  0.6829
  844MOL0     O13853  -0.240   3.788   7.765  0.1170 -0.1618 -0.2192
  844MOL0     C13854  -0.047   3.832   7.472 -0.2368 -0.2273  0.3800
  844MOL0     C13855   0.028   3.926   7.400  0.3176  0.1409  0.5130
  844MOL0     N13856   0.172   4.605   7.260  0.4829 -0.4751  0.7504
  844MOL0     N13857   0.180   4.586   7.128  0.2094 -0.0764 -0.0453
  844MOL0     C13858   1.160   5.068   6.190 -0.6664  0.1446  0.1304
  844MOL0     C13859   1.288   5.105   6.151  0.0442 -0.1699  0.0568
  844MOL0     C13860   1.715   4.999   6.012 -0.4968 -0.0878 -0.2020
  844MOL0     C13861   1.779   5.009   5.883 -0.9217  0.1916  0.3479
  844MOL0     C13862   1.917   4.971   5.858  0.7757  0.9499  0.6682
  844MOL0     C13863   1.995   4.926   5.962  1.1743 -0.5829 -0.1692
  844MOL0     O13864   2.126   4.900   5.939  0.2018 -0.8083  0.3993
  844MOL0     C13865   2.206   4.804   6.006  0.7478 -0.7152  0.4680
  844MOL0     C13866   2.154   4.663   5.975 -0.4510 -0.3549 -0.1853
  844MOL0     C13867   2.172   4.612   5.832 -0.0083  0.2233  0.7416
  844MOL0     C13868   2.065   4.684   5.735 -0.5727 -0.5549 -1.6039
  844MOL0     C13869   2.016   4.605   5.624 -0.5651  0.1282 -0.7469
  844MOL0     C13870   1.995   4.541   5.520  0.5408  0.2983 -0.0100
  844MOL0     C13871   1.931   4.919   6.090  0.0823 -0.6271  0.6722
  844MOL0     C13872   1.798   4.948   6.119  0.4839 -0.1206  0.1490
  844MOL0     H13873   1.435   4.820   6.256 -1.5631 -0.3476  2.1564
  844MOL0     H13874   1.216   4.747   6.290  1.8423 -0.6976 -0.2031
  844MOL0     H13875   1.043   4.851   6.466 -0.2884 -0.8237  0.9131
  844MOL0     H13876   0.957   5.012   6.442  0.1682 -1.0995  2.4032
  844MOL0     H13877   0.762   4.867   6.352  2.5475 -0.0643 -3.1263
  844MOL0     H13878   0.828   4.727   6.415 -2.6106 -0.0370  1.2967
  844MOL0     H13879   0.869   4.846   6.632 -0.4995 -2.9689  0.0611
  844MOL0     H13880   0.726   4.947   6.575  0.1824  0.2855 -0.2762
  844MOL0     H13881   0.605   4.725   6.526 -0.1403 -0.7646 -0.6026
  844MOL0     H13882   0.722   4.641   6.621 -1.8679 -1.0319  1.4567
  844MOL0     H13883   0.671   4.773   6.821  1.0392  1.7971  0.0091
  844MOL0     H13884   0.544   4.849   6.714 -1.8733 -2.0174 -2.4145
  844MOL0     H13885   0.426   4.650   6.708  0.4595  0.9167  0.6781
  844MOL0     H13886   0.563   4.549   6.748  0.9718  0.7149 -0.3330
  844MOL0     H13887   0.553   4.635   6.984 -1.2767  1.5438  2.2483
  844MOL0     H13888   0.421   4.743   6.939  2.7719  1.2979  0.7032
  844MOL0     H13889   0.410   4.443   6.939  0.4437  0.2457 -1.3481
  844MOL0     H13890   0.291   4.540   6.868  0.4647  0.8184 -0.2267
  844MOL0     H13891   0.467   4.461   7.202  0.2152  0.6770 -0.1229
  844MOL0     H13892   0.404   4.459   7.470  1.3876  2.2437  1.7511
  844MOL0     H13893   0.321   4.616   7.501  2.5581 -1.0286  1.9175
  844MOL0     H13894   0.104   4.494   7.509  0.0114 -1.6227 -0.3527
  844MOL0     H13895   0.223   4.461   7.637 -3.0859 -0.5473  1.1175
  844MOL0     H13896   0.133   4.236   7.580  1.0420 -0.6903 -0.0564
  844MOL0     H13897   0.286   4.255   7.484  0.0162  2.8126 -2.5439
  844MOL0     H13898   0.187   4.315   7.302  2.2199 -0.7066  1.3167
  844MOL0     H13899   0.019   4.326   7.370  0.4601 -1.4371 -0.9931
  844MOL0     H13900  -0.093   4.206   7.548 -0.7698  0.9609 -3.0270
  844MOL0     H13901  -0.294   4.167   7.663 -3.4474 -0.1263 -0.8100
  844MOL0     H13902  -0.369   4.009   7.629 -0.0759 -0.2447  0.9653
  844MOL0     H13903  -0.271   4.041   7.778  1.0417 -0.5443  0.2513
  844MOL0     H13904  -0.303   3.489   7.844  0.1534 -0.3963 -0.2566
  844MOL0     H13905  -0.517   3.409   7.855  0.4321  3.3264  0.8838
  844MOL0     H13906  -0.685   3.244   7.785  0.9690  1.0248  1.6724
  844MOL0     H13907  -0.716   3.386   7.876  0.9384 -3.2311  1.2134
  844MOL0     H13908  -0.913   3.267   7.670  0.7207 -0.0742  0.3112
  844MOL0     H13909  -0.921   3.203   7.830 -0.6378 -0.9123 -0.5928
  844MOL0     H13910  -0.936   3.511   7.796  2.7029 -0.8394  1.1856
  844MOL0     H13911  -0.988   3.418   7.932  1.9066  1.1714 -0.0520
  844MOL0     H13912  -1.129   3.377   7.668 -0.4774  0.4424 -0.6543
  844MOL0     H13913  -1.156   3.293   7.822 -0.4834 -0.9883 -1.9201
  844MOL0     H13914  -1.210   3.598   7.783  0.2746  0.7791  1.9765
  844MOL0     H13915  -1.224   3.506   7.924  0.7845  1.3087 -0.7551
  844MOL0     H13916  -1.371   3.454   7.663 -2.3415  1.6492  0.2496
  844MOL0     H13917  -1.392   3.358   7.802 -0.6020  0.2784 -0.2269
  844MOL0     H13918  -1.437   3.661   7.784 -1.5100 -0.2683  0.1277
  844MOL0     H13919  -1.443   3.564   7.929 -1.0307  2.0613 -0.0041
  844MOL0     H13920  -1.602   3.510   7.666  2.4151 -3.7630  0.9120
  844MOL0     H13921  -1.678   3.613   7.793 -0.8978 -0.3306 -1.2388
  844MOL0     H13922  -0.595   3.514   7.453  0.8698  2.3246 -0.6521
  844MOL0     H13923  -0.365   3.618   7.438 -1.6471  0.3638 -0.2737
  844MOL0     H13924  -0.024   3.729   7.450  1.5470  0.4055 -1.0208
  844MOL0     H13925   0.082   3.893   7.312 -1.0229  0.7007 -0.5423
  844MOL0     H13926   1.089   5.147   6.172 -1.8322 -0.8779  0.1206
  844MOL0     H13927   1.304   5.204   6.109  1.6163 -0.6654 -0.5483
  844MOL0     H13928   1.724   5.057   5.803  0.6648  4.0103  1.2845
  844MOL0     H13929   1.954   4.995   5.759  0.3559 -0.5450  0.1140
  844MOL0     H13930   2.308   4.812   5.966  1.0765 -2.2274  0.9373
  844MOL0     H13931   2.207   4.829   6.112 -1.7569 -0.1512  0.4089
  844MOL0     H13932   2.049   4.646   6.001  0.1600 -0.9663  2.1768
  844MOL0     H13933   2.209   4.593   6.038 -1.0034 -1.1649 -0.5812
  844MOL0     H13934   2.147   4.506   5.827 -1.4563  0.5952 -1.6731
  844MOL0     H13935   2.274   4.622   5.794  0.3685 -0.7613  1.4423
  844MOL0     H13936   2.115   4.774   5.699  0.5547 -0.3001  0.4112
  844MOL0     H13937   1.985   4.720   5.801 -0.8565 -0.6336 -1.9050
  844MOL0     H13938   1.976   4.469   5.444 -0.6893  0.2774  0.2944
  844MOL0     H13939   1.999   4.883   6.166 -2.0043 -3.5047  1.3735
  844MOL0     H13940   1.763   4.932   6.220 -1.6707  0.0538 -0.4993
  845MOL0     O13941  10.451   2.833   6.475  0.4825 -0.5110  0.2916
  845MOL0     C13942  10.446   2.958   6.471 -0.5558  0.2783 -0.9117
  845MOL0     O13943  10.333   3.039   6.474 -0.4368  0.3835  0.6420
  845MOL0     C13944  10.209   2.979   6.495 -0.0913  0.1460  0.2306
  845MOL0     C13945  10.175   2.898   6.608  0.0518 -1.2345  0.1417
  845MOL0     C13946  10.052   2.850   6.618 -0.0145 -1.0574  0.0977
  845MOL0     C13947   9.952   2.884   6.529  0.1146  0.2008  0.1992
  845MOL0     O13948   9.825   2.838   6.556  0.2196 -0.2351  0.0717
  845MOL0     C13949   9.733   2.803   6.448 -0.7175  0.4828 -0.3280
  845MOL0     C13950   9.599   2.878   6.470 -0.2490  0.5141  0.3685
  845MOL0     C13951   9.489   2.828   6.378 -0.1891  1.0091  0.3463
  845MOL0     C13952   9.358   2.857   6.445  0.2632  0.2987  0.3565
  845MOL0     C13953   9.241   2.877   6.356 -0.1532  0.6775 -0.3514
  845MOL0     C13954   9.253   3.002   6.268  0.4384 -0.0177 -0.4321
  845MOL0     C13955   9.110   3.066   6.244 -0.0960  0.3767 -0.5738
  845MOL0     C13956   9.128   3.196   6.174  1.0193 -0.2756 -0.4339
  845MOL0     N13957   9.001   3.268   6.155  0.9031 -0.4628  0.6245
  845MOL0     C13958   8.977   3.392   6.210 -0.7292 -0.5794 -0.0594
  845MOL0     C13959   8.848   3.424   6.194  0.0675  0.3809  0.4554
  845MOL0     C13960   8.778   3.540   6.264 -0.5537 -0.2676 -0.0604
  845MOL0     C13961   8.679   3.482   6.366  0.2682 -0.3044  1.2206
  845MOL0     C13962   8.617   3.601   6.445 -1.0761  0.6958  0.4578
  845MOL0     C13963   8.538   3.543   6.564  0.4886  0.5130  0.1685
  845MOL0     O13964   8.491   3.644   6.656  0.5805 -0.1812  0.3421
  845MOL0     C13965   8.387   3.725   6.620 -1.6152  0.2717 -0.2433
  845MOL0     C13966   8.325   3.719   6.500  0.2515  0.2483 -0.0353
  845MOL0     C13967   8.226   3.820   6.473 -0.3445  0.0536 -0.1108
  845MOL0     C13968   8.161   3.820   6.340  0.7542  0.5155  0.2306
  845MOL0     C13969   8.180   3.914   6.570  0.1103 -1.2766  0.7252
  845MOL0     C13970   8.072   4.019   6.548  0.3394  0.9395  0.2641
  845MOL0     O13971   7.995   4.050   6.656  0.0043 -0.8063 -0.0296
  845MOL0     C13972   7.890   4.131   6.632  0.1345  0.0576  0.2063
  845MOL0     C13973   7.902   4.268   6.628  0.1538 -0.4909  0.8581
  845MOL0     C13974   7.797   4.347   6.604 -0.4034  0.7018  1.0456
  845MOL0     C13975   7.668   4.298   6.588  0.0041  0.4422  0.1572
  845MOL0     O13976   7.561   4.386   6.572 -0.5808  0.4185 -0.6056
  845MOL0     C13977   7.430   4.337   6.535  0.1522  0.1502 -0.0415
  845MOL0     C13978   7.327   4.450   6.522 -0.2683  0.1317  0.5787
  845MOL0     C13979   7.193   4.390   6.483  0.6497  0.1906  0.2853
  845MOL0     C13980   7.072   4.482   6.485 -0.6127 -0.2771  0.5205
  845MOL0     C13981   6.945   4.390   6.460 -1.0707  0.5843  0.2041
  845MOL0     C13982   6.811   4.472   6.447 -0.9308  0.0791  0.4982
  845MOL0     C13983   6.772   4.505   6.582 -0.1493  0.0034 -0.7913
  845MOL0     C13984   6.637   4.581   6.589 -0.0880  0.4441  0.5841
  845MOL0    Cl13985   6.497   4.477   6.535 -0.0520 -0.0565  0.7403
  845MOL0     C13986   7.652   4.150   6.591  0.1052 -0.4406 -0.6697
  845MOL0     C13987   7.760   4.068   6.607 -0.9707 -0.2231  0.5748
  845MOL0     O13988   8.079   4.086   6.451 -0.1348 -0.6014  0.4795
  845MOL0     C13989   8.255   3.923   6.692  0.7102 -0.2068  0.5578
  845MOL0     C13990   8.354   3.828   6.711 -0.4227  0.1275 -0.3565
  845MOL0     N13991   8.807   3.328   6.108  0.2791 -0.2949  0.3545
  845MOL0     N13992   8.887   3.228   6.090  0.2241  0.7210 -0.3506
  845MOL0     C13993   9.986   2.968   6.418 -0.3614 -0.4970  0.3054
  845MOL0     C13994  10.119   3.016   6.404 -0.0941 -0.3811  0.7564
  845MOL0     C13995  10.574   3.032   6.487  0.4848  0.1258  0.4130
  845MOL0     C13996  10.697   2.958   6.498  0.5450  0.0104 -0.7024
  845MOL0     C13997  10.817   3.021   6.504 -0.2579 -0.1670 -0.4707
  845MOL0     C13998  10.832   3.162   6.511  0.5488  0.3767  0.3765
  845MOL0     O13999  10.948   3.229   6.520  0.4952  0.0710 -0.1431
  845MOL0     C14000  11.073   3.164   6.474  0.0873  0.1307 -0.8361
  845MOL0     C14001  11.191   3.268   6.490  0.3526 -0.0163 -0.0872
  845MOL0     C14002  11.220   3.263   6.641 -0.3159  0.1447  0.1777
  845MOL0     C14003  11.353   3.343   6.670 -0.7609 -0.0399 -0.7365
  845MOL0     C14004  11.481   3.270   6.624  0.3863 -0.7851  0.1261
  845MOL0     C14005  11.583   3.213   6.592  0.0451 -0.1860 -0.3800
  845MOL0     C14006  10.709   3.233   6.513 -0.0743  0.1814  0.3524
  845MOL0     C14007  10.583   3.171   6.498  0.3030  0.6946  0.0012
  845MOL0     H14008  10.252   2.874   6.681 -0.2234 -0.7106  0.6123
  845MOL0     H14009  10.031   2.781   6.700  0.3875  0.3126  1.3860
  845MOL0     H14010   9.773   2.821   6.348  2.7019  0.3739  0.9129
  845MOL0     H14011   9.706   2.697   6.455  0.3167  0.1562 -1.1396
  845MOL0     H14012   9.574   2.870   6.576 -3.8218  1.9511 -0.2136
  845MOL0     H14013   9.617   2.985   6.453 -2.5896  1.1117  1.2788
  845MOL0     H14014   9.501   2.878   6.281 -0.6694 -2.4316 -1.6680
  845MOL0     H14015   9.487   2.720   6.362  1.7824  1.2469 -2.1613
  845MOL0     H14016   9.330   2.779   6.516 -1.2743  0.3575 -0.1480
  845MOL0     H14017   9.359   2.956   6.490 -1.8417  1.0362 -1.0630
  845MOL0     H14018   9.239   2.786   6.296  2.1982  0.0832  0.3544
  845MOL0     H14019   9.153   2.877   6.422  0.2939  0.0814  0.2605
  845MOL0     H14020   9.303   3.084   6.320  0.7841  0.4303 -1.4480
  845MOL0     H14021   9.297   2.980   6.170 -2.5117 -2.2685 -1.4034
  845MOL0     H14022   9.041   3.008   6.183  1.8023 -1.6420 -0.9393
  845MOL0     H14023   9.066   3.089   6.341 -0.4362 -4.6858  0.7112
  845MOL0     H14024   9.164   3.170   6.073 -0.0090 -0.6910 -0.7110
  845MOL0     H14025   9.194   3.262   6.231  0.7392 -0.8031  0.5116
  845MOL0     H14026   9.050   3.450   6.265  1.9954 -0.9048 -3.0081
  845MOL0     H14027   8.851   3.608   6.309  0.1879 -1.1907  0.1589
  845MOL0     H14028   8.733   3.599   6.184  1.9932  0.6155 -0.9218
  845MOL0     H14029   8.733   3.421   6.439 -0.6542 -2.0213  0.5254
  845MOL0     H14030   8.601   3.422   6.320  1.5691 -1.1579  0.0567
  845MOL0     H14031   8.557   3.667   6.382 -0.5301  0.2745 -0.5242
  845MOL0     H14032   8.693   3.660   6.496 -1.2679 -0.2406  1.9017
  845MOL0     H14033   8.591   3.474   6.630 -1.4634  1.0859  2.4698
  845MOL0     H14034   8.452   3.491   6.521 -0.8123  1.9145  0.9848
  845MOL0     H14035   8.342   3.646   6.420  0.5520 -2.2541  2.1776
  845MOL0     H14036   8.195   3.911   6.289 -0.0937  1.1692  0.8110
  845MOL0     H14037   8.194   3.732   6.284  0.7000 -0.5457  1.8322
  845MOL0     H14038   8.052   3.830   6.339  0.6593  0.4909 -3.1453
  845MOL0     H14039   8.001   4.309   6.645 -0.2810  0.7155  0.5456
  845MOL0     H14040   7.808   4.454   6.602  1.8185  0.5228 -1.1482
  845MOL0     H14041   7.448   4.291   6.437  1.2359  1.2754 -0.3882
  845MOL0     H14042   7.380   4.261   6.596 -3.1111  1.7121 -0.4996
  845MOL0     H14043   7.322   4.509   6.614  0.6089 -1.8368  1.9725
  845MOL0     H14044   7.354   4.515   6.439  0.3769 -1.9285 -0.9308
  845MOL0     H14045   7.188   4.312   6.560  2.0029 -1.9501 -1.6362
  845MOL0     H14046   7.202   4.337   6.387  0.8007 -1.4254  1.1436
  845MOL0     H14047   7.063   4.540   6.577  1.6513  1.9613 -0.5232
  845MOL0     H14048   7.081   4.559   6.408 -2.4609  1.3221  1.8179
  845MOL0     H14049   6.937   4.303   6.526 -1.2541 -0.8086 -1.5752
  845MOL0     H14050   6.949   4.350   6.358  1.2174  2.7589 -0.6841
  845MOL0     H14051   6.831   4.560   6.385  0.6088 -0.8598 -0.4208
  845MOL0     H14052   6.735   4.412   6.396 -0.9539 -2.4738  3.2118
  845MOL0     H14053   6.853   4.562   6.627 -1.6801  0.6860  1.2666
  845MOL0     H14054   6.754   4.414   6.641 -1.1418  1.7833  1.7991
  845MOL0     H14055   6.633   4.662   6.516 -3.0901 -1.8891 -2.1158
  845MOL0     H14056   6.611   4.624   6.686 -1.1231 -1.9230  1.4264
  845MOL0     H14057   7.548   4.122   6.576 -0.1878  0.7910 -1.0104
  845MOL0     H14058   7.755   3.961   6.622  1.2602 -0.3254  0.8060
  845MOL0     H14059   8.228   3.998   6.767  2.2790  1.0637 -0.0860
  845MOL0     H14060   8.412   3.824   6.803 -0.9545 -1.8249 -0.0628
  845MOL0     H14061   9.915   2.988   6.339 -0.5539 -1.5506  0.1988
  845MOL0     H14062  10.130   3.079   6.316  2.7284  0.1621  1.3964
  845MOL0     H14063  10.705   2.850   6.485  2.6577 -0.0941  0.9335
  845MOL0     H14064  10.907   2.961   6.510 -0.3544 -0.4559 -1.6576
  845MOL0     H14065  11.093   3.079   6.539 -1.7517  0.5002  0.3049
  845MOL0     H14066  11.074   3.126   6.371  1.9719 -2.4064  0.0162
  845MOL0     H14067  11.161   3.368   6.457  0.5085 -0.4219 -1.5131
  845MOL0     H14068  11.277   3.246   6.426  2.0177  3.4745  0.6735
  845MOL0     H14069  11.250   3.163   6.673  2.3481 -0.0320 -2.4169
  845MOL0     H14070  11.135   3.297   6.701 -1.0106 -1.0431 -0.1114
  845MOL0     H14071  11.357   3.367   6.777  1.0515  1.5113 -1.0899
  845MOL0     H14072  11.352   3.438   6.616  1.5262 -0.5833 -1.8627
  845MOL0     H14073  11.681   3.177   6.565  0.0315 -0.5752  0.0866
  845MOL0     H14074  10.707   3.341   6.526  1.6478  0.4462 -1.0969
  845MOL0     H14075  10.495   3.235   6.489 -0.2308 -0.0080  0.1641
  846MOL0     O14076   9.610   2.126  10.785 -0.1160 -0.8309  0.0457
  846MOL0     C14077   9.596   2.108  10.662  0.4896 -0.1251 -0.0412
  846MOL0     O14078   9.479   2.078  10.595 -0.7427 -0.2003  0.4142
  846MOL0     C14079   9.368   2.101  10.675 -0.4202  0.5738  0.1698
  846MOL0     C14080   9.318   2.230  10.680  0.7798 -0.2177 -0.7521
  846MOL0     C14081   9.195   2.256  10.747 -0.2960  0.2093 -0.0071
  846MOL0     C14082   9.138   2.151  10.820 -0.7099 -0.4398  0.2494
  846MOL0     O14083   9.021   2.171  10.883  1.0473  0.2797 -0.1144
  846MOL0     C14084   9.033   2.230  11.016 -0.6942 -0.0923  0.1629
  846MOL0     C14085   8.890   2.248  11.076  0.4510  0.2075  0.7728
  846MOL0     C14086   8.833   2.118  11.125 -0.3453  0.0362 -0.6550
  846MOL0     C14087   8.711   2.138  11.218  0.6321 -0.1236 -0.3149
  846MOL0     C14088   8.587   2.205  11.152  0.0761 -1.0810 -0.5772
  846MOL0     C14089   8.594   2.355  11.192 -0.0815 -0.6540 -0.1948
  846MOL0     C14090   8.488   2.433  11.121  0.8152 -0.0098  0.4861
  846MOL0     C14091   8.348   2.380  11.161  0.4353 -0.5471 -0.2248
  846MOL0     N14092   8.246   2.487  11.149 -0.9339 -0.4287 -0.7730
  846MOL0     C14093   8.219   2.567  11.252 -0.3227 -0.3232 -0.4436
  846MOL0     C14094   8.113   2.641  11.208 -0.1769  0.1546  0.0143
  846MOL0     C14095   8.041   2.742  11.299  0.3041  0.6803  0.4136
  846MOL0     C14096   7.917   2.809  11.232  0.1399  0.4162  0.4715
  846MOL0     C14097   7.807   2.706  11.205 -0.5443  0.3925  0.5015
  846MOL0     C14098   7.687   2.782  11.161 -0.2267 -0.1020  0.0000
  846MOL0     O14099   7.567   2.700  11.160 -0.3584 -0.0803 -0.3720
  846MOL0     C14100   7.446   2.762  11.132 -0.6625 -0.7556 -0.2146
  846MOL0     C14101   7.434   2.884  11.064  0.3239  0.4624 -0.5734
  846MOL0     C14102   7.315   2.952  11.043 -0.3285 -0.1345  0.1050
  846MOL0     C14103   7.321   3.082  10.967 -0.4945 -0.1970 -0.6688
  846MOL0     C14104   7.194   2.889  11.094 -0.2099 -0.6766 -0.1168
  846MOL0     C14105   7.053   2.951  11.088  0.2514  0.4168  0.3491
  846MOL0     O14106   6.962   2.889  11.169  0.3316  0.2417  0.0606
  846MOL0     C14107   6.828   2.920  11.169 -0.1486  0.1400  0.6261
  846MOL0     C14108   6.760   2.932  11.283  0.6376 -0.3963 -0.9524
  846MOL0     C14109   6.623   2.960  11.286  0.6245  0.4563  0.4142
  846MOL0     C14110   6.553   2.988  11.163 -0.3106 -0.4600  0.0129
  846MOL0     O14111   6.421   3.021  11.155  0.2398 -0.8148 -0.6731
  846MOL0     C14112   6.362   3.101  11.262  0.3712  0.0209 -0.1332
  846MOL0     C14113   6.288   3.021  11.366  0.4930  0.2531  0.2310
  846MOL0     C14114   6.165   2.955  11.298  0.0974 -0.2175 -0.0366
  846MOL0     C14115   6.041   3.041  11.312  0.3069 -0.4572  0.2544
  846MOL0     C14116   5.923   2.986  11.216 -0.3059 -0.3256 -0.3630
  846MOL0     C14117   5.785   3.049  11.228 -0.3969 -0.8381 -0.2370
  846MOL0     C14118   5.689   3.003  11.115 -0.4908  0.1870  0.3013
  846MOL0     C14119   5.659   2.856  11.128  0.2090 -0.1580  0.3718
  846MOL0    Cl14120   5.595   2.817  11.295  0.2306 -0.7913 -0.0468
  846MOL0     C14121   6.627   2.984  11.046  0.1122  0.9512  0.5866
  846MOL0     C14122   6.755   2.935  11.051  0.5210 -0.0901  0.3150
  846MOL0     O14123   7.023   3.040  11.010  0.0415 -0.8547  0.4148
  846MOL0     C14124   7.207   2.767  11.152 -0.2593  0.5214 -0.0979
  846MOL0     C14125   7.329   2.699  11.175  0.0013 -0.3308  0.2947
  846MOL0     N14126   8.090   2.611  11.074  0.1554 -1.2390 -0.7369
  846MOL0     N14127   8.174   2.521  11.043  0.7252  0.3136  0.0965
  846MOL0     C14128   9.191   2.022  10.823 -0.1579 -0.5624 -0.5661
  846MOL0     C14129   9.309   2.003  10.750  1.1274 -0.3052  0.6517
  846MOL0     C14130   9.716   2.123  10.576  0.0900 -0.1801 -0.0269
  846MOL0     C14131   9.704   2.120  10.433  0.4641 -0.5718  0.2310
  846MOL0     C14132   9.820   2.115  10.352  0.7631  0.2261 -0.3883
  846MOL0     C14133   9.942   2.137  10.404 -0.4803 -2.0384  0.3608
  846MOL0     O14134  10.032   2.163  10.306  0.2874  0.0933  0.1365
  846MOL0     C14135  10.038   2.294  10.253 -0.4949 -0.2437  0.6547
  846MOL0     C14136  10.169   2.302  10.172 -0.6486 -0.4343 -0.1497
  846MOL0     C14137  10.293   2.283  10.269 -0.0881  0.1677  0.0325
  846MOL0     C14138  10.420   2.342  10.210  1.4878 -0.1858  0.3654
  846MOL0     C14139  10.452   2.274  10.080 -0.4925 -0.9798 -0.5835
  846MOL0     C14140  10.476   2.224   9.971 -0.6491  0.8450  0.1812
  846MOL0     C14141   9.959   2.144  10.543 -0.5042 -0.2734  0.0495
  846MOL0     C14142   9.848   2.126  10.629  0.0401 -1.0229  0.1548
  846MOL0     H14143   9.372   2.308  10.628  1.1010 -0.5096 -0.8680
  846MOL0     H14144   9.147   2.353  10.751 -1.1170 -0.2012  4.4597
  846MOL0     H14145   9.091   2.166  11.082  0.0971  0.2139 -0.2209
  846MOL0     H14146   9.090   2.323  11.012 -1.2226  0.2070 -0.8581
  846MOL0     H14147   8.884   2.323  11.156  1.6192  0.4936  0.6035
  846MOL0     H14148   8.819   2.282  11.000 -2.4354 -3.4342  1.5018
  846MOL0     H14149   8.815   2.052  11.040  2.5030  0.0165 -1.3367
  846MOL0     H14150   8.912   2.068  11.184  0.9687  1.0094 -1.5337
  846MOL0     H14151   8.682   2.034  11.235  0.6312  0.0584  0.8941
  846MOL0     H14152   8.747   2.181  11.312  2.1201  0.7419 -1.2493
  846MOL0     H14153   8.578   2.189  11.044  0.2277 -0.3303 -0.7089
  846MOL0     H14154   8.500   2.160  11.200 -2.2003  2.7216 -0.7395
  846MOL0     H14155   8.578   2.377  11.298  1.7575 -1.3797  0.2674
  846MOL0     H14156   8.692   2.388  11.156 -0.3013 -0.1931 -0.3805
  846MOL0     H14157   8.491   2.538  11.153  1.4681  0.2723 -0.4524
  846MOL0     H14158   8.497   2.428  11.012 -3.2908 -1.7859  0.0440
  846MOL0     H14159   8.344   2.358  11.268 -1.8483  1.9424  0.2889
  846MOL0     H14160   8.315   2.291  11.106  0.9618 -0.6501 -0.3808
  846MOL0     H14161   8.267   2.569  11.349  2.5820  2.0187 -1.7653
  846MOL0     H14162   8.011   2.696  11.394  0.7941 -1.2991 -0.3340
  846MOL0     H14163   8.113   2.822  11.319  1.5004 -0.0733 -0.7485
  846MOL0     H14164   7.947   2.853  11.136  0.9296  2.5772  1.6437
  846MOL0     H14165   7.888   2.889  11.301 -0.1608  0.7218 -0.0015
  846MOL0     H14166   7.781   2.646  11.292 -2.0175 -1.1999 -0.9812
  846MOL0     H14167   7.837   2.635  11.127 -1.9099  1.3228 -0.9397
  846MOL0     H14168   7.704   2.828  11.063 -1.1054  0.9698  0.3294
  846MOL0     H14169   7.660   2.862  11.230  1.9316  0.5216  0.1756
  846MOL0     H14170   7.524   2.924  11.018  0.8036 -1.4657 -1.4100
  846MOL0     H14171   7.419   3.109  10.925  0.7029  1.6547  2.8888
  846MOL0     H14172   7.251   3.079  10.883 -1.9850  2.3639  0.3517
  846MOL0     H14173   7.293   3.170  11.027 -0.3517 -1.1489  0.8426
  846MOL0     H14174   6.823   2.933  11.372 -0.2766 -2.8345 -0.1970
  846MOL0     H14175   6.570   2.966  11.381  0.9370  1.8778  0.5362
  846MOL0     H14176   6.443   3.161  11.305  1.4763 -2.3815  1.2764
  846MOL0     H14177   6.291   3.174  11.221  3.0976  2.0652 -1.6121
  846MOL0     H14178   6.346   2.943  11.416  0.0604  0.6539  1.3876
  846MOL0     H14179   6.265   3.081  11.454  2.1703 -0.7750  1.4405
  846MOL0     H14180   6.147   2.861  11.350 -1.2630 -0.3084 -0.6224
  846MOL0     H14181   6.184   2.946  11.190 -1.3868  1.3386 -0.4759
  846MOL0     H14182   6.005   3.050  11.415  0.4730 -1.6797  0.4325
  846MOL0     H14183   6.062   3.146  11.293  3.1353 -1.0299 -0.2794
  846MOL0     H14184   5.905   2.889  11.264 -2.7717 -0.0922 -0.6892
  846MOL0     H14185   5.958   2.956  11.117  3.2862 -2.2502  1.2761
  846MOL0     H14186   5.747   3.015  11.325  0.1988 -1.8963 -0.3666
  846MOL0     H14187   5.789   3.159  11.226 -0.1866 -0.8440 -0.1435
  846MOL0     H14188   5.732   3.017  11.016 -0.0994  2.5977  0.7454
  846MOL0     H14189   5.592   3.054  11.113  0.0371  1.3036  1.6782
  846MOL0     H14190   5.741   2.786  11.110 -1.4786 -1.8369 -1.2886
  846MOL0     H14191   5.584   2.826  11.055  0.3809  1.7360 -0.6321
  846MOL0     H14192   6.572   2.992  10.953 -0.6608 -1.3402  0.7817
  846MOL0     H14193   6.811   2.912  10.961 -0.6718 -0.6788 -0.3128
  846MOL0     H14194   7.127   2.715  11.205  0.3267 -1.7168 -1.2866
  846MOL0     H14195   7.342   2.604  11.227  1.0952  0.0987  0.8321
  846MOL0     H14196   9.139   1.941  10.873 -1.0203  0.3801  0.1126
  846MOL0     H14197   9.347   1.902  10.745  0.0658 -0.7539  1.3472
  846MOL0     H14198   9.602   2.122  10.396  0.7758  3.5669 -0.8221
  846MOL0     H14199   9.804   2.107  10.245  1.2525  0.0053 -0.4500
  846MOL0     H14200   9.954   2.326  10.191 -0.0342  3.0337  1.5511
  846MOL0     H14201  10.044   2.371  10.330 -0.2961 -0.5930  0.9960
  846MOL0     H14202  10.176   2.403  10.130 -4.7517 -0.5373 -1.4670
  846MOL0     H14203  10.172   2.228  10.091  0.8475  1.1031 -1.6030
  846MOL0     H14204  10.310   2.176  10.284  1.0529  0.6140  2.4151
  846MOL0     H14205  10.267   2.323  10.368 -1.3741 -1.4049  0.3833
  846MOL0     H14206  10.501   2.332  10.284  0.1745 -2.2609  1.6157
  846MOL0     H14207  10.401   2.448  10.191  0.8810 -0.1796  0.9814
  846MOL0     H14208  10.494   2.189   9.871  0.1381 -0.6181  0.8059
  846MOL0     H14209  10.056   2.156  10.589 -1.7730 -0.1714  2.9161
  846MOL0     H14210   9.868   2.141  10.735  0.8567  0.9132 -0.2404
  847MOL0     O14211   7.922  11.089   2.764  0.6341 -0.5652 -0.5955
  847MOL0     C14212   8.012  11.048   2.692 -0.0548 -0.3495  1.2297
  847MOL0     O14213   8.004  10.951   2.612  0.2597  0.0209  0.4869
  847MOL0     C14214   7.870  10.905   2.585 -1.1082  0.2657  0.5561
  847MOL0     C14215   7.757  10.989   2.552 -0.2118  0.5252 -0.1992
  847MOL0     C14216   7.640  10.931   2.509 -0.1999  0.7527  0.6432
  847MOL0     C14217   7.613  10.792   2.503 -0.4956 -0.3469  0.2133
  847MOL0     O14218   7.498  10.745   2.444 -0.6696  0.6556  0.0824
  847MOL0     C14219   7.504  10.612   2.394 -0.4001 -0.0095 -0.2288
  847MOL0     C14220   7.387  10.578   2.303 -0.6883 -0.4011 -0.1701
  847MOL0     C14221   7.365  10.430   2.272 -0.1922 -0.6065 -0.3785
  847MOL0     C14222   7.274  10.390   2.154 -0.5862  0.5332 -0.0279
  847MOL0     C14223   7.120  10.418   2.170 -0.8065 -0.4523 -0.3113
  847MOL0     C14224   7.034  10.377   2.054 -0.2163  0.5721  1.3825
  847MOL0     C14225   6.888  10.373   2.100 -0.6897  0.4683 -0.8194
  847MOL0     C14226   6.801  10.369   1.974  0.8050 -0.5905  0.4775
  847MOL0     N14227   6.659  10.405   1.994 -0.3847  0.9264  0.2885
  847MOL0     C14228   6.601  10.473   2.094  0.8286  0.3519 -0.0116
  847MOL0     C14229   6.474  10.485   2.065 -0.4660  0.9548 -0.2102
  847MOL0     C14230   6.376  10.588   2.120 -0.7858  0.0748  0.0324
  847MOL0     C14231   6.245  10.544   2.166 -0.1909 -0.6072  1.0201
  847MOL0     C14232   6.236  10.400   2.203  0.0074  0.2445 -0.8637
  847MOL0     C14233   6.091  10.353   2.231  0.4909 -0.5831  0.2468
  847MOL0     O14234   6.009  10.376   2.119 -0.5728 -0.3679  0.6744
  847MOL0     C14235   5.875  10.347   2.127 -0.9828  0.4247 -0.3952
  847MOL0     C14236   5.794  10.410   2.039 -0.2247 -0.1801 -0.2189
  847MOL0     C14237   5.657  10.387   2.036 -0.0245 -0.2267  0.5310
  847MOL0     C14238   5.588  10.478   1.934 -0.3137 -0.2418  0.6406
  847MOL0     C14239   5.586  10.307   2.125  0.3448 -0.7637 -0.0897
  847MOL0     C14240   5.438  10.288   2.133 -0.0482  0.5379 -0.4710
  847MOL0     O14241   5.392  10.180   2.206 -0.6955 -0.5217 -0.0765
  847MOL0     C14242   5.256  10.152   2.192 -1.2831  0.4145 -0.4711
  847MOL0     C14243   5.160  10.219   2.267  0.0665 -0.5285 -0.2047
  847MOL0     C14244   5.024  10.180   2.253 -0.5156  0.5760  0.4408
  847MOL0     C14245   4.971  10.070   2.173 -0.0883 -0.3812 -0.4106
  847MOL0     O14246   4.837  10.033   2.174  0.3242  0.8929  0.3295
  847MOL0     C14247   4.775  10.028   2.311  0.9874 -0.0408 -0.2227
  847MOL0     C14248   4.654   9.929   2.310 -0.2198 -0.2751 -0.1200
  847MOL0     C14249   4.531   9.986   2.233 -0.1894  1.1382 -0.2384
  847MOL0     C14250   4.446   9.866   2.189 -0.7751 -0.3142 -0.9381
  847MOL0     C14251   4.310   9.908   2.153  0.2310 -0.0442 -0.1415
  847MOL0     C14252   4.237   9.794   2.098 -0.3215 -0.0938 -0.2108
  847MOL0     C14253   4.094   9.829   2.063 -0.2071 -0.3928  0.8599
  847MOL0     C14254   4.003   9.708   2.044 -0.7837 -0.0258 -1.2998
  847MOL0    Cl14255   3.978   9.621   2.203  0.1833  0.0652 -0.4924
  847MOL0     C14256   5.076  10.014   2.090  0.3876 -0.4552 -0.8083
  847MOL0     C14257   5.216  10.047   2.097  0.4872 -0.2292  0.4842
  847MOL0     O14258   5.363  10.374   2.089  0.0474 -0.0160 -0.3409
  847MOL0     C14259   5.672  10.239   2.217  0.6555 -0.2931  0.0038
  847MOL0     C14260   5.809  10.264   2.222 -1.4633 -0.0369 -0.2351
  847MOL0     N14261   6.456  10.426   1.944  0.4283 -0.1219  0.4140
  847MOL0     N14262   6.568  10.380   1.895  1.0634 -0.2612  0.1508
  847MOL0     C14263   7.723  10.712   2.551 -0.1753  0.1292 -0.7512
  847MOL0     C14264   7.846  10.763   2.590  0.8399 -0.5712 -0.6525
  847MOL0     C14265   8.148  11.095   2.708  0.0929 -0.1618  1.1878
  847MOL0     C14266   8.253  11.056   2.630 -0.0396  0.0184  0.3987
  847MOL0     C14267   8.375  11.122   2.645 -0.6274  0.5610  0.2636
  847MOL0     C14268   8.405  11.191   2.764  0.4169  0.8467 -0.3146
  847MOL0     O14269   8.534  11.230   2.770 -0.2596 -0.2952  0.1757
  847MOL0     C14270   8.575  11.321   2.874  0.4761 -0.0818  0.3140
  847MOL0     C14271   8.575  11.472   2.828 -1.2611  0.0417  0.3649
  847MOL0     C14272   8.675  11.492   2.719  1.2484  0.3879 -0.1955
  847MOL0     C14273   8.692  11.642   2.698  0.3769  0.3801  0.8372
  847MOL0     C14274   8.727  11.670   2.558 -0.2713  0.3563 -0.3384
  847MOL0     C14275   8.757  11.704   2.452  0.2934 -0.0701 -0.2091
  847MOL0     C14276   8.297  11.213   2.850  0.1004  0.9064 -0.3770
  847MOL0     C14277   8.170  11.178   2.818  1.2725  0.5427  0.8200
  847MOL0     H14278   7.773  11.096   2.546 -1.5798  0.7372 -0.3040
  847MOL0     H14279   7.567  11.003   2.472 -2.1331 -0.1186  2.5214
  847MOL0     H14280   7.593  10.597   2.331 -0.8008  1.5322 -1.2179
  847MOL0     H14281   7.505  10.536   2.472 -2.3745  1.5584  1.4223
  847MOL0     H14282   7.302  10.603   2.367 -0.1075 -0.2393  0.5457
  847MOL0     H14283   7.388  10.623   2.203  1.2112  3.4541  1.3752
  847MOL0     H14284   7.467  10.389   2.268  0.4811  0.7963  1.1528
  847MOL0     H14285   7.323  10.379   2.360  0.2941 -0.8405 -0.2783
  847MOL0     H14286   7.314  10.438   2.064  3.8086 -1.5821  0.5297
  847MOL0     H14287   7.280  10.283   2.134 -1.4095  0.7531 -1.6278
  847MOL0     H14288   7.083  10.367   2.259 -0.2952 -0.9559 -0.3747
  847MOL0     H14289   7.105  10.524   2.190  1.6849 -0.5435  2.8514
  847MOL0     H14290   7.044  10.462   1.985 -1.4939  0.1075  0.5938
  847MOL0     H14291   7.061  10.284   2.004  1.1106  1.3415  0.5965
  847MOL0     H14292   6.877  10.286   2.166 -0.2077 -0.5979 -2.0858
  847MOL0     H14293   6.868  10.467   2.150 -0.3228  1.5894 -2.6695
  847MOL0     H14294   6.803  10.269   1.928  2.2616 -0.1112 -0.5500
  847MOL0     H14295   6.851  10.433   1.901 -1.1789 -1.3984 -1.7426
  847MOL0     H14296   6.656  10.521   2.174  0.3980  0.0241  0.4910
  847MOL0     H14297   6.432  10.623   2.207  1.1421 -1.6200 -0.4580
  847MOL0     H14298   6.364  10.675   2.054 -3.0850 -0.2833 -0.1095
  847MOL0     H14299   6.187  10.559   2.075  1.5039  2.2512  0.3065
  847MOL0     H14300   6.201  10.604   2.247  0.2542 -0.2019  0.9651
  847MOL0     H14301   6.299  10.383   2.290 -0.8114  3.1810  0.4216
  847MOL0     H14302   6.271  10.344   2.116  0.6511  1.2697 -1.2883
  847MOL0     H14303   6.070  10.418   2.316 -1.2211 -0.2724 -0.3683
  847MOL0     H14304   6.089  10.244   2.246 -1.7625 -0.6818 -0.4044
  847MOL0     H14305   5.838  10.472   1.961  0.4157 -0.4707 -0.0986
  847MOL0     H14306   5.657  10.531   1.868  0.4729 -2.4268 -0.3883
  847MOL0     H14307   5.540  10.420   1.855 -0.3776  1.9254 -1.0246
  847MOL0     H14308   5.512  10.541   1.982 -0.1208 -0.5157  1.3150
  847MOL0     H14309   5.196  10.294   2.336 -0.2772  0.4652 -1.0905
  847MOL0     H14310   4.963  10.235   2.325  0.8324  0.3062  1.8544
  847MOL0     H14311   4.846   9.996   2.388 -1.5240 -3.3450  1.0115
  847MOL0     H14312   4.746  10.131   2.335  2.0878  1.1004 -3.3364
  847MOL0     H14313   4.689   9.842   2.253 -0.5257  1.1282 -2.5859
  847MOL0     H14314   4.621   9.893   2.407 -1.6130 -1.7075 -1.0736
  847MOL0     H14315   4.549  10.043   2.141  0.8860  2.7228  0.8944
  847MOL0     H14316   4.476  10.038   2.312 -0.2414 -0.3773  0.7532
  847MOL0     H14317   4.493   9.812   2.106  0.1066  0.8006 -1.1946
  847MOL0     H14318   4.439   9.803   2.278 -1.3749  0.0212 -0.7449
  847MOL0     H14319   4.323   9.976   2.068 -1.5116 -0.1659 -0.5407
  847MOL0     H14320   4.253   9.939   2.241  0.9896 -3.0769  1.5508
  847MOL0     H14321   4.289   9.757   2.010 -1.5423 -0.0256 -0.9908
  847MOL0     H14322   4.219   9.713   2.170  1.7552  0.9907  1.6352
  847MOL0     H14323   4.078   9.894   1.976  0.0887 -0.0703  1.0439
  847MOL0     H14324   4.049   9.896   2.138 -0.7815  2.7122 -1.9766
  847MOL0     H14325   4.054   9.634   1.981  0.2893 -1.4732  1.1366
  847MOL0     H14326   3.906   9.730   1.997 -1.5629  0.5315  0.4881
  847MOL0     H14327   5.035   9.941   2.021  0.1329 -4.0695  2.7638
  847MOL0     H14328   5.297   9.999   2.042  0.5937  0.6990 -0.1896
  847MOL0     H14329   5.632  10.167   2.288  0.9740 -0.9133 -0.4413
  847MOL0     H14330   5.874  10.222   2.299 -1.8419  0.7486  0.5385
  847MOL0     H14331   7.714  10.605   2.543 -3.2711  0.3350 -1.0387
  847MOL0     H14332   7.925  10.697   2.624 -0.0488 -2.2667 -1.7243
  847MOL0     H14333   8.250  10.983   2.550 -4.6606 -0.0975  0.4364
  847MOL0     H14334   8.451  11.098   2.571 -0.2334 -2.2858  1.4856
  847MOL0     H14335   8.511  11.301   2.960  0.1759  0.0747  0.1293
  847MOL0     H14336   8.675  11.310   2.916  0.2411  0.9205  1.1842
  847MOL0     H14337   8.596  11.531   2.917 -1.0410 -1.9721  1.7068
  847MOL0     H14338   8.481  11.504   2.782 -0.8831 -0.9684 -1.2094
  847MOL0     H14339   8.639  11.439   2.631 -0.4424 -1.8399  1.7079
  847MOL0     H14340   8.772  11.456   2.754  0.7407  0.9940  2.0054
  847MOL0     H14341   8.776  11.672   2.761 -2.8024  3.3870  4.0815
  847MOL0     H14342   8.605  11.700   2.729  1.4760  1.7740  1.4305
  847MOL0     H14343   8.779  11.737   2.352  0.5918 -0.9916 -0.4616
  847MOL0     H14344   8.318  11.264   2.944  0.7061 -1.0430  0.6020
  847MOL0     H14345   8.082  11.206   2.876  0.0322 -1.2094 -0.1245
  848MOL0     O14346   5.068   5.584   2.293 -1.0647 -0.2258 -1.1271
  848MOL0     C14347   5.089   5.684   2.224  0.3293 -0.7659  0.0420
  848MOL0     O14348   5.002   5.774   2.182  0.8666 -0.5224 -0.0976
  848MOL0     C14349   4.865   5.759   2.202 -0.2139 -0.5046  0.0683
  848MOL0     C14350   4.800   5.680   2.299  0.6022  0.0399  0.1217
  848MOL0     C14351   4.668   5.666   2.295 -0.6426  0.0385  0.5411
  848MOL0     C14352   4.588   5.731   2.198  0.0625  0.2882  0.3049
  848MOL0     O14353   4.455   5.714   2.188  0.0924  0.1477 -0.3373
  848MOL0     C14354   4.405   5.605   2.249 -0.8393  0.1702  0.9242
  848MOL0     C14355   4.270   5.576   2.200  0.5323 -0.4892 -0.0305
  848MOL0     C14356   4.171   5.682   2.253 -1.1540 -0.3248  0.7140
  848MOL0     C14357   4.030   5.656   2.202  0.0211  1.0504 -0.3284
  848MOL0     C14358   3.933   5.768   2.231 -0.9919 -0.8314 -0.4217
  848MOL0     C14359   3.961   5.897   2.148  0.8241 -0.2014  0.2065
  848MOL0     C14360   3.862   6.008   2.186 -0.2434 -0.6403  0.2323
  848MOL0     C14361   3.710   5.986   2.158  0.8444 -0.2785 -0.3976
  848MOL0     N14362   3.613   6.093   2.151 -0.5685  0.6129 -0.4300
  848MOL0     C14363   3.601   6.193   2.061  0.0989  0.0639  0.5606
  848MOL0     C14364   3.519   6.283   2.119 -0.2557  0.0312 -0.1820
  848MOL0     C14365   3.499   6.417   2.063 -0.3431 -0.6737  0.3746
  848MOL0     C14366   3.360   6.465   2.051  0.3015 -0.1534 -0.8239
  848MOL0     C14367   3.287   6.411   1.924  0.1549  0.3128 -0.0282
  848MOL0     C14368   3.148   6.463   1.904 -0.2488  0.7390  0.5811
  848MOL0     O14369   3.065   6.422   2.010 -0.2921 -0.0572  0.1409
  848MOL0     C14370   2.947   6.375   1.967 -0.1291  0.1376  0.0608
  848MOL0     C14371   2.851   6.445   1.891  0.4724 -0.1776  0.6094
  848MOL0     C14372   2.732   6.387   1.846  0.6523  0.3644  0.7982
  848MOL0     C14373   2.655   6.477   1.744 -0.3467  0.6121  0.1937
  848MOL0     C14374   2.687   6.265   1.900  0.0871  1.0304  0.2990
  848MOL0     C14375   2.550   6.198   1.877  0.1047  0.2375 -0.1630
  848MOL0     O14376   2.525   6.069   1.925  0.0984 -0.3632  0.2537
  848MOL0     C14377   2.401   6.021   1.937  0.4207 -0.5069 -0.4380
  848MOL0     C14378   2.301   6.072   2.023 -0.0366  0.2563  0.5904
  848MOL0     C14379   2.183   5.991   2.033  0.1104 -1.3381 -0.2952
  848MOL0     C14380   2.156   5.892   1.945 -0.0796  0.8809  0.1245
  848MOL0     O14381   2.031   5.829   1.937  0.0023  0.7141  0.0400
  848MOL0     C14382   1.919   5.896   1.979  0.6582  0.3581  0.0717
  848MOL0     C14383   1.785   5.845   1.912 -0.0776 -0.2143 -0.3108
  848MOL0     C14384   1.766   5.697   1.928  0.2432  0.8419 -0.0141
  848MOL0     C14385   1.625   5.673   1.878  0.1505 -0.1348 -0.3160
  848MOL0     C14386   1.607   5.521   1.848 -0.1486  1.3148  0.5391
  848MOL0     C14387   1.462   5.476   1.807 -0.4974  0.7787 -0.0269
  848MOL0     C14388   1.397   5.553   1.689 -0.1900  0.3545 -0.5025
  848MOL0     C14389   1.475   5.530   1.553 -0.6831 -0.2924 -0.5298
  848MOL0    Cl14390   1.376   5.628   1.426  0.2165  0.0979 -0.5571
  848MOL0     C14391   2.265   5.842   1.869  0.0544 -0.6385  0.5493
  848MOL0     C14392   2.381   5.907   1.862 -0.0932 -0.2328  0.1034
  848MOL0     O14393   2.460   6.263   1.821 -0.6160 -0.2764 -0.2056
  848MOL0     C14394   2.779   6.204   1.987  0.0506  0.1071 -0.9656
  848MOL0     C14395   2.901   6.255   2.013  0.3762 -0.5041 -0.3111
  848MOL0     N14396   3.485   6.246   2.241  0.5982  0.0922 -0.1249
  848MOL0     N14397   3.543   6.136   2.259  0.3829 -0.0279  0.0292
  848MOL0     C14398   4.645   5.820   2.108 -0.4912  0.2625 -0.0931
  848MOL0     C14399   4.784   5.835   2.114 -0.2241  0.5736  0.1452
  848MOL0     C14400   5.230   5.725   2.205  0.0165 -1.0249 -0.2950
  848MOL0     C14401   5.335   5.638   2.236 -0.1469  0.0801  0.3593
  848MOL0     C14402   5.460   5.666   2.182 -1.4929 -0.1387  0.4887
  848MOL0     C14403   5.495   5.798   2.145  0.1135  0.1729  0.1526
  848MOL0     O14404   5.628   5.845   2.112  0.2228  0.0416  0.0425
  848MOL0     C14405   5.734   5.748   2.102 -0.4984  1.0862 -0.6447
  848MOL0     C14406   5.733   5.668   1.971 -0.0482 -0.8259  0.9922
  848MOL0     C14407   5.762   5.773   1.849 -0.2921 -0.0014  0.1561
  848MOL0     C14408   5.737   5.709   1.708  0.5781 -1.1626 -0.2330
  848MOL0     C14409   5.803   5.578   1.700 -0.2808  0.0031 -0.5228
  848MOL0     C14410   5.854   5.467   1.709  0.1134  1.2904 -0.3366
  848MOL0     C14411   5.393   5.881   2.118  0.0058 -0.3082  0.6408
  848MOL0     C14412   5.263   5.854   2.148 -0.2537 -0.6280 -0.9239
  848MOL0     H14413   4.854   5.628   2.378  1.5568 -0.8552 -1.0679
  848MOL0     H14414   4.621   5.598   2.365 -1.6958  0.3002  0.1132
  848MOL0     H14415   4.473   5.529   2.211  0.6708  1.9573 -0.1410
  848MOL0     H14416   4.414   5.604   2.358 -0.9129 -0.2763  0.9267
  848MOL0     H14417   4.267   5.580   2.091  1.3226 -1.9901 -0.1377
  848MOL0     H14418   4.239   5.473   2.223 -2.1839  0.2361 -0.0653
  848MOL0     H14419   4.181   5.685   2.362  3.3673  0.8722  0.4742
  848MOL0     H14420   4.197   5.774   2.200  0.7222 -1.0828  0.2502
  848MOL0     H14421   4.016   5.633   2.096 -1.8364 -1.7427  0.4057
  848MOL0     H14422   4.001   5.565   2.256 -1.0581  0.5540 -1.6950
  848MOL0     H14423   3.830   5.737   2.214 -2.9215  3.7917  1.1308
  848MOL0     H14424   3.923   5.792   2.337 -2.4043  2.6282 -1.1943
  848MOL0     H14425   4.062   5.933   2.170  0.4246  1.0982  0.0347
  848MOL0     H14426   3.948   5.900   2.039  1.7296  3.9739  0.0385
  848MOL0     H14427   3.881   6.035   2.291  0.7992  0.4704 -0.2250
  848MOL0     H14428   3.880   6.094   2.121 -0.6672  0.4791  1.5501
  848MOL0     H14429   3.670   5.933   2.244 -3.3101  2.4303 -0.4040
  848MOL0     H14430   3.707   5.931   2.063  1.0087 -1.7901  0.4383
  848MOL0     H14431   3.635   6.202   1.958  0.9161  2.1367  0.9573
  848MOL0     H14432   3.549   6.490   2.127 -0.9126  0.0489  0.0095
  848MOL0     H14433   3.538   6.420   1.961 -0.8272  6.3951 -0.0521
  848MOL0     H14434   3.372   6.574   2.059  3.1417 -0.5471  3.0287
  848MOL0     H14435   3.302   6.446   2.141 -1.0275  2.3104 -1.0531
  848MOL0     H14436   3.279   6.302   1.927 -1.2846  0.4109  0.4995
  848MOL0     H14437   3.340   6.439   1.833  0.8491  0.2156  0.3437
  848MOL0     H14438   3.109   6.447   1.803  2.4474  2.5484 -0.8396
  848MOL0     H14439   3.154   6.572   1.905 -0.8696  0.7952 -0.4879
  848MOL0     H14440   2.888   6.542   1.858 -1.3561 -0.2801 -2.0002
  848MOL0     H14441   2.547   6.460   1.740 -0.4771  1.6333 -1.2725
  848MOL0     H14442   2.686   6.581   1.757  1.3423  0.1526  0.0612
  848MOL0     H14443   2.678   6.439   1.644 -0.7555 -2.8365  1.2817
  848MOL0     H14444   2.321   6.156   2.090  0.0332  0.0879  0.7809
  848MOL0     H14445   2.102   6.026   2.096  1.4008 -0.7289  1.0912
  848MOL0     H14446   1.919   5.875   2.086 -4.0493 -1.7615 -0.0908
  848MOL0     H14447   1.922   6.004   1.963 -2.8211  0.5760  0.1569
  848MOL0     H14448   1.702   5.895   1.963 -0.7642  0.1726 -1.7582
  848MOL0     H14449   1.787   5.866   1.805  0.9646 -2.0099 -0.6858
  848MOL0     H14450   1.776   5.658   2.030 -1.1944 -1.8542 -0.8052
  848MOL0     H14451   1.842   5.646   1.867  0.0550 -0.0424  0.4765
  848MOL0     H14452   1.565   5.704   1.964  1.2139  0.7663  0.1251
  848MOL0     H14453   1.595   5.733   1.791 -0.9035 -0.5152 -0.2232
  848MOL0     H14454   1.638   5.471   1.940  0.1087  2.8122  1.2976
  848MOL0     H14455   1.675   5.499   1.766 -0.1641  1.1832  0.5613
  848MOL0     H14456   1.467   5.369   1.782  4.1474  1.0622 -1.1527
  848MOL0     H14457   1.402   5.499   1.896  0.2246  0.4943  0.5404
  848MOL0     H14458   1.384   5.658   1.715 -0.7028  0.3653 -0.7950
  848MOL0     H14459   1.297   5.510   1.680 -1.0523  1.7529  1.7220
  848MOL0     H14460   1.467   5.422   1.536  0.5544 -0.3869 -0.6010
  848MOL0     H14461   1.577   5.568   1.545  0.7663 -3.9373 -1.3799
  848MOL0     H14462   2.245   5.754   1.808 -0.3241  0.6961 -1.3158
  848MOL0     H14463   2.460   5.872   1.796  1.0882 -0.1963  1.4562
  848MOL0     H14464   2.756   6.110   2.036  0.0464  0.5672 -0.0640
  848MOL0     H14465   2.962   6.194   2.078  0.2814  0.2620  0.5092
  848MOL0     H14466   4.595   5.875   2.029  0.9028 -2.6878 -3.3217
  848MOL0     H14467   4.820   5.907   2.041 -3.2323  4.5881  2.2304
  848MOL0     H14468   5.312   5.535   2.263  2.6891 -1.2532 -1.7509
  848MOL0     H14469   5.530   5.583   2.196 -0.1841  0.4579 -1.9707
  848MOL0     H14470   5.826   5.806   2.095  1.5627 -2.1673 -4.3490
  848MOL0     H14471   5.739   5.684   2.190  2.4402  0.3835 -1.2107
  848MOL0     H14472   5.631   5.640   1.943 -0.3935  1.0771  0.2077
  848MOL0     H14473   5.791   5.575   1.964 -0.3728 -0.8872 -3.2326
  848MOL0     H14474   5.864   5.813   1.850 -0.9662  1.8420 -0.4752
  848MOL0     H14475   5.696   5.860   1.862 -2.9066 -1.8704  0.2965
  848MOL0     H14476   5.770   5.771   1.624 -2.1381 -1.0650 -1.3593
  848MOL0     H14477   5.628   5.709   1.695 -0.1288  3.8930  2.9554
  848MOL0     H14478   5.875   5.362   1.715  0.0792  1.3571  1.7105
  848MOL0     H14479   5.431   5.976   2.082 -1.6582 -0.0113 -0.4347
  848MOL0     H14480   5.185   5.918   2.110  0.0238  0.4044  0.1752
  849MOL0     O14481   3.723   4.827  10.305 -0.2279 -0.2685 -0.2801
  849MOL0     C14482   3.825   4.836  10.375  0.3042  0.5766 -0.6100
  849MOL0     O14483   3.823   4.858  10.508 -0.2970 -0.3082 -0.0829
  849MOL0     C14484   3.708   4.842  10.581  0.5742 -0.7121 -0.3352
  849MOL0     C14485   3.704   4.722  10.662 -0.0329 -1.1768  0.5890
  849MOL0     C14486   3.592   4.690  10.744  0.1676 -0.3002 -0.2511
  849MOL0     C14487   3.483   4.775  10.741  0.1386  0.8274  0.1339
  849MOL0     O14488   3.362   4.722  10.787 -0.6670  0.6257  0.7918
  849MOL0     C14489   3.261   4.802  10.847 -0.6063 -0.8560  1.0164
  849MOL0     C14490   3.231   4.724  10.979 -0.5885  0.7232  0.1323
  849MOL0     C14491   3.088   4.749  11.037 -0.2042 -0.4216 -0.1245
  849MOL0     C14492   3.042   4.635  11.127  0.2740 -0.9516  0.0431
  849MOL0     C14493   2.908   4.644  11.188  0.2899 -0.3560  0.4413
  849MOL0     C14494   2.791   4.640  11.087  0.4900 -0.4568  0.1901
  849MOL0     C14495   2.653   4.665  11.155  0.7861  0.2374 -0.1024
  849MOL0     C14496   2.543   4.655  11.054  0.5239  0.4883  0.8979
  849MOL0     N14497   2.408   4.655  11.124 -0.7169  0.5822  0.4809
  849MOL0     C14498   2.293   4.644  11.053 -0.2303 -0.5170  0.2668
  849MOL0     C14499   2.197   4.690  11.142 -0.4274  0.5812 -0.0040
  849MOL0     C14500   2.055   4.700  11.120  0.1188 -0.2539 -0.1126
  849MOL0     C14501   2.003   4.839  11.160  0.2997 -0.4471 -0.6604
  849MOL0     C14502   1.859   4.866  11.123  0.2463 -0.5088 -0.3889
  849MOL0     C14503   1.751   4.766  11.168 -0.3450  0.3490 -0.0552
  849MOL0     O14504   1.731   4.656  11.076  0.2739 -0.0218  0.3908
  849MOL0     C14505   1.612   4.582  11.075  0.5904 -0.3252 -0.7420
  849MOL0     C14506   1.491   4.640  11.125 -0.3232 -0.0029  0.2714
  849MOL0     C14507   1.369   4.575  11.113 -1.4007 -0.2685 -0.7018
  849MOL0     C14508   1.254   4.654  11.170  0.0870 -0.3652 -0.3486
  849MOL0     C14509   1.367   4.442  11.060  1.0236  0.2226  0.1717
  849MOL0     C14510   1.238   4.369  11.048  0.3721  0.0561  1.0580
  849MOL0     O14511   1.247   4.247  10.983 -1.1948 -0.4624 -1.1353
  849MOL0     C14512   1.136   4.179  10.954  0.7063  0.6225  0.0494
  849MOL0     C14513   1.106   4.066  11.029 -0.9023  1.0111  0.4438
  849MOL0     C14514   0.978   4.001  11.013  0.2759  0.4116 -0.3948
  849MOL0     C14515   0.888   4.049  10.920 -0.2799 -0.2971  0.6459
  849MOL0     O14516   0.762   3.998  10.902 -0.4169 -0.6022  0.7692
  849MOL0     C14517   0.759   3.857  10.879 -0.4500  0.2039  0.1055
  849MOL0     C14518   0.665   3.788  10.984  0.4509 -0.6447 -0.5757
  849MOL0     C14519   0.515   3.831  10.969  0.2693 -0.3743  0.4507
  849MOL0     C14520   0.438   3.747  10.861  0.6711  0.6045  0.2760
  849MOL0     C14521   0.291   3.790  10.876 -0.4028  0.2248 -0.0434
  849MOL0     C14522   0.201   3.715  10.787 -0.2538  0.5010 -0.7876
  849MOL0     C14523   0.177   3.570  10.835 -0.0391  1.4363  0.3674
  849MOL0     C14524   0.036   3.537  10.877  0.6571  0.0613 -0.3580
  849MOL0    Cl14525  -0.018   3.657  10.997  0.3241 -0.0513  0.3441
  849MOL0     C14526   0.919   4.163  10.840  0.6153  0.1304  0.5790
  849MOL0     C14527   1.043   4.226  10.867 -0.3599 -0.5202  0.2318
  849MOL0     O14528   1.127   4.419  11.074  0.2448  0.3491  0.1084
  849MOL0     C14529   1.490   4.384  11.025 -0.7320 -0.4367  0.7329
  849MOL0     C14530   1.611   4.453  11.025 -0.1261 -0.7985  0.1324
  849MOL0     N14531   2.258   4.704  11.270 -0.5190  0.7672  0.4563
  849MOL0     N14532   2.382   4.683  11.257  0.3532 -0.6749  0.2683
  849MOL0     C14533   3.488   4.886  10.661  0.4013  0.0040  0.4549
  849MOL0     C14534   3.598   4.922  10.582  0.2589 -0.0196  0.1759
  849MOL0     C14535   3.959   4.828  10.313  0.3504 -0.1576 -0.0079
  849MOL0     C14536   4.073   4.818  10.389 -0.2036  0.3126  0.4794
  849MOL0     C14537   4.196   4.816  10.328  0.0700 -0.8067 -0.2787
  849MOL0     C14538   4.207   4.829  10.189  0.3940  0.4731 -0.1956
  849MOL0     O14539   4.318   4.862  10.119  0.1026  0.5055  0.0932
  849MOL0     C14540   4.432   4.919  10.196  0.5945  0.0038  0.6193
  849MOL0     C14541   4.543   4.947  10.101 -0.1884 -0.1127  0.2730
  849MOL0     C14542   4.611   4.828  10.024  0.5326 -0.3562 -0.0087
  849MOL0     C14543   4.638   4.708  10.109  0.7243 -0.0254  0.1462
  849MOL0     C14544   4.733   4.741  10.216  0.0822 -0.1711 -0.3314
  849MOL0     C14545   4.811   4.762  10.309 -0.8374 -0.4682  0.3766
  849MOL0     C14546   4.087   4.824  10.112  0.5608  1.0682 -0.4259
  849MOL0     C14547   3.966   4.826  10.175  0.2077  0.0108  0.5942
  849MOL0     H14548   3.783   4.648  10.661 -0.5255 -1.7756 -2.4273
  849MOL0     H14549   3.600   4.599  10.802 -1.0870  0.8598  1.8297
  849MOL0     H14550   3.285   4.908  10.861  0.0906 -0.7567 -0.7174
  849MOL0     H14551   3.180   4.800  10.774 -0.2492 -1.1710  0.6277
  849MOL0     H14552   3.241   4.617  10.957  0.4255  0.1500  2.9513
  849MOL0     H14553   3.306   4.744  11.056 -0.8870 -1.7895  1.1944
  849MOL0     H14554   3.099   4.834  11.105 -3.2163 -1.0200  1.2940
  849MOL0     H14555   3.014   4.761  10.958 -0.7106  1.9916  0.6460
  849MOL0     H14556   3.046   4.545  11.066 -2.5620 -1.4799  0.5044
  849MOL0     H14557   3.121   4.628  11.202  2.7104  0.9771 -2.1250
  849MOL0     H14558   2.893   4.564  11.262 -4.1567 -1.0510 -0.8803
  849MOL0     H14559   2.906   4.741  11.237 -0.1549 -0.1336 -0.0091
  849MOL0     H14560   2.807   4.726  11.022  1.9963  0.6260  1.9038
  849MOL0     H14561   2.795   4.544  11.034  1.4937  0.0359 -0.6533
  849MOL0     H14562   2.635   4.594  11.236 -0.5284  0.8010  0.1194
  849MOL0     H14563   2.645   4.770  11.186  1.8375  0.8235 -1.6542
  849MOL0     H14564   2.557   4.561  11.000 -0.3078  1.9386 -2.0417
  849MOL0     H14565   2.548   4.737  10.982 -0.8032 -0.7351 -0.6700
  849MOL0     H14566   2.274   4.626  10.947  0.4347 -0.1181  0.0725
  849MOL0     H14567   2.031   4.669  11.018 -0.5742  0.7000 -0.2480
  849MOL0     H14568   2.015   4.627  11.192  1.3772  0.9457  1.9211
  849MOL0     H14569   2.072   4.903  11.104  2.7369 -1.4683  0.9770
  849MOL0     H14570   2.016   4.841  11.268  0.8923 -0.5512 -0.7257
  849MOL0     H14571   1.869   4.870  11.014  0.2453 -1.5369 -0.4333
  849MOL0     H14572   1.835   4.966  11.160  0.6361 -1.2288  1.9804
  849MOL0     H14573   1.662   4.830  11.173 -1.9979 -1.8479 -0.0544
  849MOL0     H14574   1.770   4.733  11.271 -0.2869 -0.3090 -0.2729
  849MOL0     H14575   1.478   4.731  11.182 -0.9092 -1.4531  2.5897
  849MOL0     H14576   1.269   4.756  11.207 -0.4145 -0.4952  0.2407
  849MOL0     H14577   1.179   4.669  11.092  0.6580  0.8015 -0.7072
  849MOL0     H14578   1.194   4.606  11.248 -3.9772  2.9904 -1.0607
  849MOL0     H14579   1.181   4.029  11.099  0.6965  3.0867 -0.0904
  849MOL0     H14580   0.957   3.909  11.066 -0.9057  0.5306 -0.6400
  849MOL0     H14581   0.719   3.847  10.777  2.1231  1.8624 -1.1786
  849MOL0     H14582   0.861   3.819  10.869  1.0611  3.3924  1.8418
  849MOL0     H14583   0.668   3.679  10.981  1.1600 -0.7694  2.0441
  849MOL0     H14584   0.701   3.816  11.083  1.6760 -4.4260  0.2227
  849MOL0     H14585   0.504   3.938  10.950 -0.6307 -0.4313  0.5935
  849MOL0     H14586   0.475   3.811  11.068  2.0263 -2.2972  0.8402
  849MOL0     H14587   0.471   3.775  10.761 -0.5161 -2.5162 -1.1350
  849MOL0     H14588   0.441   3.639  10.879 -1.1187  0.5375  0.3627
  849MOL0     H14589   0.267   3.895  10.854 -2.6147 -0.1001  0.5157
  849MOL0     H14590   0.265   3.768  10.980  0.5270 -3.1532 -0.4281
  849MOL0     H14591   0.106   3.763  10.761  0.5932  3.5935  1.2591
  849MOL0     H14592   0.249   3.710  10.689  1.7598  1.8446  0.0735
  849MOL0     H14593   0.247   3.542  10.914  0.7748  1.7471 -0.2296
  849MOL0     H14594   0.204   3.509  10.748  3.7168  3.8346 -0.3962
  849MOL0     H14595   0.028   3.434  10.912 -0.6367 -0.3011 -1.6228
  849MOL0     H14596  -0.026   3.550  10.787  1.0331 -2.9706 -1.1544
  849MOL0     H14597   0.853   4.202  10.764  0.9680  0.0228  0.2159
  849MOL0     H14598   1.072   4.323  10.826  0.4320 -1.0041 -0.3903
  849MOL0     H14599   1.485   4.284  10.983 -3.1193 -0.5893  1.2606
  849MOL0     H14600   1.689   4.404  10.968 -1.3583 -0.3164 -2.0780
  849MOL0     H14601   3.397   4.938  10.636  2.1386  2.4695 -1.2241
  849MOL0     H14602   3.602   5.012  10.521  2.5750 -0.0474  0.1741
  849MOL0     H14603   4.086   4.828  10.496  1.5054 -2.4445  0.6342
  849MOL0     H14604   4.291   4.818  10.382  1.8519 -3.6959 -2.9438
  849MOL0     H14605   4.408   5.013  10.247 -1.1870  0.3851 -0.7930
  849MOL0     H14606   4.464   4.847  10.272 -0.7740 -1.1215  0.1805
  849MOL0     H14607   4.623   4.998  10.156 -0.2328 -1.0323  1.2208
  849MOL0     H14608   4.505   5.013  10.023  0.8174  1.6065  1.2012
  849MOL0     H14609   4.699   4.875   9.980  0.0342  2.4553  1.8074
  849MOL0     H14610   4.539   4.805   9.944 -1.0085  0.8759  0.9782
  849MOL0     H14611   4.673   4.624  10.049  0.1035 -0.3653  0.2493
  849MOL0     H14612   4.540   4.682  10.150  1.1966 -0.3555  1.0826
  849MOL0     H14613   4.881   4.776  10.390 -1.0877  1.3129  0.3300
  849MOL0     H14614   4.108   4.819  10.005 -1.2622  1.1797 -0.8087
  849MOL0     H14615   3.879   4.829  10.110  0.9646 -2.3550 -0.6554
  850MOL0     O14616   9.821   1.413   6.328 -0.1390  0.1766  0.5180
  850MOL0     C14617   9.928   1.379   6.272  0.4247 -0.2395  0.7665
  850MOL0     O14618   9.960   1.378   6.129 -0.1911  0.5589  1.1104
  850MOL0     C14619   9.875   1.441   6.042 -0.8595  0.8903  1.0270
  850MOL0     C14620   9.734   1.420   6.044 -0.0280 -0.6722 -1.0180
  850MOL0     C14621   9.650   1.498   5.960 -0.0822  0.0954  0.2208
  850MOL0     C14622   9.701   1.582   5.859 -0.5127  0.6018  0.0282
  850MOL0     O14623   9.618   1.650   5.775 -0.2288 -0.3203 -0.6528
  850MOL0     C14624   9.662   1.743   5.684  0.4430  0.6354 -0.3337
  850MOL0     C14625   9.712   1.696   5.549  0.4743  0.5512 -0.1375
  850MOL0     C14626   9.726   1.800   5.432  0.4962  0.5893  0.1787
  850MOL0     C14627   9.784   1.927   5.480 -0.1561 -0.3596 -0.8308
  850MOL0     C14628   9.809   2.045   5.385  0.7814 -0.0863  0.5971
  850MOL0     C14629   9.682   2.079   5.315  0.3124 -0.4783  0.3973
  850MOL0     C14630   9.573   2.131   5.405  0.0340  0.3577  0.0079
  850MOL0     C14631   9.442   2.046   5.408  0.0079 -0.2231 -0.6638
  850MOL0     N14632   9.334   2.099   5.490 -0.1149 -0.8920 -1.6488
  850MOL0     C14633   9.313   2.068   5.625 -0.0602  0.0892  0.0344
  850MOL0     C14634   9.204   2.143   5.664 -0.1684 -0.4648  0.5461
  850MOL0     C14635   9.138   2.152   5.801  0.9277  0.4825 -0.3074
  850MOL0     C14636   9.143   2.299   5.840  0.4121 -0.3022  0.4214
  850MOL0     C14637   9.136   2.324   5.995 -0.1768 -0.1592 -0.1359
  850MOL0     C14638   8.999   2.284   6.051  0.0499  0.1610  0.0759
  850MOL0     O14639   8.884   2.363   6.011  0.1973  0.2209  0.0131
  850MOL0     C14640   8.763   2.307   6.038  0.2896 -0.2706  0.0771
  850MOL0     C14641   8.645   2.347   5.980  0.8356  0.1256 -0.8681
  850MOL0     C14642   8.525   2.282   6.015  0.9316 -0.3138 -0.3261
  850MOL0     C14643   8.405   2.344   5.944  0.0645 -0.4490  0.0969
  850MOL0     C14644   8.508   2.183   6.107  0.2528  0.3874 -0.4066
  850MOL0     C14645   8.377   2.127   6.143  0.4205  0.3485 -0.6765
  850MOL0     O14646   8.260   2.144   6.076  0.1885  0.2947  0.3639
  850MOL0     C14647   8.150   2.079   6.123 -0.4111 -0.4533  0.1020
  850MOL0     C14648   8.044   2.151   6.173  0.0825 -0.2482 -0.0531
  850MOL0     C14649   7.924   2.093   6.198  0.9458 -0.9544  0.2296
  850MOL0     C14650   7.907   1.955   6.178 -0.1835  0.8721 -0.5643
  850MOL0     O14651   7.792   1.882   6.199  0.0921 -0.2987  0.2578
  850MOL0     C14652   7.671   1.965   6.209  0.2183  0.3741 -0.5328
  850MOL0     C14653   7.542   1.883   6.195 -0.1666  0.7036 -0.4793
  850MOL0     C14654   7.430   1.981   6.215  0.4105 -0.3096  0.1371
  850MOL0     C14655   7.291   1.919   6.191  0.0364 -0.1432  0.3259
  850MOL0     C14656   7.247   1.933   6.046  0.0073  0.2309  0.1001
  850MOL0     C14657   7.115   1.873   6.032  0.7503  0.5465 -0.6383
  850MOL0     C14658   7.071   1.900   5.890  0.2862 -0.2008 -0.2467
  850MOL0     C14659   6.945   1.822   5.848 -0.5528 -0.0904  0.1837
  850MOL0    Cl14660   6.812   1.852   5.971  0.0409  0.2608  0.0207
  850MOL0     C14661   8.018   1.877   6.158 -0.0510  0.0790 -0.0067
  850MOL0     C14662   8.139   1.943   6.124  0.4626 -0.2832  0.2894
  850MOL0     O14663   8.383   2.060   6.245  0.0133  0.1478  0.4291
  850MOL0     C14664   8.627   2.144   6.173  0.4420 -0.5163  0.7565
  850MOL0     C14665   8.749   2.203   6.141  0.0546 -0.0501 -0.3705
  850MOL0     N14666   9.159   2.206   5.552 -0.4870 -0.3908 -0.0591
  850MOL0     N14667   9.230   2.178   5.451 -0.8913  0.6575  0.2585
  850MOL0     C14668   9.845   1.589   5.857  0.7515 -0.6581 -0.3035
  850MOL0     C14669   9.928   1.529   5.951  0.2435 -0.5550  0.0789
  850MOL0     C14670  10.033   1.340   6.364 -0.0776  0.4585  0.1039
  850MOL0     C14671  10.160   1.300   6.320  0.3162  0.2487  0.6152
  850MOL0     C14672  10.262   1.261   6.402 -0.4656  0.2150 -0.0589
  850MOL0     C14673  10.235   1.262   6.541  0.4456 -0.0722 -0.3707
  850MOL0     O14674  10.328   1.216   6.620 -0.0276  0.1009 -0.1988
  850MOL0     C14675  10.452   1.286   6.626 -0.4467 -0.2140 -0.0314
  850MOL0     C14676  10.565   1.253   6.535  0.3559  0.3103 -0.1195
  850MOL0     C14677  10.709   1.283   6.580 -0.2127  0.0897 -0.5407
  850MOL0     C14678  10.804   1.192   6.505 -0.8924  0.7220 -0.4920
  850MOL0     C14679  10.800   1.216   6.359  0.3936 -0.6711 -0.1512
  850MOL0     C14680  10.786   1.240   6.241 -0.7603  0.3038 -0.0907
  850MOL0     C14681  10.109   1.308   6.592  0.2090  0.4327 -0.2658
  850MOL0     C14682  10.004   1.333   6.500 -0.1760  0.4957 -0.0253
  850MOL0     H14683   9.686   1.370   6.127  1.3835 -0.5591 -0.1092
  850MOL0     H14684   9.546   1.469   5.966  0.4984 -1.8403  3.1232
  850MOL0     H14685   9.576   1.804   5.656  0.7402  0.4954 -1.6423
  850MOL0     H14686   9.727   1.814   5.737 -0.2430  0.4989  0.7192
  850MOL0     H14687   9.813   1.653   5.561  1.0304  1.9791  0.5285
  850MOL0     H14688   9.641   1.618   5.518  0.0815  1.1306 -0.7020
  850MOL0     H14689   9.802   1.758   5.365  0.3498  1.1702 -0.3563
  850MOL0     H14690   9.629   1.811   5.382  0.9656  5.3014 -0.1555
  850MOL0     H14691   9.715   1.969   5.553  1.5500  0.3319  0.4326
  850MOL0     H14692   9.882   1.897   5.518  0.4736  0.6471 -1.5765
  850MOL0     H14693   9.843   2.128   5.448 -1.4720  0.4799  1.1667
  850MOL0     H14694   9.893   2.025   5.318  2.8234 -0.4293  3.1148
  850MOL0     H14695   9.717   2.162   5.253  4.4534 -2.2076  0.0581
  850MOL0     H14696   9.641   2.006   5.244  2.1265 -2.3689  1.1996
  850MOL0     H14697   9.611   2.156   5.504  0.1642  2.6971 -0.5672
  850MOL0     H14698   9.547   2.227   5.359  1.5909  1.5179  1.4388
  850MOL0     H14699   9.455   1.938   5.422 -2.2780 -0.5336 -0.6709
  850MOL0     H14700   9.412   2.061   5.304  2.6237  3.0754 -1.1014
  850MOL0     H14701   9.370   2.006   5.693 -2.3256 -0.9628  1.1010
  850MOL0     H14702   9.036   2.115   5.797  1.0735  0.0763 -0.2678
  850MOL0     H14703   9.194   2.096   5.877  1.4971  1.1931 -0.1867
  850MOL0     H14704   9.061   2.346   5.785  0.9184  0.3939  0.2440
  850MOL0     H14705   9.235   2.347   5.805 -1.7030  3.1443 -0.9634
  850MOL0     H14706   9.163   2.427   6.020  0.7722 -0.0497 -1.4995
  850MOL0     H14707   9.218   2.256   6.022 -1.1545 -1.5243 -0.4669
  850MOL0     H14708   9.012   2.266   6.158  2.7432  1.4841  0.0388
  850MOL0     H14709   8.971   2.185   6.015  1.7309 -0.8633  1.4710
  850MOL0     H14710   8.658   2.438   5.923 -2.7824 -0.6182 -3.2981
  850MOL0     H14711   8.433   2.414   5.865 -1.2748 -1.7887 -1.6303
  850MOL0     H14712   8.348   2.274   5.882  0.5775 -1.4943  0.7767
  850MOL0     H14713   8.348   2.391   6.024 -0.4260  0.6249 -0.8643
  850MOL0     H14714   8.072   2.253   6.197  1.9650 -0.5831 -0.7097
  850MOL0     H14715   7.843   2.153   6.239  0.0295 -0.2047 -2.4177
  850MOL0     H14716   7.678   2.024   6.300  1.8961 -1.2892  0.4812
  850MOL0     H14717   7.668   2.039   6.128  0.3024  2.0176  0.9265
  850MOL0     H14718   7.550   1.832   6.098 -1.2471  0.5619 -0.5015
  850MOL0     H14719   7.543   1.799   6.265  2.1081 -0.4568 -1.7944
  850MOL0     H14720   7.444   2.067   6.149  0.2336 -0.8140 -0.5715
  850MOL0     H14721   7.428   2.033   6.311 -2.0766 -0.0572  0.0340
  850MOL0     H14722   7.296   1.811   6.208  0.0753 -0.5744 -2.0497
  850MOL0     H14723   7.219   1.971   6.254  0.0766  0.5377 -0.1810
  850MOL0     H14724   7.317   1.884   5.977  0.9928  0.9524  0.5499
  850MOL0     H14725   7.251   2.038   6.017  0.5832 -0.0557 -0.9246
  850MOL0     H14726   7.121   1.770   6.068  1.5045  0.8775  0.2259
  850MOL0     H14727   7.040   1.926   6.092  1.6707  2.2543 -0.9524
  850MOL0     H14728   7.143   1.864   5.817 -1.3860 -1.5186 -1.3300
  850MOL0     H14729   7.060   2.008   5.880 -4.8007 -0.3691  0.6815
  850MOL0     H14730   6.966   1.715   5.847  1.5168  0.0181  4.9250
  850MOL0     H14731   6.908   1.869   5.756 -1.2619 -1.1531 -0.0943
  850MOL0     H14732   7.997   1.771   6.146  2.2689 -0.3534 -0.7315
  850MOL0     H14733   8.230   1.886   6.107  0.7091 -0.3371  1.6234
  850MOL0     H14734   8.617   2.072   6.254 -1.7212  0.6866  1.6179
  850MOL0     H14735   8.833   2.164   6.196  0.4261 -0.6393 -1.3266
  850MOL0     H14736   9.895   1.654   5.787 -0.6574  0.3717 -0.4032
  850MOL0     H14737  10.034   1.553   5.946  0.3738 -0.4952  2.2280
  850MOL0     H14738  10.181   1.300   6.214 -2.0554 -1.6828  0.0613
  850MOL0     H14739  10.355   1.232   6.355 -1.5883 -3.7828 -0.1555
  850MOL0     H14740  10.432   1.391   6.603  1.0879 -0.0607 -0.7946
  850MOL0     H14741  10.486   1.274   6.729 -0.0689 -2.1836 -0.3306
  850MOL0     H14742  10.553   1.307   6.441  2.8088  1.1248 -0.0297
  850MOL0     H14743  10.553   1.144   6.526 -1.1700  0.0348  3.5791
  850MOL0     H14744  10.730   1.267   6.686  0.9708  2.3980 -0.3653
  850MOL0     H14745  10.729   1.387   6.554 -1.2381  0.1530 -1.1292
  850MOL0     H14746  10.776   1.087   6.516 -1.6100  0.7710 -1.6844
  850MOL0     H14747  10.907   1.208   6.538  1.2502 -1.2823 -5.2578
  850MOL0     H14748  10.796   1.256   6.136  0.0764 -1.7401 -0.3810
  850MOL0     H14749  10.099   1.315   6.700 -1.0721 -2.0914 -0.1251
  850MOL0     H14750   9.909   1.364   6.540 -0.4276 -0.6199  0.2619
  851MOL0     O14751   9.888   1.317  10.899  0.3741 -0.1702  0.4202
  851MOL0     C14752   9.868   1.212  10.834  1.0084 -0.7436  0.1487
  851MOL0     O14753   9.742   1.162  10.819 -0.5876  0.7012 -0.2657
  851MOL0     C14754   9.631   1.209  10.884  0.0396 -0.3384 -0.2251
  851MOL0     C14755   9.510   1.206  10.816 -0.0582 -1.5283 -0.1487
  851MOL0     C14756   9.396   1.259  10.879 -0.3237  0.9322 -0.1980
  851MOL0     C14757   9.390   1.319  11.003 -0.0449 -0.6587  0.1239
  851MOL0     O14758   9.269   1.375  11.046 -0.4927 -0.1163  0.5756
  851MOL0     C14759   9.201   1.306  11.145 -0.0313 -0.4340 -0.0192
  851MOL0     C14760   9.092   1.392  11.198  0.2758 -0.0105 -0.0661
  851MOL0     C14761   8.976   1.414  11.106 -0.8300 -0.2557  0.9938
  851MOL0     C14762   8.878   1.509  11.170 -0.6508 -0.0487  0.2856
  851MOL0     C14763   8.796   1.582  11.061 -1.0011 -0.9212  0.7448
  851MOL0     C14764   8.737   1.716  11.115 -0.7662  0.3253  0.5878
  851MOL0     C14765   8.633   1.780  11.030 -0.0599  0.1600  0.9774
  851MOL0     C14766   8.501   1.711  11.060  0.4003  0.2289 -0.8497
  851MOL0     N14767   8.384   1.789  11.024 -0.0864  0.0433  0.3978
  851MOL0     C14768   8.349   1.912  11.071  0.9769  0.1479  1.0661
  851MOL0     C14769   8.251   1.956  10.996  0.9645  0.4356  1.1145
  851MOL0     C14770   8.172   2.084  11.017 -0.3954 -0.0617 -0.3377
  851MOL0     C14771   8.025   2.086  10.996  0.9561 -0.6388  0.6044
  851MOL0     C14772   7.978   2.239  11.000  0.4895  0.0793  0.2478
  851MOL0     C14773   7.960   2.291  11.148  0.4889  0.0790  0.4251
  851MOL0     O14774   7.884   2.195  11.219  0.2417  0.2678  0.0073
  851MOL0     C14775   7.766   2.238  11.284  0.2325 -0.3418  0.4701
  851MOL0     C14776   7.720   2.180  11.403  0.4761  0.3844 -0.4711
  851MOL0     C14777   7.606   2.217  11.467  0.4498 -0.3095  0.2731
  851MOL0     C14778   7.571   2.130  11.593  0.4082  0.3488 -0.4220
  851MOL0     C14779   7.538   2.322  11.418  0.2178 -1.0182  0.5311
  851MOL0     C14780   7.420   2.387  11.485  0.5865 -0.1149 -0.6773
  851MOL0     O14781   7.385   2.518  11.446 -0.1232  0.4845 -0.1591
  851MOL0     C14782   7.256   2.552  11.475 -0.1894  0.4527  0.0135
  851MOL0     C14783   7.143   2.500  11.410  0.2882 -0.5092  0.2000
  851MOL0     C14784   7.010   2.545  11.452  0.0678  0.3441  0.1504
  851MOL0     C14785   6.995   2.633  11.550  0.4060 -0.4030  0.3711
  851MOL0     O14786   6.867   2.688  11.573  0.0922 -0.1839  0.2717
  851MOL0     C14787   6.855   2.795  11.665  0.0402 -0.9266  0.6606
  851MOL0     C14788   6.717   2.859  11.675 -0.2752  0.4279 -0.2912
  851MOL0     C14789   6.603   2.759  11.676  0.3547 -0.4286 -0.1588
  851MOL0     C14790   6.470   2.828  11.624  0.4851 -0.4245 -0.2859
  851MOL0     C14791   6.363   2.827  11.730  0.7737  0.4371  0.6153
  851MOL0     C14792   6.233   2.894  11.683 -0.1031 -0.0453 -0.1736
  851MOL0     C14793   6.104   2.875  11.769  0.3227 -0.0700 -0.9934
  851MOL0     C14794   6.093   2.918  11.919 -0.1235  0.2456 -0.1928
  851MOL0    Cl14795   6.104   3.093  11.949 -0.6451 -0.3336 -0.0115
  851MOL0     C14796   7.112   2.676  11.617  0.2286  0.0793 -0.2328
  851MOL0     C14797   7.237   2.642  11.581  0.2765 -0.3404  0.5329
  851MOL0     O14798   7.358   2.319  11.562 -0.1722  0.3709  0.3244
  851MOL0     C14799   7.579   2.388  11.297 -0.3864 -0.0482  0.4688
  851MOL0     C14800   7.699   2.347  11.241  1.1557 -0.8779  0.0407
  851MOL0     N14801   8.213   1.853  10.911 -0.2075  0.4373  0.2415
  851MOL0     N14802   8.301   1.757  10.919 -0.2748  0.5661 -0.7370
  851MOL0     C14803   9.513   1.315  11.077 -0.2006 -0.8036  0.2452
  851MOL0     C14804   9.631   1.263  11.018  0.6307 -0.1777  0.2400
  851MOL0     C14805   9.967   1.147  10.751 -1.2776 -0.8023 -0.4476
  851MOL0     C14806   9.942   1.043  10.665  0.0243 -0.4418  0.4198
  851MOL0     C14807  10.050   0.991  10.593 -0.6261  0.1712  0.6394
  851MOL0     C14808  10.180   1.045  10.599  0.1927  0.4618  1.1219
  851MOL0     O14809  10.289   1.017  10.511  0.1604 -0.4989  0.3904
  851MOL0     C14810  10.285   0.919  10.413  0.6405  0.5000 -0.5731
  851MOL0     C14811  10.311   0.785  10.482  0.5717 -0.6862  0.0628
  851MOL0     C14812  10.248   0.670  10.400 -0.8403  0.3270 -0.1593
  851MOL0     C14813  10.283   0.531  10.462  0.0442 -0.8907 -0.0482
  851MOL0     C14814  10.428   0.510  10.450  0.2570 -0.6012 -0.0919
  851MOL0     C14815  10.541   0.492  10.428  0.2118 -0.2631 -0.1764
  851MOL0     C14816  10.197   1.149  10.687 -0.2620 -0.2637  0.6821
  851MOL0     C14817  10.098   1.184  10.780 -0.1285  0.6244  0.3149
  851MOL0     H14818   9.514   1.163  10.716  0.5234  0.1834 -0.8932
  851MOL0     H14819   9.307   1.257  10.817  0.1614 -0.0465 -0.8821
  851MOL0     H14820   9.171   1.209  11.104  1.0440 -1.4223  1.4017
  851MOL0     H14821   9.266   1.272  11.227  1.4931 -2.1262 -1.8343
  851MOL0     H14822   9.054   1.333  11.281  1.9721 -0.4526  0.4436
  851MOL0     H14823   9.127   1.491  11.229  1.2259  0.1705 -1.5989
  851MOL0     H14824   9.020   1.453  11.013  0.0318 -2.4691  0.4235
  851MOL0     H14825   8.936   1.317  11.075  0.5759 -0.3150 -0.8383
  851MOL0     H14826   8.818   1.453  11.242 -0.1452 -1.3553 -0.2933
  851MOL0     H14827   8.932   1.590  11.221 -0.0226  0.8436 -1.7057
  851MOL0     H14828   8.857   1.611  10.974  1.6928 -0.6887  2.6087
  851MOL0     H14829   8.708   1.523  11.033 -0.5408 -1.0848 -0.4573
  851MOL0     H14830   8.708   1.698  11.219  0.9730 -1.6670  0.7923
  851MOL0     H14831   8.802   1.804  11.125 -0.7048  0.4380 -0.6620
  851MOL0     H14832   8.626   1.884  11.062  0.7689  1.2129 -1.9018
  851MOL0     H14833   8.663   1.788  10.925 -2.1547  1.3134  0.4242
  851MOL0     H14834   8.498   1.697  11.169 -2.2250  3.5220 -0.3415
  851MOL0     H14835   8.496   1.612  11.014 -0.2811 -1.3474  2.3105
  851MOL0     H14836   8.397   1.968  11.151  1.3470 -0.0943  1.0169
  851MOL0     H14837   8.184   2.109  11.123 -1.3856 -1.4622  0.1341
  851MOL0     H14838   8.220   2.162  10.958  0.8007 -1.3552 -1.1173
  851MOL0     H14839   7.981   2.016  11.067  2.6706  0.4899  2.9092
  851MOL0     H14840   8.002   2.053  10.894  1.0495  0.5967  0.1655
  851MOL0     H14841   7.884   2.229  10.946  0.5813  1.6121 -0.2297
  851MOL0     H14842   8.035   2.303  10.932 -0.4907 -0.8381 -1.5019
  851MOL0     H14843   7.935   2.396  11.161  0.2486 -0.1801  2.4110
  851MOL0     H14844   8.058   2.287  11.197 -0.8402  0.0618  3.3084
  851MOL0     H14845   7.775   2.093  11.435  0.0163  0.0171 -0.6740
  851MOL0     H14846   7.473   2.082  11.588  1.3229 -1.7693  0.6764
  851MOL0     H14847   7.640   2.046  11.605  1.2535  1.2626  1.4194
  851MOL0     H14848   7.578   2.186  11.686 -1.9422  1.0309 -0.5799
  851MOL0     H14849   7.154   2.431  11.328  1.3445  0.3691 -0.4357
  851MOL0     H14850   6.926   2.504  11.396  1.4991  0.7771 -2.4863
  851MOL0     H14851   6.897   2.774  11.764  0.6294 -2.6455  0.0823
  851MOL0     H14852   6.922   2.876  11.635 -0.2551 -1.1611 -0.6713
  851MOL0     H14853   6.700   2.913  11.768 -0.9007 -0.2230 -0.0176
  851MOL0     H14854   6.693   2.929  11.595  2.1770  2.7874  0.8959
  851MOL0     H14855   6.594   2.724  11.779 -0.6719 -3.4346 -1.1819
  851MOL0     H14856   6.614   2.678  11.605 -1.0524 -0.8571  0.0712
  851MOL0     H14857   6.480   2.934  11.597 -1.5509  0.6902  2.8428
  851MOL0     H14858   6.435   2.775  11.535 -0.4912 -3.3817  1.7269
  851MOL0     H14859   6.391   2.894  11.812 -0.2244  1.2892  0.2791
  851MOL0     H14860   6.346   2.726  11.771 -1.4422  0.7745  0.6127
  851MOL0     H14861   6.249   3.002  11.680 -0.6042  0.0791  1.0991
  851MOL0     H14862   6.210   2.846  11.588 -0.1040 -0.4472  0.0258
  851MOL0     H14863   6.071   2.771  11.768  1.2725 -0.4130  0.1298
  851MOL0     H14864   6.028   2.931  11.714 -0.1650 -0.1481 -0.4143
  851MOL0     H14865   6.173   2.861  11.967  0.1883 -0.3392 -1.3851
  851MOL0     H14866   6.004   2.874  11.966  0.5363  0.5633  1.4393
  851MOL0     H14867   7.105   2.743  11.702  2.7884  0.1815 -0.0275
  851MOL0     H14868   7.323   2.691  11.624  1.1152  0.0711 -1.5271
  851MOL0     H14869   7.536   2.474  11.247 -1.4453 -0.6825  0.2625
  851MOL0     H14870   7.731   2.389  11.146 -1.6271 -2.0227 -1.5126
  851MOL0     H14871   9.528   1.358  11.176  2.5973 -2.0892  0.4834
  851MOL0     H14872   9.724   1.253  11.074  0.1321 -0.5951  1.0113
  851MOL0     H14873   9.841   1.013  10.638 -0.1539  0.5283 -0.0430
  851MOL0     H14874  10.025   0.909  10.526 -4.0365 -0.4765  2.4554
  851MOL0     H14875  10.181   0.916  10.380  1.0356  2.3093 -2.1551
  851MOL0     H14876  10.356   0.942  10.333  3.8216  2.3862  2.5167
  851MOL0     H14877  10.277   0.783  10.586 -0.8189 -0.5550 -0.3605
  851MOL0     H14878  10.420   0.785  10.489  0.7544  3.3148 -0.3168
  851MOL0     H14879  10.280   0.683  10.296  1.9793  0.9791  0.7028
  851MOL0     H14880  10.138   0.674  10.396 -0.9393 -0.6837  1.0804
  851MOL0     H14881  10.232   0.453  10.406  1.0073 -0.8076 -1.0817
  851MOL0     H14882  10.248   0.539  10.565  0.8445 -3.0007  0.4510
  851MOL0     H14883  10.647   0.492  10.411  0.1304 -3.9902 -1.4479
  851MOL0     H14884  10.292   1.199  10.704 -0.9722  1.4467 -0.1155
  851MOL0     H14885  10.116   1.252  10.863  2.7833 -1.9292  2.0003
  852MOL0     O14886  10.592   1.986   9.787  0.4028  0.0883 -0.3983
  852MOL0     C14887  10.676   1.902   9.756  0.1989  0.3069 -0.6332
  852MOL0     O14888  10.650   1.772   9.735  0.0169  0.3593  0.0859
  852MOL0     C14889  10.521   1.733   9.742 -0.3261  0.4619 -0.9116
  852MOL0     C14890  10.427   1.745   9.641 -0.5456 -0.5368 -0.2591
  852MOL0     C14891  10.300   1.687   9.652  0.3405 -0.5188 -0.1029
  852MOL0     C14892  10.261   1.614   9.769  0.3215 -0.3928  0.6109
  852MOL0     O14893  10.140   1.562   9.802 -0.3578  0.3755 -0.2350
  852MOL0     C14894  10.025   1.574   9.715  0.0893  0.7445  0.4477
  852MOL0     C14895   9.938   1.692   9.749  0.4611 -0.7036 -0.5515
  852MOL0     C14896   9.804   1.686   9.670 -0.2934  0.6271  0.4724
  852MOL0     C14897   9.704   1.782   9.728  0.2877  0.4355  0.2488
  852MOL0     C14898   9.570   1.765   9.654 -0.2937  0.7017 -0.0774
  852MOL0     C14899   9.463   1.840   9.729 -0.3390  0.9119 -0.1197
  852MOL0     C14900   9.331   1.841   9.652 -0.2548 -0.0039  1.0259
  852MOL0     C14901   9.215   1.922   9.712 -0.5782  0.3092  0.1657
  852MOL0     N14902   9.085   1.890   9.672  0.1444 -0.4746  0.0676
  852MOL0     C14903   9.011   1.773   9.701  0.0952 -0.4884 -0.1702
  852MOL0     C14904   8.894   1.793   9.641 -0.3258  0.0527 -0.3903
  852MOL0     C14905   8.791   1.694   9.624 -0.1641  0.4574  0.1466
  852MOL0     C14906   8.707   1.707   9.755  0.2116  0.2725 -0.4939
  852MOL0     C14907   8.629   1.579   9.779 -0.4835 -0.2305  0.7175
  852MOL0     C14908   8.577   1.577   9.919 -0.4907  0.5739 -0.5181
  852MOL0     O14909   8.530   1.702   9.955 -0.3795 -0.3056 -0.3650
  852MOL0     C14910   8.402   1.735   9.928 -0.2345  0.1806  0.8689
  852MOL0     C14911   8.303   1.663   9.861 -0.1251  0.9253 -0.9478
  852MOL0     C14912   8.173   1.711   9.852  0.6505  0.2776 -1.1763
  852MOL0     C14913   8.074   1.612   9.796 -0.2291  0.3746  0.4841
  852MOL0     C14914   8.142   1.849   9.895  0.2868 -0.3042 -0.5244
  852MOL0     C14915   8.014   1.918   9.893 -0.0726  0.4561  0.0555
  852MOL0     O14916   7.999   2.031   9.970  0.2943  0.3657  0.6454
  852MOL0     C14917   7.901   2.117   9.924 -0.8241 -1.2586 -0.1013
  852MOL0     C14918   7.769   2.088   9.918  0.3274 -0.4622  0.4654
  852MOL0     C14919   7.685   2.189   9.875 -0.1500 -0.6812  0.9419
  852MOL0     C14920   7.729   2.319   9.843  0.1451  0.0673 -0.1771
  852MOL0     O14921   7.641   2.416   9.806  0.3396 -0.0802  0.1651
  852MOL0     C14922   7.517   2.425   9.880  0.2585 -0.3490 -0.4288
  852MOL0     C14923   7.468   2.566   9.901  0.1366 -0.5617  0.5780
  852MOL0     C14924   7.459   2.624   9.752 -0.3103  0.2631  0.7305
  852MOL0     C14925   7.395   2.763   9.731  0.0010 -0.0814  0.2285
  852MOL0     C14926   7.252   2.763   9.793 -0.1704 -0.0835  0.6675
  852MOL0     C14927   7.213   2.917   9.806  0.6274 -0.2389 -0.2726
  852MOL0     C14928   7.059   2.948   9.837 -1.3348  0.6094 -0.6936
  852MOL0     C14929   7.053   3.099   9.875  0.2193 -0.2909  0.4339
  852MOL0    Cl14930   6.875   3.161   9.857 -0.0592  0.2389 -0.0245
  852MOL0     C14931   7.867   2.345   9.831  0.6886  0.1548 -0.4800
  852MOL0     C14932   7.953   2.248   9.879  0.5114 -0.1312 -0.7684
  852MOL0     O14933   7.923   1.860   9.824  0.0932 -0.3700 -0.3291
  852MOL0     C14934   8.250   1.917   9.942 -0.7425 -0.2286 -0.1949
  852MOL0     C14935   8.379   1.867   9.962 -0.0891  1.2382 -0.5930
  852MOL0     N14936   8.890   1.920   9.595  0.6412  0.1861  0.4232
  852MOL0     N14937   9.000   1.980   9.607 -0.7977  0.6173  0.5425
  852MOL0     C14938  10.361   1.590   9.864 -0.6354 -0.0055  0.2669
  852MOL0     C14939  10.487   1.647   9.841  0.0164  0.3978 -0.0789
  852MOL0     C14940  10.818   1.955   9.756 -0.2207 -1.3027 -0.0330
  852MOL0     C14941  10.851   2.077   9.819  0.4031 -0.2855  0.6565
  852MOL0     C14942  10.979   2.134   9.817 -0.0863  0.1016  0.3735
  852MOL0     C14943  11.078   2.071   9.745 -0.8626 -0.8293 -0.1917
  852MOL0     O14944  11.209   2.108   9.725 -0.1186 -0.8309  0.1040
  852MOL0     C14945  11.254   2.232   9.794  0.2146 -0.4189  0.1507
  852MOL0     C14946  11.405   2.224   9.810  0.0518 -0.0445  0.1224
  852MOL0     C14947  11.450   2.093   9.870 -0.9897 -0.4978 -0.0709
  852MOL0     C14948  11.559   2.121   9.965 -0.2861 -0.0638  0.2927
  852MOL0     C14949  11.620   2.006  10.027  0.1860  0.4043  0.3564
  852MOL0     C14950  11.676   1.913  10.081  0.5074 -0.0774  0.1115
  852MOL0     C14951  11.048   1.942   9.692 -0.0152  0.9803  0.2026
  852MOL0     C14952  10.920   1.890   9.687  0.0531  0.1620 -0.2265
  852MOL0     H14953  10.452   1.813   9.560 -2.0385  2.8167  1.8630
  852MOL0     H14954  10.231   1.712   9.572  0.9313 -0.8841 -0.7412
  852MOL0     H14955  10.046   1.583   9.608  2.1507 -0.6883  0.6783
  852MOL0     H14956   9.964   1.486   9.737 -1.3710  1.8743  1.0513
  852MOL0     H14957   9.934   1.676   9.858  2.3559  1.6668 -0.0497
  852MOL0     H14958   9.989   1.787   9.730  1.9085 -1.6830 -1.7550
  852MOL0     H14959   9.818   1.705   9.563 -0.0650  0.1106  0.4110
  852MOL0     H14960   9.764   1.584   9.667  0.8254  0.1988 -0.1909
  852MOL0     H14961   9.687   1.783   9.836 -0.1424  1.4167  0.1848
  852MOL0     H14962   9.742   1.883   9.708  0.7424  0.6281  1.9241
  852MOL0     H14963   9.581   1.804   9.552 -0.4844  1.3125  0.1342
  852MOL0     H14964   9.527   1.664   9.652 -1.0590  0.9735  1.4314
  852MOL0     H14965   9.445   1.791   9.824 -1.8612  2.4145  0.4296
  852MOL0     H14966   9.497   1.941   9.757  1.5663  0.6650 -1.3365
  852MOL0     H14967   9.350   1.874   9.550 -0.3573 -2.0586  0.2942
  852MOL0     H14968   9.294   1.738   9.642 -1.3824  0.5092 -0.4265
  852MOL0     H14969   9.222   2.022   9.669 -5.0974  1.1416  0.9098
  852MOL0     H14970   9.226   1.924   9.821  1.2907 -1.6712  0.0938
  852MOL0     H14971   9.030   1.683   9.759 -1.6685 -1.1707 -0.5713
  852MOL0     H14972   8.728   1.733   9.542 -1.9531  1.4276  1.8933
  852MOL0     H14973   8.832   1.597   9.597  1.7169  1.3753 -0.4902
  852MOL0     H14974   8.640   1.793   9.756 -2.9265 -1.9702 -1.2641
  852MOL0     H14975   8.778   1.724   9.837 -0.1019  0.7790 -0.3288
  852MOL0     H14976   8.679   1.484   9.759  1.5584  0.7039  1.1775
  852MOL0     H14977   8.545   1.568   9.710 -1.3850 -1.4169  1.9470
  852MOL0     H14978   8.664   1.553   9.981 -0.6521 -0.6672 -0.7512
  852MOL0     H14979   8.505   1.497   9.939  0.7997 -0.6044 -0.4313
  852MOL0     H14980   8.331   1.562   9.835 -1.3818 -0.2861  1.9589
  852MOL0     H14981   8.116   1.513   9.779 -1.0581 -0.3619  2.4234
  852MOL0     H14982   8.000   1.591   9.874  1.5280 -1.4309  1.7961
  852MOL0     H14983   8.029   1.648   9.703 -0.5917 -0.5951  0.2737
  852MOL0     H14984   7.732   1.986   9.923  1.1887 -1.0100 -2.2926
  852MOL0     H14985   7.578   2.172   9.868 -0.9258  3.1803  0.9918
  852MOL0     H14986   7.438   2.383   9.817 -1.9175  2.5402  0.0969
  852MOL0     H14987   7.514   2.379   9.979 -2.9867 -0.6454 -0.5546
  852MOL0     H14988   7.378   2.563   9.964 -0.8738  2.3043 -0.5401
  852MOL0     H14989   7.548   2.625   9.948 -0.2055  1.7340 -1.5249
  852MOL0     H14990   7.393   2.554   9.701  1.0360 -1.8753  1.7812
  852MOL0     H14991   7.552   2.613   9.695 -2.1836  1.0422 -2.7634
  852MOL0     H14992   7.456   2.837   9.784  1.9544  0.0317 -1.9650
  852MOL0     H14993   7.388   2.788   9.625  0.2717  2.6463  0.7991
  852MOL0     H14994   7.239   2.719   9.893  0.8242 -2.8292 -0.3222
  852MOL0     H14995   7.175   2.717   9.731 -1.6999  1.4147  1.3711
  852MOL0     H14996   7.278   2.964   9.881 -1.2255  0.7267  0.8058
  852MOL0     H14997   7.239   2.959   9.709 -1.6054 -0.1583 -0.8857
  852MOL0     H14998   7.023   2.890   9.922  0.1410 -0.6689 -0.8927
  852MOL0     H14999   6.990   2.920   9.757 -0.5925 -2.0626 -0.4869
  852MOL0     H15000   7.125   3.157   9.815 -1.6277  2.1717  0.4228
  852MOL0     H15001   7.077   3.114   9.981  1.0035 -1.3311  0.4199
  852MOL0     H15002   7.893   2.444   9.794 -2.4902  1.0264 -0.6697
  852MOL0     H15003   8.059   2.261   9.901  0.6015 -2.3144  0.3955
  852MOL0     H15004   8.239   2.018   9.981  0.1650  0.3914 -1.4968
  852MOL0     H15005   8.456   1.924  10.013  0.6208  0.0519 -0.3006
  852MOL0     H15006  10.349   1.531   9.954  1.1366 -1.7852 -0.5818
  852MOL0     H15007  10.570   1.639   9.911  1.0766 -0.0944 -1.3617
  852MOL0     H15008  10.772   2.128   9.873 -1.1698 -1.0543 -0.7974
  852MOL0     H15009  10.995   2.228   9.868  0.5010  0.6732 -0.8059
  852MOL0     H15010  11.227   2.314   9.726 -1.2869 -1.7652 -0.9610
  852MOL0     H15011  11.209   2.248   9.892 -0.5037 -2.7448  0.2544
  852MOL0     H15012  11.440   2.306   9.874 -1.0213  1.9218 -1.6760
  852MOL0     H15013  11.454   2.251   9.716  4.0940  1.2885  2.3941
  852MOL0     H15014  11.482   2.032   9.785  1.0401  1.5722 -0.9107
  852MOL0     H15015  11.370   2.048   9.930  1.4385 -3.8068  0.9582
  852MOL0     H15016  11.519   2.176  10.051 -0.5659 -1.9375  1.4132
  852MOL0     H15017  11.643   2.173   9.917 -1.9423  2.4773 -0.0246
  852MOL0     H15018  11.723   1.824  10.117  2.0119  1.1889  1.4206
  852MOL0     H15019  11.125   1.885   9.643 -0.4948  1.2191 -0.8704
  852MOL0     H15020  10.910   1.788   9.650  0.4994 -0.2490  0.7471
  853MOL0     O15021   8.057   9.510   3.057  0.3923 -1.0773 -0.1984
  853MOL0     C15022   8.057   9.410   2.996 -0.0807  0.3652 -0.2171
  853MOL0     O15023   7.946   9.335   2.951 -0.8812  0.1366  0.2885
  853MOL0     C15024   7.812   9.351   2.993 -0.3519 -0.5150  0.0684
  853MOL0     C15025   7.712   9.311   2.909  0.0114 -0.8538  0.0107
  853MOL0     C15026   7.584   9.300   2.955 -0.4534  0.0319 -0.7901
  853MOL0     C15027   7.552   9.330   3.084  0.5516 -0.7234  0.2778
  853MOL0     O15028   7.417   9.328   3.098 -0.7739  0.2706 -0.1928
  853MOL0     C15029   7.373   9.322   3.234  0.4926  0.7423 -0.6983
  853MOL0     C15030   7.222   9.296   3.248  0.4230 -0.2732  0.3649
  853MOL0     C15031   7.151   9.400   3.151 -0.4492  0.1056  0.0472
  853MOL0     C15032   7.005   9.403   3.199  0.9169  0.1868 -0.8715
  853MOL0     C15033   6.935   9.526   3.128 -0.2651  0.7182  0.9951
  853MOL0     C15034   6.878   9.471   2.999  0.4181 -0.4396  0.4787
  853MOL0     C15035   6.763   9.560   2.948 -0.2131  0.9264  0.0300
  853MOL0     C15036   6.796   9.703   2.902 -0.6645  0.6430  0.1027
  853MOL0     N15037   6.661   9.765   2.869  0.3065  0.1135 -0.3286
  853MOL0     C15038   6.606   9.785   2.746  1.2957 -0.4021  0.0830
  853MOL0     C15039   6.495   9.866   2.776  0.9310 -0.3576  1.0716
  853MOL0     C15040   6.407   9.944   2.676 -0.3153 -0.7680  0.1270
  853MOL0     C15041   6.296   9.872   2.617 -0.5978  0.1564 -0.0044
  853MOL0     C15042   6.220   9.982   2.531  0.4316  0.9545 -0.5810
  853MOL0     C15043   6.076   9.939   2.530  0.8076  0.1617 -1.6076
  853MOL0     O15044   6.005  10.029   2.447 -0.2293 -0.7536 -0.1377
  853MOL0     C15045   5.898   9.964   2.396 -0.6243 -0.6805  0.4833
  853MOL0     C15046   5.777   9.958   2.465  0.1782 -0.4929  0.6452
  853MOL0     C15047   5.660   9.918   2.400 -0.5347  0.2858  0.3147
  853MOL0     C15048   5.538   9.916   2.484  0.6317 -0.0678  0.3386
  853MOL0     C15049   5.660   9.881   2.263 -0.3550 -0.1338  0.6030
  853MOL0     C15050   5.536   9.828   2.196 -0.7499 -0.4907 -0.0339
  853MOL0     O15051   5.445   9.757   2.264 -0.5243 -0.1049  0.3534
  853MOL0     C15052   5.339   9.705   2.193  0.9492  0.0192  0.9683
  853MOL0     C15053   5.336   9.628   2.079 -0.1150 -0.7297 -0.1951
  853MOL0     C15054   5.219   9.577   2.027 -0.7173 -0.6262 -0.4854
  853MOL0     C15055   5.094   9.591   2.089 -0.1300 -0.7960  0.1736
  853MOL0     O15056   4.987   9.524   2.050  0.2453 -0.1388 -0.6127
  853MOL0     C15057   4.861   9.591   2.032  0.8355 -0.4526  0.0238
  853MOL0     C15058   4.771   9.486   1.975  0.8219 -0.3855  0.8485
  853MOL0     C15059   4.635   9.554   1.946 -0.1206 -0.1201 -0.1953
  853MOL0     C15060   4.550   9.446   1.877  0.1507 -0.7555  0.3374
  853MOL0     C15061   4.419   9.511   1.827  0.0105 -0.1075 -0.3526
  853MOL0     C15062   4.316   9.405   1.780 -0.7352  0.3698  0.0737
  853MOL0     C15063   4.216   9.467   1.691  0.4233  0.3656  0.1779
  853MOL0     C15064   4.113   9.359   1.646 -0.3424 -1.2348 -0.0066
  853MOL0    Cl15065   4.046   9.280   1.784  0.3673  0.0895 -0.0189
  853MOL0     C15066   5.091   9.672   2.201  0.5239 -0.7074 -0.7516
  853MOL0     C15067   5.209   9.728   2.253 -0.2772 -0.1993  0.3378
  853MOL0     O15068   5.528   9.870   2.078  0.1883  0.2105  0.5205
  853MOL0     C15069   5.773   9.896   2.191  0.0509  0.0426 -0.7179
  853MOL0     C15070   5.897   9.939   2.256 -0.1944  0.3627  0.2132
  853MOL0     N15071   6.471   9.874   2.907 -0.1447 -0.5601 -0.7856
  853MOL0     N15072   6.574   9.819   2.957 -0.2675 -0.2605  0.9052
  853MOL0     C15073   7.653   9.369   3.174  1.6749  0.3336 -0.5525
  853MOL0     C15074   7.782   9.384   3.125  0.4816  0.0175  0.3104
  853MOL0     C15075   8.194   9.343   2.982  0.5723  0.1605  0.0400
  853MOL0     C15076   8.202   9.210   2.929  0.6925 -0.4813  0.6340
  853MOL0     C15077   8.326   9.145   2.918 -0.0737 -0.7576  0.8051
  853MOL0     C15078   8.442   9.200   2.966  0.0608  0.3937 -0.0774
  853MOL0     O15079   8.569   9.153   2.960  0.7556 -0.1131 -0.4232
  853MOL0     C15080   8.604   9.027   2.894 -0.0652 -0.0189 -0.0600
  853MOL0     C15081   8.746   9.035   2.837  0.2579  0.0040  0.3903
  853MOL0     C15082   8.844   9.025   2.959  0.7885 -0.1584 -0.1327
  853MOL0     C15083   8.989   9.030   2.920 -1.1017 -0.2323 -0.5999
  853MOL0     C15084   9.069   8.988   3.035 -0.2105  0.4039 -0.0794
  853MOL0     C15085   9.135   8.956   3.132  0.9611  0.5205 -0.0380
  853MOL0     C15086   8.427   9.330   3.013 -0.6195 -0.1702 -0.2792
  853MOL0     C15087   8.309   9.404   3.023 -0.8226 -0.2020  0.1694
  853MOL0     H15088   7.728   9.286   2.804 -0.4634 -1.3052  0.0368
  853MOL0     H15089   7.507   9.262   2.888  0.8402 -1.0025 -1.7528
  853MOL0     H15090   7.425   9.254   3.302 -1.2196  0.1159  0.0626
  853MOL0     H15091   7.401   9.418   3.280  1.4905  0.0450  0.2035
  853MOL0     H15092   7.183   9.201   3.212 -2.4157  0.7929  0.3980
  853MOL0     H15093   7.195   9.314   3.352  1.3185  0.1503  0.5357
  853MOL0     H15094   7.190   9.501   3.163  1.9320 -0.8341  0.9141
  853MOL0     H15095   7.160   9.387   3.043 -1.8911  0.4744 -0.1314
  853MOL0     H15096   6.955   9.309   3.174  0.5076  1.0835 -3.7995
  853MOL0     H15097   7.009   9.426   3.306  1.5134  0.3843 -0.9321
  853MOL0     H15098   6.866   9.553   3.208  0.2890 -0.6913  1.9851
  853MOL0     H15099   7.006   9.609   3.112  0.5472 -0.2019 -0.4417
  853MOL0     H15100   6.954   9.471   2.920 -0.1084  1.8241 -0.0864
  853MOL0     H15101   6.838   9.370   3.016 -0.5067 -0.1308  0.2028
  853MOL0     H15102   6.713   9.508   2.865  0.3454  2.1442 -1.1193
  853MOL0     H15103   6.698   9.566   3.036  0.0090  1.1375  0.1813
  853MOL0     H15104   6.873   9.704   2.824 -1.6597  1.2026 -0.8999
  853MOL0     H15105   6.834   9.764   2.985 -1.5274  0.4367  0.6633
  853MOL0     H15106   6.634   9.758   2.645 -0.1876 -1.0527 -0.1847
  853MOL0     H15107   6.376  10.032   2.733  0.0314  0.3369 -1.3256
  853MOL0     H15108   6.468   9.989   2.598  0.3829  0.6661  1.4497
  853MOL0     H15109   6.245   9.840   2.709  1.0891  4.1138  2.5904
  853MOL0     H15110   6.329   9.781   2.566 -0.6069  0.4915 -0.6205
  853MOL0     H15111   6.252   9.999   2.428  3.5544  0.4834  0.2329
  853MOL0     H15112   6.223  10.077   2.585  1.8373  1.2821 -1.1785
  853MOL0     H15113   6.040   9.955   2.632  2.2875  0.6316 -1.1278
  853MOL0     H15114   6.056   9.835   2.502 -1.8813  0.5209 -1.2769
  853MOL0     H15115   5.776   9.983   2.570 -0.4583 -2.2132  1.0815
  853MOL0     H15116   5.569   9.957   2.581  1.1037 -0.3157  0.2962
  853MOL0     H15117   5.458   9.979   2.444  0.1142 -0.9251 -0.0099
  853MOL0     H15118   5.504   9.816   2.515  2.7160 -0.2477  2.2548
  853MOL0     H15119   5.431   9.603   2.032  0.2519  0.6889 -0.2421
  853MOL0     H15120   5.228   9.517   1.937 -2.3636  0.8571 -1.7031
  853MOL0     H15121   4.816   9.635   2.122 -0.3690  3.1926 -2.1376
  853MOL0     H15122   4.870   9.672   1.959 -0.5187 -0.6252 -0.3643
  853MOL0     H15123   4.815   9.444   1.885  0.4649  1.7886 -0.4238
  853MOL0     H15124   4.754   9.406   2.047  0.4701  0.9381  2.3039
  853MOL0     H15125   4.638   9.638   1.875 -0.2157 -1.3653 -1.7384
  853MOL0     H15126   4.586   9.587   2.037 -1.7161 -3.4282  0.2957
  853MOL0     H15127   4.599   9.408   1.787  1.2187  1.1215  0.0701
  853MOL0     H15128   4.534   9.360   1.943  0.3041 -2.5028 -1.7877
  853MOL0     H15129   4.443   9.574   1.741  0.5385 -0.6013 -0.5692
  853MOL0     H15130   4.377   9.570   1.909 -1.7422 -2.0769  0.2491
  853MOL0     H15131   4.373   9.327   1.728 -0.1802  1.2847 -0.7236
  853MOL0     H15132   4.274   9.361   1.870  1.1791  0.9969  1.3373
  853MOL0     H15133   4.269   9.508   1.605  0.6802  0.5795  0.4369
  853MOL0     H15134   4.161   9.548   1.739  2.4142  1.8027  0.1608
  853MOL0     H15135   4.173   9.286   1.592  1.4050  1.0845 -1.3728
  853MOL0     H15136   4.036   9.406   1.585  0.7138 -1.0185 -1.2082
  853MOL0     H15137   4.992   9.684   2.245  0.1580  0.5461 -1.8358
  853MOL0     H15138   5.222   9.780   2.347 -1.5177 -0.7479  0.8357
  853MOL0     H15139   5.765   9.877   2.085 -0.7126 -2.2484 -0.2969
  853MOL0     H15140   5.991   9.954   2.204  0.2314 -0.2178  0.7916
  853MOL0     H15141   7.634   9.389   3.279 -2.8284 -2.7207 -0.4801
  853MOL0     H15142   7.854   9.402   3.204 -0.5746  3.4737  0.6572
  853MOL0     H15143   8.119   9.168   2.874 -0.0245  2.0495 -0.3434
  853MOL0     H15144   8.338   9.050   2.867 -1.4865  0.8582 -2.9213
  853MOL0     H15145   8.593   8.935   2.953  1.8222 -1.2739 -1.5488
  853MOL0     H15146   8.550   9.004   2.802 -0.5741 -3.8473  1.0134
  853MOL0     H15147   8.775   9.127   2.784 -1.1519 -0.5347 -1.3990
  853MOL0     H15148   8.758   8.949   2.772  1.5877 -0.1720  0.8276
  853MOL0     H15149   8.822   8.937   3.021 -1.6861  0.6774  0.2756
  853MOL0     H15150   8.835   9.109   3.028 -2.6527 -1.4314  1.1588
  853MOL0     H15151   9.020   9.123   2.872 -0.0637 -0.8616 -1.1816
  853MOL0     H15152   9.004   8.951   2.846  2.8735  2.1395 -2.6850
  853MOL0     H15153   9.197   8.913   3.208 -0.5204  1.1186  1.5649
  853MOL0     H15154   8.514   9.382   3.050  1.4404 -1.7930 -2.5459
  853MOL0     H15155   8.313   9.503   3.068  2.2743 -1.5578  3.4471
  854MOL0     O15156   9.487   1.514   9.361  0.0345 -1.0481 -0.2065
  854MOL0     C15157   9.533   1.418   9.300 -0.3110 -0.4760 -0.1074
  854MOL0     O15158   9.488   1.296   9.309  0.2124  1.2211 -0.1187
  854MOL0     C15159   9.378   1.261   9.385 -0.0938  0.3754  0.3798
  854MOL0     C15160   9.381   1.129   9.446  0.0115  1.3120 -0.2243
  854MOL0     C15161   9.266   1.091   9.519  0.5101  0.9155  0.0091
  854MOL0     C15162   9.153   1.174   9.535  1.1925 -1.2115 -0.5446
  854MOL0     O15163   9.043   1.146   9.618  0.1745  0.1516 -0.4464
  854MOL0     C15164   9.020   1.009   9.667 -0.0962  0.0741  0.3664
  854MOL0     C15165   8.885   1.003   9.723  0.2816 -0.0474  0.6564
  854MOL0     C15166   8.890   1.078   9.853 -0.8480  0.8599  0.4875
  854MOL0     C15167   8.748   1.106   9.911 -1.0219 -0.5615 -0.0534
  854MOL0     C15168   8.759   1.157  10.053 -0.1256 -0.3180 -0.5234
  854MOL0     C15169   8.633   1.120  10.122 -1.0665  0.0387  0.1157
  854MOL0     C15170   8.523   1.215  10.069 -0.0749 -0.5738  0.2323
  854MOL0     C15171   8.380   1.196  10.125 -0.2694  0.1219  0.0128
  854MOL0     N15172   8.297   1.317  10.129  0.4161  0.2002 -0.2570
  854MOL0     C15173   8.314   1.418  10.224 -0.2842 -0.0978  0.7647
  854MOL0     C15174   8.215   1.505  10.189 -0.1765  0.6643 -0.0458
  854MOL0     C15175   8.179   1.638  10.241  0.0402 -0.6104  0.1317
  854MOL0     C15176   8.035   1.669  10.216  0.7043 -0.4223  0.4410
  854MOL0     C15177   7.979   1.774  10.311 -0.0005  0.5007  0.3108
  854MOL0     C15178   7.832   1.809  10.285 -0.6308 -0.1925 -0.1102
  854MOL0     O15179   7.780   1.868  10.402 -0.7993  0.1572  0.9847
  854MOL0     C15180   7.674   1.954  10.389  0.3681  0.1130 -0.1659
  854MOL0     C15181   7.594   1.970  10.274 -0.5602  0.2071  0.2801
  854MOL0     C15182   7.492   2.064  10.269  0.4506  0.5905 -0.2800
  854MOL0     C15183   7.427   2.074  10.131 -0.0196 -0.3483 -0.7404
  854MOL0     C15184   7.466   2.132  10.384  0.4945 -0.0210  0.0349
  854MOL0     C15185   7.357   2.239  10.392  0.0597  0.7656 -0.1253
  854MOL0     O15186   7.332   2.304  10.276  0.0052 -0.1814 -0.1483
  854MOL0     C15187   7.221   2.386  10.263  0.0513 -1.3254  0.5720
  854MOL0     C15188   7.110   2.353  10.192  0.1055  0.4100 -0.1759
  854MOL0     C15189   7.001   2.450  10.184 -0.1723 -0.1284 -0.6110
  854MOL0     C15190   7.007   2.573  10.247 -1.0276 -0.0255 -0.1926
  854MOL0     O15191   6.897   2.652  10.239 -0.0892  0.7226 -0.4617
  854MOL0     C15192   6.908   2.793  10.264  0.2929 -0.1247  0.0492
  854MOL0     C15193   6.770   2.853  10.255  1.1994  0.1014  0.2050
  854MOL0     C15194   6.709   2.842  10.114  0.2853 -0.2299 -0.3884
  854MOL0     C15195   6.583   2.924  10.118  0.1095 -0.3346 -0.0235
  854MOL0     C15196   6.520   2.953   9.978 -0.1938  0.0504  0.5766
  854MOL0     C15197   6.382   3.029   9.994  0.7090 -0.0045  0.1047
  854MOL0     C15198   6.395   3.176  10.048 -0.2839  0.2851 -0.9312
  854MOL0     C15199   6.251   3.242  10.041  0.1360 -0.5620 -0.2414
  854MOL0    Cl15200   6.136   3.137  10.132 -0.0182 -0.2648 -0.3917
  854MOL0     C15201   7.125   2.605  10.324 -0.6703  0.4766  0.2467
  854MOL0     C15202   7.225   2.512  10.331  0.0173  0.2447  1.1360
  854MOL0     O15203   7.311   2.262  10.505 -0.3606  0.5309  0.6814
  854MOL0     C15204   7.525   2.102  10.508 -0.4703 -0.4051  0.4720
  854MOL0     C15205   7.636   2.017  10.510  0.1025 -0.0248 -1.0339
  854MOL0     N15206   8.154   1.448  10.068 -0.2760 -0.6543  0.7886
  854MOL0     N15207   8.205   1.331  10.036  0.7148 -0.6460 -0.5836
  854MOL0     C15208   9.153   1.304   9.472 -0.1788  0.1809  0.1811
  854MOL0     C15209   9.261   1.343   9.401 -0.2314 -0.1133  0.0398
  854MOL0     C15210   9.629   1.438   9.189  0.0051  0.1722  0.3600
  854MOL0     C15211   9.707   1.340   9.123 -0.7191 -0.3395  0.1996
  854MOL0     C15212   9.815   1.377   9.038 -0.1617  0.7980 -0.3712
  854MOL0     C15213   9.845   1.508   8.998  0.1749 -0.2516 -1.2853
  854MOL0     O15214   9.942   1.524   8.907 -0.1151  0.1853  0.0104
  854MOL0     C15215   9.960   1.647   8.843  0.0029  0.4100  0.1184
  854MOL0     C15216  10.035   1.750   8.926 -0.1597 -0.8674  0.4838
  854MOL0     C15217  10.159   1.704   8.997 -0.5889 -0.4566  0.3672
  854MOL0     C15218  10.212   1.812   9.093 -0.5776  0.6502  0.5773
  854MOL0     C15219  10.140   1.808   9.222  0.0958  0.2727  0.2963
  854MOL0     C15220  10.077   1.794   9.322  1.0991 -0.3177  0.1827
  854MOL0     C15221   9.754   1.600   9.051  0.4589  0.8397  1.1696
  854MOL0     C15222   9.661   1.568   9.141  0.7404  0.2478 -0.0909
  854MOL0     H15223   9.467   1.063   9.452 -0.6298  0.4486 -0.3969
  854MOL0     H15224   9.264   0.990   9.559  0.6561  0.7432 -0.4104
  854MOL0     H15225   9.019   0.935   9.585 -0.4497 -1.5594  1.7814
  854MOL0     H15226   9.093   0.967   9.736  1.7977  0.8327 -1.0850
  854MOL0     H15227   8.814   1.045   9.651  1.0157 -0.3537 -0.2797
  854MOL0     H15228   8.868   0.899   9.754 -0.6872 -0.4673 -1.1378
  854MOL0     H15229   8.941   1.006   9.918 -1.0584  1.3415  1.2083
  854MOL0     H15230   8.959   1.161   9.838  1.8150 -1.3199 -0.3023
  854MOL0     H15231   8.697   1.184   9.853 -0.7302 -0.9018 -0.7768
  854MOL0     H15232   8.683   1.018   9.909 -0.9816 -0.5915 -0.0223
  854MOL0     H15233   8.834   1.109  10.117 -0.8869 -0.0751  0.5855
  854MOL0     H15234   8.778   1.264  10.062 -2.6142  0.0946  0.6202
  854MOL0     H15235   8.596   1.023  10.088 -0.3564 -0.1247 -0.2221
  854MOL0     H15236   8.651   1.109  10.230  1.8084 -2.3799 -0.4799
  854MOL0     H15237   8.562   1.316  10.079  2.4745 -1.3650 -0.8894
  854MOL0     H15238   8.507   1.205   9.961  0.4331 -0.1246  0.1156
  854MOL0     H15239   8.377   1.160  10.228 -3.7412  0.1068  0.0112
  854MOL0     H15240   8.325   1.121  10.068 -2.8028  1.1610  0.9493
  854MOL0     H15241   8.390   1.437  10.299  0.4840 -0.5507  0.1151
  854MOL0     H15242   8.196   1.647  10.348 -0.9037  2.6456  0.1039
  854MOL0     H15243   8.252   1.711  10.204 -0.8577 -0.2232 -0.9465
  854MOL0     H15244   7.968   1.583  10.225 -0.0331  0.3746  4.9048
  854MOL0     H15245   8.026   1.714  10.116 -1.4633  3.3441  2.1162
  854MOL0     H15246   8.050   1.857  10.305  1.2856 -0.4964  1.1908
  854MOL0     H15247   7.983   1.746  10.417 -0.5831 -0.6460  0.0475
  854MOL0     H15248   7.781   1.718  10.254  1.8287 -0.5474 -3.7185
  854MOL0     H15249   7.831   1.874  10.197 -0.2073 -2.7393 -2.0918
  854MOL0     H15250   7.596   1.904  10.188 -0.0707 -0.5381  0.8486
  854MOL0     H15251   7.320   2.058  10.145  0.3640 -2.4988  0.1326
  854MOL0     H15252   7.440   2.174  10.090 -2.5540  0.7722  0.9149
  854MOL0     H15253   7.454   1.989  10.068  2.1056 -2.3501  2.5377
  854MOL0     H15254   7.098   2.255  10.148  0.0410 -0.3565  1.4748
  854MOL0     H15255   6.915   2.429  10.122 -0.7280  1.8454 -0.5671
  854MOL0     H15256   6.940   2.811  10.366 -1.0693 -2.4974  0.9860
  854MOL0     H15257   6.976   2.837  10.190  0.8927 -0.4048  0.4316
  854MOL0     H15258   6.707   2.795  10.322  2.3895 -0.4827  0.8524
  854MOL0     H15259   6.759   2.957  10.286 -3.5205  1.0237 -3.3306
  854MOL0     H15260   6.680   2.743  10.077 -1.3520  0.4205 -0.9363
  854MOL0     H15261   6.772   2.876  10.031 -0.1559 -1.6425 -1.3532
  854MOL0     H15262   6.515   2.858  10.173  0.8419  1.3980  3.2143
  854MOL0     H15263   6.596   3.019  10.170 -1.2964  0.5334 -1.1761
  854MOL0     H15264   6.509   2.864   9.915 -2.1201  0.8681 -0.3377
  854MOL0     H15265   6.587   3.018   9.921  0.6493 -1.4952 -0.2824
  854MOL0     H15266   6.328   3.033   9.899  4.0348  2.7799 -1.9255
  854MOL0     H15267   6.323   2.967  10.062  5.4016 -2.3212  2.6067
  854MOL0     H15268   6.458   3.238   9.983  0.1383 -0.5041 -1.2784
  854MOL0     H15269   6.435   3.179  10.150 -1.8186  1.0260 -0.3128
  854MOL0     H15270   6.218   3.250   9.937  0.4451  0.3716 -0.2759
  854MOL0     H15271   6.244   3.343  10.084  0.1791 -0.9032  0.5737
  854MOL0     H15272   7.133   2.702  10.371 -2.1482  0.5592  0.3966
  854MOL0     H15273   7.319   2.531  10.382  0.6086 -0.8260  0.4828
  854MOL0     H15274   7.476   2.126  10.602  0.8950 -0.2483  1.1673
  854MOL0     H15275   7.696   2.003  10.600 -0.2697 -0.6679 -0.8855
  854MOL0     H15276   9.065   1.368   9.470  0.8262  1.5866  0.2680
  854MOL0     H15277   9.268   1.437   9.349  0.1175 -1.5307 -2.6784
  854MOL0     H15278   9.680   1.240   9.153 -1.7799 -0.0664  0.2043
  854MOL0     H15279   9.877   1.301   8.992 -1.0148  0.6645 -1.3214
  854MOL0     H15280  10.021   1.634   8.753 -0.7751 -0.5292 -0.2872
  854MOL0     H15281   9.860   1.681   8.814  0.0697  1.1655  0.7280
  854MOL0     H15282   9.958   1.796   8.989  0.7365  1.7480 -0.1904
  854MOL0     H15283  10.055   1.826   8.850 -1.1211 -0.3010  0.7680
  854MOL0     H15284  10.234   1.665   8.928 -1.0271  0.0147 -0.3869
  854MOL0     H15285  10.129   1.621   9.062  2.5448 -1.9895  0.0310
  854MOL0     H15286  10.212   1.910   9.043 -0.4605  0.8115  0.8909
  854MOL0     H15287  10.315   1.793   9.123 -1.1242 -0.7499  1.6585
  854MOL0     H15288  10.013   1.775   9.406 -3.3993  1.8719 -2.3621
  854MOL0     H15289   9.754   1.705   9.022 -0.1053  0.5595  0.1008
  854MOL0     H15290   9.625   1.662   9.181  1.7879  2.2015 -3.3289
  855MOL0     O15291   1.432   1.244   4.230  0.3860 -0.0411 -0.4944
  855MOL0     C15292   1.516   1.336   4.235 -0.6261  0.2261  0.7190
  855MOL0     O15293   1.491   1.470   4.247  0.2969 -0.0439  0.4290
  855MOL0     C15294   1.365   1.502   4.208 -0.0739 -0.2574 -0.4846
  855MOL0     C15295   1.254   1.500   4.292 -1.2354  0.2471  0.2257
  855MOL0     C15296   1.128   1.548   4.255 -0.2019  0.6841  0.2507
  855MOL0     C15297   1.109   1.591   4.127  0.3372  0.2710 -0.5256
  855MOL0     O15298   0.978   1.618   4.092 -0.6567 -0.7213 -0.7152
  855MOL0     C15299   0.953   1.627   3.950 -1.0340 -0.7920 -0.3740
  855MOL0     C15300   0.804   1.625   3.913  0.0930 -0.0325  0.7943
  855MOL0     C15301   0.721   1.722   3.994 -0.1493  0.2491  0.3192
  855MOL0     C15302   0.574   1.722   3.956  0.1941 -0.0188  0.0665
  855MOL0     C15303   0.505   1.840   4.021  0.4298  0.4979 -0.6495
  855MOL0     C15304   0.364   1.811   4.047  0.1971  0.5782 -0.6724
  855MOL0     C15305   0.282   1.755   3.935  0.3751  0.5501 -0.0141
  855MOL0     C15306   0.292   1.833   3.798 -0.1175 -0.3363  0.0928
  855MOL0     N15307   0.221   1.759   3.689 -0.5773  1.0802  0.1607
  855MOL0     C15308   0.273   1.654   3.616 -0.4127  0.7182  0.1024
  855MOL0     C15309   0.178   1.605   3.538 -0.0905  0.3167 -0.4021
  855MOL0     C15310   0.207   1.487   3.454  0.2906 -0.0578  0.3843
  855MOL0     C15311   0.090   1.394   3.464  1.0663  0.9181  0.2010
  855MOL0     C15312   0.104   1.274   3.370 -0.0163 -0.4084 -0.4657
  855MOL0     C15313   0.240   1.208   3.382  0.8490 -0.3207 -0.3255
  855MOL0     O15314   0.227   1.075   3.339  0.2165 -0.3113 -0.7732
  855MOL0     C15315   0.333   0.984   3.345  0.2781 -0.0474  0.2150
  855MOL0     C15316   0.306   0.853   3.363 -0.2866  0.3475  0.2555
  855MOL0     C15317   0.405   0.758   3.365  0.2725  0.0217  0.2609
  855MOL0     C15318   0.353   0.611   3.365 -0.0829 -0.7297  0.6894
  855MOL0     C15319   0.540   0.803   3.371 -0.4515 -0.2073  0.3107
  855MOL0     C15320   0.657   0.721   3.364 -0.4271 -0.1550  0.2186
  855MOL0     O15321   0.776   0.780   3.322 -0.0797  1.0436 -0.4403
  855MOL0     C15322   0.892   0.708   3.303  0.1380  0.1276 -0.5238
  855MOL0     C15323   0.899   0.567   3.288 -0.9589  0.0917 -0.4292
  855MOL0     C15324   1.029   0.509   3.279  0.7786 -0.4961  1.0654
  855MOL0     C15325   1.141   0.594   3.270 -0.3336 -0.4171 -0.1286
  855MOL0     O15326   1.274   0.545   3.273 -0.6684 -0.2222  0.0347
  855MOL0     C15327   1.308   0.404   3.252  0.1087  0.6257 -0.2731
  855MOL0     C15328   1.432   0.358   3.322 -0.0276  0.1468 -0.2705
  855MOL0     C15329   1.540   0.338   3.216  0.4518  0.5815  0.6540
  855MOL0     C15330   1.678   0.346   3.290  1.2315 -0.4449  0.2371
  855MOL0     C15331   1.791   0.316   3.185  0.5550  0.2287  0.0743
  855MOL0     C15332   1.937   0.304   3.240 -0.9253 -0.1295  0.7012
  855MOL0     C15333   1.975   0.410   3.352  0.6104  0.2802 -0.3986
  855MOL0     C15334   2.083   0.352   3.440 -0.0554  0.1048  0.3407
  855MOL0    Cl15335   2.235   0.348   3.337  0.1551  0.0183  0.1961
  855MOL0     C15336   1.133   0.733   3.279  0.3729 -0.1063  0.2971
  855MOL0     C15337   1.002   0.791   3.284  0.4328 -0.1049 -0.3991
  855MOL0     O15338   0.636   0.606   3.401 -0.7111  0.6928 -0.4192
  855MOL0     C15339   0.565   0.941   3.363  0.0620 -0.6179 -0.6068
  855MOL0     C15340   0.458   1.030   3.342 -0.3681  0.9629  0.3312
  855MOL0     N15341   0.060   1.681   3.569 -0.3725 -0.0872  0.0214
  855MOL0     N15342   0.088   1.769   3.663 -0.4294  0.7344  0.9460
  855MOL0     C15343   1.219   1.584   4.039 -0.1174 -0.1375 -0.5130
  855MOL0     C15344   1.346   1.536   4.071 -0.0978 -0.4465  0.2843
  855MOL0     C15345   1.657   1.294   4.244 -1.1048  0.3939  0.4423
  855MOL0     C15346   1.698   1.156   4.244  0.0823  0.0382  0.3348
  855MOL0     C15347   1.833   1.121   4.282  0.4733 -0.1985  0.0412
  855MOL0     C15348   1.926   1.219   4.303 -0.9382 -0.2915  0.2493
  855MOL0     O15349   2.062   1.201   4.340  0.1393 -0.5529  0.2156
  855MOL0     C15350   2.114   1.068   4.365 -0.0219  0.1217  0.3723
  855MOL0     C15351   2.199   1.066   4.490  0.7203 -0.2973  0.6167
  855MOL0     C15352   2.315   1.165   4.483  0.2966  0.3020  0.1819
  855MOL0     C15353   2.429   1.139   4.578 -0.5428  0.0554  0.0928
  855MOL0     C15354   2.502   1.020   4.533 -0.3446 -0.8678 -0.1773
  855MOL0     C15355   2.557   0.926   4.494  0.4462  0.0228 -0.3104
  855MOL0     C15356   1.888   1.356   4.307 -0.0568  0.0140  0.2326
  855MOL0     C15357   1.757   1.386   4.275 -0.6477  0.4147  0.1445
  855MOL0     H15358   1.263   1.471   4.397 -0.2136  1.1382  0.4077
  855MOL0     H15359   1.041   1.569   4.316 -0.3961  1.7226 -0.3726
  855MOL0     H15360   0.998   1.719   3.912  1.7498 -1.2052  1.6241
  855MOL0     H15361   0.994   1.549   3.886  0.7716 -0.2304  0.0306
  855MOL0     H15362   0.787   1.650   3.808  1.3913  0.1366  0.6046
  855MOL0     H15363   0.773   1.521   3.926  0.8715 -0.5863 -1.3401
  855MOL0     H15364   0.744   1.716   4.101  0.6857 -1.3793  0.0802
  855MOL0     H15365   0.765   1.811   3.947  1.7207 -1.0343 -0.4634
  855MOL0     H15366   0.564   1.736   3.848  3.0092  0.8237 -0.1909
  855MOL0     H15367   0.536   1.624   3.984  0.2259 -0.0824 -0.1119
  855MOL0     H15368   0.553   1.868   4.115  1.3841  0.9367 -1.2472
  855MOL0     H15369   0.496   1.926   3.953 -3.8000  0.5130 -0.3175
  855MOL0     H15370   0.354   1.749   4.136 -0.5474  2.0041  0.2868
  855MOL0     H15371   0.316   1.903   4.080 -1.4703 -0.5337  0.1469
  855MOL0     H15372   0.312   1.652   3.915  1.7543  0.7609  0.8572
  855MOL0     H15373   0.175   1.753   3.958  0.6642 -0.1802  1.3502
  855MOL0     H15374   0.396   1.852   3.770 -0.1380 -1.6024 -0.9361
  855MOL0     H15375   0.240   1.928   3.809 -1.5961 -1.1581  0.4675
  855MOL0     H15376   0.371   1.617   3.642 -0.3867 -0.0681 -1.0386
  855MOL0     H15377   0.225   1.516   3.350 -0.6664 -2.3581 -0.4745
  855MOL0     H15378   0.300   1.445   3.493  1.4063  2.1151  0.2502
  855MOL0     H15379  -0.001   1.449   3.439  0.2757 -0.1646  0.6523
  855MOL0     H15380   0.070   1.367   3.568 -0.3441 -0.6392 -0.4274
  855MOL0     H15381   0.091   1.318   3.271  1.6761  4.1586  1.0605
  855MOL0     H15382   0.029   1.197   3.391  0.1832 -0.8750 -1.4175
  855MOL0     H15383   0.260   1.209   3.489 -0.4023  2.6256 -0.0118
  855MOL0     H15384   0.327   1.257   3.335  0.4913 -1.5174 -2.3370
  855MOL0     H15385   0.204   0.817   3.374 -0.3984  1.2788  3.3109
  855MOL0     H15386   0.399   0.551   3.286  1.2289 -1.1910  1.7606
  855MOL0     H15387   0.370   0.554   3.457 -1.9607 -1.4499  0.6251
  855MOL0     H15388   0.247   0.614   3.339  0.1169  0.2852 -0.0641
  855MOL0     H15389   0.816   0.497   3.296  2.0443 -3.6348  2.3280
  855MOL0     H15390   1.041   0.402   3.265  0.9573 -0.3678  0.1862
  855MOL0     H15391   1.224   0.337   3.273 -0.0921  0.9338 -0.0778
  855MOL0     H15392   1.330   0.392   3.146 -1.5819 -3.4250 -0.3417
  855MOL0     H15393   1.478   0.422   3.398  2.2658 -0.4387 -1.0618
  855MOL0     H15394   1.421   0.258   3.366  0.3310  0.7539  1.2568
  855MOL0     H15395   1.529   0.423   3.149 -0.1310  1.1022  1.3923
  855MOL0     H15396   1.524   0.246   3.159  1.8166  1.5209 -1.3700
  855MOL0     H15397   1.685   0.447   3.331  3.6213  0.0500 -1.2298
  855MOL0     H15398   1.673   0.269   3.368  2.7815 -0.4458  0.3550
  855MOL0     H15399   1.789   0.395   3.110 -2.7656  0.2086  0.0015
  855MOL0     H15400   1.772   0.225   3.128 -1.1495 -0.3695  1.5060
  855MOL0     H15401   1.954   0.202   3.276 -0.1724  1.1219  4.2641
  855MOL0     H15402   2.006   0.319   3.157 -0.0076  1.0678  1.6466
  855MOL0     H15403   1.895   0.429   3.424  1.9492 -0.8552  1.4552
  855MOL0     H15404   1.995   0.509   3.309  0.7349  1.0217  1.2868
  855MOL0     H15405   2.065   0.253   3.483 -1.4600 -0.0915 -0.6314
  855MOL0     H15406   2.102   0.419   3.524  1.6326  0.4208 -0.2491
  855MOL0     H15407   1.220   0.797   3.282 -0.4278  0.9862  2.2619
  855MOL0     H15408   0.986   0.897   3.299 -2.5256 -0.5511  0.3267
  855MOL0     H15409   0.667   0.978   3.365 -0.1616  0.0393  1.5888
  855MOL0     H15410   0.484   1.134   3.322  2.3462  0.8989  2.9456
  855MOL0     H15411   1.203   1.625   3.940  0.3055  0.2111 -0.4425
  855MOL0     H15412   1.420   1.539   3.992 -0.7224 -0.5784 -0.3185
  855MOL0     H15413   1.627   1.074   4.232 -0.6119  0.7217 -0.2618
  855MOL0     H15414   1.854   1.014   4.285 -0.4918 -0.4013  0.1170
  855MOL0     H15415   2.033   0.995   4.376  0.2295  0.0758  2.1072
  855MOL0     H15416   2.175   1.040   4.279  1.4713 -0.9457  1.7135
  855MOL0     H15417   2.243   0.968   4.511 -0.3481 -0.4865  2.1917
  855MOL0     H15418   2.142   1.099   4.578  1.0398  0.6423  0.4726
  855MOL0     H15419   2.267   1.259   4.510  1.3279  0.1882  2.5878
  855MOL0     H15420   2.353   1.161   4.380  0.3668  2.1056  0.1220
  855MOL0     H15421   2.399   1.117   4.681 -0.1910  0.1824  0.2260
  855MOL0     H15422   2.494   1.228   4.582 -0.4385  0.1101 -1.7854
  855MOL0     H15423   2.611   0.835   4.477 -1.5284 -1.3541  0.4105
  855MOL0     H15424   1.961   1.429   4.340 -0.8422  0.1146  1.8511
  855MOL0     H15425   1.725   1.487   4.298  1.8507  1.3161  0.0283
  856MOL0     O15426   2.495   6.883   4.846 -0.4357  0.5718  0.1123
  856MOL0     C15427   2.504   6.910   4.727  0.2364 -0.1111  0.1337
  856MOL0     O15428   2.417   6.981   4.662 -0.3667  0.2548  0.6729
  856MOL0     C15429   2.302   7.020   4.728 -0.7665  1.2516  0.7460
  856MOL0     C15430   2.185   6.938   4.718 -0.1577  0.0777 -0.8565
  856MOL0     C15431   2.076   6.968   4.801 -0.4138 -0.1064  0.1383
  856MOL0     C15432   2.073   7.076   4.895 -0.2329  0.3695 -0.3550
  856MOL0     O15433   1.957   7.089   4.963  0.5259 -0.1568  0.2963
  856MOL0     C15434   1.949   7.178   5.073  0.2675  0.0523  0.0486
  856MOL0     C15435   1.810   7.162   5.145 -0.1434 -0.2259  0.0058
  856MOL0     C15436   1.682   7.200   5.052  0.0561 -0.4146 -0.1951
  856MOL0     C15437   1.563   7.252   5.147 -0.5883 -0.3299  0.1033
  856MOL0     C15438   1.423   7.206   5.104  0.2276  0.2885 -0.1884
  856MOL0     C15439   1.395   7.056   5.097 -0.0488 -0.5421 -0.1888
  856MOL0     C15440   1.237   7.059   5.096  0.2512  0.7859  0.0791
  856MOL0     C15441   1.182   6.917   5.104 -0.0035 -0.1125 -0.1754
  856MOL0     N15442   1.046   6.907   5.146 -0.1673 -0.2339  0.0279
  856MOL0     C15443   0.990   6.785   5.199 -0.5257 -0.3746 -0.2194
  856MOL0     C15444   0.867   6.818   5.240  0.2052 -0.5335  0.4835
  856MOL0     C15445   0.771   6.733   5.312 -0.6025 -0.6990  0.4521
  856MOL0     C15446   0.769   6.754   5.464 -0.1284 -1.2825  0.2231
  856MOL0     C15447   0.880   6.681   5.532 -0.3094 -0.7447  0.4953
  856MOL0     C15448   0.884   6.725   5.680 -0.1536  0.2365 -0.1327
  856MOL0     O15449   0.772   6.672   5.753  0.3749 -0.1646 -0.8769
  856MOL0     C15450   0.661   6.751   5.756 -0.5464 -0.1767  0.4886
  856MOL0     C15451   0.670   6.881   5.794 -0.1840 -0.2924  0.0001
  856MOL0     C15452   0.561   6.964   5.805  0.0941 -0.3772  0.0521
  856MOL0     C15453   0.593   7.113   5.840  0.0074  0.9218  0.1449
  856MOL0     C15454   0.437   6.909   5.780 -0.2594  0.0528 -0.9166
  856MOL0     C15455   0.303   6.982   5.787 -0.6267 -0.5625  0.2344
  856MOL0     O15456   0.192   6.904   5.809 -0.0194  0.0807  0.0043
  856MOL0     C15457   0.076   6.971   5.813 -0.0789  0.0535  0.3465
  856MOL0     C15458   0.036   7.063   5.906 -0.1089 -0.0755  0.3943
  856MOL0     C15459  -0.085   7.131   5.895 -0.6381 -0.2069  0.2668
  856MOL0     C15460  -0.172   7.107   5.792 -0.0875 -0.0599  0.0798
  856MOL0     O15461  -0.288   7.183   5.789 -0.4335  0.0503  0.2735
  856MOL0     C15462  -0.402   7.139   5.717  0.3134 -0.4262  0.5812
  856MOL0     C15463  -0.521   7.227   5.757  0.2764  0.9855 -0.5821
  856MOL0     C15464  -0.635   7.215   5.653  0.1187  0.5218  0.4997
  856MOL0     C15465  -0.757   7.307   5.692  0.0361 -0.6137  0.3107
  856MOL0     C15466  -0.890   7.274   5.613 -0.1968 -0.3251  0.4854
  856MOL0     C15467  -1.005   7.386   5.632 -0.4368 -0.1443 -0.0748
  856MOL0     C15468  -1.132   7.380   5.539  0.8510 -0.4154 -0.2448
  856MOL0     C15469  -1.094   7.422   5.398  0.6628  1.4416 -0.5344
  856MOL0    Cl15470  -1.255   7.436   5.324 -0.3564  0.5729  0.2473
  856MOL0     C15471  -0.140   6.998   5.701  1.1263  0.0880 -0.0457
  856MOL0     C15472  -0.012   6.934   5.706 -0.1066 -0.1503 -0.7340
  856MOL0     O15473   0.298   7.105   5.760 -0.1384 -0.1346  0.0533
  856MOL0     C15474   0.427   6.775   5.756 -0.5925 -0.7505  0.0594
  856MOL0     C15475   0.539   6.701   5.739  0.6602 -0.0563 -0.2448
  856MOL0     N15476   0.846   6.950   5.206 -0.1926 -0.1142 -0.2473
  856MOL0     N15477   0.952   6.999   5.155  0.3254  0.7664 -0.0079
  856MOL0     C15478   2.193   7.156   4.909 -0.1837 -0.2776  0.0930
  856MOL0     C15479   2.304   7.124   4.828  0.4260  0.1189 -0.1880
  856MOL0     C15480   2.630   6.882   4.655 -0.6227  0.7471 -0.3817
  856MOL0     C15481   2.745   6.826   4.717  0.0779 -0.2200  0.2407
  856MOL0     C15482   2.862   6.807   4.656  1.0016 -1.2044 -0.0381
  856MOL0     C15483   2.872   6.840   4.517  0.9838  0.9984  0.1595
  856MOL0     O15484   2.987   6.818   4.439 -0.4750 -0.8016  0.1012
  856MOL0     C15485   3.080   6.722   4.483 -0.4687 -0.6034  1.5174
  856MOL0     C15486   3.203   6.732   4.385 -0.5394 -0.0014  0.0318
  856MOL0     C15487   3.271   6.870   4.399 -1.0867  0.4113 -0.1683
  856MOL0     C15488   3.389   6.885   4.312 -0.1650  0.6423  0.2946
  856MOL0     C15489   3.435   7.021   4.291 -0.7467  0.4157  0.0400
  856MOL0     C15490   3.475   7.137   4.278 -0.7581 -0.2980  0.2418
  856MOL0     C15491   2.763   6.898   4.456 -0.7949 -0.3761  0.0085
  856MOL0     C15492   2.649   6.923   4.523  0.5499  0.2840 -0.3323
  856MOL0     H15493   2.177   6.856   4.647 -1.8071 -0.7721  0.2509
  856MOL0     H15494   1.976   6.928   4.789 -1.4247  1.4085  2.6122
  856MOL0     H15495   2.020   7.149   5.152  1.2473  1.8466 -0.1065
  856MOL0     H15496   1.965   7.283   5.048  0.1888  0.1676  0.4763
  856MOL0     H15497   1.805   7.058   5.179 -0.1926  0.3143  1.8024
  856MOL0     H15498   1.805   7.231   5.230 -2.5165 -1.1007  0.6456
  856MOL0     H15499   1.699   7.270   4.969  4.0256 -2.8016 -1.7041
  856MOL0     H15500   1.657   7.111   4.994 -2.5161 -1.2765  2.0172
  856MOL0     H15501   1.578   7.212   5.247 -0.7573  1.4454  0.8755
  856MOL0     H15502   1.560   7.360   5.160 -1.1759 -0.2599 -0.5284
  856MOL0     H15503   1.370   7.251   5.188  1.7759 -0.6707  1.3881
  856MOL0     H15504   1.387   7.256   5.013 -2.2427 -1.1512 -0.0871
  856MOL0     H15505   1.440   7.015   5.006  1.1805 -0.2951  0.2937
  856MOL0     H15506   1.440   7.006   5.184  0.3095  1.2502  0.6995
  856MOL0     H15507   1.194   7.114   5.181  2.1386 -0.1194  1.7044
  856MOL0     H15508   1.200   7.108   5.006 -1.1202 -0.2125  0.0574
  856MOL0     H15509   1.234   6.866   5.186 -0.2627  0.2934  0.2425
  856MOL0     H15510   1.190   6.860   5.011  0.1593  1.1085 -0.9310
  856MOL0     H15511   1.036   6.687   5.208  1.1023  0.1292 -2.2810
  856MOL0     H15512   0.672   6.753   5.270 -0.5397  0.8423  0.9597
  856MOL0     H15513   0.782   6.626   5.294  2.3586 -0.2384 -1.0773
  856MOL0     H15514   0.666   6.730   5.493 -1.7783  1.2069 -2.8662
  856MOL0     H15515   0.767   6.862   5.483 -0.8746 -1.5872  2.0971
  856MOL0     H15516   0.977   6.700   5.485 -0.7369  3.7805  0.9578
  856MOL0     H15517   0.858   6.574   5.530  0.9367 -1.0239  0.9249
  856MOL0     H15518   0.897   6.832   5.696 -1.5673  0.5851 -1.1161
  856MOL0     H15519   0.976   6.692   5.729  1.2003  1.0069 -2.0545
  856MOL0     H15520   0.770   6.916   5.817 -0.0810  1.4736 -2.6913
  856MOL0     H15521   0.506   7.174   5.866  1.4023  2.5027  1.3355
  856MOL0     H15522   0.656   7.123   5.929 -1.5229 -1.4251  1.6338
  856MOL0     H15523   0.640   7.153   5.751 -0.6854  1.0667 -0.1626
  856MOL0     H15524   0.103   7.089   5.987 -1.1285  0.4405  1.1015
  856MOL0     H15525  -0.115   7.212   5.961 -1.3830 -1.2754  1.2754
  856MOL0     H15526  -0.380   7.151   5.610  0.2522 -0.1462  0.6011
  856MOL0     H15527  -0.428   7.034   5.735  0.7592 -1.2305 -2.6709
  856MOL0     H15528  -0.555   7.210   5.859 -1.2566  0.1987 -1.1871
  856MOL0     H15529  -0.493   7.332   5.760 -0.3596  1.1318  0.8875
  856MOL0     H15530  -0.663   7.110   5.648  3.6878 -0.7578  2.9663
  856MOL0     H15531  -0.603   7.234   5.550 -1.6813 -2.7393 -0.8112
  856MOL0     H15532  -0.775   7.320   5.799  0.8831  1.6412  0.2265
  856MOL0     H15533  -0.740   7.412   5.664 -0.5620 -0.5783  0.0796
  856MOL0     H15534  -0.919   7.172   5.639 -2.5202  0.0793 -0.2864
  856MOL0     H15535  -0.861   7.276   5.508  0.7352 -2.4024  0.6699
  856MOL0     H15536  -1.039   7.368   5.734 -1.2235  3.2053  0.3576
  856MOL0     H15537  -0.957   7.484   5.632 -0.8627  0.0649  0.2325
  856MOL0     H15538  -1.206   7.457   5.563 -0.3887 -0.9044 -2.2415
  856MOL0     H15539  -1.189   7.291   5.565  2.3139 -0.4293  3.4651
  856MOL0     H15540  -1.036   7.339   5.356 -0.7189 -1.0228  2.0779
  856MOL0     H15541  -1.041   7.517   5.399 -0.5457  2.1299  0.8704
  856MOL0     H15542  -0.208   6.965   5.624  1.9165  1.6734 -1.4831
  856MOL0     H15543   0.016   6.855   5.637 -1.3250  0.3983 -1.9076
  856MOL0     H15544   0.330   6.727   5.746 -0.4673 -0.6138 -2.2680
  856MOL0     H15545   0.536   6.597   5.709 -1.1823  0.4451 -2.0196
  856MOL0     H15546   2.194   7.229   4.989  2.2693  1.9599 -1.7720
  856MOL0     H15547   2.395   7.184   4.836  0.6407  0.1737 -2.5221
  856MOL0     H15548   2.747   6.801   4.823  1.1659 -1.6166 -0.0779
  856MOL0     H15549   2.943   6.762   4.713  1.7374 -0.6784 -0.6502
  856MOL0     H15550   3.122   6.731   4.584  0.9356 -1.0431  1.0002
  856MOL0     H15551   3.035   6.623   4.477  0.3864 -1.0112  1.7538
  856MOL0     H15552   3.167   6.716   4.283 -2.1451 -0.3965  0.6198
  856MOL0     H15553   3.271   6.656   4.425  1.1083  0.9929 -0.7671
  856MOL0     H15554   3.311   6.866   4.501  1.6669 -1.4372 -1.2233
  856MOL0     H15555   3.203   6.956   4.398 -2.0483 -0.3092  0.4886
  856MOL0     H15556   3.358   6.850   4.213  1.3438  1.9055 -0.6660
  856MOL0     H15557   3.461   6.810   4.345  1.0947  0.9443 -1.6009
  856MOL0     H15558   3.500   7.240   4.263 -2.2774  0.2095  0.9027
  856MOL0     H15559   2.775   6.917   4.350  0.5962 -0.3498  0.1543
  856MOL0     H15560   2.570   6.966   4.462 -0.6048 -1.1099  0.1352
  857MOL0     O15561   8.269   2.233   4.972 -0.5049  0.3561  0.1162
  857MOL0     C15562   8.289   2.235   5.092 -0.3398 -0.1336  0.4328
  857MOL0     O15563   8.229   2.314   5.186  0.6489 -0.6883  0.2537
  857MOL0     C15564   8.093   2.365   5.176  0.1234  0.1464 -0.0294
  857MOL0     C15565   8.017   2.393   5.058 -0.3662  0.4189  0.1606
  857MOL0     C15566   7.889   2.457   5.066 -1.0814 -0.5972 -1.0251
  857MOL0     C15567   7.831   2.492   5.188  0.7462  0.1051 -0.8014
  857MOL0     O15568   7.702   2.539   5.213  0.3868  0.3936 -0.3867
  857MOL0     C15569   7.625   2.589   5.106 -0.3074 -0.4791 -0.3263
  857MOL0     C15570   7.489   2.636   5.152  0.0084 -0.3372  0.0378
  857MOL0     C15571   7.402   2.648   5.024 -0.1754  0.1562 -1.0154
  857MOL0     C15572   7.256   2.643   5.070 -0.0992 -0.3513 -0.7085
  857MOL0     C15573   7.166   2.692   4.956 -1.1336 -0.1595  0.4679
  857MOL0     C15574   7.014   2.678   4.976 -0.8607  0.7252  0.2351
  857MOL0     C15575   6.959   2.729   5.108  0.1007 -0.1481  0.8733
  857MOL0     C15576   6.809   2.687   5.131 -0.9684  0.3624 -0.5558
  857MOL0     N15577   6.726   2.731   5.017 -0.2407  0.1922  0.3674
  857MOL0     C15578   6.678   2.650   4.922 -0.0604 -0.6333 -0.7162
  857MOL0     C15579   6.580   2.725   4.866 -0.0817  0.6911  0.1278
  857MOL0     C15580   6.474   2.679   4.776 -0.4407  0.1472 -0.5836
  857MOL0     C15581   6.374   2.603   4.863  0.1120  0.6650 -0.0233
  857MOL0     C15582   6.269   2.537   4.776  0.9059  0.3994 -0.1217
  857MOL0     C15583   6.163   2.456   4.854 -0.6705 -1.3272  0.2686
  857MOL0     O15584   6.086   2.527   4.955  1.3508 -0.1479  0.1410
  857MOL0     C15585   5.957   2.573   4.919 -0.2539 -0.3081 -0.7253
  857MOL0     C15586   5.948   2.645   4.806 -0.5089 -1.0034  0.2038
  857MOL0     C15587   5.821   2.693   4.760 -0.1658  1.1887 -0.2095
  857MOL0     C15588   5.817   2.741   4.618 -0.2433  0.3491  0.4245
  857MOL0     C15589   5.710   2.664   4.838  0.0685 -0.1066  0.8709
  857MOL0     C15590   5.568   2.667   4.793 -0.9085  0.0825 -0.1978
  857MOL0     O15591   5.536   2.738   4.677  0.1752 -0.2160 -0.3824
  857MOL0     C15592   5.417   2.703   4.612  0.3521 -0.1078 -0.0374
  857MOL0     C15593   5.301   2.772   4.655 -0.7004 -0.2604  0.8507
  857MOL0     C15594   5.174   2.716   4.627 -1.8996  0.7998 -1.0327
  857MOL0     C15595   5.161   2.596   4.551 -0.5940  0.1987 -0.2302
  857MOL0     O15596   5.041   2.529   4.544 -0.1738  0.5058 -0.4043
  857MOL0     C15597   5.023   2.430   4.443 -0.0199 -0.5278  0.3894
  857MOL0     C15598   4.878   2.405   4.422  0.6042 -0.4630  0.0066
  857MOL0     C15599   4.797   2.369   4.553 -0.9641  0.0422 -0.1775
  857MOL0     C15600   4.667   2.314   4.529  0.0268  0.3207 -0.1362
  857MOL0     C15601   4.587   2.315   4.657  0.2647 -0.1319 -0.4651
  857MOL0     C15602   4.459   2.233   4.637 -0.2020 -1.0286  0.0327
  857MOL0     C15603   4.345   2.281   4.716  0.7586 -0.2746  0.7815
  857MOL0     C15604   4.230   2.204   4.661 -0.0673  0.1433 -0.8320
  857MOL0    Cl15605   4.074   2.286   4.715  0.5063  0.1230 -0.4495
  857MOL0     C15606   5.278   2.536   4.507 -0.2600 -0.4877  0.1848
  857MOL0     C15607   5.400   2.590   4.535 -0.1866 -0.1739  0.3623
  857MOL0     O15608   5.491   2.597   4.857 -0.0262  0.6966  0.1160
  857MOL0     C15609   5.727   2.600   4.959  0.2308 -0.0822 -1.1224
  857MOL0     C15610   5.850   2.553   4.996  0.3257 -0.1504 -0.9558
  857MOL0     N15611   6.598   2.857   4.910  0.4959 -0.5334 -0.2846
  857MOL0     N15612   6.680   2.857   5.004  0.2352 -0.0373 -0.5340
  857MOL0     C15613   7.901   2.456   5.308 -0.6635 -0.6982  0.1465
  857MOL0     C15614   8.029   2.393   5.300  0.2867 -0.7119  0.1844
  857MOL0     C15615   8.392   2.140   5.144  0.1352 -0.4453 -0.2260
  857MOL0     C15616   8.396   2.111   5.281 -0.1766  0.4903  0.9122
  857MOL0     C15617   8.483   2.013   5.335 -0.3819  0.4774 -0.1641
  857MOL0     C15618   8.575   1.932   5.248  0.2884 -0.2279 -0.9057
  857MOL0     O15619   8.662   1.826   5.281 -0.2927  0.5418 -0.4323
  857MOL0     C15620   8.637   1.776   5.419  0.0963 -0.4917 -0.0125
  857MOL0     C15621   8.720   1.650   5.454 -0.0388  0.1184 -0.7555
  857MOL0     C15622   8.670   1.526   5.368 -0.1258  0.1858  0.0770
  857MOL0     C15623   8.729   1.392   5.408 -0.3799  0.3663 -0.5989
  857MOL0     C15624   8.696   1.349   5.544 -0.0234 -0.4899  0.3583
  857MOL0     C15625   8.641   1.322   5.652 -0.7454 -0.7229 -0.2837
  857MOL0     C15626   8.558   1.961   5.111 -0.7107 -0.0659 -0.0808
  857MOL0     C15627   8.475   2.064   5.059 -0.0643  0.5921  0.2268
  857MOL0     H15628   8.056   2.384   4.957 -2.6610  0.7552 -0.8261
  857MOL0     H15629   7.830   2.479   4.978 -0.7936 -0.0459 -1.0811
  857MOL0     H15630   7.671   2.679   5.064 -3.4574  1.1593 -0.5350
  857MOL0     H15631   7.618   2.504   5.037  1.7681 -2.1293  1.3558
  857MOL0     H15632   7.435   2.569   5.220  0.6860 -0.4414  0.4830
  857MOL0     H15633   7.493   2.735   5.199  0.3207 -1.0111  1.4718
  857MOL0     H15634   7.429   2.744   4.980 -1.8995  0.5938 -1.2174
  857MOL0     H15635   7.425   2.564   4.957  4.6691 -1.4064  2.1409
  857MOL0     H15636   7.233   2.538   5.091 -1.8449  0.7122  3.8879
  857MOL0     H15637   7.239   2.691   5.167  3.3019  0.5826 -0.4460
  857MOL0     H15638   7.187   2.796   4.929 -2.6458  0.2219  0.6776
  857MOL0     H15639   7.196   2.632   4.870 -0.2600  0.5002  0.2929
  857MOL0     H15640   6.968   2.732   4.892 -0.1108  0.5909 -0.2689
  857MOL0     H15641   6.986   2.572   4.968  5.2248 -1.4501  2.2456
  857MOL0     H15642   7.022   2.688   5.188  2.7593  1.7075 -0.1560
  857MOL0     H15643   6.973   2.837   5.117 -1.2501  0.0634  0.7253
  857MOL0     H15644   6.785   2.726   5.230  1.4786 -0.2789  0.3720
  857MOL0     H15645   6.786   2.580   5.140 -1.1962  0.5366  1.1800
  857MOL0     H15646   6.703   2.546   4.904  1.8329 -1.0290  3.1996
  857MOL0     H15647   6.429   2.761   4.720 -0.2793  1.4771  1.1533
  857MOL0     H15648   6.522   2.614   4.703 -0.6545 -1.4227  0.6064
  857MOL0     H15649   6.340   2.664   4.947  2.1901  2.8304 -0.6162
  857MOL0     H15650   6.419   2.513   4.906 -3.3724 -1.1370  0.1754
  857MOL0     H15651   6.328   2.465   4.719  3.0960  0.0487  2.3457
  857MOL0     H15652   6.238   2.617   4.708  1.5511  1.5243  0.8510
  857MOL0     H15653   6.222   2.370   4.888  0.6134 -1.8767 -3.0544
  857MOL0     H15654   6.087   2.413   4.788 -1.0721  1.5179 -1.2703
  857MOL0     H15655   6.039   2.667   4.750 -0.7325 -0.5437  0.0111
  857MOL0     H15656   5.916   2.770   4.582 -0.4627 -2.3211 -2.7527
  857MOL0     H15657   5.774   2.671   4.547  2.8921  0.8744 -2.2488
  857MOL0     H15658   5.760   2.835   4.612  2.8186  2.3507  0.1262
  857MOL0     H15659   5.310   2.854   4.726 -2.5964 -0.6506  1.6051
  857MOL0     H15660   5.077   2.739   4.671 -1.7461 -1.8306  0.9240
  857MOL0     H15661   5.070   2.462   4.349  1.5711  0.7655  1.5498
  857MOL0     H15662   5.061   2.338   4.487 -1.5426  0.2681  3.6241
  857MOL0     H15663   4.830   2.493   4.376 -1.9195 -1.2417  0.9462
  857MOL0     H15664   4.866   2.315   4.361 -1.4983  0.6983 -1.4363
  857MOL0     H15665   4.790   2.456   4.618 -0.5832  0.9581 -1.3285
  857MOL0     H15666   4.851   2.290   4.607 -1.2648 -1.1021 -1.4849
  857MOL0     H15667   4.613   2.361   4.446  0.7186  1.0904 -0.1661
  857MOL0     H15668   4.694   2.213   4.497  4.0982 -0.3045  4.2263
  857MOL0     H15669   4.557   2.414   4.693  0.2097  0.0636 -1.0406
  857MOL0     H15670   4.644   2.264   4.736  1.5795  0.3418 -1.0924
  857MOL0     H15671   4.436   2.238   4.530  0.3512  1.8204 -0.0446
  857MOL0     H15672   4.476   2.130   4.669 -3.6366 -2.3747 -1.8733
  857MOL0     H15673   4.326   2.383   4.680 -1.4040 -0.7915  0.2953
  857MOL0     H15674   4.353   2.268   4.824 -0.2706 -0.9527  0.7945
  857MOL0     H15675   4.230   2.107   4.713 -0.5382  1.3330  1.5184
  857MOL0     H15676   4.230   2.195   4.552  2.6908  4.0323 -1.3572
  857MOL0     H15677   5.280   2.441   4.454  0.5624  0.0782 -0.8590
  857MOL0     H15678   5.485   2.534   4.497  0.7711  1.1068  0.5793
  857MOL0     H15679   5.644   2.588   5.029  0.0588 -0.8003 -1.4445
  857MOL0     H15680   5.872   2.514   5.095 -1.3997  1.0204 -0.0438
  857MOL0     H15681   7.858   2.470   5.407 -1.5500  0.7007 -0.3942
  857MOL0     H15682   8.079   2.367   5.392  2.0239 -1.5934 -0.9643
  857MOL0     H15683   8.332   2.161   5.353  0.3168 -0.7899  2.2848
  857MOL0     H15684   8.490   2.015   5.443 -0.0372  3.2764 -0.1501
  857MOL0     H15685   8.652   1.851   5.497 -0.2127  0.6030 -0.9875
  857MOL0     H15686   8.534   1.747   5.439 -0.8977  2.1469 -0.9594
  857MOL0     H15687   8.713   1.623   5.560 -1.4697 -3.2809 -1.5713
  857MOL0     H15688   8.824   1.682   5.440 -0.0285  0.5335  0.1976
  857MOL0     H15689   8.699   1.546   5.264 -0.9815  2.0561  0.1671
  857MOL0     H15690   8.561   1.522   5.362 -0.3459  0.4240  2.8242
  857MOL0     H15691   8.839   1.394   5.405 -0.2877 -1.5885  0.0238
  857MOL0     H15692   8.683   1.323   5.337 -0.4817  0.7212 -0.8822
  857MOL0     H15693   8.592   1.300   5.744  0.4496 -1.0919  0.2868
  857MOL0     H15694   8.618   1.895   5.051 -0.4229  0.1775 -0.0645
  857MOL0     H15695   8.465   2.070   4.951  1.0056 -1.1982 -0.0221
  858MOL0     O15696  11.155  11.005   3.247 -0.2182  0.0535  0.2041
  858MOL0     C15697  11.215  10.945   3.335 -1.1068 -0.8320 -0.6218
  858MOL0     O15698  11.164  10.904   3.451  0.0977  0.0486 -0.2395
  858MOL0     C15699  11.032  10.935   3.472  0.1583  0.0998  0.3615
  858MOL0     C15700  10.999  11.064   3.511 -0.3063 -0.4790 -0.8155
  858MOL0     C15701  10.869  11.098   3.534  1.4196 -0.2622  0.1793
  858MOL0     C15702  10.770  11.008   3.493  1.4208 -0.6173  0.4257
  858MOL0     O15703  10.638  11.039   3.535 -0.6162  1.1097 -0.4976
  858MOL0     C15704  10.549  10.940   3.577  0.8386 -1.4398 -0.3025
  858MOL0     C15705  10.409  10.996   3.596 -0.2134  0.2366 -0.3853
  858MOL0     C15706  10.406  11.128   3.678  0.5687 -0.1965  0.3815
  858MOL0     C15707  10.268  11.185   3.684 -0.3215 -0.6042 -0.1305
  858MOL0     C15708  10.193  11.131   3.806  0.5246 -0.2732 -0.3847
  858MOL0     C15709  10.051  11.195   3.822  0.1150  0.0782 -0.5340
  858MOL0     C15710   9.938  11.116   3.749  0.9038 -0.5057 -0.3110
  858MOL0     C15711   9.821  11.200   3.700 -1.3083  0.0817  0.2467
  858MOL0     N15712   9.727  11.133   3.607 -0.3117  1.1245 -0.3800
  858MOL0     C15713   9.598  11.105   3.642 -0.1773  0.5029  0.6842
  858MOL0     C15714   9.538  11.095   3.515  0.0038 -0.3139 -0.3697
  858MOL0     C15715   9.394  11.062   3.494 -0.7800  0.5334  0.6445
  858MOL0     C15716   9.296  11.111   3.605 -0.1792 -0.2106  0.2630
  858MOL0     C15717   9.165  11.156   3.533 -0.7072 -0.1366 -0.6719
  858MOL0     C15718   9.061  11.211   3.624  0.2830 -0.1278  0.4295
  858MOL0     O15719   8.959  11.273   3.540 -0.1206 -0.0366  0.6899
  858MOL0     C15720   8.910  11.399   3.566 -0.1227 -0.0036 -0.5306
  858MOL0     C15721   8.768  11.424   3.545  0.4537 -0.1348  0.9150
  858MOL0     C15722   8.705  11.541   3.590  0.4956  0.1612 -0.2341
  858MOL0     C15723   8.550  11.549   3.566 -0.4513 -0.5524 -0.6672
  858MOL0     C15724   8.783  11.640   3.656 -0.4198  0.1183  0.2424
  858MOL0     C15725   8.733  11.765   3.701  0.4879  0.0254  0.5764
  858MOL0     O15726   8.813  11.828   3.787  0.3061 -0.8669 -0.1502
  858MOL0     C15727   8.774  11.943   3.849 -0.9233 -0.5048  0.0289
  858MOL0     C15728   8.873  12.036   3.871 -0.5030 -0.6466  0.4627
  858MOL0     C15729   8.841  12.151   3.937 -0.3023 -0.1885 -0.4076
  858MOL0     C15730   8.720  12.167   4.001  0.6024 -0.2856  0.4016
  858MOL0     O15731   8.677  12.277   4.081  0.0011  1.1160 -0.1188
  858MOL0     C15732   8.766  12.376   4.126  0.2599 -0.5531 -0.0906
  858MOL0     C15733   8.701  12.471   4.227  0.2810 -0.0574  0.2299
  858MOL0     C15734   8.550  12.507   4.220  0.7121 -0.3334  1.6517
  858MOL0     C15735   8.533  12.598   4.095  0.6363 -0.2522 -0.9677
  858MOL0     C15736   8.386  12.608   4.038  0.3449 -0.1346 -0.4909
  858MOL0     C15737   8.283  12.634   4.153 -1.3282 -0.2149 -0.4329
  858MOL0     C15738   8.150  12.620   4.094  0.6977  0.5736  0.4797
  858MOL0     C15739   8.038  12.641   4.194  0.6955  0.4939 -0.0047
  858MOL0    Cl15740   7.864  12.607   4.127  0.1170  0.0759 -0.3288
  858MOL0     C15741   8.616  12.076   3.977 -0.6187  0.3705  0.3428
  858MOL0     C15742   8.641  11.962   3.903 -0.2147 -0.0380  0.3198
  858MOL0     O15743   8.624  11.806   3.661  0.2560  0.2504 -1.4388
  858MOL0     C15744   8.924  11.625   3.674 -0.3466 -0.5891 -0.6879
  858MOL0     C15745   8.984  11.506   3.625 -0.2420 -0.5209 -0.4872
  858MOL0     N15746   9.627  11.120   3.411 -0.5843  1.1374  0.4810
  858MOL0     N15747   9.743  11.129   3.472 -0.1135 -0.0536  0.0959
  858MOL0     C15748  10.799  10.882   3.447 -0.6906  0.2277  0.1607
  858MOL0     C15749  10.931  10.847   3.436  0.3572  0.0065 -0.6418
  858MOL0     C15750  11.364  10.919   3.313  0.4868 -0.2799  0.4547
  858MOL0     C15751  11.430  10.969   3.204  0.5989 -0.8001 -0.4981
  858MOL0     C15752  11.559  10.935   3.173 -0.7047  0.7268 -0.4943
  858MOL0     C15753  11.633  10.850   3.265  0.5192  1.0609 -0.4582
  858MOL0     O15754  11.763  10.818   3.257 -0.0475  0.2829  0.1117
  858MOL0     C15755  11.839  10.833   3.133 -0.4809  0.2834  0.3840
  858MOL0     C15756  11.795  10.733   3.029 -0.3129  0.3007  0.0808
  858MOL0     C15757  11.827  10.589   3.072 -0.4544 -0.0669 -0.3936
  858MOL0     C15758  11.807  10.479   2.968  0.4082 -0.6431  0.3801
  858MOL0     C15759  11.887  10.489   2.845  0.5280  0.5640 -0.9824
  858MOL0     C15760  11.944  10.487   2.740 -0.1949 -0.1367  0.6781
  858MOL0     C15761  11.566  10.819   3.391 -0.9056 -0.4135  0.1619
  858MOL0     C15762  11.432  10.844   3.408  0.5293 -0.3751  0.2244
  858MOL0     H15763  11.084  11.124   3.541 -0.5252 -0.2068 -0.7386
  858MOL0     H15764  10.832  11.189   3.581  1.0859 -0.0339 -0.5136
  858MOL0     H15765  10.542  10.854   3.509 -1.2866  0.4075 -2.6097
  858MOL0     H15766  10.575  10.902   3.677 -1.9659  0.1201  1.1328
  858MOL0     H15767  10.360  11.017   3.500  0.6659  3.4386 -0.2286
  858MOL0     H15768  10.363  10.917   3.656  3.0389 -0.8841  0.8776
  858MOL0     H15769  10.468  11.117   3.768  1.2790  1.2007  0.1028
  858MOL0     H15770  10.467  11.201   3.624  1.4544  0.7598  2.5162
  858MOL0     H15771  10.281  11.293   3.685 -0.7230 -0.5518  0.8202
  858MOL0     H15772  10.209  11.160   3.595 -0.4359  2.6169 -1.0681
  858MOL0     H15773  10.194  11.022   3.806 -1.8620 -0.3515 -1.1386
  858MOL0     H15774  10.255  11.156   3.892 -0.4564 -0.1547  0.3081
  858MOL0     H15775  10.040  11.206   3.930 -0.0328  0.0234 -0.5423
  858MOL0     H15776  10.043  11.299   3.789 -1.2491 -0.5373 -2.3193
  858MOL0     H15777   9.983  11.054   3.670  1.0775  1.1324 -1.5490
  858MOL0     H15778   9.900  11.038   3.815  0.9289 -1.8021 -1.7605
  858MOL0     H15779   9.867  11.280   3.641 -3.0330  1.0731  0.1827
  858MOL0     H15780   9.770  11.250   3.782  1.4204 -1.1342  2.8444
  858MOL0     H15781   9.553  11.099   3.740  1.2262 -1.9472  1.2826
  858MOL0     H15782   9.374  11.110   3.397 -3.2577 -2.0800 -0.3240
  858MOL0     H15783   9.381  10.953   3.485 -1.0759  0.4835  1.5664
  858MOL0     H15784   9.341  11.195   3.658 -1.4307  0.4618  0.2963
  858MOL0     H15785   9.276  11.025   3.669  2.1764  0.2041  1.6742
  858MOL0     H15786   9.134  11.059   3.493 -0.7058  0.3428 -1.8561
  858MOL0     H15787   9.194  11.227   3.456  0.1725  0.7845  0.4738
  858MOL0     H15788   9.107  11.291   3.684 -1.2423 -0.9065  2.7906
  858MOL0     H15789   9.013  11.140   3.692  2.2183 -1.6357  0.2994
  858MOL0     H15790   8.717  11.337   3.506  2.0908  0.0021 -1.7745
  858MOL0     H15791   8.532  11.631   3.495  1.3298 -2.1081 -3.0878
  858MOL0     H15792   8.501  11.460   3.525 -0.2618 -1.5045  1.0938
  858MOL0     H15793   8.503  11.584   3.658 -1.0956  0.0329 -1.2087
  858MOL0     H15794   8.969  12.015   3.825 -1.1040  0.1587 -1.2173
  858MOL0     H15795   8.917  12.228   3.932  1.3421 -1.8173 -3.6119
  858MOL0     H15796   8.851  12.320   4.165 -0.5073 -1.5933  0.1220
  858MOL0     H15797   8.799  12.442   4.045 -1.7123  0.6144 -0.0236
  858MOL0     H15798   8.714  12.426   4.325 -1.4807  1.0324  1.0064
  858MOL0     H15799   8.770  12.556   4.237 -2.1174  1.8554  1.9220
  858MOL0     H15800   8.514  12.563   4.307 -1.2436 -1.6058  1.7494
  858MOL0     H15801   8.499  12.412   4.199 -0.0255  0.8153 -2.7814
  858MOL0     H15802   8.565  12.700   4.115  0.2554  0.3343 -3.1033
  858MOL0     H15803   8.598  12.563   4.014  0.8097 -1.4262 -0.3443
  858MOL0     H15804   8.366  12.506   4.005 -2.0116  0.5582 -1.4302
  858MOL0     H15805   8.394  12.677   3.953  0.5297  1.6939  0.9421
  858MOL0     H15806   8.301  12.557   4.229  2.4014  1.4105  0.5802
  858MOL0     H15807   8.307  12.731   4.197  1.2426 -1.6738  1.7347
  858MOL0     H15808   8.149  12.512   4.074  3.7514  0.6960 -0.8441
  858MOL0     H15809   8.145  12.677   4.002 -0.4633 -1.5175 -0.8552
  858MOL0     H15810   8.045  12.745   4.227 -0.5720  0.8141 -0.6895
  858MOL0     H15811   8.056  12.573   4.278 -1.3282  0.0472  0.1242
  858MOL0     H15812   8.519  12.107   4.015  0.0934  3.1047  0.0841
  858MOL0     H15813   8.563  11.887   3.894  0.0254 -0.0508 -3.5871
  858MOL0     H15814   8.988  11.703   3.716 -0.2753  0.4062 -2.5452
  858MOL0     H15815   9.090  11.490   3.644 -0.7001 -1.0987  1.9015
  858MOL0     H15816  10.723  10.809   3.423  0.8357 -1.4529  0.2003
  858MOL0     H15817  10.946  10.749   3.391  1.2813 -1.3766  2.3998
  858MOL0     H15818  11.364  11.021   3.135 -0.0651 -3.1871 -1.7777
  858MOL0     H15819  11.603  10.979   3.084 -0.4433 -1.5609 -1.5903
  858MOL0     H15820  11.830  10.931   3.086  0.2430  0.0534 -0.2509
  858MOL0     H15821  11.944  10.820   3.161 -0.4997 -2.4289 -0.5344
  858MOL0     H15822  11.850  10.756   2.937 -0.2501  1.5483  0.4194
  858MOL0     H15823  11.687  10.743   3.015 -0.3333 -0.1220 -0.0798
  858MOL0     H15824  11.755  10.571   3.153 -1.1244  1.3404 -0.6474
  858MOL0     H15825  11.933  10.586   3.098 -0.0776  3.7557 -0.9634
  858MOL0     H15826  11.703  10.481   2.936  0.4995 -0.4319  0.0883
  858MOL0     H15827  11.827  10.380   3.010  0.6682  0.0304  1.9427
  858MOL0     H15828  11.990  10.487   2.643  1.4182 -1.1296  1.3993
  858MOL0     H15829  11.621  10.751   3.455  0.9185 -0.4638 -1.3515
  858MOL0     H15830  11.377  10.816   3.498  0.1289  1.7705  0.7162
  859MOL0     O15831   9.463   5.406   8.337 -0.3828  0.3948 -0.0315
  859MOL0     C15832   9.554   5.376   8.264 -0.3278  0.1995  0.5086
  859MOL0     O15833   9.560   5.256   8.200 -0.2269  0.0819 -0.2427
  859MOL0     C15834   9.465   5.168   8.237 -0.3669  0.3241  0.0384
  859MOL0     C15835   9.328   5.170   8.196 -0.3721 -0.2373 -0.3029
  859MOL0     C15836   9.239   5.077   8.252 -0.2315 -0.0954 -0.6117
  859MOL0     C15837   9.284   4.961   8.312 -0.3135  0.3117  0.4485
  859MOL0     O15838   9.189   4.871   8.350  0.3286  0.0233 -0.2478
  859MOL0     C15839   9.222   4.815   8.485 -0.1336  0.5323  0.5908
  859MOL0     C15840   9.081   4.761   8.533  0.7345  0.4653  0.4695
  859MOL0     C15841   8.986   4.870   8.583  0.5546  0.2882  0.2609
  859MOL0     C15842   8.847   4.827   8.581  0.5544  0.7686  0.3088
  859MOL0     C15843   8.748   4.922   8.630  0.0444 -0.3062  0.0174
  859MOL0     C15844   8.605   4.858   8.648  0.0435  0.3566 -0.3483
  859MOL0     C15845   8.493   4.961   8.673 -1.0319 -0.2875  0.2981
  859MOL0     C15846   8.510   5.044   8.797 -0.3660  0.3390 -0.6588
  859MOL0     N15847   8.395   5.130   8.824 -0.3953 -1.0895 -0.5149
  859MOL0     C15848   8.384   5.248   8.778  0.7208 -0.5988  0.1950
  859MOL0     C15849   8.262   5.294   8.825  0.7042 -0.1845  0.3136
  859MOL0     C15850   8.184   5.415   8.788  0.7003 -1.0735  0.6673
  859MOL0     C15851   8.169   5.502   8.916  0.2911  0.6973 -0.1088
  859MOL0     C15852   8.093   5.636   8.892  0.2660 -0.7501  0.6639
  859MOL0     C15853   7.946   5.617   8.930  0.6712  0.8080  0.5827
  859MOL0     O15854   7.890   5.744   8.902 -0.6165 -0.7848  0.0686
  859MOL0     C15855   7.756   5.748   8.877 -0.0250  0.3533 -0.3409
  859MOL0     C15856   7.661   5.659   8.935  0.0367  0.6708 -0.2238
  859MOL0     C15857   7.523   5.666   8.906 -1.3725  1.1939  0.0481
  859MOL0     C15858   7.434   5.565   8.967  0.5363  0.6457  0.4737
  859MOL0     C15859   7.476   5.757   8.811 -0.2977 -0.3917 -0.0051
  859MOL0     C15860   7.335   5.765   8.757 -0.6314 -0.1280 -0.3543
  859MOL0     O15861   7.238   5.716   8.841  0.7322 -0.1792  0.1898
  859MOL0     C15862   7.106   5.758   8.818  0.9792  0.6821  0.0157
  859MOL0     C15863   7.056   5.879   8.764  0.5972 -0.2133  0.2912
  859MOL0     C15864   6.916   5.895   8.754  0.1550  0.1749  0.1045
  859MOL0     C15865   6.824   5.794   8.788 -0.0722 -0.7111  0.4615
  859MOL0     O15866   6.696   5.800   8.784  0.5313  0.0377 -0.5866
  859MOL0     C15867   6.640   5.926   8.757 -0.8767  0.0985 -0.6113
  859MOL0     C15868   6.597   5.944   8.608 -0.0850 -0.4266  0.5043
  859MOL0     C15869   6.524   5.828   8.542  0.1605 -0.8942 -0.8712
  859MOL0     C15870   6.397   5.788   8.607 -0.1023  0.4888 -0.2447
  859MOL0     C15871   6.280   5.881   8.565  1.0359  0.1215  0.4242
  859MOL0     C15872   6.142   5.831   8.626  0.7241  0.0931  0.1311
  859MOL0     C15873   6.040   5.933   8.593 -0.2603  0.0097  0.2229
  859MOL0     C15874   5.895   5.890   8.621  0.0093  0.7401 -0.1011
  859MOL0    Cl15875   5.802   6.034   8.646  0.1878  0.0507 -0.0767
  859MOL0     C15876   6.878   5.684   8.847  0.0798  0.3723  0.7083
  859MOL0     C15877   7.008   5.654   8.862 -1.2471 -0.3592  0.1636
  859MOL0     O15878   7.320   5.808   8.643 -0.1930  0.3304  0.2849
  859MOL0     C15879   7.570   5.850   8.754 -0.6027 -0.6750 -0.0807
  859MOL0     C15880   7.706   5.844   8.794  0.0663 -0.9759  0.6913
  859MOL0     N15881   8.209   5.196   8.901 -0.7137 -0.1374  0.5258
  859MOL0     N15882   8.284   5.093   8.893 -0.0160 -0.5927 -0.2483
  859MOL0     C15883   9.418   4.952   8.345  0.0809 -0.7280 -0.8480
  859MOL0     C15884   9.502   5.055   8.308 -1.0352  0.6857  0.0055
  859MOL0     C15885   9.659   5.474   8.228  0.9159  0.4964 -0.5952
  859MOL0     C15886   9.654   5.598   8.289  0.6483  0.5883  0.1238
  859MOL0     C15887   9.746   5.699   8.243 -0.9547  0.0771  0.2938
  859MOL0     C15888   9.831   5.670   8.133  0.4330 -0.1908 -0.1807
  859MOL0     O15889   9.921   5.755   8.080 -0.9048  0.0628 -0.0981
  859MOL0     C15890   9.927   5.899   8.099  0.0131 -0.4845  0.7312
  859MOL0     C15891   9.996   5.943   8.226  0.6036  0.0734 -0.0698
  859MOL0     C15892  10.005   6.103   8.239 -0.2255  0.5020 -0.0455
  859MOL0     C15893  10.097   6.176   8.146  0.1788  0.1158  0.5182
  859MOL0     C15894  10.055   6.312   8.131  0.2902  0.1263  0.4227
  859MOL0     C15895  10.033   6.435   8.122 -0.6472  0.3966  0.7204
  859MOL0     C15896   9.850   5.540   8.106  0.6425 -0.0820  0.4903
  859MOL0     C15897   9.760   5.444   8.144  0.4055 -0.3536 -0.1497
  859MOL0     H15898   9.292   5.257   8.141 -0.9412  0.7576  1.5430
  859MOL0     H15899   9.135   5.099   8.230 -0.0083  1.0485 -0.5917
  859MOL0     H15900   9.289   4.730   8.477 -1.5552 -0.6353  0.6868
  859MOL0     H15901   9.263   4.889   8.555 -0.5215  1.3639 -0.0375
  859MOL0     H15902   9.045   4.694   8.455  1.9688 -1.1776  1.2292
  859MOL0     H15903   9.108   4.687   8.610 -0.3254 -0.8877 -0.4028
  859MOL0     H15904   9.009   4.897   8.686 -2.4796  0.5527  0.9700
  859MOL0     H15905   8.989   4.960   8.520 -1.1893  0.3673  0.2375
  859MOL0     H15906   8.815   4.813   8.477 -1.3635 -0.0007  0.9513
  859MOL0     H15907   8.836   4.728   8.626 -1.4792  0.5057 -0.6144
  859MOL0     H15908   8.785   4.970   8.721  1.6782 -0.5439 -0.4896
  859MOL0     H15909   8.730   5.011   8.568 -1.4471 -0.3494  0.3487
  859MOL0     H15910   8.589   4.797   8.559  3.1122 -3.7959  1.5932
  859MOL0     H15911   8.600   4.777   8.722 -2.0121  1.4215  0.7665
  859MOL0     H15912   8.479   5.032   8.591 -4.7034 -0.1171  0.8771
  859MOL0     H15913   8.409   4.895   8.695 -0.0721 -1.0233  1.9817
  859MOL0     H15914   8.599   5.105   8.782 -0.9150  1.4343  0.3454
  859MOL0     H15915   8.523   4.996   8.894 -2.7621  2.5454  0.9035
  859MOL0     H15916   8.451   5.296   8.707 -1.3019  3.5357  0.7550
  859MOL0     H15917   8.240   5.480   8.721 -1.7712 -0.5140 -0.9742
  859MOL0     H15918   8.092   5.389   8.735  1.6916 -2.5436 -0.4127
  859MOL0     H15919   8.270   5.518   8.956  0.1614 -2.8283  2.0089
  859MOL0     H15920   8.112   5.441   8.987  0.7277 -1.6555 -1.6655
  859MOL0     H15921   8.098   5.649   8.783 -0.7656 -2.9736  0.2906
  859MOL0     H15922   8.138   5.724   8.939 -0.3141 -0.8242  1.3753
  859MOL0     H15923   7.917   5.589   9.031  2.3144  0.2929  0.9531
  859MOL0     H15924   7.911   5.544   8.856  1.3520  0.3452  0.7126
  859MOL0     H15925   7.694   5.583   9.005 -0.5633 -0.3911 -1.0553
  859MOL0     H15926   7.393   5.614   9.056 -0.0904  0.8252  0.0947
  859MOL0     H15927   7.346   5.531   8.911 -1.0687  1.8146  2.1795
  859MOL0     H15928   7.492   5.475   8.990 -1.7620 -1.1265 -0.3070
  859MOL0     H15929   7.133   5.950   8.736 -0.8904  0.9794 -0.9967
  859MOL0     H15930   6.891   5.989   8.706 -1.1445 -0.2628 -0.1074
  859MOL0     H15931   6.542   5.936   8.803 -1.6451 -0.9798 -1.9393
  859MOL0     H15932   6.700   6.010   8.793 -1.8259  2.0372 -3.1920
  859MOL0     H15933   6.530   6.030   8.600  1.3583  0.5112 -3.3842
  859MOL0     H15934   6.683   5.974   8.548 -0.5114 -1.3332 -0.5817
  859MOL0     H15935   6.590   5.742   8.528  0.0024 -1.0830 -0.5001
  859MOL0     H15936   6.491   5.862   8.444  0.5863 -1.5170 -1.2357
  859MOL0     H15937   6.370   5.692   8.561  0.1781  0.3754 -0.1761
  859MOL0     H15938   6.421   5.785   8.714 -0.4133  3.1396 -0.0373
  859MOL0     H15939   6.269   5.872   8.457 -2.0720 -0.9999  0.7389
  859MOL0     H15940   6.294   5.988   8.584 -1.5335  1.4724 -3.9612
  859MOL0     H15941   6.105   5.742   8.574 -0.7897 -0.2349  1.6817
  859MOL0     H15942   6.153   5.822   8.735  0.9162  2.6325  0.3787
  859MOL0     H15943   6.042   5.964   8.488 -2.0349  0.0314  0.1601
  859MOL0     H15944   6.071   6.019   8.653  2.1637  0.2767 -1.2807
  859MOL0     H15945   5.885   5.830   8.712  1.5057 -0.2557 -0.5600
  859MOL0     H15946   5.861   5.836   8.532 -0.1679  1.4268 -0.4584
  859MOL0     H15947   6.802   5.617   8.886 -0.2991 -0.6661 -1.6394
  859MOL0     H15948   7.041   5.560   8.905  1.2701 -0.0783 -0.9661
  859MOL0     H15949   7.546   5.915   8.670 -0.9980 -3.1563 -2.0312
  859MOL0     H15950   7.775   5.910   8.744 -1.1819 -1.0624 -1.2619
  859MOL0     H15951   9.464   4.869   8.397  2.2683  2.6576  3.3215
  859MOL0     H15952   9.608   5.044   8.326 -0.9059  0.4372 -0.8490
  859MOL0     H15953   9.579   5.631   8.360  0.5609 -1.2065  0.9256
  859MOL0     H15954   9.742   5.797   8.289  0.6958  0.4040 -0.1868
  859MOL0     H15955   9.982   5.947   8.017  1.5449 -1.4131  1.1526
  859MOL0     H15956   9.825   5.937   8.098  0.4313  0.7520 -1.4815
  859MOL0     H15957  10.095   5.897   8.233  0.9605  0.9995  1.2684
  859MOL0     H15958   9.945   5.908   8.316 -0.3872 -0.2240 -0.7313
  859MOL0     H15959  10.049   6.124   8.338 -1.1284  2.5331 -0.0373
  859MOL0     H15960   9.901   6.135   8.241 -0.1624  0.7438 -0.5098
  859MOL0     H15961  10.097   6.123   8.050 -3.4541  0.0289  0.4163
  859MOL0     H15962  10.198   6.172   8.189  0.1818  3.0092  1.0321
  859MOL0     H15963   9.994   6.535   8.116  0.0279  0.7206  1.4523
  859MOL0     H15964   9.917   5.503   8.029 -1.6934  0.3037 -1.9050
  859MOL0     H15965   9.762   5.346   8.098 -0.1895 -0.6326  0.3886
  860MOL0     O15966   2.348  10.845   2.220 -0.3492 -0.2028 -0.5368
  860MOL0     C15967   2.419  10.848   2.116  0.5972 -0.1138 -0.7827
  860MOL0     O15968   2.373  10.823   1.987 -0.0915  0.6026  1.2654
  860MOL0     C15969   2.243  10.781   1.975  0.1713 -0.5351  0.7705
  860MOL0     C15970   2.206  10.653   1.937 -0.6316  0.0360 -1.0362
  860MOL0     C15971   2.071  10.618   1.929 -0.1140  0.0765 -0.3977
  860MOL0     C15972   1.968  10.704   1.954 -0.3769  0.5770  0.0041
  860MOL0     O15973   1.843  10.665   1.939 -0.1628  0.8721  0.2525
  860MOL0     C15974   1.737  10.753   1.966  0.1730 -0.1284 -0.0790
  860MOL0     C15975   1.605  10.675   1.969 -0.6795  1.1108 -0.0492
  860MOL0     C15976   1.560  10.649   1.817  0.3256 -0.3455 -0.1411
  860MOL0     C15977   1.452  10.544   1.814  0.8652 -0.7293  0.8019
  860MOL0     C15978   1.309  10.568   1.884  0.2635  0.8361 -0.0591
  860MOL0     C15979   1.237  10.685   1.837  0.9954  0.7679  1.5920
  860MOL0     C15980   1.097  10.690   1.884  0.1468  0.4695  0.2784
  860MOL0     C15981   1.022  10.810   1.862  1.4152 -0.8786  0.7312
  860MOL0     N15982   0.881  10.814   1.890  0.0234  0.2239 -0.1289
  860MOL0     C15983   0.814  10.838   2.006 -0.0054  0.0766  0.5407
  860MOL0     C15984   0.680  10.854   1.982 -0.5404  0.4635 -0.1511
  860MOL0     C15985   0.567  10.868   2.087  0.6575  0.8186  0.3930
  860MOL0     C15986   0.428  10.865   2.012  0.7074 -0.1111  0.0478
  860MOL0     C15987   0.324  10.904   2.115  0.2203  0.2110 -0.2619
  860MOL0     C15988   0.180  10.894   2.058 -1.0288 -0.8677 -0.1156
  860MOL0     O15989   0.090  10.913   2.162  0.1831  0.6113 -0.5182
  860MOL0     C15990  -0.029  10.982   2.148 -0.1587  0.3359  1.7615
  860MOL0     C15991  -0.094  10.995   2.265 -0.4112  0.0957  0.1732
  860MOL0     C15992  -0.221  11.051   2.275 -0.2670 -0.0207 -0.8406
  860MOL0     C15993  -0.274  11.066   2.410  0.3072  0.5740 -0.0578
  860MOL0     C15994  -0.290  11.090   2.155 -0.2787 -0.6104 -0.2598
  860MOL0     C15995  -0.431  11.134   2.148  0.1226  0.3918 -0.2726
  860MOL0     O15996  -0.514  11.078   2.247 -0.3861  0.2262  0.7817
  860MOL0     C15997  -0.631  11.132   2.284  0.2934  0.5414  0.5920
  860MOL0     C15998  -0.710  11.047   2.364  0.3248  1.0774 -0.0893
  860MOL0     C15999  -0.833  11.080   2.413 -0.0002 -0.2937  0.3466
  860MOL0     C16000  -0.887  11.209   2.390 -0.9628 -0.1315 -0.2792
  860MOL0     O16001  -1.015  11.255   2.412  0.1661 -1.3850 -0.3586
  860MOL0     C16002  -1.108  11.149   2.455 -0.0332  0.2700 -0.0237
  860MOL0     C16003  -1.246  11.196   2.493 -0.1907  0.0105  0.6577
  860MOL0     C16004  -1.318  11.269   2.380  0.9530 -0.8729  0.3849
  860MOL0     C16005  -1.451  11.320   2.435 -0.3536  0.4485 -0.0295
  860MOL0     C16006  -1.519  11.427   2.348  0.6116 -0.1641 -0.2594
  860MOL0     C16007  -1.639  11.490   2.419  0.0627 -0.3117  0.3020
  860MOL0     C16008  -1.676  11.616   2.336  0.0883  0.4211 -0.1645
  860MOL0     C16009  -1.764  11.706   2.422  0.2636 -0.1201 -0.3177
  860MOL0    Cl16010  -1.669  11.758   2.572 -0.0763 -0.3662 -0.1957
  860MOL0     C16011  -0.802  11.297   2.321  0.2078 -0.4046 -1.1934
  860MOL0     C16012  -0.675  11.263   2.268  0.5475 -0.1588 -0.2054
  860MOL0     O16013  -0.464  11.220   2.062 -0.6408 -0.2218  0.1833
  860MOL0     C16014  -0.215  11.080   2.029  0.1038 -0.1802  0.0194
  860MOL0     C16015  -0.082  11.027   2.027  0.6279  0.4024 -0.5355
  860MOL0     N16016   0.666  10.838   1.845  0.0451 -0.2336  0.2012
  860MOL0     N16017   0.786  10.809   1.791 -0.0332 -0.6764 -0.4144
  860MOL0     C16018   2.008  10.836   1.996  0.6226  0.5516  0.1231
  860MOL0     C16019   2.146  10.875   2.002  0.5238 -0.1463  0.3471
  860MOL0     C16020   2.562  10.890   2.121  0.1856  0.2305 -0.5503
  860MOL0     C16021   2.603  10.987   2.214 -0.9857  0.9271  0.4866
  860MOL0     C16022   2.737  11.017   2.216 -0.5876  0.0372 -0.2755
  860MOL0     C16023   2.832  10.964   2.133 -0.6420  0.3105 -0.1852
  860MOL0     O16024   2.969  10.995   2.147  0.1968 -1.1266 -0.9737
  860MOL0     C16025   3.013  11.087   2.251 -0.5962 -0.2418  0.7565
  860MOL0     C16026   3.159  11.132   2.234  0.3910 -0.7650  1.1414
  860MOL0     C16027   3.162  11.236   2.120 -0.1756 -0.4333  0.1282
  860MOL0     C16028   3.298  11.270   2.062  0.0388  0.5838 -0.1023
  860MOL0     C16029   3.398  11.302   2.173  0.1944  0.2443  0.6310
  860MOL0     C16030   3.480  11.331   2.252  0.3948  0.3888 -0.7507
  860MOL0     C16031   2.786  10.896   2.029 -0.1413  0.9093  0.4069
  860MOL0     C16032   2.652  10.858   2.022 -0.2467  0.1190  0.4934
  860MOL0     H16033   2.278  10.573   1.924 -0.7735 -0.1053 -0.9647
  860MOL0     H16034   2.046  10.519   1.892 -0.6574 -0.1647  0.5829
  860MOL0     H16035   1.757  10.778   2.071  2.0358 -1.0339 -0.1718
  860MOL0     H16036   1.731  10.845   1.908 -2.8601  1.1758  2.0438
  860MOL0     H16037   1.621  10.585   2.029  2.4142  0.8266 -1.0854
  860MOL0     H16038   1.520  10.733   2.006 -3.3791  0.9778 -5.1527
  860MOL0     H16039   1.534  10.745   1.772  2.1547  1.7402  2.8757
  860MOL0     H16040   1.647  10.612   1.762 -0.0896 -0.7111 -0.5543
  860MOL0     H16041   1.425  10.524   1.710  0.7047 -0.4407  0.7859
  860MOL0     H16042   1.488  10.451   1.860 -0.7851 -1.8039  0.0075
  860MOL0     H16043   1.247  10.480   1.863  1.2013 -0.2639  1.6181
  860MOL0     H16044   1.320  10.576   1.992 -0.1783 -0.6397  0.1140
  860MOL0     H16045   1.291  10.778   1.859  2.9327 -0.1074  0.7330
  860MOL0     H16046   1.228  10.680   1.728 -2.3601  0.8077  1.7481
  860MOL0     H16047   1.047  10.608   1.832  0.3358 -0.8829  2.1577
  860MOL0     H16048   1.099  10.666   1.990 -0.7317  1.2436  0.4874
  860MOL0     H16049   1.033  10.820   1.754 -0.6870 -1.4616  0.4111
  860MOL0     H16050   1.060  10.904   1.903 -2.9889  1.4758  0.0582
  860MOL0     H16051   0.858  10.827   2.105  0.3172 -0.7597  0.3177
  860MOL0     H16052   0.578  10.777   2.147  0.4117  2.4010  2.9945
  860MOL0     H16053   0.574  10.957   2.151 -0.2430  1.7155 -0.7064
  860MOL0     H16054   0.404  10.765   1.977  0.4282 -0.2232  0.5482
  860MOL0     H16055   0.439  10.929   1.924  0.4679 -0.8893 -0.5566
  860MOL0     H16056   0.336  10.998   2.169 -3.1891 -1.2135  3.5530
  860MOL0     H16057   0.315  10.824   2.189 -1.6034 -2.3394 -3.0100
  860MOL0     H16058   0.169  10.801   2.002  2.2673  0.1920 -2.8779
  860MOL0     H16059   0.166  10.975   1.986  0.8027 -2.0304 -1.8761
  860MOL0     H16060  -0.040  10.967   2.355 -0.2815 -0.0333  0.0531
  860MOL0     H16061  -0.335  10.978   2.432  1.3114  0.4323  2.4421
  860MOL0     H16062  -0.207  11.081   2.495  1.3977 -1.5018 -0.4620
  860MOL0     H16063  -0.344  11.150   2.408 -1.1779 -0.6340 -0.8410
  860MOL0     H16064  -0.671  10.947   2.380 -0.2804  0.6017 -1.4751
  860MOL0     H16065  -0.878  11.006   2.478  2.7269 -0.0314  2.7135
  860MOL0     H16066  -1.125  11.086   2.368 -0.8181  1.7049 -0.9353
  860MOL0     H16067  -1.056  11.096   2.536  1.4270 -2.3063 -2.4435
  860MOL0     H16068  -1.303  11.107   2.524 -1.8856  0.9497  0.3214
  860MOL0     H16069  -1.241  11.267   2.576 -3.4502 -1.5166  2.3515
  860MOL0     H16070  -1.340  11.207   2.292 -1.5983 -1.9837  1.6864
  860MOL0     H16071  -1.252  11.353   2.359  1.1874 -0.5869  2.1721
  860MOL0     H16072  -1.526  11.240   2.442 -1.6089  1.7013  1.6194
  860MOL0     H16073  -1.441  11.357   2.538 -2.1393 -2.5913  1.3809
  860MOL0     H16074  -1.554  11.383   2.255 -0.3314 -0.0698  0.0431
  860MOL0     H16075  -1.447  11.508   2.329  0.6754 -0.5879 -1.9284
  860MOL0     H16076  -1.728  11.426   2.419  1.3878 -2.2824 -0.7282
  860MOL0     H16077  -1.623  11.504   2.526 -1.0219 -2.6574  0.8402
  860MOL0     H16078  -1.726  11.581   2.245  1.8289 -0.1986 -0.9172
  860MOL0     H16079  -1.584  11.662   2.298  0.4614 -1.3882 -1.5950
  860MOL0     H16080  -1.859  11.662   2.451  0.4861  1.0457  2.4961
  860MOL0     H16081  -1.789  11.795   2.363 -3.0494 -0.2106  0.7765
  860MOL0     H16082  -0.851  11.394   2.319 -0.2981 -0.5223  1.9074
  860MOL0     H16083  -0.617  11.341   2.220  0.7107 -0.2173 -0.1029
  860MOL0     H16084  -0.252  11.114   1.933  1.3656  2.6687  0.4294
  860MOL0     H16085  -0.044  10.996   1.930 -2.9616  1.9630 -2.6558
  860MOL0     H16086   1.933  10.914   2.004  1.0126  0.9474 -0.0232
  860MOL0     H16087   2.173  10.977   2.025 -2.4240  1.1302 -1.2112
  860MOL0     H16088   2.526  11.031   2.277 -1.9237  1.4805 -0.9951
  860MOL0     H16089   2.763  11.084   2.297 -0.7447  0.7777 -0.8300
  860MOL0     H16090   2.952  11.177   2.261 -0.7789 -0.0808 -1.2895
  860MOL0     H16091   2.998  11.031   2.344  1.0023 -0.3907  0.9607
  860MOL0     H16092   3.221  11.046   2.208 -1.2760 -1.1329 -2.1351
  860MOL0     H16093   3.200  11.170   2.328  4.1697 -0.6302 -0.3512
  860MOL0     H16094   3.107  11.323   2.157  0.3922 -0.9997  2.4648
  860MOL0     H16095   3.115  11.190   2.033  1.1766  2.0269 -2.0562
  860MOL0     H16096   3.292  11.345   1.983 -2.6306  1.1942  0.5902
  860MOL0     H16097   3.325  11.179   2.007  1.7474 -0.7094  2.6577
  860MOL0     H16098   3.545  11.359   2.333  2.7265 -2.2476 -1.5761
  860MOL0     H16099   2.849  10.852   1.952  0.7093 -1.5405  2.3721
  860MOL0     H16100   2.625  10.798   1.936  0.1325  1.6326 -0.7448
  861MOL0     O16101   4.749   8.181   2.988 -0.0832 -0.0487 -0.1191
  861MOL0     C16102   4.791   8.101   2.908 -0.4297  0.1307 -0.1373
  861MOL0     O16103   4.710   8.007   2.844 -0.1729 -0.3414 -0.7523
  861MOL0     C16104   4.573   8.022   2.869  0.3266 -0.0501 -0.5755
  861MOL0     C16105   4.498   8.109   2.798  0.0515  0.4336 -0.5555
  861MOL0     C16106   4.357   8.115   2.803 -0.0897 -0.5406 -0.2471
  861MOL0     C16107   4.298   8.044   2.907  0.0623  0.2892 -0.1096
  861MOL0     O16108   4.166   8.051   2.945  0.3945 -0.8633 -0.1653
  861MOL0     C16109   4.119   8.186   2.960 -0.0891  0.3363  1.1585
  861MOL0     C16110   3.973   8.173   2.994 -0.2637 -0.9487  0.4930
  861MOL0     C16111   3.887   8.131   2.871 -0.0338  0.5239 -0.1847
  861MOL0     C16112   3.745   8.101   2.918  0.1844 -0.6669  0.1162
  861MOL0     C16113   3.650   8.226   2.895 -0.4079 -0.0740 -0.1480
  861MOL0     C16114   3.517   8.203   2.965  0.2139  0.1858  0.3328
  861MOL0     C16115   3.415   8.316   2.969 -0.0556 -0.3617 -0.1604
  861MOL0     C16116   3.352   8.340   2.830  0.1684  0.0919  0.5172
  861MOL0     N16117   3.241   8.249   2.800 -0.5437 -0.2303  0.4448
  861MOL0     C16118   3.118   8.240   2.860 -0.2328 -0.2937  0.2655
  861MOL0     C16119   3.055   8.130   2.812 -0.4543  0.6761  0.3798
  861MOL0     C16120   2.917   8.085   2.850  1.0573 -0.2470 -0.1906
  861MOL0     C16121   2.802   8.143   2.758 -0.3825  0.7193  0.5496
  861MOL0     C16122   2.669   8.078   2.798 -0.5386  0.9024  0.0825
  861MOL0     C16123   2.547   8.123   2.719 -0.2626  0.8074  0.3179
  861MOL0     O16124   2.565   8.074   2.585  0.5198 -0.0061 -0.8068
  861MOL0     C16125   2.468   8.099   2.496 -0.0442 -0.0847  0.2618
  861MOL0     C16126   2.486   8.051   2.371 -0.2333  0.8424 -0.2359
  861MOL0     C16127   2.387   8.054   2.270 -0.2458 -0.7777 -0.3339
  861MOL0     C16128   2.417   7.997   2.124  0.7578 -0.3480  0.0252
  861MOL0     C16129   2.266   8.120   2.304  0.1899 -0.2186  0.4148
  861MOL0     C16130   2.148   8.137   2.207 -0.7874 -0.3207  0.1391
  861MOL0     O16131   2.045   8.222   2.245  0.7493  0.2366  0.0729
  861MOL0     C16132   1.933   8.229   2.178 -0.4102  0.0673  1.0924
  861MOL0     C16133   1.880   8.135   2.088  1.0004 -0.8401 -0.5811
  861MOL0     C16134   1.763   8.157   2.022  1.1615  0.0148 -0.2357
  861MOL0     C16135   1.685   8.271   2.047 -0.1382 -0.2971 -0.3772
  861MOL0     O16136   1.561   8.279   1.989  0.1037 -0.3284 -0.0719
  861MOL0     C16137   1.447   8.334   2.067 -1.2143 -0.9441 -0.6969
  861MOL0     C16138   1.323   8.309   1.982 -1.2897 -0.6436 -1.3023
  861MOL0     C16139   1.201   8.381   2.043  0.0791  0.1099 -0.3053
  861MOL0     C16140   1.074   8.344   1.971 -0.2137  0.1894 -0.2132
  861MOL0     C16141   0.940   8.412   2.021  0.2272 -0.6383  0.4502
  861MOL0     C16142   0.943   8.560   1.975 -0.4038 -0.6844 -0.2691
  861MOL0     C16143   0.833   8.641   2.046 -0.1774  0.7369  0.0487
  861MOL0     C16144   0.795   8.779   1.987 -0.3819 -0.0389 -0.9221
  861MOL0    Cl16145   0.664   8.846   2.094 -0.1552 -0.2252 -0.3478
  861MOL0     C16146   1.734   8.365   2.141  0.7505 -1.1411 -0.1107
  861MOL0     C16147   1.860   8.343   2.202  0.2462  0.2566  0.4539
  861MOL0     O16148   2.154   8.074   2.099  0.5874 -0.1891  0.3110
  861MOL0     C16149   2.243   8.150   2.434  0.9490 -1.2089 -0.4092
  861MOL0     C16150   2.343   8.141   2.532  0.3415 -1.6582 -0.0865
  861MOL0     N16151   3.143   8.070   2.720  0.5781  0.7305 -0.0992
  861MOL0     N16152   3.252   8.134   2.724  0.5140 -0.5668  0.2213
  861MOL0     C16153   4.367   7.953   2.973  0.4053  0.3645 -0.9354
  861MOL0     C16154   4.502   7.940   2.958 -0.5162 -0.0243  0.2098
  861MOL0     C16155   4.935   8.105   2.881 -0.4299  0.1280  0.2076
  861MOL0     C16156   4.995   8.037   2.779  0.6358  0.9960  0.5107
  861MOL0     C16157   5.133   8.056   2.747 -0.5112 -0.1076 -0.7905
  861MOL0     C16158   5.221   8.118   2.831  0.8074 -0.0193 -0.2283
  861MOL0     O16159   5.355   8.110   2.806  0.0320 -0.3503 -0.1522
  861MOL0     C16160   5.454   8.192   2.872  0.1138  0.6498  0.3035
  861MOL0     C16161   5.458   8.327   2.816  0.4893 -0.3664 -0.0921
  861MOL0     C16162   5.600   8.392   2.842  1.3383  0.0649 -0.4279
  861MOL0     C16163   5.605   8.459   2.985 -0.9265 -0.5209 -0.3311
  861MOL0     C16164   5.704   8.574   2.985 -0.1414 -0.1504  0.0906
  861MOL0     C16165   5.796   8.653   2.998 -0.1784 -0.1943 -0.1800
  861MOL0     C16166   5.155   8.171   2.949  0.2220 -0.5466 -0.2581
  861MOL0     C16167   5.019   8.178   2.960 -0.2291 -0.2656  0.0276
  861MOL0     H16168   4.544   8.180   2.730  1.6634 -0.4401 -0.4281
  861MOL0     H16169   4.304   8.183   2.737 -0.4870 -0.0412  0.5783
  861MOL0     H16170   4.177   8.239   3.036  0.3620  2.6248 -0.6581
  861MOL0     H16171   4.132   8.243   2.868 -0.5750 -0.8524  0.3286
  861MOL0     H16172   3.961   8.101   3.076 -1.3342  0.0347  1.2254
  861MOL0     H16173   3.942   8.269   3.036  2.3621 -0.7415  2.1873
  861MOL0     H16174   3.897   8.195   2.783 -1.1834 -0.6306 -1.1938
  861MOL0     H16175   3.917   8.036   2.826  0.0095  0.6294 -0.3797
  861MOL0     H16176   3.711   8.021   2.851 -0.7688  0.2098 -0.4916
  861MOL0     H16177   3.750   8.068   3.022  1.5857  0.5793  0.4699
  861MOL0     H16178   3.688   8.314   2.947 -1.3370  0.3541 -0.1812
  861MOL0     H16179   3.624   8.250   2.791 -2.0179  1.4359  0.5728
  861MOL0     H16180   3.478   8.116   2.912  1.4223 -0.2434  0.1038
  861MOL0     H16181   3.539   8.167   3.066  1.2024  1.1399  0.4886
  861MOL0     H16182   3.329   8.287   3.030 -1.0318  1.3193 -0.6701
  861MOL0     H16183   3.458   8.409   3.007  1.5140  0.1134 -2.8149
  861MOL0     H16184   3.434   8.323   2.760  0.1351 -1.5983  0.8546
  861MOL0     H16185   3.308   8.441   2.828 -3.1421 -1.2095  1.2939
  861MOL0     H16186   3.078   8.306   2.937  1.7309 -0.6748  1.6970
  861MOL0     H16187   2.924   7.977   2.833  2.2746 -0.0086 -1.4083
  861MOL0     H16188   2.887   8.110   2.952 -2.4272 -0.5740 -1.0000
  861MOL0     H16189   2.819   8.108   2.656  1.3571 -0.2385  1.1315
  861MOL0     H16190   2.800   8.252   2.762 -2.0414  0.7325  0.1686
  861MOL0     H16191   2.648   8.110   2.900 -0.4050 -1.9045  1.0842
  861MOL0     H16192   2.670   7.968   2.800 -3.2797  0.8058  0.5593
  861MOL0     H16193   2.532   8.231   2.712  2.0063  1.1630  0.2431
  861MOL0     H16194   2.463   8.067   2.763  1.6939 -1.8720  0.9141
  861MOL0     H16195   2.573   7.988   2.358 -1.0498 -0.7535  1.5249
  861MOL0     H16196   2.523   7.972   2.119  0.6014 -1.1025  0.4050
  861MOL0     H16197   2.347   7.913   2.112 -2.4633  2.1100  0.1888
  861MOL0     H16198   2.399   8.076   2.051  1.1901  1.5087  1.8416
  861MOL0     H16199   1.919   8.035   2.076  0.2415 -1.1091 -0.8038
  861MOL0     H16200   1.730   8.081   1.952  0.1781 -2.4034  2.6135
  861MOL0     H16201   1.444   8.293   2.168 -0.3145 -1.4580 -0.8745
  861MOL0     H16202   1.465   8.442   2.067 -1.8542 -0.8202  0.7715
  861MOL0     H16203   1.339   8.345   1.880  2.5168 -4.5842 -2.3596
  861MOL0     H16204   1.306   8.202   1.969 -2.4442 -0.3012 -3.0104
  861MOL0     H16205   1.216   8.489   2.030 -0.3842  0.5064  2.0710
  861MOL0     H16206   1.189   8.365   2.151  2.1502 -3.3669 -0.4407
  861MOL0     H16207   1.094   8.366   1.866  2.3800  0.6270  0.3033
  861MOL0     H16208   1.056   8.237   1.987 -0.8913  0.6062  2.2848
  861MOL0     H16209   0.932   8.399   2.130  0.5595 -0.5521  0.4863
  861MOL0     H16210   0.849   8.381   1.970 -0.2691  0.4764  0.6277
  861MOL0     H16211   1.038   8.601   2.013 -1.3209  1.2778  0.0351
  861MOL0     H16212   0.942   8.569   1.866 -0.0344 -0.1528 -0.2336
  861MOL0     H16213   0.867   8.643   2.150 -1.7638 -0.7339  0.6508
  861MOL0     H16214   0.738   8.586   2.042 -0.8181  1.6689  1.4923
  861MOL0     H16215   0.753   8.764   1.887 -0.6187 -0.8068 -0.7108
  861MOL0     H16216   0.881   8.846   1.975 -1.9256  1.7053 -3.1510
  861MOL0     H16217   1.673   8.450   2.170 -0.1276 -1.7798 -0.0316
  861MOL0     H16218   1.901   8.421   2.265 -0.7624  0.3542  1.0174
  861MOL0     H16219   2.146   8.190   2.462 -0.0024 -3.3818 -0.4133
  861MOL0     H16220   2.318   8.161   2.635 -0.1618 -1.0199 -0.3257
  861MOL0     H16221   4.310   7.896   3.046 -1.7034  1.5092 -1.6038
  861MOL0     H16222   4.560   7.871   3.020 -0.7329  0.0429  0.4881
  861MOL0     H16223   4.933   7.973   2.717 -0.5258  1.6546  0.9665
  861MOL0     H16224   5.163   8.016   2.650 -1.2556  0.4832 -1.2820
  861MOL0     H16225   5.431   8.204   2.978  2.2015 -1.9910  1.1780
  861MOL0     H16226   5.546   8.138   2.848  0.4414  1.8048 -1.1443
  861MOL0     H16227   5.371   8.380   2.856  1.5466  1.2335  0.1466
  861MOL0     H16228   5.451   8.325   2.706  0.6329  2.2363 -0.2046
  861MOL0     H16229   5.605   8.477   2.774 -0.9423  0.6855  0.1041
  861MOL0     H16230   5.683   8.323   2.825  1.8764 -0.1555  2.4842
  861MOL0     H16231   5.622   8.378   3.057  3.4942 -2.7445 -3.4202
  861MOL0     H16232   5.513   8.512   3.012  1.3565  2.8556  1.4577
  861MOL0     H16233   5.874   8.726   3.012 -0.8749  0.3250  1.2657
  861MOL0     H16234   5.216   8.223   3.022 -1.7142  1.5081  0.0236
  861MOL0     H16235   4.988   8.234   3.048  2.4931  2.1729 -0.4207
  862MOL0     O16236   8.992   4.885   6.535 -0.5024  1.0074 -0.1734
  862MOL0     C16237   9.100   4.946   6.554  0.1410  0.1267 -0.1255
  862MOL0     O16238   9.122   5.083   6.552  0.1363 -0.0212  0.5363
  862MOL0     C16239   9.035   5.174   6.510  0.2827  0.3917  0.2893
  862MOL0     C16240   9.076   5.304   6.492  0.0142 -1.0226 -0.1512
  862MOL0     C16241   8.982   5.404   6.456 -0.7084  1.0809  0.2824
  862MOL0     C16242   8.850   5.367   6.446 -0.0083 -0.3373 -0.0747
  862MOL0     O16243   8.757   5.460   6.407 -0.4618  0.2684 -0.7185
  862MOL0     C16244   8.762   5.587   6.469  0.1353  0.4489 -0.3342
  862MOL0     C16245   8.765   5.703   6.377  0.1006  0.1251  0.2574
  862MOL0     C16246   8.642   5.729   6.296 -0.1009  0.5458 -0.1666
  862MOL0     C16247   8.527   5.790   6.376  0.3485  0.3829 -0.1481
  862MOL0     C16248   8.420   5.856   6.286  0.2860 -0.2560  0.2601
  862MOL0     C16249   8.331   5.742   6.214 -0.5971 -1.0702 -0.3193
  862MOL0     C16250   8.186   5.807   6.194  0.8367 -0.0730 -0.1692
  862MOL0     C16251   8.186   5.937   6.110  0.2730 -0.0718  0.3773
  862MOL0     N16252   8.060   5.974   6.042 -0.3699 -0.0854  0.8940
  862MOL0     C16253   8.019   5.913   5.933  0.3236  0.4763  0.3503
  862MOL0     C16254   7.898   5.965   5.907 -0.4992 -0.2795  0.1171
  862MOL0     C16255   7.807   5.954   5.786 -0.0218 -0.0875 -0.1070
  862MOL0     C16256   7.672   5.895   5.834 -0.3169  0.4426  0.2952
  862MOL0     C16257   7.667   5.738   5.839  0.5069 -0.0539 -0.1502
  862MOL0     C16258   7.537   5.674   5.898 -0.1800 -0.3919  0.6479
  862MOL0     O16259   7.426   5.704   5.819 -0.1944 -0.6146  0.7776
  862MOL0     C16260   7.303   5.664   5.874  0.4123 -0.6940  0.5803
  862MOL0     C16261   7.273   5.602   6.002  0.2109 -0.0952  0.2931
  862MOL0     C16262   7.149   5.559   6.042  0.3834 -0.2670 -0.3072
  862MOL0     C16263   7.136   5.510   6.190  0.3399  0.2880 -1.0803
  862MOL0     C16264   7.035   5.580   5.959  0.2719  0.2414  0.5758
  862MOL0     C16265   6.898   5.532   5.994 -0.0625 -0.5593  0.4949
  862MOL0     O16266   6.802   5.582   5.914  0.7807 -0.3471  0.4642
  862MOL0     C16267   6.669   5.549   5.935 -0.2508 -0.5592  0.2500
  862MOL0     C16268   6.596   5.479   5.840 -0.1450  0.0817  0.5868
  862MOL0     C16269   6.461   5.457   5.853  0.5097 -0.7387  0.1972
  862MOL0     C16270   6.400   5.496   5.971  0.8115  0.5231  0.2860
  862MOL0     O16271   6.266   5.459   5.981  0.2330 -0.4498 -0.3092
  862MOL0     C16272   6.197   5.479   6.104 -0.0617  0.3412 -0.5705
  862MOL0     C16273   6.070   5.398   6.092 -0.3613 -0.0669 -0.0904
  862MOL0     C16274   5.992   5.411   6.222 -0.3764  0.1185  0.7378
  862MOL0     C16275   5.864   5.329   6.219  0.9846 -0.6552 -0.4401
  862MOL0     C16276   5.752   5.389   6.132 -0.2495 -0.1151 -0.2998
  862MOL0     C16277   5.631   5.291   6.161 -0.3688 -0.2431  0.8512
  862MOL0     C16278   5.521   5.317   6.067  0.6246  0.1191  1.0392
  862MOL0     C16279   5.395   5.229   6.090 -0.1654 -0.4614 -0.8433
  862MOL0    Cl16280   5.232   5.291   6.039  0.2520  0.1810  0.1606
  862MOL0     C16281   6.465   5.587   6.058  0.4460 -0.3678 -0.1602
  862MOL0     C16282   6.600   5.612   6.040 -0.3087 -0.3036 -0.5755
  862MOL0     O16283   6.878   5.458   6.085 -0.4003  0.5349 -0.0100
  862MOL0     C16284   7.066   5.652   5.837 -0.4745 -0.2080 -0.5734
  862MOL0     C16285   7.192   5.690   5.799 -0.8843 -0.1778  0.5288
  862MOL0     N16286   7.873   6.058   6.008  0.9087  0.1624 -0.1359
  862MOL0     N16287   7.972   6.065   6.092  0.1280 -0.2508 -0.1308
  862MOL0     C16288   8.807   5.241   6.475 -0.4102  0.1536 -1.0545
  862MOL0     C16289   8.900   5.144   6.507  0.4414  0.1885 -0.5860
  862MOL0     C16290   9.219   4.856   6.571  0.1035  0.2628 -0.1107
  862MOL0     C16291   9.329   4.915   6.638 -0.0672 -0.4323  0.1751
  862MOL0     C16292   9.441   4.839   6.674  0.3973  0.4677 -1.2294
  862MOL0     C16293   9.439   4.704   6.647 -0.3155  0.0448  0.1602
  862MOL0     O16294   9.541   4.618   6.687  0.8356 -0.5616  0.4312
  862MOL0     C16295   9.657   4.660   6.764  0.0530  0.3705 -0.2042
  862MOL0     C16296   9.752   4.543   6.795  0.0872  0.7529 -0.4654
  862MOL0     C16297   9.843   4.498   6.682  0.0037  0.1556 -0.1746
  862MOL0     C16298   9.911   4.369   6.728 -0.7822  0.1784  0.6156
  862MOL0     C16299   9.980   4.307   6.611  0.6597 -0.3828  0.5001
  862MOL0     C16300  10.044   4.266   6.523  0.4186  0.0266  0.0234
  862MOL0     C16301   9.328   4.652   6.578  0.1641  0.5075 -0.0745
  862MOL0     C16302   9.218   4.729   6.548 -0.7056  0.0849 -0.9075
  862MOL0     H16303   9.184   5.320   6.497  0.3720 -3.0580 -0.3156
  862MOL0     H16304   9.014   5.504   6.428 -1.4252  0.7021 -2.1273
  862MOL0     H16305   8.683   5.617   6.538 -0.0289  0.4141 -0.5058
  862MOL0     H16306   8.852   5.595   6.531  1.6942 -0.6167 -2.3312
  862MOL0     H16307   8.790   5.794   6.432 -1.9364  0.4803  0.6738
  862MOL0     H16308   8.852   5.684   6.312  0.0400 -0.3851  0.3169
  862MOL0     H16309   8.680   5.806   6.229  1.0707 -0.3764 -0.5966
  862MOL0     H16310   8.611   5.634   6.251 -0.8536  0.5323  0.3643
  862MOL0     H16311   8.485   5.708   6.434  2.1581 -1.5738 -1.4179
  862MOL0     H16312   8.578   5.861   6.442 -0.2912  1.5740 -0.9053
  862MOL0     H16313   8.349   5.912   6.348 -0.4175 -1.9445  1.0216
  862MOL0     H16314   8.455   5.920   6.204 -2.9909  1.7587  0.2671
  862MOL0     H16315   8.384   5.718   6.122 -0.2613 -0.7631 -0.2088
  862MOL0     H16316   8.339   5.651   6.275  0.5586 -0.0154  1.2066
  862MOL0     H16317   8.116   5.739   6.146  0.0837  1.3507 -1.1661
  862MOL0     H16318   8.152   5.829   6.296  0.5616  0.2467 -0.3273
  862MOL0     H16319   8.262   5.916   6.035 -1.9697 -1.3676 -1.7011
  862MOL0     H16320   8.218   6.024   6.169 -0.1853 -0.7673  1.6904
  862MOL0     H16321   8.072   5.842   5.871  0.2275 -0.2307  1.0543
  862MOL0     H16322   7.782   6.052   5.745 -1.9861 -1.3156 -2.0747
  862MOL0     H16323   7.853   5.886   5.715  1.1167  0.3202  0.2144
  862MOL0     H16324   7.594   5.921   5.761 -0.5391 -4.1872 -1.4892
  862MOL0     H16325   7.642   5.934   5.932  0.0553 -1.0025  1.0105
  862MOL0     H16326   7.749   5.711   5.906  1.4546 -1.1873 -1.6927
  862MOL0     H16327   7.689   5.703   5.737  3.1643 -2.6007  1.1509
  862MOL0     H16328   7.514   5.715   5.997 -2.6091 -2.5424  1.0743
  862MOL0     H16329   7.542   5.565   5.907 -0.5034 -0.7575 -2.6057
  862MOL0     H16330   7.364   5.576   6.057  1.4172  3.7511  0.4250
  862MOL0     H16331   7.054   5.562   6.239 -1.2353 -2.4678 -0.5792
  862MOL0     H16332   7.108   5.404   6.194 -0.7606  0.5836 -0.6605
  862MOL0     H16333   7.225   5.533   6.249  0.6583 -0.9471 -1.0426
  862MOL0     H16334   6.639   5.432   5.752 -0.0333 -0.4982  0.9502
  862MOL0     H16335   6.411   5.404   5.772  3.2785 -0.8950 -1.5693
  862MOL0     H16336   6.263   5.450   6.186  0.1960  2.3073 -0.0301
  862MOL0     H16337   6.165   5.580   6.129  0.3114  0.0366  1.2797
  862MOL0     H16338   6.021   5.448   6.008  1.4275  1.1578 -0.4808
  862MOL0     H16339   6.096   5.292   6.079  2.2709  0.4693  0.1944
  862MOL0     H16340   5.974   5.517   6.243  1.3575  0.5473  0.2232
  862MOL0     H16341   6.054   5.382   6.308 -0.4211  0.5751  0.9268
  862MOL0     H16342   5.885   5.226   6.189 -0.4911 -1.2722  0.5439
  862MOL0     H16343   5.829   5.312   6.321  2.8360 -2.8413 -0.0795
  862MOL0     H16344   5.787   5.389   6.029  0.5977 -0.6461 -0.0300
  862MOL0     H16345   5.726   5.488   6.170  1.4023  0.1716  0.2032
  862MOL0     H16346   5.660   5.186   6.150 -1.7559 -0.7866  2.0550
  862MOL0     H16347   5.598   5.289   6.265 -2.1257 -1.8881  0.3236
  862MOL0     H16348   5.537   5.298   5.960 -2.9346  0.5252  0.3035
  862MOL0     H16349   5.488   5.420   6.081  0.7690  1.0446 -3.6823
  862MOL0     H16350   5.384   5.222   6.199 -0.2837 -0.5093 -0.8588
  862MOL0     H16351   5.416   5.124   6.064  1.1119 -0.0861 -1.4054
  862MOL0     H16352   6.405   5.632   6.137 -1.3150 -1.9168 -0.5530
  862MOL0     H16353   6.669   5.675   6.096  0.0666  2.1489 -3.5024
  862MOL0     H16354   6.976   5.661   5.776 -0.1123 -1.3842 -1.3035
  862MOL0     H16355   7.209   5.731   5.700  2.9001 -3.3751 -0.3896
  862MOL0     H16356   8.699   5.234   6.475 -0.5176  0.2857  2.2489
  862MOL0     H16357   8.857   5.045   6.508 -0.0609  0.4035 -0.4278
  862MOL0     H16358   9.330   5.023   6.644  4.2360 -0.2514 -0.4327
  862MOL0     H16359   9.522   4.865   6.741  0.9158  2.1218 -2.4482
  862MOL0     H16360   9.717   4.740   6.720  1.3273 -0.2114  0.4200
  862MOL0     H16361   9.618   4.697   6.860  1.5479  0.2682  0.4691
  862MOL0     H16362   9.684   4.464   6.828 -0.6297 -0.0637 -3.5708
  862MOL0     H16363   9.805   4.560   6.889  0.1356 -0.9414 -0.1607
  862MOL0     H16364   9.915   4.581   6.675 -3.2759  3.2459 -0.2225
  862MOL0     H16365   9.789   4.474   6.590 -1.5679  1.2180  0.4307
  862MOL0     H16366   9.839   4.295   6.764 -0.6781  1.4403  3.7457
  862MOL0     H16367   9.980   4.396   6.808  0.7730  1.6533 -1.1201
  862MOL0     H16368  10.111   4.219   6.454 -1.0218 -2.4362  0.1617
  862MOL0     H16369   9.320   4.545   6.562 -1.8534  0.6955 -0.5794
  862MOL0     H16370   9.132   4.677   6.507  0.4287  0.0686 -3.4580
  863MOL0     O16371   0.531   8.127   8.136 -0.3248 -0.8205  0.2481
  863MOL0     C16372   0.578   8.237   8.166 -0.0876 -0.4121 -0.1457
  863MOL0     O16373   0.506   8.357   8.186 -0.1137  0.4831  0.2701
  863MOL0     C16374   0.372   8.367   8.158  0.2105 -0.1994  0.0944
  863MOL0     C16375   0.342   8.477   8.084  0.5004  0.5251  0.1089
  863MOL0     C16376   0.206   8.498   8.041  0.0837 -0.2739  0.0293
  863MOL0     C16377   0.111   8.401   8.076 -0.1181  0.0714  0.3053
  863MOL0     O16378  -0.008   8.418   8.010  0.3356  0.5611 -0.5570
  863MOL0     C16379  -0.125   8.356   8.070  1.1235  0.3468 -1.0212
  863MOL0     C16380  -0.237   8.428   8.001 -0.5326  0.1836 -0.7294
  863MOL0     C16381  -0.375   8.377   8.046  0.4641 -0.6692 -0.2811
  863MOL0     C16382  -0.484   8.447   7.964 -0.0329  0.4553  0.2712
  863MOL0     C16383  -0.629   8.399   7.997 -0.1546  0.4159  0.1181
  863MOL0     C16384  -0.721   8.474   7.900  0.3106 -0.7605  0.0067
  863MOL0     C16385  -0.874   8.429   7.918  0.7832  0.2750  0.3098
  863MOL0     C16386  -0.961   8.518   7.824  0.5726  0.5247  0.1643
  863MOL0     N16387  -1.104   8.516   7.852 -0.0491 -0.6447 -0.4268
  863MOL0     C16388  -1.199   8.627   7.830  1.4372  0.1256 -0.7200
  863MOL0     C16389  -1.307   8.575   7.889 -0.2206 -0.4606  0.2851
  863MOL0     C16390  -1.435   8.653   7.918 -0.8539 -0.0343 -0.6882
  863MOL0     C16391  -1.558   8.562   7.885  0.0292  0.1532  0.5819
  863MOL0     C16392  -1.679   8.586   7.978  0.1966  0.1979 -0.4456
  863MOL0     C16393  -1.766   8.719   7.955  0.1529  0.8059 -0.2928
  863MOL0     O16394  -1.860   8.705   7.850  1.0148 -0.4807 -0.2812
  863MOL0     C16395  -1.987   8.664   7.874 -0.1915  0.0537 -0.1333
  863MOL0     C16396  -2.070   8.660   7.761  0.4838  0.3912  0.1226
  863MOL0     C16397  -2.198   8.603   7.771  0.1860 -0.0547  0.2778
  863MOL0     C16398  -2.270   8.588   7.641  0.5265 -0.2502  0.4734
  863MOL0     C16399  -2.254   8.575   7.902  0.7375  0.0514 -0.1297
  863MOL0     C16400  -2.399   8.527   7.928 -0.8223  0.4618 -0.5153
  863MOL0     O16401  -2.422   8.471   8.053  0.1117 -0.3267 -0.6303
  863MOL0     C16402  -2.541   8.420   8.072  0.0550 -0.3586  0.5229
  863MOL0     C16403  -2.556   8.281   8.043  0.5318 -0.6699 -0.6452
  863MOL0     C16404  -2.678   8.212   8.046 -0.2352  0.0284  0.4056
  863MOL0     C16405  -2.795   8.280   8.071  0.1777  0.1207  0.6581
  863MOL0     O16406  -2.912   8.201   8.064  0.1082  0.6594 -0.3956
  863MOL0     C16407  -3.042   8.247   8.064  0.7898 -0.1271  0.5222
  863MOL0     C16408  -3.130   8.134   8.013 -0.5876 -0.2350  0.9966
  863MOL0     C16409  -3.094   7.991   8.069  0.4446  0.5635 -0.0129
  863MOL0     C16410  -3.104   7.972   8.224  0.3883  0.2099  1.2775
  863MOL0     C16411  -3.111   7.823   8.250  0.3292  0.8374 -0.3873
  863MOL0     C16412  -3.091   7.786   8.403  0.9386 -0.5915  0.9242
  863MOL0     C16413  -3.170   7.886   8.496 -0.4674 -0.0044  0.8212
  863MOL0     C16414  -3.169   7.841   8.634 -0.3440  0.2191 -0.4259
  863MOL0    Cl16415  -3.012   7.826   8.705 -1.0410  0.0136  0.2252
  863MOL0     C16416  -2.784   8.415   8.109  0.1611  0.1877  0.0460
  863MOL0     C16417  -2.660   8.483   8.107  0.3176  0.0340  0.2020
  863MOL0     O16418  -2.475   8.525   7.834 -0.0322  1.2259 -0.3473
  863MOL0     C16419  -2.170   8.575   8.011 -0.5535 -0.2526 -0.1267
  863MOL0     C16420  -2.038   8.618   7.998 -0.6595 -0.5800  0.2536
  863MOL0     N16421  -1.287   8.446   7.936 -1.1579  0.0179  0.5394
  863MOL0     N16422  -1.157   8.415   7.929  0.8561 -0.6366 -0.0075
  863MOL0     C16423   0.145   8.292   8.156  0.3467 -0.4584 -0.3359
  863MOL0     C16424   0.275   8.272   8.194  0.6404 -0.3267 -0.2963
  863MOL0     C16425   0.726   8.237   8.196 -0.0069 -0.1973 -0.1464
  863MOL0     C16426   0.796   8.116   8.236  0.3512 -1.1275 -0.2108
  863MOL0     C16427   0.930   8.121   8.263  0.5032 -1.1839  0.2250
  863MOL0     C16428   1.003   8.242   8.252 -0.6777 -0.2967 -0.0571
  863MOL0     O16429   1.130   8.240   8.297  0.3208 -0.0476  0.5744
  863MOL0     C16430   1.221   8.290   8.196 -0.6877 -0.3897  0.6100
  863MOL0     C16431   1.363   8.277   8.242  0.9810  0.7737  0.3645
  863MOL0     C16432   1.403   8.128   8.253  0.7256 -0.6747 -0.3153
  863MOL0     C16433   1.554   8.111   8.244  0.9573  0.8486  0.1544
  863MOL0     C16434   1.633   8.176   8.360  0.5158  0.9504  0.3792
  863MOL0     C16435   1.698   8.226   8.450 -0.3163  0.7434  0.2626
  863MOL0     C16436   0.936   8.360   8.210 -0.7987  0.5806 -0.7988
  863MOL0     C16437   0.797   8.356   8.181  0.9036 -0.8163  0.4495
  863MOL0     H16438   0.410   8.548   8.036 -1.4805  1.6001 -1.2611
  863MOL0     H16439   0.190   8.585   7.979  1.7548  1.2891  1.6631
  863MOL0     H16440  -0.134   8.250   8.046  0.6609  0.3809 -1.0218
  863MOL0     H16441  -0.135   8.358   8.179 -0.1392 -0.9658 -1.0835
  863MOL0     H16442  -0.236   8.535   8.027  0.1828 -0.5068  2.5047
  863MOL0     H16443  -0.222   8.404   7.896  1.5710 -1.9930 -0.0073
  863MOL0     H16444  -0.370   8.273   8.015  0.9856 -0.2331 -1.7541
  863MOL0     H16445  -0.383   8.387   8.154  1.8435  1.6207 -0.3058
  863MOL0     H16446  -0.470   8.554   7.981 -2.3802  0.7486  0.6585
  863MOL0     H16447  -0.458   8.435   7.859  1.2031  0.7458  0.5201
  863MOL0     H16448  -0.636   8.290   7.988 -2.3382  0.5752 -0.9359
  863MOL0     H16449  -0.650   8.415   8.103  1.1901 -1.0497  0.6446
  863MOL0     H16450  -0.706   8.580   7.922 -0.4849 -0.7092  0.3407
  863MOL0     H16451  -0.696   8.456   7.795  0.3424  1.5062 -0.4231
  863MOL0     H16452  -0.892   8.332   7.872 -0.4377  1.4278 -1.7914
  863MOL0     H16453  -0.907   8.435   8.022  1.6035  1.8452  0.5137
  863MOL0     H16454  -0.924   8.491   7.725  1.2881  1.1026  0.2645
  863MOL0     H16455  -0.925   8.619   7.847 -0.1145  0.5453  1.2157
  863MOL0     H16456  -1.191   8.731   7.801 -2.4251  1.3869  1.8819
  863MOL0     H16457  -1.444   8.696   8.019 -1.1620  1.8456 -1.4789
  863MOL0     H16458  -1.441   8.749   7.867  0.8900  0.9476  0.8181
  863MOL0     H16459  -1.529   8.457   7.882  1.5502  0.5611 -0.7281
  863MOL0     H16460  -1.587   8.588   7.783  2.4319  1.8948  0.2466
  863MOL0     H16461  -1.627   8.600   8.073  0.2473  2.8487 -0.7665
  863MOL0     H16462  -1.735   8.493   7.989 -0.7059  1.0108  3.0935
  863MOL0     H16463  -1.696   8.800   7.932  1.3837 -0.5946 -1.7698
  863MOL0     H16464  -1.814   8.748   8.049  0.6696  1.4350 -0.2143
  863MOL0     H16465  -2.020   8.692   7.670 -2.4145  0.6793 -1.4687
  863MOL0     H16466  -2.220   8.632   7.554 -0.9158 -1.6984 -1.1974
  863MOL0     H16467  -2.276   8.479   7.629 -0.4122  0.0171 -2.1118
  863MOL0     H16468  -2.374   8.623   7.642 -0.6327 -3.3437  0.6228
  863MOL0     H16469  -2.473   8.215   8.017  2.2156  2.2400 -3.3624
  863MOL0     H16470  -2.666   8.105   8.033  0.3836 -0.0776  1.6600
  863MOL0     H16471  -3.071   8.270   8.167 -0.7091  0.0308  0.0936
  863MOL0     H16472  -3.057   8.338   8.005 -0.3150 -0.7012 -0.1164
  863MOL0     H16473  -3.234   8.167   8.019  0.0929  1.9667  1.9654
  863MOL0     H16474  -3.112   8.129   7.906  0.4828 -0.0392  1.1569
  863MOL0     H16475  -2.994   7.956   8.043  0.7008  1.7368 -0.6471
  863MOL0     H16476  -3.161   7.923   8.015  0.8921 -0.4161  0.6295
  863MOL0     H16477  -3.026   8.021   8.283 -0.7103  1.1643  1.9706
  863MOL0     H16478  -3.195   8.018   8.263 -0.6215  1.1978 -1.9425
  863MOL0     H16479  -3.036   7.781   8.183 -0.4410  3.0156 -2.7803
  863MOL0     H16480  -3.208   7.789   8.211  1.1476 -0.1576 -1.6002
  863MOL0     H16481  -3.103   7.680   8.425  1.8530 -2.2118 -4.7849
  863MOL0     H16482  -2.983   7.788   8.415  1.1433 -0.9523 -0.6714
  863MOL0     H16483  -3.270   7.899   8.454 -0.3706  0.1108  0.6208
  863MOL0     H16484  -3.127   7.986   8.488 -2.4591  0.8864  0.8079
  863MOL0     H16485  -3.220   7.744   8.642 -2.3987  1.3578  5.5599
  863MOL0     H16486  -3.230   7.908   8.694  1.7434  1.0121  0.8914
  863MOL0     H16487  -2.870   8.470   8.145  0.7273 -0.1371  1.9800
  863MOL0     H16488  -2.663   8.587   8.137 -2.4337 -0.1798  0.9595
  863MOL0     H16489  -2.209   8.542   8.106 -4.4446 -2.2846 -2.1977
  863MOL0     H16490  -1.972   8.624   8.084 -0.6009  3.1801  0.1066
  863MOL0     H16491   0.070   8.218   8.184 -0.8853  0.7264 -0.4127
  863MOL0     H16492   0.296   8.179   8.245  1.1273 -0.2242 -0.3039
  863MOL0     H16493   0.738   8.024   8.243  0.0345 -1.0596 -1.5531
  863MOL0     H16494   0.983   8.031   8.293  3.8617  0.8983  1.2211
  863MOL0     H16495   1.213   8.233   8.103  1.5784 -1.7288  1.1524
  863MOL0     H16496   1.208   8.398   8.185 -1.7992 -0.6530 -0.9735
  863MOL0     H16497   1.369   8.325   8.340 -0.3887  3.8764 -0.9421
  863MOL0     H16498   1.425   8.334   8.172  3.8356 -0.9501  1.3422
  863MOL0     H16499   1.350   8.057   8.190 -0.9836  0.1886  0.0775
  863MOL0     H16500   1.386   8.096   8.356 -1.3333  1.0439 -0.0452
  863MOL0     H16501   1.585   8.143   8.144 -0.9178 -0.5209 -0.9337
  863MOL0     H16502   1.578   8.004   8.253  1.3496  0.7998 -1.2716
  863MOL0     H16503   1.759   8.247   8.536 -1.6862  0.7955  1.2741
  863MOL0     H16504   0.992   8.452   8.196 -0.4325  0.8802  2.0610
  863MOL0     H16505   0.740   8.446   8.158 -2.3397 -2.2845  1.9989
  864MOL0     O16506   1.648   2.458   5.387  0.7806  0.9010  0.2142
  864MOL0     C16507   1.663   2.558   5.322  0.1336  0.4499 -0.0831
  864MOL0     O16508   1.562   2.634   5.268 -0.4005 -0.8544 -0.8842
  864MOL0     C16509   1.427   2.635   5.307 -0.0893 -0.3465  0.6672
  864MOL0     C16510   1.337   2.716   5.230  0.0124 -0.4520  0.8471
  864MOL0     C16511   1.210   2.741   5.275 -0.3321 -0.4073 -0.5143
  864MOL0     C16512   1.162   2.694   5.397 -0.1810 -0.3904 -0.0284
  864MOL0     O16513   1.037   2.739   5.443 -0.1171  0.0283  0.2025
  864MOL0     C16514   0.961   2.666   5.536  0.0291  0.7079 -0.2128
  864MOL0     C16515   0.821   2.719   5.542 -0.2505  0.4117  0.0834
  864MOL0     C16516   0.739   2.634   5.643 -0.7946 -0.4825 -0.0244
  864MOL0     C16517   0.595   2.696   5.665  0.2628  0.4286  0.2224
  864MOL0     C16518   0.507   2.677   5.540 -0.0427  0.3803  0.3901
  864MOL0     C16519   0.356   2.663   5.575  0.3077 -0.0943  0.7959
  864MOL0     C16520   0.274   2.601   5.463 -0.0114  0.4463 -1.1797
  864MOL0     C16521   0.132   2.585   5.510  0.2514  0.4711  0.1289
  864MOL0     N16522   0.052   2.520   5.402 -0.1515  0.4669 -1.1720
  864MOL0     C16523   0.082   2.391   5.345  0.2670  0.1694  0.1030
  864MOL0     C16524  -0.031   2.370   5.282  0.0516 -0.2298 -0.6942
  864MOL0     C16525  -0.063   2.245   5.199 -0.6566 -1.0253  0.1340
  864MOL0     C16526  -0.209   2.208   5.207  0.2227 -0.8057 -0.2834
  864MOL0     C16527  -0.235   2.141   5.334  0.3102  0.2434 -0.0434
  864MOL0     C16528  -0.385   2.110   5.360 -0.0687 -0.4656  0.0455
  864MOL0     O16529  -0.457   2.220   5.418  0.1263  0.2734 -0.0250
  864MOL0     C16530  -0.595   2.236   5.385 -0.6634  0.4990  0.3400
  864MOL0     C16531  -0.669   2.318   5.468 -0.7120 -1.2464  0.9138
  864MOL0     C16532  -0.803   2.350   5.446  0.1480 -0.2546 -0.3922
  864MOL0     C16533  -0.856   2.469   5.513 -0.5593  0.3988 -0.8469
  864MOL0     C16534  -0.872   2.282   5.346  0.2722  0.0613  0.4025
  864MOL0     C16535  -1.019   2.272   5.323  0.0841 -0.4669 -0.1942
  864MOL0     O16536  -1.087   2.298   5.433 -0.1197 -0.3157 -0.3383
  864MOL0     C16537  -1.224   2.325   5.457 -0.1015 -1.0856 -0.3707
  864MOL0     C16538  -1.316   2.373   5.366  0.6471 -0.7166  0.0259
  864MOL0     C16539  -1.450   2.403   5.417  0.0304 -0.2918 -0.8902
  864MOL0     C16540  -1.488   2.375   5.548  0.7657  0.5602 -0.3558
  864MOL0     O16541  -1.617   2.386   5.602 -0.3736  0.0109  0.1031
  864MOL0     C16542  -1.700   2.486   5.547 -0.4393  0.5459 -0.1601
  864MOL0     C16543  -1.833   2.472   5.612  0.1978  0.2101 -0.4101
  864MOL0     C16544  -1.939   2.551   5.539  0.6020 -0.4839  0.1352
  864MOL0     C16545  -2.069   2.588   5.612 -0.3742 -0.6944  0.2389
  864MOL0     C16546  -2.166   2.647   5.512  0.8942 -1.0571  0.4285
  864MOL0     C16547  -2.303   2.683   5.580  0.3164 -0.4142 -0.1233
  864MOL0     C16548  -2.407   2.733   5.481 -0.6386  0.3865 -0.4817
  864MOL0     C16549  -2.521   2.820   5.553  0.4116  0.2497 -0.6723
  864MOL0    Cl16550  -2.458   2.983   5.619  0.3319  0.1648 -0.6467
  864MOL0     C16551  -1.393   2.320   5.639  0.0046  0.9593  0.5838
  864MOL0     C16552  -1.260   2.300   5.588 -0.1357  0.2416  0.4616
  864MOL0     O16553  -1.068   2.253   5.213  0.2421  0.2750  0.1737
  864MOL0     C16554  -0.798   2.183   5.272  0.3550 -0.1805  0.2165
  864MOL0     C16555  -0.662   2.163   5.287 -0.3068  0.4040  0.2861
  864MOL0     N16556  -0.116   2.464   5.302  0.6472 -0.3379 -0.0891
  864MOL0     N16557  -0.080   2.554   5.385 -0.5669 -0.0001 -0.7492
  864MOL0     C16558   1.249   2.607   5.466 -1.2474 -0.5479 -0.4960
  864MOL0     C16559   1.374   2.574   5.424  0.1394 -0.1181  0.4672
  864MOL0     C16560   1.798   2.591   5.289  0.0918 -0.3060  0.0871
  864MOL0     C16561   1.839   2.723   5.275  0.6316  0.3348  0.3068
  864MOL0     C16562   1.970   2.756   5.270 -0.8102 -0.8695  0.3663
  864MOL0     C16563   2.074   2.660   5.277 -0.1455  1.2863  0.3351
  864MOL0     O16564   2.210   2.689   5.264 -0.1746  0.1417  0.2427
  864MOL0     C16565   2.259   2.815   5.309 -0.1343  0.3901 -0.3941
  864MOL0     C16566   2.409   2.789   5.350 -0.2501  0.2348 -0.1603
  864MOL0     C16567   2.498   2.739   5.235  0.3488 -0.6484 -0.4260
  864MOL0     C16568   2.529   2.846   5.141  0.1053  0.0363  0.8030
  864MOL0     C16569   2.611   2.795   5.023  0.6651 -0.3120 -0.6980
  864MOL0     C16570   2.682   2.774   4.931  0.1891 -0.2818 -0.8717
  864MOL0     C16571   2.031   2.525   5.267  0.8527  0.0114  0.1397
  864MOL0     C16572   1.897   2.486   5.272  0.2947  0.3063 -0.8772
  864MOL0     H16573   1.378   2.766   5.144 -1.1977 -1.4561 -0.3682
  864MOL0     H16574   1.151   2.817   5.224 -0.2231 -1.0444 -1.6183
  864MOL0     H16575   0.965   2.561   5.506 -1.4930  0.0642  1.6462
  864MOL0     H16576   1.006   2.671   5.636 -0.7095 -4.4813  0.6412
  864MOL0     H16577   0.819   2.823   5.575  2.5449  0.4176  0.4408
  864MOL0     H16578   0.770   2.715   5.445 -0.3760  0.7523  0.1332
  864MOL0     H16579   0.739   2.528   5.618  0.6652 -0.3787 -0.5645
  864MOL0     H16580   0.791   2.638   5.739  2.0005  1.8654 -1.4695
  864MOL0     H16581   0.545   2.642   5.746 -0.0097  1.0026  0.4399
  864MOL0     H16582   0.598   2.803   5.689 -0.4356  0.7356 -0.9730
  864MOL0     H16583   0.528   2.753   5.465  0.6855 -0.0311  0.1693
  864MOL0     H16584   0.542   2.581   5.500  0.1689  1.1835 -1.4075
  864MOL0     H16585   0.355   2.590   5.657 -1.5679 -0.1388  0.7685
  864MOL0     H16586   0.320   2.760   5.612  2.2043  0.6622  0.7763
  864MOL0     H16587   0.289   2.652   5.368 -2.5889  0.5976 -1.5887
  864MOL0     H16588   0.308   2.498   5.454 -0.7297  0.2335 -1.4867
  864MOL0     H16589   0.099   2.683   5.545  2.3957  1.6292 -0.8908
  864MOL0     H16590   0.116   2.530   5.604  1.0541  1.5493  0.9237
  864MOL0     H16591   0.174   2.336   5.360  1.2964  1.3986 -1.3522
  864MOL0     H16592  -0.032   2.276   5.099 -1.4612 -0.3012  0.0953
  864MOL0     H16593  -0.004   2.162   5.240 -0.9551 -1.7002 -0.7824
  864MOL0     H16594  -0.236   2.146   5.122  1.0290  0.1972 -1.3116
  864MOL0     H16595  -0.274   2.296   5.205  0.5910 -0.5396 -0.9464
  864MOL0     H16596  -0.188   2.191   5.419 -0.2320 -0.8755  0.9509
  864MOL0     H16597  -0.189   2.042   5.341 -2.0450 -0.9131  0.1215
  864MOL0     H16598  -0.396   2.022   5.424  1.3020 -0.5521  0.2072
  864MOL0     H16599  -0.427   2.083   5.263 -0.7810 -2.2705  0.8166
  864MOL0     H16600  -0.612   2.364   5.549  0.5182 -2.4094  0.7567
  864MOL0     H16601  -0.930   2.509   5.443 -1.4470 -2.4203 -1.6629
  864MOL0     H16602  -0.908   2.436   5.603 -0.6754 -0.4599 -1.2239
  864MOL0     H16603  -0.778   2.543   5.532 -0.7891  0.5089 -0.3039
  864MOL0     H16604  -1.280   2.387   5.265  0.1246  1.3463  0.0891
  864MOL0     H16605  -1.521   2.436   5.342 -0.3716  0.3674 -0.2333
  864MOL0     H16606  -1.660   2.581   5.585  2.2879 -0.8727  0.7836
  864MOL0     H16607  -1.707   2.475   5.438  2.3844  0.9193 -0.4592
  864MOL0     H16608  -1.866   2.367   5.611 -0.2344  0.3153  0.8455
  864MOL0     H16609  -1.827   2.511   5.714 -0.3057 -1.1046  0.1438
  864MOL0     H16610  -1.981   2.496   5.454 -1.4017  2.9995 -1.3851
  864MOL0     H16611  -1.902   2.642   5.490 -0.6027  0.1710  0.3850
  864MOL0     H16612  -2.102   2.497   5.663  1.5808 -0.8795  1.2601
  864MOL0     H16613  -2.039   2.661   5.687 -3.8415 -0.3653  1.4728
  864MOL0     H16614  -2.197   2.576   5.435  1.6929 -0.3970 -0.5146
  864MOL0     H16615  -2.124   2.740   5.472 -1.5439  0.1061  0.3704
  864MOL0     H16616  -2.345   2.603   5.642 -0.7730  0.4434  0.2755
  864MOL0     H16617  -2.285   2.768   5.646 -0.8978 -0.3261  0.1077
  864MOL0     H16618  -2.451   2.651   5.424  0.6526  0.0822 -1.0500
  864MOL0     H16619  -2.352   2.790   5.406  0.0852 -1.6826 -1.5985
  864MOL0     H16620  -2.576   2.760   5.626  0.9380  0.7787  0.1810
  864MOL0     H16621  -2.600   2.840   5.481  0.3493 -2.2165 -1.3554
  864MOL0     H16622  -1.414   2.290   5.741 -0.0189 -3.3096 -0.5171
  864MOL0     H16623  -1.190   2.263   5.661 -0.7392 -2.1529 -0.0713
  864MOL0     H16624  -0.848   2.111   5.208  1.2523  0.9852 -1.8687
  864MOL0     H16625  -0.613   2.087   5.226  1.2085  1.7365 -0.2183
  864MOL0     H16626   1.220   2.564   5.561  0.8036 -0.9613 -0.0115
  864MOL0     H16627   1.447   2.524   5.487  0.1244 -1.1282 -0.2888
  864MOL0     H16628   1.764   2.801   5.280 -0.0306 -0.3732  1.8117
  864MOL0     H16629   2.000   2.859   5.255 -3.1586 -0.3310 -1.2288
  864MOL0     H16630   2.248   2.894   5.235  1.5986  0.6886 -0.3795
  864MOL0     H16631   2.204   2.856   5.394  1.0788  1.0958  0.0840
  864MOL0     H16632   2.405   2.722   5.436 -1.9137 -1.4560 -1.4738
  864MOL0     H16633   2.452   2.884   5.383 -0.7322  0.8203 -1.1950
  864MOL0     H16634   2.450   2.662   5.175 -1.3165  0.7251 -0.9410
  864MOL0     H16635   2.596   2.696   5.260 -0.0812 -2.1273 -1.1593
  864MOL0     H16636   2.585   2.926   5.189  1.6264 -1.4031  1.5295
  864MOL0     H16637   2.431   2.883   5.109 -0.0430 -1.6454 -0.8775
  864MOL0     H16638   2.742   2.747   4.846  1.8182  0.4085  0.0002
  864MOL0     H16639   2.109   2.450   5.269  0.0122 -0.9071  2.4912
  864MOL0     H16640   1.886   2.379   5.277 -0.2142  0.2983 -2.0947
  865MOL0     O16641   2.516   4.028   6.498  0.4279 -0.3371 -0.2668
  865MOL0     C16642   2.564   4.077   6.396  0.4421 -0.5580 -0.6127
  865MOL0     O16643   2.493   4.138   6.294 -0.1399 -0.5735 -0.4543
  865MOL0     C16644   2.355   4.123   6.285  0.9319  0.6781  0.1059
  865MOL0     C16645   2.273   4.237   6.264 -0.5394 -0.3631 -0.1704
  865MOL0     C16646   2.131   4.222   6.266  0.2217  0.1152  1.1373
  865MOL0     C16647   2.064   4.100   6.270 -0.7596  0.3744 -0.1858
  865MOL0     O16648   1.931   4.093   6.263  0.1822 -0.8883  0.1290
  865MOL0     C16649   1.852   3.975   6.277 -1.0380 -0.0804 -0.1826
  865MOL0     C16650   1.709   4.005   6.331  0.5588  0.3287  1.1905
  865MOL0     C16651   1.653   4.126   6.260 -0.2398  0.1029 -0.1243
  865MOL0     C16652   1.507   4.109   6.286  0.7285 -0.4916 -0.4570
  865MOL0     C16653   1.425   4.232   6.236  0.5372 -0.1301  0.2086
  865MOL0     C16654   1.426   4.237   6.076  0.2720  0.4763  0.4386
  865MOL0     C16655   1.329   4.350   6.038  0.4759  0.1000 -0.7136
  865MOL0     C16656   1.337   4.369   5.889  0.1350  0.7270  0.0992
  865MOL0     N16657   1.237   4.468   5.836  0.8863  0.6693  0.6399
  865MOL0     C16658   1.214   4.590   5.888  0.3893  1.0633  0.2358
  865MOL0     C16659   1.111   4.646   5.818  0.5750  0.5805 -1.4384
  865MOL0     C16660   1.036   4.775   5.848 -0.2372  0.4571  0.6393
  865MOL0     C16661   0.899   4.757   5.898 -0.4768 -1.0724  0.8615
  865MOL0     C16662   0.886   4.681   6.033 -0.3687 -0.4382 -0.7678
  865MOL0     C16663   0.745   4.680   6.088 -0.6795  0.1914 -0.8074
  865MOL0     O16664   0.642   4.611   6.020  0.0309 -1.1965 -0.0417
  865MOL0     C16665   0.544   4.679   5.956  0.8990  0.7591 -0.3090
  865MOL0     C16666   0.561   4.804   5.892  0.8533  0.1746 -0.2382
  865MOL0     C16667   0.454   4.873   5.818 -0.8582 -0.5590  0.0320
  865MOL0     C16668   0.476   5.007   5.750  0.9150 -0.1158 -0.1925
  865MOL0     C16669   0.332   4.806   5.809  0.8809 -0.7990  0.4446
  865MOL0     C16670   0.205   4.861   5.744  0.3174  0.0169 -0.8589
  865MOL0     O16671   0.124   4.758   5.687  0.4726 -0.8557  0.2994
  865MOL0     C16672   0.006   4.791   5.623 -0.2748  0.1901  0.9026
  865MOL0     C16673  -0.095   4.865   5.695 -0.6453  0.4753  0.7178
  865MOL0     C16674  -0.218   4.898   5.629 -0.2357 -0.1723 -0.3701
  865MOL0     C16675  -0.239   4.860   5.496  0.6496  0.2840  0.2879
  865MOL0     O16676  -0.359   4.899   5.440 -0.2705  0.3274 -0.3023
  865MOL0     C16677  -0.366   4.866   5.301 -0.1630  0.0148  0.2741
  865MOL0     C16678  -0.503   4.908   5.256  0.3951  0.8258 -0.7196
  865MOL0     C16679  -0.521   4.876   5.107 -0.4833  0.3492  0.3391
  865MOL0     C16680  -0.655   4.916   5.052  0.0048 -0.2827  0.6620
  865MOL0     C16681  -0.696   5.066   5.057 -0.4239 -1.2495  0.1544
  865MOL0     C16682  -0.601   5.167   5.009 -0.1448  0.0745  0.3867
  865MOL0     C16683  -0.673   5.301   4.997 -0.2213 -0.9705 -0.3307
  865MOL0     C16684  -0.586   5.397   4.935 -0.7273  0.1532 -0.0473
  865MOL0    Cl16685  -0.432   5.405   5.022  0.0626 -0.3384 -0.1676
  865MOL0     C16686  -0.135   4.793   5.425  0.2581  0.7777  1.0992
  865MOL0     C16687  -0.019   4.753   5.488  0.3747 -0.0975 -0.2828
  865MOL0     O16688   0.174   4.981   5.749 -0.2091  0.3345  0.3080
  865MOL0     C16689   0.319   4.679   5.875 -0.0928  0.1779 -0.1221
  865MOL0     C16690   0.419   4.614   5.945  0.2340 -0.7003 -0.7183
  865MOL0     N16691   1.075   4.555   5.716 -0.3185  0.0676  0.1922
  865MOL0     N16692   1.162   4.453   5.726  0.1018  0.6593 -0.4474
  865MOL0     C16693   2.147   3.986   6.295 -0.1533 -0.4921 -0.0205
  865MOL0     C16694   2.287   4.002   6.297 -0.0304  0.1638 -0.3741
  865MOL0     C16695   2.715   4.106   6.400 -0.3160  0.8325  0.0903
  865MOL0     C16696   2.791   4.087   6.517  0.5392 -0.3462 -0.9984
  865MOL0     C16697   2.933   4.106   6.515 -0.2726  0.0063 -0.3233
  865MOL0     C16698   2.999   4.141   6.398  0.0033 -0.8472  0.2580
  865MOL0     O16699   3.133   4.159   6.412  0.1152 -0.0982 -0.2087
  865MOL0     C16700   3.219   4.174   6.297  0.3307 -0.4687  0.2534
  865MOL0     C16701   3.223   4.049   6.210  0.3270  0.2174 -0.1290
  865MOL0     C16702   3.285   3.928   6.284  0.0544  0.5100  0.3499
  865MOL0     C16703   3.230   3.800   6.225  0.5657  0.0184  0.0608
  865MOL0     C16704   3.090   3.784   6.270  0.4512  0.5397  0.1234
  865MOL0     C16705   2.973   3.786   6.305  0.3814  0.7666  0.0628
  865MOL0     C16706   2.916   4.172   6.284 -0.0714  0.1243  0.6152
  865MOL0     C16707   2.780   4.161   6.289  0.1328 -0.6177 -0.0804
  865MOL0     H16708   2.320   4.335   6.256  0.1612 -0.5844  0.9808
  865MOL0     H16709   2.072   4.311   6.244 -1.0575 -0.8361  0.5931
  865MOL0     H16710   1.851   3.917   6.185 -0.1378 -1.2682  0.5260
  865MOL0     H16711   1.897   3.904   6.348  0.3920  1.7032  0.7719
  865MOL0     H16712   1.649   3.915   6.319  0.6542  0.4387 -0.3478
  865MOL0     H16713   1.699   4.025   6.438 -3.8856 -3.2821  1.7368
  865MOL0     H16714   1.691   4.219   6.304  0.2388 -0.2159  0.1399
  865MOL0     H16715   1.684   4.132   6.155  0.3525  2.6332  0.1078
  865MOL0     H16716   1.474   4.027   6.221 -0.3015  1.0718 -1.9977
  865MOL0     H16717   1.493   4.086   6.392  1.6049 -2.2302 -0.6897
  865MOL0     H16718   1.325   4.232   6.281  1.0951 -1.0726  1.4966
  865MOL0     H16719   1.475   4.324   6.268 -0.3249  1.1825 -1.9685
  865MOL0     H16720   1.525   4.254   6.034 -1.1758 -0.2352 -3.6771
  865MOL0     H16721   1.384   4.142   6.044 -0.8528  1.8859 -2.6781
  865MOL0     H16722   1.227   4.328   6.070 -0.2756  3.0959 -0.6903
  865MOL0     H16723   1.366   4.433   6.099 -0.5832  0.0765 -0.0189
  865MOL0     H16724   1.302   4.273   5.849 -0.9284  0.2498  2.0298
  865MOL0     H16725   1.436   4.395   5.849  0.2749  1.7749  1.1012
  865MOL0     H16726   1.257   4.639   5.975  0.2251  1.2545  0.2096
  865MOL0     H16727   1.102   4.821   5.923  1.1542 -0.1390 -0.1796
  865MOL0     H16728   1.032   4.839   5.759 -3.7565 -0.2157  0.1835
  865MOL0     H16729   0.840   4.692   5.833  0.8432 -1.8236  0.3914
  865MOL0     H16730   0.854   4.856   5.912  1.3206  0.4540 -2.8062
  865MOL0     H16731   0.941   4.735   6.111 -1.4039 -0.7872  0.2494
  865MOL0     H16732   0.917   4.577   6.028  2.3709  0.2405  0.1428
  865MOL0     H16733   0.730   4.785   6.116 -3.0960 -0.6779  1.6947
  865MOL0     H16734   0.747   4.623   6.182  0.4419 -3.6010 -2.9113
  865MOL0     H16735   0.658   4.851   5.879 -0.0370  1.4030 -3.2389
  865MOL0     H16736   0.409   5.017   5.664 -0.4319 -0.7225  0.7558
  865MOL0     H16737   0.431   5.080   5.818  2.2437 -0.9299  1.6319
  865MOL0     H16738   0.582   5.024   5.730  0.4577  1.9985 -1.1360
  865MOL0     H16739  -0.073   4.896   5.796  0.1246  3.3807 -0.2465
  865MOL0     H16740  -0.293   4.950   5.688  0.6918 -1.3133  1.9570
  865MOL0     H16741  -0.291   4.905   5.232  0.7017 -0.3931  0.9576
  865MOL0     H16742  -0.369   4.758   5.284 -0.2688 -0.0157  0.4812
  865MOL0     H16743  -0.569   4.845   5.315  1.5461  0.2200 -0.0416
  865MOL0     H16744  -0.513   5.015   5.279  0.4185  0.6951 -0.0849
  865MOL0     H16745  -0.499   4.773   5.080 -0.7883  0.4918 -0.4857
  865MOL0     H16746  -0.452   4.939   5.050  0.3411  0.4965  1.4589
  865MOL0     H16747  -0.668   4.886   4.947  0.0486  0.5829  0.4058
  865MOL0     H16748  -0.732   4.864   5.111  0.5247 -2.9415 -0.8526
  865MOL0     H16749  -0.718   5.081   5.164  1.0770 -0.9566  0.4386
  865MOL0     H16750  -0.794   5.089   5.014  0.3984  0.8886 -0.7193
  865MOL0     H16751  -0.515   5.163   5.077 -0.8138 -1.0691  1.2112
  865MOL0     H16752  -0.577   5.141   4.906 -1.5793 -0.0223  0.0502
  865MOL0     H16753  -0.686   5.340   5.099  0.9831 -0.6888 -0.2725
  865MOL0     H16754  -0.763   5.299   4.935 -0.6630  1.0446  0.1703
  865MOL0     H16755  -0.636   5.494   4.922  3.3346  2.8983  2.3326
  865MOL0     H16756  -0.557   5.357   4.838 -0.9032  2.6154 -1.1938
  865MOL0     H16757  -0.153   4.739   5.333 -3.4096 -2.7909  3.5597
  865MOL0     H16758   0.066   4.701   5.445  0.6383  0.2134 -0.1396
  865MOL0     H16759   0.228   4.622   5.862  0.6873 -1.6426  1.7920
  865MOL0     H16760   0.395   4.519   5.991  0.0010  0.1834  1.0552
  865MOL0     H16761   2.095   3.891   6.293 -1.7333  0.2336  2.1268
  865MOL0     H16762   2.355   3.918   6.311 -0.9982 -1.0585 -2.5384
  865MOL0     H16763   2.746   4.058   6.611  1.0960  0.7088 -0.3747
  865MOL0     H16764   2.989   4.094   6.607  0.2881  1.6334 -0.4194
  865MOL0     H16765   3.175   4.258   6.243 -1.0333 -0.7300  0.9383
  865MOL0     H16766   3.322   4.201   6.322  0.4349  2.1067 -2.4327
  865MOL0     H16767   3.270   4.063   6.113 -0.4261 -2.4058 -0.9646
  865MOL0     H16768   3.120   4.021   6.185  1.4853 -1.7247 -3.1863
  865MOL0     H16769   3.268   3.917   6.391 -2.4015 -4.0181 -0.2396
  865MOL0     H16770   3.391   3.936   6.260 -0.7289  3.2082 -3.0787
  865MOL0     H16771   3.288   3.715   6.262  1.0883 -0.6724 -2.2137
  865MOL0     H16772   3.238   3.799   6.116  3.4929 -0.6730  0.1839
  865MOL0     H16773   2.868   3.790   6.326  0.5954  1.3809  1.1158
  865MOL0     H16774   2.960   4.210   6.193  1.7778  0.7457  1.7237
  865MOL0     H16775   2.731   4.188   6.196 -1.5625  4.3296  1.8791
  866MOL0     O16776   1.889   2.363   1.138  0.1295  0.7601  0.2234
  866MOL0     C16777   1.923   2.453   1.066  0.7310 -0.5801 -0.0402
  866MOL0     O16778   1.838   2.507   0.974  0.5997 -0.3755  0.8931
  866MOL0     C16779   1.710   2.459   0.959  0.1081  0.2462  1.1746
  866MOL0     C16780   1.685   2.405   0.832  0.0781 -0.2346 -0.5514
  866MOL0     C16781   1.579   2.325   0.798 -0.3236  0.0026 -1.0997
  866MOL0     C16782   1.476   2.298   0.901 -0.1221  0.0983 -0.4529
  866MOL0     O16783   1.362   2.233   0.868 -0.0458  0.3118  0.2665
  866MOL0     C16784   1.239   2.270   0.937  0.4735  0.4050  0.0886
  866MOL0     C16785   1.113   2.192   0.883 -0.3763  0.7512  0.1326
  866MOL0     C16786   0.991   2.209   0.972  0.0429  0.2196  0.0012
  866MOL0     C16787   0.890   2.104   0.940 -0.3442  0.2847  0.0572
  866MOL0     C16788   0.753   2.153   0.945 -1.1072  0.8748 -0.1407
  866MOL0     C16789   0.656   2.036   0.956  0.0700  0.3317 -0.9820
  866MOL0     C16790   0.530   2.076   0.897 -0.0071 -0.5762 -0.3351
  866MOL0     C16791   0.516   2.080   0.745 -0.1152 -0.3263 -0.1059
  866MOL0     N16792   0.387   2.144   0.710 -0.4787  0.6049  0.5834
  866MOL0     C16793   0.285   2.069   0.661 -0.2330  0.1546 -0.5534
  866MOL0     C16794   0.184   2.151   0.642  0.4199  0.6592 -0.4732
  866MOL0     C16795   0.034   2.118   0.596 -0.4402  0.0634  0.9178
  866MOL0     C16796  -0.043   2.026   0.687 -0.0564  0.2215  0.1503
  866MOL0     C16797  -0.066   1.888   0.614 -0.9526 -0.0340 -0.9960
  866MOL0     C16798  -0.152   1.904   0.487 -0.0379 -0.6234 -0.4777
  866MOL0     O16799  -0.280   1.961   0.523  0.2201  0.0446  0.5056
  866MOL0     C16800  -0.377   1.954   0.426 -0.0771 -0.5550 -0.1108
  866MOL0     C16801  -0.510   1.982   0.465  0.6469  0.0185 -0.0891
  866MOL0     C16802  -0.619   1.958   0.376  0.6870  0.1297  0.1887
  866MOL0     C16803  -0.756   1.980   0.427 -0.3410  0.5259  0.2993
  866MOL0     C16804  -0.595   1.909   0.246  0.0129  0.3331  0.9127
  866MOL0     C16805  -0.700   1.866   0.145 -0.6630  0.2647  0.0520
  866MOL0     O16806  -0.804   1.797   0.188 -0.2283 -0.1721 -0.0865
  866MOL0     C16807  -0.891   1.758   0.088 -0.1865 -0.4712  0.4665
  866MOL0     C16808  -0.961   1.854   0.014 -0.1654 -0.7403  0.5572
  866MOL0     C16809  -1.062   1.818  -0.078 -0.4412 -0.3982  0.1479
  866MOL0     C16810  -1.077   1.680  -0.096 -0.0812  0.1368  0.8500
  866MOL0     O16811  -1.168   1.647  -0.187 -0.1014  0.7455  0.0742
  866MOL0     C16812  -1.303   1.687  -0.158  0.0887 -0.1144 -0.7541
  866MOL0     C16813  -1.385   1.558  -0.161  0.0874  0.4683  0.1610
  866MOL0     C16814  -1.537   1.582  -0.158  0.3937  0.1019 -0.1534
  866MOL0     C16815  -1.593   1.676  -0.055  0.1410  0.2189 -0.5786
  866MOL0     C16816  -1.754   1.675  -0.042 -1.0341 -0.2120 -0.1860
  866MOL0     C16817  -1.828   1.710  -0.173 -0.5430  0.2464 -0.2593
  866MOL0     C16818  -1.985   1.712  -0.151  0.2266 -0.1302  0.2227
  866MOL0     C16819  -2.027   1.845  -0.077  0.2057  0.1378  0.9910
  866MOL0    Cl16820  -2.183   1.904  -0.155 -0.0847  0.1975  0.0586
  866MOL0     C16821  -1.002   1.584  -0.028 -0.4582 -0.6069  0.1253
  866MOL0     C16822  -0.905   1.628   0.061 -0.0655 -0.8418 -0.1397
  866MOL0     O16823  -0.675   1.899   0.030  0.5472 -0.2427 -0.5079
  866MOL0     C16824  -0.462   1.874   0.217 -0.1114  0.4241 -0.4114
  866MOL0     C16825  -0.355   1.901   0.302  0.4949 -0.1315  0.3205
  866MOL0     N16826   0.220   2.276   0.682  0.0614  0.7859  0.5088
  866MOL0     N16827   0.345   2.272   0.718  0.3248  0.4556  0.0978
  866MOL0     C16828   1.496   2.359   1.032  0.0030  0.4260  1.0469
  866MOL0     C16829   1.614   2.426   1.056  0.8124 -0.3160 -0.3117
  866MOL0     C16830   2.053   2.519   1.071  0.0958  0.2332 -0.6962
  866MOL0     C16831   2.149   2.476   1.164 -0.0721  0.2253 -0.5170
  866MOL0     C16832   2.279   2.528   1.157 -0.0675 -0.4587 -0.0798
  866MOL0     C16833   2.328   2.610   1.055  0.0266  0.1670  0.9565
  866MOL0     O16834   2.458   2.660   1.042 -0.7299 -0.2981  0.0905
  866MOL0     C16835   2.562   2.563   1.076  0.3115 -0.2699 -0.0629
  866MOL0     C16836   2.688   2.584   0.990  0.0751  0.0101 -0.0264
  866MOL0     C16837   2.772   2.707   1.052  1.0349  0.5953 -0.2731
  866MOL0     C16838   2.901   2.722   0.981 -0.6965  0.3994 -0.8264
  866MOL0     C16839   2.983   2.597   0.990  0.8297 -0.2906  0.4969
  866MOL0     C16840   3.057   2.502   0.986  0.7682  0.4659  0.0036
  866MOL0     C16841   2.233   2.664   0.972  0.9329  0.1013 -0.9935
  866MOL0     C16842   2.105   2.609   0.976 -0.3476 -0.3589  0.3918
  866MOL0     H16843   1.756   2.410   0.749 -1.3638 -1.2189 -1.8913
  866MOL0     H16844   1.563   2.287   0.698  1.0774  1.5991 -1.9678
  866MOL0     H16845   1.243   2.244   1.043  1.2948  0.2898  0.0375
  866MOL0     H16846   1.221   2.377   0.923 -0.5426  0.6576  2.7412
  866MOL0     H16847   1.087   2.226   0.782 -0.8253  0.0340  0.0051
  866MOL0     H16848   1.144   2.087   0.877 -5.3566 -0.9064 -0.7603
  866MOL0     H16849   1.010   2.209   1.079 -2.3296  0.8617  0.4754
  866MOL0     H16850   0.942   2.306   0.962  2.8120  1.7921  0.7643
  866MOL0     H16851   0.907   2.052   0.845 -2.8069  2.3021 -1.6486
  866MOL0     H16852   0.904   2.026   1.015 -0.7103 -1.5606 -1.6907
  866MOL0     H16853   0.744   2.213   1.035 -2.7539 -2.4480  2.1159
  866MOL0     H16854   0.739   2.211   0.853 -0.9186  0.1424 -0.6488
  866MOL0     H16855   0.693   1.946   0.905 -2.8363 -0.2773 -2.1711
  866MOL0     H16856   0.640   2.006   1.060 -1.0371  1.6328 -0.7511
  866MOL0     H16857   0.451   2.009   0.933 -0.4599  0.7270  1.2453
  866MOL0     H16858   0.500   2.175   0.933  2.0465 -0.3477  0.8979
  866MOL0     H16859   0.528   1.975   0.717 -1.8663 -0.5600 -0.0702
  866MOL0     H16860   0.595   2.140   0.698  0.8102 -1.0713  0.4613
  866MOL0     H16861   0.288   1.965   0.630 -0.5552  0.2815 -1.0101
  866MOL0     H16862  -0.008   2.219   0.593  3.1447  1.6866 -0.7361
  866MOL0     H16863   0.036   2.081   0.493 -3.7397 -2.4488  1.5951
  866MOL0     H16864  -0.143   2.063   0.710  0.5106  1.0766  1.3674
  866MOL0     H16865   0.003   2.007   0.784  0.4816  0.2470 -0.0937
  866MOL0     H16866  -0.109   1.820   0.687 -0.6294  0.7567 -0.0454
  866MOL0     H16867   0.031   1.851   0.580  0.2100  1.4980  0.4584
  866MOL0     H16868  -0.175   1.803   0.450 -1.6304 -0.8829  1.1248
  866MOL0     H16869  -0.111   1.968   0.408  1.2136 -1.1646 -0.2909
  866MOL0     H16870  -0.523   2.017   0.567  1.3388  2.1224 -0.6756
  866MOL0     H16871  -0.834   1.989   0.351 -1.1749  0.1780  1.0953
  866MOL0     H16872  -0.778   1.900   0.498  1.4126 -0.2698 -0.0058
  866MOL0     H16873  -0.759   2.077   0.476 -1.8553  2.2031 -2.7815
  866MOL0     H16874  -0.946   1.958   0.042  1.7209 -1.0778  0.9688
  866MOL0     H16875  -1.117   1.895  -0.132  0.0539 -0.2306 -0.1281
  866MOL0     H16876  -1.308   1.744  -0.065  2.2100  1.7832 -1.7167
  866MOL0     H16877  -1.330   1.759  -0.236 -0.0268  1.7675  0.9366
  866MOL0     H16878  -1.360   1.508  -0.255 -0.2729  0.3467  0.1271
  866MOL0     H16879  -1.362   1.493  -0.076 -1.2286 -0.9212 -0.4947
  866MOL0     H16880  -1.591   1.487  -0.148 -1.9847  1.5709  1.9196
  866MOL0     H16881  -1.563   1.621  -0.257 -0.1014 -0.6103 -0.3126
  866MOL0     H16882  -1.566   1.650   0.048 -1.4835 -1.1341 -0.4441
  866MOL0     H16883  -1.560   1.778  -0.075  2.6722 -0.1476  1.1816
  866MOL0     H16884  -1.773   1.737   0.046  0.0182 -0.3469  0.1503
  866MOL0     H16885  -1.780   1.575  -0.007  1.0401 -0.5382  0.6017
  866MOL0     H16886  -1.794   1.805  -0.216  1.2418 -1.3856 -2.7745
  866MOL0     H16887  -1.797   1.635  -0.247 -2.8815 -0.4143 -0.6495
  866MOL0     H16888  -2.011   1.627  -0.088 -1.7735 -0.9578 -1.5998
  866MOL0     H16889  -2.039   1.712  -0.246  0.2089  1.4239  0.1961
  866MOL0     H16890  -1.947   1.919  -0.087  2.0292 -1.8267  0.2804
  866MOL0     H16891  -2.052   1.837   0.030  0.4604 -1.7990  0.9447
  866MOL0     H16892  -1.010   1.478  -0.049  0.4258 -0.6925  0.1422
  866MOL0     H16893  -0.847   1.553   0.115  1.4506 -0.0458 -0.5976
  866MOL0     H16894  -0.435   1.837   0.119 -1.3440 -1.1031 -0.2186
  866MOL0     H16895  -0.260   1.857   0.272 -0.9623 -2.3727 -1.3406
  866MOL0     H16896   1.420   2.335   1.106 -1.6290  0.7632 -0.4569
  866MOL0     H16897   1.625   2.462   1.158 -1.4908  0.6694 -0.3363
  866MOL0     H16898   2.128   2.407   1.245 -2.2943  1.6148  0.2092
  866MOL0     H16899   2.345   2.498   1.237  0.2030 -1.1088 -0.5340
  866MOL0     H16900   2.603   2.574   1.177 -0.7451 -1.4493  0.5163
  866MOL0     H16901   2.520   2.463   1.063 -0.2456  0.0306 -0.6019
  866MOL0     H16902   2.656   2.614   0.890 -0.3045  1.1022  0.4087
  866MOL0     H16903   2.746   2.492   0.988 -1.0887 -0.7539 -2.5509
  866MOL0     H16904   2.782   2.686   1.159  0.6919 -1.0349 -0.5242
  866MOL0     H16905   2.705   2.793   1.043  0.9911  0.8617  2.0853
  866MOL0     H16906   2.954   2.811   1.016 -1.9607  1.1856 -0.8455
  866MOL0     H16907   2.885   2.739   0.874  4.6261  2.8620 -1.5453
  866MOL0     H16908   3.106   2.407   0.975 -3.1146 -1.4632 -2.9611
  866MOL0     H16909   2.246   2.738   0.894 -2.0504  1.0787 -0.6734
  866MOL0     H16910   2.033   2.645   0.902  2.7162  4.1556 -0.8423
  867MOL0     O16911   8.241   0.625   8.967 -0.4186 -0.7642 -0.4759
  867MOL0     C16912   8.243   0.510   9.010 -0.7007 -0.6217  0.1097
  867MOL0     O16913   8.349   0.433   9.025  0.1089  0.7205 -0.0418
  867MOL0     C16914   8.475   0.490   9.026  0.2118  0.3210 -0.0468
  867MOL0     C16915   8.563   0.466   8.922 -0.9080  0.4579  0.3526
  867MOL0     C16916   8.677   0.554   8.907 -0.9989 -0.5817 -0.3334
  867MOL0     C16917   8.716   0.649   9.004 -0.7100 -0.2294 -0.5346
  867MOL0     O16918   8.833   0.715   8.970  0.3455  0.6523  0.6668
  867MOL0     C16919   8.897   0.774   9.085  0.1612  0.0888  1.7185
  867MOL0     C16920   9.034   0.819   9.045  0.4172  0.0038  0.3911
  867MOL0     C16921   9.110   0.832   9.177  0.1431  0.2577 -0.2302
  867MOL0     C16922   9.239   0.923   9.167 -0.0326 -0.3404  0.1151
  867MOL0     C16923   9.332   0.888   9.057 -0.0143  0.8408 -0.1978
  867MOL0     C16924   9.460   0.973   9.068  0.0609 -0.0790  0.2745
  867MOL0     C16925   9.568   0.913   8.976  0.0537  0.4169  0.5417
  867MOL0     C16926   9.701   0.983   8.983  0.4877  0.1423  0.0620
  867MOL0     N16927   9.768   0.957   9.112  0.1888  0.7951 -0.9553
  867MOL0     C16928   9.891   0.899   9.114  0.3560 -0.1580  0.4714
  867MOL0     C16929   9.946   0.932   9.233 -1.0835  0.0534  0.5568
  867MOL0     C16930  10.090   0.911   9.261 -0.0700  0.1031  0.8706
  867MOL0     C16931  10.150   0.762   9.257 -0.0290 -0.4516 -0.7640
  867MOL0     C16932  10.070   0.665   9.352 -1.4005 -0.1226  0.5712
  867MOL0     C16933  10.115   0.682   9.494  0.0597  0.0296 -1.0191
  867MOL0     O16934  10.045   0.589   9.585 -0.1016 -0.6927  0.2428
  867MOL0     C16935   9.911   0.603   9.610  0.4557 -0.3748  0.7349
  867MOL0     C16936   9.822   0.698   9.570  0.7076 -0.0786  0.1954
  867MOL0     C16937   9.691   0.699   9.598  1.0024  0.2722  0.3273
  867MOL0     C16938   9.602   0.811   9.539 -0.4556  0.4683 -0.5358
  867MOL0     C16939   9.631   0.589   9.665 -0.4174 -0.1148  0.5437
  867MOL0     C16940   9.491   0.581   9.712 -0.3952  0.3214  0.4206
  867MOL0     O16941   9.406   0.697   9.715 -0.4035  0.2130  0.2804
  867MOL0     C16942   9.268   0.666   9.714 -0.3524  0.6183  0.0387
  867MOL0     C16943   9.195   0.667   9.592 -0.1738  0.0824  0.3137
  867MOL0     C16944   9.053   0.651   9.590 -0.3268  0.0834 -0.2232
  867MOL0     C16945   8.988   0.635   9.712  0.4306  0.0667 -0.0530
  867MOL0     O16946   8.851   0.598   9.725 -0.4963  0.2559 -0.1556
  867MOL0     C16947   8.757   0.639   9.628  0.2916  0.4182 -0.3845
  867MOL0     C16948   8.618   0.648   9.688 -0.0635  0.0797  0.6558
  867MOL0     C16949   8.520   0.612   9.575  0.1559  0.9841  0.5256
  867MOL0     C16950   8.374   0.620   9.618  0.7315  0.1308 -0.5197
  867MOL0     C16951   8.276   0.626   9.487 -0.8229 -0.4958  0.2098
  867MOL0     C16952   8.133   0.608   9.535 -0.4176  0.4325 -0.3609
  867MOL0     C16953   8.032   0.608   9.422  0.3672  0.1481 -0.1680
  867MOL0     C16954   7.898   0.580   9.499 -0.5770 -0.9565 -0.1817
  867MOL0    Cl16955   7.767   0.563   9.390 -0.3413  0.6394 -0.1617
  867MOL0     C16956   9.068   0.624   9.828 -0.1153 -0.1632  0.2230
  867MOL0     C16957   9.203   0.646   9.837 -0.5566  0.0822 -0.2021
  867MOL0     O16958   9.463   0.467   9.738  0.5941 -0.4543  0.1149
  867MOL0     C16959   9.722   0.495   9.711  0.0142  0.4940  0.1159
  867MOL0     C16960   9.859   0.500   9.680 -0.3013 -0.2544  0.1267
  867MOL0     N16961   9.852   1.000   9.314 -0.0181  0.5618 -0.1495
  867MOL0     N16962   9.748   1.013   9.240  0.4081 -0.1844 -0.1955
  867MOL0     C16963   8.628   0.657   9.114  0.1438 -0.3474  0.6925
  867MOL0     C16964   8.509   0.588   9.116 -0.1282  0.8715 -0.5621
  867MOL0     C16965   8.110   0.459   9.042  0.6514  0.2034  0.3449
  867MOL0     C16966   8.105   0.360   9.138  0.5280  0.1817 -0.0739
  867MOL0     C16967   7.978   0.328   9.179  0.2572  0.3125 -0.1749
  867MOL0     C16968   7.857   0.373   9.130 -0.1211 -0.1157  0.1626
  867MOL0     O16969   7.740   0.317   9.178 -1.0967 -0.1170 -0.1148
  867MOL0     C16970   7.606   0.367   9.139 -0.4346 -0.3146  0.4074
  867MOL0     C16971   7.504   0.356   9.256 -0.4873  0.6923 -0.3521
  867MOL0     C16972   7.446   0.216   9.280 -0.5680  0.0333 -1.1763
  867MOL0     C16973   7.359   0.164   9.167 -0.3832 -0.4168  0.0027
  867MOL0     C16974   7.245   0.252   9.124  0.0369 -1.1830  0.1560
  867MOL0     C16975   7.138   0.308   9.099  0.0543  0.7775 -0.2277
  867MOL0     C16976   7.869   0.477   9.037 -0.4870 -1.1065  0.0217
  867MOL0     C16977   7.995   0.522   8.991  0.0572  0.3728 -0.3618
  867MOL0     H16978   8.547   0.398   8.839  3.1141 -2.6650  1.7947
  867MOL0     H16979   8.731   0.530   8.816 -0.8805  0.6561 -0.5949
  867MOL0     H16980   8.838   0.857   9.124 -0.9447  1.1717 -1.8522
  867MOL0     H16981   8.915   0.688   9.151  5.4543  0.6538  1.4629
  867MOL0     H16982   9.090   0.747   8.984 -1.2935 -0.8130 -0.2540
  867MOL0     H16983   9.036   0.913   8.988  1.9729  0.3127  0.8940
  867MOL0     H16984   9.054   0.879   9.257  0.8196  1.2551 -0.3225
  867MOL0     H16985   9.142   0.738   9.222  0.8953  2.0491  3.3280
  867MOL0     H16986   9.198   1.024   9.164 -1.9904 -1.0904  0.4419
  867MOL0     H16987   9.284   0.910   9.267  0.3145 -2.0987 -0.2357
  867MOL0     H16988   9.360   0.783   9.073  2.7279  1.4080 -0.7517
  867MOL0     H16989   9.281   0.897   8.961 -1.8465  2.3222  0.8269
  867MOL0     H16990   9.427   1.072   9.036 -2.0100  0.7765  4.3448
  867MOL0     H16991   9.493   0.975   9.173 -0.3800  1.5437  0.4179
  867MOL0     H16992   9.577   0.809   9.009 -1.0693 -0.3887 -1.4625
  867MOL0     H16993   9.530   0.915   8.873  2.3643  1.3932 -0.3437
  867MOL0     H16994   9.685   1.091   8.984 -0.9637  0.0319 -2.7962
  867MOL0     H16995   9.767   0.965   8.898  1.2947 -1.4324  0.9656
  867MOL0     H16996   9.939   0.848   9.031 -1.5703 -0.3446 -0.5761
  867MOL0     H16997  10.148   0.969   9.189  1.2255 -1.0836  0.9079
  867MOL0     H16998  10.113   0.954   9.358 -1.9657  1.8965  0.5940
  867MOL0     H16999  10.253   0.774   9.289  0.2260 -0.9483 -1.3759
  867MOL0     H17000  10.140   0.718   9.157 -3.0520 -1.5134 -0.1122
  867MOL0     H17001  10.109   0.566   9.326  1.7029  1.0713  0.3198
  867MOL0     H17002   9.962   0.664   9.334 -1.3708 -1.0054  0.3774
  867MOL0     H17003  10.096   0.787   9.514  1.3101  0.5981 -2.6171
  867MOL0     H17004  10.222   0.661   9.507  0.2872  1.1955 -0.9002
  867MOL0     H17005   9.849   0.784   9.510  0.0003 -1.5509 -2.4061
  867MOL0     H17006   9.662   0.863   9.463 -0.6370  1.0791 -0.2638
  867MOL0     H17007   9.507   0.784   9.491 -1.2180  1.5194  0.3411
  867MOL0     H17008   9.584   0.883   9.619  2.2383  1.1937 -0.5108
  867MOL0     H17009   9.253   0.676   9.501 -0.4099  1.9393  0.3038
  867MOL0     H17010   8.993   0.639   9.500 -0.9978 -0.7921  0.3259
  867MOL0     H17011   8.787   0.729   9.572 -0.7726  0.3073 -1.1605
  867MOL0     H17012   8.750   0.561   9.552  2.3687 -0.4551  0.2450
  867MOL0     H17013   8.594   0.579   9.770 -0.3413 -0.1678  0.3708
  867MOL0     H17014   8.605   0.751   9.722  0.5111  0.3738 -0.0055
  867MOL0     H17015   8.537   0.519   9.520 -0.0148  2.3090 -1.9296
  867MOL0     H17016   8.530   0.683   9.492  1.1803 -0.6520 -0.8223
  867MOL0     H17017   8.341   0.535   9.679 -0.7127  0.3967 -0.8930
  867MOL0     H17018   8.364   0.713   9.676  1.3169  0.9280 -1.6661
  867MOL0     H17019   8.301   0.551   9.412 -1.6164 -1.9902  1.3871
  867MOL0     H17020   8.273   0.721   9.433  0.0515  0.4426  1.7391
  867MOL0     H17021   8.124   0.515   9.591  0.3066  0.9132  0.5757
  867MOL0     H17022   8.114   0.679   9.615 -0.1181  0.1309 -0.0174
  867MOL0     H17023   8.051   0.528   9.350 -2.1669 -0.8744  0.1817
  867MOL0     H17024   8.028   0.706   9.374 -0.9716 -0.0162 -0.4473
  867MOL0     H17025   7.881   0.661   9.569 -1.3980 -1.1027 -0.1959
  867MOL0     H17026   7.908   0.483   9.548  4.1952 -1.5639 -1.8258
  867MOL0     H17027   9.015   0.608   9.922  1.9899 -2.8055  1.0981
  867MOL0     H17028   9.267   0.654   9.924 -0.0280  2.3717 -0.7317
  867MOL0     H17029   9.687   0.417   9.778  1.7288 -0.8201 -0.4352
  867MOL0     H17030   9.924   0.419   9.711 -0.5876  0.0759  1.6734
  867MOL0     H17031   8.642   0.737   9.185  1.1652  1.1806 -1.1306
  867MOL0     H17032   8.451   0.627   9.199 -1.1944  0.0987 -0.9045
  867MOL0     H17033   8.191   0.314   9.185  0.8288  0.5381 -0.2661
  867MOL0     H17034   7.958   0.259   9.260  0.4800 -0.7357 -0.9907
  867MOL0     H17035   7.610   0.474   9.113 -2.1870  0.2064  2.0920
  867MOL0     H17036   7.580   0.309   9.050 -1.3749 -0.7699  0.9698
  867MOL0     H17037   7.429   0.433   9.235 -0.1204  0.8970 -0.9588
  867MOL0     H17038   7.559   0.379   9.347  1.3044 -0.6863 -1.0173
  867MOL0     H17039   7.396   0.218   9.377  2.7981 -0.5873  0.7183
  867MOL0     H17040   7.518   0.139   9.307 -0.3702  0.6377  0.0984
  867MOL0     H17041   7.315   0.071   9.204 -1.6336  0.8957  1.9872
  867MOL0     H17042   7.415   0.151   9.074 -1.0988  1.1024 -0.6711
  867MOL0     H17043   7.047   0.350   9.061 -0.8839 -0.8731  0.1250
  867MOL0     H17044   7.776   0.518   8.999  1.2535  0.8286 -2.4747
  867MOL0     H17045   8.000   0.608   8.924 -1.5890 -0.2534 -1.3428
  868MOL0     O17046   7.708   7.085   6.253 -0.0772  0.0915  0.3256
  868MOL0     C17047   7.683   7.197   6.296  0.6970 -0.1485  0.1806
  868MOL0     O17048   7.561   7.239   6.344 -0.0193  0.0293  0.4060
  868MOL0     C17049   7.446   7.163   6.335  0.3649  0.0600  0.3284
  868MOL0     C17050   7.415   7.061   6.245 -1.1402  0.1309 -0.0719
  868MOL0     C17051   7.296   6.991   6.256  1.3785 -0.0873  0.9683
  868MOL0     C17052   7.195   7.036   6.345  0.1817 -0.1835  0.3861
  868MOL0     O17053   7.078   6.969   6.376 -0.6382 -0.4501 -0.3690
  868MOL0     C17054   7.048   6.866   6.280 -0.7821  0.7193 -0.0922
  868MOL0     C17055   6.906   6.832   6.298  0.1417 -0.6923  0.6595
  868MOL0     C17056   6.813   6.933   6.231  0.9979  0.5626  0.4073
  868MOL0     C17057   6.665   6.888   6.259 -0.4813  1.1937  0.3419
  868MOL0     C17058   6.563   6.993   6.220  0.5070 -1.1450 -0.2415
  868MOL0     C17059   6.437   7.026   6.311 -0.9189  0.4984 -0.0159
  868MOL0     C17060   6.340   6.918   6.342  0.0616  0.0743  0.1618
  868MOL0     C17061   6.207   6.955   6.411 -1.0703  0.2652 -0.0984
  868MOL0     N17062   6.123   7.053   6.350 -0.9213 -0.0775  1.0550
  868MOL0     C17063   6.069   7.174   6.394  0.0952 -0.4740 -1.1780
  868MOL0     C17064   5.968   7.204   6.304  0.6755 -0.6575 -0.7312
  868MOL0     C17065   5.875   7.319   6.324  0.2172 -0.3886  0.1927
  868MOL0     C17066   5.743   7.263   6.378 -0.2720  0.9102  0.6972
  868MOL0     C17067   5.644   7.378   6.377 -0.0544 -0.0394  0.6791
  868MOL0     C17068   5.508   7.338   6.447 -0.9090 -0.0517  0.4018
  868MOL0     O17069   5.412   7.441   6.466 -0.7649  0.3021  0.1584
  868MOL0     C17070   5.275   7.425   6.443 -1.0207 -0.1925  0.7976
  868MOL0     C17071   5.205   7.305   6.435  0.8964 -0.7791 -0.8041
  868MOL0     C17072   5.062   7.314   6.423  0.4686  1.0652 -0.0964
  868MOL0     C17073   4.995   7.173   6.442 -0.0784  0.0695 -0.0742
  868MOL0     C17074   4.987   7.442   6.428  0.5340 -0.0950 -0.0139
  868MOL0     C17075   4.840   7.462   6.454  0.2337  1.1925  0.7209
  868MOL0     O17076   4.802   7.594   6.446 -0.7435 -0.3726  0.5005
  868MOL0     C17077   4.673   7.617   6.491 -1.4744 -0.0082 -0.1673
  868MOL0     C17078   4.658   7.710   6.596  0.1976  0.0105  0.1797
  868MOL0     C17079   4.528   7.748   6.628 -0.7700 -0.2847 -0.0208
  868MOL0     C17080   4.417   7.693   6.564  0.3759  0.1225 -0.6062
  868MOL0     O17081   4.291   7.717   6.608  0.1409  0.1094  0.3540
  868MOL0     C17082   4.275   7.821   6.702  0.0358 -0.1748 -0.4865
  868MOL0     C17083   4.121   7.851   6.696 -0.3301  1.0554  0.0043
  868MOL0     C17084   4.044   7.788   6.812 -1.1693  0.9783  0.1484
  868MOL0     C17085   3.904   7.840   6.839 -0.4600  0.6706  0.3837
  868MOL0     C17086   3.865   7.803   6.983  0.1676 -0.0779 -0.0151
  868MOL0     C17087   3.707   7.812   6.981  0.3729 -0.2932  0.0441
  868MOL0     C17088   3.661   7.828   7.133  0.3552  0.8044  0.2545
  868MOL0     C17089   3.513   7.870   7.127  0.4547 -0.1720  0.0817
  868MOL0    Cl17090   3.496   8.047   7.085 -0.0151 -0.1767 -0.4453
  868MOL0     C17091   4.434   7.600   6.464 -0.5246 -0.6293  1.3892
  868MOL0     C17092   4.561   7.566   6.432 -0.0635 -0.4528 -0.2192
  868MOL0     O17093   4.764   7.367   6.472 -0.4881 -0.1747 -0.2628
  868MOL0     C17094   5.068   7.553   6.429  0.2590  0.7972 -0.3410
  868MOL0     C17095   5.205   7.539   6.432 -0.1767  0.2893 -0.8411
  868MOL0     N17096   5.966   7.111   6.210 -0.7934  0.2629  0.2676
  868MOL0     N17097   6.056   7.024   6.233  0.0099  0.0605 -0.8772
  868MOL0     C17098   7.227   7.145   6.433  0.2940  0.0902 -0.1387
  868MOL0     C17099   7.346   7.214   6.425 -0.3345 -0.1846  0.2577
  868MOL0     C17100   7.798   7.297   6.313  0.0741  0.3623 -0.8537
  868MOL0     C17101   7.937   7.273   6.265  0.1887 -0.1597  0.1956
  868MOL0     C17102   8.041   7.359   6.281  0.0162 -0.2269  0.3330
  868MOL0     C17103   8.020   7.480   6.356  0.3297  0.3940 -0.5177
  868MOL0     O17104   8.115   7.574   6.396 -0.2131 -0.0490  0.0810
  868MOL0     C17105   8.232   7.585   6.314 -0.6808 -0.3851 -0.7376
  868MOL0     C17106   8.342   7.496   6.367 -0.3706  0.0054  0.6476
  868MOL0     C17107   8.389   7.522   6.509 -0.0391 -0.4111  0.8179
  868MOL0     C17108   8.461   7.663   6.502 -0.0611  0.4890  0.1578
  868MOL0     C17109   8.556   7.685   6.615  0.1300 -0.3763  0.4940
  868MOL0     C17110   8.646   7.713   6.688 -0.4924  0.3595  0.2935
  868MOL0     C17111   7.892   7.505   6.399  0.5928  0.5559 -0.5234
  868MOL0     C17112   7.784   7.420   6.382  1.2057  0.0515  1.0847
  868MOL0     H17113   7.485   7.036   6.166  0.3015 -0.4349  1.3310
  868MOL0     H17114   7.287   6.902   6.195 -0.8971  0.2109  0.8067
  868MOL0     H17115   7.067   6.885   6.174  2.4370  0.4265  0.3247
  868MOL0     H17116   7.096   6.774   6.316 -0.1962  0.9420 -0.2882
  868MOL0     H17117   6.892   6.738   6.243  1.4194 -0.1598 -0.6376
  868MOL0     H17118   6.884   6.814   6.404  0.8847 -2.3067  0.5738
  868MOL0     H17119   6.843   7.035   6.258  3.0370 -0.1353  0.9274
  868MOL0     H17120   6.820   6.943   6.122  1.1699  0.5995  0.4224
  868MOL0     H17121   6.637   6.797   6.206 -1.0504  1.4355  0.2257
  868MOL0     H17122   6.664   6.859   6.365  3.6154 -0.8196  0.0293
  868MOL0     H17123   6.611   7.090   6.205  0.0739 -0.9484 -0.3871
  868MOL0     H17124   6.527   6.964   6.121  2.0147 -0.0747 -1.1345
  868MOL0     H17125   6.463   7.083   6.401 -4.8258  2.3808  0.1375
  868MOL0     H17126   6.395   7.109   6.252  0.6219  1.0034 -0.4545
  868MOL0     H17127   6.317   6.872   6.246  2.0765 -1.0624  0.1634
  868MOL0     H17128   6.385   6.842   6.406 -4.6509 -2.3297  1.0263
  868MOL0     H17129   6.225   6.982   6.515 -0.5661 -1.4751  0.3072
  868MOL0     H17130   6.150   6.863   6.423 -0.7043 -0.0079 -0.3929
  868MOL0     H17131   6.081   7.227   6.488  0.4739  2.6921 -2.8838
  868MOL0     H17132   5.917   7.385   6.402 -0.3577  1.9873 -1.3938
  868MOL0     H17133   5.858   7.376   6.232  0.3206  0.8660  0.9245
  868MOL0     H17134   5.757   7.239   6.484 -0.5039  2.3036  1.0581
  868MOL0     H17135   5.709   7.177   6.319 -0.4616  0.2731  1.7064
  868MOL0     H17136   5.625   7.412   6.275  0.1154 -0.9771  0.3217
  868MOL0     H17137   5.692   7.463   6.425 -0.2133  0.4960 -0.1008
  868MOL0     H17138   5.524   7.312   6.552  1.1106  0.2015  0.1900
  868MOL0     H17139   5.466   7.248   6.402 -0.2595 -0.6933  1.0488
  868MOL0     H17140   5.262   7.213   6.432  0.1581 -1.3401  0.8348
  868MOL0     H17141   5.071   7.094   6.434  1.4026  1.5191 -0.8637
  868MOL0     H17142   4.966   7.164   6.547  0.7371  2.9449  0.4778
  868MOL0     H17143   4.902   7.151   6.388 -1.9411 -0.0239  2.9164
  868MOL0     H17144   4.742   7.761   6.642  0.2228  0.7945 -0.6920
  868MOL0     H17145   4.518   7.819   6.709  0.5899  0.4665 -0.4870
  868MOL0     H17146   4.320   7.785   6.795  0.4975  0.3865 -0.4897
  868MOL0     H17147   4.324   7.916   6.681 -1.3346  1.2136  2.1551
  868MOL0     H17148   4.090   7.955   6.683 -2.4704  0.1011 -4.0789
  868MOL0     H17149   4.083   7.794   6.611  0.1102  0.5885  0.1129
  868MOL0     H17150   4.110   7.801   6.898  0.7017 -0.4049 -1.0279
  868MOL0     H17151   4.032   7.680   6.796 -2.2355  1.1948 -0.6294
  868MOL0     H17152   3.895   7.949   6.831 -0.2784  0.8098  1.8005
  868MOL0     H17153   3.841   7.799   6.760  0.6470 -0.5653  0.1026
  868MOL0     H17154   3.905   7.881   7.049  1.1251  0.1324 -0.8312
  868MOL0     H17155   3.900   7.706   7.019  0.4423  0.3405  0.8760
  868MOL0     H17156   3.661   7.891   6.919 -0.3972 -0.1426  0.7912
  868MOL0     H17157   3.673   7.719   6.935 -0.6185 -0.2889  0.7280
  868MOL0     H17158   3.718   7.903   7.187 -1.6840  2.0704  0.7781
  868MOL0     H17159   3.668   7.732   7.185  2.2143  1.0781  0.5443
  868MOL0     H17160   3.467   7.854   7.225  1.8658 -3.2704  0.3748
  868MOL0     H17161   3.446   7.806   7.068  1.7043 -1.9677  0.5427
  868MOL0     H17162   4.348   7.564   6.409  1.2216 -0.8497 -1.3607
  868MOL0     H17163   4.574   7.498   6.349 -1.0241 -2.5298  1.2373
  868MOL0     H17164   5.035   7.656   6.426 -0.2551  0.6116 -2.3211
  868MOL0     H17165   5.267   7.626   6.452 -0.5616  1.0963 -2.8604
  868MOL0     H17166   7.149   7.159   6.507 -1.4819 -2.4501 -1.3543
  868MOL0     H17167   7.354   7.296   6.496 -1.1564 -0.1777  0.3463
  868MOL0     H17168   7.954   7.188   6.199 -1.0212  0.3715 -0.8494
  868MOL0     H17169   8.143   7.335   6.250  0.3489 -1.0373  1.9292
  868MOL0     H17170   8.208   7.567   6.209 -2.1930 -2.4015 -0.1035
  868MOL0     H17171   8.264   7.690   6.318  1.6796 -1.0644 -0.5352
  868MOL0     H17172   8.425   7.511   6.297 -1.6894 -0.4826 -1.0781
  868MOL0     H17173   8.322   7.389   6.360  1.4166 -0.2489 -2.9880
  868MOL0     H17174   8.464   7.444   6.524  1.9294  1.5952  2.0776
  868MOL0     H17175   8.314   7.527   6.588  1.8138  0.0901  2.6465
  868MOL0     H17176   8.386   7.742   6.511 -0.6477 -0.0678  0.2400
  868MOL0     H17177   8.513   7.668   6.406  1.7194 -0.5733  1.0045
  868MOL0     H17178   8.737   7.744   6.736  2.9993 -1.0447 -4.5677
  868MOL0     H17179   7.880   7.594   6.460  0.8079  1.7202 -2.1120
  868MOL0     H17180   7.683   7.437   6.420  0.2511  1.5504 -1.8405
  869MOL0     O17181   2.793   3.958   9.912  0.2057  0.3230  0.0636
  869MOL0     C17182   2.850   4.060   9.878 -0.5820  0.3323 -0.1596
  869MOL0     O17183   2.788   4.156   9.799 -0.4326 -0.0073  0.2671
  869MOL0     C17184   2.660   4.128   9.760  0.2993 -0.1800 -0.3447
  869MOL0     C17185   2.638   4.029   9.674 -0.5160  0.5485  0.2450
  869MOL0     C17186   2.510   4.010   9.613  0.1015  0.5338 -0.0825
  869MOL0     C17187   2.404   4.099   9.646  0.7128  0.3259  0.3776
  869MOL0     O17188   2.284   4.087   9.579 -0.4427  0.5740  0.4968
  869MOL0     C17189   2.176   4.162   9.626 -0.0669 -1.0314  0.0377
  869MOL0     C17190   2.059   4.132   9.533  0.2995 -1.0505 -0.5917
  869MOL0     C17191   1.931   4.216   9.558  0.8637  0.0290 -0.0476
  869MOL0     C17192   1.829   4.190   9.452  0.1935  0.3903 -0.4073
  869MOL0     C17193   1.697   4.250   9.487 -0.1441  0.5941  0.4931
  869MOL0     C17194   1.595   4.227   9.374  0.4081 -0.0817  0.5424
  869MOL0     C17195   1.466   4.170   9.429  0.1702  0.0746 -0.5696
  869MOL0     C17196   1.357   4.123   9.331  0.1050  0.3160 -0.2541
  869MOL0     N17197   1.320   4.232   9.239 -0.4555 -0.0917  0.2842
  869MOL0     C17198   1.386   4.270   9.124 -1.0074  0.7474 -0.0651
  869MOL0     C17199   1.298   4.337   9.057 -0.5794 -0.3824 -0.0577
  869MOL0     C17200   1.303   4.397   8.921  0.1043  0.8900 -0.1572
  869MOL0     C17201   1.257   4.296   8.813  0.1458 -0.2978  0.0012
  869MOL0     C17202   1.103   4.269   8.834 -0.0868  0.0222  0.1710
  869MOL0     C17203   1.024   4.404   8.805  0.3511 -0.4839 -0.6697
  869MOL0     O17204   0.897   4.380   8.760 -0.2565 -0.2641 -0.9001
  869MOL0     C17205   0.790   4.366   8.846 -0.0557  0.2038 -0.3495
  869MOL0     C17206   0.780   4.382   8.987 -0.1339  0.2084  0.3588
  869MOL0     C17207   0.661   4.388   9.062 -0.0074  0.1243 -0.3465
  869MOL0     C17208   0.672   4.416   9.215  0.0497 -0.3719 -0.3322
  869MOL0     C17209   0.542   4.362   8.988 -0.1322  1.5318 -0.2201
  869MOL0     C17210   0.408   4.348   9.057 -0.3228  0.7264  0.7171
  869MOL0     O17211   0.311   4.307   8.966 -0.1833 -0.3026 -0.1416
  869MOL0     C17212   0.202   4.232   9.005 -0.0511  0.1320 -0.8618
  869MOL0     C17213   0.083   4.260   8.929 -0.6783 -0.0395 -0.0387
  869MOL0     C17214  -0.041   4.206   8.977  0.3284 -1.0609 -0.1958
  869MOL0     C17215  -0.049   4.131   9.090  0.9290 -0.2000 -0.0704
  869MOL0     O17216  -0.184   4.093   9.117 -0.7830  0.1896  0.1097
  869MOL0     C17217  -0.206   4.027   9.243  0.0431 -0.7308  0.2859
  869MOL0     C17218  -0.357   4.019   9.263  0.7114 -0.0707  0.4627
  869MOL0     C17219  -0.437   4.145   9.308  0.4059 -0.0884 -0.3736
  869MOL0     C17220  -0.590   4.103   9.291  0.9020  0.3039  0.3995
  869MOL0     C17221  -0.686   4.218   9.329 -0.9738 -0.8816 -0.1507
  869MOL0     C17222  -0.837   4.189   9.315 -0.2426  0.2841 -0.4858
  869MOL0     C17223  -0.886   4.153   9.168 -0.0856  0.9725 -0.3371
  869MOL0     C17224  -0.838   4.255   9.062  0.0571 -0.1256 -0.2875
  869MOL0    Cl17225  -0.907   4.417   9.094 -0.3729  0.3650  0.2442
  869MOL0     C17226   0.067   4.095   9.159  0.1556  0.6850 -0.2210
  869MOL0     C17227   0.186   4.151   9.122  0.1242  0.0635 -0.1515
  869MOL0     O17228   0.398   4.352   9.182  0.0952 -0.3611 -0.5397
  869MOL0     C17229   0.549   4.332   8.851  0.7973 -0.0562  0.2816
  869MOL0     C17230   0.669   4.342   8.786 -0.0429  0.2946  0.8722
  869MOL0     N17231   1.186   4.361   9.134  0.0600  0.1653  0.0743
  869MOL0     N17232   1.201   4.290   9.239  0.1161 -0.7725 -0.1202
  869MOL0     C17233   2.427   4.195   9.747 -1.0119  0.2903 -1.1225
  869MOL0     C17234   2.556   4.205   9.813  0.7545 -0.4190  0.2346
  869MOL0     C17235   2.986   4.083   9.940  0.1911  0.1863 -0.4218
  869MOL0     C17236   3.040   4.207   9.927 -0.5738  0.2637 -0.3120
  869MOL0     C17237   3.161   4.243   9.992 -0.1189  0.9863 -0.7024
  869MOL0     C17238   3.235   4.147  10.054 -0.2434 -0.1371  0.4084
  869MOL0     O17239   3.357   4.183  10.109  0.6063  0.3773  0.3476
  869MOL0     C17240   3.466   4.084  10.103 -0.2666  0.2869  0.3122
  869MOL0     C17241   3.516   4.044   9.959 -0.0020  0.2746  0.6916
  869MOL0     C17242   3.504   4.154   9.854  0.1288  0.6531 -0.5941
  869MOL0     C17243   3.613   4.258   9.868 -0.4128 -0.3506  0.0989
  869MOL0     C17244   3.747   4.201   9.853  0.2900  0.0313  0.4114
  869MOL0     C17245   3.859   4.152   9.832  0.6946  0.2465 -0.3290
  869MOL0     C17246   3.184   4.020  10.057  0.5224  0.0050 -0.5395
  869MOL0     C17247   3.062   3.982  10.000 -0.4859  0.1617 -0.4229
  869MOL0     H17248   2.714   3.958   9.644 -2.8402 -2.0493  0.1049
  869MOL0     H17249   2.490   3.937   9.536  1.5155 -0.2050  0.2109
  869MOL0     H17250   2.157   4.128   9.729 -0.4757 -2.1511 -0.3865
  869MOL0     H17251   2.188   4.270   9.624  0.4749 -1.1086 -1.1638
  869MOL0     H17252   2.097   4.158   9.433 -0.5147 -0.7968 -0.8388
  869MOL0     H17253   2.036   4.025   9.527 -1.1657 -0.8518  1.0252
  869MOL0     H17254   1.889   4.189   9.655 -1.7378  5.0950  0.5522
  869MOL0     H17255   1.969   4.319   9.563  2.1715 -0.3361 -1.4015
  869MOL0     H17256   1.857   4.227   9.353  0.6583  0.8962 -0.0925
  869MOL0     H17257   1.809   4.083   9.452 -2.4566  0.8111  0.1017
  869MOL0     H17258   1.656   4.212   9.581 -3.7744  0.7595 -0.8558
  869MOL0     H17259   1.718   4.357   9.497 -1.0119  0.7449  0.7592
  869MOL0     H17260   1.590   4.317   9.313  0.3267 -0.2965  0.2234
  869MOL0     H17261   1.623   4.165   9.288 -0.2502  0.7781 -0.3178
  869MOL0     H17262   1.491   4.074   9.476  1.3753  0.8702  0.4972
  869MOL0     H17263   1.430   4.231   9.513  0.8567 -0.2612 -0.0150
  869MOL0     H17264   1.268   4.094   9.388  0.5090 -1.4971 -0.4835
  869MOL0     H17265   1.392   4.044   9.263  1.9610  0.8487  0.0422
  869MOL0     H17266   1.482   4.242   9.080 -0.1730 -2.2800  3.1974
  869MOL0     H17267   1.253   4.495   8.927  1.7676  1.7121  1.7618
  869MOL0     H17268   1.408   4.407   8.895  0.0475  0.4412 -0.5457
  869MOL0     H17269   1.317   4.208   8.836  0.9478  0.2865  0.2058
  869MOL0     H17270   1.290   4.323   8.713 -0.6868  1.6602  0.1975
  869MOL0     H17271   1.072   4.242   8.935 -0.6107 -1.0868 -0.2704
  869MOL0     H17272   1.071   4.187   8.770 -1.0797 -0.2956  1.0400
  869MOL0     H17273   1.076   4.467   8.732  2.0774  1.0866  1.7642
  869MOL0     H17274   1.027   4.454   8.902  1.7136 -2.2475  0.2627
  869MOL0     H17275   0.870   4.374   9.046  0.0456  0.5407  0.1344
  869MOL0     H17276   0.643   4.322   9.263  0.6766 -0.9225 -0.9865
  869MOL0     H17277   0.771   4.449   9.247  1.7739 -3.1683 -2.2748
  869MOL0     H17278   0.594   4.489   9.238 -0.6926 -1.5175  0.9023
  869MOL0     H17279   0.079   4.325   8.842 -0.4389  1.0531  0.7490
  869MOL0     H17280  -0.136   4.212   8.924  0.4248 -0.8751 -0.3452
  869MOL0     H17281  -0.157   3.929   9.234  3.1966  0.8191 -1.1879
  869MOL0     H17282  -0.166   4.091   9.322  0.0891  2.4224 -2.0824
  869MOL0     H17283  -0.400   3.982   9.170 -0.4025 -1.1060  1.3723
  869MOL0     H17284  -0.359   3.938   9.335 -0.6611 -1.5983 -1.2113
  869MOL0     H17285  -0.418   4.234   9.248  2.3389 -1.4410 -1.8903
  869MOL0     H17286  -0.413   4.173   9.411 -0.2293  0.6310 -0.4110
  869MOL0     H17287  -0.620   4.072   9.190  2.1188 -0.4099  0.2392
  869MOL0     H17288  -0.613   4.024   9.363 -2.2395 -0.4160 -1.1804
  869MOL0     H17289  -0.657   4.305   9.269  2.2429 -2.8313 -1.6484
  869MOL0     H17290  -0.666   4.244   9.434 -3.3902 -2.8668  0.8984
  869MOL0     H17291  -0.863   4.104   9.379 -3.1208  0.0432 -1.8301
  869MOL0     H17292  -0.887   4.274   9.362 -3.0103 -2.9412  3.0267
  869MOL0     H17293  -0.994   4.134   9.168  0.1087 -0.2183  0.0001
  869MOL0     H17294  -0.849   4.054   9.138 -0.3948  0.9017 -0.4874
  869MOL0     H17295  -0.872   4.213   8.968  0.3899  1.4553 -1.1479
  869MOL0     H17296  -0.729   4.259   9.069 -0.0569  0.6249  1.8880
  869MOL0     H17297   0.049   4.038   9.250 -0.7290  1.1774 -0.0699
  869MOL0     H17298   0.271   4.136   9.188 -0.2885 -2.3121 -0.0698
  869MOL0     H17299   0.461   4.320   8.788  1.5596 -1.1596 -0.6199
  869MOL0     H17300   0.680   4.317   8.681  1.4055  0.5637  0.9346
  869MOL0     H17301   2.345   4.257   9.782 -1.9399 -1.0058 -0.9452
  869MOL0     H17302   2.566   4.279   9.891 -1.5047 -2.0338  2.2075
  869MOL0     H17303   2.991   4.282   9.866  0.2773  0.3973 -0.8440
  869MOL0     H17304   3.192   4.347   9.986 -2.2013  1.6669 -0.7396
  869MOL0     H17305   3.550   4.127  10.159 -0.1291 -1.9051  1.8998
  869MOL0     H17306   3.445   3.988  10.151  1.2800 -0.7065 -0.9234
  869MOL0     H17307   3.465   3.956   9.918  1.5140  0.7352 -2.4806
  869MOL0     H17308   3.616   3.999   9.959 -0.3680 -0.5522  0.5919
  869MOL0     H17309   3.404   4.197   9.859 -0.9997 -1.5091 -2.6193
  869MOL0     H17310   3.509   4.124   9.749 -0.3867  0.3832 -0.5448
  869MOL0     H17311   3.608   4.314   9.962  0.4329 -0.6489  0.3346
  869MOL0     H17312   3.603   4.328   9.785 -1.0599 -1.1590 -0.5325
  869MOL0     H17313   3.948   4.115   9.785  0.3954 -0.9449  0.0156
  869MOL0     H17314   3.232   3.935  10.105 -1.6358  0.0111  1.8586
  869MOL0     H17315   3.035   3.879  10.022  1.2985 -0.0079  1.2774
  870MOL0     O17316   3.172   5.421   1.269  0.1210 -0.2373  0.7245
  870MOL0     C17317   3.245   5.496   1.204  0.1226 -0.2541  0.4049
  870MOL0     O17318   3.212   5.578   1.098 -0.3493  0.0003  0.1180
  870MOL0     C17319   3.075   5.606   1.084 -0.8204  0.8691  0.4833
  870MOL0     C17320   3.021   5.688   1.179  0.3359 -0.1693 -1.0995
  870MOL0     C17321   2.884   5.706   1.179  0.8104 -0.3252 -0.5206
  870MOL0     C17322   2.804   5.650   1.075 -0.4463 -0.7245 -0.1764
  870MOL0     O17323   2.669   5.687   1.079  0.0443 -0.2283  0.9114
  870MOL0     C17324   2.577   5.581   1.026 -0.4778 -0.4421 -0.3587
  870MOL0     C17325   2.440   5.596   1.067  0.3347 -0.0141  0.1874
  870MOL0     C17326   2.418   5.574   1.222 -0.1218  0.0196 -0.3175
  870MOL0     C17327   2.269   5.603   1.252  0.3289 -0.2266  0.0967
  870MOL0     C17328   2.238   5.580   1.398  0.1107  0.3099  0.2556
  870MOL0     C17329   2.091   5.609   1.399 -0.3667 -0.3266  0.7695
  870MOL0     C17330   2.050   5.620   1.546 -0.8126 -0.2496 -0.0732
  870MOL0     C17331   1.903   5.657   1.558  0.0046 -0.2389 -0.9194
  870MOL0     N17332   1.875   5.790   1.508  1.0728  0.4110 -0.4376
  870MOL0     C17333   1.933   5.916   1.536 -0.3432  1.0246  0.3211
  870MOL0     C17334   1.860   6.009   1.463 -0.1963 -0.5857 -0.1393
  870MOL0     C17335   1.883   6.159   1.454  0.3887 -0.8121 -0.7037
  870MOL0     C17336   1.881   6.221   1.307 -0.2507  0.4360  0.3111
  870MOL0     C17337   1.829   6.360   1.317 -0.3975 -0.3879 -0.2929
  870MOL0     C17338   1.845   6.446   1.192 -0.6642  0.0452 -0.1422
  870MOL0     O17339   1.781   6.402   1.068  0.0981 -0.3408  0.3618
  870MOL0     C17340   1.646   6.392   1.064 -1.0021  0.5586 -0.4292
  870MOL0     C17341   1.589   6.301   0.970  0.1988  0.0602 -0.1012
  870MOL0     C17342   1.451   6.286   0.959  0.3648  0.3230  0.0115
  870MOL0     C17343   1.395   6.197   0.847 -0.2191  0.2109  0.2061
  870MOL0     C17344   1.369   6.358   1.047  0.2160  0.0859  0.1915
  870MOL0     C17345   1.224   6.367   1.030 -0.2051  0.3254  0.0438
  870MOL0     O17346   1.156   6.477   1.075 -0.4148 -0.3939 -0.4001
  870MOL0     C17347   1.030   6.501   1.051  0.0732  0.9362  0.3520
  870MOL0     C17348   0.938   6.428   1.123 -0.2092  0.2189 -0.5380
  870MOL0     C17349   0.797   6.451   1.116  0.2749 -0.2389  0.2256
  870MOL0     C17350   0.751   6.552   1.027  0.2973  0.5548 -0.7723
  870MOL0     O17351   0.619   6.593   1.031 -0.4528  0.1411 -0.0152
  870MOL0     C17352   0.555   6.636   0.913 -1.3231  0.2969  0.0235
  870MOL0     C17353   0.404   6.642   0.938 -0.4291  0.2531  0.6126
  870MOL0     C17354   0.367   6.782   0.994 -0.3014 -0.0306  0.5270
  870MOL0     C17355   0.218   6.807   0.971  0.7100  0.2220 -0.0600
  870MOL0     C17356   0.192   6.868   0.827 -0.2836  0.6137 -0.0056
  870MOL0     C17357   0.046   6.846   0.795  0.0175 -0.3061 -0.2857
  870MOL0     C17358   0.015   6.875   0.651 -0.4395 -0.6377 -1.0386
  870MOL0     C17359  -0.126   6.897   0.612  0.2500  0.1737 -0.2336
  870MOL0    Cl17360  -0.182   7.042   0.691  0.0735 -0.1341 -0.4129
  870MOL0     C17361   0.846   6.641   0.975 -0.0308  0.0858 -0.9647
  870MOL0     C17362   0.981   6.615   0.987  0.0394 -0.0769  0.4256
  870MOL0     O17363   1.173   6.268   0.987 -0.2326 -0.8270  0.5209
  870MOL0     C17364   1.425   6.445   1.149  1.0741 -0.1955 -0.9258
  870MOL0     C17365   1.564   6.458   1.159  0.3589  0.7939  0.0507
  870MOL0     N17366   1.758   5.935   1.402  0.3910  0.2036 -0.1305
  870MOL0     N17367   1.767   5.813   1.434 -0.1403 -0.0585  0.3976
  870MOL0     C17368   2.860   5.564   0.981  0.9660 -0.0315 -0.8937
  870MOL0     C17369   3.000   5.535   0.987  0.1051  0.2544  0.6742
  870MOL0     C17370   3.389   5.506   1.245 -0.4333  0.4451  0.0659
  870MOL0     C17371   3.485   5.571   1.173  0.5047  0.9697 -0.1834
  870MOL0     C17372   3.616   5.566   1.208  0.4422 -0.6386  0.3117
  870MOL0     C17373   3.663   5.505   1.323 -0.3606  0.3111  0.3669
  870MOL0     O17374   3.800   5.510   1.341  0.1930 -0.3093 -0.3517
  870MOL0     C17375   3.851   5.445   1.460  0.3467  0.3559  0.2179
  870MOL0     C17376   4.000   5.435   1.444 -0.3256 -0.2305  0.4961
  870MOL0     C17377   4.085   5.404   1.575  0.8702 -0.5514  0.4863
  870MOL0     C17378   4.238   5.386   1.545 -0.2000  0.0331 -0.4453
  870MOL0     C17379   4.327   5.399   1.663  0.2519 -0.6738 -0.0532
  870MOL0     C17380   4.403   5.393   1.770 -0.5299  0.0885 -0.0776
  870MOL0     C17381   3.567   5.434   1.393  0.1679  0.5384 -0.1852
  870MOL0     C17382   3.430   5.429   1.358 -0.4200 -1.1784  0.2975
  870MOL0     H17383   3.072   5.739   1.260  0.6338 -0.0183 -1.3775
  870MOL0     H17384   2.835   5.759   1.260  0.7587 -1.4231  0.1878
  870MOL0     H17385   2.573   5.589   0.917 -1.0509 -1.0136 -0.3902
  870MOL0     H17386   2.618   5.482   1.049 -2.1175 -1.1757 -0.4408
  870MOL0     H17387   2.406   5.699   1.048 -0.3042 -0.6907 -2.7238
  870MOL0     H17388   2.378   5.525   1.012  1.1914 -2.7468  2.5150
  870MOL0     H17389   2.445   5.470   1.243 -1.1882 -0.7999 -2.7048
  870MOL0     H17390   2.480   5.637   1.287  1.3773 -1.0306 -0.6678
  870MOL0     H17391   2.226   5.700   1.223 -1.6698 -0.7803  1.0229
  870MOL0     H17392   2.214   5.525   1.198 -1.2747  1.1850 -0.4176
  870MOL0     H17393   2.270   5.479   1.427 -0.3933 -0.2797 -1.1566
  870MOL0     H17394   2.298   5.647   1.460  0.3160  0.1717  0.2036
  870MOL0     H17395   2.065   5.704   1.353  0.2420 -0.1796  0.7270
  870MOL0     H17396   2.032   5.538   1.339 -2.1165  0.9317  0.9367
  870MOL0     H17397   2.066   5.526   1.600  1.6466 -0.1406 -0.5120
  870MOL0     H17398   2.113   5.693   1.597  2.4772 -0.9748 -2.7113
  870MOL0     H17399   1.875   5.654   1.664  0.0667  1.2045 -0.8410
  870MOL0     H17400   1.837   5.582   1.514  1.3828 -1.0032 -1.7769
  870MOL0     H17401   2.017   5.938   1.601 -0.7284  0.5178  1.0004
  870MOL0     H17402   1.806   6.207   1.515  0.6017 -1.0120 -0.2710
  870MOL0     H17403   1.980   6.180   1.501 -0.5448 -0.9417  1.3530
  870MOL0     H17404   1.825   6.162   1.234 -1.5538  0.9328  0.8752
  870MOL0     H17405   1.989   6.226   1.290 -0.0248 -1.0034  1.1005
  870MOL0     H17406   1.889   6.409   1.394  1.3958 -0.1217 -1.8032
  870MOL0     H17407   1.722   6.352   1.340 -0.3803 -0.0754 -0.1009
  870MOL0     H17408   1.951   6.450   1.166 -0.9152  2.4335 -1.1166
  870MOL0     H17409   1.812   6.547   1.219 -0.7938 -0.4460  1.6390
  870MOL0     H17410   1.639   6.233   0.902 -0.9923  0.3795 -1.3312
  870MOL0     H17411   1.327   6.252   0.781  1.2646  1.2207 -0.5467
  870MOL0     H17412   1.477   6.156   0.787 -0.1509 -0.4590  0.7458
  870MOL0     H17413   1.333   6.113   0.879  1.3554 -0.2161  2.3992
  870MOL0     H17414   0.973   6.344   1.183  1.1185  2.2800  1.7565
  870MOL0     H17415   0.729   6.399   1.183 -0.2467  1.2500  0.8962
  870MOL0     H17416   0.596   6.733   0.883  1.3821 -1.1862 -1.4765
  870MOL0     H17417   0.582   6.562   0.838  1.4894  3.4180 -2.3321
  870MOL0     H17418   0.360   6.631   0.838  1.1450  1.3333 -0.2357
  870MOL0     H17419   0.363   6.559   0.996 -2.8256  0.6878 -0.3140
  870MOL0     H17420   0.426   6.865   0.955 -1.8541  1.1933  0.7300
  870MOL0     H17421   0.391   6.779   1.101 -0.6943  0.3496  0.6233
  870MOL0     H17422   0.165   6.712   0.980  1.0423 -0.1740 -1.9154
  870MOL0     H17423   0.175   6.879   1.042  1.3419  0.7070 -0.1590
  870MOL0     H17424   0.259   6.820   0.755 -0.8118 -0.9727  0.5267
  870MOL0     H17425   0.208   6.976   0.820  1.0615  0.5022  0.9911
  870MOL0     H17426   0.020   6.742   0.817 -2.0551  0.3389  0.5944
  870MOL0     H17427  -0.028   6.894   0.860 -1.1125 -1.3851 -0.7150
  870MOL0     H17428   0.058   6.799   0.585  0.5973 -2.8029  1.9061
  870MOL0     H17429   0.069   6.966   0.621  0.1936 -1.3140 -2.0491
  870MOL0     H17430  -0.190   6.811   0.633 -0.9864  0.5088 -2.3390
  870MOL0     H17431  -0.125   6.910   0.503 -1.0752  2.8140 -0.0101
  870MOL0     H17432   0.823   6.734   0.924  1.0882 -0.0772 -1.8266
  870MOL0     H17433   1.058   6.680   0.948 -0.2465  0.2411  0.3832
  870MOL0     H17434   1.378   6.504   1.228 -2.1211 -2.5429 -0.8839
  870MOL0     H17435   1.599   6.520   1.241  2.4734 -2.0437  1.4853
  870MOL0     H17436   2.791   5.508   0.918 -3.5726  0.7488  2.8534
  870MOL0     H17437   3.050   5.472   0.916  3.5209  1.6725  1.6137
  870MOL0     H17438   3.458   5.625   1.083 -2.0922 -0.4023 -0.3387
  870MOL0     H17439   3.688   5.613   1.141  1.1962  0.2012  1.6665
  870MOL0     H17440   3.823   5.491   1.555 -5.7350  0.6740 -1.2784
  870MOL0     H17441   3.820   5.340   1.467  4.3314 -0.8425  3.3566
  870MOL0     H17442   4.041   5.531   1.410 -0.2812 -0.7865 -1.1125
  870MOL0     H17443   4.021   5.362   1.365  0.1744 -0.2063  0.6048
  870MOL0     H17444   4.049   5.312   1.621  1.0067 -1.3576 -0.9586
  870MOL0     H17445   4.063   5.485   1.645 -3.2451 -0.6565 -0.4452
  870MOL0     H17446   4.265   5.457   1.466  0.2161 -0.6489 -0.9255
  870MOL0     H17447   4.250   5.281   1.518 -1.1916  0.1959 -1.5903
  870MOL0     H17448   4.444   5.379   1.868  0.0453 -2.3518 -0.5990
  870MOL0     H17449   3.594   5.365   1.473  0.6129  1.4745  0.5010
  870MOL0     H17450   3.370   5.346   1.396 -0.4164 -1.5749 -0.5407
  871MOL0     O17451   3.388   6.526   1.569  0.2679  0.3861 -0.8202
  871MOL0     C17452   3.470   6.488   1.489 -0.4027 -0.2607 -0.5476
  871MOL0     O17453   3.444   6.462   1.360  0.1381 -0.3163  0.0061
  871MOL0     C17454   3.314   6.450   1.320 -0.2866 -0.0152  0.1677
  871MOL0     C17455   3.200   6.412   1.395 -0.3147  0.5440  0.8912
  871MOL0     C17456   3.071   6.405   1.332  0.0313  0.1650  0.5028
  871MOL0     C17457   3.066   6.429   1.185 -0.1384 -0.6622 -0.7954
  871MOL0     O17458   2.949   6.419   1.113 -0.4034  0.0799  0.5347
  871MOL0     C17459   2.818   6.400   1.181  0.3392  0.0981  0.1614
  871MOL0     C17460   2.712   6.380   1.063 -0.4410  0.1222 -0.2469
  871MOL0     C17461   2.569   6.361   1.108 -0.1216  0.0408 -0.3082
  871MOL0     C17462   2.501   6.501   1.139  0.4001  0.6492  0.2845
  871MOL0     C17463   2.348   6.490   1.171  0.2070  0.2964  0.7185
  871MOL0     C17464   2.314   6.388   1.278  0.4080  0.2676 -0.9185
  871MOL0     C17465   2.399   6.407   1.406 -0.1955  0.1467 -0.5141
  871MOL0     C17466   2.352   6.526   1.501  0.2853 -0.4400 -0.4944
  871MOL0     N17467   2.226   6.509   1.568  0.4754  0.5829  0.5922
  871MOL0     C17468   2.209   6.417   1.659 -0.7765  0.3456 -0.1847
  871MOL0     C17469   2.084   6.438   1.701  0.1891 -0.2269 -0.2329
  871MOL0     C17470   1.996   6.349   1.802 -0.6792  0.2398  0.0390
  871MOL0     C17471   2.074   6.350   1.937  0.4130  0.3921  0.5959
  871MOL0     C17472   2.023   6.474   2.026 -0.6233 -0.2449  0.9280
  871MOL0     C17473   1.879   6.474   2.051  0.3332  0.1326  0.2531
  871MOL0     O17474   1.851   6.569   2.151  0.0463 -0.1162  0.1263
  871MOL0     C17475   1.727   6.604   2.183  0.0366  0.3582 -0.2280
  871MOL0     C17476   1.614   6.535   2.122 -0.3523 -0.1506 -0.0796
  871MOL0     C17477   1.485   6.561   2.161  0.4580  0.3178  0.8381
  871MOL0     C17478   1.373   6.487   2.097 -0.3170  0.6314  0.6477
  871MOL0     C17479   1.454   6.675   2.249 -0.1769  1.4637  0.6674
  871MOL0     C17480   1.319   6.712   2.305  0.0905  0.6544  0.7182
  871MOL0     O17481   1.217   6.626   2.277  0.0140  0.5708  0.0330
  871MOL0     C17482   1.090   6.652   2.322 -0.0552  0.2520 -0.3952
  871MOL0     C17483   0.982   6.634   2.235  0.2582  0.4810  0.4909
  871MOL0     C17484   0.849   6.629   2.278 -0.1055 -0.1950  0.3074
  871MOL0     C17485   0.809   6.671   2.408 -0.2217  0.8720  0.8148
  871MOL0     O17486   0.684   6.693   2.457  0.1052 -0.9020 -0.3695
  871MOL0     C17487   0.597   6.764   2.358 -0.7457 -0.8622 -0.3998
  871MOL0     C17488   0.501   6.836   2.433 -0.1220  0.7005 -0.6611
  871MOL0     C17489   0.390   6.891   2.342 -0.1419 -0.4935 -0.8554
  871MOL0     C17490   0.279   6.965   2.416  0.0032 -0.1191  0.5900
  871MOL0     C17491   0.181   7.022   2.317 -0.0977 -0.5235 -0.6907
  871MOL0     C17492   0.077   7.114   2.387  0.1126 -0.9726  0.2846
  871MOL0     C17493  -0.053   7.024   2.410  0.1760 -0.3549  0.2331
  871MOL0     C17494  -0.164   7.092   2.484 -0.2141 -0.4124 -0.3993
  871MOL0    Cl17495  -0.186   7.262   2.433 -0.0155  0.0351 -0.2169
  871MOL0     C17496   0.922   6.693   2.494  0.9228  0.6603  0.3536
  871MOL0     C17497   1.055   6.693   2.453  0.0643  0.2760  0.2458
  871MOL0     O17498   1.311   6.819   2.362  0.3171 -0.4139  0.6298
  871MOL0     C17499   1.568   6.746   2.296 -0.1101 -0.8938  0.6032
  871MOL0     C17500   1.703   6.707   2.271  0.1934  0.0654 -0.3772
  871MOL0     N17501   2.015   6.536   1.629  0.0016  0.4056  0.3797
  871MOL0     N17502   2.108   6.577   1.550 -0.0025  0.0415 -0.6591
  871MOL0     C17503   3.178   6.469   1.115 -0.5737  0.1395  1.1846
  871MOL0     C17504   3.297   6.475   1.179  0.8398 -0.2550  0.8162
  871MOL0     C17505   3.614   6.485   1.529  0.1008  0.5519  0.5332
  871MOL0     C17506   3.711   6.439   1.430  0.4900 -0.0133  0.0321
  871MOL0     C17507   3.848   6.479   1.448  0.8216  0.6012  0.3587
  871MOL0     C17508   3.884   6.525   1.567 -0.6026 -0.0304  0.4552
  871MOL0     O17509   4.017   6.548   1.592 -0.1802  0.5792  0.0153
  871MOL0     C17510   4.057   6.680   1.564 -0.3534  0.8017  0.3867
  871MOL0     C17511   4.205   6.689   1.561 -0.7820 -0.0163  0.2641
  871MOL0     C17512   4.280   6.711   1.693  0.4555 -0.2498 -0.2919
  871MOL0     C17513   4.430   6.683   1.676  0.2518  0.3447 -0.1917
  871MOL0     C17514   4.501   6.793   1.597 -0.3859  0.5517  0.7854
  871MOL0     C17515   4.555   6.883   1.532  0.3192  0.0962  0.2180
  871MOL0     C17516   3.791   6.556   1.670 -0.3614 -0.1405 -0.9186
  871MOL0     C17517   3.652   6.538   1.646 -0.1237  0.2577 -0.1423
  871MOL0     H17518   3.208   6.386   1.500  0.7910  0.3619  0.7723
  871MOL0     H17519   2.986   6.372   1.392 -0.1207  1.9603  1.3536
  871MOL0     H17520   2.811   6.306   1.236  1.3626 -0.7003 -1.0254
  871MOL0     H17521   2.798   6.484   1.249 -1.0408 -1.3699  1.6609
  871MOL0     H17522   2.710   6.453   0.981  0.5982 -1.5037 -1.7986
  871MOL0     H17523   2.739   6.289   1.009 -0.5217 -0.1256  0.1300
  871MOL0     H17524   2.530   6.305   1.022 -0.0982 -2.1259  1.0047
  871MOL0     H17525   2.572   6.296   1.196  0.1951 -2.5218 -2.0981
  871MOL0     H17526   2.543   6.556   1.223 -1.6265  2.8568 -0.0607
  871MOL0     H17527   2.512   6.554   1.044  1.9398  0.0359  0.0867
  871MOL0     H17528   2.311   6.586   1.207  0.1891  1.3182 -1.8195
  871MOL0     H17529   2.295   6.459   1.080  0.5466 -0.0310  0.6312
  871MOL0     H17530   2.209   6.391   1.308  0.8333 -2.2590  1.1302
  871MOL0     H17531   2.327   6.284   1.248  0.7654  0.0521 -0.0231
  871MOL0     H17532   2.384   6.315   1.463 -3.3490  0.4979 -0.6019
  871MOL0     H17533   2.508   6.416   1.393 -0.3523  0.9159 -1.4745
  871MOL0     H17534   2.350   6.613   1.435 -0.2271 -0.1087 -0.0551
  871MOL0     H17535   2.422   6.554   1.580 -0.8239  0.1342  0.3158
  871MOL0     H17536   2.281   6.342   1.688  0.1958  0.8204 -1.2847
  871MOL0     H17537   1.890   6.374   1.815 -1.0088 -1.0067 -0.1207
  871MOL0     H17538   1.992   6.247   1.761  2.2242 -1.0222  2.4546
  871MOL0     H17539   2.181   6.366   1.923  1.2897 -2.3710  3.0285
  871MOL0     H17540   2.069   6.249   1.977  0.4619 -1.1653 -2.9711
  871MOL0     H17541   2.059   6.563   1.975  0.9379  1.2325  4.2586
  871MOL0     H17542   2.079   6.459   2.119  2.6271 -1.9604 -1.1018
  871MOL0     H17543   1.859   6.373   2.090 -1.9496  0.2586 -0.4779
  871MOL0     H17544   1.827   6.499   1.959 -2.4547  0.8156  1.9057
  871MOL0     H17545   1.626   6.451   2.054  0.4105 -1.4020  1.5271
  871MOL0     H17546   1.309   6.558   2.043 -1.7031 -0.3485  0.9410
  871MOL0     H17547   1.416   6.417   2.024 -0.3926 -0.0872  1.2763
  871MOL0     H17548   1.326   6.417   2.166  1.5116 -0.2303  1.0844
  871MOL0     H17549   1.010   6.619   2.131 -0.2629 -1.5331  0.5888
  871MOL0     H17550   0.771   6.613   2.203  1.9555 -0.0845 -1.9947
  871MOL0     H17551   0.653   6.834   2.296 -1.6054 -1.5256 -1.9939
  871MOL0     H17552   0.552   6.688   2.294  0.2183 -0.7231 -1.2686
  871MOL0     H17553   0.446   6.769   2.500  0.5829  1.4044  0.6511
  871MOL0     H17554   0.550   6.912   2.494  1.0209  0.6171 -1.4395
  871MOL0     H17555   0.353   6.811   2.277 -2.2014 -0.1417 -0.1804
  871MOL0     H17556   0.426   6.967   2.271  1.8724  1.9004  2.4300
  871MOL0     H17557   0.231   6.893   2.483 -0.6511 -1.0232 -0.7956
  871MOL0     H17558   0.330   7.044   2.471 -0.0446 -0.9268  1.8378
  871MOL0     H17559   0.132   6.945   2.256  1.6429 -1.0775 -1.4530
  871MOL0     H17560   0.219   7.093   2.243  5.3651 -0.2559  1.8740
  871MOL0     H17561   0.107   7.160   2.481 -0.8442  1.3559 -0.4863
  871MOL0     H17562   0.062   7.202   2.324  3.9185 -0.2932  0.1152
  871MOL0     H17563  -0.036   6.927   2.458  0.9292  0.5511  1.8775
  871MOL0     H17564  -0.083   6.987   2.311  1.0645 -1.5286  0.3858
  871MOL0     H17565  -0.142   7.080   2.590 -0.1635 -3.3219 -0.6573
  871MOL0     H17566  -0.258   7.036   2.474  0.3091 -1.3413 -0.1582
  871MOL0     H17567   0.888   6.733   2.589 -2.2408 -1.7136  0.4215
  871MOL0     H17568   1.129   6.723   2.526 -0.1397 -0.3993  0.7450
  871MOL0     H17569   1.560   6.819   2.376  2.2810 -0.3223  0.4003
  871MOL0     H17570   1.782   6.762   2.320  0.3637  0.8092 -1.4586
  871MOL0     H17571   3.170   6.501   1.012 -1.0019  0.7914  1.4076
  871MOL0     H17572   3.384   6.505   1.120 -1.3238 -0.8636 -3.0374
  871MOL0     H17573   3.687   6.398   1.333 -1.2651  2.7649 -0.8489
  871MOL0     H17574   3.917   6.469   1.366  0.6830  0.2795  0.2789
  871MOL0     H17575   4.021   6.708   1.464  0.3677  0.3193 -0.0236
  871MOL0     H17576   4.019   6.754   1.633 -0.1306  1.3257 -0.0446
  871MOL0     H17577   4.225   6.778   1.502  1.0867 -0.7644 -0.3077
  871MOL0     H17578   4.255   6.608   1.507  2.1018  0.7174  1.6329
  871MOL0     H17579   4.234   6.647   1.768  0.3306  0.3840  0.1865
  871MOL0     H17580   4.252   6.815   1.717 -2.6299 -0.7690 -1.3309
  871MOL0     H17581   4.435   6.586   1.625 -0.4660 -0.3738  1.0646
  871MOL0     H17582   4.479   6.682   1.773  0.6973  0.7754 -0.4087
  871MOL0     H17583   4.610   6.965   1.489 -1.1850  0.7995 -0.4519
  871MOL0     H17584   3.818   6.598   1.767 -2.5063 -1.1855  0.2068
  871MOL0     H17585   3.590   6.575   1.727 -0.2267 -0.6424  0.2044
  872MOL0     O17586   6.971  10.603   3.905 -0.2064 -0.1883  0.9065
  872MOL0     C17587   7.004  10.537   3.801 -0.2001  0.2907  0.1696
  872MOL0     O17588   6.925  10.508   3.687 -0.5245 -0.3431 -0.2032
  872MOL0     C17589   6.804  10.563   3.661  0.0946 -0.0392 -0.5729
  872MOL0     C17590   6.719  10.629   3.751  0.1482  0.1782  0.0381
  872MOL0     C17591   6.590  10.670   3.708 -0.0660 -0.0932 -1.5437
  872MOL0     C17592   6.552  10.658   3.577  0.2820 -0.4357  0.0419
  872MOL0     O17593   6.441  10.701   3.517 -0.2755  0.1934  0.0391
  872MOL0     C17594   6.328  10.710   3.595  0.7179 -1.1221 -0.4002
  872MOL0     C17595   6.208  10.737   3.504  0.6565  0.6114  0.1371
  872MOL0     C17596   6.078  10.743   3.586  0.9329 -0.4147  0.7195
  872MOL0     C17597   5.959  10.698   3.503  0.0290  0.0039  0.3539
  872MOL0     C17598   5.820  10.718   3.563  0.5410  0.0711 -0.4263
  872MOL0     C17599   5.717  10.736   3.448  0.3185 -1.0486  0.5362
  872MOL0     C17600   5.568  10.728   3.500 -0.6478  0.1192 -0.1975
  872MOL0     C17601   5.530  10.577   3.505  0.0163 -1.0893 -0.3535
  872MOL0     N17602   5.387  10.558   3.538 -0.4628 -0.0444 -0.1573
  872MOL0     C17603   5.337  10.559   3.665 -0.2900 -0.6819 -0.2979
  872MOL0     C17604   5.224  10.498   3.659  0.0875 -1.0778 -0.0168
  872MOL0     C17605   5.138  10.440   3.773 -0.1143 -0.3163 -0.5386
  872MOL0     C17606   5.194  10.300   3.808  0.1241  0.5825  0.0437
  872MOL0     C17607   5.110  10.231   3.926  0.0364  0.3850 -0.0392
  872MOL0     C17608   4.965  10.210   3.902  0.2930 -0.2791  0.0971
  872MOL0     O17609   4.936  10.084   3.960 -0.1395  0.7828 -0.3853
  872MOL0     C17610   4.818  10.007   3.949  0.0283  0.2439 -0.4993
  872MOL0     C17611   4.821   9.877   3.998  1.0185  0.3261 -0.5982
  872MOL0     C17612   4.705   9.804   4.012 -0.2191  0.8222  0.3246
  872MOL0     C17613   4.718   9.661   4.063  0.1193  0.3435  0.5433
  872MOL0     C17614   4.577   9.875   3.992 -0.7147  0.6937 -0.0143
  872MOL0     C17615   4.437   9.813   4.023  0.2480  0.0212 -0.4196
  872MOL0     O17616   4.326   9.886   3.978 -0.3214  0.4653 -0.0926
  872MOL0     C17617   4.209   9.830   3.976  0.1330  0.6158  0.0076
  872MOL0     C17618   4.119   9.839   4.080  1.4159 -0.1455  0.2355
  872MOL0     C17619   3.989   9.793   4.062  0.2159 -0.4639  0.4378
  872MOL0     C17620   3.949   9.732   3.939 -0.1772  0.3283 -0.1609
  872MOL0     O17621   3.824   9.674   3.930  0.7474 -0.0300  0.0298
  872MOL0     C17622   3.782   9.627   3.802 -0.4375 -0.3305 -0.7917
  872MOL0     C17623   3.643   9.554   3.797  0.1150 -0.0032  0.2499
  872MOL0     C17624   3.532   9.656   3.831 -0.1237 -0.0631  0.0813
  872MOL0     C17625   3.389   9.602   3.840  0.1499  0.7889  0.6057
  872MOL0     C17626   3.346   9.521   3.714  0.9330 -0.0850  0.0950
  872MOL0     C17627   3.201   9.487   3.719  0.6606 -0.0459 -0.3106
  872MOL0     C17628   3.157   9.425   3.582 -0.3115 -0.3493  0.5783
  872MOL0     C17629   3.029   9.348   3.598  0.4337  0.2205 -0.4663
  872MOL0    Cl17630   2.883   9.450   3.590  0.0740  0.1116  0.1025
  872MOL0     C17631   4.036   9.734   3.838  0.7139  0.6624  0.1288
  872MOL0     C17632   4.163   9.770   3.854 -0.2217 -1.0052 -0.5821
  872MOL0     O17633   4.430   9.699   4.079 -0.5030 -0.1972 -0.1528
  872MOL0     C17634   4.585  10.002   3.924  0.1274  0.1378  0.1970
  872MOL0     C17635   4.699  10.067   3.898  0.3180  0.8973  0.1499
  872MOL0     N17636   5.200  10.473   3.525  0.4989  0.2930 -0.2038
  872MOL0     N17637   5.300  10.504   3.452  0.6672 -0.1174 -0.0110
  872MOL0     C17638   6.637  10.596   3.490 -0.9128  0.7050  0.1901
  872MOL0     C17639   6.758  10.542   3.530 -0.8783 -0.9061 -0.2925
  872MOL0     C17640   7.140  10.480   3.788  0.1919 -0.3587 -0.9947
  872MOL0     C17641   7.182  10.408   3.680 -0.5988 -1.0724 -0.1539
  872MOL0     C17642   7.309  10.361   3.683 -0.0433 -0.2705 -0.3541
  872MOL0     C17643   7.397  10.382   3.793 -0.4401  0.3103 -0.0342
  872MOL0     O17644   7.519  10.330   3.783  0.1576  0.1382 -0.2254
  872MOL0     C17645   7.548  10.238   3.892  0.0413  0.0232 -0.0726
  872MOL0     C17646   7.595  10.096   3.850  1.1299 -0.0470  0.2271
  872MOL0     C17647   7.717  10.108   3.747 -0.3091 -0.3074  0.2110
  872MOL0     C17648   7.753   9.975   3.685 -0.6872 -0.1174 -0.2907
  872MOL0     C17649   7.831   9.882   3.769 -0.0299 -0.6928  0.0831
  872MOL0     C17650   7.898   9.823   3.846 -1.0043  0.0958 -0.2743
  872MOL0     C17651   7.356  10.441   3.904  0.3762  0.5706  0.0323
  872MOL0     C17652   7.222  10.493   3.903 -0.9302  0.0765 -0.1679
  872MOL0     H17653   6.743  10.647   3.855 -3.2192  0.5861  0.8857
  872MOL0     H17654   6.524  10.726   3.775  0.1810 -0.1788 -1.2262
  872MOL0     H17655   6.314  10.622   3.658  1.9309 -1.0680 -0.0295
  872MOL0     H17656   6.328  10.805   3.651 -0.9488 -0.4571 -1.4598
  872MOL0     H17657   6.221  10.827   3.443 -0.1258  0.0873 -0.8267
  872MOL0     H17658   6.208  10.653   3.435  0.6439 -0.3555  1.2788
  872MOL0     H17659   6.088  10.681   3.675  2.1538 -1.2149  0.0637
  872MOL0     H17660   6.061  10.846   3.620  2.9809 -0.0660  0.8131
  872MOL0     H17661   5.964  10.750   3.407  0.4962 -2.4718 -1.0278
  872MOL0     H17662   5.964  10.594   3.470 -0.3989 -0.1178  0.6545
  872MOL0     H17663   5.798  10.630   3.624 -1.8501  1.1451  0.3862
  872MOL0     H17664   5.805  10.801   3.633  0.5473  1.4461 -1.9907
  872MOL0     H17665   5.738  10.831   3.399  2.1916 -1.2440  0.8861
  872MOL0     H17666   5.723  10.654   3.375 -1.9264  1.3124 -2.5309
  872MOL0     H17667   5.558  10.769   3.601 -1.5418  1.3450 -0.7502
  872MOL0     H17668   5.496  10.766   3.427 -4.7999 -3.6000  1.5038
  872MOL0     H17669   5.604  10.525   3.566  1.5415  1.6194  0.2973
  872MOL0     H17670   5.537  10.535   3.404 -2.8282 -2.6315  0.0059
  872MOL0     H17671   5.381  10.601   3.755  1.1028 -0.0981 -1.2003
  872MOL0     H17672   5.137  10.500   3.864 -2.1447 -0.6500 -0.2940
  872MOL0     H17673   5.034  10.436   3.739 -0.4764 -1.4342  0.6505
  872MOL0     H17674   5.293  10.306   3.854  0.8526 -0.0984 -1.3758
  872MOL0     H17675   5.202  10.235   3.720  1.2452  1.6708 -0.6894
  872MOL0     H17676   5.126  10.309   4.001  0.2542 -0.7544  1.1405
  872MOL0     H17677   5.145  10.133   3.960 -0.0422 -0.3446 -1.9152
  872MOL0     H17678   4.935  10.219   3.797  0.1108  0.0960  0.1779
  872MOL0     H17679   4.905  10.286   3.952 -0.6787 -2.0102  1.7007
  872MOL0     H17680   4.915   9.831   4.026  0.7137 -0.4665 -0.8464
  872MOL0     H17681   4.822   9.627   4.057 -0.5837 -1.8577 -0.0540
  872MOL0     H17682   4.672   9.655   4.162  0.5480  2.2636  0.9040
  872MOL0     H17683   4.660   9.600   3.993 -0.7528 -0.1348  1.6653
  872MOL0     H17684   4.156   9.878   4.174  3.3475 -4.5484  1.5633
  872MOL0     H17685   3.917   9.788   4.143 -0.5085 -0.6064 -0.2074
  872MOL0     H17686   3.782   9.709   3.729  3.2846 -0.5533 -1.2362
  872MOL0     H17687   3.849   9.544   3.780 -3.9171 -3.9685  1.1411
  872MOL0     H17688   3.636   9.526   3.692  1.3311  0.8993 -0.0998
  872MOL0     H17689   3.635   9.468   3.864  1.0032 -0.2070  0.1141
  872MOL0     H17690   3.528   9.726   3.747 -3.1739  0.0371  0.2091
  872MOL0     H17691   3.564   9.707   3.922 -0.1236 -0.6544  0.4124
  872MOL0     H17692   3.395   9.544   3.933  2.8169  0.7482  0.4686
  872MOL0     H17693   3.329   9.692   3.853  0.9947  1.8461 -2.0897
  872MOL0     H17694   3.409   9.431   3.717  0.7407 -0.2955 -1.3910
  872MOL0     H17695   3.363   9.574   3.619 -4.1878  2.9034  0.4920
  872MOL0     H17696   3.183   9.422   3.805  0.1892  1.8028  1.0413
  872MOL0     H17697   3.139   9.574   3.740 -1.2145 -0.2288 -4.2912
  872MOL0     H17698   3.241   9.358   3.560  2.5453  2.5668  1.7740
  872MOL0     H17699   3.143   9.493   3.497  0.7788 -0.8715 -0.0364
  872MOL0     H17700   3.024   9.282   3.686 -1.2123  0.3099 -0.4695
  872MOL0     H17701   3.031   9.286   3.508  1.5510  1.5774 -1.4112
  872MOL0     H17702   4.007   9.685   3.745  0.7497  1.2643 -0.2017
  872MOL0     H17703   4.242   9.761   3.780  0.4886 -0.2036  0.0588
  872MOL0     H17704   4.499  10.058   3.891  1.3568  0.3307 -3.0084
  872MOL0     H17705   4.698  10.164   3.848 -2.6790  2.0360  2.0989
  872MOL0     H17706   6.595  10.569   3.394 -1.8555 -1.0610  1.0407
  872MOL0     H17707   6.825  10.494   3.460  0.5132 -0.1853  0.4917
  872MOL0     H17708   7.113  10.396   3.596 -1.7507 -1.6315  0.8405
  872MOL0     H17709   7.341  10.298   3.601 -2.2940 -1.1258 -0.6307
  872MOL0     H17710   7.615  10.289   3.961 -0.2128  1.6845 -1.0178
  872MOL0     H17711   7.460  10.214   3.952  1.0490 -1.4029  0.8936
  872MOL0     H17712   7.510  10.042   3.807  1.8318 -1.7114  0.8642
  872MOL0     H17713   7.622  10.030   3.933 -2.5367 -3.8060 -1.2279
  872MOL0     H17714   7.797  10.160   3.800  0.5429  1.4669 -2.5855
  872MOL0     H17715   7.692  10.179   3.668  2.2427 -0.7115 -1.0463
  872MOL0     H17716   7.812  10.012   3.601  0.8559  1.1012  1.2657
  872MOL0     H17717   7.664   9.929   3.641 -0.0693  0.3984 -2.1593
  872MOL0     H17718   7.974   9.761   3.890 -0.1827  0.8769 -0.5655
  872MOL0     H17719   7.430  10.443   3.983  2.1989 -3.6446 -1.2544
  872MOL0     H17720   7.181  10.546   3.988  0.6949 -2.8441  2.6927
  873MOL0     O17721   5.926  11.061   4.176  0.3057  0.5588  0.2664
  873MOL0     C17722   5.975  11.137   4.099 -0.9420 -0.0830  0.5314
  873MOL0     O17723   5.948  11.146   3.966 -0.1823 -0.4521 -0.0804
  873MOL0     C17724   5.832  11.089   3.914  0.4272  0.4334 -0.0677
  873MOL0     C17725   5.707  11.070   3.983 -0.1249  0.2732 -0.2632
  873MOL0     C17726   5.588  11.045   3.915  0.1488  0.3316  0.0493
  873MOL0     C17727   5.587  11.018   3.778 -0.0485 -0.1519 -0.2978
  873MOL0     O17728   5.475  11.004   3.700 -0.3039  0.1515 -0.0977
  873MOL0     C17729   5.345  11.017   3.758 -0.2312 -0.4654  0.6630
  873MOL0     C17730   5.244  11.032   3.643  1.1746 -0.4167 -0.6405
  873MOL0     C17731   5.215  10.908   3.572  0.6745  0.2126  0.4788
  873MOL0     C17732   5.094  10.915   3.490  0.6616 -0.2819  0.2043
  873MOL0     C17733   5.050  10.779   3.440  0.1822  1.0207 -0.6456
  873MOL0     C17734   4.900  10.774   3.384 -0.9761 -0.2083  0.1518
  873MOL0     C17735   4.842  10.635   3.385  0.5608  0.0679 -0.1798
  873MOL0     C17736   4.802  10.583   3.529  0.0147 -0.3739  0.7174
  873MOL0     N17737   4.771  10.441   3.513 -0.1473 -0.5235 -0.5523
  873MOL0     C17738   4.678  10.393   3.418 -0.5356 -0.1020  1.1510
  873MOL0     C17739   4.639  10.271   3.459  0.1486  0.3748 -0.4442
  873MOL0     C17740   4.536  10.186   3.388  0.0879  0.0066 -0.2106
  873MOL0     C17741   4.411  10.170   3.476  0.0002 -0.0949  0.9046
  873MOL0     C17742   4.296  10.117   3.402  0.1356  0.7042  0.4030
  873MOL0     C17743   4.184  10.072   3.499  0.0906 -0.7123 -0.1304
  873MOL0     O17744   4.063  10.026   3.433 -0.6578 -0.3823 -0.6301
  873MOL0     C17745   3.943  10.043   3.490  0.3512  0.0901  0.3014
  873MOL0     C17746   3.913  10.068   3.621  0.4458 -0.3001 -0.4347
  873MOL0     C17747   3.783  10.067   3.675  0.4876  0.5480 -0.7070
  873MOL0     C17748   3.766  10.096   3.824 -0.5731 -0.0029 -0.3721
  873MOL0     C17749   3.673  10.051   3.586  0.1126 -0.6279  0.3180
  873MOL0     C17750   3.531  10.056   3.621  0.3616  1.1839  0.8760
  873MOL0     O17751   3.443   9.985   3.541 -0.4182 -0.0819 -0.6762
  873MOL0     C17752   3.311   9.982   3.582  0.7395 -0.1248  0.0987
  873MOL0     C17753   3.239  10.099   3.598  0.1558 -0.2269  0.5159
  873MOL0     C17754   3.098  10.097   3.624 -0.2917 -0.6483  0.5394
  873MOL0     C17755   3.028   9.972   3.628 -0.6212  0.1014 -0.0330
  873MOL0     O17756   2.889   9.980   3.652 -0.2923  0.5217  0.0905
  873MOL0     C17757   2.820   9.940   3.530  0.5799  0.3524 -0.0200
  873MOL0     C17758   2.674   9.908   3.575  0.2021  0.2132 -0.6825
  873MOL0     C17759   2.589   9.872   3.457  1.2654 -0.3367 -0.6491
  873MOL0     C17760   2.601   9.728   3.416  0.0089 -0.7537 -0.2630
  873MOL0     C17761   2.497   9.678   3.320 -0.0281 -0.2333 -0.2136
  873MOL0     C17762   2.344   9.684   3.360  0.1021 -0.7337 -0.1302
  873MOL0     C17763   2.303   9.634   3.498  0.3387  0.2420  0.4026
  873MOL0     C17764   2.294   9.477   3.501 -0.8308 -0.7265  0.8350
  873MOL0    Cl17765   2.203   9.431   3.641 -0.1899 -0.1158  0.1807
  873MOL0     C17766   3.104   9.854   3.622  0.5019 -0.1798 -0.1055
  873MOL0     C17767   3.242   9.864   3.588  0.4002  0.6547 -0.0261
  873MOL0     O17768   3.496  10.126   3.715  0.1397  0.0059  0.3337
  873MOL0     C17769   3.707  10.022   3.450 -0.4636 -0.2039  0.3951
  873MOL0     C17770   3.837  10.023   3.404  0.6741 -0.5729  0.5654
  873MOL0     N17771   4.719  10.236   3.565  0.9045 -0.8336 -0.1341
  873MOL0     N17772   4.781  10.343   3.604  0.2591 -0.4824 -0.2085
  873MOL0     C17773   5.707  11.028   3.711  0.3516  0.2960  0.4788
  873MOL0     C17774   5.818  11.070   3.779 -0.0980  0.6158 -0.3252
  873MOL0     C17775   6.074  11.231   4.149 -0.6180 -0.0042  0.2327
  873MOL0     C17776   6.115  11.332   4.063  0.4031 -0.1221 -1.2153
  873MOL0     C17777   6.225  11.416   4.100 -0.2744  0.1417  1.1097
  873MOL0     C17778   6.299  11.397   4.221 -0.3700  0.6691 -0.5622
  873MOL0     O17779   6.419  11.459   4.255  0.7569  0.2207  0.2703
  873MOL0     C17780   6.471  11.548   4.163  0.0331 -0.2545  0.3374
  873MOL0     C17781   6.618  11.572   4.189 -0.2784 -0.5740  0.3668
  873MOL0     C17782   6.653  11.576   4.340  0.0473  0.2364  0.2510
  873MOL0     C17783   6.797  11.620   4.372 -0.0578  0.0974  0.5343
  873MOL0     C17784   6.883  11.511   4.338 -1.2387  0.1776 -0.4138
  873MOL0     C17785   6.957  11.416   4.326 -0.1022  0.0998 -0.4935
  873MOL0     C17786   6.254  11.293   4.316 -0.5604  0.1095  0.6003
  873MOL0     C17787   6.146  11.209   4.269 -0.0071 -0.2216  0.0211
  873MOL0     H17788   5.692  11.097   4.087  0.2179 -2.2569  0.4903
  873MOL0     H17789   5.488  11.061   3.954 -0.7302  2.3321 -2.7031
  873MOL0     H17790   5.327  10.922   3.809 -2.0145  0.6537  2.2730
  873MOL0     H17791   5.340  11.104   3.824  1.9259 -0.4106  0.8191
  873MOL0     H17792   5.151  11.075   3.683  1.9424  0.3964  0.3362
  873MOL0     H17793   5.285  11.105   3.572 -0.7080 -0.1290 -1.4830
  873MOL0     H17794   5.294  10.878   3.502  1.1926  0.3416  0.9980
  873MOL0     H17795   5.206  10.823   3.641  0.2636 -1.7124 -1.8183
  873MOL0     H17796   5.014  10.953   3.554 -0.3310 -1.5370 -0.2269
  873MOL0     H17797   5.104  10.979   3.402  0.7632  0.8734  1.0422
  873MOL0     H17798   5.118  10.740   3.363 -2.0742 -2.2211 -1.1612
  873MOL0     H17799   5.061  10.709   3.523  2.1338 -0.7938 -2.3038
  873MOL0     H17800   4.830  10.838   3.440  1.0070  1.5753  0.7229
  873MOL0     H17801   4.910  10.805   3.280 -0.3178 -0.6661  0.0721
  873MOL0     H17802   4.749  10.649   3.330  0.9959 -1.1900 -1.2899
  873MOL0     H17803   4.906  10.562   3.333 -0.7965 -1.2926  0.0113
  873MOL0     H17804   4.712  10.629   3.571  1.2251  2.1954  0.7207
  873MOL0     H17805   4.894  10.595   3.587  1.9362  0.9878 -2.3704
  873MOL0     H17806   4.643  10.449   3.333 -1.3215 -1.6449  0.4148
  873MOL0     H17807   4.526  10.212   3.282  2.2216  3.2159  0.2416
  873MOL0     H17808   4.584  10.088   3.379 -0.6282 -0.3445 -0.2080
  873MOL0     H17809   4.389  10.275   3.494 -2.6694  0.1203 -2.5666
  873MOL0     H17810   4.434  10.114   3.567 -2.4091 -0.5684  1.2958
  873MOL0     H17811   4.334  10.043   3.330 -1.0046  0.6328 -0.1487
  873MOL0     H17812   4.259  10.198   3.339  0.7463 -1.4327 -2.9992
  873MOL0     H17813   4.168  10.160   3.561  1.1260 -0.2584 -0.5008
  873MOL0     H17814   4.204   9.989   3.568 -1.1484 -1.8752 -1.0907
  873MOL0     H17815   4.003  10.088   3.678  1.0005 -0.3984 -1.2607
  873MOL0     H17816   3.852  10.061   3.882  0.9188  1.1074 -1.8137
  873MOL0     H17817   3.754  10.202   3.849  2.0595 -0.2646  2.8009
  873MOL0     H17818   3.676  10.046   3.862  0.9973 -1.8187  1.1688
  873MOL0     H17819   3.285  10.197   3.609  1.3312 -0.7979  0.8768
  873MOL0     H17820   3.070  10.202   3.629  1.6261  0.0390 -1.3752
  873MOL0     H17821   2.823  10.018   3.454  0.4107  0.0629 -0.3260
  873MOL0     H17822   2.870   9.852   3.488  0.5975  1.0752 -1.5919
  873MOL0     H17823   2.673   9.829   3.650 -0.8331 -0.0537 -0.9595
  873MOL0     H17824   2.619   9.994   3.614 -1.2862  0.5031 -3.1888
  873MOL0     H17825   2.599   9.942   3.373  1.7473 -0.8036 -0.9900
  873MOL0     H17826   2.483   9.877   3.481  1.0333 -2.6828 -1.0151
  873MOL0     H17827   2.694   9.705   3.362 -0.4541  0.5612 -1.6717
  873MOL0     H17828   2.611   9.660   3.501 -0.3865 -1.5913 -0.8714
  873MOL0     H17829   2.520   9.573   3.301 -2.4365 -1.8492  4.4087
  873MOL0     H17830   2.514   9.743   3.233 -2.5075  1.1601  0.2443
  873MOL0     H17831   2.318   9.790   3.365 -0.1225 -0.6798 -1.8903
  873MOL0     H17832   2.289   9.658   3.269 -1.0088  0.0804  0.2849
  873MOL0     H17833   2.204   9.668   3.530  0.6344  1.8438 -0.3100
  873MOL0     H17834   2.376   9.671   3.570 -0.0926  2.1886 -0.1130
  873MOL0     H17835   2.398   9.441   3.499 -0.9850 -1.1616 -0.0004
  873MOL0     H17836   2.241   9.433   3.416 -1.6448 -1.9189  1.9375
  873MOL0     H17837   3.051   9.761   3.638 -1.3347  1.1968  2.4450
  873MOL0     H17838   3.295   9.770   3.581 -0.1242 -0.1735  4.2793
  873MOL0     H17839   3.630  10.000   3.376  1.1145 -0.9586 -1.0910
  873MOL0     H17840   3.867   9.992   3.304 -2.2193 -0.8150 -0.3234
  873MOL0     H17841   5.715  11.025   3.603 -0.5668  0.2158  0.4011
  873MOL0     H17842   5.905  11.101   3.721  1.3006  0.4281  1.5644
  873MOL0     H17843   6.062  11.345   3.970 -0.1947 -0.2014 -0.8894
  873MOL0     H17844   6.232  11.495   4.026 -0.2535 -0.4613  0.4451
  873MOL0     H17845   6.468  11.506   4.062  2.2767  1.6464 -0.6130
  873MOL0     H17846   6.411  11.639   4.164 -1.9301 -1.4650 -1.0663
  873MOL0     H17847   6.647  11.672   4.154 -1.1620  0.1306  1.5355
  873MOL0     H17848   6.676  11.490   4.146  1.1392  0.3627  0.4337
  873MOL0     H17849   6.633  11.482   4.391  2.1927  0.0242  0.8211
  873MOL0     H17850   6.585  11.649   4.385  1.7961  2.9992 -1.2871
  873MOL0     H17851   6.808  11.640   4.479 -0.8636  0.8460  0.4879
  873MOL0     H17852   6.830  11.704   4.310 -2.7464 -0.0916 -1.3133
  873MOL0     H17853   7.024  11.333   4.333 -1.5466 -1.0183  1.3088
  873MOL0     H17854   6.305  11.275   4.410 -2.3661 -1.2541  1.3986
  873MOL0     H17855   6.117  11.130   4.338 -2.2049  1.9671  1.8026
  874MOL0     O17856   3.739  10.941   2.399  0.3138  0.8375 -0.4253
  874MOL0     C17857   3.733  11.062   2.415 -0.2468  0.3039  0.1309
  874MOL0     O17858   3.643  11.129   2.490  0.0770 -0.2313  0.2091
  874MOL0     C17859   3.522  11.071   2.527  1.0072  0.1232  0.0024
  874MOL0     C17860   3.470  11.079   2.656 -0.1647 -0.0131 -0.2549
  874MOL0     C17861   3.355  11.005   2.691 -0.0023 -0.3694 -0.0207
  874MOL0     C17862   3.278  10.954   2.584 -0.7235  0.3162  0.2955
  874MOL0     O17863   3.152  10.892   2.596  0.4855 -0.4052 -0.2749
  874MOL0     C17864   3.092  10.897   2.729  0.2767  0.2257  0.1743
  874MOL0     C17865   2.976  10.802   2.733  0.8606 -0.8101 -0.6627
  874MOL0     C17866   2.888  10.824   2.612  0.4227 -0.6655  0.4167
  874MOL0     C17867   2.748  10.772   2.641 -0.6390 -0.5537 -0.2239
  874MOL0     C17868   2.662  10.773   2.513  0.5456  0.7262  0.5853
  874MOL0     C17869   2.526  10.706   2.532 -0.1135  1.4074 -0.4015
  874MOL0     C17870   2.430  10.780   2.617  0.7303  0.1489  0.4405
  874MOL0     C17871   2.313  10.690   2.665  0.2244  0.7139 -0.6771
  874MOL0     N17872   2.249  10.619   2.560  0.0727  0.0196 -0.2085
  874MOL0     C17873   2.182  10.674   2.450 -0.0819 -0.7742  0.3411
  874MOL0     C17874   2.138  10.565   2.380 -0.6480 -0.0508  0.1204
  874MOL0     C17875   2.060  10.564   2.250 -0.0965  0.7098  0.9198
  874MOL0     C17876   1.912  10.599   2.275 -0.1210  0.2733 -0.3287
  874MOL0     C17877   1.844  10.542   2.399 -0.9530 -0.1715 -0.7897
  874MOL0     C17878   1.832  10.390   2.379 -0.1722  0.5573 -0.0060
  874MOL0     O17879   1.742  10.327   2.471 -0.5067  0.1560  0.1569
  874MOL0     C17880   1.608  10.338   2.458  0.2812 -0.4231 -0.8252
  874MOL0     C17881   1.534  10.274   2.558  0.5957 -0.2961 -1.0160
  874MOL0     C17882   1.399  10.293   2.574  0.5771  0.9021 -0.0880
  874MOL0     C17883   1.339  10.242   2.702  0.7275 -0.7841  0.3126
  874MOL0     C17884   1.328  10.376   2.478 -0.2546  0.0726  0.5149
  874MOL0     C17885   1.179  10.409   2.481  0.2553  0.3616 -0.1148
  874MOL0     O17886   1.127  10.500   2.400 -0.5342  0.6005  0.4559
  874MOL0     C17887   0.989  10.509   2.381 -0.1505 -0.6876  0.0290
  874MOL0     C17888   0.934  10.636   2.409  0.1501 -0.2236  0.5178
  874MOL0     C17889   0.794  10.648   2.404 -0.3917  0.0474 -0.1565
  874MOL0     C17890   0.708  10.548   2.360 -0.1802 -0.1454 -0.1850
  874MOL0     O17891   0.575  10.578   2.361  0.4139 -0.1790 -0.2359
  874MOL0     C17892   0.489  10.460   2.352  0.8321  0.5221 -0.0009
  874MOL0     C17893   0.349  10.515   2.323 -0.7739  0.6311 -0.2405
  874MOL0     C17894   0.300  10.634   2.405  0.7516 -0.8672 -0.1458
  874MOL0     C17895   0.273  10.591   2.543 -0.5800  0.1237  0.1713
  874MOL0     C17896   0.187  10.683   2.625 -0.2603  0.4473 -0.0850
  874MOL0     C17897   0.257  10.815   2.653  0.6357 -0.5203 -0.0349
  874MOL0     C17898   0.171  10.912   2.731  0.3965  0.3900 -0.1321
  874MOL0     C17899   0.245  11.049   2.752  1.6142  0.6601  0.4013
  874MOL0    Cl17900   0.147  11.137   2.874  0.1235 -0.4316  0.2024
  874MOL0     C17901   0.767  10.430   2.319 -0.9205 -0.0372 -0.2062
  874MOL0     C17902   0.908  10.412   2.325 -0.4027 -1.2421 -0.0442
  874MOL0     O17903   1.109  10.348   2.565 -0.7137 -0.3546  0.2586
  874MOL0     C17904   1.402  10.434   2.370  0.0103  1.3539 -0.1306
  874MOL0     C17905   1.543  10.405   2.357  0.1954 -0.2671  0.1047
  874MOL0     N17906   2.175  10.450   2.455 -0.1262  0.0531  0.7516
  874MOL0     N17907   2.236  10.486   2.559  0.5132  0.0475 -0.1793
  874MOL0     C17908   3.333  10.939   2.460  0.2408  0.2349  0.5008
  874MOL0     C17909   3.456  10.996   2.428 -0.1673 -0.4272 -0.5067
  874MOL0     C17910   3.838  11.150   2.370 -0.0388  0.4354 -0.0234
  874MOL0     C17911   3.932  11.095   2.291 -0.5306  0.1739  0.0523
  874MOL0     C17912   4.044  11.172   2.269  0.3346  0.1848 -0.1854
  874MOL0     C17913   4.059  11.304   2.290 -0.5712 -0.5188 -0.4780
  874MOL0     O17914   4.179  11.361   2.254 -0.7805  0.5379 -0.2443
  874MOL0     C17915   4.215  11.502   2.272  0.0065 -0.4289  0.6487
  874MOL0     C17916   4.126  11.592   2.183  0.4074  0.2710  0.1265
  874MOL0     C17917   4.188  11.618   2.044  0.0740  0.2771  0.1517
  874MOL0     C17918   4.113  11.718   1.951 -0.2206  0.6505 -0.6421
  874MOL0     C17919   3.970  11.701   1.940 -0.2475  0.7343 -0.4257
  874MOL0     C17920   3.848  11.673   1.934  0.0223 -0.6643 -0.0154
  874MOL0     C17921   3.947  11.366   2.344  0.1688 -0.8298  0.0492
  874MOL0     C17922   3.843  11.285   2.402 -0.3220  0.2459 -1.0313
  874MOL0     H17923   3.520  11.131   2.737  2.3225 -0.9247 -1.1107
  874MOL0     H17924   3.319  11.011   2.793  0.6627 -0.8907  0.2473
  874MOL0     H17925   3.157  10.851   2.804 -2.9417 -3.5418  1.0290
  874MOL0     H17926   3.069  10.997   2.765  0.5948  0.0186  0.9884
  874MOL0     H17927   3.006  10.697   2.738 -2.9063 -1.9865  0.9153
  874MOL0     H17928   2.906  10.821   2.815 -4.0318  1.9322 -4.8687
  874MOL0     H17929   2.883  10.927   2.577 -0.0770 -0.2113  1.7751
  874MOL0     H17930   2.922  10.756   2.532 -1.4183 -0.7308 -0.3499
  874MOL0     H17931   2.760  10.669   2.675 -2.6168 -0.6680  0.3064
  874MOL0     H17932   2.703  10.830   2.723 -1.3808 -1.3265 -0.0638
  874MOL0     H17933   2.653  10.874   2.473  1.0175  0.2123 -0.8760
  874MOL0     H17934   2.708  10.708   2.439 -1.3507 -0.5360  0.4217
  874MOL0     H17935   2.485  10.695   2.431  0.8564  1.6391 -0.8328
  874MOL0     H17936   2.547  10.607   2.572  0.9085  0.5553 -2.8525
  874MOL0     H17937   2.486  10.822   2.701  1.9181  2.5641 -1.4155
  874MOL0     H17938   2.385  10.866   2.566  0.8389  0.0669  0.2011
  874MOL0     H17939   2.242  10.753   2.719  0.5135 -0.6000  1.3356
  874MOL0     H17940   2.350  10.617   2.738 -0.7131  2.6477  1.8806
  874MOL0     H17941   2.180  10.777   2.414  2.0847 -0.6460  0.4497
  874MOL0     H17942   2.121  10.624   2.182  0.5484 -1.3562 -0.4358
  874MOL0     H17943   2.077  10.463   2.212 -1.7336  0.5649  0.5007
  874MOL0     H17944   1.859  10.578   2.182  0.0042  1.6615 -0.7333
  874MOL0     H17945   1.916  10.707   2.288  0.0580  0.1956  0.2962
  874MOL0     H17946   1.744  10.581   2.419 -1.9085 -2.1054 -1.6221
  874MOL0     H17947   1.901  10.546   2.492 -1.7592  2.6395 -0.3076
  874MOL0     H17948   1.926  10.338   2.397 -1.7292 -2.5249 -0.0608
  874MOL0     H17949   1.792  10.363   2.281  1.9446  1.6090 -1.2352
  874MOL0     H17950   1.582  10.197   2.618 -3.1336 -1.9116  0.1479
  874MOL0     H17951   1.277  10.316   2.754  2.3607  0.3799  0.6914
  874MOL0     H17952   1.263  10.166   2.684  0.1150 -0.2836  0.7517
  874MOL0     H17953   1.418  10.210   2.771  1.1828  1.4990  0.9526
  874MOL0     H17954   1.006  10.710   2.439  2.6955 -2.0462 -0.7087
  874MOL0     H17955   0.756  10.744   2.437  1.8948  0.3220  2.0093
  874MOL0     H17956   0.507  10.384   2.277 -1.4178 -2.1663  1.9865
  874MOL0     H17957   0.483  10.408   2.448  0.5883  0.2480 -0.1653
  874MOL0     H17958   0.349  10.552   2.220 -2.8095  0.4375 -0.3578
  874MOL0     H17959   0.286  10.426   2.318  3.9174 -3.2205  1.6045
  874MOL0     H17960   0.206  10.684   2.378  1.4998  0.6402 -0.0504
  874MOL0     H17961   0.374  10.715   2.406  0.7693 -0.8845 -0.0462
  874MOL0     H17962   0.222  10.495   2.547  2.2673 -1.4578  2.4458
  874MOL0     H17963   0.366  10.584   2.599 -0.3869  0.7182 -0.0624
  874MOL0     H17964   0.178  10.624   2.716  1.7746  0.3464  0.0953
  874MOL0     H17965   0.088  10.704   2.583  0.1886  1.4145 -0.7098
  874MOL0     H17966   0.358  10.804   2.695  2.1341  2.3165 -2.5177
  874MOL0     H17967   0.277  10.858   2.554  2.0335 -0.7087  0.1522
  874MOL0     H17968   0.153  10.858   2.824 -0.8917  1.3314  0.1893
  874MOL0     H17969   0.076  10.924   2.677  0.3800 -1.6053 -0.6349
  874MOL0     H17970   0.240  11.097   2.654 -0.0041 -0.8660 -0.3212
  874MOL0     H17971   0.348  11.032   2.785  0.6731 -3.4453  1.8451
  874MOL0     H17972   0.706  10.347   2.285 -1.8900  0.7274 -0.3624
  874MOL0     H17973   0.941  10.312   2.298 -2.6352 -1.6869 -1.4046
  874MOL0     H17974   1.357  10.499   2.295  0.3985  0.4576 -1.1673
  874MOL0     H17975   1.610  10.447   2.283  1.5786  0.5101  1.7136
  874MOL0     H17976   3.300  10.879   2.375 -0.3728  2.3851 -0.8680
  874MOL0     H17977   3.489  10.969   2.328 -1.1589 -2.9602 -0.2288
  874MOL0     H17978   3.929  10.995   2.248  0.6695 -0.7823  2.0696
  874MOL0     H17979   4.126  11.115   2.226 -0.4760  0.2530 -1.9408
  874MOL0     H17980   4.195  11.534   2.375  0.4229 -0.8767  0.8722
  874MOL0     H17981   4.321  11.520   2.255 -0.2611  1.7672  0.9671
  874MOL0     H17982   4.120  11.690   2.230  2.1133  1.0174 -1.1189
  874MOL0     H17983   4.020  11.563   2.180  0.1483  1.0429  1.3982
  874MOL0     H17984   4.214  11.526   1.990 -0.6251  1.4535 -2.3122
  874MOL0     H17985   4.283  11.669   2.063 -1.0159  1.7890  1.7930
  874MOL0     H17986   4.157  11.710   1.851  2.8274  0.4799  0.6121
  874MOL0     H17987   4.134  11.819   1.989  1.6763  1.1850 -2.8603
  874MOL0     H17988   3.753  11.632   1.908 -0.8480  0.1934  1.6295
  874MOL0     H17989   3.939  11.474   2.349 -2.7151 -0.9283 -0.9079
  874MOL0     H17990   3.766  11.333   2.462  1.5037  0.8390  0.9507
  875MOL0     O17991   0.479   7.992   1.281  0.1454  0.4385  0.3202
  875MOL0     C17992   0.547   7.957   1.375  0.7460 -0.5544  0.0912
  875MOL0     O17993   0.505   7.930   1.497 -0.0649  0.1518  0.2228
  875MOL0     C17994   0.386   7.963   1.554  0.5758  0.5160 -0.0010
  875MOL0     C17995   0.346   7.889   1.666  0.3877 -0.0749 -0.2137
  875MOL0     C17996   0.224   7.912   1.729  0.6057  0.3029 -0.0151
  875MOL0     C17997   0.137   8.011   1.685  0.4369  0.6264  0.3886
  875MOL0     O17998   0.013   8.048   1.732  0.2226 -0.5780  0.2672
  875MOL0     C17999  -0.054   7.949   1.816  0.1852 -0.2934  0.0386
  875MOL0     C18000  -0.192   7.992   1.867  0.1394  0.0820 -0.1219
  875MOL0     C18001  -0.303   7.962   1.762 -0.1073  0.5626 -0.2302
  875MOL0     C18002  -0.438   8.018   1.806  1.1007  0.6788 -0.1967
  875MOL0     C18003  -0.541   8.005   1.692  0.1238 -0.4956  0.0426
  875MOL0     C18004  -0.669   8.054   1.751  0.6900 -0.0407 -0.5704
  875MOL0     C18005  -0.794   8.047   1.655  0.4667 -0.2248  0.0110
  875MOL0     C18006  -0.911   8.104   1.734  0.4603  0.3455 -0.5762
  875MOL0     N18007  -1.003   7.999   1.801 -1.1133 -0.6503  0.1211
  875MOL0     C18008  -1.098   7.925   1.733 -0.4036  0.4444  0.1815
  875MOL0     C18009  -1.174   7.857   1.821 -0.7032 -0.4659 -0.0085
  875MOL0     C18010  -1.286   7.754   1.809 -0.4276  0.5398 -1.0775
  875MOL0     C18011  -1.399   7.792   1.907 -0.7805 -0.3173 -0.0630
  875MOL0     C18012  -1.531   7.711   1.896 -0.6722 -0.1091  0.2467
  875MOL0     C18013  -1.543   7.604   2.011 -0.1789 -1.6825  0.1118
  875MOL0     O18014  -1.580   7.673   2.128  0.2255 -0.4635  0.1153
  875MOL0     C18015  -1.712   7.669   2.170 -0.4060  0.0841 -0.1051
  875MOL0     C18016  -1.779   7.553   2.192 -0.5783 -0.9534 -0.1452
  875MOL0     C18017  -1.913   7.550   2.215 -0.1316 -0.2056 -0.0338
  875MOL0     C18018  -1.968   7.415   2.254 -0.0456  0.3776 -0.3572
  875MOL0     C18019  -1.985   7.675   2.241 -0.3131 -0.1012 -0.5546
  875MOL0     C18020  -2.117   7.689   2.306  0.1334  1.0710 -0.0114
  875MOL0     O18021  -2.160   7.820   2.303  0.4463 -0.1562  0.3742
  875MOL0     C18022  -2.296   7.839   2.335  0.1282 -0.6484  0.2745
  875MOL0     C18023  -2.336   7.811   2.462  0.1483 -0.1551  0.2530
  875MOL0     C18024  -2.466   7.815   2.489  0.8549  0.1104 -0.3117
  875MOL0     C18025  -2.565   7.855   2.398 -0.0384  0.5445 -0.2859
  875MOL0     O18026  -2.698   7.852   2.412  0.4435  0.0285 -0.1637
  875MOL0     C18027  -2.756   7.813   2.540 -0.6398  1.1837  0.0120
  875MOL0     C18028  -2.740   7.925   2.648  0.2032 -0.3807  0.2555
  875MOL0     C18029  -2.844   7.915   2.762 -0.1551  1.3908 -0.2291
  875MOL0     C18030  -2.840   8.027   2.870 -0.2218  0.9013 -0.4519
  875MOL0     C18031  -2.742   8.004   2.989 -0.4183 -0.5725 -0.6710
  875MOL0     C18032  -2.614   8.087   2.961 -0.2786  0.6410 -0.5060
  875MOL0     C18033  -2.501   8.049   3.064  0.6459  0.2042  0.0560
  875MOL0     C18034  -2.551   8.073   3.209 -0.6642  0.2032  0.4455
  875MOL0    Cl18035  -2.419   8.132   3.303 -0.3768  0.4485  0.0138
  875MOL0     C18036  -2.525   7.892   2.270  0.0039 -0.2939 -0.0478
  875MOL0     C18037  -2.387   7.883   2.236 -0.0353 -0.4352  0.0813
  875MOL0     O18038  -2.186   7.593   2.343  0.0614 -0.2389  0.2786
  875MOL0     C18039  -1.910   7.796   2.235 -0.3574 -0.2284 -1.1120
  875MOL0     C18040  -1.772   7.795   2.198 -0.2523 -0.4384 -0.3428
  875MOL0     N18041  -1.106   7.868   1.944 -0.7896 -0.1250  0.2226
  875MOL0     N18042  -1.009   7.963   1.934  0.1651  0.2320 -0.7618
  875MOL0     C18043   0.186   8.090   1.580 -0.1134  0.9028  0.7675
  875MOL0     C18044   0.301   8.060   1.509 -0.6423 -0.5882 -0.0308
  875MOL0     C18045   0.688   7.932   1.332 -0.0368  0.1324 -0.7288
  875MOL0     C18046   0.733   7.939   1.194 -0.1778  0.2212 -0.3691
  875MOL0     C18047   0.861   7.906   1.156 -0.4796  0.0975 -0.4502
  875MOL0     C18048   0.957   7.866   1.252 -0.2814 -0.2962  0.0295
  875MOL0     O18049   1.084   7.852   1.216 -0.4995  0.1656 -0.0595
  875MOL0     C18050   1.110   7.842   1.072 -0.0413  0.3221  0.1243
  875MOL0     C18051   1.257   7.802   1.065 -0.3246  0.1021 -0.9128
  875MOL0     C18052   1.352   7.897   1.143  1.4857 -0.6091  0.0450
  875MOL0     C18053   1.500   7.854   1.127 -0.9382 -0.2257  0.0812
  875MOL0     C18054   1.586   7.961   1.172 -0.1939 -0.5196 -0.4697
  875MOL0     C18055   1.652   8.053   1.206 -0.6189  0.6883 -0.1171
  875MOL0     C18056   0.914   7.835   1.381  0.9147  0.2854  0.6517
  875MOL0     C18057   0.776   7.866   1.423 -1.0487  1.2067  0.0266
  875MOL0     H18058   0.416   7.815   1.704  2.0020  0.0542 -2.6700
  875MOL0     H18059   0.200   7.871   1.827 -2.0216 -0.1133 -0.7528
  875MOL0     H18060  -0.058   7.852   1.766 -1.9097 -1.1615  1.7367
  875MOL0     H18061   0.003   7.917   1.903 -1.4926  1.6548  2.0008
  875MOL0     H18062  -0.218   7.934   1.955 -1.9871 -0.1708 -0.8661
  875MOL0     H18063  -0.200   8.099   1.890  1.3920 -0.0835  1.2329
  875MOL0     H18064  -0.270   8.014   1.671  0.7980 -0.6706 -0.6319
  875MOL0     H18065  -0.303   7.855   1.739  0.4355  0.8935 -1.9491
  875MOL0     H18066  -0.466   7.958   1.893  2.4745 -1.0657 -0.8730
  875MOL0     H18067  -0.429   8.121   1.842  3.4840  0.2831  0.5109
  875MOL0     H18068  -0.504   8.059   1.605  2.4985 -1.8865  0.0969
  875MOL0     H18069  -0.551   7.897   1.677 -1.3658 -0.4621  0.5261
  875MOL0     H18070  -0.692   7.986   1.833 -0.6112  1.6560  0.5363
  875MOL0     H18071  -0.655   8.155   1.789 -0.3988  0.4149 -1.3123
  875MOL0     H18072  -0.778   8.093   1.557 -0.7626 -0.9649 -0.5521
  875MOL0     H18073  -0.808   7.941   1.636  0.1633  0.2161 -2.5569
  875MOL0     H18074  -0.963   8.165   1.660  0.6368  0.1610 -0.8532
  875MOL0     H18075  -0.880   8.177   1.809  0.1707 -0.4548  0.3478
  875MOL0     H18076  -1.111   7.927   1.625  1.1904  0.0881 -0.0432
  875MOL0     H18077  -1.324   7.761   1.707 -0.2454  0.3306 -1.1617
  875MOL0     H18078  -1.235   7.660   1.830  1.8113  2.1330  1.3430
  875MOL0     H18079  -1.432   7.891   1.873  0.6776 -0.0861 -0.9092
  875MOL0     H18080  -1.363   7.800   2.009  1.4347 -0.8959 -0.7397
  875MOL0     H18081  -1.535   7.656   1.801 -1.3233  2.7510 -1.5122
  875MOL0     H18082  -1.617   7.778   1.898  0.6149  1.6594 -0.7347
  875MOL0     H18083  -1.444   7.564   2.035  1.1480  1.2965  0.0821
  875MOL0     H18084  -1.609   7.524   1.977 -0.7977  0.0071 -3.1216
  875MOL0     H18085  -1.724   7.462   2.170 -1.5027 -1.7316  0.6609
  875MOL0     H18086  -1.957   7.412   2.363 -0.8723 -0.7195 -0.2882
  875MOL0     H18087  -2.073   7.395   2.231  0.4726 -2.6532 -0.4967
  875MOL0     H18088  -1.920   7.329   2.207  0.2198  1.2888 -1.7920
  875MOL0     H18089  -2.283   7.762   2.544 -1.1174 -2.1711 -0.0701
  875MOL0     H18090  -2.499   7.783   2.587  1.0534 -0.2256 -0.3510
  875MOL0     H18091  -2.861   7.790   2.517  0.1316 -2.1701 -0.6307
  875MOL0     H18092  -2.710   7.720   2.575 -0.7728  1.0995 -0.0352
  875MOL0     H18093  -2.635   7.944   2.670  0.0275  1.2899 -0.2074
  875MOL0     H18094  -2.767   8.018   2.597 -1.0430 -2.1594 -2.5797
  875MOL0     H18095  -2.849   7.821   2.817 -2.1493  1.9175  0.5819
  875MOL0     H18096  -2.945   7.918   2.721  0.1554 -2.4781 -1.6525
  875MOL0     H18097  -2.824   8.129   2.835 -1.5230  0.7303 -1.5811
  875MOL0     H18098  -2.936   8.029   2.922  0.8011 -0.4578  1.6689
  875MOL0     H18099  -2.719   7.898   3.007  0.1688 -0.3631 -0.1430
  875MOL0     H18100  -2.785   8.043   3.082 -0.3173  0.4604 -1.0477
  875MOL0     H18101  -2.579   8.067   2.859 -1.4893 -2.5472 -0.4250
  875MOL0     H18102  -2.628   8.195   2.966 -0.4371  0.7643 -2.7946
  875MOL0     H18103  -2.412   8.109   3.043 -1.4662  2.5734 -2.9506
  875MOL0     H18104  -2.463   7.948   3.042  1.4141  0.6370 -0.6528
  875MOL0     H18105  -2.591   7.980   3.251  0.8140 -1.1679 -1.0352
  875MOL0     H18106  -2.632   8.146   3.205 -1.3433 -0.5822 -0.8597
  875MOL0     H18107  -2.604   7.935   2.210  0.5831  1.2207  0.2294
  875MOL0     H18108  -2.372   7.929   2.139 -1.8803  1.1008  0.4554
  875MOL0     H18109  -1.945   7.898   2.240 -0.0131 -0.1593  0.8113
  875MOL0     H18110  -1.715   7.886   2.182 -0.2792 -0.4964 -0.7655
  875MOL0     H18111   0.118   8.171   1.553 -0.2990  1.9667  3.9336
  875MOL0     H18112   0.329   8.126   1.427  2.0018  0.9941  1.9807
  875MOL0     H18113   0.666   7.972   1.116  0.5799 -0.1801 -1.2177
  875MOL0     H18114   0.880   7.917   1.050  2.0675  3.9621  0.2140
  875MOL0     H18115   1.054   7.762   1.023  0.4957 -0.2738  0.4652
  875MOL0     H18116   1.088   7.940   1.027 -2.1178  0.1245  0.5912
  875MOL0     H18117   1.279   7.793   0.958 -0.8464  0.5495 -1.0679
  875MOL0     H18118   1.258   7.702   1.109 -1.6775  1.0866  1.5430
  875MOL0     H18119   1.324   7.915   1.247 -1.6157  1.0032 -0.9201
  875MOL0     H18120   1.346   8.001   1.108  0.6255 -0.3312  0.9454
  875MOL0     H18121   1.518   7.822   1.024  0.9087  0.3767  0.1855
  875MOL0     H18122   1.529   7.767   1.188  3.7690  1.7169  1.0008
  875MOL0     H18123   1.711   8.131   1.248  0.8820  0.7605 -2.1670
  875MOL0     H18124   0.966   7.777   1.456  0.0887 -2.0634 -0.5014
  875MOL0     H18125   0.749   7.857   1.527 -0.7461 -0.6137 -0.0245
  876MOL0     O18126   8.064   6.240   7.558 -0.1655 -0.3196 -0.5601
  876MOL0     C18127   8.175   6.173   7.574 -0.4684  0.2305  0.0166
  876MOL0     O18128   8.192   6.078   7.665 -1.0333  0.4020  0.4680
  876MOL0     C18129   8.090   6.053   7.751  0.0396  0.5944 -0.2453
  876MOL0     C18130   8.051   6.149   7.851  0.1629  0.2040  0.4311
  876MOL0     C18131   7.951   6.108   7.945 -0.6735  0.5500  0.3954
  876MOL0     C18132   7.874   5.990   7.941 -0.6703 -0.2891 -0.0531
  876MOL0     O18133   7.778   5.941   8.028 -0.1181 -0.0146 -0.7314
  876MOL0     C18134   7.773   6.003   8.154  0.0442 -0.5723  0.6941
  876MOL0     C18135   7.680   5.945   8.254  0.9958  0.8375  0.5450
  876MOL0     C18136   7.540   5.952   8.184 -0.8444 -0.0733 -0.5369
  876MOL0     C18137   7.436   5.921   8.300 -0.3420  0.5826  0.0935
  876MOL0     C18138   7.287   5.959   8.273  0.3171 -0.4969 -0.3692
  876MOL0     C18139   7.258   6.102   8.243  0.1745 -0.4171 -0.0348
  876MOL0     C18140   7.116   6.138   8.191 -0.0707 -0.7001  0.4484
  876MOL0     C18141   7.003   6.075   8.279 -0.1614  0.3509  1.5458
  876MOL0     N18142   6.884   6.144   8.218  0.0796 -0.0883 -0.1839
  876MOL0     C18143   6.813   6.091   8.111 -0.6365  0.3160  0.1656
  876MOL0     C18144   6.703   6.163   8.107 -0.4306 -0.5383 -0.8699
  876MOL0     C18145   6.601   6.154   8.005  0.5530  0.1183  0.5751
  876MOL0     C18146   6.487   6.055   8.041 -1.1987 -0.8379 -0.1419
  876MOL0     C18147   6.418   6.099   8.173  0.4538  0.1263  0.8152
  876MOL0     C18148   6.274   6.059   8.185  0.0469 -0.5465 -0.4626
  876MOL0     O18149   6.198   6.153   8.105  0.2177 -0.0996  0.5183
  876MOL0     C18150   6.061   6.162   8.114  0.4259  0.6136  0.0240
  876MOL0     C18151   5.977   6.072   8.184 -0.0856  0.0501  0.0943
  876MOL0     C18152   5.845   6.106   8.211 -0.3897  0.5877  0.0119
  876MOL0     C18153   5.754   6.015   8.291 -0.0347 -0.4156  0.2192
  876MOL0     C18154   5.779   6.217   8.144 -0.3677 -0.4882  0.7413
  876MOL0     C18155   5.643   6.268   8.161  0.4559 -0.3186  0.4617
  876MOL0     O18156   5.602   6.364   8.064 -0.1905  0.2236 -0.0527
  876MOL0     C18157   5.469   6.404   8.054  0.0297 -0.6291 -0.3181
  876MOL0     C18158   5.366   6.315   8.028  0.0876  0.9549 -0.3484
  876MOL0     C18159   5.231   6.357   8.035  0.8067  0.4464  0.0580
  876MOL0     C18160   5.203   6.500   8.053  0.8792 -0.2049  0.4791
  876MOL0     O18161   5.069   6.540   8.053 -0.0574  0.5055  0.3840
  876MOL0     C18162   5.037   6.674   8.090  0.0619  0.2852 -0.5103
  876MOL0     C18163   4.897   6.691   8.123  0.3633  0.0162  0.3164
  876MOL0     C18164   4.840   6.578   8.213 -0.0319  0.3296 -0.2231
  876MOL0     C18165   4.695   6.609   8.250 -0.0572 -0.4708  0.1811
  876MOL0     C18166   4.634   6.499   8.342 -0.3571  0.7967  0.1819
  876MOL0     C18167   4.482   6.518   8.361  0.0548 -0.1487 -0.0909
  876MOL0     C18168   4.394   6.510   8.237  0.4658 -0.8170  0.4157
  876MOL0     C18169   4.253   6.546   8.275  0.1330  0.1453 -0.2123
  876MOL0    Cl18170   4.219   6.719   8.254 -0.0190 -0.0253  0.0886
  876MOL0     C18171   5.309   6.590   8.069  0.2264  0.4518  0.3114
  876MOL0     C18172   5.447   6.542   8.061  0.6989 -0.0243  0.2727
  876MOL0     O18173   5.575   6.243   8.262  0.2565 -0.4438 -0.1947
  876MOL0     C18174   5.863   6.297   8.072 -0.5122  0.4954 -0.0668
  876MOL0     C18175   6.003   6.276   8.062 -0.2415 -0.5080  0.9184
  876MOL0     N18176   6.703   6.265   8.207 -0.3431 -0.2688  0.3756
  876MOL0     N18177   6.819   6.250   8.270 -0.3589  0.6347 -1.1711
  876MOL0     C18178   7.922   5.903   7.839  0.1914 -0.1644  0.5844
  876MOL0     C18179   8.022   5.935   7.742  0.5526 -0.0082  0.0879
  876MOL0     C18180   8.285   6.194   7.474  0.0434  0.0978 -0.4449
  876MOL0     C18181   8.281   6.299   7.374  0.2326 -0.1112 -0.1060
  876MOL0     C18182   8.393   6.322   7.299 -0.3701 -0.2871  0.5715
  876MOL0     C18183   8.515   6.244   7.309 -0.2665 -0.1263 -0.4807
  876MOL0     O18184   8.628   6.273   7.240 -0.4128  0.1032  0.0388
  876MOL0     C18185   8.625   6.365   7.130 -1.2915  1.1257 -0.4329
  876MOL0     C18186   8.546   6.321   7.016  0.4476  1.0665  0.3951
  876MOL0     C18187   8.605   6.189   6.964  0.4150 -0.1900  0.4918
  876MOL0     C18188   8.550   6.154   6.819 -0.2521 -0.1849 -0.6993
  876MOL0     C18189   8.626   6.225   6.714  0.3244 -0.3257  0.0103
  876MOL0     C18190   8.679   6.277   6.620 -1.0369  0.1053  0.4896
  876MOL0     C18191   8.521   6.148   7.410  0.3988 -0.2044 -0.4302
  876MOL0     C18192   8.406   6.119   7.486  0.5310 -0.4703 -0.5276
  876MOL0     H18193   8.111   6.240   7.856  2.5667 -1.2846  0.0324
  876MOL0     H18194   7.932   6.190   8.015 -1.1608  0.7159  0.0771
  876MOL0     H18195   7.870   5.994   8.203  0.3585 -1.7421 -0.1252
  876MOL0     H18196   7.746   6.108   8.138 -2.9590 -1.3774 -0.1730
  876MOL0     H18197   7.699   5.842   8.286 -3.0198 -0.1591  0.2009
  876MOL0     H18198   7.685   5.999   8.349 -0.9003 -2.1083  2.4816
  876MOL0     H18199   7.526   6.056   8.155 -1.8704 -0.1880 -0.5028
  876MOL0     H18200   7.524   5.891   8.095 -4.3789 -0.1583 -0.0082
  876MOL0     H18201   7.439   5.815   8.328  0.0538  0.5670 -0.0001
  876MOL0     H18202   7.461   5.984   8.386  2.4673  2.0410 -1.6184
  876MOL0     H18203   7.247   5.906   8.185 -0.7257  1.5680 -1.1909
  876MOL0     H18204   7.233   5.924   8.362 -1.6422  3.6161  0.2755
  876MOL0     H18205   7.288   6.155   8.334  1.4720 -0.2424 -0.5477
  876MOL0     H18206   7.328   6.133   8.165  1.1641  3.3095  2.0410
  876MOL0     H18207   7.105   6.246   8.201 -0.1143 -0.6934  0.3289
  876MOL0     H18208   7.109   6.103   8.087 -0.9307  1.1421 -0.1583
  876MOL0     H18209   7.017   6.089   8.387  0.9375 -0.2784  1.4951
  876MOL0     H18210   7.009   5.968   8.258  0.1593  0.1618  2.5691
  876MOL0     H18211   6.841   6.016   8.038  0.3838  0.7333  0.1100
  876MOL0     H18212   6.559   6.253   7.985  3.1430  0.9030 -1.6279
  876MOL0     H18213   6.641   6.120   7.908 -0.1145 -1.4186  0.8145
  876MOL0     H18214   6.515   5.950   8.052  0.3045 -0.5121 -0.6558
  876MOL0     H18215   6.421   6.047   7.954  1.8607 -0.3704 -2.6910
  876MOL0     H18216   6.420   6.208   8.181  2.2559  0.3090 -1.1695
  876MOL0     H18217   6.474   6.049   8.253  1.8196 -1.8756 -1.2559
  876MOL0     H18218   6.246   6.073   8.290 -1.7277  0.0937 -0.9735
  876MOL0     H18219   6.257   5.952   8.166 -2.2354 -0.0966 -1.3346
  876MOL0     H18220   6.008   5.977   8.225 -0.7643 -1.1373 -2.0115
  876MOL0     H18221   5.669   5.976   8.235  0.9480 -3.4467  0.5930
  876MOL0     H18222   5.810   5.928   8.329 -0.2957 -0.3635  0.7402
  876MOL0     H18223   5.727   6.069   8.382 -1.0224 -0.7435  0.1321
  876MOL0     H18224   5.389   6.209   8.015 -0.6092  0.7101  0.3409
  876MOL0     H18225   5.149   6.286   8.027 -0.2494  1.5607  0.6237
  876MOL0     H18226   5.085   6.702   8.184 -3.4222  2.2383  0.8433
  876MOL0     H18227   5.068   6.744   8.012  0.3018  0.3138 -0.3925
  876MOL0     H18228   4.876   6.793   8.156  1.0497  0.1536  0.3505
  876MOL0     H18229   4.844   6.689   8.027  2.3241 -1.2778 -0.8071
  876MOL0     H18230   4.903   6.573   8.302 -0.7015 -1.5244  0.1807
  876MOL0     H18231   4.839   6.481   8.163  1.5587 -0.1040  0.5197
  876MOL0     H18232   4.684   6.704   8.304  0.0072 -0.6945  0.5886
  876MOL0     H18233   4.636   6.617   8.158  0.7122  2.3945 -0.1541
  876MOL0     H18234   4.683   6.514   8.439  0.1026 -2.4189  0.5466
  876MOL0     H18235   4.656   6.397   8.310  0.2547  0.4697  1.5389
  876MOL0     H18236   4.445   6.455   8.442  1.8518  1.1370  1.8608
  876MOL0     H18237   4.459   6.621   8.392  0.6931  0.3157 -1.0964
  876MOL0     H18238   4.390   6.405   8.207 -1.1687 -0.2421 -1.5928
  876MOL0     H18239   4.423   6.577   8.155  1.0377 -2.2783 -0.6080
  876MOL0     H18240   4.223   6.523   8.378  2.1803  1.7522  0.8104
  876MOL0     H18241   4.183   6.489   8.214  1.3656  0.2402 -1.7711
  876MOL0     H18242   5.285   6.695   8.075 -1.8614 -0.0076  0.9742
  876MOL0     H18243   5.526   6.614   8.078  0.1432  0.9984 -1.2819
  876MOL0     H18244   5.833   6.387   8.019  0.6450  2.2269  2.0434
  876MOL0     H18245   6.077   6.338   8.012 -0.0650 -0.9447  0.6227
  876MOL0     H18246   7.881   5.803   7.824 -1.2760  0.4127  0.6308
  876MOL0     H18247   8.053   5.854   7.676  0.7322  0.0735  0.0704
  876MOL0     H18248   8.190   6.356   7.362 -1.3454 -2.5494 -0.3978
  876MOL0     H18249   8.370   6.394   7.221 -2.5892 -2.3425 -0.8203
  876MOL0     H18250   8.594   6.456   7.181  0.9583  0.8322  1.6434
  876MOL0     H18251   8.727   6.372   7.092 -1.4094 -1.7111 -1.5444
  876MOL0     H18252   8.559   6.400   6.942  0.0239 -0.4726 -1.3875
  876MOL0     H18253   8.440   6.306   7.043  0.6758 -1.4436  0.1493
  876MOL0     H18254   8.577   6.112   7.037  1.2887 -2.2025 -1.1936
  876MOL0     H18255   8.713   6.206   6.965  0.6052 -1.2777  1.5752
  876MOL0     H18256   8.443   6.180   6.818 -0.3477 -0.5473 -0.2624
  876MOL0     H18257   8.549   6.047   6.798  0.5327 -0.4702  0.6096
  876MOL0     H18258   8.716   6.318   6.529 -0.0346  0.8676  1.2117
  876MOL0     H18259   8.612   6.090   7.418 -0.1528 -1.7033 -3.5049
  876MOL0     H18260   8.427   6.041   7.558 -2.0957 -1.1533 -0.3820
  877MOL0     O18261   4.019   1.062   2.397 -0.1135 -0.3072 -0.4954
  877MOL0     C18262   4.114   1.073   2.479  0.2463  0.3110 -0.8414
  877MOL0     O18263   4.103   1.133   2.607  0.1664  0.4568  0.0035
  877MOL0     C18264   3.989   1.166   2.667  0.6900  0.0315  0.3072
  877MOL0     C18265   3.871   1.091   2.673  1.1748  0.2481 -0.6392
  877MOL0     C18266   3.761   1.137   2.751  0.0222 -0.3958  0.0611
  877MOL0     C18267   3.755   1.257   2.813  0.2439  0.0279  0.4979
  877MOL0     O18268   3.641   1.274   2.887 -1.2598 -0.1337  0.0528
  877MOL0     C18269   3.661   1.339   3.015 -0.4723  0.0062 -0.2140
  877MOL0     C18270   3.548   1.307   3.110 -0.5216 -0.5410 -0.3171
  877MOL0     C18271   3.535   1.152   3.146  0.9402 -0.3938 -0.1240
  877MOL0     C18272   3.637   1.112   3.256 -0.3287 -0.0747  0.2693
  877MOL0     C18273   3.657   0.962   3.253 -0.0254 -0.2258  0.1542
  877MOL0     C18274   3.718   0.921   3.388 -1.7664 -0.6373  1.5261
  877MOL0     C18275   3.875   0.965   3.389  0.1287 -0.4268  0.1806
  877MOL0     C18276   3.917   0.983   3.534  0.2039  0.1183  0.1208
  877MOL0     N18277   4.060   1.014   3.556  0.5266 -1.0212 -0.2444
  877MOL0     C18278   4.113   1.036   3.689 -0.1694 -0.8721 -0.1449
  877MOL0     C18279   4.234   1.086   3.656 -0.0647  0.0114 -1.0934
  877MOL0     C18280   4.333   1.137   3.759 -0.5580 -0.3786  0.8087
  877MOL0     C18281   4.331   1.293   3.779  0.8030 -0.1457  0.5134
  877MOL0     C18282   4.464   1.350   3.811 -0.5493  0.1948  0.2482
  877MOL0     C18283   4.474   1.491   3.758 -0.3037 -0.0522  0.9266
  877MOL0     O18284   4.393   1.573   3.837  0.2910 -0.3641 -0.1621
  877MOL0     C18285   4.290   1.633   3.768  0.8068 -0.4334 -0.5557
  877MOL0     C18286   4.304   1.688   3.641 -0.0449 -0.4531 -0.1055
  877MOL0     C18287   4.199   1.751   3.574 -0.0105  0.0530 -0.3565
  877MOL0     C18288   4.231   1.787   3.430  0.8951 -0.6641  0.3046
  877MOL0     C18289   4.077   1.777   3.639  0.9124  0.5679 -0.4717
  877MOL0     C18290   3.967   1.855   3.578  0.1238  0.4265  1.0002
  877MOL0     O18291   3.863   1.892   3.659 -0.0518  0.8154  0.7379
  877MOL0     C18292   3.754   1.962   3.601 -0.4215  0.9900  0.3992
  877MOL0     C18293   3.721   2.086   3.649 -0.0226 -0.1044 -0.3504
  877MOL0     C18294   3.606   2.149   3.591 -0.5071  0.3624  0.6519
  877MOL0     C18295   3.531   2.087   3.489 -0.0380  0.2785  0.2369
  877MOL0     O18296   3.420   2.163   3.442  0.3123  0.3689  0.6128
  877MOL0     C18297   3.417   2.171   3.291 -0.2180 -0.3607 -0.9122
  877MOL0     C18298   3.275   2.142   3.247  0.7117 -0.0429  0.7127
  877MOL0     C18299   3.213   2.003   3.302 -0.4057  0.6037  0.1369
  877MOL0     C18300   3.065   1.977   3.261  0.6272  0.8184 -0.5171
  877MOL0     C18301   2.992   1.878   3.359 -0.7240  0.0838  0.3673
  877MOL0     C18302   2.852   1.838   3.325  0.0169  0.4137  0.6082
  877MOL0     C18303   2.805   1.735   3.426  0.3323  0.1297 -0.3076
  877MOL0     C18304   2.690   1.652   3.358 -0.5892 -0.3763  0.3915
  877MOL0    Cl18305   2.570   1.762   3.304  0.2658 -0.1220 -0.4322
  877MOL0     C18306   3.571   1.957   3.450  0.9015  0.0243  0.1280
  877MOL0     C18307   3.682   1.892   3.507  0.2056  0.3609 -0.6985
  877MOL0     O18308   3.975   1.884   3.458  0.4729  0.9461 -0.7168
  877MOL0     C18309   4.062   1.723   3.766 -0.1002 -0.3256 -1.2110
  877MOL0     C18310   4.166   1.640   3.820  0.1467  0.3395 -0.4802
  877MOL0     N18311   4.256   1.091   3.520  0.2959 -0.1902  0.1531
  877MOL0     N18312   4.151   1.056   3.460  0.3627 -0.0731 -0.3424
  877MOL0     C18313   3.878   1.341   2.806 -0.0492  0.2395  0.6081
  877MOL0     C18314   3.988   1.296   2.732 -0.0614  0.1886  0.5499
  877MOL0     C18315   4.251   1.046   2.430 -0.1895 -0.2115  0.4072
  877MOL0     C18316   4.368   1.023   2.511  1.8607  0.9693  0.4647
  877MOL0     C18317   4.493   1.023   2.452  0.0923 -0.7222  0.1843
  877MOL0     C18318   4.512   1.027   2.315  0.5364 -0.0892 -1.0036
  877MOL0     O18319   4.645   1.014   2.273  0.0375  0.1261  0.6704
  877MOL0     C18320   4.659   0.975   2.141 -0.2092  0.0834  1.0317
  877MOL0     C18321   4.815   0.954   2.117  0.8508 -0.5324 -1.1241
  877MOL0     C18322   4.835   0.838   2.015  0.5389 -0.2358 -0.0848
  877MOL0     C18323   4.980   0.835   1.968 -0.1450  0.6611  0.1628
  877MOL0     C18324   5.015   0.964   1.900  0.2722  0.1727 -0.5594
  877MOL0     C18325   5.064   1.055   1.843  0.0087 -0.4432  0.3944
  877MOL0     C18326   4.399   1.040   2.229 -0.3605  0.2282 -0.6519
  877MOL0     C18327   4.270   1.053   2.291 -0.2722  0.8089 -0.0281
  877MOL0     H18328   3.857   0.997   2.621  1.3207 -0.4666  0.5853
  877MOL0     H18329   3.673   1.073   2.756  0.8699 -1.7168 -1.3069
  877MOL0     H18330   3.753   1.305   3.063 -0.6980  2.3791  2.1380
  877MOL0     H18331   3.670   1.448   3.008  3.9461 -0.1244  0.6946
  877MOL0     H18332   3.559   1.351   3.210 -0.9213 -2.7934  0.7996
  877MOL0     H18333   3.452   1.338   3.069 -0.7727 -2.0179 -0.9038
  877MOL0     H18334   3.433   1.142   3.186 -0.7078  1.4912 -3.4795
  877MOL0     H18335   3.538   1.084   3.060  0.7665 -0.5293 -0.0247
  877MOL0     H18336   3.736   1.153   3.235  0.2181 -0.2717  2.2638
  877MOL0     H18337   3.604   1.145   3.355 -0.5606 -0.6304  0.3807
  877MOL0     H18338   3.565   0.904   3.238  0.8724 -1.1724 -2.3854
  877MOL0     H18339   3.724   0.935   3.171 -1.5108 -2.6944 -0.3654
  877MOL0     H18340   3.659   0.971   3.465 -1.0795  2.6105  0.1109
  877MOL0     H18341   3.717   0.814   3.412  1.0186 -0.9776  0.5349
  877MOL0     H18342   3.930   0.891   3.331 -0.3981 -0.3099 -0.4793
  877MOL0     H18343   3.888   1.062   3.340  0.3791 -0.9137 -0.7272
  877MOL0     H18344   3.895   0.888   3.584  1.3900  0.1906  0.8258
  877MOL0     H18345   3.861   1.064   3.580  1.4428  0.5393  0.9481
  877MOL0     H18346   4.064   1.030   3.785  1.7718 -0.2843  0.9405
  877MOL0     H18347   4.330   1.093   3.859  0.3460  3.0389  2.5098
  877MOL0     H18348   4.431   1.101   3.726  0.2546 -0.6778  3.3420
  877MOL0     H18349   4.266   1.329   3.859 -1.3805  1.5401 -1.8717
  877MOL0     H18350   4.289   1.345   3.693  1.5651  1.1540  0.8914
  877MOL0     H18351   4.552   1.291   3.785 -1.4140  0.1631 -3.0525
  877MOL0     H18352   4.473   1.371   3.918 -2.0108 -0.2251  0.4712
  877MOL0     H18353   4.441   1.481   3.654  0.2445  0.1448  0.7321
  877MOL0     H18354   4.576   1.529   3.767 -0.5980  0.8655  0.5174
  877MOL0     H18355   4.405   1.685   3.603  0.1591 -1.5444  0.4662
  877MOL0     H18356   4.251   1.894   3.418  1.3479 -0.8146 -0.3297
  877MOL0     H18357   4.324   1.739   3.397  2.8698  2.0716  1.4594
  877MOL0     H18358   4.160   1.752   3.354  2.0548  1.2574 -1.8219
  877MOL0     H18359   3.768   2.140   3.730  3.2707  0.5946 -2.5269
  877MOL0     H18360   3.574   2.246   3.626 -1.5998  0.3651 -0.2851
  877MOL0     H18361   3.441   2.276   3.271 -3.1706  0.7709  0.7859
  877MOL0     H18362   3.487   2.100   3.246  2.2934  1.7471 -0.5314
  877MOL0     H18363   3.224   2.235   3.275 -2.9137 -0.6506 -2.9609
  877MOL0     H18364   3.270   2.139   3.138  0.5355  0.0641  0.7171
  877MOL0     H18365   3.229   1.980   3.408  1.8931 -2.1992 -0.6742
  877MOL0     H18366   3.272   1.922   3.258  1.2477  0.3566  2.5919
  877MOL0     H18367   3.011   2.072   3.265  0.5381  0.7299  2.3625
  877MOL0     H18368   3.048   1.934   3.162 -0.2275 -1.7800  0.6704
  877MOL0     H18369   3.003   1.920   3.460 -0.5765 -0.3954  0.5526
  877MOL0     H18370   3.052   1.789   3.378  0.0537 -0.0631 -2.4233
  877MOL0     H18371   2.789   1.927   3.323 -0.4361  0.1034  0.8583
  877MOL0     H18372   2.857   1.796   3.224 -1.2583 -1.5971  1.3139
  877MOL0     H18373   2.759   1.779   3.516  0.5273 -0.3425  0.0275
  877MOL0     H18374   2.878   1.667   3.470 -1.7723 -0.6516  2.2829
  877MOL0     H18375   2.643   1.587   3.434 -1.8544 -0.1634 -0.1839
  877MOL0     H18376   2.724   1.591   3.274  2.1188  1.0219  0.3893
  877MOL0     H18377   3.509   1.909   3.375  0.0866  0.4141  0.5372
  877MOL0     H18378   3.722   1.795   3.477  2.2757  1.6788 -2.5141
  877MOL0     H18379   3.970   1.747   3.818  0.8261 -1.1993  0.9650
  877MOL0     H18380   4.145   1.613   3.923 -0.0143  2.4446  0.0887
  877MOL0     H18381   3.879   1.433   2.864 -4.2995  0.7556  0.1948
  877MOL0     H18382   4.078   1.355   2.743  1.6913 -1.9887 -1.1231
  877MOL0     H18383   4.360   1.013   2.619  1.9817  0.9567  0.4716
  877MOL0     H18384   4.575   1.016   2.523 -0.0363  0.0324  0.4096
  877MOL0     H18385   4.610   0.881   2.116 -0.5788  0.2279  1.2116
  877MOL0     H18386   4.631   1.059   2.076  0.2108  0.6500  1.5681
  877MOL0     H18387   4.860   0.919   2.211 -0.2252 -0.8763 -0.7248
  877MOL0     H18388   4.859   1.052   2.097  1.8807  0.6027  4.9399
  877MOL0     H18389   4.771   0.852   1.928  2.4319  0.1925 -1.4888
  877MOL0     H18390   4.817   0.738   2.054  0.1989  0.2829  1.1346
  877MOL0     H18391   5.012   0.749   1.909  0.6069 -0.0096  1.5021
  877MOL0     H18392   5.057   0.820   2.044  3.8374  2.1656 -3.2099
  877MOL0     H18393   5.118   1.123   1.780 -2.9402  1.7131 -0.0202
  877MOL0     H18394   4.423   1.047   2.123 -0.0482  0.1182 -0.5887
  877MOL0     H18395   4.189   1.062   2.220  1.2694  0.0004 -2.0022
  878MOL0     O18396  11.027  10.651   0.516  0.5573  0.3925 -0.3672
  878MOL0     C18397  11.106  10.642   0.428  0.7227 -0.4767  0.0138
  878MOL0     O18398  11.105  10.723   0.324 -0.1285 -0.1832 -0.5406
  878MOL0     C18399  11.032  10.836   0.336  0.0393 -0.3558  0.3568
  878MOL0     C18400  11.093  10.961   0.353 -0.2947  0.0867 -0.2518
  878MOL0     C18401  11.036  11.083   0.370  0.8644  0.7411 -0.5428
  878MOL0     C18402  10.900  11.097   0.345  0.5478  0.5191 -0.1381
  878MOL0     O18403  10.855  11.224   0.331  0.1349 -0.1479 -0.1727
  878MOL0     C18404  10.716  11.250   0.355 -0.1810 -0.1902 -0.1638
  878MOL0     C18405  10.676  11.392   0.328  0.5531  0.3428 -0.2612
  878MOL0     C18406  10.521  11.406   0.295 -0.3053  0.3838  0.9929
  878MOL0     C18407  10.466  11.462   0.424  0.0749  0.2044  0.7155
  878MOL0     C18408  10.318  11.427   0.436 -0.5045 -0.0916 -0.1370
  878MOL0     C18409  10.247  11.511   0.554  0.0320 -0.2076 -0.6170
  878MOL0     C18410  10.105  11.456   0.577  0.7022  0.1677 -0.0928
  878MOL0     C18411  10.009  11.485   0.468 -0.3689 -1.1860  0.6729
  878MOL0     N18412   9.872  11.489   0.506  0.1372 -0.0564  0.3589
  878MOL0     C18413   9.814  11.564   0.603  0.0764 -0.0761 -0.6074
  878MOL0     C18414   9.680  11.551   0.581 -0.6288  0.5260 -0.2481
  878MOL0     C18415   9.581  11.629   0.668  1.3747  0.0646  0.2290
  878MOL0     C18416   9.550  11.557   0.800 -0.3780 -0.5719 -0.2138
  878MOL0     C18417   9.473  11.642   0.896  0.4807 -0.5087  0.1090
  878MOL0     C18418   9.346  11.704   0.856 -0.2371 -0.3843  0.5406
  878MOL0     O18419   9.240  11.614   0.821  0.2534 -0.6070  0.5669
  878MOL0     C18420   9.115  11.677   0.823 -0.2527 -0.7880  0.3622
  878MOL0     C18421   9.002  11.599   0.845 -0.1495 -0.5410 -0.4662
  878MOL0     C18422   8.877  11.649   0.844 -0.3055 -0.2463 -0.8438
  878MOL0     C18423   8.769  11.550   0.872 -0.2370 -0.4292  0.1073
  878MOL0     C18424   8.853  11.785   0.811  0.3931 -0.5790 -0.4473
  878MOL0     C18425   8.723  11.850   0.815 -0.7904 -0.5296  0.2167
  878MOL0     O18426   8.616  11.776   0.827 -0.2020  1.0047  0.5861
  878MOL0     C18427   8.507  11.845   0.855 -0.1625 -0.3916  0.6029
  878MOL0     C18428   8.453  11.829   0.975  0.2434 -0.6222  1.0782
  878MOL0     C18429   8.329  11.892   1.007  0.3431 -0.3060 -0.0573
  878MOL0     C18430   8.257  11.970   0.920 -0.3851 -0.5734 -0.3246
  878MOL0     O18431   8.141  12.041   0.937  0.8668  0.2026 -0.6460
  878MOL0     C18432   8.077  12.018   1.067  0.0777 -0.5051 -0.2218
  878MOL0     C18433   7.940  12.083   1.066 -0.1686 -0.6679  0.4998
  878MOL0     C18434   7.857  12.027   0.946  0.5407  0.0360 -0.8262
  878MOL0     C18435   7.701  12.040   0.953  0.1409 -0.7757  0.6116
  878MOL0     C18436   7.639  12.183   0.933  0.2868  0.4076 -0.2057
  878MOL0     C18437   7.493  12.171   0.982 -0.7271 -0.5717  0.0307
  878MOL0     C18438   7.426  12.308   0.940 -0.6103 -0.2069  0.3244
  878MOL0     C18439   7.270  12.291   0.923  0.2969 -0.5794 -0.2608
  878MOL0    Cl18440   7.216  12.168   0.797  0.1556 -0.0290 -0.2359
  878MOL0     C18441   8.312  11.979   0.795  0.2815 -1.1345 -0.5958
  878MOL0     C18442   8.426  11.912   0.754 -0.1036 -0.0495 -0.7034
  878MOL0     O18443   8.729  11.975   0.804  0.9515 -0.5125  0.6678
  878MOL0     C18444   8.969  11.862   0.788  0.1486 -0.3278  0.4437
  878MOL0     C18445   9.095  11.810   0.793 -0.3721 -0.4280 -0.3968
  878MOL0     N18446   9.654  11.458   0.480 -0.6292 -0.8625  0.1765
  878MOL0     N18447   9.767  11.433   0.429  0.3034  0.0106 -1.1033
  878MOL0     C18448  10.820  10.979   0.333 -0.2106 -0.2771  0.4146
  878MOL0     C18449  10.885  10.849   0.336 -0.4724  0.6941  0.3545
  878MOL0     C18450  11.225  10.551   0.449  0.7262 -0.8170  0.2948
  878MOL0     C18451  11.339  10.536   0.361  0.7044 -1.1383 -0.1999
  878MOL0     C18452  11.441  10.446   0.381  0.3259 -0.4528 -0.4304
  878MOL0     C18453  11.430  10.353   0.495  0.2053 -0.3411  1.5070
  878MOL0     O18454  11.518  10.255   0.542  0.2730 -0.3642  0.4162
  878MOL0     C18455  11.615  10.213   0.444 -0.8365  1.6254 -0.4165
  878MOL0     C18456  11.648  10.065   0.467 -0.2993 -0.1025 -0.3010
  878MOL0     C18457  11.775  10.025   0.384  0.6820 -0.2417 -0.7194
  878MOL0     C18458  11.891   9.979   0.473  0.4051  0.1868 -0.4991
  878MOL0     C18459  11.960  10.082   0.548  0.6223  0.6291 -0.4843
  878MOL0     C18460  12.013  10.187   0.580 -0.2181  0.1063 -0.6362
  878MOL0     C18461  11.318  10.366   0.575 -0.0491 -0.1813 -0.3278
  878MOL0     C18462  11.222  10.463   0.561 -0.4758 -0.6046 -0.5624
  878MOL0     H18463  11.201  10.967   0.346 -0.3831  0.4395 -1.6200
  878MOL0     H18464  11.102  11.168   0.386  0.2265  1.2895 -0.7975
  878MOL0     H18465  10.664  11.189   0.281  1.6159  0.2015 -1.8387
  878MOL0     H18466  10.692  11.213   0.455 -1.6488 -0.3189 -0.5388
  878MOL0     H18467  10.716  11.448   0.413  0.7325  0.4532 -0.4183
  878MOL0     H18468  10.727  11.431   0.240 -0.8942  0.0186 -1.2905
  878MOL0     H18469  10.498  11.484   0.222 -1.7463 -0.1223  0.8800
  878MOL0     H18470  10.475  11.315   0.256  2.6478 -0.0946 -1.8311
  878MOL0     H18471  10.517  11.416   0.510 -0.9520 -3.5623 -0.4995
  878MOL0     H18472  10.491  11.568   0.434  1.8394 -0.2654  1.7252
  878MOL0     H18473  10.283  11.458   0.336 -0.5773  1.3680  0.3086
  878MOL0     H18474  10.294  11.321   0.442 -1.7676  0.1311 -0.7259
  878MOL0     H18475  10.307  11.503   0.645 -0.1117  0.1400 -0.4908
  878MOL0     H18476  10.239  11.617   0.528 -0.1326  0.5138  2.0470
  878MOL0     H18477  10.091  11.354   0.613 -3.3214  1.5273  2.9371
  878MOL0     H18478  10.081  11.520   0.662 -0.3641 -1.2947  0.7565
  878MOL0     H18479  10.035  11.411   0.391  2.0140 -1.2177  1.4556
  878MOL0     H18480  10.030  11.579   0.417 -1.2624 -1.3329  0.0031
  878MOL0     H18481   9.863  11.632   0.672 -0.7921  0.4171 -0.4638
  878MOL0     H18482   9.620  11.731   0.670  2.7090 -0.4057 -0.6127
  878MOL0     H18483   9.488  11.645   0.613  1.9401  2.7227 -0.0779
  878MOL0     H18484   9.645  11.537   0.850 -0.6202  1.1602  1.0336
  878MOL0     H18485   9.500  11.462   0.780  2.0936 -1.6036 -2.0437
  878MOL0     H18486   9.544  11.716   0.934 -0.4710  0.8536 -0.7026
  878MOL0     H18487   9.446  11.565   0.969 -0.3165 -1.2688 -0.9514
  878MOL0     H18488   9.361  11.776   0.775 -2.2682  0.8698  1.1948
  878MOL0     H18489   9.328  11.775   0.938  0.9575  1.2868 -0.5834
  878MOL0     H18490   9.009  11.493   0.865 -1.6552 -0.6045 -0.1476
  878MOL0     H18491   8.695  11.569   0.794  1.5211  0.9316 -1.3186
  878MOL0     H18492   8.805  11.446   0.874 -0.0647 -0.4040  3.6513
  878MOL0     H18493   8.730  11.569   0.972  2.3649  1.1861  0.9328
  878MOL0     H18494   8.498  11.757   1.043  1.0278 -0.4331  0.7708
  878MOL0     H18495   8.290  11.876   1.107 -0.3774  0.6948 -0.1632
  878MOL0     H18496   8.071  11.912   1.092 -0.9383  0.4777  4.7871
  878MOL0     H18497   8.135  12.057   1.152  2.7749  1.1429 -2.6426
  878MOL0     H18498   7.883  12.071   1.158 -0.5742  1.2207  0.5359
  878MOL0     H18499   7.946  12.192   1.056  3.6348 -0.8550 -0.7446
  878MOL0     H18500   7.884  11.922   0.936 -2.6780 -0.7771 -2.0822
  878MOL0     H18501   7.890  12.076   0.854  1.4722  0.5992 -0.2117
  878MOL0     H18502   7.672  11.978   0.868  0.9711 -2.1961  1.3186
  878MOL0     H18503   7.661  11.990   1.042 -0.3862 -1.1025  0.1895
  878MOL0     H18504   7.645  12.218   0.830 -0.3158  4.5776  1.0018
  878MOL0     H18505   7.694  12.252   0.998  0.3431  1.4823 -1.3649
  878MOL0     H18506   7.445  12.084   0.936 -0.4288 -1.9199  2.1326
  878MOL0     H18507   7.480  12.165   1.091  2.3585  0.3773  0.5631
  878MOL0     H18508   7.458  12.342   0.841 -0.0784 -0.7321  0.3102
  878MOL0     H18509   7.436  12.384   1.018 -0.3959 -0.7813  0.8650
  878MOL0     H18510   7.227  12.383   0.882 -1.0051 -1.0704 -0.0428
  878MOL0     H18511   7.225  12.271   1.020  0.3211 -1.4256 -0.4224
  878MOL0     H18512   8.250  12.031   0.722  0.7309 -0.9522 -0.8498
  878MOL0     H18513   8.455  11.911   0.649  0.4687  1.4262 -0.5804
  878MOL0     H18514   8.960  11.968   0.764  0.5639 -0.4993 -0.5174
  878MOL0     H18515   9.175  11.881   0.778 -0.9252 -0.2196 -2.6888
  878MOL0     H18516  10.712  10.989   0.330 -0.1996  1.2702  2.7839
  878MOL0     H18517  10.825  10.760   0.317 -0.6398  0.9831 -0.4791
  878MOL0     H18518  11.333  10.600   0.274  0.3384 -1.6080 -0.5249
  878MOL0     H18519  11.533  10.440   0.322  0.2555 -0.8083 -0.5029
  878MOL0     H18520  11.572  10.223   0.343 -1.5309 -0.4047 -0.3574
  878MOL0     H18521  11.704  10.276   0.443  1.9032 -1.9694 -2.1255
  878MOL0     H18522  11.555  10.009   0.452  1.4714 -2.9627 -1.2101
  878MOL0     H18523  11.674  10.060   0.573  2.1520  0.5658 -0.8103
  878MOL0     H18524  11.811  10.109   0.323  0.3618  0.2940 -0.1816
  878MOL0     H18525  11.737   9.946   0.319 -1.1217 -1.9890  2.2613
  878MOL0     H18526  11.967   9.944   0.403 -2.4337 -1.5186 -2.9594
  878MOL0     H18527  11.859   9.900   0.542  1.2196 -1.5860 -2.0741
  878MOL0     H18528  12.082  10.265   0.604 -0.8745  0.8430 -1.0797
  878MOL0     H18529  11.318  10.292   0.654 -2.4788  0.0985 -0.0026
  878MOL0     H18530  11.137  10.482   0.626 -1.7345  2.2467 -2.8278
  879MOL0     O18531   1.615   9.346   7.191  0.6736 -0.3455 -0.0567
  879MOL0     C18532   1.663   9.402   7.095  0.1071 -0.3660 -0.0286
  879MOL0     O18533   1.595   9.474   7.004  0.3594  0.3969  0.6116
  879MOL0     C18534   1.460   9.478   6.997 -0.1358 -0.2213  0.3399
  879MOL0     C18535   1.355   9.389   7.037 -0.3392 -0.1081 -0.6479
  879MOL0     C18536   1.223   9.422   7.016  0.4189 -0.4274  0.7518
  879MOL0     C18537   1.182   9.537   6.943 -0.5027  0.4208 -0.8085
  879MOL0     O18538   1.054   9.582   6.928  0.2833  0.0845  0.3684
  879MOL0     C18539   0.939   9.522   7.000 -0.4759 -0.8547 -0.2696
  879MOL0     C18540   0.846   9.435   6.916 -0.5993  0.6233  0.3010
  879MOL0     C18541   0.714   9.413   6.969  0.3717  0.4073 -0.2123
  879MOL0     C18542   0.701   9.304   7.077 -1.1750 -0.2933  0.1998
  879MOL0     C18543   0.560   9.282   7.121  0.2479  0.7619 -1.0696
  879MOL0     C18544   0.500   9.373   7.226  0.5540  1.0303  0.1587
  879MOL0     C18545   0.348   9.361   7.252  0.2714 -0.5691 -0.1274
  879MOL0     C18546   0.323   9.325   7.394  0.1465  0.3779  0.0956
  879MOL0     N18547   0.180   9.301   7.419 -0.0751 -1.1323  0.3652
  879MOL0     C18548   0.080   9.394   7.404 -0.0309 -1.0423  0.0108
  879MOL0     C18549  -0.038   9.325   7.415 -0.2682 -0.2254  1.0974
  879MOL0     C18550  -0.181   9.372   7.392 -0.2991  0.1486  0.6407
  879MOL0     C18551  -0.261   9.276   7.306 -0.9658  0.0054  0.0079
  879MOL0     C18552  -0.411   9.306   7.301 -0.2749 -0.3579 -0.1828
  879MOL0     C18553  -0.462   9.268   7.168  0.0512  0.0953  0.7484
  879MOL0     O18554  -0.578   9.357   7.162  0.3893  0.7580  0.0739
  879MOL0     C18555  -0.707   9.324   7.204  0.4979 -0.0297  0.3386
  879MOL0     C18556  -0.795   9.424   7.180  0.3339  0.2974  0.3757
  879MOL0     C18557  -0.937   9.412   7.206 -0.4225  0.3823  0.4069
  879MOL0     C18558  -1.036   9.526   7.163  0.2405  0.0993 -0.4752
  879MOL0     C18559  -0.978   9.301   7.278  0.5820  0.6368  0.6029
  879MOL0     C18560  -1.117   9.302   7.331 -0.6236 -0.0976 -0.8862
  879MOL0     O18561  -1.159   9.415   7.393 -0.5634 -0.6040  0.1128
  879MOL0     C18562  -1.293   9.430   7.399 -0.1104 -0.2188  0.1389
  879MOL0     C18563  -1.376   9.384   7.290  0.9599 -0.1587  0.3208
  879MOL0     C18564  -1.513   9.396   7.296  0.6012  0.5483  0.7564
  879MOL0     C18565  -1.581   9.459   7.401  0.1655  0.5461  0.4021
  879MOL0     O18566  -1.715   9.487   7.417 -0.3550 -0.2458 -1.0212
  879MOL0     C18567  -1.805   9.428   7.326 -0.5859 -0.1543  0.4650
  879MOL0     C18568  -1.929   9.405   7.406 -0.8338  1.1818 -0.8019
  879MOL0     C18569  -2.033   9.342   7.320  0.9229 -0.3174 -0.8528
  879MOL0     C18570  -2.160   9.301   7.402  0.7567  0.6393 -0.4525
  879MOL0     C18571  -2.281   9.287   7.316 -0.1113  0.3944  0.1894
  879MOL0     C18572  -2.404   9.274   7.398 -0.1519  0.5492 -0.4686
  879MOL0     C18573  -2.535   9.284   7.312 -0.8296 -0.1263  0.1818
  879MOL0     C18574  -2.659   9.293   7.407 -0.8547  0.4935  0.2930
  879MOL0    Cl18575  -2.712   9.119   7.441 -0.0645 -0.5122  0.1169
  879MOL0     C18576  -1.493   9.514   7.498  0.6368  0.0970 -1.1510
  879MOL0     C18577  -1.357   9.495   7.503  0.0029  0.4393  0.3755
  879MOL0     O18578  -1.185   9.204   7.321  0.0456  0.0923  0.2970
  879MOL0     C18579  -0.889   9.195   7.314  0.7424 -0.2112  0.3285
  879MOL0     C18580  -0.747   9.199   7.272  0.7404 -0.4125  0.4020
  879MOL0     N18581   0.002   9.195   7.430  0.6758  1.0114  0.2269
  879MOL0     N18582   0.133   9.181   7.431 -0.0276  0.4616  0.0570
  879MOL0     C18583   1.289   9.615   6.894  0.1973  0.1731  0.1870
  879MOL0     C18584   1.420   9.591   6.927 -0.5825  0.0621  0.2167
  879MOL0     C18585   1.813   9.394   7.087  0.5019 -1.0168 -0.3559
  879MOL0     C18586   1.905   9.317   7.170  0.5929  0.7798 -0.4119
  879MOL0     C18587   2.040   9.320   7.150 -0.5189  0.3994 -0.1054
  879MOL0     C18588   2.097   9.395   7.047 -0.5049 -1.5466  0.0655
  879MOL0     O18589   2.237   9.388   7.041  0.0996 -0.5084  0.2289
  879MOL0     C18590   2.312   9.505   7.026 -0.8164 -0.6921 -1.0038
  879MOL0     C18591   2.453   9.450   6.997 -0.4127  0.6343  0.3380
  879MOL0     C18592   2.521   9.404   7.132  0.0621  0.1815 -0.6003
  879MOL0     C18593   2.667   9.361   7.129  0.5410  0.7884 -0.2347
  879MOL0     C18594   2.714   9.359   7.267  0.5325 -0.4591 -0.0751
  879MOL0     C18595   2.748   9.346   7.383  0.0008 -0.4213  0.0915
  879MOL0     C18596   2.011   9.472   6.964 -0.5115 -0.2118  0.3833
  879MOL0     C18597   1.877   9.477   6.991  0.4850  0.9031  0.7865
  879MOL0     H18598   1.400   9.307   7.092  0.0865  1.0192  0.7576
  879MOL0     H18599   1.147   9.355   7.055 -0.6962 -0.3171 -1.1084
  879MOL0     H18600   0.961   9.465   7.091 -5.2540  0.6753  2.2353
  879MOL0     H18601   0.883   9.605   7.045  1.6829  1.5050 -1.7058
  879MOL0     H18602   0.833   9.490   6.823  0.6546 -0.5889 -0.6325
  879MOL0     H18603   0.903   9.346   6.889  5.1534  4.2961 -1.6803
  879MOL0     H18604   0.681   9.508   7.013 -0.1744 -0.6405  1.7096
  879MOL0     H18605   0.638   9.384   6.896 -2.6301 -0.1151  2.8736
  879MOL0     H18606   0.736   9.208   7.040 -1.1014 -0.9005  1.7862
  879MOL0     H18607   0.769   9.327   7.160  1.8265 -1.2905 -1.8174
  879MOL0     H18608   0.496   9.275   7.033 -0.8843  0.1960 -0.2244
  879MOL0     H18609   0.543   9.182   7.162 -1.7806  1.0795 -1.0506
  879MOL0     H18610   0.553   9.367   7.322  1.2102 -1.3258 -0.2797
  879MOL0     H18611   0.517   9.474   7.188  3.1351  1.8016  2.9371
  879MOL0     H18612   0.298   9.456   7.233 -0.1350 -0.8071 -0.2474
  879MOL0     H18613   0.304   9.295   7.178 -0.9552 -1.0883  1.0142
  879MOL0     H18614   0.350   9.398   7.470 -2.0264  1.6865 -0.2928
  879MOL0     H18615   0.370   9.227   7.407  0.6043  0.2504 -2.1512
  879MOL0     H18616   0.086   9.499   7.378  1.3412 -1.6075 -2.1450
  879MOL0     H18617  -0.238   9.379   7.485 -0.7433 -0.6067  0.4344
  879MOL0     H18618  -0.181   9.469   7.341  0.1721 -1.2590 -2.2426
  879MOL0     H18619  -0.246   9.173   7.342  2.2377  0.4254  0.1822
  879MOL0     H18620  -0.207   9.283   7.211  0.4413  5.9831  0.8753
  879MOL0     H18621  -0.424   9.413   7.320  3.8205  0.0534  1.2703
  879MOL0     H18622  -0.457   9.253   7.384  2.3971  1.3063  2.5997
  879MOL0     H18623  -0.496   9.164   7.160 -2.1894  0.8092  0.3931
  879MOL0     H18624  -0.403   9.299   7.081 -0.6557  0.7427  0.4894
  879MOL0     H18625  -0.764   9.510   7.122  0.8964 -0.7549 -0.9521
  879MOL0     H18626  -1.137   9.486   7.152  0.4632 -0.8758  0.7657
  879MOL0     H18627  -1.040   9.603   7.241  0.0002 -1.3891  1.0401
  879MOL0     H18628  -1.015   9.578   7.069 -1.3326  0.0841 -0.8653
  879MOL0     H18629  -1.338   9.333   7.202 -1.3837 -0.4791 -0.5614
  879MOL0     H18630  -1.566   9.360   7.208 -0.3477  1.8093  0.7844
  879MOL0     H18631  -1.817   9.481   7.231  0.9313 -0.7604 -0.1014
  879MOL0     H18632  -1.769   9.328   7.300 -1.3229 -0.5688  1.0278
  879MOL0     H18633  -1.904   9.344   7.493  3.3728  3.3737 -0.2222
  879MOL0     H18634  -1.965   9.493   7.459  2.7972  1.1445  2.0760
  879MOL0     H18635  -2.003   9.254   7.263  2.8968 -1.0463  1.1534
  879MOL0     H18636  -2.055   9.423   7.249 -1.2622 -0.8798 -0.8899
  879MOL0     H18637  -2.151   9.214   7.467  1.0979  2.2900  1.7979
  879MOL0     H18638  -2.184   9.384   7.469  2.5111  0.8095  0.0131
  879MOL0     H18639  -2.258   9.205   7.247 -1.0299  1.2504 -1.1755
  879MOL0     H18640  -2.299   9.376   7.256  1.9107  1.4462  1.0351
  879MOL0     H18641  -2.399   9.184   7.460  2.7811  1.8952  1.4702
  879MOL0     H18642  -2.400   9.358   7.469 -2.0848  0.9869 -0.8172
  879MOL0     H18643  -2.536   9.184   7.267 -1.3066 -2.2167  4.3063
  879MOL0     H18644  -2.541   9.368   7.243  1.7106  1.9689  2.3166
  879MOL0     H18645  -2.750   9.334   7.361 -2.8097 -1.5005  2.0863
  879MOL0     H18646  -2.648   9.346   7.502 -0.8978 -0.4982  0.8669
  879MOL0     H18647  -1.529   9.579   7.577 -1.1217 -2.0251 -0.0955
  879MOL0     H18648  -1.301   9.523   7.592 -1.4898  1.8302  0.9150
  879MOL0     H18649  -0.929   9.112   7.371  0.8760 -0.3225  0.2597
  879MOL0     H18650  -0.669   9.126   7.291  1.9984  0.1909 -1.9183
  879MOL0     H18651   1.268   9.706   6.838  0.1996 -0.1875 -0.4062
  879MOL0     H18652   1.492   9.659   6.883 -0.2268 -1.3651 -1.5444
  879MOL0     H18653   1.863   9.247   7.241 -2.3550  1.1937 -1.5817
  879MOL0     H18654   2.111   9.257   7.203 -1.3415 -0.7781 -0.3573
  879MOL0     H18655   2.300   9.566   6.935  2.0049  1.6304  0.0217
  879MOL0     H18656   2.305   9.570   7.114 -0.6155 -1.2678 -0.5600
  879MOL0     H18657   2.516   9.524   6.946 -0.3759  1.3137  1.3450
  879MOL0     H18658   2.443   9.370   6.923  0.0060 -0.9354  1.9202
  879MOL0     H18659   2.465   9.325   7.184 -1.0298  1.6834  0.6288
  879MOL0     H18660   2.501   9.481   7.207  0.7301 -0.4016  0.1909
  879MOL0     H18661   2.726   9.431   7.068  0.4293  2.1359  1.1351
  879MOL0     H18662   2.687   9.263   7.085  2.2368 -1.2371  4.3375
  879MOL0     H18663   2.763   9.344   7.489 -0.8368 -3.8435  0.2491
  879MOL0     H18664   2.057   9.521   6.880  2.6797  1.2442  2.7707
  879MOL0     H18665   1.812   9.539   6.929 -0.5351  0.4432  1.3613
  880MOL0     O18666   7.330   1.514   1.023 -1.1300 -0.0993  0.4438
  880MOL0     C18667   7.335   1.456   0.913  0.6382  0.3669  0.4233
  880MOL0     O18668   7.228   1.393   0.848 -0.5965  0.2511  0.4551
  880MOL0     C18669   7.107   1.404   0.912  0.0705 -0.6272  0.1579
  880MOL0     C18670   7.023   1.509   0.881  0.4801 -0.1061  0.0278
  880MOL0     C18671   6.896   1.520   0.937  0.4891 -0.0601 -0.4648
  880MOL0     C18672   6.858   1.441   1.045 -0.5012 -0.3554  0.5079
  880MOL0     O18673   6.742   1.462   1.117  0.2597  0.3662  0.4706
  880MOL0     C18674   6.616   1.493   1.045 -0.2065 -0.7056  0.0920
  880MOL0     C18675   6.501   1.504   1.150  0.2873 -0.4753 -0.3978
  880MOL0     C18676   6.365   1.481   1.081  0.0065 -0.4635  0.4387
  880MOL0     C18677   6.264   1.577   1.141  0.7100 -0.7009  0.1505
  880MOL0     C18678   6.135   1.578   1.056 -0.1216  1.1076  0.1108
  880MOL0     C18679   6.060   1.441   1.079  0.2524 -0.2411  0.4175
  880MOL0     C18680   5.913   1.449   1.021 -0.9323  0.2492  0.0738
  880MOL0     C18681   5.824   1.515   1.122 -0.5629  0.5653  0.2173
  880MOL0     N18682   5.685   1.529   1.085  0.8075  0.2929  0.4666
  880MOL0     C18683   5.610   1.435   1.017 -0.2168  0.1966  0.1017
  880MOL0     C18684   5.482   1.469   1.035 -0.4687 -0.1499  0.8515
  880MOL0     C18685   5.364   1.399   0.984 -0.4787 -0.1532  0.2399
  880MOL0     C18686   5.232   1.479   0.995 -1.2123  0.6251 -0.1246
  880MOL0     C18687   5.111   1.405   0.927  0.4925  0.8412  0.0367
  880MOL0     C18688   4.989   1.502   0.919 -0.2757 -0.7048  0.3846
  880MOL0     O18689   4.881   1.426   0.872  0.1234 -0.1964  0.6076
  880MOL0     C18690   4.756   1.488   0.879  0.4929 -0.0059  0.2349
  880MOL0     C18691   4.648   1.419   0.827  0.0006 -0.0877 -0.2543
  880MOL0     C18692   4.517   1.463   0.837  0.6478  0.4371  0.5888
  880MOL0     C18693   4.426   1.384   0.750 -0.4954 -0.2673  0.6005
  880MOL0     C18694   4.486   1.589   0.896 -1.1577  0.0046 -0.5371
  880MOL0     C18695   4.352   1.652   0.913  0.1809  0.0197 -0.0786
  880MOL0     O18696   4.340   1.778   0.977  1.1465 -0.6583  0.0968
  880MOL0     C18697   4.220   1.851   0.969 -0.8712 -0.1412 -0.1091
  880MOL0     C18698   4.234   1.984   0.949 -0.4289 -0.2256 -0.9857
  880MOL0     C18699   4.119   2.061   0.932 -0.0889  0.5599  1.2404
  880MOL0     C18700   3.994   2.005   0.928  0.5432 -0.0311 -0.0674
  880MOL0     O18701   3.879   2.069   0.920 -1.1163 -1.0911 -0.0279
  880MOL0     C18702   3.874   2.212   0.897 -0.6510 -0.1731  0.5166
  880MOL0     C18703   3.721   2.245   0.909 -0.0511 -0.3964  0.2525
  880MOL0     C18704   3.634   2.179   0.797  0.4313  0.8143  0.3904
  880MOL0     C18705   3.486   2.206   0.806 -0.3127  0.0959  0.7054
  880MOL0     C18706   3.405   2.161   0.674  0.7326 -0.3340  0.6314
  880MOL0     C18707   3.278   2.244   0.649 -0.3619  0.5730  0.1377
  880MOL0     C18708   3.156   2.173   0.594 -0.1202 -0.0089 -0.4948
  880MOL0     C18709   3.025   2.250   0.613 -0.4763 -0.6485  0.3153
  880MOL0    Cl18710   2.978   2.270   0.776 -0.0283 -0.0370  0.0894
  880MOL0     C18711   3.973   1.866   0.952 -0.3527  0.1111  1.1853
  880MOL0     C18712   4.091   1.793   0.970  0.4221  0.6649  0.2523
  880MOL0     O18713   4.258   1.597   0.857  0.2191 -0.0330  0.6321
  880MOL0     C18714   4.596   1.657   0.958 -0.1898  0.4264  0.0849
  880MOL0     C18715   4.728   1.612   0.947  0.4826 -0.8506  0.9481
  880MOL0     N18716   5.473   1.584   1.123 -0.0080  0.2106  0.2345
  880MOL0     N18717   5.601   1.613   1.152  0.2153  0.0401 -0.0753
  880MOL0     C18718   6.936   1.333   1.080  0.0954 -0.2277  0.1162
  880MOL0     C18719   7.058   1.313   1.009  0.2644  0.6450  0.2329
  880MOL0     C18720   7.474   1.419   0.876  1.2900 -0.6843 -0.5390
  880MOL0     C18721   7.592   1.466   0.940  0.7997  0.1535  0.1775
  880MOL0     C18722   7.717   1.440   0.901 -0.0432  1.1138  1.0902
  880MOL0     C18723   7.732   1.359   0.787  0.6725  0.4391  0.6675
  880MOL0     O18724   7.853   1.319   0.735  0.5508  0.2124 -0.9606
  880MOL0     C18725   7.982   1.373   0.775 -0.2845  0.1328 -0.3445
  880MOL0     C18726   8.079   1.295   0.682 -0.7206 -0.3264  0.1425
  880MOL0     C18727   8.223   1.346   0.701 -0.2258  0.0182 -0.1005
  880MOL0     C18728   8.256   1.485   0.642  0.1170  0.1297 -0.7157
  880MOL0     C18729   8.292   1.480   0.500 -0.6137 -0.1616  0.4238
  880MOL0     C18730   8.336   1.475   0.388 -0.1300  0.5985  0.4863
  880MOL0     C18731   7.621   1.317   0.719  0.4797  0.6139  0.2746
  880MOL0     C18732   7.492   1.343   0.762  0.5029  0.6787  0.7704
  880MOL0     H18733   7.052   1.582   0.806 -1.2217 -0.6795 -1.2390
  880MOL0     H18734   6.836   1.606   0.910  0.4934  0.4241  0.9500
  880MOL0     H18735   6.618   1.578   0.975  1.4630 -2.2752 -1.8827
  880MOL0     H18736   6.597   1.401   0.989  1.4331 -0.3815 -1.0586
  880MOL0     H18737   6.503   1.426   1.227 -2.2882 -2.0871 -1.7994
  880MOL0     H18738   6.501   1.603   1.196 -1.1539 -1.1313  1.1231
  880MOL0     H18739   6.381   1.503   0.975  0.4604 -2.6680 -0.0019
  880MOL0     H18740   6.339   1.376   1.094  0.0088 -0.4491  0.5598
  880MOL0     H18741   6.233   1.539   1.238 -0.4832  3.9183  1.8498
  880MOL0     H18742   6.319   1.671   1.154  1.9571 -1.5806  1.4723
  880MOL0     H18743   6.069   1.658   1.092 -1.2702 -0.1894  1.0374
  880MOL0     H18744   6.170   1.581   0.953  1.9851  3.4017  0.7904
  880MOL0     H18745   6.119   1.363   1.031 -4.3302 -2.4912 -2.2209
  880MOL0     H18746   6.047   1.413   1.184 -0.9691  0.9533  0.6247
  880MOL0     H18747   5.911   1.500   0.925  1.3145 -1.0116 -0.7081
  880MOL0     H18748   5.893   1.343   1.005  2.2282 -0.0366 -3.3266
  880MOL0     H18749   5.866   1.615   1.129  0.6956  0.2241 -1.7282
  880MOL0     H18750   5.827   1.450   1.210 -1.4339 -1.4867 -1.1708
  880MOL0     H18751   5.642   1.339   0.977  2.0560  0.3737  1.3403
  880MOL0     H18752   5.380   1.371   0.879 -1.4388 -1.5006  0.4156
  880MOL0     H18753   5.346   1.309   1.045 -1.5071  0.3946  0.7725
  880MOL0     H18754   5.251   1.577   0.950  2.6971 -0.5250 -1.3764
  880MOL0     H18755   5.219   1.503   1.101 -2.8459  0.8565 -0.3501
  880MOL0     H18756   5.090   1.317   0.988  2.1754  1.0360  0.9513
  880MOL0     H18757   5.143   1.378   0.826 -2.0096 -1.5747 -0.2030
  880MOL0     H18758   5.004   1.586   0.851  2.2573 -0.4321  1.1832
  880MOL0     H18759   4.972   1.541   1.020  1.6260  0.0116  0.4570
  880MOL0     H18760   4.676   1.324   0.783  4.5076  0.4518  0.9672
  880MOL0     H18761   4.339   1.352   0.808  0.6798 -3.3166  0.8483
  880MOL0     H18762   4.383   1.450   0.674  0.9139  0.7551  0.6412
  880MOL0     H18763   4.470   1.300   0.696 -0.0930 -0.4594  1.2165
  880MOL0     H18764   4.334   2.025   0.959 -0.2778 -1.0736  2.5341
  880MOL0     H18765   4.130   2.169   0.934 -0.9888  0.7356 -0.7539
  880MOL0     H18766   3.940   2.266   0.965  0.0690  1.0713 -1.0968
  880MOL0     H18767   3.917   2.235   0.799 -1.7965 -0.8338 -0.1655
  880MOL0     H18768   3.688   2.218   1.010 -0.8079 -0.1021  0.0870
  880MOL0     H18769   3.719   2.354   0.897 -1.5683 -0.6369 -2.2885
  880MOL0     H18770   3.650   2.071   0.803  1.8022  0.9627 -0.1167
  880MOL0     H18771   3.674   2.204   0.698  0.8579 -1.1775  0.0153
  880MOL0     H18772   3.443   2.150   0.890  0.1412 -2.7784 -0.8687
  880MOL0     H18773   3.462   2.312   0.822 -0.1257  0.3382 -0.5342
  880MOL0     H18774   3.371   2.059   0.695 -1.6367  0.3184  0.2459
  880MOL0     H18775   3.464   2.169   0.583  0.6444 -2.6810  0.3023
  880MOL0     H18776   3.252   2.290   0.745 -0.6710  3.3578 -1.1884
  880MOL0     H18777   3.306   2.326   0.583  0.8974 -0.3385 -0.5054
  880MOL0     H18778   3.140   2.076   0.641 -0.6698 -0.4724 -1.6165
  880MOL0     H18779   3.176   2.155   0.488 -0.0852 -0.0352 -0.4836
  880MOL0     H18780   2.949   2.209   0.546 -1.5114  0.1141  0.9986
  880MOL0     H18781   3.037   2.354   0.582  0.9280 -0.7006  0.6009
  880MOL0     H18782   3.874   1.821   0.951 -0.1920 -0.2470  1.0875
  880MOL0     H18783   4.087   1.685   0.975 -1.0415  0.3815 -3.6933
  880MOL0     H18784   4.578   1.745   1.019 -0.2445  1.5888 -1.5628
  880MOL0     H18785   4.806   1.678   0.982 -0.0845  0.5402 -0.2897
  880MOL0     H18786   6.906   1.267   1.162 -0.2404 -0.3361 -0.0904
  880MOL0     H18787   7.116   1.227   1.042 -1.1584 -0.3054  0.3472
  880MOL0     H18788   7.587   1.534   1.024  3.1545  1.8066 -0.9029
  880MOL0     H18789   7.803   1.488   0.948  0.6697  2.0492 -1.0016
  880MOL0     H18790   7.988   1.483   0.775 -1.8467  0.2786  1.5704
  880MOL0     H18791   7.988   1.335   0.877  0.6817 -1.9035 -1.1164
  880MOL0     H18792   8.050   1.311   0.578  1.8608  0.1183 -0.5933
  880MOL0     H18793   8.074   1.193   0.719 -0.6592  0.3106  2.0268
  880MOL0     H18794   8.300   1.286   0.651 -2.2000 -1.4957 -1.4973
  880MOL0     H18795   8.235   1.350   0.809  1.7020 -1.3651 -0.2190
  880MOL0     H18796   8.344   1.522   0.695 -1.6083  1.0923  1.6361
  880MOL0     H18797   8.172   1.552   0.663 -2.3855 -2.7435 -0.7799
  880MOL0     H18798   8.378   1.472   0.290 -0.3932  2.1827  0.3064
  880MOL0     H18799   7.639   1.258   0.631  1.2604 -0.8249  1.3560
  880MOL0     H18800   7.405   1.299   0.715  2.3344  0.2569 -2.5550
  881MOL0     O18801   8.214   6.239  10.256 -0.1806 -1.0744  1.2259
  881MOL0     C18802   8.238   6.261  10.379  0.6286 -0.5723  1.5084
  881MOL0     O18803   8.156   6.328  10.463 -0.2973 -0.2885 -0.0480
  881MOL0     C18804   8.033   6.351  10.410 -0.7635 -0.3256 -0.6467
  881MOL0     C18805   7.995   6.476  10.361  0.0426 -0.6431 -0.4569
  881MOL0     C18806   7.866   6.487  10.308  0.4320  0.7919 -0.0633
  881MOL0     C18807   7.765   6.385  10.308 -0.9089  0.0864  0.2965
  881MOL0     O18808   7.645   6.417  10.259 -0.3636  0.7165  0.1040
  881MOL0     C18809   7.538   6.328  10.278 -0.0644 -0.3842 -0.7606
  881MOL0     C18810   7.404   6.386  10.225 -0.0485  0.6258 -0.1822
  881MOL0     C18811   7.272   6.312  10.250 -0.5096 -0.5986 -0.0941
  881MOL0     C18812   7.154   6.390  10.193 -0.0819 -0.1218 -0.2423
  881MOL0     C18813   7.037   6.406  10.294 -0.2285 -0.5020 -0.1523
  881MOL0     C18814   6.925   6.473  10.220  0.3379 -0.7892 -0.0818
  881MOL0     C18815   6.805   6.496  10.322 -0.5047 -1.0480  0.5411
  881MOL0     C18816   6.699   6.599  10.271  0.9931  0.5930  0.0614
  881MOL0     N18817   6.588   6.636  10.358 -0.0607 -0.1436 -0.0546
  881MOL0     C18818   6.476   6.698  10.327  0.2127 -0.2448  0.5854
  881MOL0     C18819   6.410   6.724  10.448 -0.2046  0.2881  0.7891
  881MOL0     C18820   6.286   6.806  10.467 -0.2524 -0.4529 -0.5688
  881MOL0     C18821   6.307   6.914  10.568 -0.6163 -0.2371  0.7556
  881MOL0     C18822   6.176   6.992  10.593 -0.1004 -0.5158 -0.2712
  881MOL0     C18823   6.070   6.995  10.479 -0.0358 -0.8278  0.3338
  881MOL0     O18824   6.124   7.069  10.363  0.1880 -0.2028 -0.6504
  881MOL0     C18825   6.044   7.088  10.255 -0.6279 -0.4753 -0.4418
  881MOL0     C18826   6.040   6.992  10.154  0.2311 -0.0934 -0.3853
  881MOL0     C18827   5.945   6.993  10.054 -0.1290  0.0601  0.2369
  881MOL0     C18828   5.959   6.880   9.946  0.5568  0.4410 -0.6537
  881MOL0     C18829   5.863   7.110  10.045  0.7547  0.2747 -0.5336
  881MOL0     C18830   5.747   7.112   9.947  0.0250 -0.7556 -0.5108
  881MOL0     O18831   5.667   7.226   9.945 -0.4101  0.2345 -0.1361
  881MOL0     C18832   5.559   7.238   9.860  1.0220 -0.5074 -0.6232
  881MOL0     C18833   5.581   7.271   9.722 -0.4745  0.3019 -0.2936
  881MOL0     C18834   5.477   7.260   9.631  0.3815  0.7010  0.0146
  881MOL0     C18835   5.354   7.224   9.676 -1.2271 -0.2513  0.4623
  881MOL0     O18836   5.253   7.222   9.580 -0.4585  0.2061  0.4566
  881MOL0     C18837   5.218   7.341   9.509 -0.3752  0.6029  0.5925
  881MOL0     C18838   5.084   7.316   9.437 -0.1353  1.1103 -0.0689
  881MOL0     C18839   4.967   7.357   9.534 -0.2717 -0.5334 -0.3967
  881MOL0     C18840   4.940   7.506   9.513 -0.7060  0.2353  0.3374
  881MOL0     C18841   4.803   7.538   9.561 -0.1353  0.2102 -0.2418
  881MOL0     C18842   4.764   7.687   9.522 -0.2971  0.3852 -0.4627
  881MOL0     C18843   4.846   7.784   9.600  0.8189 -0.4942  0.6041
  881MOL0     C18844   4.775   7.910   9.620  0.8798 -0.5295 -0.2035
  881MOL0    Cl18845   4.713   7.965   9.464  0.0379 -0.2921 -0.0238
  881MOL0     C18846   5.327   7.201   9.815  0.4963  0.4886 -0.5181
  881MOL0     C18847   5.430   7.194   9.905 -0.3800  0.1761 -0.3685
  881MOL0     O18848   5.736   7.026   9.864  0.5707  0.2288  0.1394
  881MOL0     C18849   5.883   7.218  10.130 -0.5752 -0.1814 -0.3555
  881MOL0     C18850   5.972   7.207  10.245  0.3110  1.4254 -0.2432
  881MOL0     N18851   6.489   6.664  10.542  0.0802  0.2636 -0.4605
  881MOL0     N18852   6.584   6.602  10.493  0.5594  0.0138  0.5948
  881MOL0     C18853   7.809   6.260  10.363 -0.6419 -0.4239 -0.1548
  881MOL0     C18854   7.939   6.248  10.410 -0.5339  0.7705 -0.2725
  881MOL0     C18855   8.362   6.221  10.420  0.4300  0.3508 -1.4115
  881MOL0     C18856   8.401   6.236  10.555 -0.7871  0.3114 -0.1443
  881MOL0     C18857   8.520   6.182  10.598  0.0355  0.2462  0.4480
  881MOL0     C18858   8.599   6.104  10.511 -0.8065 -0.3230 -0.4555
  881MOL0     O18859   8.717   6.060  10.568 -0.6066 -0.4811  0.1645
  881MOL0     C18860   8.826   6.012  10.485 -0.0240 -0.2113  0.0031
  881MOL0     C18861   8.949   5.990  10.564 -0.2607 -0.7229  0.1864
  881MOL0     C18862   9.085   5.987  10.493 -0.1481  0.1910  0.1262
  881MOL0     C18863   9.179   5.894  10.574 -0.1921 -0.2216  0.1110
  881MOL0     C18864   9.312   5.888  10.514  0.1758 -1.1012 -0.4881
  881MOL0     C18865   9.427   5.887  10.464  0.1367 -0.1559 -0.4497
  881MOL0     C18866   8.572   6.104  10.382 -0.0599  0.5719  0.6217
  881MOL0     C18867   8.457   6.167  10.337  0.7800  1.0676 -0.2963
  881MOL0     H18868   8.059   6.563  10.370  0.4470 -1.0942  1.3337
  881MOL0     H18869   7.841   6.580  10.257 -0.4485  0.5516 -0.0663
  881MOL0     H18870   7.565   6.237  10.223  0.7389 -0.0281 -0.9636
  881MOL0     H18871   7.514   6.308  10.383 -2.4997  0.3221 -1.1132
  881MOL0     H18872   7.387   6.487  10.261 -0.9202  1.0029 -1.5541
  881MOL0     H18873   7.417   6.391  10.116 -2.9489  0.3662 -0.6294
  881MOL0     H18874   7.281   6.213  10.206  0.2801 -0.2237 -0.7897
  881MOL0     H18875   7.269   6.318  10.359  2.8853  0.7854  0.0341
  881MOL0     H18876   7.189   6.489  10.163  1.7133 -0.2136  1.3978
  881MOL0     H18877   7.118   6.340  10.102 -1.1861 -0.6541  0.4539
  881MOL0     H18878   7.014   6.305  10.330  0.4716 -0.3937  0.6474
  881MOL0     H18879   7.071   6.477  10.370 -1.6873  2.9380 -2.4731
  881MOL0     H18880   6.969   6.570  10.193 -1.6546  0.3593  0.5422
  881MOL0     H18881   6.894   6.410  10.137 -0.3892  0.0044 -0.4355
  881MOL0     H18882   6.764   6.397  10.342 -0.8340 -1.6218 -2.4867
  881MOL0     H18883   6.840   6.544  10.414 -0.9898  1.4174 -0.4884
  881MOL0     H18884   6.644   6.566  10.182  2.4273 -2.4306  0.1926
  881MOL0     H18885   6.744   6.692  10.234 -1.8154  3.3597  2.8407
  881MOL0     H18886   6.444   6.735  10.231  1.0816  0.0164  0.3918
  881MOL0     H18887   6.255   6.848  10.371 -0.3195 -0.2441 -0.4551
  881MOL0     H18888   6.210   6.733  10.495 -0.5347 -0.7509 -2.0505
  881MOL0     H18889   6.391   6.980  10.544 -0.6992 -0.5872 -0.5947
  881MOL0     H18890   6.345   6.861  10.656  3.1288 -1.3163 -1.2532
  881MOL0     H18891   6.200   7.096  10.615  0.4158  0.0253 -2.9671
  881MOL0     H18892   6.134   6.945  10.682  2.7893 -1.4691  0.6674
  881MOL0     H18893   5.979   7.040  10.520  0.7448  0.6421  0.5379
  881MOL0     H18894   6.046   6.891  10.456 -2.6904  0.4872 -3.7000
  881MOL0     H18895   6.108   6.907  10.157 -1.1616 -1.2647 -0.8402
  881MOL0     H18896   5.940   6.927   9.849  2.0470  2.5225  0.0109
  881MOL0     H18897   6.062   6.842   9.945  0.1578 -0.7099  0.2269
  881MOL0     H18898   5.900   6.792   9.972 -1.9754  1.4543 -2.5861
  881MOL0     H18899   5.680   7.299   9.688 -1.5116  1.8773 -2.1727
  881MOL0     H18900   5.502   7.260   9.525 -1.0016  0.2861 -0.3429
  881MOL0     H18901   5.218   7.427   9.575  5.5524 -0.0721  2.0270
  881MOL0     H18902   5.287   7.365   9.427  1.5177  0.4500  2.0773
  881MOL0     H18903   5.084   7.384   9.351  1.5282  0.7842 -0.3586
  881MOL0     H18904   5.071   7.211   9.409  1.8855  0.1657  2.1327
  881MOL0     H18905   4.993   7.328   9.636  1.1832 -0.2684 -0.6686
  881MOL0     H18906   4.876   7.306   9.502  0.2185 -0.8934 -1.2485
  881MOL0     H18907   5.022   7.555   9.567 -0.5748  0.1500  0.2184
  881MOL0     H18908   4.941   7.543   9.410 -0.1346 -0.3127  0.1345
  881MOL0     H18909   4.788   7.512   9.667 -0.2647 -2.7108 -0.8924
  881MOL0     H18910   4.730   7.474   9.510  1.4815 -0.3830 -1.9166
  881MOL0     H18911   4.760   7.707   9.414  1.9005  0.3728 -0.5879
  881MOL0     H18912   4.663   7.698   9.562  0.4047 -0.9767  1.9019
  881MOL0     H18913   4.935   7.809   9.542 -1.4517  1.4032 -2.4159
  881MOL0     H18914   4.881   7.746   9.696 -0.8671 -3.3023  0.2057
  881MOL0     H18915   4.838   7.985   9.669 -0.7957  0.7762  0.0545
  881MOL0     H18916   4.689   7.895   9.686 -0.0101 -2.5561 -1.7138
  881MOL0     H18917   5.225   7.186   9.850  0.3019  1.7900 -0.4561
  881MOL0     H18918   5.415   7.183  10.012  0.2597  4.0323  0.2635
  881MOL0     H18919   5.827   7.310  10.122 -0.4163 -0.1985 -2.0802
  881MOL0     H18920   5.971   7.282  10.324  0.7178 -0.1601  1.3085
  881MOL0     H18921   7.736   6.183  10.384  0.4661 -1.4571  0.0113
  881MOL0     H18922   7.961   6.158  10.467 -3.0065  0.7313  0.7549
  881MOL0     H18923   8.335   6.287  10.623 -0.0791  0.0505  0.7517
  881MOL0     H18924   8.536   6.203  10.703  1.8274 -1.7389  0.6523
  881MOL0     H18925   8.786   5.919  10.443 -1.3502 -0.1329  1.0316
  881MOL0     H18926   8.839   6.083  10.402 -0.1688  0.2219  0.3495
  881MOL0     H18927   8.944   5.891  10.610  1.1697 -1.5122 -1.2461
  881MOL0     H18928   8.952   6.067  10.642  3.1210 -1.1433  0.6249
  881MOL0     H18929   9.129   6.087  10.487 -0.0232  0.2791  1.8380
  881MOL0     H18930   9.078   5.948  10.392 -0.6255  0.6423 -0.0222
  881MOL0     H18931   9.138   5.793  10.579 -3.9386  1.1901  2.8288
  881MOL0     H18932   9.189   5.924  10.679 -1.1671  0.4121  0.0412
  881MOL0     H18933   9.524   5.882  10.420 -0.1400 -0.2035 -1.0597
  881MOL0     H18934   8.636   6.061  10.306 -3.0956 -2.1129 -0.6101
  881MOL0     H18935   8.436   6.168  10.230  0.9087 -0.0343 -0.3447
  882MOL0     O18936   8.512   5.700   4.011  0.0058 -0.1273 -0.0805
  882MOL0     C18937   8.553   5.813   4.019 -0.0790  0.8875 -0.1603
  882MOL0     O18938   8.503   5.925   3.956  0.6684  0.1599 -1.6664
  882MOL0     C18939   8.369   5.949   3.934 -0.7245 -0.0502 -0.3350
  882MOL0     C18940   8.340   6.046   3.841  0.5301 -0.0877  0.1278
  882MOL0     C18941   8.201   6.077   3.812  0.7003 -0.4567 -0.3340
  882MOL0     C18942   8.093   6.008   3.872 -0.2102 -0.6735  0.2917
  882MOL0     O18943   7.967   6.053   3.841 -0.1735  0.2597  0.7272
  882MOL0     C18944   7.854   6.032   3.940 -0.4169  0.6303  0.4745
  882MOL0     C18945   7.885   6.100   4.080  1.0374  0.0582 -0.4954
  882MOL0     C18946   7.810   6.018   4.193  0.1431 -0.6033  0.3423
  882MOL0     C18947   7.906   5.905   4.251 -0.6640  0.5913  0.0806
  882MOL0     C18948   7.862   5.882   4.399 -0.1906  0.1471  0.1080
  882MOL0     C18949   7.914   5.747   4.466  0.0455 -1.1510  0.3522
  882MOL0     C18950   8.064   5.734   4.505 -0.1970 -0.3863 -0.2212
  882MOL0     C18951   8.104   5.608   4.574 -0.3946  0.0517  0.4572
  882MOL0     N18952   8.243   5.592   4.629 -0.1740 -0.0263  0.3680
  882MOL0     C18953   8.291   5.476   4.691  0.1565  0.2664  1.1783
  882MOL0     C18954   8.421   5.514   4.720 -0.8689  0.3085 -0.7221
  882MOL0     C18955   8.506   5.424   4.803 -0.1149 -0.0964  0.1018
  882MOL0     C18956   8.455   5.395   4.951  0.1334 -0.7871  1.0028
  882MOL0     C18957   8.543   5.290   5.030  0.0446  0.7128  0.0001
  882MOL0     C18958   8.497   5.147   4.995  0.0962  0.4200 -0.5947
  882MOL0     O18959   8.556   5.044   5.085  0.4160 -0.0648 -0.4308
  882MOL0     C18960   8.695   5.030   5.067  0.6678  0.4905  0.1658
  882MOL0     C18961   8.784   5.036   5.167  0.3542 -1.0029  0.5384
  882MOL0     C18962   8.922   5.035   5.148 -0.3125 -0.2481  0.0990
  882MOL0     C18963   9.000   5.061   5.272  0.2569 -0.1405  0.7864
  882MOL0     C18964   8.976   5.007   5.022 -0.8741 -0.6055  0.9186
  882MOL0     C18965   9.125   5.001   4.990 -0.4326  0.4055  0.4115
  882MOL0     O18966   9.161   5.043   4.861  0.0084 -0.5400  0.0819
  882MOL0     C18967   9.266   4.986   4.803 -0.3710  0.7401  0.4348
  882MOL0     C18968   9.318   5.059   4.691 -0.3291 -0.1978 -0.0181
  882MOL0     C18969   9.428   5.014   4.618 -0.7777 -0.1517 -0.5007
  882MOL0     C18970   9.484   4.892   4.655 -0.6821 -0.1091 -0.6969
  882MOL0     O18971   9.597   4.854   4.584 -0.7570  0.1195 -0.4491
  882MOL0     C18972   9.631   4.712   4.570 -0.2122  0.0999 -0.0676
  882MOL0     C18973   9.738   4.666   4.667  0.1484 -0.5077  0.0036
  882MOL0     C18974   9.877   4.731   4.637  0.4741 -0.3485  0.0025
  882MOL0     C18975   9.982   4.675   4.721 -0.5882 -0.5221 -0.1897
  882MOL0     C18976  10.105   4.772   4.734  0.3553 -0.5793  0.6623
  882MOL0     C18977  10.203   4.707   4.830  0.2739  0.2053 -0.5802
  882MOL0     C18978  10.336   4.789   4.847 -0.0616  0.7093  0.5176
  882MOL0     C18979  10.305   4.920   4.911  0.0331  0.0319 -0.2505
  882MOL0    Cl18980  10.275   4.876   5.087 -1.0055 -0.2301 -0.0137
  882MOL0     C18981   9.433   4.809   4.756  0.9958 -0.0544 -0.0827
  882MOL0     C18982   9.326   4.856   4.832 -0.0474 -0.5108  0.1491
  882MOL0     O18983   9.206   4.967   5.082 -0.0203 -0.1371  0.6394
  882MOL0     C18984   8.886   5.007   4.913 -0.5764  0.7380  0.0930
  882MOL0     C18985   8.747   5.012   4.937  0.6037 -0.3372 -0.5186
  882MOL0     N18986   8.442   5.641   4.681 -0.2989 -0.8688 -0.4690
  882MOL0     N18987   8.336   5.688   4.623 -0.1724  0.0490  0.3305
  882MOL0     C18988   8.122   5.911   3.954 -0.8149  1.1057 -0.2721
  882MOL0     C18989   8.261   5.882   3.986 -0.4977  0.2307  0.0538
  882MOL0     C18990   8.681   5.831   4.091 -0.2700 -0.1418 -0.2003
  882MOL0     C18991   8.759   5.724   4.140  0.1956 -0.4430  0.4677
  882MOL0     C18992   8.879   5.750   4.211 -0.1898 -0.1614 -0.5455
  882MOL0     C18993   8.932   5.870   4.228 -0.4689  0.0626  0.0535
  882MOL0     O18994   9.057   5.884   4.288 -0.5303  0.2075  0.3016
  882MOL0     C18995   9.145   5.773   4.322 -0.4999 -0.6510  0.4262
  882MOL0     C18996   9.288   5.824   4.355 -0.6571 -0.3442  0.1494
  882MOL0     C18997   9.391   5.713   4.382 -0.6405 -0.6395 -0.8807
  882MOL0     C18998   9.410   5.583   4.301 -0.0660 -0.3860  0.2486
  882MOL0     C18999   9.406   5.613   4.158  0.1437  0.1821  0.7563
  882MOL0     C19000   9.384   5.613   4.039 -0.7493  0.7020  1.0258
  882MOL0     C19001   8.858   5.977   4.169  0.3173  0.3430 -0.1407
  882MOL0     C19002   8.733   5.961   4.108  0.3137  1.1251 -0.5714
  882MOL0     H19003   8.427   6.104   3.813  0.5707 -0.0000  0.4345
  882MOL0     H19004   8.173   6.153   3.739 -0.8801  0.4831  1.1865
  882MOL0     H19005   7.767   6.079   3.894 -1.6779 -2.1383 -0.2146
  882MOL0     H19006   7.836   5.926   3.962  1.5549  0.0767 -0.3273
  882MOL0     H19007   7.993   6.111   4.093  0.8410  4.6741 -0.9967
  882MOL0     H19008   7.841   6.200   4.077 -0.1616 -0.4519 -0.7983
  882MOL0     H19009   7.775   6.088   4.269  1.5747  1.2199 -0.5862
  882MOL0     H19010   7.721   5.979   4.143 -0.5629  2.8220 -1.3624
  882MOL0     H19011   7.895   5.816   4.188  1.3536 -0.4535  1.0962
  882MOL0     H19012   8.010   5.937   4.252  0.1042 -1.6601 -0.4959
  882MOL0     H19013   7.885   5.965   4.465 -0.4894  1.2589 -1.1539
  882MOL0     H19014   7.753   5.868   4.393 -0.1454 -1.5666  1.8741
  882MOL0     H19015   7.855   5.731   4.557 -1.1246  1.1293  0.0616
  882MOL0     H19016   7.899   5.669   4.391 -1.1289  1.5494 -2.4498
  882MOL0     H19017   8.131   5.752   4.421 -1.2428 -0.8295 -1.1663
  882MOL0     H19018   8.082   5.820   4.570  0.6176 -0.4625 -0.3397
  882MOL0     H19019   8.088   5.524   4.506  0.4683  0.3157 -0.0852
  882MOL0     H19020   8.030   5.585   4.652 -3.2064 -0.2680 -2.1062
  882MOL0     H19021   8.232   5.385   4.698 -0.8118  0.0197 -4.7243
  882MOL0     H19022   8.519   5.326   4.757 -2.8966 -0.8964  0.8032
  882MOL0     H19023   8.603   5.472   4.819 -0.0150 -0.1347 -0.3944
  882MOL0     H19024   8.355   5.359   4.925  0.3240  0.3209 -1.5849
  882MOL0     H19025   8.459   5.488   5.009  0.4791  0.7986 -1.3997
  882MOL0     H19026   8.540   5.304   5.139  0.1817 -1.5373  0.3343
  882MOL0     H19027   8.651   5.303   5.017  0.2963  0.3128  1.4818
  882MOL0     H19028   8.516   5.121   4.891 -2.5367 -2.3249 -0.5162
  882MOL0     H19029   8.388   5.142   4.992  0.1060  0.7894 -2.3671
  882MOL0     H19030   8.750   5.042   5.269  0.8108 -1.1535  0.7017
  882MOL0     H19031   9.071   5.142   5.254 -0.5046  0.6171  1.1346
  882MOL0     H19032   8.940   5.105   5.352  2.4550  1.6414  1.5548
  882MOL0     H19033   9.055   4.970   5.300  1.1664  0.1666  0.0073
  882MOL0     H19034   9.268   5.154   4.673 -0.1064  0.1965  1.3047
  882MOL0     H19035   9.481   5.065   4.538  1.6785 -1.8985 -0.1065
  882MOL0     H19036   9.540   4.651   4.581 -0.3549  0.4118  0.4950
  882MOL0     H19037   9.657   4.695   4.465 -1.9095 -3.5106 -0.0930
  882MOL0     H19038   9.720   4.689   4.772  1.9455 -0.7093  0.3767
  882MOL0     H19039   9.744   4.558   4.657 -2.6969 -1.2957  4.2484
  882MOL0     H19040   9.858   4.837   4.651 -0.6717 -0.6534  0.8782
  882MOL0     H19041   9.901   4.714   4.531 -2.9532  1.6718 -1.2857
  882MOL0     H19042   9.951   4.636   4.818 -0.8087  2.7580  1.1865
  882MOL0     H19043  10.012   4.583   4.669 -0.0025 -0.3923 -0.0836
  882MOL0     H19044  10.069   4.872   4.762 -1.4406 -0.9167 -0.3101
  882MOL0     H19045  10.149   4.786   4.635  1.2115  0.4727  1.1752
  882MOL0     H19046  10.149   4.694   4.924 -2.3972 -0.0114 -2.0363
  882MOL0     H19047  10.238   4.611   4.790  0.2687  0.1438 -0.4373
  882MOL0     H19048  10.366   4.812   4.745 -3.6059  1.4877 -0.4774
  882MOL0     H19049  10.420   4.737   4.894  1.5023  4.2250  1.9614
  882MOL0     H19050  10.217   4.974   4.874 -0.3846  1.3582  2.4019
  882MOL0     H19051  10.392   4.987   4.912  1.4116 -1.6852  0.8866
  882MOL0     H19052   9.469   4.708   4.776  1.2125  0.2275  0.9811
  882MOL0     H19053   9.259   4.805   4.900 -1.3080 -0.9888 -1.3961
  882MOL0     H19054   8.913   4.997   4.808  0.3372  1.2478  0.2699
  882MOL0     H19055   8.670   5.002   4.861  0.1231  1.3506 -0.3056
  882MOL0     H19056   8.043   5.847   3.991  0.3875 -0.1638  0.1636
  882MOL0     H19057   8.276   5.797   4.052  0.9809 -0.5946 -1.2739
  882MOL0     H19058   8.716   5.624   4.133 -0.2926 -0.3997  2.3777
  882MOL0     H19059   8.935   5.675   4.267  0.3703 -0.0021 -0.8784
  882MOL0     H19060   9.102   5.704   4.396 -1.3016 -1.1815 -0.5226
  882MOL0     H19061   9.152   5.710   4.233 -1.8866 -0.8206  0.4125
  882MOL0     H19062   9.281   5.889   4.443 -0.5489 -0.6757  0.4007
  882MOL0     H19063   9.330   5.879   4.270  1.3286 -1.3386  0.4552
  882MOL0     H19064   9.379   5.682   4.486 -3.4317  0.2820 -0.8305
  882MOL0     H19065   9.489   5.760   4.386  0.2703 -2.5309  0.2735
  882MOL0     H19066   9.341   5.502   4.328  3.2546 -3.5099  0.1774
  882MOL0     H19067   9.509   5.540   4.323 -0.8460 -2.3060  0.2350
  882MOL0     H19068   9.362   5.616   3.934  3.8458  2.9841 -0.1267
  882MOL0     H19069   8.901   6.077   4.175  1.0891  0.1034 -1.3134
  882MOL0     H19070   8.682   6.052   4.077 -1.1601  0.6454  0.3275
  883MOL0     O19071   6.177   0.174   3.757  0.4985 -0.0656  0.2061
  883MOL0     C19072   6.190   0.291   3.786 -0.1211 -0.1577 -0.7338
  883MOL0     O19073   6.091   0.389   3.797  0.0417 -0.1031  0.0603
  883MOL0     C19074   5.964   0.355   3.751  0.2736  0.1381  0.3356
  883MOL0     C19075   5.913   0.433   3.648 -0.8601  0.1221 -0.4775
  883MOL0     C19076   5.790   0.417   3.593  0.4409 -0.1293  0.7163
  883MOL0     C19077   5.724   0.302   3.618 -0.3653 -0.7696  0.1576
  883MOL0     O19078   5.595   0.298   3.564 -0.1205  0.2158  0.5141
  883MOL0     C19079   5.525   0.169   3.560  0.0035 -0.8084 -0.0705
  883MOL0     C19080   5.400   0.191   3.473  0.5304  0.1611  0.0361
  883MOL0     C19081   5.298   0.067   3.476  0.2973  0.2220 -0.0644
  883MOL0     C19082   5.176   0.089   3.564 -0.7216 -0.3433 -0.6396
  883MOL0     C19083   5.054   0.022   3.507 -0.0091  0.8955 -0.4191
  883MOL0     C19084   4.933   0.074   3.584 -0.2020  0.1146  0.1251
  883MOL0     C19085   4.807  -0.011   3.583 -0.0548  0.7774  0.0509
  883MOL0     C19086   4.730   0.000   3.449 -0.1932 -0.4290  0.5355
  883MOL0     N19087   4.598   0.036   3.481 -0.5954 -0.4777  0.8467
  883MOL0     C19088   4.498  -0.051   3.528 -0.0425  0.8566  0.8601
  883MOL0     C19089   4.392   0.033   3.548 -0.9276 -0.2950  0.1514
  883MOL0     C19090   4.272  -0.010   3.629  0.1734  0.1495  0.2502
  883MOL0     C19091   4.212  -0.145   3.576  0.5131 -0.5561 -0.3155
  883MOL0     C19092   4.097  -0.194   3.673  0.0439  0.1147 -0.0220
  883MOL0     C19093   4.089  -0.348   3.670  1.0967 -0.2915  0.4287
  883MOL0     O19094   4.019  -0.397   3.552  0.3599  0.1825 -0.0556
  883MOL0     C19095   3.914  -0.472   3.587  0.3559  0.5999 -0.0635
  883MOL0     C19096   3.918  -0.590   3.665  0.9661  0.5190 -0.7519
  883MOL0     C19097   3.803  -0.661   3.697  0.3083 -1.0583  0.3175
  883MOL0     C19098   3.817  -0.764   3.813 -0.4025 -0.0879 -0.1047
  883MOL0     C19099   3.680  -0.618   3.638  0.4908 -0.5617  0.2135
  883MOL0     C19100   3.544  -0.678   3.676  0.2475  0.4979 -0.2812
  883MOL0     O19101   3.545  -0.776   3.758 -0.5018 -0.7008  0.2269
  883MOL0     C19102   3.438  -0.842   3.812 -0.2198 -0.7503 -0.1721
  883MOL0     C19103   3.471  -0.950   3.890  0.4851  0.0235  0.0999
  883MOL0     C19104   3.374  -1.031   3.937  0.3898  0.2086 -0.2683
  883MOL0     C19105   3.239  -0.993   3.920 -0.1889  0.0358 -0.2252
  883MOL0     O19106   3.135  -1.066   3.972 -0.5016 -0.8962 -0.5432
  883MOL0     C19107   3.151  -1.197   4.024  0.1124  0.6688 -0.0134
  883MOL0     C19108   3.018  -1.262   4.058 -0.9291 -0.0135 -0.0936
  883MOL0     C19109   2.900  -1.215   3.969  0.1759  0.3146  0.4942
  883MOL0     C19110   2.778  -1.311   3.981 -0.7673 -0.2492 -0.1565
  883MOL0     C19111   2.654  -1.254   3.933 -0.6884  0.2922 -0.6745
  883MOL0     C19112   2.536  -1.335   3.995 -1.0244 -0.2861  0.1824
  883MOL0     C19113   2.400  -1.311   3.928 -0.4224  0.7229  0.2981
  883MOL0     C19114   2.286  -1.355   4.028 -0.0294 -0.1629 -0.4886
  883MOL0    Cl19115   2.299  -1.504   4.122 -0.2637 -0.1665  0.5805
  883MOL0     C19116   3.214  -0.872   3.864 -0.0187  1.0367 -0.6264
  883MOL0     C19117   3.308  -0.797   3.806 -0.2903 -0.2669  0.7643
  883MOL0     O19118   3.446  -0.626   3.627  0.3521 -0.4394  0.1324
  883MOL0     C19119   3.678  -0.498   3.565  0.6113 -0.7535 -0.8327
  883MOL0     C19120   3.793  -0.432   3.527  0.5632 -0.5329  0.2328
  883MOL0     N19121   4.419   0.152   3.492 -0.7368 -1.0992  0.8394
  883MOL0     N19122   4.544   0.157   3.458  0.2561 -0.9217  0.5041
  883MOL0     C19123   5.766   0.219   3.717 -0.7961 -0.0752 -0.9304
  883MOL0     C19124   5.877   0.244   3.797 -0.7879 -1.2731  0.2362
  883MOL0     C19125   6.317   0.335   3.833 -1.4481 -0.5483  0.1609
  883MOL0     C19126   6.434   0.274   3.785 -0.3161  0.4433 -0.9231
  883MOL0     C19127   6.555   0.319   3.816  1.0688 -0.0857 -0.1712
  883MOL0     C19128   6.578   0.436   3.895  0.0940 -0.0954  0.1059
  883MOL0     O19129   6.699   0.490   3.928 -0.8105  0.2772 -0.6887
  883MOL0     C19130   6.823   0.429   3.877  0.7506 -0.2398 -0.1258
  883MOL0     C19131   6.941   0.488   3.938 -0.5631  0.0216  0.4282
  883MOL0     C19132   7.069   0.429   3.874  0.9174 -0.7522  0.3108
  883MOL0     C19133   7.192   0.527   3.896 -0.2123  0.7319 -0.0445
  883MOL0     C19134   7.322   0.462   3.861 -0.2415 -0.3575  0.3375
  883MOL0     C19135   7.429   0.417   3.821 -0.8660  0.6222 -0.4477
  883MOL0     C19136   6.467   0.500   3.944  0.8808  0.8440 -0.0224
  883MOL0     C19137   6.335   0.445   3.920  0.6980 -0.6577 -0.7362
  883MOL0     H19138   5.961   0.527   3.624  1.0075 -0.7686 -0.4465
  883MOL0     H19139   5.756   0.478   3.510  2.2319 -1.0532 -0.7820
  883MOL0     H19140   5.583   0.093   3.507  1.6620 -0.1254  0.6925
  883MOL0     H19141   5.499   0.132   3.659 -1.4817  2.0017  0.6904
  883MOL0     H19142   5.353   0.288   3.488 -1.6699 -0.2792 -3.0011
  883MOL0     H19143   5.438   0.199   3.370 -1.0357 -2.2118 -0.8395
  883MOL0     H19144   5.262   0.049   3.374 -1.8303 -2.7495  1.0593
  883MOL0     H19145   5.363  -0.012   3.515  1.6940  0.0394 -2.5639
  883MOL0     H19146   5.218   0.068   3.663  1.9761  1.1475 -1.3684
  883MOL0     H19147   5.168   0.198   3.554  0.0396 -0.3494 -1.3605
  883MOL0     H19148   5.035   0.047   3.403  0.0578 -1.4344 -1.0540
  883MOL0     H19149   5.047  -0.087   3.518  0.0124  0.9950  0.7453
  883MOL0     H19150   4.959   0.069   3.690 -0.0612  1.6073  0.1908
  883MOL0     H19151   4.912   0.180   3.566  1.9367  0.8584  1.5400
  883MOL0     H19152   4.833  -0.118   3.586  0.0747  0.8221  0.6498
  883MOL0     H19153   4.747   0.015   3.670  0.0205  2.8906 -0.4903
  883MOL0     H19154   4.720  -0.098   3.401 -0.0729 -0.4606  0.5754
  883MOL0     H19155   4.782   0.067   3.380 -0.5918 -1.2203 -0.5660
  883MOL0     H19156   4.504  -0.153   3.565 -3.1940  0.6377  1.0407
  883MOL0     H19157   4.291  -0.010   3.737 -0.4739  0.7397  0.3674
  883MOL0     H19158   4.192   0.062   3.611 -0.0449 -0.1546 -0.0075
  883MOL0     H19159   4.296  -0.215   3.569  1.4605  0.5198  0.0850
  883MOL0     H19160   4.171  -0.131   3.476  2.5581  1.5834 -0.9157
  883MOL0     H19161   4.004  -0.159   3.628  0.1772 -1.2110 -1.4240
  883MOL0     H19162   4.110  -0.162   3.777 -0.6418 -4.0279  1.5616
  883MOL0     H19163   4.036  -0.372   3.762  1.0633 -0.0112  0.4840
  883MOL0     H19164   4.185  -0.398   3.684  0.5074 -1.2798  1.0295
  883MOL0     H19165   4.020  -0.611   3.698  1.2269  2.7263 -0.0214
  883MOL0     H19166   3.912  -0.761   3.869  0.3581 -0.4768 -1.3464
  883MOL0     H19167   3.743  -0.743   3.891 -2.4887  3.9072 -2.8281
  883MOL0     H19168   3.815  -0.868   3.781  0.8901  0.6957 -3.1145
  883MOL0     H19169   3.577  -0.974   3.894  0.5059 -0.0985 -0.9247
  883MOL0     H19170   3.403  -1.113   4.002  1.5271  2.9619  2.9567
  883MOL0     H19171   3.187  -1.252   3.937  0.1170  2.4146 -1.1813
  883MOL0     H19172   3.222  -1.209   4.106 -0.0105 -2.2449 -0.2523
  883MOL0     H19173   3.035  -1.370   4.052  3.3593  0.5601 -1.4202
  883MOL0     H19174   3.001  -1.234   4.162  1.7692 -0.4546  0.5210
  883MOL0     H19175   2.933  -1.218   3.865  1.1141  2.0914  0.6995
  883MOL0     H19176   2.884  -1.109   3.992  1.4114  1.1433 -2.0663
  883MOL0     H19177   2.788  -1.404   3.924 -1.7496 -1.1941  1.1633
  883MOL0     H19178   2.758  -1.335   4.086  1.5758  2.4980  1.0427
  883MOL0     H19179   2.638  -1.250   3.825  0.9902 -1.2785 -1.0101
  883MOL0     H19180   2.643  -1.156   3.981 -0.1208 -0.6453  1.5243
  883MOL0     H19181   2.565  -1.441   3.988  2.8166  0.7136 -2.2505
  883MOL0     H19182   2.517  -1.295   4.095 -1.1163 -0.5708  0.2808
  883MOL0     H19183   2.390  -1.369   3.836  1.4358  1.1371 -0.1938
  883MOL0     H19184   2.409  -1.205   3.906  0.1327  1.1214  2.2527
  883MOL0     H19185   2.185  -1.337   3.990  0.2831 -0.1202 -1.2993
  883MOL0     H19186   2.303  -1.276   4.103 -2.0789  1.1586 -1.3451
  883MOL0     H19187   3.108  -0.852   3.867 -0.4188 -1.0061  0.8780
  883MOL0     H19188   3.294  -0.700   3.760  0.6253 -0.4111  0.1599
  883MOL0     H19189   3.584  -0.461   3.527 -0.9028 -1.2254  2.1622
  883MOL0     H19190   3.776  -0.340   3.472 -0.3082 -0.9452 -0.2069
  883MOL0     H19191   5.705   0.140   3.761 -0.4152 -0.5049 -1.1711
  883MOL0     H19192   5.908   0.178   3.877 -0.9669  0.7172  2.0330
  883MOL0     H19193   6.435   0.180   3.731  1.2984  1.5963 -3.0194
  883MOL0     H19194   6.637   0.254   3.786 -0.4135 -1.8473 -0.6766
  883MOL0     H19195   6.832   0.323   3.903  0.4710  0.0008  1.0045
  883MOL0     H19196   6.824   0.434   3.768  1.6752 -1.6665 -0.2099
  883MOL0     H19197   6.939   0.478   4.047 -1.1943  2.8244  0.7713
  883MOL0     H19198   6.937   0.595   3.917  0.6414  0.0446  0.2635
  883MOL0     H19199   7.041   0.436   3.768  0.1878  2.1475  0.6325
  883MOL0     H19200   7.090   0.326   3.907  2.0044 -1.3566 -2.0348
  883MOL0     H19201   7.205   0.542   4.003  0.6317 -1.4888  0.2137
  883MOL0     H19202   7.170   0.618   3.840  1.4213 -0.2079 -2.4163
  883MOL0     H19203   7.523   0.377   3.790 -0.9102  0.7538 -0.7517
  883MOL0     H19204   6.491   0.583   4.010 -2.8352  4.0508 -2.3035
  883MOL0     H19205   6.252   0.488   3.974 -0.7462  0.4952 -3.6570
  884MOL0     O19206   1.675   6.574   8.405  0.9421 -0.0917 -0.2390
  884MOL0     C19207   1.777   6.631   8.433 -0.3986 -0.2318 -0.5295
  884MOL0     O19208   1.791   6.764   8.465 -0.0318  0.0047  1.1325
  884MOL0     C19209   1.686   6.842   8.464  0.2696 -0.3448  1.3480
  884MOL0     C19210   1.695   6.949   8.376 -0.4413  0.0799 -0.4259
  884MOL0     C19211   1.584   7.028   8.348 -0.2532 -0.1647 -0.1831
  884MOL0     C19212   1.462   7.012   8.424 -1.2294 -0.2179  0.1765
  884MOL0     O19213   1.354   7.085   8.384  0.2718 -0.0658  0.0267
  884MOL0     C19214   1.381   7.228   8.376  0.3219  0.2942  0.2129
  884MOL0     C19215   1.253   7.322   8.372  0.2167  1.0517 -0.1053
  884MOL0     C19216   1.185   7.313   8.510 -0.0126  0.0128  0.0956
  884MOL0     C19217   1.037   7.366   8.491  0.5678  0.9349  0.0417
  884MOL0     C19218   0.950   7.353   8.627  0.3213 -0.4880  0.9119
  884MOL0     C19219   0.795   7.391   8.606  0.3749  0.8662  0.5418
  884MOL0     C19220   0.714   7.358   8.726 -0.1971 -0.2741 -0.6974
  884MOL0     C19221   0.588   7.452   8.730 -0.3728  0.2866  0.7447
  884MOL0     N19222   0.485   7.415   8.636  0.1770  0.4540  0.5147
  884MOL0     C19223   0.353   7.390   8.668  0.2428  0.1727  0.4255
  884MOL0     C19224   0.287   7.358   8.555 -0.9847 -0.0875  0.6754
  884MOL0     C19225   0.146   7.320   8.541 -0.5797  0.0946 -0.2117
  884MOL0     C19226   0.061   7.415   8.627 -0.4730 -0.0360 -0.0553
  884MOL0     C19227  -0.088   7.407   8.589 -0.0603  0.3440 -0.3289
  884MOL0     C19228  -0.173   7.434   8.708  0.7201 -0.4784  0.5126
  884MOL0     O19229  -0.159   7.322   8.798 -0.1638 -0.0201 -0.1744
  884MOL0     C19230  -0.251   7.297   8.892 -0.9897 -0.0721  0.9162
  884MOL0     C19231  -0.313   7.405   8.956  0.2027 -0.0199 -0.7056
  884MOL0     C19232  -0.407   7.381   9.056  2.0581  0.4525 -1.0276
  884MOL0     C19233  -0.476   7.504   9.105  0.3676 -0.9716  0.2545
  884MOL0     C19234  -0.429   7.245   9.093  0.3298  0.9505 -0.3311
  884MOL0     C19235  -0.528   7.201   9.202 -0.4227 -0.3110  0.9270
  884MOL0     O19236  -0.596   7.305   9.254  0.0077  0.1524  0.3918
  884MOL0     C19237  -0.681   7.287   9.359 -1.3037 -0.1747  0.0485
  884MOL0     C19238  -0.806   7.224   9.332  0.5886  0.2024  0.1760
  884MOL0     C19239  -0.896   7.220   9.434 -0.3996  1.2403 -0.6024
  884MOL0     C19240  -0.864   7.276   9.562  0.6622  0.4324 -0.2598
  884MOL0     O19241  -0.962   7.237   9.653  0.0762  0.3558 -0.2615
  884MOL0     C19242  -0.945   7.276   9.789 -0.0213 -0.9512 -0.0458
  884MOL0     C19243  -1.066   7.246   9.887  0.0203 -0.2306  0.7676
  884MOL0     C19244  -1.110   7.099   9.898 -1.0357  0.0414 -0.4305
  884MOL0     C19245  -0.999   7.011   9.968 -0.0921 -0.0289 -0.2903
  884MOL0     C19246  -0.989   6.873   9.903 -0.1304  0.3688  0.1642
  884MOL0     C19247  -0.864   6.792   9.943 -1.1519  0.1332 -0.4082
  884MOL0     C19248  -0.859   6.657   9.881  0.5182 -1.4898 -0.2789
  884MOL0     C19249  -0.775   6.559   9.955 -0.9108  0.3039 -0.0787
  884MOL0    Cl19250  -0.846   6.509  10.108  0.0176 -0.2169  0.0397
  884MOL0     C19251  -0.745   7.348   9.582 -0.6036  0.5093 -0.9432
  884MOL0     C19252  -0.643   7.349   9.479  0.4833 -0.1486  0.3775
  884MOL0     O19253  -0.538   7.083   9.231  0.5767  0.3461 -0.2227
  884MOL0     C19254  -0.357   7.148   9.024  0.8766  0.2250  0.4839
  884MOL0     C19255  -0.271   7.174   8.919 -0.8047 -0.8051 -0.8535
  884MOL0     N19256   0.392   7.347   8.457  0.1628 -0.2291  0.2565
  884MOL0     N19257   0.503   7.362   8.516  0.1911  0.0055 -0.0271
  884MOL0     C19258   1.457   6.915   8.522  0.4180  0.2971  0.0531
  884MOL0     C19259   1.572   6.824   8.540  0.0520  0.6177 -0.4980
  884MOL0     C19260   1.908   6.558   8.437  0.0079  0.2959 -0.6662
  884MOL0     C19261   2.034   6.625   8.443  0.0417 -0.6138  0.5103
  884MOL0     C19262   2.157   6.553   8.453  0.7757 -0.5558 -0.7181
  884MOL0     C19263   2.162   6.418   8.475  0.7940 -0.4808  0.6891
  884MOL0     O19264   2.285   6.358   8.492 -0.1728 -0.4316 -0.3995
  884MOL0     C19265   2.302   6.267   8.596  0.4808 -0.2037  1.2005
  884MOL0     C19266   2.323   6.128   8.542  0.3102 -0.0845 -0.5801
  884MOL0     C19267   2.344   6.024   8.648  0.6247  0.6069  0.0862
  884MOL0     C19268   2.408   5.892   8.612  0.3990  0.6138  0.3248
  884MOL0     C19269   2.314   5.807   8.548 -0.1909  0.6094 -0.0807
  884MOL0     C19270   2.245   5.738   8.481  0.3874  0.4866 -0.0633
  884MOL0     C19271   2.037   6.354   8.475  0.6102 -0.3171  1.5459
  884MOL0     C19272   1.917   6.424   8.451 -0.4191 -0.2830  0.8831
  884MOL0     H19273   1.776   6.972   8.307 -0.2000 -1.9572 -0.9014
  884MOL0     H19274   1.597   7.101   8.269 -0.6171 -0.3708 -0.4342
  884MOL0     H19275   1.427   7.271   8.465  0.3877  2.2826 -0.7165
  884MOL0     H19276   1.446   7.242   8.289 -0.7620 -1.4293 -0.9289
  884MOL0     H19277   1.282   7.426   8.354 -2.1065  1.7663  0.0477
  884MOL0     H19278   1.195   7.282   8.289  2.2375 -0.3699 -0.9326
  884MOL0     H19279   1.179   7.210   8.547 -0.9325  0.0868  0.1959
  884MOL0     H19280   1.224   7.381   8.587 -2.0466  0.8011  0.5172
  884MOL0     H19281   1.024   7.469   8.458 -0.6475  0.1235 -2.2993
  884MOL0     H19282   0.982   7.303   8.420 -0.5422  2.5086 -0.5566
  884MOL0     H19283   0.952   7.248   8.657  0.3675 -0.8712 -0.3746
  884MOL0     H19284   0.996   7.415   8.705  0.2328  0.8578 -0.0713
  884MOL0     H19285   0.772   7.495   8.578  0.1572  0.8105  0.5105
  884MOL0     H19286   0.754   7.328   8.526  2.3737  0.7089 -0.4356
  884MOL0     H19287   0.681   7.254   8.724  0.2526 -0.4159 -0.8324
  884MOL0     H19288   0.779   7.379   8.811 -1.4477  1.9181 -0.2283
  884MOL0     H19289   0.620   7.555   8.713  0.0620 -0.1079 -1.0359
  884MOL0     H19290   0.554   7.434   8.832  0.6409  0.1312  1.0611
  884MOL0     H19291   0.314   7.416   8.766 -1.8610 -0.5828 -0.1594
  884MOL0     H19292   0.121   7.332   8.435  0.3283 -1.7422 -0.6769
  884MOL0     H19293   0.123   7.213   8.552 -1.1786 -0.1225 -2.8533
  884MOL0     H19294   0.102   7.515   8.608 -1.6298  0.2226 -1.3279
  884MOL0     H19295   0.074   7.385   8.731  0.1495  0.5162  0.0279
  884MOL0     H19296  -0.105   7.301   8.567 -2.2904  0.1488  1.8707
  884MOL0     H19297  -0.118   7.471   8.506 -1.2791 -0.7605 -0.7739
  884MOL0     H19298  -0.275   7.433   8.666 -0.0473  0.9402  2.2129
  884MOL0     H19299  -0.156   7.530   8.757 -3.2201  0.0476  1.1778
  884MOL0     H19300  -0.282   7.509   8.942 -1.3063  0.7518  1.2355
  884MOL0     H19301  -0.584   7.499   9.086 -0.3599  0.2866  3.4883
  884MOL0     H19302  -0.463   7.504   9.213 -0.5950 -3.3385  0.4382
  884MOL0     H19303  -0.435   7.593   9.056 -0.1000 -2.0046 -2.1978
  884MOL0     H19304  -0.801   7.175   9.235  1.9392 -3.5282  1.9152
  884MOL0     H19305  -0.991   7.167   9.428 -0.3407  1.1839 -1.1676
  884MOL0     H19306  -0.847   7.252   9.831 -0.6066 -0.4472  1.6712
  884MOL0     H19307  -0.940   7.385   9.793 -1.2985 -0.8913  0.3176
  884MOL0     H19308  -1.037   7.293   9.981 -0.5933  2.2904 -0.2321
  884MOL0     H19309  -1.150   7.303   9.847  0.3362 -1.9157 -2.7359
  884MOL0     H19310  -1.122   7.069   9.793  0.4687  1.2126 -0.9896
  884MOL0     H19311  -1.208   7.100   9.947 -0.7515  1.8390  0.2038
  884MOL0     H19312  -0.898   7.052   9.969 -0.6360  1.3893 -0.6526
  884MOL0     H19313  -1.019   7.001  10.075  2.9856 -2.3894  0.1944
  884MOL0     H19314  -0.988   6.877   9.794 -2.3079  1.6321  0.1267
  884MOL0     H19315  -1.083   6.821   9.925 -0.1124  0.3496  0.1949
  884MOL0     H19316  -0.785   6.859   9.909 -4.2311  2.8334 -2.9894
  884MOL0     H19317  -0.864   6.782  10.052  3.2629 -0.9462 -0.3149
  884MOL0     H19318  -0.837   6.659   9.773 -0.5116  0.3985 -0.4981
  884MOL0     H19319  -0.962   6.625   9.899 -0.3855  0.7433 -1.0241
  884MOL0     H19320  -0.679   6.607   9.977 -1.3617  0.9710  0.4608
  884MOL0     H19321  -0.764   6.465   9.900  0.9990  1.0149 -1.0408
  884MOL0     H19322  -0.719   7.401   9.673 -0.5967 -0.1491 -0.5578
  884MOL0     H19323  -0.541   7.384   9.494 -0.0584  2.2601 -1.1657
  884MOL0     H19324  -0.373   7.047   9.060 -0.5372  0.2564 -0.0052
  884MOL0     H19325  -0.227   7.089   8.869 -0.6047 -0.9064 -0.5069
  884MOL0     H19326   1.364   6.917   8.578  0.2620  0.9549 -0.2122
  884MOL0     H19327   1.568   6.753   8.623  0.9322  0.3913 -0.6411
  884MOL0     H19328   2.032   6.733   8.450  0.9292 -0.6656  2.1448
  884MOL0     H19329   2.237   6.626   8.462 -1.9627  2.5667  0.6648
  884MOL0     H19330   2.385   6.300   8.659  0.6989  0.3412  0.6332
  884MOL0     H19331   2.212   6.271   8.659  0.1522 -1.8858  0.8681
  884MOL0     H19332   2.412   6.131   8.478  0.2860 -2.6278 -0.8503
  884MOL0     H19333   2.242   6.089   8.480  0.6377  0.0979 -1.1294
  884MOL0     H19334   2.246   6.009   8.694 -1.1738  1.0356 -3.2979
  884MOL0     H19335   2.405   6.064   8.730 -1.8524  0.8001  1.9436
  884MOL0     H19336   2.461   5.851   8.698  0.3992  0.0833  0.0765
  884MOL0     H19337   2.481   5.921   8.536 -0.5907  1.9034 -0.1996
  884MOL0     H19338   2.171   5.684   8.426  0.2346 -2.0360  2.4125
  884MOL0     H19339   2.036   6.247   8.489 -0.3150 -0.4682  0.4383
  884MOL0     H19340   1.823   6.372   8.441 -1.0102  0.8207  0.4995
  885MOL0     O19341   2.941   0.865   8.024 -1.3104 -0.8350 -0.4136
  885MOL0     C19342   2.991   0.782   8.098 -0.8677 -0.1764 -0.3170
  885MOL0     O19343   2.920   0.679   8.154 -0.4987 -0.2134  0.3852
  885MOL0     C19344   2.793   0.660   8.113 -0.0490  0.7743  0.0346
  885MOL0     C19345   2.702   0.759   8.126  0.2088  0.8017 -0.0425
  885MOL0     C19346   2.572   0.731   8.102  0.5888 -0.2066 -0.5048
  885MOL0     C19347   2.525   0.611   8.050 -0.8971 -0.3194 -0.0317
  885MOL0     O19348   2.403   0.584   8.001  0.4659  0.1564 -0.3957
  885MOL0     C19349   2.308   0.683   7.974  0.3912 -1.3185 -0.1377
  885MOL0     C19350   2.175   0.606   7.959 -0.2445  0.7776 -0.4789
  885MOL0     C19351   2.115   0.567   8.095  0.4485 -0.3424  0.1922
  885MOL0     C19352   1.963   0.532   8.090  0.2906 -0.6886  0.5354
  885MOL0     C19353   1.901   0.498   8.222  0.2553  0.7908  1.2516
  885MOL0     C19354   1.751   0.470   8.209 -0.2051 -0.3831  0.2366
  885MOL0     C19355   1.660   0.586   8.156  0.6051 -0.6741 -0.7212
  885MOL0     C19356   1.507   0.544   8.148  0.1302 -0.2111  0.9525
  885MOL0     N19357   1.452   0.504   8.283  0.3745 -0.8861  0.4404
  885MOL0     C19358   1.417   0.594   8.382 -1.3374  0.2858 -1.0909
  885MOL0     C19359   1.360   0.515   8.472 -0.4870 -0.0600 -1.0326
  885MOL0     C19360   1.294   0.569   8.594 -0.9978  0.9478  0.2187
  885MOL0     C19361   1.144   0.583   8.561  0.5973  0.4919 -0.5509
  885MOL0     C19362   1.071   0.628   8.688  0.1375 -0.0907  0.0422
  885MOL0     C19363   0.917   0.625   8.690  0.2589  0.3135 -0.2568
  885MOL0     O19364   0.867   0.487   8.687  0.2837  0.2322 -0.0865
  885MOL0     C19365   0.740   0.454   8.739  0.1227  0.0544  0.1939
  885MOL0     C19366   0.713   0.319   8.741  0.1465 -0.0399  0.2143
  885MOL0     C19367   0.593   0.265   8.797 -0.1828 -0.3104  0.6206
  885MOL0     C19368   0.582   0.112   8.783 -0.3593  0.8275 -0.5119
  885MOL0     C19369   0.503   0.341   8.862 -0.5243 -0.6159 -0.3612
  885MOL0     C19370   0.380   0.291   8.932  0.4808  0.0375 -0.0266
  885MOL0     O19371   0.325   0.389   9.008  0.0746  0.1516  0.2769
  885MOL0     C19372   0.189   0.370   9.037 -0.0364  0.1552 -0.2854
  885MOL0     C19373   0.146   0.389   9.171 -0.1600 -0.1671  0.1409
  885MOL0     C19374   0.003   0.379   9.194  0.0855  0.4216  0.3049
  885MOL0     C19375  -0.090   0.355   9.090 -0.6038 -0.2578 -0.6085
  885MOL0     O19376  -0.225   0.363   9.115 -0.3071 -0.1128 -0.8426
  885MOL0     C19377  -0.306   0.434   9.023 -0.4417 -0.0813 -0.1419
  885MOL0     C19378  -0.408   0.341   8.975  0.1504  0.5682  1.0803
  885MOL0     C19379  -0.501   0.303   9.087 -0.2049 -0.7171  0.1602
  885MOL0     C19380  -0.603   0.197   9.061 -0.2781 -0.8390  0.0922
  885MOL0     C19381  -0.560   0.047   9.032  0.1863 -0.2302  0.1477
  885MOL0     C19382  -0.680  -0.040   9.015 -0.0990  0.8265 -0.0885
  885MOL0     C19383  -0.654  -0.190   8.998 -0.0977  0.4753  0.3862
  885MOL0     C19384  -0.571  -0.212   8.869 -0.3456 -0.8356 -0.8603
  885MOL0    Cl19385  -0.552  -0.384   8.834  0.2228 -0.4404  0.0533
  885MOL0     C19386  -0.042   0.334   8.961  0.5682 -0.2016  0.5702
  885MOL0     C19387   0.098   0.343   8.935  0.7185 -0.3340  0.0996
  885MOL0     O19388   0.349   0.173   8.927  0.5490  0.6245 -0.4432
  885MOL0     C19389   0.527   0.481   8.858 -0.4463  0.0431 -0.0164
  885MOL0     C19390   0.644   0.539   8.798 -0.0399  0.2566  0.5778
  885MOL0     N19391   1.350   0.383   8.432 -0.2797 -0.4678 -0.0982
  885MOL0     N19392   1.406   0.382   8.318  0.0314 -0.4767  0.3937
  885MOL0     C19393   2.613   0.510   8.044  0.4772  0.9739  0.2047
  885MOL0     C19394   2.744   0.532   8.077  0.0022 -0.4360  0.3433
  885MOL0     C19395   3.129   0.798   8.126 -0.5720  0.4306  0.3931
  885MOL0     C19396   3.182   0.757   8.248 -0.4291  0.1774  0.3492
  885MOL0     C19397   3.319   0.783   8.269 -0.1538  0.3464 -0.1866
  885MOL0     C19398   3.408   0.844   8.183 -0.1568 -0.0358  0.2379
  885MOL0     O19399   3.532   0.869   8.233 -0.0678  0.5143 -0.2705
  885MOL0     C19400   3.629   0.923   8.141 -0.0812 -0.1915  0.0070
  885MOL0     C19401   3.763   0.867   8.191 -0.4376 -0.2600 -0.1079
  885MOL0     C19402   3.896   0.941   8.167  0.2499 -0.2025 -0.1833
  885MOL0     C19403   4.010   0.858   8.239 -0.4277  0.5999 -0.0914
  885MOL0     C19404   4.121   0.944   8.275 -0.2547  0.3457  0.3008
  885MOL0     C19405   4.220   1.012   8.307 -0.3075  0.4256  0.0715
  885MOL0     C19406   3.356   0.868   8.056 -0.0779  0.3930  0.0189
  885MOL0     C19407   3.223   0.849   8.028  0.1958  0.4556 -0.6325
  885MOL0     H19408   2.730   0.855   8.167  3.0057 -0.4051  1.1436
  885MOL0     H19409   2.511   0.820   8.109  2.8893  1.3062  2.3885
  885MOL0     H19410   2.305   0.760   8.051  3.3796  0.5786 -1.7209
  885MOL0     H19411   2.340   0.741   7.887  1.5872 -1.1589  0.3911
  885MOL0     H19412   2.103   0.676   7.916 -1.0484  0.1739 -0.1473
  885MOL0     H19413   2.195   0.520   7.895 -0.6262  1.3705 -1.4014
  885MOL0     H19414   2.161   0.476   8.134  0.8634 -1.1949 -2.1307
  885MOL0     H19415   2.127   0.650   8.166  1.8490  0.1716 -0.5934
  885MOL0     H19416   1.919   0.620   8.043  1.7061  0.2869  0.9566
  885MOL0     H19417   1.951   0.448   8.021 -0.6048  0.0587 -0.2455
  885MOL0     H19418   1.948   0.406   8.259 -0.6577  0.6274  2.0707
  885MOL0     H19419   1.915   0.586   8.285  1.9177 -0.4898  2.7713
  885MOL0     H19420   1.739   0.385   8.141 -1.5829  1.1405 -1.5291
  885MOL0     H19421   1.713   0.438   8.307  0.6413 -0.0691  0.6829
  885MOL0     H19422   1.676   0.671   8.223  2.6141  0.8111 -2.9514
  885MOL0     H19423   1.702   0.619   8.061  1.8599  0.9241  0.3430
  885MOL0     H19424   1.495   0.461   8.078 -3.0265  2.1584 -1.6313
  885MOL0     H19425   1.463   0.636   8.107  1.9665  0.0612 -0.5550
  885MOL0     H19426   1.433   0.702   8.383  0.7374  0.0273  0.2093
  885MOL0     H19427   1.318   0.496   8.672  2.4714 -0.3590 -1.8115
  885MOL0     H19428   1.356   0.657   8.619 -0.4532  0.0843  2.1329
  885MOL0     H19429   1.092   0.494   8.527 -0.3030 -0.0278  1.9917
  885MOL0     H19430   1.133   0.661   8.485  0.6030  2.3176  1.2283
  885MOL0     H19431   1.104   0.729   8.714 -0.7661  0.3710 -0.5349
  885MOL0     H19432   1.093   0.567   8.776  1.4327  0.3053  0.0086
  885MOL0     H19433   0.877   0.668   8.598 -0.7005 -1.6210 -0.7983
  885MOL0     H19434   0.888   0.667   8.787 -2.4719  3.1299 -2.1219
  885MOL0     H19435   0.793   0.258   8.700 -2.2984 -2.3311 -1.4644
  885MOL0     H19436   0.613   0.069   8.879 -0.0597  0.2293 -0.8706
  885MOL0     H19437   0.481   0.080   8.754 -1.2792  3.1715 -0.0834
  885MOL0     H19438   0.644   0.078   8.699 -0.4597  0.0290 -0.2777
  885MOL0     H19439   0.218   0.427   9.243 -0.4017  1.8006 -0.6043
  885MOL0     H19440  -0.037   0.407   9.291  0.3899 -0.7886  0.7978
  885MOL0     H19441  -0.354   0.520   9.071 -2.1363 -0.1531 -1.6044
  885MOL0     H19442  -0.252   0.468   8.934  1.3656 -0.5764  0.7213
  885MOL0     H19443  -0.453   0.389   8.888  2.4377  0.9672  0.0285
  885MOL0     H19444  -0.352   0.257   8.933 -1.0700  0.4926 -0.4751
  885MOL0     H19445  -0.564   0.387   9.118  0.7350  0.4210 -0.9099
  885MOL0     H19446  -0.436   0.283   9.172  0.2484  1.3507  0.3436
  885MOL0     H19447  -0.658   0.191   9.155  0.6065 -1.4751  0.5856
  885MOL0     H19448  -0.658   0.237   8.975  1.0069  0.3087 -0.2315
  885MOL0     H19449  -0.499   0.004   9.112 -0.6664 -0.8950  0.4561
  885MOL0     H19450  -0.503   0.035   8.940 -0.2710 -0.2080 -0.1427
  885MOL0     H19451  -0.743  -0.028   9.104  1.0698  0.8428  0.7719
  885MOL0     H19452  -0.749   0.001   8.941  2.2408  1.4601 -2.0571
  885MOL0     H19453  -0.753  -0.238   8.993 -0.6830  1.6209  0.5908
  885MOL0     H19454  -0.600  -0.226   9.086  2.6834  2.3885 -0.3906
  885MOL0     H19455  -0.476  -0.158   8.880  0.1018 -1.5720 -1.0688
  885MOL0     H19456  -0.611  -0.181   8.772  3.7708  2.4587 -1.7888
  885MOL0     H19457  -0.112   0.334   8.879  4.2490 -5.0240 -3.1620
  885MOL0     H19458   0.130   0.342   8.831 -2.2745 -1.8095 -0.9266
  885MOL0     H19459   0.470   0.555   8.914 -0.4506 -0.2061  0.3112
  885MOL0     H19460   0.657   0.646   8.786  0.4229 -0.0622 -2.8414
  885MOL0     H19461   2.572   0.415   8.011  1.1690  0.8851 -0.4301
  885MOL0     H19462   2.818   0.453   8.064  2.6648  1.9201  0.2227
  885MOL0     H19463   3.110   0.714   8.317 -1.6724  1.8756  0.1999
  885MOL0     H19464   3.358   0.762   8.368 -0.1851 -0.8940 -0.4173
  885MOL0     H19465   3.615   0.886   8.039  2.0894  0.7814 -0.6863
  885MOL0     H19466   3.616   1.031   8.131 -0.6003 -0.1643  0.9141
  885MOL0     H19467   3.782   0.764   8.161  0.7732  0.3683 -1.6121
  885MOL0     H19468   3.767   0.871   8.300  2.0690  2.8472 -0.1599
  885MOL0     H19469   3.903   1.044   8.204  2.1235 -0.3351 -0.0760
  885MOL0     H19470   3.921   0.947   8.061  1.3841  0.3745  0.1064
  885MOL0     H19471   4.041   0.774   8.176  2.1829  0.5579  1.1111
  885MOL0     H19472   3.976   0.818   8.334  1.2824 -1.1713 -0.1494
  885MOL0     H19473   4.312   1.063   8.327 -1.4432  2.0307  1.5584
  885MOL0     H19474   3.425   0.890   7.976  3.0873 -2.3312  1.7922
  885MOL0     H19475   3.179   0.863   7.930 -0.9716 -5.0577 -1.2194
  886MOL0     O19476   6.264   5.166   6.365 -0.3783 -0.6447  0.4693
  886MOL0     C19477   6.208   5.082   6.302 -0.0330 -0.2302  0.3786
  886MOL0     O19478   6.260   5.015   6.197 -0.1119 -0.3424 -0.1994
  886MOL0     C19479   6.398   5.028   6.173  0.1393  0.2815  0.2197
  886MOL0     C19480   6.489   4.935   6.214  0.5131  0.5285  0.3191
  886MOL0     C19481   6.627   4.945   6.186  0.3713 -0.8615 -0.1925
  886MOL0     C19482   6.669   5.045   6.103  0.4820  0.8877 -0.1473
  886MOL0     O19483   6.794   5.051   6.043  0.4434  0.3234  0.0926
  886MOL0     C19484   6.902   5.018   6.127 -0.1710 -0.6299 -0.5413
  886MOL0     C19485   7.011   5.110   6.073 -0.1330  0.6656 -0.0515
  886MOL0     C19486   7.147   5.055   6.119 -0.6887  0.8253 -0.7146
  886MOL0     C19487   7.240   5.156   6.184  0.1183 -0.0373  0.4218
  886MOL0     C19488   7.374   5.096   6.208 -0.1948  0.1992  0.0665
  886MOL0     C19489   7.480   5.197   6.256  0.1488  0.1581  0.2661
  886MOL0     C19490   7.612   5.146   6.298 -0.5421  0.2416  0.4415
  886MOL0     C19491   7.680   5.054   6.194 -0.7338  0.6477 -0.2395
  886MOL0     N19492   7.820   5.045   6.227 -0.2962 -0.5702 -0.4015
  886MOL0     C19493   7.874   5.042   6.362 -0.3011 -0.7570 -0.0396
  886MOL0     C19494   8.001   4.992   6.345  0.5203  0.7421  0.5352
  886MOL0     C19495   8.092   4.941   6.458 -0.7735 -0.6608  0.0961
  886MOL0     C19496   8.014   4.839   6.535  0.4782  0.1038  0.4474
  886MOL0     C19497   8.107   4.781   6.638  0.7368  0.0775 -0.4571
  886MOL0     C19498   8.040   4.674   6.724  0.0268  0.5419 -0.2456
  886MOL0     O19499   7.957   4.729   6.822  0.1839 -0.4666  0.2744
  886MOL0     C19500   7.825   4.762   6.797 -0.6005  0.6716 -0.1522
  886MOL0     C19501   7.760   4.830   6.898  0.0841  0.5681 -0.2427
  886MOL0     C19502   7.631   4.870   6.892 -0.5318 -0.4031 -0.3262
  886MOL0     C19503   7.577   4.945   7.010 -0.0012  0.0105 -0.7325
  886MOL0     C19504   7.554   4.838   6.784 -0.0453 -0.1718 -0.2998
  886MOL0     C19505   7.403   4.869   6.769 -0.3671 -0.4210  0.2650
  886MOL0     O19506   7.366   4.885   6.641 -0.0611  0.7999  0.3039
  886MOL0     C19507   7.235   4.917   6.622 -0.6074  0.5812  0.9152
  886MOL0     C19508   7.163   4.841   6.536  0.6667 -0.5807  0.1699
  886MOL0     C19509   7.025   4.858   6.517 -0.2864 -0.1608 -0.5665
  886MOL0     C19510   6.954   4.959   6.595  0.0652  0.3984 -0.2497
  886MOL0     O19511   6.823   4.948   6.564 -0.3547  0.2659 -1.1764
  886MOL0     C19512   6.736   5.020   6.651 -0.6869  0.3991 -0.9522
  886MOL0     C19513   6.601   4.942   6.660 -0.3841 -0.1883  0.0945
  886MOL0     C19514   6.487   5.042   6.695  0.8966  0.9383  0.1720
  886MOL0     C19515   6.347   4.974   6.679 -0.7561  0.1819  0.1485
  886MOL0     C19516   6.316   4.908   6.815 -0.1584 -0.1447 -0.2621
  886MOL0     C19517   6.185   4.830   6.811  0.5779 -0.0224 -0.1672
  886MOL0     C19518   6.061   4.915   6.801 -0.4393 -0.4872  0.4242
  886MOL0     C19519   5.954   4.824   6.745 -0.2136 -0.6255 -0.3249
  886MOL0    Cl19520   5.996   4.721   6.594 -0.2205 -0.0124  0.1961
  886MOL0     C19521   7.031   5.046   6.674 -0.4520  0.3811  0.2680
  886MOL0     C19522   7.174   5.025   6.682 -0.1167 -0.6571 -0.4538
  886MOL0     O19523   7.331   4.873   6.869  1.0581 -0.0821  0.9664
  886MOL0     C19524   7.615   4.764   6.674 -0.1108  0.2173 -0.1243
  886MOL0     C19525   7.750   4.726   6.689  0.2762  0.9570  0.2252
  886MOL0     N19526   8.026   4.979   6.210 -0.3673 -0.3707  0.2745
  886MOL0     N19527   7.921   5.006   6.149 -0.3737  0.2755 -0.2739
  886MOL0     C19528   6.572   5.132   6.058 -0.4333  0.2169 -0.1485
  886MOL0     C19529   6.442   5.129   6.100  0.1169 -0.9360 -0.5167
  886MOL0     C19530   6.066   5.050   6.342 -0.5649  0.4075  0.1845
  886MOL0     C19531   6.011   5.087   6.466 -0.4011  0.2975 -0.2966
  886MOL0     C19532   5.876   5.070   6.487  0.5596  0.3753  0.3025
  886MOL0     C19533   5.794   5.006   6.395 -0.5598  0.5320 -0.0720
  886MOL0     O19534   5.666   4.989   6.445 -0.0821  0.6026 -0.0848
  886MOL0     C19535   5.564   4.932   6.359  0.7527 -0.9659 -0.3173
  886MOL0     C19536   5.429   4.945   6.421  0.8655  0.6252 -0.7503
  886MOL0     C19537   5.318   4.876   6.335  0.0403 -0.0870 -0.6147
  886MOL0     C19538   5.184   4.881   6.407 -1.1572 -0.1004 -0.0011
  886MOL0     C19539   5.145   5.013   6.449  0.9367 -0.2886  0.2731
  886MOL0     C19540   5.120   5.131   6.471  0.1639  0.7422  0.1192
  886MOL0     C19541   5.847   4.956   6.274  0.0514  0.5216 -0.5441
  886MOL0     C19542   5.985   4.979   6.253 -0.1492  0.0238  0.2490
  886MOL0     H19543   6.460   4.850   6.275 -1.5261 -0.5810 -2.0185
  886MOL0     H19544   6.707   4.886   6.231  3.1702  2.4099 -0.5081
  886MOL0     H19545   6.886   5.043   6.232  1.0968 -1.4061 -0.1331
  886MOL0     H19546   6.933   4.914   6.111  0.1439 -0.5070 -0.7252
  886MOL0     H19547   7.023   5.102   5.964  1.7613 -0.7904  0.2119
  886MOL0     H19548   6.993   5.213   6.105 -0.4997  0.4368  0.4740
  886MOL0     H19549   7.128   4.983   6.199  0.7178  1.7580  0.5262
  886MOL0     H19550   7.203   5.005   6.039 -0.9606 -0.3605 -0.1782
  886MOL0     H19551   7.246   5.234   6.107 -2.9109  1.2033  1.2765
  886MOL0     H19552   7.182   5.200   6.266 -4.4904  1.0248 -2.9755
  886MOL0     H19553   7.367   5.011   6.278 -2.8941 -0.4616 -0.8755
  886MOL0     H19554   7.413   5.067   6.110 -2.8828 -1.4708 -0.6314
  886MOL0     H19555   7.506   5.264   6.173  1.7195 -0.6125  0.0954
  886MOL0     H19556   7.448   5.257   6.342  1.2490 -0.2488  0.9746
  886MOL0     H19557   7.677   5.233   6.306  0.5277 -0.5456  0.5912
  886MOL0     H19558   7.606   5.108   6.400  3.0802  0.2427  0.7943
  886MOL0     H19559   7.668   5.090   6.092  1.4673  0.3773 -0.6562
  886MOL0     H19560   7.640   4.953   6.211 -0.3963  0.4386 -0.6713
  886MOL0     H19561   7.826   5.076   6.453  1.0537  0.2084  0.3455
  886MOL0     H19562   8.170   4.886   6.405 -1.2202 -1.9849  0.7780
  886MOL0     H19563   8.123   5.032   6.511  1.3542 -0.4375 -1.3722
  886MOL0     H19564   7.980   4.760   6.467  3.2729 -2.2500  1.5475
  886MOL0     H19565   7.924   4.874   6.586 -0.2673 -1.7852  0.5399
  886MOL0     H19566   8.147   4.855   6.707 -0.7740  0.4785  0.0317
  886MOL0     H19567   8.189   4.742   6.577  0.5960 -0.3870 -0.3542
  886MOL0     H19568   8.113   4.611   6.777 -0.0753  0.9446  0.3905
  886MOL0     H19569   7.987   4.611   6.652  1.2645  0.6201 -1.2523
  886MOL0     H19570   7.822   4.847   6.986 -0.4508  0.6271  0.1233
  886MOL0     H19571   7.508   5.023   6.976 -1.4695  0.4873  2.8463
  886MOL0     H19572   7.522   4.876   7.075 -3.0097  2.0747 -0.8771
  886MOL0     H19573   7.659   4.997   7.059 -0.9500 -0.1838  1.1796
  886MOL0     H19574   7.204   4.757   6.480  3.6213  0.3238  0.8060
  886MOL0     H19575   6.965   4.790   6.458  1.2993 -0.0491 -2.4196
  886MOL0     H19576   6.773   5.020   6.754  0.9220 -0.4418 -1.4930
  886MOL0     H19577   6.738   5.126   6.623  1.5733  0.2187 -1.6789
  886MOL0     H19578   6.580   4.887   6.568  1.5880 -2.7550  1.0463
  886MOL0     H19579   6.623   4.870   6.739  1.9370 -0.2839 -0.5609
  886MOL0     H19580   6.481   5.121   6.620 -2.5128 -0.5180 -1.2664
  886MOL0     H19581   6.502   5.097   6.789  0.9159  2.5866 -0.7518
  886MOL0     H19582   6.274   5.055   6.666  0.2278  0.9719 -0.6842
  886MOL0     H19583   6.357   4.900   6.599  0.5775 -3.5751  3.4888
  886MOL0     H19584   6.316   4.983   6.894 -0.6528  0.6451 -0.9957
  886MOL0     H19585   6.395   4.835   6.836  1.5071  0.6577 -3.1208
  886MOL0     H19586   6.206   4.753   6.736  2.7160 -0.1826  0.5362
  886MOL0     H19587   6.181   4.775   6.906 -2.7248 -0.3924 -0.3748
  886MOL0     H19588   6.072   5.004   6.738  0.6275 -0.0768  1.1651
  886MOL0     H19589   6.023   4.958   6.894 -1.9395  1.8281 -1.1622
  886MOL0     H19590   5.875   4.897   6.721  0.8085  0.2751 -1.0669
  886MOL0     H19591   5.910   4.757   6.820 -0.5922  2.2157  2.1756
  886MOL0     H19592   6.990   5.125   6.735 -1.4828  2.4541 -2.8857
  886MOL0     H19593   7.232   5.086   6.750 -0.8222 -1.0187  0.4943
  886MOL0     H19594   7.562   4.730   6.586 -0.5047  0.4580  0.0159
  886MOL0     H19595   7.795   4.660   6.616  0.5030  1.9058 -0.5076
  886MOL0     H19596   6.624   5.204   5.995  0.9295  0.0764  0.7608
  886MOL0     H19597   6.377   5.207   6.062  0.4567 -1.0127 -1.2677
  886MOL0     H19598   6.074   5.138   6.537 -0.0553 -0.0904 -0.3203
  886MOL0     H19599   5.824   5.120   6.568  0.5698  2.9878 -1.2143
  886MOL0     H19600   5.568   4.993   6.268  1.7872  1.9743  1.5769
  886MOL0     H19601   5.587   4.826   6.343  1.9376 -0.6644 -0.7588
  886MOL0     H19602   5.414   5.050   6.450 -2.5945 -0.1570  0.7303
  886MOL0     H19603   5.444   4.885   6.511  1.7608 -1.4177 -2.1885
  886MOL0     H19604   5.337   4.773   6.304  0.2219 -0.7091  1.3870
  886MOL0     H19605   5.314   4.934   6.243  0.7161 -2.3847 -2.1788
  886MOL0     H19606   5.184   4.819   6.498 -0.2790 -0.1809 -0.0474
  886MOL0     H19607   5.102   4.849   6.342 -2.4659  1.1614  0.9459
  886MOL0     H19608   5.110   5.234   6.500 -1.3171  0.6517 -0.0172
  886MOL0     H19609   5.788   4.903   6.199  2.1024 -0.3487 -1.6177
  886MOL0     H19610   6.028   4.937   6.162  0.7935  0.9087  0.2707
  887MOL0     O19611   7.940  10.518   7.045 -0.1817 -0.8319 -0.4802
  887MOL0     C19612   7.970  10.527   7.168  0.8106  0.4015  0.5092
  887MOL0     O19613   7.919  10.451   7.266 -0.6993 -0.1525 -0.5049
  887MOL0     C19614   7.804  10.395   7.243  1.0345  0.5463 -0.3446
  887MOL0     C19615   7.677  10.453   7.253  0.3968 -0.0191 -0.5685
  887MOL0     C19616   7.562  10.374   7.233 -0.4793 -0.6542 -0.0714
  887MOL0     C19617   7.565  10.243   7.212 -0.6493 -0.4291 -0.2750
  887MOL0     O19618   7.446  10.174   7.201 -0.0535  0.1576  0.3623
  887MOL0     C19619   7.451  10.030   7.217 -0.6553 -0.0656  0.0655
  887MOL0     C19620   7.308   9.968   7.230 -0.2037  0.1864  0.2036
  887MOL0     C19621   7.247   9.997   7.371 -0.2939  1.0156 -0.5291
  887MOL0     C19622   7.167   9.884   7.432  0.2812  0.4756 -0.0766
  887MOL0     C19623   7.050   9.845   7.338 -0.4373 -0.4980  0.0049
  887MOL0     C19624   6.965   9.956   7.277  0.1910 -0.5773 -0.4953
  887MOL0     C19625   6.832   9.903   7.237 -0.2772 -0.0552 -0.1857
  887MOL0     C19626   6.787   9.958   7.105  0.1978  0.5759  0.5515
  887MOL0     N19627   6.722  10.088   7.127 -0.3436  0.4525  0.2601
  887MOL0     C19628   6.589  10.118   7.109 -0.3326 -0.1785 -0.5408
  887MOL0     C19629   6.577  10.254   7.127 -0.2947  0.4968 -0.6633
  887MOL0     C19630   6.453  10.338   7.101 -0.4002  0.5256 -0.4292
  887MOL0     C19631   6.325  10.275   7.130  0.0073 -0.2272 -0.2355
  887MOL0     C19632   6.210  10.380   7.130 -0.6048 -1.0149  0.6815
  887MOL0     C19633   6.068  10.307   7.120 -0.0469  0.1231  0.1448
  887MOL0     O19634   5.970  10.402   7.143 -0.1200 -0.8036  1.0650
  887MOL0     C19635   5.835  10.366   7.149  0.1010  0.5338 -0.6547
  887MOL0     C19636   5.787  10.235   7.146  0.1040  0.1181  1.1736
  887MOL0     C19637   5.651  10.193   7.130 -0.2660  0.4698  0.3356
  887MOL0     C19638   5.617  10.037   7.123 -0.2857  0.0035 -0.1032
  887MOL0     C19639   5.549  10.296   7.129  1.6045 -0.0765 -0.1856
  887MOL0     C19640   5.400  10.274   7.131  0.5190  0.0951  0.4521
  887MOL0     O19641   5.324  10.388   7.128  0.4321  0.2956  0.3229
  887MOL0     C19642   5.187  10.369   7.140  0.2334 -0.7949 -0.5292
  887MOL0     C19643   5.108  10.271   7.086  0.7274 -0.5212  0.0363
  887MOL0     C19644   4.971  10.252   7.112 -0.1813 -0.3576 -0.3609
  887MOL0     C19645   4.903  10.332   7.201 -0.9467 -0.6515 -0.1739
  887MOL0     O19646   4.774  10.318   7.234  0.1028 -0.0366 -0.4944
  887MOL0     C19647   4.724  10.191   7.233  0.0045 -0.8393  0.3880
  887MOL0     C19648   4.604  10.201   7.332  0.6123 -0.1788  0.2250
  887MOL0     C19649   4.495  10.094   7.290 -0.0203 -0.2758 -0.2010
  887MOL0     C19650   4.410  10.133   7.172  0.1474 -0.5127  0.9034
  887MOL0     C19651   4.347  10.006   7.108  0.8427  0.5509  0.3825
  887MOL0     C19652   4.261  10.033   6.992  0.2800  0.7042  0.5739
  887MOL0     C19653   4.120  10.085   7.025  0.1318 -0.8957  0.1302
  887MOL0     C19654   4.077  10.162   6.905  0.3287 -0.5997 -0.8620
  887MOL0    Cl19655   4.154  10.332   6.894 -0.0812 -0.8775  0.4581
  887MOL0     C19656   4.974  10.441   7.237 -0.6342 -0.4755  0.5177
  887MOL0     C19657   5.113  10.463   7.210 -0.0930  0.2748 -0.0825
  887MOL0     O19658   5.361  10.157   7.150  0.4656  0.3714  0.3344
  887MOL0     C19659   5.598  10.428   7.137  0.2556 -0.0097 -0.0563
  887MOL0     C19660   5.730  10.457   7.134 -0.0822 -0.3470  0.0422
  887MOL0     N19661   6.703  10.305   7.151 -0.8168  0.4690  0.1820
  887MOL0     N19662   6.793  10.210   7.140  0.4642  0.1910  0.3483
  887MOL0     C19663   7.692  10.181   7.196 -0.5106  0.3681 -0.4889
  887MOL0     C19664   7.807  10.262   7.210 -0.3117 -0.0183  0.5185
  887MOL0     C19665   8.081  10.621   7.201  0.0129  0.4196  0.2172
  887MOL0     C19666   8.151  10.615   7.317  0.9615  0.0414 -1.3127
  887MOL0     C19667   8.264  10.704   7.349  0.1532  0.2902  0.0176
  887MOL0     C19668   8.307  10.794   7.258  0.1005 -0.1547 -0.2277
  887MOL0     O19669   8.402  10.893   7.282  0.0813 -0.2382 -0.8566
  887MOL0     C19670   8.453  10.905   7.414 -0.2435 -0.2054  0.4479
  887MOL0     C19671   8.529  11.043   7.438 -0.3644  0.1991  0.5497
  887MOL0     C19672   8.653  11.051   7.339  1.0725 -0.0166  0.1032
  887MOL0     C19673   8.712  11.187   7.361  0.1339  0.6838  0.2752
  887MOL0     C19674   8.797  11.204   7.249 -0.1577  0.7635  0.5551
  887MOL0     C19675   8.881  11.210   7.156  0.4241  0.1647  0.1612
  887MOL0     C19676   8.225  10.804   7.144  0.7621 -0.7826 -1.2407
  887MOL0     C19677   8.115  10.727   7.120  0.4168 -0.3845 -0.2939
  887MOL0     H19678   7.671  10.561   7.250  2.4544  0.1409 -0.2651
  887MOL0     H19679   7.469  10.429   7.241  0.3160  0.8756 -0.7663
  887MOL0     H19680   7.501   9.993   7.126 -3.2038  1.1952 -1.9934
  887MOL0     H19681   7.499   9.999   7.310 -1.2953 -0.2181  0.3469
  887MOL0     H19682   7.250  10.014   7.151  0.6776  1.0022  0.0103
  887MOL0     H19683   7.324   9.862   7.207  0.6456  0.4606 -0.5308
  887MOL0     H19684   7.331  10.010   7.440  2.3360 -2.2225 -2.7846
  887MOL0     H19685   7.188  10.088   7.357 -2.1002  0.2923  1.8362
  887MOL0     H19686   7.213   9.785   7.436 -1.6056 -0.5851 -2.3781
  887MOL0     H19687   7.119   9.913   7.526 -1.0054  0.7968 -0.8176
  887MOL0     H19688   7.096   9.792   7.255  1.2240  3.0788 -1.6007
  887MOL0     H19689   6.991   9.772   7.393  0.4474 -2.1975 -1.2160
  887MOL0     H19690   6.945  10.033   7.351  0.6159  0.2421 -1.2152
  887MOL0     H19691   7.015  10.004   7.192 -0.0863 -1.4220 -1.1593
  887MOL0     H19692   6.843   9.797   7.211 -2.5791 -0.4859  0.3402
  887MOL0     H19693   6.756   9.905   7.316 -0.7213 -1.8419 -0.5113
  887MOL0     H19694   6.712   9.889   7.063  1.0505  0.3204 -0.5872
  887MOL0     H19695   6.873   9.967   7.038  0.4539 -2.5687  0.2934
  887MOL0     H19696   6.509  10.054   7.073  0.1961 -2.1702  1.5588
  887MOL0     H19697   6.464  10.423   7.169 -1.3395 -1.5505  2.5481
  887MOL0     H19698   6.449  10.390   7.005  2.2477  1.0707 -0.3144
  887MOL0     H19699   6.330  10.234   7.231  3.5024  1.2716  0.3333
  887MOL0     H19700   6.308  10.200   7.053 -2.7244 -2.3445  2.2172
  887MOL0     H19701   6.212  10.453   7.049 -0.1357 -0.9011  0.7921
  887MOL0     H19702   6.217  10.432   7.226 -0.5189  1.1915 -0.4500
  887MOL0     H19703   6.059  10.234   7.201 -1.1998  0.2390  0.1291
  887MOL0     H19704   6.053  10.257   7.023 -0.6609  1.1633 -0.3054
  887MOL0     H19705   5.862  10.156   7.146  1.2825  1.1643 -0.6215
  887MOL0     H19706   5.706   9.976   7.106 -0.6058 -0.0817 -1.6054
  887MOL0     H19707   5.570  10.002   7.215 -1.8984 -3.5805 -2.0742
  887MOL0     H19708   5.557  10.002   7.038 -1.6306  2.2824 -0.1822
  887MOL0     H19709   5.159  10.200   7.021 -0.2592 -2.5463  1.3727
  887MOL0     H19710   4.915  10.182   7.050  0.3467  0.1968 -1.4915
  887MOL0     H19711   4.690  10.164   7.132 -3.0946 -0.1392  1.1659
  887MOL0     H19712   4.800  10.121   7.270  0.8047 -1.7973 -2.7324
  887MOL0     H19713   4.648  10.188   7.432 -2.4525  0.1626  1.7482
  887MOL0     H19714   4.560  10.301   7.338  0.5827 -0.2457  1.3730
  887MOL0     H19715   4.433  10.072   7.377 -0.1361 -1.3842 -0.5575
  887MOL0     H19716   4.542   9.996   7.277  2.7863  1.0193 -0.7713
  887MOL0     H19717   4.319  10.187   7.199 -1.9378 -2.7822 -1.0255
  887MOL0     H19718   4.474  10.184   7.100  0.2098 -0.8344  0.7246
  887MOL0     H19719   4.309   9.941   7.187  1.4275 -0.2929 -0.0137
  887MOL0     H19720   4.428   9.944   7.067  1.2851  0.0785  1.9243
  887MOL0     H19721   4.325  10.086   6.922  1.0814 -0.8771  0.0613
  887MOL0     H19722   4.233   9.944   6.934 -3.0668  1.5671  0.6617
  887MOL0     H19723   4.135  10.154   7.109  1.7649  0.5002 -1.2313
  887MOL0     H19724   4.045  10.010   7.051  1.0461 -1.7361  0.3840
  887MOL0     H19725   3.968  10.178   6.911  0.4588  0.1833 -0.4677
  887MOL0     H19726   4.101  10.103   6.816 -1.5975 -0.5113 -1.5084
  887MOL0     H19727   4.922  10.522   7.288  0.2611  1.6993 -1.7740
  887MOL0     H19728   5.175  10.545   7.245  1.6442 -1.5067  1.2268
  887MOL0     H19729   5.539  10.519   7.143  0.0834 -0.0350 -1.1959
  887MOL0     H19730   5.761  10.561   7.141  0.7587 -0.5847  0.0207
  887MOL0     H19731   7.705  10.076   7.175 -1.5085 -0.1135  1.1418
  887MOL0     H19732   7.909  10.224   7.214  0.4060  1.8065  0.1825
  887MOL0     H19733   8.124  10.541   7.392 -0.2705 -0.3123 -2.0666
  887MOL0     H19734   8.305  10.692   7.449 -2.3189  0.1240  1.1046
  887MOL0     H19735   8.368  10.905   7.483  0.4309 -0.7648  1.2928
  887MOL0     H19736   8.519  10.821   7.438  1.0793  0.6658 -0.0589
  887MOL0     H19737   8.555  11.054   7.543  0.4346  1.6135  0.2247
  887MOL0     H19738   8.451  11.114   7.408 -1.8994 -1.8506 -0.5711
  887MOL0     H19739   8.619  11.046   7.235 -3.1044  0.2526  1.2593
  887MOL0     H19740   8.718  10.966   7.360  1.1114  0.3817  1.7465
  887MOL0     H19741   8.767  11.206   7.453  0.1658 -1.8926  0.8628
  887MOL0     H19742   8.632  11.261   7.356  0.2509  0.8054  0.1909
  887MOL0     H19743   8.956  11.219   7.080  0.2296  0.8051  0.0449
  887MOL0     H19744   8.252  10.894   7.090  0.3134 -0.3415 -0.7506
  887MOL0     H19745   8.073  10.739   7.021  0.2486  1.5642 -0.0315
  888MOL0     O19746   7.014   8.662   4.364  0.5193 -0.0372  0.0489
  888MOL0     C19747   7.128   8.651   4.331 -0.0278 -0.3755 -0.3906
  888MOL0     O19748   7.170   8.679   4.210  0.2456  0.0809  0.5394
  888MOL0     C19749   7.083   8.744   4.122  0.3734 -0.4812  0.3574
  888MOL0     C19750   7.065   8.885   4.111  0.3925 -0.1791  0.2091
  888MOL0     C19751   6.971   8.935   4.015 -0.1779 -0.6744  0.0836
  888MOL0     C19752   6.891   8.852   3.940 -0.9347 -0.5795 -0.1262
  888MOL0     O19753   6.819   8.893   3.833 -0.1388 -0.6150  0.2596
  888MOL0     C19754   6.682   8.917   3.876  0.5352  0.6653  0.6483
  888MOL0     C19755   6.603   8.857   3.757 -0.2820 -0.8804  0.2647
  888MOL0     C19756   6.450   8.836   3.788  0.0680  0.3832 -0.2913
  888MOL0     C19757   6.410   8.691   3.772  0.1572 -0.3901 -0.8538
  888MOL0     C19758   6.252   8.677   3.755  0.0338  0.0659 -0.1157
  888MOL0     C19759   6.233   8.700   3.600 -0.5032 -0.3359 -0.9362
  888MOL0     C19760   6.081   8.691   3.572  0.2578 -1.3055 -0.1674
  888MOL0     C19761   6.067   8.668   3.425 -0.5971 -0.3538  1.0843
  888MOL0     N19762   5.925   8.658   3.392  0.5466  0.0390  0.2304
  888MOL0     C19763   5.851   8.543   3.429 -0.3737 -0.1464 -0.0772
  888MOL0     C19764   5.727   8.565   3.380 -0.7457 -0.4604 -0.5295
  888MOL0     C19765   5.607   8.478   3.412  0.9845 -0.4110  0.6953
  888MOL0     C19766   5.533   8.554   3.521  0.2011  0.1810 -0.4494
  888MOL0     C19767   5.418   8.469   3.585  0.8036 -0.8879  0.0050
  888MOL0     C19768   5.324   8.558   3.674  0.8056  0.5535  0.4787
  888MOL0     O19769   5.224   8.473   3.734 -0.1001  0.0629  0.0416
  888MOL0     C19770   5.109   8.534   3.775 -0.5221  1.5326  0.2291
  888MOL0     C19771   5.091   8.669   3.816  0.7290  0.3145  0.1821
  888MOL0     C19772   4.959   8.724   3.840 -0.1535 -0.1031  0.5438
  888MOL0     C19773   4.941   8.871   3.843  0.9751 -0.2680 -0.0181
  888MOL0     C19774   4.842   8.636   3.835  0.2954  0.7358 -0.8863
  888MOL0     C19775   4.694   8.674   3.842 -0.1910  0.1402 -0.9630
  888MOL0     O19776   4.611   8.567   3.808  0.3802  0.0503 -0.8328
  888MOL0     C19777   4.478   8.601   3.792  0.7031 -0.1439 -0.2759
  888MOL0     C19778   4.390   8.628   3.901 -0.8825  0.2129  0.2212
  888MOL0     C19779   4.257   8.665   3.860 -0.1540  0.5486  0.3209
  888MOL0     C19780   4.219   8.672   3.721 -0.2043  0.3944 -1.1454
  888MOL0     O19781   4.095   8.709   3.678  0.2396  0.1572 -0.1987
  888MOL0     C19782   3.975   8.689   3.757  0.3284 -0.3304  0.5025
  888MOL0     C19783   3.914   8.566   3.696  0.1719  0.5545  0.1113
  888MOL0     C19784   3.975   8.432   3.730  0.0492  0.3642 -0.5515
  888MOL0     C19785   3.868   8.323   3.710 -0.3807  0.6410 -0.2653
  888MOL0     C19786   3.811   8.326   3.563 -0.7329 -0.6506  0.4831
  888MOL0     C19787   3.773   8.187   3.527  0.7070  0.1006  0.1998
  888MOL0     C19788   3.864   8.138   3.418  0.2017  0.0473 -0.2429
  888MOL0     C19789   3.817   8.004   3.358  0.0343 -0.0272 -0.2262
  888MOL0    Cl19790   3.647   7.999   3.279 -0.1714  0.0787  0.1235
  888MOL0     C19791   4.307   8.641   3.618  0.0238 -0.4172  0.0800
  888MOL0     C19792   4.436   8.610   3.652 -0.3463  0.3960 -0.2456
  888MOL0     O19793   4.662   8.790   3.867 -0.0432 -0.0935 -0.6916
  888MOL0     C19794   4.867   8.491   3.807 -0.7257  0.5471  0.0724
  888MOL0     C19795   4.997   8.453   3.776 -0.5289 -0.1422 -0.3190
  888MOL0     N19796   5.724   8.687   3.313 -0.1411 -0.0238  0.3697
  888MOL0     N19797   5.845   8.736   3.316  0.5945  0.2378 -0.4038
  888MOL0     C19798   6.911   8.715   3.950 -0.1006 -0.2277 -0.4838
  888MOL0     C19799   6.997   8.657   4.041  0.5369 -0.0511 -0.4171
  888MOL0     C19800   7.235   8.618   4.433  0.1629 -0.3235  0.0701
  888MOL0     C19801   7.367   8.594   4.395 -0.3985  0.8664  0.1681
  888MOL0     C19802   7.469   8.576   4.482 -0.1886  0.8509 -0.7398
  888MOL0     C19803   7.442   8.569   4.618  0.3998 -0.4002 -0.3923
  888MOL0     O19804   7.531   8.543   4.717  0.1346  0.6247  0.2401
  888MOL0     C19805   7.665   8.506   4.670  0.8456 -0.2574  0.1052
  888MOL0     C19806   7.759   8.490   4.788 -0.3530 -0.0957  0.1103
  888MOL0     C19807   7.902   8.440   4.756  0.2628 -0.1345 -0.5653
  888MOL0     C19808   7.896   8.303   4.708  0.2752  1.1212  0.6525
  888MOL0     C19809   8.032   8.253   4.703 -0.7100 -0.0336  0.0163
  888MOL0     C19810   8.146   8.219   4.698 -0.3315  0.2992  0.3961
  888MOL0     C19811   7.306   8.593   4.665  0.0578 -0.3374  0.0689
  888MOL0     C19812   7.205   8.601   4.570  0.0343  0.2155  0.0613
  888MOL0     H19813   7.133   8.947   4.168  1.2507 -1.5631  0.7448
  888MOL0     H19814   6.968   9.041   3.988 -0.4293 -0.4167  1.0761
  888MOL0     H19815   6.651   8.876   3.973 -2.4990  1.9842  0.3634
  888MOL0     H19816   6.665   9.025   3.883  0.2137  0.5690  1.5182
  888MOL0     H19817   6.607   8.933   3.678 -0.3856 -2.1316 -0.9854
  888MOL0     H19818   6.636   8.760   3.721  0.8590  0.0464 -1.2899
  888MOL0     H19819   6.418   8.872   3.886 -2.3696 -3.0846  0.3780
  888MOL0     H19820   6.391   8.897   3.720  0.2034  0.1551 -0.6181
  888MOL0     H19821   6.465   8.644   3.691  4.3046  0.1403  1.3779
  888MOL0     H19822   6.440   8.636   3.862 -0.7782 -0.6277 -0.6723
  888MOL0     H19823   6.217   8.575   3.776  0.7595 -0.7596 -2.5288
  888MOL0     H19824   6.186   8.749   3.803  0.9564  1.0647 -0.3096
  888MOL0     H19825   6.285   8.789   3.565  1.6385 -0.9491  0.4341
  888MOL0     H19826   6.279   8.612   3.553 -0.1615 -0.4499 -0.4075
  888MOL0     H19827   6.026   8.617   3.631 -1.2649 -0.5053 -0.5415
  888MOL0     H19828   6.048   8.790   3.603  0.7477 -0.8382 -1.0896
  888MOL0     H19829   6.116   8.583   3.377 -0.8234 -0.3506  0.8467
  888MOL0     H19830   6.115   8.753   3.377 -2.7880  0.3103 -0.0901
  888MOL0     H19831   5.880   8.463   3.495 -0.0386 -1.1037 -1.3426
  888MOL0     H19832   5.542   8.476   3.324  1.2119  0.2004  0.5110
  888MOL0     H19833   5.636   8.376   3.440 -1.1209 -1.8603 -1.9673
  888MOL0     H19834   5.500   8.649   3.476 -0.0397  0.3834  0.1418
  888MOL0     H19835   5.606   8.572   3.600 -1.3772  1.9139  0.7067
  888MOL0     H19836   5.448   8.379   3.640  1.4296 -1.2822 -0.9592
  888MOL0     H19837   5.352   8.440   3.504 -2.6777  2.0268  1.4887
  888MOL0     H19838   5.287   8.635   3.606  2.2393 -1.2181 -2.5375
  888MOL0     H19839   5.391   8.598   3.751 -0.3477  1.6397  0.9498
  888MOL0     H19840   5.172   8.742   3.814  1.6620 -0.4561  3.5887
  888MOL0     H19841   4.903   8.908   3.939  1.2255  2.4241 -0.8720
  888MOL0     H19842   5.040   8.917   3.847  1.1352 -0.6906  1.6700
  888MOL0     H19843   4.881   8.910   3.761  1.1023 -0.0255  0.0042
  888MOL0     H19844   4.415   8.616   4.006  1.1357 -2.8770 -0.4937
  888MOL0     H19845   4.195   8.703   3.940  0.5475  0.5799  0.8615
  888MOL0     H19846   3.991   8.669   3.863  0.8951  0.8136  0.6508
  888MOL0     H19847   3.915   8.780   3.747 -0.0807 -0.6084  0.4342
  888MOL0     H19848   3.809   8.564   3.726 -0.3753 -0.3901 -1.7407
  888MOL0     H19849   3.904   8.584   3.589 -0.7490 -0.0406  0.0929
  888MOL0     H19850   4.003   8.428   3.836 -1.6706 -3.0628 -0.0531
  888MOL0     H19851   4.055   8.402   3.663 -1.1353 -0.5541 -1.6174
  888MOL0     H19852   3.912   8.225   3.731  1.2163  1.5615  0.9064
  888MOL0     H19853   3.793   8.345   3.786  1.2113  1.6485  1.0668
  888MOL0     H19854   3.884   8.366   3.493 -0.9981 -0.5682  0.2509
  888MOL0     H19855   3.720   8.386   3.556 -0.7262 -0.6517  0.3931
  888MOL0     H19856   3.762   8.126   3.617  0.8013 -0.9987 -0.5073
  888MOL0     H19857   3.670   8.192   3.490  0.2745 -0.3620  1.2938
  888MOL0     H19858   3.967   8.131   3.453 -0.0761  1.5153  0.9700
  888MOL0     H19859   3.870   8.209   3.335  1.8627 -1.7765 -1.7992
  888MOL0     H19860   3.823   7.925   3.433  0.0716  1.5097  1.4712
  888MOL0     H19861   3.883   7.979   3.275 -0.8608  1.8677 -1.5916
  888MOL0     H19862   4.277   8.647   3.514  1.3393  1.1715 -0.2529
  888MOL0     H19863   4.501   8.602   3.566 -0.3476  0.2043 -0.2295
  888MOL0     H19864   4.794   8.412   3.815  2.1175 -2.1002  2.4106
  888MOL0     H19865   5.019   8.347   3.777  0.5924  0.0781  0.7166
  888MOL0     H19866   6.861   8.652   3.878  3.3662 -1.4791 -2.0516
  888MOL0     H19867   7.006   8.551   4.059  1.5328  0.0592 -0.1735
  888MOL0     H19868   7.389   8.591   4.289 -1.2838  1.0755 -0.0286
  888MOL0     H19869   7.565   8.567   4.433  0.9925  1.6337  1.3059
  888MOL0     H19870   7.661   8.412   4.613  0.4093 -0.5975  0.6848
  888MOL0     H19871   7.701   8.583   4.601  0.4083 -0.1877 -0.0466
  888MOL0     H19872   7.713   8.417   4.856  0.5227  0.6242  1.5407
  888MOL0     H19873   7.769   8.582   4.847  1.6172 -1.0227  1.3501
  888MOL0     H19874   7.967   8.438   4.844 -0.9553  1.4573  0.4201
  888MOL0     H19875   7.939   8.503   4.675 -0.8166 -3.6148 -4.1084
  888MOL0     H19876   7.871   8.313   4.602  1.4607  0.1051  0.2451
  888MOL0     H19877   7.824   8.244   4.765 -0.2566  1.0448 -0.0838
  888MOL0     H19878   8.251   8.200   4.703 -0.7537 -1.9409  3.2959
  888MOL0     H19879   7.286   8.589   4.771 -0.6134  1.0136  0.0095
  888MOL0     H19880   7.102   8.603   4.604 -0.3191  4.3406 -0.7041
  889MOL0     O19881   6.312   7.726   8.404 -0.1656 -0.1660  0.4754
  889MOL0     C19882   6.374   7.773   8.298 -0.1878 -0.0069 -0.6526
  889MOL0     O19883   6.317   7.816   8.180  0.7686  0.2279  0.1070
  889MOL0     C19884   6.187   7.855   8.194  0.6872 -0.0482 -0.2132
  889MOL0     C19885   6.090   7.801   8.109 -0.6827 -0.5576 -0.0927
  889MOL0     C19886   5.957   7.833   8.127 -0.1696  0.1359 -0.7171
  889MOL0     C19887   5.910   7.913   8.230  0.1482  0.2477  0.2717
  889MOL0     O19888   5.776   7.929   8.227  0.5117 -0.0920  0.1389
  889MOL0     C19889   5.717   7.945   8.350  0.4395 -0.3913 -1.0304
  889MOL0     C19890   5.567   7.908   8.349  0.1349 -0.4161  1.0570
  889MOL0     C19891   5.501   7.887   8.482 -0.0777  0.5839 -1.2254
  889MOL0     C19892   5.350   7.887   8.476 -0.5949 -0.3929  0.3597
  889MOL0     C19893   5.300   7.858   8.626 -0.0433  0.0006 -0.7856
  889MOL0     C19894   5.142   7.855   8.622 -0.0351  0.8318  0.7656
  889MOL0     C19895   5.065   7.829   8.746  0.1810 -0.0150  0.0957
  889MOL0     C19896   4.909   7.808   8.714 -0.6194 -0.1851 -0.5615
  889MOL0     N19897   4.830   7.813   8.839  0.4641  0.4513  0.9479
  889MOL0     C19898   4.789   7.922   8.902  0.4081 -0.6679  0.3540
  889MOL0     C19899   4.717   7.881   9.007  0.2811 -0.8492 -0.4077
  889MOL0     C19900   4.641   7.964   9.101  0.0044  0.0629 -0.1627
  889MOL0     C19901   4.489   7.993   9.063  0.3699  0.2703 -0.0932
  889MOL0     C19902   4.396   7.904   9.143 -0.0245  1.4012 -0.2669
  889MOL0     C19903   4.247   7.933   9.100 -0.5929  0.2109 -0.2993
  889MOL0     O19904   4.175   7.856   9.194 -0.0501 -0.6483  0.2846
  889MOL0     C19905   4.038   7.877   9.196  0.0952 -0.3723 -0.0704
  889MOL0     C19906   3.976   7.790   9.286 -0.9435  0.8154 -0.5679
  889MOL0     C19907   3.844   7.809   9.325  0.8869 -0.8932 -0.3011
  889MOL0     C19908   3.794   7.701   9.424  0.6077 -0.3586  0.2847
  889MOL0     C19909   3.769   7.922   9.278 -0.3319 -0.2701  0.2641
  889MOL0     C19910   3.630   7.944   9.320  0.5207  0.3294  0.1277
  889MOL0     O19911   3.538   7.951   9.214  0.2787  0.1327  0.3951
  889MOL0     C19912   3.401   7.977   9.248 -0.3480  1.1775  0.2943
  889MOL0     C19913   3.331   8.066   9.168  0.0858 -0.2939 -1.0397
  889MOL0     C19914   3.185   8.059   9.166  0.2616 -0.1169 -0.6428
  889MOL0     C19915   3.114   7.972   9.248 -0.7198  0.2338  0.7226
  889MOL0     O19916   2.976   7.940   9.258 -0.9385 -0.6024 -0.0961
  889MOL0     C19917   2.898   7.997   9.156 -1.1750  0.2662 -0.7423
  889MOL0     C19918   2.756   7.962   9.174  0.5329 -0.0308 -0.4786
  889MOL0     C19919   2.667   8.021   9.063  0.5228  0.4106 -1.1009
  889MOL0     C19920   2.571   7.924   9.012 -0.1948 -0.2697 -0.9777
  889MOL0     C19921   2.459   7.983   8.930 -0.1420  0.4130  0.9565
  889MOL0     C19922   2.371   8.080   9.017  0.3099  0.1565  0.3445
  889MOL0     C19923   2.248   8.125   8.945  0.1219 -0.2850  0.2061
  889MOL0     C19924   2.133   8.145   9.042 -0.2845  1.1275  0.1226
  889MOL0    Cl19925   2.171   8.263   9.178  0.0452 -0.1452 -0.3228
  889MOL0     C19926   3.188   7.905   9.337  0.7557  0.0390 -0.1071
  889MOL0     C19927   3.329   7.911   9.349  0.6238  0.1466  0.4014
  889MOL0     O19928   3.606   7.947   9.442  0.1645  0.0143  1.0659
  889MOL0     C19929   3.833   8.007   9.186 -0.7392  0.0433 -0.0432
  889MOL0     C19930   3.964   7.984   9.140  0.3216 -0.2108  0.7954
  889MOL0     N19931   4.709   7.741   9.004 -0.9564  0.0482 -0.2965
  889MOL0     N19932   4.775   7.700   8.895 -0.3523  0.4762 -0.3610
  889MOL0     C19933   6.009   7.974   8.312  0.3876 -0.3099  0.0304
  889MOL0     C19934   6.141   7.943   8.295 -0.3986 -0.6319 -0.4388
  889MOL0     C19935   6.515   7.751   8.303 -0.2538  0.1237  0.1911
  889MOL0     C19936   6.586   7.757   8.179 -0.4575  0.4008  1.3090
  889MOL0     C19937   6.726   7.739   8.170  0.2682  0.1743 -1.0076
  889MOL0     C19938   6.800   7.704   8.289  0.7554 -0.6255  0.0600
  889MOL0     O19939   6.931   7.671   8.288 -0.4677 -0.1213 -0.3926
  889MOL0     C19940   7.001   7.628   8.170  0.1929 -0.5112  0.0286
  889MOL0     C19941   7.054   7.759   8.094  0.1787 -0.3327  0.5993
  889MOL0     C19942   7.200   7.808   8.136 -0.3600  0.3349  0.5635
  889MOL0     C19943   7.245   7.934   8.071 -0.2480  0.0612 -0.6075
  889MOL0     C19944   7.388   7.939   8.093 -0.0313 -0.2212 -0.4121
  889MOL0     C19945   7.507   7.945   8.102 -0.3597 -0.0261  0.0068
  889MOL0     C19946   6.729   7.703   8.410  0.7439 -0.1527 -0.0374
  889MOL0     C19947   6.593   7.736   8.422  0.5221  0.5376  0.9051
  889MOL0     H19948   6.119   7.740   8.024  0.8833  1.6425 -1.2414
  889MOL0     H19949   5.891   7.788   8.054  0.7554  1.2449 -2.3021
  889MOL0     H19950   5.757   7.884   8.432  1.8133 -0.2001 -1.5396
  889MOL0     H19951   5.726   8.050   8.378 -1.1712 -0.3405 -0.5953
  889MOL0     H19952   5.517   7.991   8.299  0.4442  0.2419  1.8277
  889MOL0     H19953   5.545   7.816   8.294 -3.4407  1.6613 -1.4637
  889MOL0     H19954   5.530   7.785   8.506  2.1343  1.4580  0.1842
  889MOL0     H19955   5.546   7.947   8.562 -1.6328  0.3699 -0.1588
  889MOL0     H19956   5.316   7.987   8.448  0.8099  0.3795  1.2853
  889MOL0     H19957   5.302   7.816   8.409  2.3644 -1.4595 -0.7858
  889MOL0     H19958   5.348   7.766   8.663 -1.3574 -0.7466 -0.8894
  889MOL0     H19959   5.318   7.929   8.708 -1.9322 -1.7581  1.3043
  889MOL0     H19960   5.096   7.935   8.563  0.5623  0.6612  0.0448
  889MOL0     H19961   5.111   7.774   8.555 -1.2258  2.2123 -0.4285
  889MOL0     H19962   5.096   7.736   8.794 -1.2603 -1.2405 -1.2232
  889MOL0     H19963   5.071   7.913   8.815  1.2390  0.1664 -0.2030
  889MOL0     H19964   4.892   7.710   8.669  1.1246 -0.9177  0.3027
  889MOL0     H19965   4.875   7.896   8.658  2.1124  1.2981 -0.0533
  889MOL0     H19966   4.810   8.025   8.874 -0.2461 -0.4380  0.6807
  889MOL0     H19967   4.651   7.922   9.201 -0.2464 -0.9456 -0.5440
  889MOL0     H19968   4.675   8.068   9.102 -0.2560  0.2247  3.2076
  889MOL0     H19969   4.474   7.978   8.956  0.0555 -0.1666  0.0088
  889MOL0     H19970   4.462   8.095   9.093 -3.2075 -1.2887  2.7787
  889MOL0     H19971   4.407   7.904   9.252 -2.5104 -6.3156  0.5780
  889MOL0     H19972   4.422   7.802   9.113  0.4474  0.7354  2.1644
  889MOL0     H19973   4.241   7.901   8.995 -0.1609 -0.7955 -0.0282
  889MOL0     H19974   4.234   8.042   9.091 -2.5923 -0.0298 -0.7418
  889MOL0     H19975   4.034   7.717   9.340 -0.9257  1.6348  0.5490
  889MOL0     H19976   3.876   7.644   9.469 -0.7001 -1.9346  0.7712
  889MOL0     H19977   3.744   7.747   9.510  3.2644 -0.3350  1.9348
  889MOL0     H19978   3.717   7.642   9.375  0.9290 -0.7818  0.2845
  889MOL0     H19979   3.369   8.113   9.077 -2.5537 -2.5480 -3.5202
  889MOL0     H19980   3.123   8.114   9.096 -0.9363  2.0911  1.9426
  889MOL0     H19981   2.903   8.105   9.174 -0.3523  0.0381  0.5218
  889MOL0     H19982   2.942   7.984   9.057  1.5046  1.7410  0.1598
  889MOL0     H19983   2.749   7.853   9.174 -0.2117  0.0036 -1.0899
  889MOL0     H19984   2.714   7.986   9.272  0.2706  1.5503 -0.9606
  889MOL0     H19985   2.728   8.062   8.982 -0.5998  1.7690 -1.3003
  889MOL0     H19986   2.620   8.112   9.099 -1.5188 -0.7224 -0.7204
  889MOL0     H19987   2.614   7.850   8.943  0.0514  2.3129 -3.8176
  889MOL0     H19988   2.523   7.872   9.096 -2.6919  0.5998 -1.7919
  889MOL0     H19989   2.391   7.901   8.905  0.7469 -0.0033 -0.2238
  889MOL0     H19990   2.495   8.019   8.833 -3.7470 -0.9398 -1.0886
  889MOL0     H19991   2.351   8.019   9.106  1.9084 -2.6700 -1.1020
  889MOL0     H19992   2.416   8.174   9.051 -0.0637  0.2695  0.5340
  889MOL0     H19993   2.223   8.046   8.873 -0.3375 -2.6694  2.7955
  889MOL0     H19994   2.260   8.214   8.882  0.9200 -0.3711  0.2278
  889MOL0     H19995   2.112   8.044   9.079  2.2566 -0.9681 -3.4408
  889MOL0     H19996   2.052   8.186   8.983 -0.1249  0.1900 -0.7702
  889MOL0     H19997   3.126   7.849   9.405 -1.0350  0.8334 -1.0150
  889MOL0     H19998   3.385   7.843   9.412  0.2887 -0.0035  0.5419
  889MOL0     H19999   3.775   8.089   9.146 -2.0409 -0.2580  1.1242
  889MOL0     H20000   4.007   8.059   9.074  1.3356 -0.6609  0.9214
  889MOL0     H20001   5.972   8.048   8.383 -3.2110 -1.3986 -0.5263
  889MOL0     H20002   6.218   7.988   8.356  0.0378  0.9236 -2.0546
  889MOL0     H20003   6.526   7.759   8.089 -1.5423  1.4670  2.0288
  889MOL0     H20004   6.778   7.731   8.075 -0.8135  1.8629 -1.7776
  889MOL0     H20005   7.088   7.566   8.191 -0.9840 -1.9403  0.8132
  889MOL0     H20006   6.931   7.569   8.111 -2.0712  0.4302  1.6612
  889MOL0     H20007   6.981   7.840   8.103 -1.6309 -1.9185  0.9178
  889MOL0     H20008   7.060   7.745   7.986 -1.1855  1.0212  0.3155
  889MOL0     H20009   7.263   7.723   8.107 -0.5507  1.1121 -2.4939
  889MOL0     H20010   7.208   7.819   8.244 -2.7365 -3.2976  1.2876
  889MOL0     H20011   7.185   8.017   8.110  0.8634  0.9938 -0.8230
  889MOL0     H20012   7.220   7.927   7.965  1.2666 -1.8812 -0.8756
  889MOL0     H20013   7.614   7.938   8.106 -0.2187  2.0393  2.1754
  889MOL0     H20014   6.777   7.688   8.506  1.1742 -1.2983 -0.4191
  889MOL0     H20015   6.564   7.748   8.526  2.7079  0.6153  1.5510
  890MOL0     O20016   5.619   0.842   7.234  0.2942 -0.6425 -0.1551
  890MOL0     C20017   5.675   0.929   7.308  0.3688 -0.4247  0.1806
  890MOL0     O20018   5.619   1.050   7.350  0.0852  0.0174  0.1914
  890MOL0     C20019   5.486   1.068   7.319 -0.6161 -0.2498  0.3223
  890MOL0     C20020   5.387   1.015   7.402 -0.0192  0.6162 -0.7066
  890MOL0     C20021   5.255   1.031   7.379 -0.2065 -0.6213  0.2721
  890MOL0     C20022   5.221   1.109   7.261 -0.5421 -0.7127  0.5114
  890MOL0     O20023   5.099   1.136   7.201 -0.1105  0.0323 -0.1646
  890MOL0     C20024   4.993   1.057   7.255  0.5428 -0.1625  0.7075
  890MOL0     C20025   4.869   1.106   7.181 -0.1081  0.0018  0.0540
  890MOL0     C20026   4.836   1.249   7.214  1.2812  0.0671  0.5311
  890MOL0     C20027   4.691   1.278   7.173 -0.0353 -0.6045 -0.2794
  890MOL0     C20028   4.651   1.425   7.198  0.4653 -0.2788 -0.5444
  890MOL0     C20029   4.546   1.478   7.114  0.8867 -0.2287  0.0644
  890MOL0     C20030   4.406   1.399   7.132  0.0825  0.2700 -0.2452
  890MOL0     C20031   4.306   1.462   7.040  0.5292 -0.1643  0.2830
  890MOL0     N20032   4.176   1.386   7.040 -0.2429 -0.0814 -0.1078
  890MOL0     C20033   4.068   1.446   6.991 -0.3507 -0.5427  0.0533
  890MOL0     C20034   3.961   1.371   7.023  1.1073  0.4527 -0.3996
  890MOL0     C20035   3.815   1.404   6.991 -0.0564  0.9677  0.5831
  890MOL0     C20036   3.758   1.371   6.849 -0.0199 -0.9719 -0.1261
  890MOL0     C20037   3.613   1.397   6.851  0.5752  0.4206  0.4457
  890MOL0     C20038   3.538   1.325   6.724 -0.1245  1.4485 -0.4005
  890MOL0     O20039   3.407   1.381   6.703 -0.9765 -0.0578 -0.2939
  890MOL0     C20040   3.295   1.330   6.763  0.4702  0.6746 -0.1477
  890MOL0     C20041   3.182   1.403   6.734 -0.1978  0.2605 -0.6180
  890MOL0     C20042   3.050   1.362   6.781 -0.7304  0.0268 -0.4576
  890MOL0     C20043   2.935   1.443   6.746  0.3167 -0.5126 -0.4254
  890MOL0     C20044   3.047   1.235   6.852 -0.6000 -0.6448  0.3692
  890MOL0     C20045   2.923   1.173   6.890 -0.0767  0.1558  0.5435
  890MOL0     O20046   2.838   1.152   6.782  1.1162  0.4097 -0.4218
  890MOL0     C20047   2.714   1.112   6.822  0.3764 -0.2635 -0.0198
  890MOL0     C20048   2.685   0.977   6.848 -1.3327 -0.3564  0.0933
  890MOL0     C20049   2.563   0.938   6.901 -0.5891 -0.7215  0.4921
  890MOL0     C20050   2.473   1.036   6.943 -0.5442  0.1114  0.3303
  890MOL0     O20051   2.355   1.003   7.005  1.1071 -0.6280  0.5324
  890MOL0     C20052   2.233   1.031   6.935  0.1930 -0.4701  0.7889
  890MOL0     C20053   2.123   1.007   7.033  0.8125 -0.8558 -0.0651
  890MOL0     C20054   1.977   1.034   6.979 -1.1265  0.0778 -0.0731
  890MOL0     C20055   1.872   0.986   7.081 -1.0000 -0.1163  0.1058
  890MOL0     C20056   1.737   1.046   7.043  0.8497 -0.6463 -0.1276
  890MOL0     C20057   1.625   1.014   7.139  0.6146 -0.2287 -0.4677
  890MOL0     C20058   1.487   1.055   7.089  0.1335  1.0889 -0.1514
  890MOL0     C20059   1.377   1.032   7.196 -1.1994 -0.2704 -0.7863
  890MOL0    Cl20060   1.217   1.072   7.110  0.3630 -0.3256  0.2309
  890MOL0     C20061   2.502   1.172   6.922  0.1837  0.1462 -0.3741
  890MOL0     C20062   2.623   1.208   6.865  0.1050 -0.2797  1.0150
  890MOL0     O20063   2.901   1.149   7.006 -0.6540  0.2995 -0.5386
  890MOL0     C20064   3.166   1.169   6.887  0.1755 -0.2625 -0.9546
  890MOL0     C20065   3.290   1.217   6.846  0.0492  0.9353  0.2225
  890MOL0     N20066   4.005   1.270   7.109  0.1693 -0.8158  0.4898
  890MOL0     N20067   4.140   1.281   7.109 -0.4613  0.0322  0.6396
  890MOL0     C20068   5.323   1.176   7.192 -0.0201  0.5133  0.2225
  890MOL0     C20069   5.458   1.161   7.223 -0.3554  0.4320 -0.7566
  890MOL0     C20070   5.810   0.901   7.347 -0.1809 -0.0557 -0.9604
  890MOL0     C20071   5.877   0.995   7.425 -0.0668  0.1047  0.3045
  890MOL0     C20072   6.003   0.968   7.477 -0.4932 -0.2452  1.3929
  890MOL0     C20073   6.066   0.847   7.455  0.0479  0.1691 -0.1031
  890MOL0     O20074   6.194   0.837   7.509  0.6524 -0.3376  1.0075
  890MOL0     C20075   6.275   0.717   7.480 -0.2924 -0.0054 -0.3788
  890MOL0     C20076   6.416   0.754   7.414 -0.2583  0.1832 -0.0640
  890MOL0     C20077   6.506   0.636   7.391  0.0348  0.2093 -0.1803
  890MOL0     C20078   6.638   0.673   7.318 -0.4902  1.0119 -0.5647
  890MOL0     C20079   6.728   0.740   7.413  0.1913  0.7086  0.6212
  890MOL0     C20080   6.807   0.773   7.495  0.1530 -0.2998 -0.2789
  890MOL0     C20081   5.996   0.748   7.386 -1.3047 -0.5775 -0.3788
  890MOL0     C20082   5.874   0.774   7.331 -1.0699  0.0399 -0.1850
  890MOL0     H20083   5.405   0.961   7.494 -1.9927  1.3922  0.2021
  890MOL0     H20084   5.185   1.006   7.458 -0.7954 -0.9777 -0.3552
  890MOL0     H20085   5.011   0.953   7.229 -2.5097 -0.3527 -1.1917
  890MOL0     H20086   4.983   1.069   7.364  0.2762 -1.3469  0.8235
  890MOL0     H20087   4.881   1.097   7.073 -1.7371 -2.8775  0.0191
  890MOL0     H20088   4.782   1.042   7.200  1.5390 -2.5531 -0.4955
  890MOL0     H20089   4.852   1.258   7.321 -0.2619 -2.6877  1.0804
  890MOL0     H20090   4.902   1.319   7.161  0.4767  1.0922  0.8645
  890MOL0     H20091   4.661   1.256   7.070 -2.6133  0.6444  0.1186
  890MOL0     H20092   4.625   1.215   7.234 -1.9814 -0.4277 -2.0848
  890MOL0     H20093   4.628   1.427   7.305  3.8448 -2.3912  0.3539
  890MOL0     H20094   4.742   1.484   7.188  0.1915  0.3641  0.5864
  890MOL0     H20095   4.525   1.580   7.148 -0.4543 -0.1633 -0.8873
  890MOL0     H20096   4.570   1.484   7.008  2.0321  0.1040  0.3289
  890MOL0     H20097   4.421   1.293   7.113  0.2466 -0.2889  2.6196
  890MOL0     H20098   4.377   1.410   7.237  1.9543  1.9799  0.1604
  890MOL0     H20099   4.357   1.440   6.946 -1.9930 -0.4554 -1.1223
  890MOL0     H20100   4.283   1.566   7.065 -3.8096 -1.3454  2.2956
  890MOL0     H20101   4.061   1.537   6.932 -1.1164  0.3047  1.3889
  890MOL0     H20102   3.758   1.348   7.065  0.7824  1.7290  1.8465
  890MOL0     H20103   3.789   1.509   7.008 -1.8548  0.7178 -0.4260
  890MOL0     H20104   3.786   1.269   6.819  2.6383 -0.5567  0.6753
  890MOL0     H20105   3.805   1.437   6.776 -0.3969 -1.6432 -1.0014
  890MOL0     H20106   3.599   1.505   6.852  0.1095  0.3658  0.1845
  890MOL0     H20107   3.576   1.362   6.948  0.1024  0.3099  0.2303
  890MOL0     H20108   3.534   1.217   6.740  3.6698  0.7510 -2.9213
  890MOL0     H20109   3.603   1.339   6.638  1.4247 -1.4380  0.1873
  890MOL0     H20110   3.192   1.494   6.676  0.4456 -0.2523 -1.3219
  890MOL0     H20111   2.968   1.538   6.702  3.0239 -0.7000  0.9771
  890MOL0     H20112   2.882   1.378   6.677 -1.5318 -1.5906  1.8753
  890MOL0     H20113   2.871   1.458   6.833  0.8744 -2.2247  0.3273
  890MOL0     H20114   2.758   0.899   6.829 -0.9593  0.1915 -0.8200
  890MOL0     H20115   2.548   0.832   6.921  1.1697 -0.9410  0.8200
  890MOL0     H20116   2.231   1.134   6.898  0.5857 -1.1997 -1.4414
  890MOL0     H20117   2.220   0.966   6.848  0.5741  0.2740  0.1665
  890MOL0     H20118   2.129   0.908   7.079  0.9071 -1.0877 -0.5662
  890MOL0     H20119   2.136   1.080   7.113  2.6225 -0.9796 -0.2013
  890MOL0     H20120   1.953   0.993   6.881 -0.0882 -1.8564  0.4252
  890MOL0     H20121   1.972   1.144   6.974 -1.9606  0.0177 -0.7002
  890MOL0     H20122   1.854   0.879   7.067 -3.1672  0.4983 -2.8225
  890MOL0     H20123   1.894   1.005   7.186  4.2126 -2.4686 -0.2554
  890MOL0     H20124   1.714   1.050   6.937  0.4129 -1.1597 -0.0618
  890MOL0     H20125   1.757   1.151   7.065  2.1829 -1.0221  0.5849
  890MOL0     H20126   1.622   0.905   7.152 -1.8472 -0.3378 -1.5738
  890MOL0     H20127   1.640   1.066   7.234  1.8424 -1.5170  0.0757
  890MOL0     H20128   1.465   0.989   7.004  0.7258  0.1735  0.3952
  890MOL0     H20129   1.482   1.158   7.051  0.4466  1.4937  0.8862
  890MOL0     H20130   1.399   1.109   7.270  1.4595  0.7897 -2.5396
  890MOL0     H20131   1.383   0.927   7.227 -4.9985 -0.2388  0.5282
  890MOL0     H20132   2.427   1.244   6.952 -0.6008 -1.3549  1.4932
  890MOL0     H20133   2.648   1.310   6.837 -1.9936 -0.6851 -3.0900
  890MOL0     H20134   3.143   1.092   6.961 -2.8175  0.7903 -0.6514
  890MOL0     H20135   3.385   1.173   6.875 -1.4021 -2.3365  0.4248
  890MOL0     H20136   5.289   1.247   7.118 -0.1971 -0.1948 -0.3892
  890MOL0     H20137   5.533   1.218   7.170 -0.5638  0.1434 -1.3635
  890MOL0     H20138   5.826   1.089   7.440 -0.5850  0.2365 -1.9544
  890MOL0     H20139   6.053   1.051   7.526 -0.7040  0.1128  0.9989
  890MOL0     H20140   6.284   0.664   7.575  0.5493 -0.5952 -0.7718
  890MOL0     H20141   6.227   0.648   7.410 -0.5145 -2.9009  2.4355
  890MOL0     H20142   6.459   0.830   7.479 -2.9607  0.7681  1.2044
  890MOL0     H20143   6.393   0.799   7.317  0.3563  0.1241 -0.2387
  890MOL0     H20144   6.447   0.561   7.337 -1.2775  0.0939  1.3194
  890MOL0     H20145   6.530   0.602   7.492  0.5351 -1.3542 -0.8058
  890MOL0     H20146   6.615   0.724   7.225 -2.1447  1.1454 -0.1204
  890MOL0     H20147   6.681   0.576   7.292 -2.1342  0.2673 -0.6193
  890MOL0     H20148   6.890   0.795   7.560  0.1348  1.3219 -0.7678
  890MOL0     H20149   6.039   0.649   7.372  0.2737  0.0281  0.0688
  890MOL0     H20150   5.823   0.693   7.279 -0.1361 -0.2684 -0.6393
  891MOL0     O20151   6.623   1.019   5.978  0.2056 -0.2219  0.1111
  891MOL0     C20152   6.697   1.090   5.906  0.6416 -0.7060  0.7094
  891MOL0     O20153   6.654   1.176   5.805 -0.6296 -0.1857 -0.6430
  891MOL0     C20154   6.521   1.213   5.806 -0.0421 -0.0744  0.3872
  891MOL0     C20155   6.458   1.284   5.917  0.1411  0.6090  0.2402
  891MOL0     C20156   6.322   1.314   5.916 -0.5749 -0.3204 -0.1033
  891MOL0     C20157   6.250   1.299   5.801 -0.0177  0.0639  0.2791
  891MOL0     O20158   6.123   1.346   5.813 -0.0486 -0.0660  0.0699
  891MOL0     C20159   6.014   1.287   5.740  0.8710  0.4641 -0.4917
  891MOL0     C20160   5.888   1.346   5.807  0.5917 -0.1125 -0.1849
  891MOL0     C20161   5.757   1.310   5.731 -0.8059 -0.5612  0.1089
  891MOL0     C20162   5.769   1.165   5.669  0.6987 -1.0733 -0.4099
  891MOL0     C20163   5.642   1.103   5.615  0.6918 -0.5032  0.2636
  891MOL0     C20164   5.568   1.182   5.504 -0.0419 -0.0593  0.0039
  891MOL0     C20165   5.445   1.100   5.463  1.0643 -0.4781  0.2511
  891MOL0     C20166   5.383   1.150   5.330  0.7192  0.5590 -0.3155
  891MOL0     N20167   5.247   1.085   5.309 -0.0897  0.3567  0.0505
  891MOL0     C20168   5.132   1.113   5.379  0.8690  0.4834 -0.7633
  891MOL0     C20169   5.045   1.016   5.334  0.3505 -0.0655 -0.2890
  891MOL0     C20170   4.903   0.999   5.388  0.4427  0.0359  1.2555
  891MOL0     C20171   4.799   1.102   5.346  0.5840  0.8865  0.0461
  891MOL0     C20172   4.781   1.113   5.194 -0.6914  0.1106 -0.0039
  891MOL0     C20173   4.688   1.005   5.131  0.3014  0.9490  0.0942
  891MOL0     O20174   4.553   1.009   5.184 -0.1029  0.4840  0.4484
  891MOL0     C20175   4.453   0.955   5.097 -1.3147  0.0168 -1.0295
  891MOL0     C20176   4.318   0.984   5.131  0.1188  0.3209 -0.1871
  891MOL0     C20177   4.214   0.957   5.049 -0.3470  0.1910  1.1504
  891MOL0     C20178   4.075   0.998   5.091 -0.0128 -0.3591  0.2544
  891MOL0     C20179   4.240   0.874   4.934  0.2288  0.6383  0.1511
  891MOL0     C20180   4.146   0.846   4.825 -1.1547  0.2465  0.1114
  891MOL0     O20181   4.198   0.795   4.712  1.2477 -0.6928  0.1408
  891MOL0     C20182   4.119   0.749   4.606 -0.5399 -0.4412  0.8844
  891MOL0     C20183   4.039   0.633   4.628  0.2976  0.2990  1.1715
  891MOL0     C20184   3.973   0.577   4.519  0.3553 -0.0567 -0.6419
  891MOL0     C20185   3.975   0.635   4.390  0.1527 -0.0756 -0.2728
  891MOL0     O20186   3.906   0.560   4.304 -0.6292 -0.7727  0.2044
  891MOL0     C20187   3.876   0.609   4.172 -0.0343 -0.0619  0.4424
  891MOL0     C20188   3.827   0.490   4.095 -0.1279 -0.4482 -0.3385
  891MOL0     C20189   3.717   0.410   4.162 -0.1424 -0.0275  0.5755
  891MOL0     C20190   3.696   0.271   4.095  1.0118 -0.6279 -0.5588
  891MOL0     C20191   3.579   0.191   4.163 -0.2389 -0.1694  0.9590
  891MOL0     C20192   3.565   0.054   4.096  0.4257  1.0692  0.5269
  891MOL0     C20193   3.465  -0.033   4.176  0.4779  0.0999  0.1149
  891MOL0     C20194   3.424  -0.155   4.105  0.1122  0.4028  0.2700
  891MOL0    Cl20195   3.287  -0.229   4.200 -0.0885  0.4514  0.1159
  891MOL0     C20196   4.063   0.742   4.362 -0.0349 -0.1614 -0.1769
  891MOL0     C20197   4.133   0.797   4.473 -0.3736 -0.1820 -0.3359
  891MOL0     O20198   4.026   0.863   4.846  0.0111  0.4349 -0.2780
  891MOL0     C20199   4.370   0.812   4.919 -1.6996  0.3370 -0.2055
  891MOL0     C20200   4.476   0.861   5.003 -0.9235 -0.5687  0.2831
  891MOL0     N20201   5.111   0.932   5.251 -0.3094  0.0301 -0.2820
  891MOL0     N20202   5.238   0.971   5.234 -0.3638  0.0441  0.3368
  891MOL0     C20203   6.306   1.238   5.692 -0.9993 -0.1610  0.0089
  891MOL0     C20204   6.440   1.196   5.692  0.4488  0.3341 -0.8890
  891MOL0     C20205   6.842   1.075   5.918 -1.2313  0.1875 -0.3999
  891MOL0     C20206   6.936   1.161   5.853 -0.0710  0.6679 -0.5432
  891MOL0     C20207   7.074   1.153   5.875 -0.1585  1.1155  0.2646
  891MOL0     C20208   7.124   1.053   5.956  0.0357  0.0187  0.3281
  891MOL0     O20209   7.256   1.025   5.989  0.0052 -0.5604 -0.1447
  891MOL0     C20210   7.356   1.093   5.912 -0.2526  0.2967 -0.3271
  891MOL0     C20211   7.493   1.058   5.978  0.2183 -0.3670 -0.4991
  891MOL0     C20212   7.579   1.181   5.990  0.4454  0.1784  0.5077
  891MOL0     C20213   7.524   1.276   6.089  0.3054 -0.1612 -0.2150
  891MOL0     C20214   7.618   1.382   6.127 -0.3747 -0.0246 -1.1874
  891MOL0     C20215   7.685   1.468   6.188 -1.0476 -0.2599  0.2205
  891MOL0     C20216   7.036   0.973   6.020  0.0174  0.0907  0.1771
  891MOL0     C20217   6.900   0.986   6.008 -0.3562  0.0698 -0.0890
  891MOL0     H20218   6.526   1.286   6.002  3.2012  0.3308 -2.0171
  891MOL0     H20219   6.276   1.365   6.000 -1.2424 -2.3042  0.7896
  891MOL0     H20220   6.019   1.325   5.637  2.8031  0.7826 -0.3234
  891MOL0     H20221   6.022   1.178   5.744  0.5994  0.4443 -0.4983
  891MOL0     H20222   5.881   1.324   5.914  1.3471  1.7273  0.2775
  891MOL0     H20223   5.891   1.455   5.806 -0.9652  0.0168  2.3011
  891MOL0     H20224   5.676   1.320   5.803 -0.0434  2.0853  0.7428
  891MOL0     H20225   5.748   1.386   5.652 -0.2130  2.2320  2.5360
  891MOL0     H20226   5.850   1.174   5.596  1.6362  0.2675  0.7529
  891MOL0     H20227   5.811   1.101   5.746  2.0060  1.5619  1.1958
  891MOL0     H20228   5.653   1.002   5.577 -0.0483 -0.0345 -1.2678
  891MOL0     H20229   5.563   1.104   5.691 -0.2833 -0.8345 -0.7254
  891MOL0     H20230   5.544   1.286   5.530 -1.6142 -0.7736  1.6661
  891MOL0     H20231   5.627   1.181   5.412 -1.5308 -1.5768 -1.0057
  891MOL0     H20232   5.473   0.995   5.452  0.6217 -0.6013  0.2574
  891MOL0     H20233   5.371   1.106   5.544  2.2458  0.2024  1.3246
  891MOL0     H20234   5.449   1.122   5.248  0.7368 -3.7760  0.9297
  891MOL0     H20235   5.360   1.257   5.325 -0.4723  0.2887 -1.0881
  891MOL0     H20236   5.112   1.195   5.447 -1.2508 -1.2735  0.8635
  891MOL0     H20237   4.863   0.905   5.349  0.2238  0.3233  0.7842
  891MOL0     H20238   4.908   0.984   5.496  3.3904 -2.7362  0.8800
  891MOL0     H20239   4.835   1.197   5.386 -1.7496  0.6915  2.8889
  891MOL0     H20240   4.708   1.073   5.400  2.5258 -0.9363  2.5512
  891MOL0     H20241   4.876   1.091   5.145  1.0020  0.1161  3.0336
  891MOL0     H20242   4.738   1.211   5.170 -1.7832  0.1968  2.0621
  891MOL0     H20243   4.737   0.908   5.138  0.5365  1.0876  0.4225
  891MOL0     H20244   4.684   1.015   5.022  1.2032 -1.3220 -0.1981
  891MOL0     H20245   4.298   1.040   5.222 -0.3080  1.0620 -0.7234
  891MOL0     H20246   4.076   1.040   5.192  0.2313  1.3474 -0.4170
  891MOL0     H20247   4.024   1.070   5.026 -1.4559 -0.4476  1.2300
  891MOL0     H20248   4.020   0.903   5.085 -1.1846  0.3441 -0.7028
  891MOL0     H20249   4.041   0.585   4.725  0.5685  1.2355  1.6436
  891MOL0     H20250   3.908   0.492   4.531 -0.0875  0.4415  0.6769
  891MOL0     H20251   3.809   0.695   4.175 -1.0582 -0.8488  0.4778
  891MOL0     H20252   3.972   0.633   4.125  0.6175  1.3463  2.3657
  891MOL0     H20253   3.782   0.528   4.003  1.1085  0.7661 -0.4681
  891MOL0     H20254   3.909   0.421   4.073  1.2930  1.4522 -1.1921
  891MOL0     H20255   3.622   0.463   4.148  0.7917  1.8730  1.0668
  891MOL0     H20256   3.728   0.413   4.271 -1.3045 -0.8864  0.7277
  891MOL0     H20257   3.678   0.270   3.988  2.3491 -1.0059 -0.7972
  891MOL0     H20258   3.789   0.217   4.116 -0.0897 -2.0387  1.0288
  891MOL0     H20259   3.489   0.252   4.162 -0.2336 -0.1649  0.6741
  891MOL0     H20260   3.597   0.171   4.269 -0.5631  1.7813  1.4133
  891MOL0     H20261   3.535   0.067   3.992  0.2634  0.9060  0.5514
  891MOL0     H20262   3.662   0.003   4.098 -0.8025 -1.6699 -1.6541
  891MOL0     H20263   3.373   0.022   4.192 -1.3511 -2.3301 -1.2793
  891MOL0     H20264   3.508  -0.072   4.269  1.4763  0.6604 -0.0988
  891MOL0     H20265   3.506  -0.228   4.104  0.0885  0.3765 -0.5598
  891MOL0     H20266   3.392  -0.137   4.002 -1.8061  0.9191  0.9117
  891MOL0     H20267   4.077   0.795   4.268 -0.8377 -3.1141 -2.1205
  891MOL0     H20268   4.197   0.885   4.469  0.3367 -0.5568  1.4754
  891MOL0     H20269   4.404   0.755   4.833 -0.0128  0.2576  0.4645
  891MOL0     H20270   4.578   0.847   4.967 -0.2609  1.5905  1.1790
  891MOL0     H20271   6.247   1.225   5.601 -2.9170 -1.4103  1.3421
  891MOL0     H20272   6.482   1.144   5.607  0.4312 -1.3855  0.1168
  891MOL0     H20273   6.903   1.250   5.800  1.9873  2.1566  0.5383
  891MOL0     H20274   7.139   1.209   5.810  1.4919  0.2289  1.0676
  891MOL0     H20275   7.354   1.057   5.808  0.4714 -0.6161 -0.0387
  891MOL0     H20276   7.334   1.200   5.911 -2.6798 -0.0767  2.3503
  891MOL0     H20277   7.545   0.994   5.907  0.0680 -1.2774  0.1933
  891MOL0     H20278   7.489   1.011   6.077  2.2544  0.2333 -0.0698
  891MOL0     H20279   7.582   1.239   5.896 -1.2230 -0.1600  0.2073
  891MOL0     H20280   7.680   1.150   6.016 -0.4886 -0.6232  3.5141
  891MOL0     H20281   7.496   1.225   6.182 -0.8636  1.4674  0.3788
  891MOL0     H20282   7.435   1.319   6.043  1.3227  0.5602 -1.5729
  891MOL0     H20283   7.733   1.552   6.235 -1.4546 -0.2605  0.6368
  891MOL0     H20284   7.074   0.896   6.087  0.8285 -0.0981 -0.4760
  891MOL0     H20285   6.832   0.921   6.063 -1.5495  0.3434 -1.1883
  892MOL0     O20286   5.974  10.449   4.782 -0.2259  0.0228  0.2408
  892MOL0     C20287   6.025  10.504   4.885  0.5383  0.2850  0.5927
  892MOL0     O20288   5.960  10.538   5.002  0.0694  0.6225  0.0737
  892MOL0     C20289   5.828  10.508   4.997 -0.2441 -0.5802 -0.1234
  892MOL0     C20290   5.779  10.375   5.002 -0.2483  0.1539 -0.1379
  892MOL0     C20291   5.639  10.345   5.006 -0.8132 -0.9942 -0.8139
  892MOL0     C20292   5.543  10.447   5.019 -0.0506  0.1857  0.5988
  892MOL0     O20293   5.409  10.422   5.026  0.3557 -0.1382  0.1154
  892MOL0     C20294   5.353  10.377   4.900 -0.1895 -0.0081 -0.5248
  892MOL0     C20295   5.221  10.437   4.869  0.1033 -0.3398 -0.3409
  892MOL0     C20296   5.139  10.470   4.999  0.3192  1.1338  0.3210
  892MOL0     C20297   4.998  10.482   4.967  0.5143 -0.5652 -0.2960
  892MOL0     C20298   4.908  10.510   5.100  0.3170  0.5758  0.4596
  892MOL0     C20299   4.768  10.480   5.070  1.0576 -1.2610 -0.7404
  892MOL0     C20300   4.688  10.542   5.182 -0.5730 -0.8641  0.4050
  892MOL0     C20301   4.535  10.544   5.176  0.2678  0.4005  0.2743
  892MOL0     N20302   4.473  10.531   5.312 -0.1938 -0.2400 -0.0767
  892MOL0     C20303   4.358  10.591   5.348 -0.2768 -0.0391  0.1114
  892MOL0     C20304   4.338  10.561   5.473 -0.2729  0.9998 -0.1277
  892MOL0     C20305   4.226  10.604   5.567 -0.7956 -0.7673 -0.5370
  892MOL0     C20306   4.099  10.596   5.499 -0.5062  0.1043  0.0337
  892MOL0     C20307   3.989  10.639   5.599 -0.1207  0.0976  0.9837
  892MOL0     C20308   3.842  10.635   5.559 -0.1015  0.9915 -0.0552
  892MOL0     O20309   3.827  10.729   5.451 -0.4254  0.3315  0.6786
  892MOL0     C20310   3.709  10.744   5.384  0.6568 -0.5650 -0.0747
  892MOL0     C20311   3.691  10.848   5.293 -0.9646  0.3077 -0.6405
  892MOL0     C20312   3.569  10.864   5.218 -0.4171 -0.9353 -0.6308
  892MOL0     C20313   3.568  10.984   5.123  0.9974 -0.1580  0.5626
  892MOL0     C20314   3.465  10.778   5.247 -0.5700 -0.0886  0.3627
  892MOL0     C20315   3.327  10.808   5.198 -0.9042  0.4271  0.8707
  892MOL0     O20316   3.233  10.736   5.257 -0.2176  0.3442 -0.7233
  892MOL0     C20317   3.104  10.759   5.220 -0.7260 -0.1910  0.2471
  892MOL0     C20318   3.027  10.843   5.297  0.2007  0.3661  0.6743
  892MOL0     C20319   2.895  10.879   5.254 -1.1491  0.8883  0.8110
  892MOL0     C20320   2.844  10.824   5.131 -0.3378  0.3509  0.4928
  892MOL0     O20321   2.718  10.862   5.085 -0.7203 -0.3349  0.3201
  892MOL0     C20322   2.679  10.831   4.950 -0.9085 -0.1365  0.3378
  892MOL0     C20323   2.536  10.885   4.941  0.0300  1.0754  0.4819
  892MOL0     C20324   2.463  10.849   4.801  0.7471  0.2542 -0.1739
  892MOL0     C20325   2.307  10.864   4.819  0.0901  0.2092  0.6898
  892MOL0     C20326   2.235  10.841   4.689  0.3627  0.2613 -0.5585
  892MOL0     C20327   2.078  10.862   4.706 -0.8977 -0.7038  0.5842
  892MOL0     C20328   2.009  10.834   4.562  0.4100 -0.1522  0.4713
  892MOL0     C20329   1.856  10.838   4.580  0.7142 -0.3048 -0.1627
  892MOL0    Cl20330   1.795  10.772   4.732  0.4804 -0.2685  0.3892
  892MOL0     C20331   2.918  10.720   5.073  0.6064  0.3342 -0.2576
  892MOL0     C20332   3.042  10.685   5.120 -0.2284 -0.7262  0.6408
  892MOL0     O20333   3.305  10.889   5.106  0.4961  0.5450 -0.0225
  892MOL0     C20334   3.479  10.675   5.333  0.3947  0.5351  0.8288
  892MOL0     C20335   3.600  10.660   5.396 -0.7133  1.4922  0.0508
  892MOL0     N20336   4.454  10.497   5.515  0.7256 -0.0873  0.4397
  892MOL0     N20337   4.539  10.475   5.424  1.2136 -0.4157 -1.3540
  892MOL0     C20338   5.588  10.579   5.016  0.3934  0.2497 -0.3634
  892MOL0     C20339   5.722  10.612   5.005 -1.3601 -0.0977  0.1757
  892MOL0     C20340   6.169  10.527   4.877 -0.1904  0.0176  0.2594
  892MOL0     C20341   6.228  10.632   4.947  0.5497  0.6282  0.2390
  892MOL0     C20342   6.370  10.648   4.942 -0.1526 -0.2523  0.3985
  892MOL0     C20343   6.451  10.578   4.863  0.2020  0.1734 -0.0175
  892MOL0     O20344   6.587  10.600   4.843 -0.3330 -0.1278 -1.1382
  892MOL0     C20345   6.659  10.687   4.934  0.2686 -0.1376 -0.3082
  892MOL0     C20346   6.684  10.627   5.076 -0.7277 -0.4425 -0.7454
  892MOL0     C20347   6.779  10.504   5.075 -0.0223  0.3211  0.0090
  892MOL0     C20348   6.784  10.447   5.211 -0.5502 -0.2409 -0.1802
  892MOL0     C20349   6.832  10.532   5.318 -0.4251 -0.8056 -0.2238
  892MOL0     C20350   6.871  10.626   5.390  0.2427 -0.2913 -0.1643
  892MOL0     C20351   6.395  10.478   4.784  0.5682  0.0506 -0.2323
  892MOL0     C20352   6.259  10.451   4.786 -0.3264  0.5626  0.2373
  892MOL0     H20353   5.845  10.288   5.007 -1.7764 -1.0237  0.5161
  892MOL0     H20354   5.599  10.245   5.016 -0.3430 -1.1837 -0.8190
  892MOL0     H20355   5.415  10.408   4.815  0.1602 -1.1716 -0.7194
  892MOL0     H20356   5.343  10.268   4.903  1.3239 -0.1607  0.2279
  892MOL0     H20357   5.237  10.531   4.816  0.2132 -0.8092 -1.1515
  892MOL0     H20358   5.161  10.370   4.806  0.5952 -0.0820 -1.0967
  892MOL0     H20359   5.159  10.393   5.074 -0.8995  0.0385 -0.4425
  892MOL0     H20360   5.172  10.566   5.040  0.3564  3.7053 -4.8833
  892MOL0     H20361   4.984  10.558   4.890 -0.6502  0.7216  1.1094
  892MOL0     H20362   4.959  10.393   4.916  0.0011  1.3622 -3.5395
  892MOL0     H20363   4.946  10.445   5.180  2.2187  0.7323 -0.2763
  892MOL0     H20364   4.917  10.611   5.141 -1.5708  1.7654 -1.8429
  892MOL0     H20365   4.738  10.526   4.976  1.4235 -0.9326 -0.6969
  892MOL0     H20366   4.750  10.373   5.058  2.1472 -1.1822 -4.0089
  892MOL0     H20367   4.729  10.500   5.275  2.2612  0.2818 -0.2026
  892MOL0     H20368   4.719  10.647   5.182 -0.6435 -0.7635 -2.5680
  892MOL0     H20369   4.496  10.474   5.101  0.7397 -0.1835  0.5622
  892MOL0     H20370   4.507  10.643   5.139  1.4000  0.0227 -1.7686
  892MOL0     H20371   4.294  10.647   5.280 -0.0763 -0.8832 -0.7999
  892MOL0     H20372   4.225  10.532   5.650  2.6459  0.4015  0.7123
  892MOL0     H20373   4.239  10.707   5.602 -1.8504 -0.8534  0.1570
  892MOL0     H20374   4.084  10.492   5.466  0.9252 -0.3432  0.7116
  892MOL0     H20375   4.098  10.657   5.408 -0.3288 -2.2729 -1.6866
  892MOL0     H20376   3.998  10.744   5.627 -1.6610  0.2533  0.9789
  892MOL0     H20377   3.995  10.563   5.677 -2.9718 -0.1389  1.0759
  892MOL0     H20378   3.767  10.657   5.635 -0.5507 -0.1765 -0.1324
  892MOL0     H20379   3.821  10.532   5.529  1.4336  0.5542  0.2598
  892MOL0     H20380   3.778  10.909   5.271 -0.4409 -0.7047 -1.5098
  892MOL0     H20381   3.487  11.054   5.144 -0.6501 -1.6496 -0.5100
  892MOL0     H20382   3.658  11.043   5.145  0.6215  0.0311  1.6237
  892MOL0     H20383   3.559  10.950   5.019 -1.7684 -0.7032  0.9194
  892MOL0     H20384   3.068  10.893   5.384 -0.0981 -0.8811  1.5667
  892MOL0     H20385   2.840  10.954   5.310 -1.0986 -0.3091  2.5628
  892MOL0     H20386   2.747  10.871   4.875 -1.3174 -1.7337 -0.9533
  892MOL0     H20387   2.685  10.721   4.952 -0.6697 -0.1289  2.4654
  892MOL0     H20388   2.475  10.831   5.015 -1.7145  0.9740 -0.9435
  892MOL0     H20389   2.529  10.991   4.965 -2.6362  1.0355  0.2110
  892MOL0     H20390   2.492  10.746   4.778  0.3190  0.1216 -0.1304
  892MOL0     H20391   2.494  10.914   4.719 -0.9280  0.9653 -0.2772
  892MOL0     H20392   2.274  10.801   4.902 -0.7390 -0.9187 -0.4345
  892MOL0     H20393   2.285  10.967   4.849 -0.6207  1.0531 -2.3596
  892MOL0     H20394   2.253  10.741   4.649 -1.4694  0.2874 -1.5542
  892MOL0     H20395   2.292  10.907   4.623 -0.1349  0.6122 -0.6375
  892MOL0     H20396   2.045  10.792   4.783 -1.3486  0.1175  1.1511
  892MOL0     H20397   2.055  10.962   4.744 -2.2134 -0.7033 -0.1449
  892MOL0     H20398   2.043  10.733   4.537  1.0576 -1.2914  4.9967
  892MOL0     H20399   2.037  10.908   4.486  1.5996  0.1821  1.2060
  892MOL0     H20400   1.795  10.787   4.505  1.5744 -1.0640 -0.3675
  892MOL0     H20401   1.816  10.940   4.583 -0.9244 -0.8857 -1.0523
  892MOL0     H20402   2.866  10.658   5.001 -2.1290  0.1619  1.7068
  892MOL0     H20403   3.089  10.602   5.068 -0.3542  0.7237 -1.9889
  892MOL0     H20404   3.402  10.608   5.370  0.7235 -0.7764 -0.7687
  892MOL0     H20405   3.625  10.574   5.457  0.0991  1.7034  0.0260
  892MOL0     H20406   5.509  10.652   5.031 -0.8919 -0.9473 -1.1046
  892MOL0     H20407   5.735  10.720   5.010 -0.7064 -0.2062  1.5083
  892MOL0     H20408   6.157  10.698   4.995  0.5933  0.9172 -0.0917
  892MOL0     H20409   6.401  10.740   4.991  0.7207  0.9198 -2.1425
  892MOL0     H20410   6.754  10.706   4.884 -0.0202  1.3939 -0.3180
  892MOL0     H20411   6.610  10.785   4.942  0.4649 -0.1487  1.3460
  892MOL0     H20412   6.591  10.597   5.125  0.2884 -2.6146 -0.0006
  892MOL0     H20413   6.732  10.702   5.140  0.4197 -2.8456  1.4019
  892MOL0     H20414   6.870  10.526   5.019 -0.5849 -1.1603 -1.5993
  892MOL0     H20415   6.736  10.422   5.016  1.0357 -1.1434  1.1969
  892MOL0     H20416   6.847  10.359   5.196  0.3596  0.1885  0.9303
  892MOL0     H20417   6.682  10.419   5.238 -0.2379  0.2018  1.6013
  892MOL0     H20418   6.898  10.720   5.434 -1.8867  1.0278 -1.5219
  892MOL0     H20419   6.456  10.409   4.726 -0.1061 -2.3026  1.7055
  892MOL0     H20420   6.220  10.368   4.728  1.8466 -0.7083  0.4949
  893MOL0     O20421   7.708   4.971   9.627  0.1434 -0.2707  0.2331
  893MOL0     C20422   7.757   4.954   9.514  0.9847 -0.3732 -0.0398
  893MOL0     O20423   7.742   4.835   9.446 -0.5014 -0.5546  0.6242
  893MOL0     C20424   7.683   4.734   9.520 -0.4903 -0.7226 -0.0445
  893MOL0     C20425   7.775   4.647   9.584  1.2504  0.4536 -0.0190
  893MOL0     C20426   7.726   4.539   9.656 -0.0800 -0.1776 -0.5166
  893MOL0     C20427   7.592   4.521   9.683  0.2706  0.1237  0.7433
  893MOL0     O20428   7.539   4.438   9.777 -0.3967 -0.1379 -0.5654
  893MOL0     C20429   7.573   4.299   9.757 -0.2537  0.6621  0.2177
  893MOL0     C20430   7.454   4.212   9.744  0.6191 -0.0902 -0.6678
  893MOL0     C20431   7.363   4.246   9.614  0.6470  0.7840 -0.0134
  893MOL0     C20432   7.256   4.131   9.599  0.0965  0.5253 -0.1347
  893MOL0     C20433   7.198   4.125   9.460 -0.1516 -0.4615  0.5066
  893MOL0     C20434   7.079   4.034   9.431  0.1523  1.1060  0.8202
  893MOL0     C20435   6.961   4.061   9.524 -0.6266 -0.2795 -0.3613
  893MOL0     C20436   6.822   4.015   9.476  0.3999  0.2479 -0.2673
  893MOL0     N20437   6.707   4.073   9.539 -0.3733 -0.1916  0.4382
  893MOL0     C20438   6.685   4.043   9.670  0.0376  0.1152 -0.0857
  893MOL0     C20439   6.575   4.122   9.703  0.4404  0.5170 -0.2824
  893MOL0     C20440   6.515   4.126   9.842 -0.9414 -0.3431 -0.5059
  893MOL0     C20441   6.363   4.168   9.844  0.3585  0.1406 -0.0242
  893MOL0     C20442   6.286   4.175   9.978 -0.3682  1.0399  0.3028
  893MOL0     C20443   6.334   4.276  10.073 -0.1545 -1.1779  0.1145
  893MOL0     O20444   6.294   4.412  10.034 -0.1782 -0.3903 -0.2703
  893MOL0     C20445   6.184   4.468  10.092 -0.0960  0.0191 -0.4589
  893MOL0     C20446   6.077   4.399  10.148  0.9724 -0.7422 -0.5405
  893MOL0     C20447   5.963   4.459  10.203 -0.4905  0.1967 -0.1636
  893MOL0     C20448   5.857   4.366  10.264 -0.3108 -0.1830 -0.2143
  893MOL0     C20449   5.955   4.601  10.193 -0.0023  1.0369 -0.1531
  893MOL0     C20450   5.843   4.675  10.260  0.1414  0.1853  0.2542
  893MOL0     O20451   5.806   4.788  10.193  0.3184 -0.0832  0.2128
  893MOL0     C20452   5.728   4.882  10.247  0.2475  0.5191 -0.5526
  893MOL0     C20453   5.588   4.876  10.243  0.6967  0.3548  0.8568
  893MOL0     C20454   5.511   4.983  10.283 -1.8088  0.5099  0.0683
  893MOL0     C20455   5.575   5.091  10.346  0.0331  0.8226  0.3532
  893MOL0     O20456   5.502   5.202  10.388  0.4932 -0.1358 -0.0299
  893MOL0     C20457   5.568   5.332  10.386 -0.0511  0.9405 -0.2563
  893MOL0     C20458   5.474   5.448  10.406  0.4146  0.1058 -0.9218
  893MOL0     C20459   5.384   5.430  10.533 -0.7441  0.1508  1.0344
  893MOL0     C20460   5.272   5.535  10.520  0.3986  1.4380  0.3757
  893MOL0     C20461   5.173   5.534  10.641  0.3694 -0.2210  0.8889
  893MOL0     C20462   5.114   5.391  10.673  0.6023  0.0592 -0.7247
  893MOL0     C20463   4.993   5.405  10.764  0.3042 -0.2455  0.1335
  893MOL0     C20464   4.867   5.443  10.671 -0.3504  0.0663 -0.6128
  893MOL0    Cl20465   4.724   5.434  10.765 -0.3180 -0.2380  0.0673
  893MOL0     C20466   5.713   5.088  10.376 -0.0414  0.0391  1.3983
  893MOL0     C20467   5.794   4.988  10.316  0.0409 -0.7192  1.1712
  893MOL0     O20468   5.792   4.634  10.366 -0.4038 -0.1049  0.5440
  893MOL0     C20469   6.051   4.666  10.124  0.5308  0.1231 -0.4198
  893MOL0     C20470   6.162   4.602  10.074  1.0123 -0.0371 -0.2122
  893MOL0     N20471   6.551   4.200   9.593 -0.4434 -0.7642 -0.4122
  893MOL0     N20472   6.631   4.171   9.497  0.8260 -0.2900 -0.3082
  893MOL0     C20473   7.507   4.608   9.623 -0.0332 -0.3265  0.2069
  893MOL0     C20474   7.545   4.714   9.540  0.6364  0.3314 -0.2898
  893MOL0     C20475   7.827   5.064   9.454  0.2767 -0.1497 -0.3389
  893MOL0     C20476   7.921   5.046   9.353 -0.3895 -0.4363 -0.1568
  893MOL0     C20477   7.988   5.155   9.302  0.5483 -0.5508  0.1338
  893MOL0     C20478   7.960   5.283   9.345 -0.1532  0.2069 -0.4758
  893MOL0     O20479   8.023   5.393   9.284 -0.1635  0.1684 -0.7736
  893MOL0     C20480   8.169   5.392   9.277  1.1628 -0.1259  0.1926
  893MOL0     C20481   8.188   5.532   9.279 -0.6570  0.2433 -0.2283
  893MOL0     C20482   8.188   5.582   9.425 -0.3606  1.0680  0.1273
  893MOL0     C20483   8.199   5.737   9.429  0.1500  0.3778 -0.3097
  893MOL0     C20484   8.234   5.782   9.568  0.4988 -0.5659 -0.3534
  893MOL0     C20485   8.256   5.809   9.683  0.3245 -0.1473  0.2532
  893MOL0     C20486   7.870   5.302   9.443 -0.5431  0.3560  0.0564
  893MOL0     C20487   7.799   5.193   9.501 -0.6990 -0.5728 -0.0183
  893MOL0     H20488   7.880   4.673   9.572  1.5650 -0.8937 -0.3184
  893MOL0     H20489   7.797   4.484   9.716 -0.9694 -1.2215 -0.3976
  893MOL0     H20490   7.628   4.282   9.664  0.9057 -4.3240  1.5067
  893MOL0     H20491   7.640   4.270   9.839  1.2942  0.7620 -0.9579
  893MOL0     H20492   7.498   4.112   9.736  2.3393  0.7092 -1.7210
  893MOL0     H20493   7.394   4.218   9.835  1.2897 -1.7758 -0.0613
  893MOL0     H20494   7.320   4.347   9.613  0.3810  0.6862  1.1283
  893MOL0     H20495   7.429   4.240   9.527 -0.6634  1.8705 -1.1352
  893MOL0     H20496   7.296   4.031   9.618 -1.0316  0.4589  2.3339
  893MOL0     H20497   7.178   4.153   9.672 -0.8748 -2.9471  0.0573
  893MOL0     H20498   7.177   4.228   9.428  1.0003  0.5315  2.7409
  893MOL0     H20499   7.269   4.094   9.383 -0.2469  4.4942 -1.9717
  893MOL0     H20500   7.040   4.054   9.331 -1.0017  0.5275  1.1284
  893MOL0     H20501   7.105   3.928   9.420  2.2695  1.8733 -3.8012
  893MOL0     H20502   6.992   4.024   9.622  4.7376 -1.6379 -2.1693
  893MOL0     H20503   6.959   4.169   9.535  1.5860 -0.2519  0.3117
  893MOL0     H20504   6.826   3.906   9.490 -2.5805  0.2706  1.6989
  893MOL0     H20505   6.816   4.022   9.367  2.2293  0.3426 -0.4018
  893MOL0     H20506   6.735   3.972   9.736 -1.0116  0.1168  0.7450
  893MOL0     H20507   6.524   4.027   9.886  0.4920  1.4713  3.7989
  893MOL0     H20508   6.572   4.194   9.906 -1.1664  0.8829 -1.5536
  893MOL0     H20509   6.319   4.098   9.773 -2.5033  0.9319  0.8445
  893MOL0     H20510   6.356   4.265   9.792 -1.8131 -0.1495 -0.3556
  893MOL0     H20511   6.296   4.073  10.017 -3.0744 -0.0245 -1.5101
  893MOL0     H20512   6.182   4.196   9.952  0.0212  2.0137 -0.5525
  893MOL0     H20513   6.443   4.273  10.081  0.3559  3.4807 -2.0985
  893MOL0     H20514   6.294   4.263  10.174  0.7275  3.2595  1.2566
  893MOL0     H20515   6.072   4.291  10.154 -3.9550 -0.7824 -1.5310
  893MOL0     H20516   5.881   4.262  10.240 -1.7914  0.0473 -3.1641
  893MOL0     H20517   5.847   4.381  10.372 -1.5619 -0.4417 -0.2695
  893MOL0     H20518   5.753   4.379  10.231  0.2166 -1.7980 -2.7191
  893MOL0     H20519   5.524   4.800  10.199  1.2101 -0.3485  1.3142
  893MOL0     H20520   5.403   4.986  10.277 -1.8104  1.7080  0.3833
  893MOL0     H20521   5.630   5.338  10.475  0.0303  2.8167 -0.4096
  893MOL0     H20522   5.629   5.360  10.299  0.9521  2.0866  0.7808
  893MOL0     H20523   5.520   5.547  10.410 -1.8263  1.5662 -4.8329
  893MOL0     H20524   5.403   5.453  10.323 -0.6655 -0.8945 -0.0996
  893MOL0     H20525   5.448   5.464  10.615  0.2294  1.4345 -0.1987
  893MOL0     H20526   5.327   5.338  10.547 -0.3823  0.0268  1.7565
  893MOL0     H20527   5.313   5.636  10.509  2.9674  0.4210 -0.1562
  893MOL0     H20528   5.216   5.517  10.428 -2.6008  0.1594  2.2889
  893MOL0     H20529   5.099   5.610  10.614  0.6281 -0.2989 -0.0652
  893MOL0     H20530   5.222   5.563  10.734 -1.0352 -2.4943  2.4636
  893MOL0     H20531   5.090   5.332  10.584 -0.3412 -0.3718 -0.2123
  893MOL0     H20532   5.187   5.335  10.732  0.4558  0.4544 -0.1651
  893MOL0     H20533   5.004   5.471  10.851  0.2987  0.4949 -0.4113
  893MOL0     H20534   4.979   5.311  10.818  0.5437  0.4269  1.4157
  893MOL0     H20535   4.859   5.369  10.591 -0.0070  0.6769 -1.2266
  893MOL0     H20536   4.879   5.549  10.647  2.0463 -0.0471 -0.1530
  893MOL0     H20537   5.766   5.163  10.434  0.7083  0.8319 -0.2567
  893MOL0     H20538   5.900   4.975  10.338  0.9237 -1.2578 -2.6712
  893MOL0     H20539   6.039   4.774  10.121  1.0486  0.1579 -1.2029
  893MOL0     H20540   6.238   4.658  10.019  0.2598  0.6063 -0.6226
  893MOL0     H20541   7.402   4.588   9.642 -0.7841  0.6994 -2.3798
  893MOL0     H20542   7.477   4.780   9.488  0.9520  0.7470 -0.1770
  893MOL0     H20543   7.961   4.948   9.329  0.8177 -0.3884  1.4924
  893MOL0     H20544   8.056   5.141   9.219 -1.8092  0.0896 -2.0514
  893MOL0     H20545   8.219   5.335   9.355  0.4667 -0.5598  0.3284
  893MOL0     H20546   8.206   5.343   9.186 -2.4406  0.4877 -1.7932
  893MOL0     H20547   8.117   5.594   9.224  0.4340  1.1895 -0.6063
  893MOL0     H20548   8.291   5.548   9.244  0.4153 -1.6057  1.8022
  893MOL0     H20549   8.283   5.542   9.465  0.0195  2.2860  0.4855
  893MOL0     H20550   8.102   5.546   9.482  0.6231  0.5318  1.3418
  893MOL0     H20551   8.103   5.779   9.397 -1.1897 -3.1962 -1.4856
  893MOL0     H20552   8.282   5.764   9.363 -0.4389 -0.5515 -1.4792
  893MOL0     H20553   8.276   5.825   9.787  0.3077 -0.2599  0.2739
  893MOL0     H20554   7.834   5.399   9.473 -0.0975  1.2455 -2.0691
  893MOL0     H20555   7.717   5.213   9.569 -1.7514 -0.6926 -1.2149
  894MOL0     O20556  11.117   1.414   1.762  0.3618  0.0675  0.4728
  894MOL0     C20557  11.114   1.291   1.775  0.2791  0.4363  0.2795
  894MOL0     O20558  11.002   1.219   1.760  0.3448  0.1020  0.3668
  894MOL0     C20559  10.879   1.284   1.730  0.5855 -0.3508  0.8528
  894MOL0     C20560  10.838   1.412   1.764  0.7276  0.3162  0.2544
  894MOL0     C20561  10.704   1.455   1.731  0.3595  0.0766 -0.6408
  894MOL0     C20562  10.613   1.363   1.658 -0.1147 -0.4290 -0.1563
  894MOL0     O20563  10.492   1.396   1.603  0.9683  0.3692 -0.7489
  894MOL0     C20564  10.418   1.512   1.658 -0.0600 -0.7819  0.4266
  894MOL0     C20565  10.280   1.461   1.677  0.4631  1.0098  0.2012
  894MOL0     C20566  10.171   1.561   1.684  0.1009  0.8562  0.0272
  894MOL0     C20567  10.040   1.506   1.735  0.0738 -0.1577 -0.0514
  894MOL0     C20568   9.939   1.628   1.757 -0.1243 -0.3372  0.5753
  894MOL0     C20569   9.802   1.565   1.782  0.4818  0.0155 -0.4653
  894MOL0     C20570   9.688   1.671   1.803 -0.3136  0.4890 -0.2048
  894MOL0     C20571   9.647   1.710   1.665  0.1204 -0.1136 -0.2905
  894MOL0     N20572   9.512   1.774   1.665 -0.6197  0.1624  0.0781
  894MOL0     C20573   9.409   1.754   1.584 -0.1370 -0.8861  0.0284
  894MOL0     C20574   9.305   1.821   1.642 -0.8087  0.0769  0.9634
  894MOL0     C20575   9.174   1.841   1.583 -0.1266  0.5222  0.4002
  894MOL0     C20576   9.053   1.870   1.686 -0.6955 -0.2191  0.1777
  894MOL0     C20577   8.921   1.897   1.621 -0.0219  0.3252 -0.1121
  894MOL0     C20578   8.803   1.914   1.718 -0.1054  0.5496  0.0616
  894MOL0     O20579   8.690   1.888   1.632  0.3982 -0.5581  0.2325
  894MOL0     C20580   8.560   1.892   1.682  1.3179 -0.3398  0.1799
  894MOL0     C20581   8.460   1.832   1.603  0.9040  0.4275  0.5678
  894MOL0     C20582   8.325   1.824   1.645  0.0214  0.7143 -0.6171
  894MOL0     C20583   8.216   1.781   1.547 -0.0307 -0.8427 -0.2491
  894MOL0     C20584   8.293   1.865   1.768  0.3118 -0.4631  0.1516
  894MOL0     C20585   8.148   1.882   1.809 -1.0724  0.5032 -0.3943
  894MOL0     O20586   8.062   1.952   1.728  0.0861 -0.5462 -0.3805
  894MOL0     C20587   7.932   1.952   1.766  1.0202 -0.3229 -0.0627
  894MOL0     C20588   7.880   2.060   1.828 -0.4754 -0.0607  0.1891
  894MOL0     C20589   7.742   2.063   1.866  0.6122 -0.0913  0.0886
  894MOL0     C20590   7.658   1.955   1.842  0.2788 -1.0101  0.0631
  894MOL0     O20591   7.526   1.975   1.864 -0.0982 -0.1134 -0.3699
  894MOL0     C20592   7.453   1.858   1.911 -0.6291 -0.2478  0.0691
  894MOL0     C20593   7.313   1.854   1.841  0.0046  0.7693 -0.0118
  894MOL0     C20594   7.218   1.767   1.910 -0.1106  0.3874  0.1550
  894MOL0     C20595   7.090   1.757   1.829  0.5414 -0.4536 -0.2861
  894MOL0     C20596   7.000   1.669   1.913  0.0514  0.2161  0.2646
  894MOL0     C20597   6.879   1.643   1.826 -0.7591 -0.0761  0.2631
  894MOL0     C20598   6.783   1.544   1.890 -0.4186 -0.7116  0.3444
  894MOL0     C20599   6.681   1.611   1.983 -0.7886 -0.0250 -0.1101
  894MOL0    Cl20600   6.745   1.641   2.151 -0.4845 -0.3950 -0.5231
  894MOL0     C20601   7.709   1.848   1.769  0.4395  0.4491 -0.0448
  894MOL0     C20602   7.844   1.844   1.736 -0.0021 -0.1836  0.0280
  894MOL0     O20603   8.117   1.813   1.906  0.5572 -0.5477 -0.1436
  894MOL0     C20604   8.387   1.910   1.855 -0.6239 -0.1916  0.0939
  894MOL0     C20605   8.523   1.930   1.811 -0.0946  0.3994  0.3774
  894MOL0     N20606   9.353   1.892   1.748  0.2671 -0.2271  0.5765
  894MOL0     N20607   9.477   1.869   1.761 -0.1375  0.5163  0.7012
  894MOL0     C20608  10.667   1.239   1.627  0.3817  0.1372  0.2576
  894MOL0     C20609  10.790   1.201   1.662 -0.2442 -0.3317  0.2058
  894MOL0     C20610  11.232   1.214   1.803 -0.3326  0.8280  0.5294
  894MOL0     C20611  11.240   1.074   1.783 -0.1143 -0.2919  1.0590
  894MOL0     C20612  11.360   1.014   1.795 -0.0665  0.3030 -1.2982
  894MOL0     C20613  11.470   1.068   1.859  0.1606  0.9408  0.0828
  894MOL0     O20614  11.565   0.978   1.903  0.1188  0.6330  0.6117
  894MOL0     C20615  11.646   1.012   2.011  0.6312 -1.7755  0.6740
  894MOL0     C20616  11.768   0.921   2.030  1.0077  0.1153  0.9334
  894MOL0     C20617  11.720   0.771   1.995 -0.3105 -0.4114 -0.1327
  894MOL0     C20618  11.839   0.684   2.031 -0.9894  0.0867  0.4389
  894MOL0     C20619  11.967   0.724   1.965 -0.3103 -0.5955 -0.3223
  894MOL0     C20620  12.065   0.769   1.900  1.0983  0.2164  0.0381
  894MOL0     C20621  11.456   1.205   1.882 -0.8024 -0.2290  1.0794
  894MOL0     C20622  11.339   1.277   1.864  0.4325 -0.0628  0.5786
  894MOL0     H20623  10.909   1.472   1.821  1.0561 -1.0268  1.3112
  894MOL0     H20624  10.684   1.555   1.767  0.6872 -0.4243  1.0153
  894MOL0     H20625  10.461   1.539   1.755 -0.6669 -0.4657  0.6162
  894MOL0     H20626  10.419   1.593   1.586 -2.5036 -1.2186 -0.2106
  894MOL0     H20627  10.255   1.417   1.580  0.4415  0.2378  0.5475
  894MOL0     H20628  10.268   1.379   1.748  1.1412 -1.6009 -2.4835
  894MOL0     H20629  10.204   1.643   1.748  0.9211  2.3256 -2.1563
  894MOL0     H20630  10.152   1.605   1.585 -0.7611  2.7951  0.9965
  894MOL0     H20631  10.007   1.434   1.660 -2.6908  1.4190 -0.5215
  894MOL0     H20632  10.054   1.444   1.824  0.2188 -2.2806 -1.4831
  894MOL0     H20633   9.973   1.686   1.843 -0.9560 -1.4265  1.6662
  894MOL0     H20634   9.925   1.697   1.673 -0.6931 -0.9287  0.1707
  894MOL0     H20635   9.776   1.506   1.693 -1.0286  0.9724 -0.6795
  894MOL0     H20636   9.803   1.508   1.875 -0.7374  0.6629 -0.0406
  894MOL0     H20637   9.606   1.629   1.862 -0.1131  0.6721  0.2131
  894MOL0     H20638   9.729   1.758   1.854 -0.2505  0.7435 -0.6845
  894MOL0     H20639   9.640   1.622   1.599 -1.2557 -2.2758  2.5316
  894MOL0     H20640   9.717   1.786   1.628 -1.6502  1.1596 -1.1947
  894MOL0     H20641   9.406   1.701   1.490  0.7537  1.0108 -1.1438
  894MOL0     H20642   9.176   1.923   1.510  1.3092  0.5689  0.4575
  894MOL0     H20643   9.156   1.747   1.531  2.3243  0.1230  0.1532
  894MOL0     H20644   9.084   1.960   1.740  0.4439  0.6335 -1.7768
  894MOL0     H20645   9.055   1.781   1.749 -0.4531 -0.2657  0.1065
  894MOL0     H20646   8.887   1.818   1.553 -2.5732  0.0285  1.3598
  894MOL0     H20647   8.919   1.990   1.564  1.9192  0.9028  0.6985
  894MOL0     H20648   8.811   2.007   1.775  1.3070 -0.6948  2.0299
  894MOL0     H20649   8.814   1.832   1.788  1.1118  2.2560  1.9762
  894MOL0     H20650   8.485   1.792   1.505 -1.0640 -0.1970  0.2747
  894MOL0     H20651   8.153   1.863   1.511  1.5016  1.3544  1.7654
  894MOL0     H20652   8.244   1.723   1.459 -2.9601  0.3766 -2.1330
  894MOL0     H20653   8.149   1.713   1.601 -0.5480 -1.5234 -1.7070
  894MOL0     H20654   7.936   2.152   1.833 -1.9618  0.9320 -0.6254
  894MOL0     H20655   7.695   2.154   1.900 -1.9978 -1.5643  0.6446
  894MOL0     H20656   7.499   1.760   1.901 -3.0558 -1.7345  2.1353
  894MOL0     H20657   7.420   1.876   2.015  4.0343  1.4326  1.5264
  894MOL0     H20658   7.272   1.955   1.836 -1.2978  0.3341  1.2094
  894MOL0     H20659   7.320   1.812   1.740 -0.5147  0.1151  0.2131
  894MOL0     H20660   7.201   1.817   2.006 -0.9859  0.4343 -0.0150
  894MOL0     H20661   7.260   1.667   1.920 -0.7818  0.0975  0.0937
  894MOL0     H20662   7.052   1.859   1.820  2.7391  0.8760  3.4353
  894MOL0     H20663   7.114   1.721   1.728  2.2115  0.7630 -0.3616
  894MOL0     H20664   6.966   1.705   2.011 -1.6531 -2.4299  0.7442
  894MOL0     H20665   7.058   1.577   1.924  1.0320  0.5919 -1.3165
  894MOL0     H20666   6.828   1.738   1.804  3.2168  2.0483 -0.6304
  894MOL0     H20667   6.914   1.608   1.729  1.5050  0.5953  0.7865
  894MOL0     H20668   6.841   1.467   1.942  0.7929  1.9325  3.2836
  894MOL0     H20669   6.729   1.487   1.814  0.8186 -2.4714  0.7138
  894MOL0     H20670   6.591   1.548   1.984  0.2062 -1.4912 -0.2231
  894MOL0     H20671   6.647   1.710   1.951 -1.2751  0.7846  2.6042
  894MOL0     H20672   7.647   1.764   1.742 -0.6290  0.5403  1.9604
  894MOL0     H20673   7.881   1.752   1.692 -0.3424 -0.6786  0.7608
  894MOL0     H20674   8.364   1.944   1.955 -2.4727 -1.0459 -0.0038
  894MOL0     H20675   8.599   1.968   1.878  1.7518 -0.0336 -1.3756
  894MOL0     H20676  10.598   1.171   1.577  1.2906 -0.2193 -0.5300
  894MOL0     H20677  10.818   1.099   1.639 -2.2671 -0.6203 -1.1824
  894MOL0     H20678  11.156   1.024   1.735  0.3670  1.3266 -1.6827
  894MOL0     H20679  11.376   0.912   1.762  2.2530  0.4894 -0.9130
  894MOL0     H20680  11.676   1.116   1.994 -3.7054 -0.5093 -0.5034
  894MOL0     H20681  11.587   1.012   2.103 -3.0157  1.3785 -1.3693
  894MOL0     H20682  11.804   0.929   2.132  1.6407 -1.0284  0.8099
  894MOL0     H20683  11.850   0.947   1.962 -0.4855  1.4263 -0.4620
  894MOL0     H20684  11.700   0.770   1.887 -2.3798 -0.3172  0.2052
  894MOL0     H20685  11.627   0.742   2.045  0.7026 -2.2242  0.7849
  894MOL0     H20686  11.813   0.578   2.021 -0.4182 -0.1996  1.7899
  894MOL0     H20687  11.864   0.702   2.135 -0.8023  1.5907  0.1535
  894MOL0     H20688  12.139   0.807   1.832  0.4515 -0.4101 -1.0415
  894MOL0     H20689  11.527   1.269   1.933 -2.6767  0.9012  2.3945
  894MOL0     H20690  11.337   1.383   1.883  0.6506  0.2039 -0.7793
  895MOL0     O20691   8.111   4.084   1.173 -0.5970  0.0630  0.3686
  895MOL0     C20692   8.143   3.993   1.092  0.2130  0.4782 -0.0221
  895MOL0     O20693   8.050   3.909   1.037  0.0940  0.4085  0.9959
  895MOL0     C20694   7.921   3.932   1.054  0.2545  0.1926  0.1642
  895MOL0     C20695   7.878   4.038   0.978 -0.0172 -0.4611  0.0910
  895MOL0     C20696   7.752   4.087   0.992 -0.0970  0.2322  0.5388
  895MOL0     C20697   7.665   4.025   1.089 -0.3023 -0.7007 -0.0821
  895MOL0     O20698   7.541   4.050   1.116 -0.3239  0.3029 -0.3897
  895MOL0     C20699   7.453   4.109   1.019  0.8283  0.5863 -0.1229
  895MOL0     C20700   7.301   4.096   1.048 -0.9903  0.5143  0.4312
  895MOL0     C20701   7.283   4.149   1.193 -0.3535  0.6813  1.2050
  895MOL0     C20702   7.133   4.168   1.222 -0.7045 -0.6144  0.1065
  895MOL0     C20703   7.113   4.213   1.366 -0.2691 -0.4849  0.1199
  895MOL0     C20704   7.163   4.358   1.397  0.8237 -0.3618 -0.5114
  895MOL0     C20705   7.092   4.474   1.321 -0.1314  0.2156 -0.9372
  895MOL0     C20706   6.937   4.477   1.346 -0.2724  0.0297 -0.6350
  895MOL0     N20707   6.902   4.515   1.486  0.2479 -0.8373 -0.8537
  895MOL0     C20708   6.831   4.620   1.533  0.4342 -0.7637 -0.0652
  895MOL0     C20709   6.823   4.596   1.667 -0.0288  0.1674 -0.1122
  895MOL0     C20710   6.740   4.687   1.758 -0.4672 -0.5250  0.0880
  895MOL0     C20711   6.839   4.788   1.824  0.4783  0.2594 -0.0198
  895MOL0     C20712   6.932   4.718   1.918  0.1653 -0.0279 -0.8382
  895MOL0     C20713   7.037   4.821   1.954  0.5723  0.9570  0.5766
  895MOL0     O20714   7.124   4.746   2.040  0.1691  0.6235 -0.3910
  895MOL0     C20715   7.255   4.742   2.016 -0.1589  0.5181  0.2720
  895MOL0     C20716   7.343   4.776   2.112  0.8114  0.8100 -0.7099
  895MOL0     C20717   7.477   4.767   2.078  0.6390 -0.2850 -0.6192
  895MOL0     C20718   7.568   4.798   2.189  0.4592  0.4145  0.1214
  895MOL0     C20719   7.527   4.733   1.948 -0.1048  0.4137  0.0591
  895MOL0     C20720   7.664   4.756   1.887  0.7487  0.3166 -1.3981
  895MOL0     O20721   7.725   4.884   1.902 -0.4977 -0.3017  0.4326
  895MOL0     C20722   7.850   4.917   1.866 -0.5033 -0.8740  0.8243
  895MOL0     C20723   7.950   4.824   1.840 -0.3929 -0.2688  0.3783
  895MOL0     C20724   8.081   4.868   1.809 -0.5655  0.3605 -0.2629
  895MOL0     C20725   8.118   5.008   1.805  0.5540 -0.1642  0.3827
  895MOL0     O20726   8.238   5.058   1.790 -0.4756  0.2997 -0.3063
  895MOL0     C20727   8.285   5.095   1.665  0.9677 -0.4503  0.1771
  895MOL0     C20728   8.383   5.210   1.686 -0.2747 -0.5903 -0.4662
  895MOL0     C20729   8.526   5.150   1.717 -0.2082  0.1292 -0.6320
  895MOL0     C20730   8.617   5.242   1.637 -0.6001 -0.0033  0.4988
  895MOL0     C20731   8.769   5.221   1.638 -0.7663  0.5080  0.0599
  895MOL0     C20732   8.853   5.333   1.581 -0.9870  0.1567 -0.1836
  895MOL0     C20733   8.998   5.309   1.550  0.0460 -0.8142 -0.6614
  895MOL0     C20734   9.098   5.272   1.668  1.3545 -0.2083 -0.3070
  895MOL0    Cl20735   9.271   5.283   1.609 -0.0927 -0.3531 -0.6772
  895MOL0     C20736   8.019   5.100   1.854 -0.1418  0.1767  0.4508
  895MOL0     C20737   7.891   5.054   1.885  0.6568  1.4337 -0.3250
  895MOL0     O20738   7.701   4.662   1.820 -0.8047 -0.2293 -0.0896
  895MOL0     C20739   7.425   4.713   1.849  0.1532 -0.8467 -0.5871
  895MOL0     C20740   7.297   4.714   1.887  0.0494 -0.3067  0.6502
  895MOL0     N20741   6.877   4.480   1.699  0.6658  0.0365  0.2048
  895MOL0     N20742   6.927   4.434   1.596 -0.0133  1.1639 -1.0098
  895MOL0     C20743   7.722   3.933   1.173 -0.1961 -0.5413 -0.0373
  895MOL0     C20744   7.847   3.876   1.154  0.3728 -0.3861  0.7494
  895MOL0     C20745   8.283   3.950   1.074  0.2729 -0.3713 -0.0218
  895MOL0     C20746   8.309   3.881   0.957  0.5285 -0.2829 -0.1878
  895MOL0     C20747   8.435   3.844   0.916 -0.1142 -0.4428 -0.6339
  895MOL0     C20748   8.547   3.905   0.983  0.5633 -0.1318 -0.3635
  895MOL0     O20749   8.671   3.874   0.943 -0.1291 -0.6715  0.0514
  895MOL0     C20750   8.784   3.922   1.016  0.1222  0.9004 -0.3578
  895MOL0     C20751   8.822   4.075   1.014  0.2688 -0.3459  0.0100
  895MOL0     C20752   8.796   4.130   0.874 -0.1436  1.0168  0.5484
  895MOL0     C20753   8.886   4.078   0.762  0.8403 -0.1889  0.2472
  895MOL0     C20754   9.028   4.084   0.794  0.4665  0.2891  0.1223
  895MOL0     C20755   9.146   4.103   0.817 -0.8400 -0.0494 -0.0500
  895MOL0     C20756   8.516   3.979   1.102  0.3609 -0.6190 -0.3004
  895MOL0     C20757   8.387   4.000   1.152  0.7293  0.2990  0.1747
  895MOL0     H20758   7.939   4.069   0.894 -0.8696 -1.0026 -0.7395
  895MOL0     H20759   7.714   4.155   0.917 -0.1561 -0.5039 -0.1055
  895MOL0     H20760   7.483   4.212   0.997 -0.4940  0.4171 -3.2285
  895MOL0     H20761   7.469   4.045   0.931  0.2149 -1.6145  1.2807
  895MOL0     H20762   7.251   4.160   0.974  0.6489  1.9100  0.4421
  895MOL0     H20763   7.272   3.992   1.034 -0.6663  0.1553  2.2021
  895MOL0     H20764   7.329   4.085   1.270 -2.4659 -1.7776  0.5775
  895MOL0     H20765   7.335   4.244   1.207  3.3204 -0.7416 -1.0701
  895MOL0     H20766   7.104   4.250   1.155  0.1741 -0.7563 -0.4607
  895MOL0     H20767   7.081   4.076   1.195  1.1337 -1.9674  0.9990
  895MOL0     H20768   7.007   4.203   1.387 -0.4939  0.5912 -0.4080
  895MOL0     H20769   7.162   4.148   1.439 -0.9388  0.6456  1.6255
  895MOL0     H20770   7.156   4.369   1.506 -0.0017  1.9195 -0.7280
  895MOL0     H20771   7.271   4.357   1.383  1.1279 -1.1277  1.5219
  895MOL0     H20772   7.141   4.566   1.355  1.5795 -1.8047  2.7632
  895MOL0     H20773   7.115   4.464   1.215  0.7855 -0.9229 -0.6542
  895MOL0     H20774   6.896   4.379   1.320 -1.1997 -0.2379  1.5862
  895MOL0     H20775   6.884   4.544   1.277 -4.3549 -1.1897  1.0509
  895MOL0     H20776   6.786   4.699   1.474  0.7582 -0.0006  0.6811
  895MOL0     H20777   6.668   4.739   1.693 -1.3571  1.0143  2.1872
  895MOL0     H20778   6.680   4.629   1.828  0.0184 -0.6283  0.4191
  895MOL0     H20779   6.784   4.864   1.879  0.9389  1.0305 -0.5954
  895MOL0     H20780   6.885   4.842   1.740 -6.2139  1.6027 -3.5160
  895MOL0     H20781   6.974   4.625   1.879 -0.6776 -1.5657  1.6487
  895MOL0     H20782   6.876   4.693   2.008 -1.8752  0.5550 -1.9054
  895MOL0     H20783   6.990   4.900   2.013 -1.3436  0.0873  0.2917
  895MOL0     H20784   7.087   4.868   1.868  2.6815  0.9772  1.7480
  895MOL0     H20785   7.307   4.804   2.211 -2.2970  1.8414 -2.0061
  895MOL0     H20786   7.520   4.766   2.282 -1.8597 -0.3915 -1.2811
  895MOL0     H20787   7.658   4.737   2.197 -1.1962 -2.1993 -0.1723
  895MOL0     H20788   7.604   4.902   2.188  3.0179 -0.3864 -0.3495
  895MOL0     H20789   7.924   4.719   1.835 -0.8126 -0.1766  0.5361
  895MOL0     H20790   8.153   4.787   1.799  1.8556  2.1197  1.5769
  895MOL0     H20791   8.322   5.007   1.612  3.5027 -0.7534  2.2460
  895MOL0     H20792   8.211   5.138   1.597  2.5945  3.6434  0.6784
  895MOL0     H20793   8.382   5.274   1.597 -0.5197  1.6904  1.1025
  895MOL0     H20794   8.358   5.269   1.774 -0.1916  0.8891 -1.3884
  895MOL0     H20795   8.535   5.044   1.691  1.4262 -0.0630  0.5405
  895MOL0     H20796   8.544   5.155   1.825  1.2605  0.6759 -0.8823
  895MOL0     H20797   8.593   5.234   1.531 -1.1253 -2.3091  0.7359
  895MOL0     H20798   8.601   5.345   1.670 -1.6227  0.4589 -1.3418
  895MOL0     H20799   8.794   5.126   1.591 -2.1357 -0.2068  0.7278
  895MOL0     H20800   8.782   5.219   1.747 -2.0054  3.2456  0.3527
  895MOL0     H20801   8.803   5.362   1.489 -1.1432  1.9385  0.4294
  895MOL0     H20802   8.829   5.419   1.645 -1.7953 -0.9734  1.0972
  895MOL0     H20803   9.039   5.402   1.508  2.0392 -0.7825  1.1576
  895MOL0     H20804   8.998   5.231   1.474  0.2168 -1.5392  0.0633
  895MOL0     H20805   9.081   5.168   1.694  1.0265  0.0618  0.6178
  895MOL0     H20806   9.083   5.335   1.757  1.1504  0.6324 -0.9246
  895MOL0     H20807   8.049   5.202   1.871  0.3228  0.7326 -3.0543
  895MOL0     H20808   7.816   5.128   1.910  0.4052  0.8188  0.7927
  895MOL0     H20809   7.440   4.704   1.742 -2.1125 -2.0562 -0.8742
  895MOL0     H20810   7.218   4.692   1.815 -1.0310  1.0830  1.3702
  895MOL0     H20811   7.663   3.890   1.253 -0.4801  0.6589  0.4093
  895MOL0     H20812   7.889   3.788   1.201  0.8387 -1.1248 -0.9605
  895MOL0     H20813   8.224   3.861   0.892 -1.2076  2.9440  0.9164
  895MOL0     H20814   8.445   3.783   0.826  3.5035 -1.9003  0.5689
  895MOL0     H20815   8.789   3.875   1.114  2.6274 -1.0492 -1.2815
  895MOL0     H20816   8.873   3.878   0.970  2.5950  2.5607  2.4405
  895MOL0     H20817   8.929   4.092   1.030  0.9291 -2.1082 -2.0058
  895MOL0     H20818   8.766   4.125   1.093  0.1160 -2.7382  1.5210
  895MOL0     H20819   8.814   4.238   0.878  1.2523  0.8535 -0.6076
  895MOL0     H20820   8.691   4.109   0.852 -0.0911 -0.0335  1.2466
  895MOL0     H20821   8.874   4.139   0.672  1.5430 -1.1530 -0.5231
  895MOL0     H20822   8.864   3.972   0.743 -0.8738  0.5734 -2.6791
  895MOL0     H20823   9.245   4.128   0.851 -1.2364 -0.7139  1.7050
  895MOL0     H20824   8.602   4.016   1.156  0.3498  3.1522 -2.4757
  895MOL0     H20825   8.366   4.060   1.240 -0.6068 -1.0831  0.8424
  896MOL0     O20826   6.097   7.082   2.565 -0.0119 -0.5252 -0.3612
  896MOL0     C20827   6.160   7.034   2.476 -0.6094 -0.9506  0.0636
  896MOL0     O20828   6.132   7.051   2.343 -0.4997  0.0050  0.3774
  896MOL0     C20829   6.035   7.139   2.303 -0.4098  0.5244 -0.1344
  896MOL0     C20830   6.064   7.274   2.271  0.7015  0.0509  0.8437
  896MOL0     C20831   5.962   7.353   2.225 -0.4084 -0.7234 -0.5367
  896MOL0     C20832   5.821   7.310   2.227 -0.0850 -0.2458 -0.3509
  896MOL0     O20833   5.737   7.405   2.181  0.5680  0.1775 -0.7404
  896MOL0     C20834   5.607   7.358   2.156 -0.1052 -0.1306  0.1900
  896MOL0     C20835   5.519   7.478   2.097 -0.3732  0.6806  0.2268
  896MOL0     C20836   5.383   7.440   2.039 -0.8649  0.3860 -0.0007
  896MOL0     C20837   5.301   7.362   2.135 -0.2773  0.4820  0.3054
  896MOL0     C20838   5.157   7.328   2.087 -0.2910 -0.2817  0.1945
  896MOL0     C20839   5.076   7.253   2.193  0.0432 -0.8057 -0.7633
  896MOL0     C20840   4.930   7.234   2.184 -0.2695  0.4298  0.0518
  896MOL0     C20841   4.862   7.207   2.326 -0.3620  0.5333 -0.5359
  896MOL0     N20842   4.716   7.186   2.312  0.0499 -0.8548  0.3041
  896MOL0     C20843   4.618   7.284   2.314 -0.9477  1.0624  0.2288
  896MOL0     C20844   4.503   7.218   2.299  0.2879  0.2433 -0.0204
  896MOL0     C20845   4.374   7.290   2.254 -0.8632 -0.0960  0.1079
  896MOL0     C20846   4.243   7.226   2.302 -0.4263  0.2130  0.7362
  896MOL0     C20847   4.221   7.080   2.257 -0.3080 -0.0728 -0.3190
  896MOL0     C20848   4.070   7.047   2.278  0.1425 -0.3390 -0.0004
  896MOL0     O20849   4.031   7.035   2.410  0.2474 -0.1411  0.0835
  896MOL0     C20850   3.900   7.050   2.442 -0.6199  0.0641 -0.4729
  896MOL0     C20851   3.875   7.082   2.575 -0.4380 -0.5845  0.1746
  896MOL0     C20852   3.745   7.103   2.630  0.1761 -0.5545 -0.0029
  896MOL0     C20853   3.739   7.159   2.772 -0.6464 -0.2699  0.0893
  896MOL0     C20854   3.636   7.083   2.543  1.0941  0.3970  0.0317
  896MOL0     C20855   3.495   7.089   2.589 -0.3293  0.3423 -0.1828
  896MOL0     O20856   3.403   7.090   2.487 -0.1468 -0.1711 -1.1277
  896MOL0     C20857   3.279   7.101   2.527  0.4001 -0.1784  0.5354
  896MOL0     C20858   3.209   6.988   2.568  0.1444 -0.3756  0.5204
  896MOL0     C20859   3.081   7.000   2.626  0.4077  0.3387  0.4424
  896MOL0     C20860   3.012   7.116   2.635 -0.9759  0.5758  0.6329
  896MOL0     O20861   2.888   7.114   2.687 -0.7276  0.7754 -0.7929
  896MOL0     C20862   2.782   7.169   2.606  0.1104 -0.1715 -0.7183
  896MOL0     C20863   2.674   7.064   2.584 -0.7229  0.0191  0.5722
  896MOL0     C20864   2.547   7.130   2.539  0.2989  0.0480 -0.2053
  896MOL0     C20865   2.423   7.039   2.548 -0.3791 -0.2724  0.0648
  896MOL0     C20866   2.307   7.121   2.498 -0.9389  0.0499 -0.3656
  896MOL0     C20867   2.187   7.026   2.468  0.4269 -0.5234 -0.2438
  896MOL0     C20868   2.065   7.109   2.415  1.0445 -0.2692 -0.0504
  896MOL0     C20869   1.977   7.022   2.333 -0.2990  0.5005 -0.0221
  896MOL0    Cl20870   1.826   7.092   2.314  0.0895  0.1817 -0.1979
  896MOL0     C20871   3.084   7.233   2.594 -0.4759 -0.2179 -0.2639
  896MOL0     C20872   3.214   7.229   2.538 -0.1398  1.1345 -0.2791
  896MOL0     O20873   3.472   7.060   2.705  0.2063  0.4317  0.0295
  896MOL0     C20874   3.661   7.052   2.405 -0.3359  0.0990 -0.0091
  896MOL0     C20875   3.792   7.042   2.358  0.2438  0.1445 -0.0550
  896MOL0     N20876   4.531   7.083   2.297  0.0167  0.1759  0.0542
  896MOL0     N20877   4.655   7.065   2.312  0.2023 -0.5412 -0.1020
  896MOL0     C20878   5.794   7.184   2.279 -0.2020 -0.7472 -0.6933
  896MOL0     C20879   5.904   7.096   2.300 -0.0482 -0.6669 -0.3692
  896MOL0     C20880   6.289   6.971   2.514  0.4623  0.5441  0.4636
  896MOL0     C20881   6.371   6.929   2.408 -0.3597  1.1063 -1.0376
  896MOL0     C20882   6.499   6.882   2.434 -0.5223 -0.3187 -0.8208
  896MOL0     C20883   6.536   6.858   2.561 -0.1567 -0.3028  0.2625
  896MOL0     O20884   6.651   6.794   2.585  0.4340  0.1642  0.5494
  896MOL0     C20885   6.710   6.792   2.715  0.6319  0.0393  0.3725
  896MOL0     C20886   6.857   6.747   2.713 -0.3748 -0.0277  1.0579
  896MOL0     C20887   6.930   6.768   2.844  0.1046  0.0123  0.2305
  896MOL0     C20888   6.943   6.913   2.876 -0.7803 -0.5724  0.1818
  896MOL0     C20889   7.013   6.920   3.004 -0.0424  0.7753  0.4386
  896MOL0     C20890   7.067   6.915   3.110 -0.0016  0.5621  0.1968
  896MOL0     C20891   6.461   6.885   2.670  0.3106  1.1349  0.0612
  896MOL0     C20892   6.334   6.942   2.648  0.1953  0.7059 -0.3742
  896MOL0     H20893   6.165   7.315   2.274  0.5988  0.4055 -0.1991
  896MOL0     H20894   5.996   7.448   2.187 -0.8395 -0.7859 -1.0885
  896MOL0     H20895   5.611   7.273   2.088 -0.4952 -0.6024  0.7475
  896MOL0     H20896   5.568   7.323   2.251  0.6326  0.9365  0.9195
  896MOL0     H20897   5.501   7.546   2.180  0.6052 -0.0255  1.0502
  896MOL0     H20898   5.581   7.528   2.022  0.5160 -3.3721 -2.0570
  896MOL0     H20899   5.329   7.527   2.003 -0.7163  0.0364 -1.1037
  896MOL0     H20900   5.415   7.389   1.948 -1.4955 -0.1682  0.0799
  896MOL0     H20901   5.347   7.263   2.143 -0.0485  0.4341 -1.3608
  896MOL0     H20902   5.296   7.422   2.227  1.4934 -0.1393  0.8595
  896MOL0     H20903   5.101   7.421   2.071  0.4446 -0.0187 -0.9851
  896MOL0     H20904   5.164   7.265   1.998 -1.5346 -2.4779  1.5625
  896MOL0     H20905   5.117   7.152   2.189  2.0959 -0.1200  1.1581
  896MOL0     H20906   5.100   7.294   2.291  2.3975 -1.0335 -1.1731
  896MOL0     H20907   4.881   7.325   2.147 -1.0298  0.3175  0.7722
  896MOL0     H20908   4.901   7.148   2.123 -0.1961 -1.0960  2.0737
  896MOL0     H20909   4.868   7.294   2.394  2.2186 -1.3959  1.9165
  896MOL0     H20910   4.912   7.120   2.368 -0.0696  1.0089  0.1353
  896MOL0     H20911   4.622   7.392   2.310  0.1736  1.0273  0.0201
  896MOL0     H20912   4.391   7.393   2.288  1.9430 -1.1359  2.2183
  896MOL0     H20913   4.381   7.291   2.145  0.7454  0.6406  0.1923
  896MOL0     H20914   4.160   7.280   2.255 -1.2918 -1.1884  0.5900
  896MOL0     H20915   4.225   7.243   2.409  0.3034  2.3933  0.5711
  896MOL0     H20916   4.282   7.003   2.306  1.2975  2.8051  2.5909
  896MOL0     H20917   4.253   7.075   2.153  2.0020 -2.3418  0.3796
  896MOL0     H20918   4.043   6.962   2.215 -0.6831 -0.9129  1.0989
  896MOL0     H20919   4.025   7.141   2.242 -2.4063 -0.9745  1.2589
  896MOL0     H20920   3.960   7.088   2.643  0.0737 -1.3717 -0.3752
  896MOL0     H20921   3.659   7.234   2.775  2.2596  3.1732 -1.2503
  896MOL0     H20922   3.717   7.071   2.833  1.2226 -0.8689 -0.0375
  896MOL0     H20923   3.825   7.221   2.801 -0.8514  0.7112 -1.3136
  896MOL0     H20924   3.246   6.887   2.555 -3.4682 -1.5895 -1.7553
  896MOL0     H20925   3.031   6.912   2.666  1.0822  1.0037  2.9379
  896MOL0     H20926   2.737   7.242   2.674  2.7130 -1.7355  3.0095
  896MOL0     H20927   2.812   7.212   2.510 -1.9927 -1.4721 -2.0427
  896MOL0     H20928   2.705   7.001   2.499 -0.8868  0.8108 -0.0876
  896MOL0     H20929   2.654   7.007   2.675 -1.2182  0.6278  0.8478
  896MOL0     H20930   2.559   7.163   2.435 -0.9455  0.6402 -0.1808
  896MOL0     H20931   2.534   7.218   2.603 -0.5480  0.9021 -1.5155
  896MOL0     H20932   2.441   6.947   2.493  2.4708 -0.7428  1.6039
  896MOL0     H20933   2.397   7.012   2.651 -1.8319  2.3727  0.5067
  896MOL0     H20934   2.343   7.178   2.412  0.2276 -1.2172 -0.7675
  896MOL0     H20935   2.272   7.195   2.570 -3.2129  0.6212 -1.9359
  896MOL0     H20936   2.212   6.953   2.391  0.5250 -2.1435  1.2813
  896MOL0     H20937   2.160   6.966   2.555 -1.9167  1.7821  0.7473
  896MOL0     H20938   2.092   7.195   2.352  0.9431 -0.3272 -0.1738
  896MOL0     H20939   2.015   7.145   2.506  0.9596  0.6045 -0.4316
  896MOL0     H20940   1.978   6.923   2.380  0.0996  0.2904 -0.4582
  896MOL0     H20941   2.031   7.003   2.239 -0.5867  0.6497 -0.2184
  896MOL0     H20942   3.034   7.326   2.619 -1.1037 -0.0097 -2.1422
  896MOL0     H20943   3.264   7.322   2.511 -0.6465  2.0299  1.6772
  896MOL0     H20944   3.575   7.032   2.341 -0.8672  1.1809  0.3499
  896MOL0     H20945   3.803   7.012   2.254  4.1891 -1.5194  0.6728
  896MOL0     H20946   5.693   7.146   2.294 -0.4631  0.0310 -0.4282
  896MOL0     H20947   5.876   6.999   2.338 -0.0076 -0.0958  1.1815
  896MOL0     H20948   6.343   6.936   2.304  2.3244 -0.1936 -1.9387
  896MOL0     H20949   6.567   6.853   2.354 -0.9670 -0.1901 -1.2524
  896MOL0     H20950   6.707   6.883   2.776  1.5202  1.2048 -1.2457
  896MOL0     H20951   6.648   6.721   2.769 -0.1649  0.3632 -0.1103
  896MOL0     H20952   6.909   6.803   2.634 -0.1498 -2.6162 -0.7862
  896MOL0     H20953   6.856   6.644   2.676  0.3548  0.0662  0.7535
  896MOL0     H20954   7.032   6.727   2.836 -0.0940 -0.6054  0.7301
  896MOL0     H20955   6.873   6.721   2.925  0.1295 -1.3823 -0.5241
  896MOL0     H20956   6.850   6.967   2.895 -1.9403 -2.1651 -0.7049
  896MOL0     H20957   7.008   6.962   2.803 -0.3762  0.2655  1.0848
  896MOL0     H20958   7.122   6.903   3.201  1.2166 -2.5217 -0.8285
  896MOL0     H20959   6.480   6.873   2.776 -1.0050  2.0362  0.4250
  896MOL0     H20960   6.280   6.961   2.740 -0.8358  0.5028 -0.9323
  897MOL0     O20961   0.305   7.630   3.715  0.6724  0.0949  0.3845
  897MOL0     C20962   0.346   7.641   3.599 -0.6119  0.1379 -0.7932
  897MOL0     O20963   0.271   7.630   3.479  0.1365  0.6997 -0.5249
  897MOL0     C20964   0.137   7.618   3.467  0.0025  0.9507 -0.1313
  897MOL0     C20965   0.040   7.577   3.562  0.1308 -0.8963 -0.8116
  897MOL0     C20966  -0.099   7.600   3.541  0.6312  0.2991  1.5047
  897MOL0     C20967  -0.139   7.644   3.423 -0.4554 -0.8912  0.0488
  897MOL0     O20968  -0.274   7.650   3.410 -0.5274  0.4068  0.2020
  897MOL0     C20969  -0.337   7.744   3.320  0.6883  0.2979  0.5627
  897MOL0     C20970  -0.485   7.752   3.357 -0.0263 -0.1176 -0.6414
  897MOL0     C20971  -0.568   7.849   3.281 -0.2863  0.4471 -0.0023
  897MOL0     C20972  -0.702   7.861   3.353  0.2935  0.1417  0.6024
  897MOL0     C20973  -0.791   7.975   3.312 -0.0104 -0.2674  0.5811
  897MOL0     C20974  -0.886   8.008   3.422  0.5992 -0.9313  0.1204
  897MOL0     C20975  -0.975   8.132   3.391  0.4503  0.1713  0.1021
  897MOL0     C20976  -1.112   8.107   3.441  0.2602 -0.0866 -0.3796
  897MOL0     N20977  -1.215   8.207   3.400  0.0620  0.4742 -0.0923
  897MOL0     C20978  -1.252   8.208   3.274  0.4085 -0.5661  0.9841
  897MOL0     C20979  -1.354   8.294   3.266  0.0332 -0.1809 -0.1643
  897MOL0     C20980  -1.424   8.344   3.142 -0.2445  0.2802 -0.0393
  897MOL0     C20981  -1.559   8.274   3.120  0.3178 -0.8103  0.4560
  897MOL0     C20982  -1.626   8.324   2.985 -0.0387 -0.2303 -0.9298
  897MOL0     C20983  -1.772   8.274   3.001  0.2821  0.4348  0.9141
  897MOL0     O20984  -1.860   8.357   2.925 -0.1826 -0.6120  0.3222
  897MOL0     C20985  -1.971   8.310   2.870 -0.1489  0.1601  0.0718
  897MOL0     C20986  -2.019   8.176   2.883 -0.1078 -0.1234 -0.1849
  897MOL0     C20987  -2.134   8.137   2.823  0.8435  0.5624 -0.0362
  897MOL0     C20988  -2.168   7.991   2.847  0.6873 -0.1701 -0.6602
  897MOL0     C20989  -2.216   8.225   2.750  1.2623 -0.3169  0.8922
  897MOL0     C20990  -2.348   8.187   2.700 -0.3485 -0.1889 -0.5756
  897MOL0     O20991  -2.398   8.287   2.625 -0.1590  0.6926  0.1442
  897MOL0     C20992  -2.520   8.264   2.562 -0.3452  0.2213  0.1505
  897MOL0     C20993  -2.522   8.202   2.440 -0.2610  0.7676  0.5250
  897MOL0     C20994  -2.644   8.191   2.371  0.2007 -0.5379  0.5169
  897MOL0     C20995  -2.754   8.257   2.423  0.0597  0.3761  0.4956
  897MOL0     O20996  -2.874   8.267   2.367 -0.1181  0.1235  0.2709
  897MOL0     C20997  -2.939   8.136   2.341  0.0168 -0.1194 -0.1617
  897MOL0     C20998  -3.090   8.151   2.354 -0.1808  0.4618 -0.3002
  897MOL0     C20999  -3.129   8.160   2.501  0.2079 -0.6984 -0.0031
  897MOL0     C21000  -3.155   8.023   2.570  0.9907  0.5412  0.8957
  897MOL0     C21001  -3.209   8.031   2.705 -0.2368  0.0884  0.4877
  897MOL0     C21002  -3.238   7.880   2.745  0.8050 -0.6771 -0.4259
  897MOL0     C21003  -3.314   7.874   2.877  0.1964 -0.9047  0.0565
  897MOL0     C21004  -3.378   7.733   2.887 -0.4488  0.0973  0.5310
  897MOL0    Cl21005  -3.265   7.601   2.842  0.4034 -0.0118 -0.0692
  897MOL0     C21006  -2.744   8.320   2.549 -0.0757 -0.0534  0.4191
  897MOL0     C21007  -2.629   8.324   2.615  0.2367 -0.3470 -0.6595
  897MOL0     O21008  -2.401   8.073   2.717  0.7261 -0.1740  0.4042
  897MOL0     C21009  -2.172   8.357   2.746  0.7124 -0.7390  0.2128
  897MOL0     C21010  -2.053   8.395   2.802  0.0669 -1.0607 -0.3820
  897MOL0     N21011  -1.387   8.328   3.395  0.5526 -0.2471 -0.6924
  897MOL0     N21012  -1.301   8.274   3.478 -0.6961  0.0893 -0.2554
  897MOL0     C21013  -0.044   7.666   3.319  0.0675  1.2277 -1.0116
  897MOL0     C21014   0.092   7.655   3.345 -0.1524 -0.4580  0.3990
  897MOL0     C21015   0.487   7.683   3.596  0.3528 -0.4039 -0.1429
  897MOL0     C21016   0.562   7.729   3.704 -0.7390  0.2002  0.1931
  897MOL0     C21017   0.693   7.783   3.690  0.0394  0.0553  0.5117
  897MOL0     C21018   0.754   7.781   3.565 -0.0756 -0.0008  0.2553
  897MOL0     O21019   0.867   7.839   3.531 -0.5754 -0.2386  0.1058
  897MOL0     C21020   0.961   7.893   3.623 -0.5410 -0.3538  0.6513
  897MOL0     C21021   1.097   7.906   3.543 -0.5209  0.1261 -1.1967
  897MOL0     C21022   1.209   7.899   3.655 -0.4064  0.0279 -0.4326
  897MOL0     C21023   1.346   7.889   3.585  0.7176 -0.0024  0.8264
  897MOL0     C21024   1.395   8.023   3.555  0.2700  0.7615  0.0605
  897MOL0     C21025   1.462   8.120   3.535  0.2727  0.7352 -0.4072
  897MOL0     C21026   0.695   7.719   3.461 -0.6650  0.6327 -0.3202
  897MOL0     C21027   0.556   7.677   3.474 -0.0133 -0.5506 -0.0256
  897MOL0     H21028   0.067   7.522   3.652  0.1249  1.0223  0.4105
  897MOL0     H21029  -0.182   7.577   3.606 -0.1135  1.0880  0.8591
  897MOL0     H21030  -0.286   7.839   3.333 -1.4375  1.8117 -1.3785
  897MOL0     H21031  -0.315   7.715   3.217  1.9166  2.1221  0.2721
  897MOL0     H21032  -0.534   7.654   3.348 -0.3261  0.1035 -1.5927
  897MOL0     H21033  -0.489   7.784   3.461  0.3286 -1.8515 -0.0687
  897MOL0     H21034  -0.512   7.943   3.274  5.0554 -2.1955  1.5764
  897MOL0     H21035  -0.586   7.816   3.178  1.3173 -2.0995  0.4465
  897MOL0     H21036  -0.750   7.764   3.338 -2.6018  1.6361 -0.4203
  897MOL0     H21037  -0.687   7.876   3.460  0.9856  1.2831  0.3595
  897MOL0     H21038  -0.721   8.052   3.279 -2.4946  1.0194 -2.1492
  897MOL0     H21039  -0.856   7.945   3.230 -2.0410 -0.2895  2.1276
  897MOL0     H21040  -0.960   7.929   3.440 -1.8442  0.5273 -2.5828
  897MOL0     H21041  -0.838   8.033   3.517  0.4558  1.8740 -0.4665
  897MOL0     H21042  -0.930   8.227   3.421 -1.4359  1.4715 -0.9877
  897MOL0     H21043  -0.985   8.142   3.282 -2.8467  1.3353  0.4174
  897MOL0     H21044  -1.112   8.096   3.550 -6.0877  0.8103  0.1147
  897MOL0     H21045  -1.155   8.016   3.397  4.2777 -0.9502 -2.9538
  897MOL0     H21046  -1.206   8.173   3.183  0.3187 -0.2056  0.7955
  897MOL0     H21047  -1.432   8.452   3.156 -2.6287 -0.1248  2.5650
  897MOL0     H21048  -1.356   8.331   3.057  0.5149  1.1832  0.4001
  897MOL0     H21049  -1.623   8.300   3.205  0.5816 -0.3578  0.5203
  897MOL0     H21050  -1.542   8.166   3.117 -0.2250 -1.0177  2.9919
  897MOL0     H21051  -1.585   8.297   2.887 -2.6622 -1.9979 -1.6553
  897MOL0     H21052  -1.633   8.432   2.994 -0.3419 -0.3621  0.6170
  897MOL0     H21053  -1.807   8.268   3.104 -0.5334 -0.5441  0.5974
  897MOL0     H21054  -1.778   8.167   2.975 -0.0445  0.6679 -0.0056
  897MOL0     H21055  -1.967   8.110   2.952 -1.4035 -0.8924  0.0739
  897MOL0     H21056  -2.257   7.972   2.907 -1.4692  1.2626 -3.1782
  897MOL0     H21057  -2.184   7.946   2.749  0.2971 -1.0307 -0.2077
  897MOL0     H21058  -2.078   7.949   2.892  0.2972 -0.9936 -0.6322
  897MOL0     H21059  -2.429   8.153   2.412 -0.7523 -0.7248  1.4292
  897MOL0     H21060  -2.647   8.149   2.271  1.1024 -2.5452  1.2773
  897MOL0     H21061  -2.921   8.107   2.237  0.9771 -1.5160  0.3737
  897MOL0     H21062  -2.899   8.056   2.404 -1.9100 -0.3431  0.8535
  897MOL0     H21063  -3.109   8.246   2.303  1.1039  0.5768 -0.5951
  897MOL0     H21064  -3.146   8.075   2.299 -0.9995  1.1815 -0.4806
  897MOL0     H21065  -3.221   8.218   2.506 -2.0326 -3.9267 -0.6650
  897MOL0     H21066  -3.055   8.217   2.559 -0.7732 -0.8327  1.4515
  897MOL0     H21067  -3.232   7.975   2.509  0.0835 -0.7989  3.0109
  897MOL0     H21068  -3.069   7.956   2.564  2.2888  1.9683  2.6107
  897MOL0     H21069  -3.295   8.097   2.719  0.2259  0.4098  2.0171
  897MOL0     H21070  -3.129   8.076   2.764  1.2221 -1.5391 -0.1534
  897MOL0     H21071  -3.295   7.828   2.668 -0.0507 -1.0322  0.4297
  897MOL0     H21072  -3.139   7.834   2.749  0.8375 -0.6306 -0.6917
  897MOL0     H21073  -3.396   7.944   2.891  1.9598  1.5754 -1.2714
  897MOL0     H21074  -3.248   7.895   2.961 -0.5707 -1.5639  0.8372
  897MOL0     H21075  -3.457   7.722   2.813 -0.1455  0.8760  0.0814
  897MOL0     H21076  -3.420   7.716   2.987  1.4348  0.5797  1.4466
  897MOL0     H21077  -2.822   8.375   2.601 -2.0703  0.9116 -3.2365
  897MOL0     H21078  -2.618   8.368   2.714  0.3923  0.9589 -1.2384
  897MOL0     H21079  -2.233   8.437   2.704 -5.7302 -3.2833  3.4553
  897MOL0     H21080  -2.023   8.498   2.785 -3.5300  0.0780 -0.6056
  897MOL0     H21081  -0.072   7.686   3.217 -3.8639 -0.4789 -0.4451
  897MOL0     H21082   0.159   7.668   3.260  1.2160 -3.9844  0.7687
  897MOL0     H21083   0.511   7.743   3.799  3.0169  0.7685  2.3344
  897MOL0     H21084   0.736   7.825   3.781  0.6817  1.0170 -0.2122
  897MOL0     H21085   0.919   7.987   3.662 -0.8863 -0.0931 -0.3105
  897MOL0     H21086   0.973   7.824   3.707  3.0851  1.8291  2.1776
  897MOL0     H21087   1.103   8.004   3.495 -0.8603  1.1617  0.7568
  897MOL0     H21088   1.110   7.832   3.463 -1.4620 -0.9950 -0.3435
  897MOL0     H21089   1.200   7.801   3.703 -0.1313 -0.4985 -1.4379
  897MOL0     H21090   1.207   7.980   3.729 -3.3129  1.9733 -2.4446
  897MOL0     H21091   1.343   7.820   3.500  1.4913 -0.3079  1.0429
  897MOL0     H21092   1.426   7.852   3.650  2.1115  1.5547  0.0704
  897MOL0     H21093   1.509   8.216   3.529  0.6549  0.5090 -1.1225
  897MOL0     H21094   0.742   7.708   3.364 -0.8642 -1.7898 -0.2090
  897MOL0     H21095   0.509   7.636   3.385 -0.4821  1.8379 -0.9584
  898MOL0     O21096   6.935   6.527   5.907 -0.2360  0.4903 -0.5063
  898MOL0     C21097   6.957   6.650   5.907  0.4891  1.5594 -0.4013
  898MOL0     O21098   6.863   6.748   5.894 -0.3868 -0.5669  0.1524
  898MOL0     C21099   6.735   6.728   5.864  0.6650  0.3648  0.0465
  898MOL0     C21100   6.647   6.677   5.954  0.0134 -0.0857  0.8994
  898MOL0     C21101   6.523   6.629   5.920  0.9345 -0.5037 -0.3828
  898MOL0     C21102   6.467   6.646   5.787  0.7570 -0.4711 -1.2125
  898MOL0     O21103   6.343   6.612   5.743 -0.1539 -0.5370 -0.0233
  898MOL0     C21104   6.257   6.540   5.822 -0.5008 -0.2531 -0.3026
  898MOL0     C21105   6.125   6.525   5.747  0.6957  0.1144  0.1100
  898MOL0     C21106   6.054   6.664   5.724 -0.0192  0.5960 -0.3453
  898MOL0     C21107   5.901   6.636   5.683 -0.4749 -0.0587 -0.7941
  898MOL0     C21108   5.827   6.763   5.655 -0.4142  0.7739 -0.1595
  898MOL0     C21109   5.701   6.724   5.578 -0.1146  0.7076  0.1467
  898MOL0     C21110   5.623   6.842   5.529  0.3791  0.0901 -0.6549
  898MOL0     C21111   5.484   6.821   5.450  0.3955 -0.2002 -0.6491
  898MOL0     N21112   5.399   6.943   5.470  0.1626 -0.0286 -0.9530
  898MOL0     C21113   5.272   6.941   5.524  0.0450  0.0068 -0.4595
  898MOL0     C21114   5.215   7.061   5.492 -0.3466 -0.4625  0.7840
  898MOL0     C21115   5.080   7.103   5.532  0.6667  0.2800 -0.2608
  898MOL0     C21116   5.054   7.123   5.680 -0.8026  0.6826  0.4561
  898MOL0     C21117   5.022   6.988   5.749  0.5190  1.3905 -0.2321
  898MOL0     C21118   4.948   7.022   5.883  0.2522 -0.2899  1.0393
  898MOL0     O21119   4.952   6.914   5.981 -0.5869 -0.8383  0.9352
  898MOL0     C21120   5.056   6.920   6.074  0.0645 -0.4484  0.3376
  898MOL0     C21121   5.047   6.823   6.178 -0.4856  0.4414 -0.1164
  898MOL0     C21122   5.148   6.809   6.275 -0.0710 -0.2251  0.1707
  898MOL0     C21123   5.114   6.713   6.394  0.4964 -0.8543  0.2460
  898MOL0     C21124   5.270   6.876   6.271  0.8530  0.6284  0.3477
  898MOL0     C21125   5.383   6.853   6.365  0.3788 -0.7099 -1.4537
  898MOL0     O21126   5.448   6.965   6.399  0.3306 -0.6095 -0.1922
  898MOL0     C21127   5.565   6.945   6.467 -0.0169  0.1072 -0.5501
  898MOL0     C21128   5.683   6.915   6.398  1.4921 -0.3679  0.0568
  898MOL0     C21129   5.799   6.884   6.464 -0.0427  0.4738  0.1594
  898MOL0     C21130   5.808   6.896   6.603 -0.2235  0.2485  0.3364
  898MOL0     O21131   5.934   6.875   6.657  0.3171  0.0585  0.4370
  898MOL0     C21132   5.947   6.886   6.800 -0.5539  0.9738  0.8876
  898MOL0     C21133   6.101   6.894   6.840 -0.1558 -0.2182  0.2886
  898MOL0     C21134   6.175   6.758   6.818 -0.1145  0.2338 -0.6808
  898MOL0     C21135   6.327   6.778   6.839  0.2454  0.2467  0.8979
  898MOL0     C21136   6.408   6.662   6.807  0.9771  0.2796  0.1476
  898MOL0     C21137   6.542   6.681   6.876 -0.3236 -0.0816 -0.2125
  898MOL0     C21138   6.632   6.561   6.838 -0.1806  0.1787  0.7317
  898MOL0     C21139   6.783   6.592   6.812 -0.2604 -0.0505  0.0908
  898MOL0    Cl21140   6.803   6.721   6.684  0.2203 -0.4800 -0.1629
  898MOL0     C21141   5.695   6.922   6.674  1.2514  0.0853  0.3096
  898MOL0     C21142   5.572   6.942   6.609  0.3577  0.1362  0.7943
  898MOL0     O21143   5.401   6.745   6.413  0.4241  0.5261 -0.4031
  898MOL0     C21144   5.275   6.967   6.163 -0.0441 -0.5952 -0.4424
  898MOL0     C21145   5.177   6.996   6.077  0.2334  0.4378  0.2747
  898MOL0     N21146   5.310   7.142   5.429  0.1975  0.0413 -0.6876
  898MOL0     N21147   5.413   7.067   5.414 -0.2248 -0.2808  0.1407
  898MOL0     C21148   6.550   6.712   5.700 -0.0963 -0.1505 -0.3892
  898MOL0     C21149   6.685   6.743   5.732  0.2417 -0.3646 -0.8189
  898MOL0     C21150   7.103   6.687   5.919 -0.0550  0.3782  0.9105
  898MOL0     C21151   7.137   6.818   5.875  0.2603 -0.8998 -0.6029
  898MOL0     C21152   7.270   6.849   5.848  0.4736 -0.4891 -0.4739
  898MOL0     C21153   7.372   6.757   5.879 -0.8345 -0.0833 -1.2001
  898MOL0     O21154   7.500   6.794   5.856  0.1361  0.5462 -0.1754
  898MOL0     C21155   7.592   6.782   5.968  0.6237 -0.4773 -0.4229
  898MOL0     C21156   7.691   6.894   5.972  0.1318 -0.7980  0.1405
  898MOL0     C21157   7.796   6.871   5.854 -0.1531  0.2431  0.1818
  898MOL0     C21158   7.941   6.933   5.879  0.4946  0.2028 -0.6857
  898MOL0     C21159   8.018   6.932   5.753 -0.1890  0.7931  0.3311
  898MOL0     C21160   8.098   6.928   5.657  0.4441 -0.3454 -0.1321
  898MOL0     C21161   7.338   6.631   5.932 -0.0180 -0.2321 -0.2971
  898MOL0     C21162   7.207   6.592   5.956 -0.1844  0.3762 -0.0325
  898MOL0     H21163   6.685   6.650   6.053 -0.9132 -2.1986  0.7413
  898MOL0     H21164   6.459   6.588   5.997  1.2017 -0.0810  0.0708
  898MOL0     H21165   6.313   6.447   5.837  1.7935  0.2480 -4.1552
  898MOL0     H21166   6.230   6.590   5.915 -0.7102 -0.0496 -0.4753
  898MOL0     H21167   6.139   6.459   5.661  0.8167 -2.1386  1.7573
  898MOL0     H21168   6.070   6.468   5.823 -1.7600  0.6098 -1.2007
  898MOL0     H21169   6.059   6.723   5.815 -2.4642  1.1928 -0.5163
  898MOL0     H21170   6.102   6.722   5.644  2.6267  1.2509  1.6067
  898MOL0     H21171   5.903   6.574   5.593 -1.2401 -1.2996  0.0098
  898MOL0     H21172   5.849   6.569   5.751  2.6985 -1.9702 -0.0438
  898MOL0     H21173   5.805   6.820   5.746 -0.2264  0.1732  0.2698
  898MOL0     H21174   5.896   6.814   5.587  1.2429 -2.0615 -0.7686
  898MOL0     H21175   5.720   6.661   5.490 -0.5266  0.6105  0.1237
  898MOL0     H21176   5.642   6.667   5.650  1.0265 -0.8228 -0.0814
  898MOL0     H21177   5.599   6.911   5.611 -2.2606  1.6911 -2.6183
  898MOL0     H21178   5.694   6.894   5.464  1.4144  1.0085  1.1258
  898MOL0     H21179   5.430   6.734   5.490  2.6131 -1.3922 -0.0625
  898MOL0     H21180   5.505   6.808   5.343 -1.0054  1.7715 -1.2091
  898MOL0     H21181   5.214   6.858   5.563 -1.1382 -0.1533 -2.4433
  898MOL0     H21182   5.048   7.198   5.489 -0.0963  0.4576  0.6518
  898MOL0     H21183   5.018   7.019   5.499  1.2059  0.3759 -1.5529
  898MOL0     H21184   4.966   7.185   5.700 -1.3353 -0.0978  0.5448
  898MOL0     H21185   5.136   7.174   5.730  0.6133  0.6739 -1.7172
  898MOL0     H21186   5.118   6.939   5.768 -0.5674 -0.8752 -0.2734
  898MOL0     H21187   4.962   6.924   5.684  2.5038 -2.4799  1.4519
  898MOL0     H21188   4.842   7.029   5.855  0.9627  2.0062 -1.4806
  898MOL0     H21189   4.971   7.119   5.927  0.6632 -0.1827  0.5960
  898MOL0     H21190   4.968   6.749   6.176 -1.0351  1.0264 -2.7078
  898MOL0     H21191   5.020   6.658   6.389 -0.0263 -0.0045  0.5115
  898MOL0     H21192   5.197   6.645   6.414  0.1092 -1.5932 -0.5629
  898MOL0     H21193   5.106   6.781   6.479  0.2193  0.0640 -0.4904
  898MOL0     H21194   5.673   6.931   6.291 -3.1274 -0.2598  0.2846
  898MOL0     H21195   5.885   6.855   6.404  1.1507  1.2124  1.4730
  898MOL0     H21196   5.897   6.980   6.828  0.1907  1.3366  1.0069
  898MOL0     H21197   5.903   6.807   6.861  3.1532  0.2856  2.9397
  898MOL0     H21198   6.148   6.978   6.789 -0.1938  0.4032  1.2522
  898MOL0     H21199   6.096   6.917   6.947  0.4333 -0.4041  0.3623
  898MOL0     H21200   6.154   6.705   6.725 -2.0186 -0.6245  0.1684
  898MOL0     H21201   6.138   6.685   6.891 -0.5359  0.5570 -0.5660
  898MOL0     H21202   6.359   6.864   6.780  2.0731 -0.2258  1.1276
  898MOL0     H21203   6.342   6.803   6.944  0.7936  1.1461  0.6139
  898MOL0     H21204   6.417   6.655   6.698 -1.2979 -1.0978 -0.0105
  898MOL0     H21205   6.357   6.571   6.841  0.6522  0.8643  1.2716
  898MOL0     H21206   6.589   6.778   6.853  1.1600 -0.7332 -0.0629
  898MOL0     H21207   6.521   6.678   6.983  1.2659 -2.8713  0.1118
  898MOL0     H21208   6.599   6.507   6.749  3.2530 -2.0070  0.6235
  898MOL0     H21209   6.629   6.491   6.922  1.4996  3.0334  3.4032
  898MOL0     H21210   6.830   6.499   6.777 -3.0131 -1.5777  0.1858
  898MOL0     H21211   6.835   6.621   6.904  0.9633 -2.1302  0.1179
  898MOL0     H21212   5.689   6.915   6.782 -1.4675  1.4991  0.3414
  898MOL0     H21213   5.481   6.940   6.668  1.4683 -0.4724  2.5847
  898MOL0     H21214   5.371   7.017   6.154 -1.3145  2.6202  2.0848
  898MOL0     H21215   5.194   7.059   5.990  0.1877 -0.4000 -0.3633
  898MOL0     H21216   6.528   6.734   5.596  1.7990 -0.3341 -0.8690
  898MOL0     H21217   6.752   6.790   5.661  1.9298  0.9089  1.4661
  898MOL0     H21218   7.058   6.884   5.842  0.2532  0.6327  2.1733
  898MOL0     H21219   7.301   6.943   5.803  2.7982 -1.2846 -0.6658
  898MOL0     H21220   7.529   6.784   6.058 -1.0423 -0.2606 -1.5509
  898MOL0     H21221   7.636   6.681   5.966  0.0462 -0.7755  0.8595
  898MOL0     H21222   7.751   6.892   6.064 -0.0209 -0.2688  0.2538
  898MOL0     H21223   7.647   6.994   5.981 -0.3644 -1.0413  0.4243
  898MOL0     H21224   7.755   6.929   5.771 -0.0414 -1.5555 -1.1750
  898MOL0     H21225   7.813   6.767   5.824  1.9702  1.1299 -2.0082
  898MOL0     H21226   7.997   6.886   5.961  0.9463  1.4957 -0.2212
  898MOL0     H21227   7.930   7.037   5.910  2.4651  0.7218 -1.5274
  898MOL0     H21228   8.156   6.925   5.567  1.1699 -0.9223  0.3300
  898MOL0     H21229   7.418   6.565   5.966  1.3439  1.6333  0.2754
  898MOL0     H21230   7.186   6.492   5.992  2.8455 -0.2931  0.1385
  899MOL0     O21231   1.762   2.974   5.065 -0.1942  0.1727 -0.8786
  899MOL0     C21232   1.818   3.058   4.993  0.4109  0.1518 -0.6440
  899MOL0     O21233   1.758   3.163   4.932 -0.3330  0.4969 -0.1682
  899MOL0     C21234   1.617   3.185   4.922 -0.5806 -0.4812  0.3068
  899MOL0     C21235   1.511   3.091   4.944 -0.2482 -0.6013  0.0610
  899MOL0     C21236   1.377   3.117   4.904 -0.3093 -0.5618  1.0217
  899MOL0     C21237   1.343   3.245   4.850 -0.2380  0.8483  0.8150
  899MOL0     O21238   1.217   3.279   4.811  0.2025 -0.9781 -0.6479
  899MOL0     C21239   1.094   3.216   4.843 -0.3387 -0.0790 -0.2328
  899MOL0     C21240   1.078   3.196   4.993 -0.9291 -0.3394 -0.2684
  899MOL0     C21241   0.939   3.147   5.034  0.5765  0.3105  0.2203
  899MOL0     C21242   0.954   3.059   5.156 -0.3190  0.1895 -0.0984
  899MOL0     C21243   0.822   2.971   5.187 -0.2867  0.3617 -0.2257
  899MOL0     C21244   0.695   3.055   5.203  0.0745 -0.0602  0.4145
  899MOL0     C21245   0.569   2.963   5.222  0.1259 -0.2788  0.0697
  899MOL0     C21246   0.441   3.057   5.215  0.3934  0.1827 -0.1737
  899MOL0     N21247   0.324   2.977   5.175 -0.4208 -0.0298 -0.0375
  899MOL0     C21248   0.270   2.966   5.037 -0.3866  0.3884 -0.4796
  899MOL0     C21249   0.166   2.883   5.046 -0.3698 -0.1516 -0.2256
  899MOL0     C21250   0.106   2.826   4.925  0.0728 -0.3564  0.0836
  899MOL0     C21251   0.067   2.681   4.954  0.1032  0.1269  0.1966
  899MOL0     C21252  -0.062   2.664   5.037 -0.2396  0.3139 -0.7172
  899MOL0     C21253  -0.206   2.679   4.978  0.4003  0.1344 -0.0052
  899MOL0     O21254  -0.240   2.823   4.964 -0.6138 -0.5163 -0.3539
  899MOL0     C21255  -0.365   2.855   4.914  0.1002 -0.1564 -0.4170
  899MOL0     C21256  -0.381   2.993   4.904 -0.2010  0.1379 -0.1566
  899MOL0     C21257  -0.498   3.050   4.857  0.5213  0.4793 -0.8218
  899MOL0     C21258  -0.513   3.203   4.862 -0.6733 -0.0898  0.3572
  899MOL0     C21259  -0.606   2.958   4.820  0.1199 -0.1481  0.2603
  899MOL0     C21260  -0.733   2.996   4.767  0.9039 -0.0723 -0.4792
  899MOL0     O21261  -0.812   2.892   4.726  0.5139  0.8285 -0.4183
  899MOL0     C21262  -0.947   2.919   4.723 -1.3116  0.3433 -0.6523
  899MOL0     C21263  -1.023   2.825   4.798  0.0494  0.4616 -0.1928
  899MOL0     C21264  -1.160   2.833   4.802 -0.2988  0.2969 -0.6996
  899MOL0     C21265  -1.231   2.933   4.716 -0.1464  0.0194  0.7837
  899MOL0     O21266  -1.369   2.951   4.712  0.2863 -0.1192 -0.3528
  899MOL0     C21267  -1.462   2.876   4.798 -0.2510 -0.2357 -0.7840
  899MOL0     C21268  -1.596   2.951   4.802 -0.2644 -0.6998  0.0280
  899MOL0     C21269  -1.685   2.914   4.923 -0.9141 -0.8309  0.2997
  899MOL0     C21270  -1.836   2.964   4.908  0.7089 -0.5723 -0.4742
  899MOL0     C21271  -1.932   2.865   4.847  0.3771 -0.5130 -0.0651
  899MOL0     C21272  -2.067   2.900   4.894  0.8287 -1.0873 -0.6293
  899MOL0     C21273  -2.174   2.813   4.834  0.8821 -1.0311 -0.0876
  899MOL0     C21274  -2.293   2.822   4.932 -0.3864 -0.6622 -0.7141
  899MOL0    Cl21275  -2.435   2.733   4.868 -0.2616  0.4009 -0.4018
  899MOL0     C21276  -1.151   3.013   4.628 -0.3877  0.7185 -0.4924
  899MOL0     C21277  -1.006   3.008   4.631 -0.7036 -0.0366  0.2593
  899MOL0     O21278  -0.762   3.116   4.773 -0.1962  0.2583  0.4287
  899MOL0     C21279  -0.583   2.823   4.836 -0.3348  0.3183  0.5363
  899MOL0     C21280  -0.468   2.773   4.882 -0.1951 -0.8566  0.9561
  899MOL0     N21281   0.154   2.847   5.180  0.3275 -0.4116 -0.4873
  899MOL0     N21282   0.242   2.902   5.258  0.2645  0.4105  0.6459
  899MOL0     C21283   1.445   3.338   4.831 -0.1148  0.1150  0.0013
  899MOL0     C21284   1.577   3.313   4.873 -0.3444  1.3918  0.1651
  899MOL0     C21285   1.952   3.042   4.936 -0.4017  0.4072  1.3908
  899MOL0     C21286   2.020   2.921   4.959  0.6379 -0.0444  0.2163
  899MOL0     C21287   2.157   2.914   4.913  0.1647 -0.4160  0.8461
  899MOL0     C21288   2.221   3.021   4.843  0.5493  0.4725  0.2887
  899MOL0     O21289   2.346   2.992   4.809  0.2862  0.7380 -0.6494
  899MOL0     C21290   2.414   3.077   4.717 -0.3055  0.0169  0.0817
  899MOL0     C21291   2.552   3.031   4.687  0.8972  1.2382 -0.1109
  899MOL0     C21292   2.557   2.890   4.620 -0.3950  0.3322 -0.5826
  899MOL0     C21293   2.701   2.848   4.570 -0.8148  0.4353 -0.7476
  899MOL0     C21294   2.711   2.712   4.523 -0.0164  0.0107  0.0113
  899MOL0     C21295   2.717   2.593   4.490  0.0042  0.0779 -0.6730
  899MOL0     C21296   2.153   3.135   4.824  0.4375  0.4382  0.3369
  899MOL0     C21297   2.021   3.149   4.861 -0.5219  0.3312 -0.5380
  899MOL0     H21298   1.545   3.001   4.994  2.7366 -0.9680 -2.2970
  899MOL0     H21299   1.305   3.039   4.923 -2.2914  1.4571  2.4328
  899MOL0     H21300   1.027   3.296   4.811 -1.4194  0.2214  2.4824
  899MOL0     H21301   1.078   3.127   4.782 -3.8988  0.8350 -0.8579
  899MOL0     H21302   1.160   3.134   5.030  0.7933  0.2829 -2.8289
  899MOL0     H21303   1.105   3.294   5.036  0.1158  0.3173 -2.3013
  899MOL0     H21304   0.875   3.232   5.057  0.4298  0.2863 -0.0932
  899MOL0     H21305   0.894   3.091   4.951  0.1272  1.9779 -0.7037
  899MOL0     H21306   1.045   2.998   5.153  0.6968  1.5200  1.6904
  899MOL0     H21307   0.977   3.125   5.240 -0.4294 -0.5849  0.5502
  899MOL0     H21308   0.813   2.893   5.111  1.5639 -0.8520  0.7293
  899MOL0     H21309   0.842   2.902   5.269  1.3830 -0.3141 -1.1372
  899MOL0     H21310   0.709   3.119   5.291  0.0240 -2.3294  2.1639
  899MOL0     H21311   0.685   3.104   5.106  0.6935 -0.3930  0.1768
  899MOL0     H21312   0.569   2.874   5.159 -0.8110 -1.0397  1.0853
  899MOL0     H21313   0.586   2.928   5.325 -1.6704  1.3530  0.9899
  899MOL0     H21314   0.447   3.125   5.130  0.5730  2.5248  1.6069
  899MOL0     H21315   0.415   3.106   5.310  0.0980 -1.6312  0.7231
  899MOL0     H21316   0.320   2.996   4.945 -3.2040 -2.4186 -3.1595
  899MOL0     H21317   0.021   2.884   4.890  0.7133 -0.7875 -2.3694
  899MOL0     H21318   0.182   2.824   4.846 -1.4872  0.0506 -1.4793
  899MOL0     H21319   0.143   2.623   5.007 -1.1645 -0.8688  0.9740
  899MOL0     H21320   0.049   2.619   4.866 -1.3125 -1.0437  1.2510
  899MOL0     H21321  -0.053   2.724   5.129 -1.1811  0.3275 -0.6260
  899MOL0     H21322  -0.061   2.561   5.074 -2.9440 -0.1709 -1.8062
  899MOL0     H21323  -0.285   2.633   5.038  2.1356  0.1113  2.4178
  899MOL0     H21324  -0.198   2.632   4.880 -1.9381  2.0369 -1.1892
  899MOL0     H21325  -0.292   3.046   4.935 -1.5752  1.0148  2.5927
  899MOL0     H21326  -0.550   3.231   4.763  1.3705  1.3973 -0.0586
  899MOL0     H21327  -0.582   3.243   4.936  0.3850  0.6953  0.9427
  899MOL0     H21328  -0.412   3.245   4.871 -0.7411  0.7911 -2.2016
  899MOL0     H21329  -0.973   2.751   4.860 -0.4771  0.2669  0.0112
  899MOL0     H21330  -1.228   2.765   4.853  2.2288 -2.5919 -0.9691
  899MOL0     H21331  -1.492   2.775   4.769  0.6342 -0.2681 -1.6388
  899MOL0     H21332  -1.412   2.885   4.895 -0.9029 -3.4582 -0.0347
  899MOL0     H21333  -1.571   3.057   4.792 -3.7162  0.0424 -3.4693
  899MOL0     H21334  -1.642   2.926   4.706  1.5828 -0.5765 -0.9399
  899MOL0     H21335  -1.642   2.966   5.009  1.0207 -1.1322 -0.4387
  899MOL0     H21336  -1.687   2.804   4.930 -0.1576 -0.9064 -0.5729
  899MOL0     H21337  -1.869   2.984   5.011  0.6684  0.2590 -0.6439
  899MOL0     H21338  -1.835   3.061   4.858 -0.1682 -0.1251  0.3246
  899MOL0     H21339  -1.899   2.762   4.864  4.7834  0.5870 -0.8138
  899MOL0     H21340  -1.945   2.888   4.741 -1.7094  2.6567  0.7168
  899MOL0     H21341  -2.072   2.883   5.001 -0.7033  0.5950 -0.3897
  899MOL0     H21342  -2.089   3.004   4.868 -1.0692 -1.5428 -1.0312
  899MOL0     H21343  -2.149   2.707   4.832 -1.0913 -1.5530 -2.6032
  899MOL0     H21344  -2.205   2.849   4.736  2.6707  1.1958  0.0905
  899MOL0     H21345  -2.314   2.925   4.961 -0.6771 -0.6982 -0.7937
  899MOL0     H21346  -2.265   2.768   5.023  0.1782  0.2352 -0.3430
  899MOL0     H21347  -1.204   3.090   4.573 -0.7336  0.3287 -0.7122
  899MOL0     H21348  -0.958   3.075   4.560 -2.3447 -0.1531 -1.0235
  899MOL0     H21349  -0.659   2.751   4.807  0.0978  0.8259 -2.1605
  899MOL0     H21350  -0.469   2.664   4.885 -1.9824 -0.8740  0.8348
  899MOL0     H21351   1.411   3.434   4.792  0.0997  0.2733  0.2105
  899MOL0     H21352   1.645   3.397   4.862 -0.2955  1.3992  0.5133
  899MOL0     H21353   1.967   2.833   4.994  1.5976 -0.5334  0.4565
  899MOL0     H21354   2.216   2.823   4.916  3.3535  1.3087 -2.3485
  899MOL0     H21355   2.368   3.077   4.618 -1.4721  2.6366  0.5396
  899MOL0     H21356   2.409   3.183   4.743 -2.7593  0.5255 -2.0212
  899MOL0     H21357   2.614   3.020   4.776  1.1820  0.7174 -0.3719
  899MOL0     H21358   2.602   3.094   4.613 -0.8409 -0.0058 -2.4903
  899MOL0     H21359   2.488   2.887   4.535 -2.8565  0.2915  1.3259
  899MOL0     H21360   2.522   2.810   4.686  1.4145 -0.1541 -0.1464
  899MOL0     H21361   2.781   2.863   4.643 -0.8251 -0.8653 -0.4458
  899MOL0     H21362   2.736   2.908   4.485  0.9037  0.5622  0.0039
  899MOL0     H21363   2.712   2.489   4.464 -1.1483 -0.5495  1.8043
  899MOL0     H21364   2.196   3.214   4.763  0.4260 -0.2787 -0.6198
  899MOL0     H21365   1.959   3.232   4.829 -0.2947  0.9182  0.4832
  900MOL0     O21366   3.381  10.938   9.800  0.3156  0.2669 -0.3303
  900MOL0     C21367   3.475  10.871   9.753  0.4629  0.2959  0.7828
  900MOL0     O21368   3.471  10.729   9.730  0.2512  0.3725 -0.9036
  900MOL0     C21369   3.376  10.638   9.786  0.0255 -0.2982  0.1352
  900MOL0     C21370   3.428  10.521   9.829  0.1296 -0.4170  0.6119
  900MOL0     C21371   3.348  10.426   9.882 -0.8356  0.2388 -0.9689
  900MOL0     C21372   3.216  10.444   9.911  0.0219 -0.4011 -0.0880
  900MOL0     O21373   3.152  10.341   9.977 -0.5523 -0.4113  0.0692
  900MOL0     C21374   3.011  10.339   9.962  0.1899 -0.0937  0.3244
  900MOL0     C21375   2.950  10.204   9.999  0.0148 -0.1913  0.1666
  900MOL0     C21376   2.791  10.222   9.992  0.2142  0.3364  0.2724
  900MOL0     C21377   2.719  10.148  10.103  0.0553  0.3513 -0.9011
  900MOL0     C21378   2.590  10.089  10.045  0.0609  0.0938 -0.8597
  900MOL0     C21379   2.521  10.006  10.154 -0.4665 -0.2473  0.4506
  900MOL0     C21380   2.395   9.933  10.100 -0.0988  0.4312 -0.0914
  900MOL0     C21381   2.261  10.003  10.121  0.0991  0.4143 -0.4710
  900MOL0     N21382   2.242  10.075  10.241  0.2299  0.3592  0.1032
  900MOL0     C21383   2.237  10.015  10.370 -0.6070 -0.4037 -0.1008
  900MOL0     C21384   2.197  10.107  10.457  0.6346 -0.0868  0.1181
  900MOL0     C21385   2.195  10.086  10.603 -0.3294  0.3132  0.3662
  900MOL0     C21386   2.117   9.956  10.644 -0.7262 -0.4377  1.0873
  900MOL0     C21387   1.971   9.987  10.641 -0.3697  0.4169 -0.3665
  900MOL0     C21388   1.899   9.868  10.706  0.3332 -0.9807  0.3765
  900MOL0     O21389   1.759   9.904  10.693  0.2072 -0.1293 -0.1594
  900MOL0     C21390   1.666   9.806  10.705  0.1466  0.1176  0.0627
  900MOL0     C21391   1.654   9.725  10.819  0.8897 -0.7596  0.0185
  900MOL0     C21392   1.540   9.647  10.850 -1.0040 -0.3135  0.5211
  900MOL0     C21393   1.539   9.579  10.986  0.1101  0.8356  0.3132
  900MOL0     C21394   1.441   9.637  10.748 -0.8253  0.1255  0.1454
  900MOL0     C21395   1.317   9.555  10.767 -0.0160  0.3209  0.4482
  900MOL0     O21396   1.223   9.575  10.669 -0.4921 -0.3724  0.1479
  900MOL0     C21397   1.094   9.548  10.701 -0.5013  0.8249  0.3336
  900MOL0     C21398   1.016   9.475  10.606 -1.0443 -0.0183 -0.4329
  900MOL0     C21399   0.880   9.458  10.642  0.0596  0.0577  0.5886
  900MOL0     C21400   0.818   9.505  10.758 -0.1473  0.7819 -0.1500
  900MOL0     O21401   0.683   9.481  10.800  0.5981 -0.3239  0.4089
  900MOL0     C21402   0.605   9.415  10.692  0.6180 -0.1109 -0.3608
  900MOL0     C21403   0.470   9.373  10.745  0.2099 -0.0941 -0.4558
  900MOL0     C21404   0.383   9.485  10.809 -0.1117 -0.2738 -0.1240
  900MOL0     C21405   0.247   9.426  10.852 -0.1074  0.5714 -0.5178
  900MOL0     C21406   0.155   9.536  10.910  0.5885  0.4238 -0.7067
  900MOL0     C21407   0.024   9.483  10.975  0.2401  1.0417  0.1510
  900MOL0     C21408   0.041   9.382  11.086 -0.4201 -0.8594 -0.3632
  900MOL0     C21409  -0.087   9.357  11.163 -0.4490 -0.0206 -0.8068
  900MOL0    Cl21410  -0.110   9.421  11.330 -0.3836 -0.0174  0.3008
  900MOL0     C21411   0.897   9.575  10.846 -0.1371  0.2379 -0.0675
  900MOL0     C21412   1.031   9.596  10.814  0.0790 -1.1304 -0.0513
  900MOL0     O21413   1.310   9.474  10.858 -0.2251  0.8431  0.2545
  900MOL0     C21414   1.466   9.708  10.623  0.3851  0.5277 -0.4573
  900MOL0     C21415   1.575   9.785  10.605  0.2830  0.5700  0.2658
  900MOL0     N21416   2.172  10.221  10.392  0.2751  0.2663  1.4654
  900MOL0     N21417   2.195  10.199  10.269 -0.9842 -0.1340  0.6522
  900MOL0     C21418   3.164  10.565   9.863  0.2615  1.0466 -0.6284
  900MOL0     C21419   3.244  10.663   9.805 -0.1542 -0.6839  0.4416
  900MOL0     C21420   3.605  10.954   9.757 -0.3325 -0.3028  0.0204
  900MOL0     C21421   3.604  11.095   9.741 -0.2787 -0.2334 -0.1473
  900MOL0     C21422   3.725  11.166   9.758 -0.1548 -0.4986 -0.4002
  900MOL0     C21423   3.848  11.095   9.768 -0.3974 -1.0358 -0.4064
  900MOL0     O21424   3.964  11.176   9.767  0.0030 -0.0873  0.0649
  900MOL0     C21425   4.087  11.111   9.813 -0.7696 -1.0079  0.3992
  900MOL0     C21426   4.197  11.218   9.818 -1.0413  0.1170  0.9781
  900MOL0     C21427   4.335  11.170   9.857 -0.7629 -0.8216  0.2226
  900MOL0     C21428   4.449  11.267   9.823  0.0559  0.0089  0.2545
  900MOL0     C21429   4.584  11.228   9.872 -0.0305 -0.4068 -0.8656
  900MOL0     C21430   4.686  11.189   9.919 -0.1580 -0.9813  0.0722
  900MOL0     C21431   3.847  10.958   9.785  0.3379  0.5604  0.0513
  900MOL0     C21432   3.725  10.890   9.784  0.2931 -1.5583  0.9470
  900MOL0     H21433   3.535  10.501   9.829  1.2539  4.2479  2.4988
  900MOL0     H21434   3.397  10.333   9.908 -1.3031  0.1446 -0.3906
  900MOL0     H21435   2.974  10.412  10.035 -1.5340  0.4726 -1.0336
  900MOL0     H21436   2.979  10.367   9.861 -0.2193  0.1098  0.5063
  900MOL0     H21437   2.988  10.127   9.931  0.1782 -0.2727  0.3510
  900MOL0     H21438   2.978  10.185  10.103 -1.3359  1.6468  0.9342
  900MOL0     H21439   2.756  10.325   9.979 -1.8775 -0.4616 -0.9068
  900MOL0     H21440   2.770  10.172   9.897 -0.3906  2.3518 -0.7158
  900MOL0     H21441   2.784  10.073  10.149 -1.2540  0.9137  2.0606
  900MOL0     H21442   2.690  10.215  10.184  0.2038  1.1189 -1.4711
  900MOL0     H21443   2.517  10.161  10.007 -1.1361  0.8806  2.5942
  900MOL0     H21444   2.613  10.022   9.961 -1.9544  2.9544 -3.9666
  900MOL0     H21445   2.593   9.933  10.190  1.1757  2.2603  2.6104
  900MOL0     H21446   2.494  10.070  10.239  0.8306  1.7901 -0.6100
  900MOL0     H21447   2.407   9.912   9.993 -0.3311  0.7811 -0.1876
  900MOL0     H21448   2.391   9.839  10.155  6.0768 -0.2632 -0.0799
  900MOL0     H21449   2.190   9.920  10.118 -0.8699  1.0452  2.2426
  900MOL0     H21450   2.244  10.069  10.035 -0.3568  0.1322 -0.6005
  900MOL0     H21451   2.274   9.913  10.376  2.2940  0.3723 -2.5502
  900MOL0     H21452   2.294  10.056  10.639 -0.5908 -0.1853  0.6801
  900MOL0     H21453   2.152  10.175  10.650 -3.1931  1.9747 -4.6323
  900MOL0     H21454   2.156   9.935  10.744  0.0797 -0.1034  0.8528
  900MOL0     H21455   2.141   9.875  10.575  3.6036  0.2729  1.5249
  900MOL0     H21456   1.937  10.000  10.537 -0.3167 -1.5301 -0.6738
  900MOL0     H21457   1.946  10.083  10.688  0.7566  0.3016  0.4899
  900MOL0     H21458   1.928   9.876  10.811  1.5677 -2.0367  0.1430
  900MOL0     H21459   1.915   9.769  10.663  0.9008 -1.0641  0.7596
  900MOL0     H21460   1.719   9.740  10.905  0.6272 -0.4923  0.1730
  900MOL0     H21461   1.613   9.619  11.057  0.7877 -1.5463  1.0412
  900MOL0     H21462   1.439   9.594  11.027  0.9910  2.3198  2.1164
  900MOL0     H21463   1.561   9.474  10.966 -0.8468  0.7034 -0.0777
  900MOL0     H21464   1.057   9.448  10.510 -0.6850 -1.5110  0.1141
  900MOL0     H21465   0.823   9.424  10.556  0.3835  2.8889 -0.8623
  900MOL0     H21466   0.585   9.472  10.601 -0.6117  1.0344  0.5839
  900MOL0     H21467   0.651   9.330  10.641 -2.9976 -0.4703 -3.4221
  900MOL0     H21468   0.414   9.322  10.666  1.0086 -1.6583 -0.0667
  900MOL0     H21469   0.473   9.286  10.812 -2.0651 -0.2320 -0.4441
  900MOL0     H21470   0.358   9.568  10.742  1.3695  2.8394  2.8600
  900MOL0     H21471   0.437   9.535  10.889 -0.6728 -4.2394  3.0396
  900MOL0     H21472   0.192   9.378  10.771 -2.2444  3.6967 -1.0655
  900MOL0     H21473   0.272   9.361  10.937 -1.5993  2.3755  1.4029
  900MOL0     H21474   0.119   9.604  10.833  0.2394 -1.1870 -2.0100
  900MOL0     H21475   0.213   9.582  10.991  2.1213 -0.5632 -1.2117
  900MOL0     H21476  -0.033   9.566  11.018 -0.4596 -0.4857  2.3908
  900MOL0     H21477  -0.034   9.442  10.892  0.3958  1.2407 -0.0569
  900MOL0     H21478   0.119   9.425  11.151  1.2028  2.7437 -4.2594
  900MOL0     H21479   0.080   9.287  11.048 -0.1173 -0.8890  0.0068
  900MOL0     H21480  -0.104   9.249  11.155  4.2409 -0.8424 -4.0123
  900MOL0     H21481  -0.172   9.394  11.105 -0.9572  3.4475  1.8323
  900MOL0     H21482   0.862   9.622  10.937  0.6946 -0.8158  0.8252
  900MOL0     H21483   1.081   9.667  10.880 -0.9083  2.4990 -2.8916
  900MOL0     H21484   1.404   9.709  10.534 -2.3535  0.6323  1.3327
  900MOL0     H21485   1.586   9.831  10.507 -2.7818 -2.4719 -1.7336
  900MOL0     H21486   3.059  10.595   9.870 -0.8318 -2.6475  1.4161
  900MOL0     H21487   3.206  10.763   9.791 -0.3184 -0.7552  0.3816
  900MOL0     H21488   3.521  11.156   9.706 -0.6082  0.4142  1.6429
  900MOL0     H21489   3.730  11.274   9.753 -1.8686 -0.4207 -1.0805
  900MOL0     H21490   4.081  11.058   9.909  1.3479 -0.3101  0.9572
  900MOL0     H21491   4.136  11.038   9.748  0.6513  0.1247  0.1586
  900MOL0     H21492   4.157  11.299   9.879  0.2670  0.9083  0.8239
  900MOL0     H21493   4.202  11.255   9.716  1.1781 -2.6419 -0.0353
  900MOL0     H21494   4.353  11.077   9.801 -1.6511  1.1087 -3.5851
  900MOL0     H21495   4.340  11.152   9.965  0.6093 -0.9252  0.1697
  900MOL0     H21496   4.418  11.358   9.873 -0.4781 -0.0915  0.1142
  900MOL0     H21497   4.444  11.294   9.717 -0.7682  4.4067  1.2579
  900MOL0     H21498   4.783  11.171   9.961  1.2158 -0.0481 -2.4623
  900MOL0     H21499   3.938  10.900   9.799 -1.0352 -1.4522  1.2043
  900MOL0     H21500   3.732  10.782   9.791  3.6095 -1.7060 -1.6951
  901MOL0     O21501   4.153   9.758   0.901  0.4856  0.6725 -1.0248
  901MOL0     C21502   4.167   9.843   0.985 -0.0238  0.3260  0.5803
  901MOL0     O21503   4.083   9.932   1.017  0.2024  0.2368 -0.5237
  901MOL0     C21504   3.948   9.931   0.961 -0.5873 -0.1591 -0.3199
  901MOL0     C21505   3.861   9.825   0.976  0.8784  0.4119 -0.2290
  901MOL0     C21506   3.734   9.840   0.925  0.6116 -0.4436 -0.5612
  901MOL0     C21507   3.690   9.957   0.870  0.3584  1.5777 -0.1904
  901MOL0     O21508   3.558   9.954   0.840 -0.2735  0.0218 -0.3849
  901MOL0     C21509   3.527  10.024   0.719  0.4071  0.3739  0.2181
  901MOL0     C21510   3.374   9.994   0.689 -0.2630 -0.3199  0.6946
  901MOL0     C21511   3.286  10.046   0.806 -0.4077 -0.1110 -0.5094
  901MOL0     C21512   3.137  10.027   0.772  1.2263  0.3259 -0.9992
  901MOL0     C21513   3.043  10.056   0.891 -0.6303 -0.9852 -0.3381
  901MOL0     C21514   2.901  10.008   0.858  0.7097  0.3220 -0.6022
  901MOL0     C21515   2.809  10.029   0.972  0.2959  0.0976  1.2410
  901MOL0     C21516   2.751  10.165   0.984  0.3311 -0.2832 -0.3417
  901MOL0     N21517   2.652  10.183   1.100 -0.4951  0.0816  0.7381
  901MOL0     C21518   2.600  10.076   1.182  0.4787  0.0882  0.2039
  901MOL0     C21519   2.505  10.148   1.259 -1.0240  0.1898  0.1844
  901MOL0     C21520   2.428  10.071   1.364  0.6372 -0.3080 -0.0078
  901MOL0     C21521   2.331   9.972   1.305 -0.7080  0.2007  0.7640
  901MOL0     C21522   2.184  10.023   1.281 -0.6768 -0.0182 -0.1904
  901MOL0     C21523   2.095   9.938   1.194 -0.1222  0.3361  0.2369
  901MOL0     O21524   1.969  10.008   1.194 -0.3379 -0.8471  0.2307
  901MOL0     C21525   1.853   9.949   1.145 -0.2353 -0.4243  0.8195
  901MOL0     C21526   1.743  10.029   1.111  0.9612  0.1651 -0.3117
  901MOL0     C21527   1.616   9.983   1.076  0.5103 -0.1582  0.9433
  901MOL0     C21528   1.504  10.076   1.053 -0.6447  0.3640  0.3467
  901MOL0     C21529   1.603   9.837   1.057 -0.2213 -0.8544  0.0236
  901MOL0     C21530   1.477   9.771   1.009  0.2088 -0.3134 -0.0440
  901MOL0     O21531   1.502   9.640   0.985 -0.4235 -0.5437 -0.3528
  901MOL0     C21532   1.392   9.574   0.929 -0.7887 -0.1238  0.2186
  901MOL0     C21533   1.276   9.531   1.002  0.1425  0.0457 -0.7526
  901MOL0     C21534   1.161   9.479   0.942  0.6271 -0.1443 -0.3908
  901MOL0     C21535   1.169   9.452   0.801  0.5647 -0.5212  0.8843
  901MOL0     O21536   1.072   9.391   0.722 -0.1236  0.4069  0.2596
  901MOL0     C21537   0.960   9.348   0.794  0.8353 -0.6594  0.4572
  901MOL0     C21538   1.003   9.218   0.872  0.3256  0.4751 -0.0890
  901MOL0     C21539   1.077   9.113   0.796 -0.4766 -0.5474  0.3666
  901MOL0     C21540   1.093   9.005   0.898 -0.4039  0.1165  0.7414
  901MOL0     C21541   1.169   8.884   0.826 -1.4259  0.0875  1.5948
  901MOL0     C21542   1.085   8.791   0.741  0.0080 -0.0394 -0.4406
  901MOL0     C21543   0.974   8.728   0.832  0.5747  0.0603 -0.0468
  901MOL0     C21544   0.915   8.604   0.770 -0.1203  0.1668 -0.3721
  901MOL0    Cl21545   0.798   8.661   0.646 -0.0259  0.4761 -0.5336
  901MOL0     C21546   1.282   9.503   0.727 -0.1853  0.7662  0.6441
  901MOL0     C21547   1.390   9.563   0.792  0.1051 -0.0588 -0.6088
  901MOL0     O21548   1.369   9.835   0.993  0.1390  0.2777 -0.1638
  901MOL0     C21549   1.720   9.756   1.079 -0.0925  0.2210 -0.8277
  901MOL0     C21550   1.842   9.812   1.122 -0.6989  0.2259 -0.1420
  901MOL0     N21551   2.517  10.283   1.241 -0.8056  0.8059  0.2582
  901MOL0     N21552   2.608  10.299   1.147 -0.1355 -0.1131 -0.3377
  901MOL0     C21553   3.772  10.070   0.866 -0.0710 -0.2061 -0.6101
  901MOL0     C21554   3.914  10.051   0.907  1.0200  0.2001  0.7844
  901MOL0     C21555   4.294   9.848   1.056 -0.1736 -0.2588 -0.2374
  901MOL0     C21556   4.413   9.796   0.994 -0.1594 -0.1671  0.8111
  901MOL0     C21557   4.540   9.817   1.045  0.8908  0.5930  0.0793
  901MOL0     C21558   4.557   9.876   1.177  0.2303  0.7468 -0.2887
  901MOL0     O21559   4.681   9.886   1.229  0.1310  0.0393 -0.0609
  901MOL0     C21560   4.710   9.977   1.335 -0.1673  0.1475 -0.4914
  901MOL0     C21561   4.740  10.118   1.270 -0.4266  0.3293 -0.3338
  901MOL0     C21562   4.861  10.110   1.167  0.5703  0.1756 -0.1302
  901MOL0     C21563   4.882  10.246   1.085 -0.0748  0.0208 -0.5645
  901MOL0     C21564   4.912  10.355   1.180  0.3861  0.7124  0.7231
  901MOL0     C21565   4.956  10.439   1.252  0.0027  0.0374 -0.3077
  901MOL0     C21566   4.439   9.917   1.239 -0.3336  0.3467  0.2085
  901MOL0     C21567   4.307   9.899   1.184 -0.9857  0.1640  0.4712
  901MOL0     H21568   3.884   9.732   1.026 -1.8337 -0.2171 -0.0112
  901MOL0     H21569   3.677   9.749   0.911 -1.5838  0.5316  1.4456
  901MOL0     H21570   3.543  10.131   0.736 -1.7249  1.1939 -2.3312
  901MOL0     H21571   3.592   9.983   0.641  1.8974 -1.4817  2.2627
  901MOL0     H21572   3.352  10.044   0.594  4.9893  4.1183  1.3261
  901MOL0     H21573   3.374   9.885   0.688  3.8486 -0.4774  0.3114
  901MOL0     H21574   3.304   9.993   0.900 -1.9135 -2.7547 -1.6094
  901MOL0     H21575   3.315  10.151   0.817 -1.1197  0.1336 -0.9553
  901MOL0     H21576   3.105  10.101   0.698 -0.2420 -0.0116 -0.7351
  901MOL0     H21577   3.118   9.927   0.733  1.4596 -0.3359  0.5245
  901MOL0     H21578   3.086  10.012   0.981 -0.0657  0.3976  0.0983
  901MOL0     H21579   3.045  10.160   0.926  0.7764 -1.1926  0.2529
  901MOL0     H21580   2.862  10.062   0.772  1.7835 -1.6106 -2.3913
  901MOL0     H21581   2.906   9.901   0.834 -1.3057  0.2222 -0.6809
  901MOL0     H21582   2.725   9.961   0.959  1.0203 -0.8988  1.6749
  901MOL0     H21583   2.866  10.000   1.060  0.3144 -0.3755  1.0740
  901MOL0     H21584   2.703  10.191   0.890  0.1223  1.3138  0.1811
  901MOL0     H21585   2.831  10.236   1.005  0.0195  0.3343 -1.2051
  901MOL0     H21586   2.618   9.969   1.174 -4.3731 -0.8715 -1.7387
  901MOL0     H21587   2.499  10.022   1.433 -0.8292 -0.4383  1.4623
  901MOL0     H21588   2.368  10.146   1.416 -0.6093 -3.3590  3.3602
  901MOL0     H21589   2.324   9.889   1.376 -0.2215  1.2223  2.0510
  901MOL0     H21590   2.377   9.937   1.212  1.2288 -1.0696  2.1066
  901MOL0     H21591   2.191  10.123   1.238  1.5879 -1.7435 -4.3789
  901MOL0     H21592   2.142  10.021   1.382  0.0012 -1.3301  0.0826
  901MOL0     H21593   2.085   9.836   1.233 -0.5713 -0.4013 -1.6840
  901MOL0     H21594   2.136   9.930   1.093  2.6112 -0.3040  1.3204
  901MOL0     H21595   1.764  10.135   1.101  1.7917  0.1200  0.7083
  901MOL0     H21596   1.533  10.178   1.079 -2.0813  1.0203 -0.4901
  901MOL0     H21597   1.482  10.075   0.946 -1.3544 -0.6915  0.4896
  901MOL0     H21598   1.411  10.052   1.105 -0.2772 -0.1267  0.7903
  901MOL0     H21599   1.274   9.542   1.110  0.3362  0.4836 -0.7912
  901MOL0     H21600   1.078   9.449   1.005  0.5218  1.4987  0.3119
  901MOL0     H21601   0.929   9.424   0.866  3.1699  2.5332 -1.6256
  901MOL0     H21602   0.869   9.323   0.739 -1.2824  2.9701  2.0093
  901MOL0     H21603   1.060   9.246   0.961  1.9374 -0.8342 -0.6626
  901MOL0     H21604   0.911   9.173   0.913  0.3484  0.4084 -0.1104
  901MOL0     H21605   1.169   9.156   0.755 -0.3543 -1.7851 -0.7381
  901MOL0     H21606   1.016   9.085   0.710 -0.4307  0.2040  0.0801
  901MOL0     H21607   1.162   9.041   0.974 -0.6637  2.4925 -0.0783
  901MOL0     H21608   0.995   8.984   0.942 -1.0831  1.3265 -0.1421
  901MOL0     H21609   1.231   8.824   0.893  0.4267  0.4342  0.2498
  901MOL0     H21610   1.249   8.923   0.763 -1.3471  1.6846  2.6290
  901MOL0     H21611   1.043   8.851   0.660  2.7677  0.4633 -1.6224
  901MOL0     H21612   1.141   8.712   0.688  1.7537  1.9863 -1.7927
  901MOL0     H21613   0.897   8.796   0.868 -0.8574 -1.6690  0.3408
  901MOL0     H21614   1.021   8.691   0.923 -0.2437  1.3614  0.9430
  901MOL0     H21615   0.859   8.532   0.830 -2.4939  1.5999 -0.7380
  901MOL0     H21616   0.993   8.543   0.724  1.5671  0.5088  1.8596
  901MOL0     H21617   1.288   9.478   0.622  0.4496  1.4258  0.5139
  901MOL0     H21618   1.470   9.602   0.730 -0.5602  0.9028 -0.8884
  901MOL0     H21619   1.721   9.650   1.056  0.9846  0.2989 -1.2403
  901MOL0     H21620   1.917   9.734   1.132  0.3741  1.4258  1.8194
  901MOL0     H21621   3.741  10.166   0.825 -0.3274 -0.5182 -1.1563
  901MOL0     H21622   3.973  10.130   0.861  1.3406 -0.3546  0.2220
  901MOL0     H21623   4.401   9.753   0.896 -0.4219 -0.6129  1.0345
  901MOL0     H21624   4.631   9.788   0.993  1.2781  1.4030  0.2863
  901MOL0     H21625   4.639   9.973   1.418 -0.4982 -1.4246 -0.8105
  901MOL0     H21626   4.801   9.937   1.381  0.3026 -1.0096 -2.3026
  901MOL0     H21627   4.759  10.190   1.351  0.5667 -1.4427  1.0782
  901MOL0     H21628   4.648  10.150   1.221 -0.5617  0.7767  0.1955
  901MOL0     H21629   4.846  10.025   1.101  0.3510  0.5451 -0.5579
  901MOL0     H21630   4.953  10.089   1.223  0.8061  1.3278 -0.0446
  901MOL0     H21631   4.793  10.269   1.026 -0.2070  0.2508 -0.2802
  901MOL0     H21632   4.970  10.230   1.021 -0.2456  0.9359 -1.0424
  901MOL0     H21633   5.002  10.518   1.308  2.3375 -1.0796 -0.5628
  901MOL0     H21634   4.446   9.968   1.334  3.4969  2.4218 -0.9843
  901MOL0     H21635   4.222   9.927   1.246 -0.6752  3.7388 -0.4776
  902MOL0     O21636   4.874   8.190   8.485  0.4019  0.1486  0.3761
  902MOL0     C21637   4.908   8.220   8.597  0.2068 -0.3256  0.1577
  902MOL0     O21638   4.830   8.222   8.710  0.4405  0.4783 -0.5396
  902MOL0     C21639   4.702   8.190   8.709  0.0260  0.1176 -0.9017
  902MOL0     C21640   4.642   8.097   8.625 -0.8506 -0.1585 -0.4453
  902MOL0     C21641   4.511   8.068   8.645  0.3411 -0.3420  0.3767
  902MOL0     C21642   4.428   8.134   8.740 -0.1688  0.4191  0.2409
  902MOL0     O21643   4.290   8.148   8.745  0.1755 -0.5054 -0.1897
  902MOL0     C21644   4.211   8.054   8.671 -0.4429  0.6330 -0.0756
  902MOL0     C21645   4.094   8.017   8.760  0.3099  0.8353  0.5446
  902MOL0     C21646   3.979   7.970   8.676 -0.6591 -1.4420  0.0089
  902MOL0     C21647   3.844   7.961   8.742 -0.0752 -0.4845  0.2904
  902MOL0     C21648   3.756   7.895   8.639  0.5594  0.7663  0.0468
  902MOL0     C21649   3.620   7.858   8.695  0.1130 -1.0368 -0.2602
  902MOL0     C21650   3.524   7.980   8.706  0.0605 -0.5862 -0.1947
  902MOL0     C21651   3.377   7.947   8.743  0.1212 -0.5172 -0.0180
  902MOL0     N21652   3.359   7.818   8.800  0.8555 -0.2820  0.0931
  902MOL0     C21653   3.393   7.785   8.929 -0.0363  0.3967 -0.0843
  902MOL0     C21654   3.385   7.648   8.934  0.2698  0.0322 -0.2681
  902MOL0     C21655   3.414   7.559   9.052  0.2342  0.3137  0.0787
  902MOL0     C21656   3.283   7.497   9.115  0.0070 -0.1993  0.2241
  902MOL0     C21657   3.229   7.583   9.232  0.0572  0.0894  0.5562
  902MOL0     C21658   3.134   7.503   9.319 -0.1380  0.2160 -0.0261
  902MOL0     O21659   3.068   7.591   9.404 -0.3620  0.4217  0.0580
  902MOL0     C21660   2.928   7.603   9.410  0.3409 -0.5780 -0.1654
  902MOL0     C21661   2.850   7.490   9.405 -1.0339  0.0656  0.1344
  902MOL0     C21662   2.712   7.492   9.402  0.0267 -1.2471 -0.0052
  902MOL0     C21663   2.646   7.361   9.367  0.2030 -0.1440 -0.6340
  902MOL0     C21664   2.648   7.618   9.412  0.0040 -0.0031  0.3227
  902MOL0     C21665   2.509   7.638   9.383  0.7888 -0.5934 -0.8239
  902MOL0     O21666   2.417   7.534   9.410  0.3606 -0.7976 -0.2578
  902MOL0     C21667   2.287   7.575   9.451  0.1732  0.0829 -0.2514
  902MOL0     C21668   2.196   7.630   9.358 -0.4168  0.0537 -0.1001
  902MOL0     C21669   2.061   7.659   9.384  0.9809  0.2821 -0.7515
  902MOL0     C21670   2.020   7.637   9.513  0.2013 -0.1751  0.1829
  902MOL0     O21671   1.899   7.691   9.544  1.1394 -0.0798 -0.8154
  902MOL0     C21672   1.850   7.721   9.681  0.1985 -0.5996 -0.2062
  902MOL0     C21673   1.739   7.829   9.663 -0.4465  0.0533 -0.0167
  902MOL0     C21674   1.610   7.766   9.599 -0.5015  0.2398 -0.4977
  902MOL0     C21675   1.478   7.851   9.619  0.1620 -0.7001 -0.1894
  902MOL0     C21676   1.355   7.777   9.575  0.1625 -0.1683 -0.6680
  902MOL0     C21677   1.236   7.873   9.587 -0.6376 -0.0641  0.1957
  902MOL0     C21678   1.107   7.793   9.563  0.6102  0.1889  0.6557
  902MOL0     C21679   0.987   7.873   9.564  0.2082 -0.0129  0.0212
  902MOL0    Cl21680   0.987   7.924   9.745  0.0490  0.1979  0.0318
  902MOL0     C21681   2.101   7.575   9.608 -0.5692  0.7641  0.1650
  902MOL0     C21682   2.236   7.543   9.579 -0.3192 -0.3006 -0.3181
  902MOL0     O21683   2.477   7.745   9.339  0.5226  0.3379 -0.4796
  902MOL0     C21684   2.724   7.734   9.429 -1.2888 -0.0452  0.3624
  902MOL0     C21685   2.861   7.724   9.429 -0.7375  0.9515  0.0743
  902MOL0     N21686   3.353   7.600   8.810  0.5924  0.8855  0.5401
  902MOL0     N21687   3.315   7.704   8.732  0.3633  0.4491 -0.3213
  902MOL0     C21688   4.493   8.215   8.833 -0.0751 -0.1021 -0.1206
  902MOL0     C21689   4.627   8.247   8.810  0.3554  0.7695 -0.2788
  902MOL0     C21690   5.058   8.246   8.627  0.3249 -0.7285  0.8573
  902MOL0     C21691   5.150   8.247   8.522 -0.2342  0.0229  0.3944
  902MOL0     C21692   5.291   8.281   8.549  0.5621  0.1196  0.0047
  902MOL0     C21693   5.333   8.290   8.686  0.4400  0.2920  0.0806
  902MOL0     O21694   5.465   8.300   8.723 -0.5733  0.7123  0.4919
  902MOL0     C21695   5.567   8.338   8.622 -0.2653 -0.0587  0.9004
  902MOL0     C21696   5.705   8.314   8.677  0.5164 -0.2883  0.0955
  902MOL0     C21697   5.736   8.172   8.710  0.3012 -0.2366  0.3547
  902MOL0     C21698   5.856   8.157   8.802  0.9624 -0.5900  0.5199
  902MOL0     C21699   5.958   8.073   8.742 -0.0282  0.3146  0.2942
  902MOL0     C21700   6.039   8.009   8.682 -0.0430  1.0091 -0.8751
  902MOL0     C21701   5.239   8.274   8.786  0.5396 -0.4321  0.7859
  902MOL0     C21702   5.105   8.273   8.757  0.5517 -0.2114 -0.1044
  902MOL0     H21703   4.700   8.051   8.546  0.0908  0.5298 -0.1710
  902MOL0     H21704   4.469   7.998   8.574  1.5549  0.0390 -0.7537
  902MOL0     H21705   4.186   8.104   8.577 -1.2567  0.7585  0.2027
  902MOL0     H21706   4.261   7.958   8.649  2.3989  1.8117  0.7559
  902MOL0     H21707   4.135   7.935   8.819  0.3969  0.1352 -0.4634
  902MOL0     H21708   4.066   8.095   8.831  2.0529  1.2218  0.8565
  902MOL0     H21709   3.982   8.032   8.586  1.0241 -2.5829 -0.7703
  902MOL0     H21710   4.003   7.867   8.647  0.7882 -0.7177 -1.4960
  902MOL0     H21711   3.859   7.905   8.834  0.9902 -1.9653 -0.7446
  902MOL0     H21712   3.791   8.054   8.768 -3.1129 -2.5642  2.1630
  902MOL0     H21713   3.738   7.951   8.547 -1.2284  0.9748  0.4729
  902MOL0     H21714   3.800   7.800   8.607  2.4550  1.5056  0.3750
  902MOL0     H21715   3.565   7.791   8.628 -2.2995 -1.0144  1.5449
  902MOL0     H21716   3.643   7.807   8.789 -1.2747  2.2623  2.0464
  902MOL0     H21717   3.573   8.041   8.783 -2.5428 -0.5443  1.5532
  902MOL0     H21718   3.523   8.036   8.612  3.2515 -1.8071 -1.0934
  902MOL0     H21719   3.320   7.962   8.651 -0.2619  1.0738  0.4449
  902MOL0     H21720   3.326   8.016   8.811 -1.9119 -2.5148  0.6038
  902MOL0     H21721   3.422   7.857   9.005 -0.9042 -0.9695  1.6112
  902MOL0     H21722   3.473   7.474   9.015  2.1970  1.2560  0.8852
  902MOL0     H21723   3.467   7.620   9.126  2.9255  0.3047 -1.7037
  902MOL0     H21724   3.316   7.400   9.153 -0.8931  0.0510  1.7375
  902MOL0     H21725   3.203   7.475   9.043 -1.1878 -0.5070  1.5826
  902MOL0     H21726   3.186   7.669   9.180  3.0737 -0.3443 -3.0749
  902MOL0     H21727   3.308   7.622   9.297 -1.5788  1.8534  1.5934
  902MOL0     H21728   3.200   7.436   9.374 -0.9599 -0.8257 -0.2664
  902MOL0     H21729   3.062   7.445   9.261  0.3459  0.3399 -0.7555
  902MOL0     H21730   2.898   7.393   9.405 -2.4288 -0.6564 -0.1150
  902MOL0     H21731   2.573   7.338   9.445 -1.0838 -2.4646 -2.3818
  902MOL0     H21732   2.594   7.374   9.271  2.4872  1.0576 -1.8137
  902MOL0     H21733   2.701   7.268   9.353  0.6369 -0.1238  0.8292
  902MOL0     H21734   2.234   7.661   9.261 -0.8225 -1.3499 -0.7356
  902MOL0     H21735   1.988   7.696   9.313 -0.9636  2.8350  2.3343
  902MOL0     H21736   1.807   7.630   9.725 -1.8864  1.9504  3.5785
  902MOL0     H21737   1.929   7.758   9.747  0.6295  1.7943 -1.9501
  902MOL0     H21738   1.731   7.878   9.760  1.6683 -3.0937  1.9394
  902MOL0     H21739   1.773   7.897   9.584 -2.0986  0.5635 -0.3208
  902MOL0     H21740   1.593   7.661   9.624 -1.2868  0.6374  0.7447
  902MOL0     H21741   1.625   7.759   9.491  1.8026 -1.2613 -0.1405
  902MOL0     H21742   1.466   7.877   9.724 -3.0533  1.5316 -0.9617
  902MOL0     H21743   1.481   7.942   9.558 -1.2759  0.4964  1.4284
  902MOL0     H21744   1.334   7.683   9.628 -1.3714  0.7240  0.3845
  902MOL0     H21745   1.358   7.759   9.467 -1.5850  2.4774 -1.2391
  902MOL0     H21746   1.235   7.914   9.688 -0.0012  2.4362 -0.7174
  902MOL0     H21747   1.245   7.953   9.512 -1.7025 -1.8407 -1.9581
  902MOL0     H21748   1.093   7.710   9.633  0.7554 -3.6570 -3.4074
  902MOL0     H21749   1.108   7.746   9.465  1.0132  1.3081  0.1142
  902MOL0     H21750   0.899   7.812   9.541  2.2849 -2.4335 -2.0535
  902MOL0     H21751   1.011   7.958   9.500  0.1291 -2.1867 -3.1004
  902MOL0     H21752   2.070   7.561   9.711  1.4851  1.2250  0.8939
  902MOL0     H21753   2.299   7.494   9.652 -1.6218 -1.2448  0.2285
  902MOL0     H21754   2.674   7.828   9.451 -2.8183 -1.0387  1.3886
  902MOL0     H21755   2.931   7.805   9.450  0.8252 -0.6664  1.4214
  902MOL0     H21756   4.457   8.255   8.927  1.1110 -4.5967  2.5268
  902MOL0     H21757   4.680   8.311   8.880  3.1090 -0.0839 -1.4227
  902MOL0     H21758   5.117   8.234   8.420 -0.0380  2.3882 -0.0239
  902MOL0     H21759   5.352   8.274   8.460 -1.9072  3.3108 -2.1650
  902MOL0     H21760   5.562   8.274   8.534  0.6423  2.3876 -1.0395
  902MOL0     H21761   5.555   8.442   8.589 -0.0961 -1.1603 -3.0639
  902MOL0     H21762   5.716   8.379   8.765 -1.3297 -0.2510  0.3269
  902MOL0     H21763   5.767   8.353   8.596  0.5222  0.2513  0.3530
  902MOL0     H21764   5.761   8.125   8.614 -0.0063 -0.6829  0.4873
  902MOL0     H21765   5.649   8.119   8.750 -0.0821  0.5265  0.5495
  902MOL0     H21766   5.819   8.115   8.896 -0.1506 -0.1103  0.3096
  902MOL0     H21767   5.898   8.258   8.811  0.7263 -0.4912  0.5000
  902MOL0     H21768   6.103   7.958   8.613 -1.4234 -1.1374 -0.6740
  902MOL0     H21769   5.277   8.264   8.887  0.7919 -2.5236  0.5336
  902MOL0     H21770   5.026   8.290   8.829 -2.7063  0.2050 -3.5217
  903MOL0     O21771   4.871   8.840   9.193  0.0438  0.7028 -0.1425
  903MOL0     C21772   4.930   8.731   9.207 -0.0916 -1.3871  0.3775
  903MOL0     O21773   4.887   8.609   9.177  0.5478  0.3291 -0.4263
  903MOL0     C21774   4.751   8.604   9.144 -0.2248  0.0506  0.1365
  903MOL0     C21775   4.728   8.601   9.003  0.0365  0.8946 -0.2714
  903MOL0     C21776   4.596   8.571   8.956 -0.4868 -0.5321 -0.1165
  903MOL0     C21777   4.489   8.552   9.051 -0.9143  0.1266 -0.2397
  903MOL0     O21778   4.372   8.507   9.001 -0.1410 -0.5555  0.3473
  903MOL0     C21779   4.282   8.430   9.077  0.7563  0.9342  0.4394
  903MOL0     C21780   4.169   8.384   8.980 -1.0720  0.2819  0.1706
  903MOL0     C21781   4.108   8.499   8.901 -0.4685  0.1774  0.3538
  903MOL0     C21782   3.959   8.457   8.851 -0.1188 -0.5800  0.2310
  903MOL0     C21783   3.903   8.568   8.763 -0.3658  0.0574  0.7387
  903MOL0     C21784   3.791   8.523   8.667 -0.1449 -0.3774 -1.0172
  903MOL0     C21785   3.670   8.482   8.751  0.7934 -0.5930  0.8413
  903MOL0     C21786   3.578   8.400   8.661 -0.3294 -0.1820 -0.4306
  903MOL0     N21787   3.449   8.373   8.736  0.2323  0.3464  0.7425
  903MOL0     C21788   3.313   8.374   8.693  0.4189 -0.4386 -0.7747
  903MOL0     C21789   3.240   8.305   8.787 -0.1640  0.9410  0.4875
  903MOL0     C21790   3.105   8.252   8.786  0.2721  0.5197  0.9439
  903MOL0     C21791   3.002   8.359   8.739 -0.0789  0.1766  0.2158
  903MOL0     C21792   2.862   8.314   8.777  0.1239  0.8636 -0.0141
  903MOL0     C21793   2.769   8.438   8.778 -0.3968 -0.3945 -0.3260
  903MOL0     O21794   2.642   8.396   8.826 -0.8821 -0.5317  0.2717
  903MOL0     C21795   2.543   8.488   8.825  1.3039  0.1763  0.5906
  903MOL0     C21796   2.551   8.614   8.746 -0.0333  0.1448 -0.3515
  903MOL0     C21797   2.439   8.693   8.744 -0.5911 -0.4038  0.5585
  903MOL0     C21798   2.449   8.814   8.665 -0.5436 -1.4990 -0.1579
  903MOL0     C21799   2.318   8.669   8.825  0.0357  0.1143 -0.2888
  903MOL0     C21800   2.200   8.761   8.810  1.0659  0.1919 -0.0617
  903MOL0     O21801   2.165   8.821   8.932 -1.2633 -0.2480 -0.3153
  903MOL0     C21802   2.083   8.930   8.944 -0.0915  0.3151 -0.4705
  903MOL0     C21803   1.966   8.945   8.855 -0.8501  0.1501 -0.1058
  903MOL0     C21804   1.874   9.055   8.875 -0.3256 -0.2382  0.6177
  903MOL0     C21805   1.896   9.156   8.971  0.4504  0.2445  0.1832
  903MOL0     O21806   1.811   9.263   9.000  0.4343  0.1651 -0.7560
  903MOL0     C21807   1.695   9.270   8.911 -0.5535 -0.8058 -0.5056
  903MOL0     C21808   1.608   9.389   8.950 -0.1592 -0.0605  0.8157
  903MOL0     C21809   1.482   9.410   8.862 -0.0450 -0.0067  0.2188
  903MOL0     C21810   1.423   9.553   8.884  0.0137  0.1798  0.5036
  903MOL0     C21811   1.303   9.579   8.785 -1.2367 -0.5374 -1.0386
  903MOL0     C21812   1.228   9.709   8.805  0.7782 -0.1650  0.7027
  903MOL0     C21813   1.102   9.715   8.713  0.3358  1.2669 -0.2913
  903MOL0     C21814   1.030   9.839   8.725  0.3182 -0.3720 -0.1234
  903MOL0    Cl21815   1.131   9.972   8.671  0.1781  0.0732 -0.1430
  903MOL0     C21816   2.006   9.136   9.062  1.0035  0.5291  0.0323
  903MOL0     C21817   2.088   9.022   9.050 -0.6743  0.0892  0.2726
  903MOL0     O21818   2.141   8.778   8.701  0.2281  0.4784  0.4827
  903MOL0     C21819   2.316   8.554   8.901  0.2070 -0.1529  0.8379
  903MOL0     C21820   2.434   8.474   8.909 -0.2749  0.5693 -0.0598
  903MOL0     N21821   3.330   8.251   8.881  0.8296 -0.0897 -0.6654
  903MOL0     N21822   3.456   8.297   8.850  0.4899  0.2372 -0.9830
  903MOL0     C21823   4.521   8.559   9.187  0.7883 -0.6700 -0.0683
  903MOL0     C21824   4.645   8.589   9.237  0.3525  0.1616 -0.2733
  903MOL0     C21825   5.067   8.746   9.257  0.3782 -0.3023 -0.3405
  903MOL0     C21826   5.108   8.871   9.305 -0.1758  0.5427  0.1155
  903MOL0     C21827   5.241   8.885   9.365  0.5682  0.0072  1.2414
  903MOL0     C21828   5.324   8.771   9.378 -0.0273 -0.2912  0.1846
  903MOL0     O21829   5.443   8.771   9.445 -0.6790  0.0003  0.5892
  903MOL0     C21830   5.542   8.830   9.362 -0.8097 -0.6658 -0.0580
  903MOL0     C21831   5.683   8.784   9.408  0.2937  0.4125  0.5046
  903MOL0     C21832   5.733   8.870   9.519 -1.1016 -0.1116 -0.0138
  903MOL0     C21833   5.825   8.795   9.617 -0.5472 -0.8764  0.5313
  903MOL0     C21834   5.942   8.755   9.544 -0.4773  0.1825 -0.2023
  903MOL0     C21835   6.047   8.715   9.493  0.6809 -0.5318  0.4655
  903MOL0     C21836   5.279   8.650   9.329  0.6575 -0.0272  0.3468
  903MOL0     C21837   5.153   8.642   9.269 -0.0372 -0.2042 -0.5750
  903MOL0     H21838   4.798   8.626   8.925  0.9019  2.5712  0.9787
  903MOL0     H21839   4.577   8.562   8.850  1.6988 -0.3946 -0.5487
  903MOL0     H21840   4.329   8.346   9.128  1.4842 -0.2181 -2.0226
  903MOL0     H21841   4.227   8.495   9.147 -1.0521  1.3214 -1.2556
  903MOL0     H21842   4.212   8.332   8.894 -1.6357  1.7413 -1.0210
  903MOL0     H21843   4.103   8.324   9.044  1.9527 -2.7948  0.7922
  903MOL0     H21844   4.108   8.588   8.965  1.9148  1.6484 -1.5617
  903MOL0     H21845   4.167   8.516   8.811 -0.9091 -2.7072 -0.5978
  903MOL0     H21846   3.962   8.363   8.795  0.5323 -0.6998  0.4555
  903MOL0     H21847   3.897   8.439   8.939 -0.4714 -1.3507 -0.1654
  903MOL0     H21848   3.877   8.651   8.828  0.4655  1.0777 -0.1919
  903MOL0     H21849   3.988   8.613   8.711  1.9269 -0.5761  3.6941
  903MOL0     H21850   3.777   8.614   8.608  0.9791  0.1603 -0.4761
  903MOL0     H21851   3.831   8.449   8.598  1.5561  0.2070 -0.6910
  903MOL0     H21852   3.703   8.436   8.844 -0.3687 -0.2783  1.4229
  903MOL0     H21853   3.610   8.569   8.776 -1.5027 -1.3897 -1.4272
  903MOL0     H21854   3.634   8.308   8.639  1.9521  0.9005  0.4629
  903MOL0     H21855   3.547   8.449   8.569 -0.0280 -2.8097 -2.0441
  903MOL0     H21856   3.278   8.411   8.597 -0.7585  1.0496  0.1719
  903MOL0     H21857   3.106   8.179   8.705 -1.1321  0.6220  0.8093
  903MOL0     H21858   3.077   8.213   8.884  0.4781 -0.5822  0.5710
  903MOL0     H21859   3.010   8.376   8.631 -1.5662  0.4783  0.1297
  903MOL0     H21860   3.034   8.443   8.801 -0.3549  1.0927 -0.8494
  903MOL0     H21861   2.854   8.270   8.876 -1.7111  0.6856 -0.2015
  903MOL0     H21862   2.829   8.249   8.695 -0.8128  1.3465 -0.0369
  903MOL0     H21863   2.779   8.478   8.676  0.8290  0.9062  0.2749
  903MOL0     H21864   2.802   8.520   8.842 -1.4115 -1.7655  2.1002
  903MOL0     H21865   2.625   8.641   8.671 -1.5477  2.3817 -1.1432
  903MOL0     H21866   2.550   8.858   8.670 -2.1198  2.4110  1.9250
  903MOL0     H21867   2.419   8.801   8.561  0.9097 -0.3558 -0.7627
  903MOL0     H21868   2.393   8.893   8.716  0.1201 -1.5689  0.7020
  903MOL0     H21869   1.931   8.879   8.777  0.0613 -0.8368  0.2809
  903MOL0     H21870   1.785   9.060   8.814  0.0125  2.4205  0.2252
  903MOL0     H21871   1.719   9.281   8.805 -1.3461  0.5678 -0.5546
  903MOL0     H21872   1.633   9.182   8.929 -0.0024 -0.7860  1.9440
  903MOL0     H21873   1.570   9.369   9.050 -0.7609 -2.9862  0.0911
  903MOL0     H21874   1.675   9.475   8.939 -1.7486  1.1895  0.5404
  903MOL0     H21875   1.408   9.332   8.883 -1.9013  2.1840  2.3884
  903MOL0     H21876   1.506   9.397   8.756 -0.5970 -0.0092  0.0904
  903MOL0     H21877   1.387   9.557   8.988  0.3160 -1.3650  0.6856
  903MOL0     H21878   1.493   9.636   8.868  2.0175 -0.9873  2.6578
  903MOL0     H21879   1.236   9.492   8.790 -1.8759 -0.0220 -0.2034
  903MOL0     H21880   1.354   9.580   8.689 -1.5126  5.1552 -1.4662
  903MOL0     H21881   1.204   9.719   8.911  3.3967 -1.1372  1.4705
  903MOL0     H21882   1.301   9.788   8.783  1.4776 -0.2243  2.5735
  903MOL0     H21883   1.028   9.636   8.730  1.9712 -0.0833  0.9757
  903MOL0     H21884   1.142   9.720   8.611  0.3106 -0.1742 -0.3863
  903MOL0     H21885   0.988   9.857   8.825 -1.0108  6.5033 -1.3746
  903MOL0     H21886   0.946   9.834   8.655 -0.1453  1.0508  0.2993
  903MOL0     H21887   2.015   9.194   9.153 -0.4809  0.8477 -0.0016
  903MOL0     H21888   2.166   9.004   9.123  1.4482  0.1357 -1.8775
  903MOL0     H21889   2.237   8.529   8.972  1.9331 -1.7090  2.3270
  903MOL0     H21890   2.435   8.399   8.987  3.3247  2.8553  2.3806
  903MOL0     H21891   4.443   8.554   9.262  1.1785 -0.2940  0.3636
  903MOL0     H21892   4.671   8.599   9.342  0.1284  1.4026 -0.3289
  903MOL0     H21893   5.040   8.956   9.298 -2.2353 -0.8383  1.9987
  903MOL0     H21894   5.277   8.980   9.402  1.2529  1.2718 -2.3034
  903MOL0     H21895   5.523   8.822   9.255  2.4925  0.5803 -0.8427
  903MOL0     H21896   5.540   8.939   9.374  2.1417 -0.6765  1.3387
  903MOL0     H21897   5.754   8.794   9.325 -1.2294  1.1597 -0.7753
  903MOL0     H21898   5.671   8.678   9.434 -1.2903  0.3961 -0.1248
  903MOL0     H21899   5.645   8.908   9.572  0.9800  2.2079  2.0074
  903MOL0     H21900   5.788   8.958   9.486 -1.5973 -0.4341 -1.8387
  903MOL0     H21901   5.777   8.708   9.662  0.6847 -0.6715  2.3337
  903MOL0     H21902   5.859   8.857   9.700 -2.5122 -0.7005  1.2675
  903MOL0     H21903   6.129   8.673   9.439  0.2741  3.0957 -3.4415
  903MOL0     H21904   5.324   8.552   9.344  0.9134  0.2716  1.7169
  903MOL0     H21905   5.121   8.545   9.232  0.2754 -0.6879  0.3994
  904MOL0     O21906   1.796   0.888   7.520 -0.7187  0.2820  0.3126
  904MOL0     C21907   1.840   1.000   7.512  0.1013 -0.4025  0.0148
  904MOL0     O21908   1.781   1.110   7.568 -0.1611  0.4287  0.0193
  904MOL0     C21909   1.655   1.097   7.616  0.6602  0.1897 -1.3071
  904MOL0     C21910   1.618   1.009   7.720 -0.3625 -0.9706  0.1381
  904MOL0     C21911   1.495   1.012   7.765 -0.9276  0.8463 -0.1072
  904MOL0     C21912   1.394   1.091   7.706 -1.6128 -0.3903 -0.7100
  904MOL0     O21913   1.273   1.083   7.765  0.0859  0.2990  0.2171
  904MOL0     C21914   1.169   1.175   7.721 -0.4811  0.2322  0.5609
  904MOL0     C21915   1.032   1.121   7.749  0.0182  0.0150  0.0486
  904MOL0     C21916   0.933   1.226   7.798  0.2353  0.2633 -0.4636
  904MOL0     C21917   0.792   1.158   7.820  0.8737  0.5292  0.2490
  904MOL0     C21918   0.788   1.078   7.953 -0.0881 -0.1040 -0.0403
  904MOL0     C21919   0.652   1.003   7.970 -0.4111  0.0886  0.0587
  904MOL0     C21920   0.656   0.929   8.100 -0.0092  0.0101  0.0934
  904MOL0     C21921   0.526   0.852   8.142 -0.8750 -0.2591 -0.0289
  904MOL0     N21922   0.398   0.896   8.082  0.3943  0.4765  0.2136
  904MOL0     C21923   0.334   1.009   8.135 -0.4613 -0.2211  0.5643
  904MOL0     C21924   0.202   0.988   8.101 -0.0854  0.7552  1.5783
  904MOL0     C21925   0.086   1.071   8.151 -0.5422 -0.7112 -0.2821
  904MOL0     C21926   0.019   0.984   8.259 -0.2512  0.5754  0.1085
  904MOL0     C21927  -0.115   1.042   8.303  0.3514  0.6095 -0.0582
  904MOL0     C21928  -0.226   0.998   8.211  0.0621 -0.9106 -0.6439
  904MOL0     O21929  -0.349   1.059   8.241 -0.2972  0.5599 -0.1287
  904MOL0     C21930  -0.459   1.018   8.164  0.1712  0.1751 -0.2761
  904MOL0     C21931  -0.472   0.903   8.089 -0.7642  0.0410 -0.9177
  904MOL0     C21932  -0.593   0.860   8.025 -0.8619 -0.6748  0.6832
  904MOL0     C21933  -0.592   0.740   7.938 -0.1984 -0.0267 -0.3791
  904MOL0     C21934  -0.709   0.946   8.030  0.3211 -1.0800  0.1264
  904MOL0     C21935  -0.845   0.931   7.963  0.6559 -0.0395 -0.4245
  904MOL0     O21936  -0.930   1.036   7.984  1.0466 -0.2036  0.2804
  904MOL0     C21937  -1.069   1.025   7.975 -0.8902  0.4134 -0.0586
  904MOL0     C21938  -1.137   1.147   7.966 -0.2135 -0.4799  0.8153
  904MOL0     C21939  -1.277   1.139   7.952  0.1057  0.2804 -0.7721
  904MOL0     C21940  -1.346   1.013   7.951 -0.9087 -1.3400 -0.1339
  904MOL0     O21941  -1.483   1.026   7.947 -0.5907  0.2768 -0.0987
  904MOL0     C21942  -1.551   0.911   7.997  0.0757 -0.0566  0.3678
  904MOL0     C21943  -1.679   0.974   8.047  0.2309 -0.4238  0.6437
  904MOL0     C21944  -1.654   1.074   8.165 -0.3993 -0.1014 -0.4047
  904MOL0     C21945  -1.672   0.995   8.298  0.2598 -0.2553  0.3920
  904MOL0     C21946  -1.804   0.926   8.324 -0.9613 -0.6378  0.6029
  904MOL0     C21947  -1.919   1.027   8.318 -0.3871 -0.1602  0.8407
  904MOL0     C21948  -2.052   0.944   8.328 -0.6386 -1.1685 -0.2399
  904MOL0     C21949  -2.171   1.026   8.278  1.3514 -0.0389 -0.7810
  904MOL0    Cl21950  -2.321   0.919   8.290  0.3548 -0.4740  0.2899
  904MOL0     C21951  -1.278   0.894   7.977 -0.2250 -0.1420  0.5977
  904MOL0     C21952  -1.141   0.906   7.995  0.3638 -0.3859  0.5522
  904MOL0     O21953  -0.873   0.829   7.901  0.1720  0.1877 -0.2719
  904MOL0     C21954  -0.691   1.071   8.105 -0.3188  0.2859 -0.0809
  904MOL0     C21955  -0.571   1.103   8.173 -0.4898 -0.2024  0.7664
  904MOL0     N21956   0.197   0.869   8.020 -0.6110 -0.1464 -0.6778
  904MOL0     N21957   0.305   0.812   8.018 -0.3096 -0.1330 -0.0789
  904MOL0     C21958   1.436   1.179   7.601  0.2727 -0.8065  0.4868
  904MOL0     C21959   1.567   1.184   7.555  0.7668  0.9760 -0.0881
  904MOL0     C21960   1.982   1.023   7.465 -0.0414  0.1361 -0.2734
  904MOL0     C21961   2.060   0.922   7.413  0.0977  0.4633 -0.2878
  904MOL0     C21962   2.191   0.947   7.372  0.4534 -0.5403 -0.2723
  904MOL0     C21963   2.236   1.081   7.364 -1.0448  0.1677  0.6495
  904MOL0     O21964   2.354   1.127   7.304 -0.0759 -0.0509  0.4224
  904MOL0     C21965   2.466   1.038   7.311 -0.6632 -0.0353 -0.4120
  904MOL0     C21966   2.595   1.117   7.282 -1.1023 -0.0745 -0.0697
  904MOL0     C21967   2.722   1.034   7.332 -0.1767  0.8358  0.2955
  904MOL0     C21968   2.765   0.926   7.229  0.0142 -0.8086  0.3808
  904MOL0     C21969   2.681   0.807   7.251 -0.3703  0.1929  0.7058
  904MOL0     C21970   2.626   0.699   7.259 -0.2586  0.2849  0.8648
  904MOL0     C21971   2.167   1.181   7.426 -0.0417 -0.1925 -0.2659
  904MOL0     C21972   2.042   1.160   7.470  0.0808  0.1065  0.1060
  904MOL0     H21973   1.684   0.942   7.774  1.2974  1.8779  1.9101
  904MOL0     H21974   1.464   0.941   7.841  0.8922  0.6770  0.5168
  904MOL0     H21975   1.180   1.274   7.767  2.8402  1.2301 -2.0581
  904MOL0     H21976   1.175   1.198   7.615  1.9410  2.6098  1.0945
  904MOL0     H21977   0.994   1.088   7.652  1.2319 -1.4010  0.0166
  904MOL0     H21978   1.033   1.043   7.825  2.3193 -1.8585 -1.7469
  904MOL0     H21979   0.955   1.258   7.900  0.2779 -2.2258  0.3884
  904MOL0     H21980   0.935   1.304   7.722  0.7133 -0.2824 -1.0208
  904MOL0     H21981   0.711   1.231   7.824  0.3307 -0.0007 -0.8005
  904MOL0     H21982   0.755   1.102   7.734  0.7544  0.8983  0.0585
  904MOL0     H21983   0.871   1.006   7.958 -0.4338 -0.4762  0.4394
  904MOL0     H21984   0.811   1.150   8.032  2.0813  2.6224 -2.9000
  904MOL0     H21985   0.575   1.081   7.983 -0.8698 -0.0283 -1.6820
  904MOL0     H21986   0.623   0.928   7.896  1.4128 -1.2785  0.6694
  904MOL0     H21987   0.729   0.848   8.087  2.0351  1.8559 -0.4817
  904MOL0     H21988   0.682   1.003   8.176 -2.2790  1.7329 -0.7087
  904MOL0     H21989   0.514   0.848   8.250 -1.2962 -0.5964 -0.0871
  904MOL0     H21990   0.533   0.745   8.119 -1.2744 -0.8103  2.2028
  904MOL0     H21991   0.371   1.092   8.195 -0.4892  2.6872 -3.0316
  904MOL0     H21992   0.121   1.168   8.190  1.4589 -2.2140  1.9334
  904MOL0     H21993   0.029   1.107   8.065  4.6277  2.9918 -2.7302
  904MOL0     H21994   0.083   0.983   8.348  1.4739  1.4634 -1.0870
  904MOL0     H21995   0.006   0.878   8.233  0.0366 -0.5075  3.7302
  904MOL0     H21996  -0.113   1.150   8.322 -2.1765  0.5919  0.6802
  904MOL0     H21997  -0.132   1.005   8.405 -2.1185  1.5945 -0.0347
  904MOL0     H21998  -0.222   0.888   8.211  1.3452 -0.8987  0.5058
  904MOL0     H21999  -0.205   1.029   8.109  1.1408  1.5574  0.2445
  904MOL0     H22000  -0.386   0.838   8.088 -1.1437 -0.5666  1.0106
  904MOL0     H22001  -0.605   0.760   7.831 -2.9292 -2.2582 -0.5694
  904MOL0     H22002  -0.499   0.683   7.952 -0.5971 -0.2609  1.6436
  904MOL0     H22003  -0.672   0.675   7.974 -1.8381  1.9441 -0.3245
  904MOL0     H22004  -1.091   1.243   7.944 -1.9514  0.7309  2.2303
  904MOL0     H22005  -1.330   1.233   7.936  3.8694  2.5664 -1.2529
  904MOL0     H22006  -1.561   0.831   7.923  0.6478 -0.5856  0.8513
  904MOL0     H22007  -1.505   0.855   8.079  0.3399 -2.8168 -1.5483
  904MOL0     H22008  -1.710   1.031   7.959  2.6091 -0.4020 -0.2657
  904MOL0     H22009  -1.746   0.891   8.070 -1.2331  0.3140 -0.7764
  904MOL0     H22010  -1.722   1.161   8.167 -1.0354 -0.4671 -2.5965
  904MOL0     H22011  -1.555   1.119   8.154 -0.5557  0.3071 -0.1775
  904MOL0     H22012  -1.593   0.920   8.303  0.4509  0.0157  1.9189
  904MOL0     H22013  -1.659   1.067   8.379 -1.1070 -0.8088  1.1337
  904MOL0     H22014  -1.804   0.892   8.428 -2.9339 -0.1559  0.7891
  904MOL0     H22015  -1.812   0.832   8.269 -2.1994 -0.7446  0.9418
  904MOL0     H22016  -1.916   1.107   8.393 -1.3081  1.2904 -0.5908
  904MOL0     H22017  -1.924   1.082   8.224  1.7796  1.6591  1.6919
  904MOL0     H22018  -2.057   0.919   8.434 -2.9551 -1.4296 -0.3720
  904MOL0     H22019  -2.045   0.851   8.271  0.8910 -1.5338  0.4877
  904MOL0     H22020  -2.145   1.061   8.178  1.0748 -1.5541 -1.4165
  904MOL0     H22021  -2.188   1.123   8.326  5.0292  0.5375 -0.3644
  904MOL0     H22022  -1.308   0.790   7.981 -0.4608 -0.1194 -0.3650
  904MOL0     H22023  -1.094   0.816   8.032 -0.4216 -1.3207 -0.6343
  904MOL0     H22024  -0.776   1.138   8.111 -0.1815  0.5670 -1.0246
  904MOL0     H22025  -0.544   1.194   8.227 -0.7187  0.5809 -0.3920
  904MOL0     H22026   1.359   1.243   7.558 -1.4109 -3.3395 -0.4776
  904MOL0     H22027   1.592   1.241   7.465 -0.0343 -0.7999 -1.4911
  904MOL0     H22028   2.027   0.821   7.432  0.7962  0.7480  3.1702
  904MOL0     H22029   2.239   0.867   7.315 -0.2051 -0.0913 -1.4972
  904MOL0     H22030   2.462   1.000   7.413 -2.1184 -0.9657 -0.7783
  904MOL0     H22031   2.460   0.948   7.248  1.3560 -0.1100 -0.5748
  904MOL0     H22032   2.590   1.209   7.340 -0.5116 -0.4297  0.5605
  904MOL0     H22033   2.608   1.133   7.175 -2.3957  0.4530 -0.1614
  904MOL0     H22034   2.718   0.983   7.429  0.8851  0.5964  0.2263
  904MOL0     H22035   2.800   1.110   7.340 -0.6958  1.3517  0.5391
  904MOL0     H22036   2.872   0.911   7.244  0.3057  0.8660  0.1567
  904MOL0     H22037   2.740   0.962   7.129 -0.2004 -1.1749  0.2994
  904MOL0     H22038   2.583   0.601   7.272 -1.5518  0.6726 -0.2641
  904MOL0     H22039   2.203   1.283   7.421  2.6983 -0.9877  1.1935
  904MOL0     H22040   2.000   1.258   7.490  0.7647  0.4679 -0.1944
  905MOL0     O22041   6.640   7.179   0.927 -0.1943 -0.1435 -0.1624
  905MOL0     C22042   6.644   7.220   1.043  0.1741  0.5443 -0.6114
  905MOL0     O22043   6.544   7.280   1.110 -0.3746 -0.1093  0.2355
  905MOL0     C22044   6.420   7.281   1.056  0.3981  0.0596 -0.4197
  905MOL0     C22045   6.364   7.402   1.023 -0.0551 -0.5014  0.4772
  905MOL0     C22046   6.238   7.413   0.975 -0.3688 -0.7748 -0.5746
  905MOL0     C22047   6.170   7.308   0.931  0.0071 -0.3532 -0.1089
  905MOL0     O22048   6.059   7.343   0.859  0.0572 -0.4694  0.1634
  905MOL0     C22049   6.014   7.230   0.783 -0.1384  1.0397  0.1216
  905MOL0     C22050   5.893   7.271   0.696  0.1210 -0.8238  0.2569
  905MOL0     C22051   5.767   7.329   0.773  0.2139  0.0375  0.2838
  905MOL0     C22052   5.642   7.276   0.709  0.1794  0.1701  0.7816
  905MOL0     C22053   5.514   7.319   0.779  0.7250 -0.0396 -0.0653
  905MOL0     C22054   5.393   7.267   0.701 -0.1302 -0.0947 -0.3228
  905MOL0     C22055   5.265   7.307   0.769  0.5373 -0.0245 -0.3907
  905MOL0     C22056   5.150   7.225   0.702 -0.3786 -0.3599 -0.3048
  905MOL0     N22057   5.023   7.276   0.741  0.3022 -0.2705 -0.4446
  905MOL0     C22058   4.974   7.389   0.689  0.1633  0.2406 -0.0884
  905MOL0     C22059   4.846   7.399   0.737 -0.1020  0.1350 -0.5937
  905MOL0     C22060   4.751   7.505   0.712 -0.5560 -0.0304  0.3697
  905MOL0     C22061   4.733   7.535   0.565  0.0683  0.4470  0.4989
  905MOL0     C22062   4.690   7.667   0.527 -0.0333  0.2608 -0.2415
  905MOL0     C22063   4.534   7.673   0.542 -0.4890  0.6855  0.5425
  905MOL0     O22064   4.460   7.591   0.452  0.3419  0.5423  0.4703
  905MOL0     C22065   4.321   7.588   0.463  0.1822 -0.1980  0.2868
  905MOL0     C22066   4.251   7.673   0.561  0.1407  0.2481  0.0143
  905MOL0     C22067   4.105   7.674   0.573 -0.0261  0.2450  0.0349
  905MOL0     C22068   4.050   7.744   0.693 -1.5043 -1.1754 -0.5282
  905MOL0     C22069   4.025   7.599   0.479  0.2396 -0.6186 -0.1631
  905MOL0     C22070   3.874   7.589   0.475  0.4718 -0.5351  0.4263
  905MOL0     O22071   3.820   7.472   0.428  0.2179  1.1157 -0.0929
  905MOL0     C22072   3.681   7.458   0.446 -0.2548  0.2263  0.4342
  905MOL0     C22073   3.602   7.450   0.332 -0.5483 -0.1057 -0.6298
  905MOL0     C22074   3.465   7.425   0.334 -0.7292  0.4523 -0.0495
  905MOL0     C22075   3.401   7.404   0.451  0.0834  0.8168 -0.6528
  905MOL0     O22076   3.275   7.357   0.449 -0.1455  0.3563 -1.1191
  905MOL0     C22077   3.190   7.438   0.522 -0.1716 -0.1503 -0.4471
  905MOL0     C22078   3.053   7.387   0.507  0.7725  0.7808  0.4861
  905MOL0     C22079   2.943   7.468   0.573  0.0768 -0.6522 -0.3248
  905MOL0     C22080   2.821   7.378   0.595  0.0177 -0.2508  0.0594
  905MOL0     C22081   2.696   7.455   0.638  0.3379  0.3403  0.4117
  905MOL0     C22082   2.590   7.361   0.695 -0.6661 -0.2209  0.7954
  905MOL0     C22083   2.451   7.439   0.697  0.1948  0.6384 -0.0865
  905MOL0     C22084   2.447   7.573   0.767  0.6842  0.6608  0.1289
  905MOL0    Cl22085   2.527   7.549   0.930 -0.0254  0.3329 -0.4671
  905MOL0     C22086   3.472   7.419   0.575  0.0551 -0.1376  0.3701
  905MOL0     C22087   3.613   7.438   0.567 -0.4894  0.5289 -0.7930
  905MOL0     O22088   3.808   7.680   0.532 -0.2831  0.6821 -0.0670
  905MOL0     C22089   4.099   7.524   0.382  0.4727  0.4441 -0.2179
  905MOL0     C22090   4.237   7.527   0.364  0.4765  0.2186 -0.9019
  905MOL0     N22091   4.819   7.290   0.821 -0.4695 -0.1797  1.0215
  905MOL0     N22092   4.935   7.227   0.827 -0.5194  0.2593  0.8086
  905MOL0     C22093   6.225   7.178   0.960  0.4048  0.3386  0.9148
  905MOL0     C22094   6.351   7.159   1.024 -0.5117 -0.8761  0.5722
  905MOL0     C22095   6.768   7.201   1.133  0.2762  0.1823  0.6951
  905MOL0     C22096   6.758   7.211   1.267 -0.2592 -0.2599 -0.9903
  905MOL0     C22097   6.868   7.177   1.344  0.1548 -0.0209 -0.0217
  905MOL0     C22098   6.989   7.141   1.292 -1.5921 -1.2230 -0.5574
  905MOL0     O22099   7.103   7.104   1.358  0.5812 -0.4122  0.4266
  905MOL0     C22100   7.113   7.066   1.497  0.0115 -0.5757  0.4530
  905MOL0     C22101   7.261   7.040   1.531 -0.1640 -0.1266 -0.9957
  905MOL0     C22102   7.355   7.154   1.478 -0.0934 -0.5538 -0.0405
  905MOL0     C22103   7.507   7.129   1.514  0.7023  0.4297  0.1848
  905MOL0     C22104   7.567   7.256   1.540  0.5252 -0.8672 -0.5811
  905MOL0     C22105   7.625   7.357   1.564  0.2956  0.0760 -0.4316
  905MOL0     C22106   7.003   7.134   1.156  0.6575  0.6981  0.6880
  905MOL0     C22107   6.891   7.156   1.074  0.0542  0.5544 -0.7334
  905MOL0     H22108   6.428   7.488   1.043 -1.2539  0.7780 -0.9863
  905MOL0     H22109   6.197   7.512   0.957  2.0921  0.1560 -1.4855
  905MOL0     H22110   6.093   7.193   0.716 -1.3578  1.4114 -1.5811
  905MOL0     H22111   5.989   7.152   0.856  2.1982 -1.3703 -1.4345
  905MOL0     H22112   5.934   7.350   0.633 -1.2931 -2.9562 -3.6599
  905MOL0     H22113   5.868   7.187   0.631 -0.3158  1.1504 -2.2493
  905MOL0     H22114   5.764   7.302   0.878 -1.8120 -1.9346 -0.2078
  905MOL0     H22115   5.770   7.439   0.769 -0.0073  0.1236  1.8976
  905MOL0     H22116   5.641   7.318   0.608  1.2217  0.4970  0.8935
  905MOL0     H22117   5.643   7.169   0.688 -2.5373  0.5711 -2.1138
  905MOL0     H22118   5.506   7.285   0.883 -2.9389  1.6154  0.3371
  905MOL0     H22119   5.514   7.428   0.775  1.8922 -0.0338 -0.2826
  905MOL0     H22120   5.397   7.315   0.602  2.1351  0.4170 -0.0457
  905MOL0     H22121   5.397   7.160   0.682  0.5901 -0.0831 -0.2638
  905MOL0     H22122   5.257   7.294   0.877  1.5440 -2.8081 -0.5723
  905MOL0     H22123   5.253   7.414   0.748  0.9190 -0.2367 -1.8561
  905MOL0     H22124   5.147   7.123   0.742 -1.6645 -0.0757  0.3472
  905MOL0     H22125   5.154   7.215   0.593  1.1315 -0.1545 -0.2958
  905MOL0     H22126   5.026   7.473   0.644  0.7340 -0.5496 -0.9212
  905MOL0     H22127   4.649   7.482   0.745 -1.3912  1.0084 -1.2935
  905MOL0     H22128   4.793   7.592   0.764  0.3930 -0.7349  0.8109
  905MOL0     H22129   4.673   7.459   0.514  0.1574  0.4530  0.3853
  905MOL0     H22130   4.829   7.525   0.513  0.2227  0.6558  0.7412
  905MOL0     H22131   4.710   7.687   0.421  0.7510 -2.7267 -0.7543
  905MOL0     H22132   4.738   7.741   0.592  1.4216 -0.7338 -0.1359
  905MOL0     H22133   4.517   7.780   0.531 -2.0554  0.3324 -1.0111
  905MOL0     H22134   4.504   7.645   0.643 -0.9846 -0.3203  0.1317
  905MOL0     H22135   4.305   7.731   0.636  0.1142 -0.7291  0.8075
  905MOL0     H22136   3.988   7.827   0.657  1.2510  0.7893 -1.0486
  905MOL0     H22137   3.988   7.677   0.753 -0.0694 -2.3009 -0.2604
  905MOL0     H22138   4.128   7.784   0.758  1.0307 -1.9332 -2.8854
  905MOL0     H22139   3.653   7.482   0.241 -1.8681 -1.7004 -1.9946
  905MOL0     H22140   3.406   7.423   0.243 -2.2709  1.7354  0.8554
  905MOL0     H22141   3.209   7.443   0.630  1.0884  2.7033 -0.6987
  905MOL0     H22142   3.195   7.545   0.500  1.2069  0.0483  0.6831
  905MOL0     H22143   3.025   7.383   0.402  0.3837  0.7860  0.5866
  905MOL0     H22144   3.055   7.287   0.552  3.3203  0.7673  0.5033
  905MOL0     H22145   2.914   7.563   0.526 -1.4151 -0.2491  1.3180
  905MOL0     H22146   2.974   7.493   0.674 -1.1848 -1.8395  0.4013
  905MOL0     H22147   2.794   7.334   0.499  0.5666  1.3652 -0.8704
  905MOL0     H22148   2.844   7.300   0.667 -2.1453 -1.1382 -0.1221
  905MOL0     H22149   2.667   7.502   0.543  1.8635  0.3599 -0.0802
  905MOL0     H22150   2.711   7.532   0.713  0.6020 -0.5818  1.3366
  905MOL0     H22151   2.573   7.271   0.636  1.1963 -0.7783  1.0434
  905MOL0     H22152   2.633   7.337   0.793  2.5596  0.1353 -0.4433
  905MOL0     H22153   2.380   7.378   0.753  0.5834  0.6240  0.4020
  905MOL0     H22154   2.417   7.444   0.593 -2.0598  1.1798  0.6056
  905MOL0     H22155   2.347   7.609   0.792  0.4170 -0.7175  1.1026
  905MOL0     H22156   2.512   7.633   0.703  1.8178 -0.3248  0.3362
  905MOL0     H22157   3.421   7.405   0.670  0.9355  0.5715  0.9660
  905MOL0     H22158   3.676   7.436   0.656 -1.4768 -2.8658 -0.0294
  905MOL0     H22159   4.050   7.465   0.305 -1.1639  0.1815  0.9595
  905MOL0     H22160   4.289   7.466   0.290  1.6029  0.6525 -0.4932
  905MOL0     H22161   6.171   7.086   0.946  1.1342 -0.0090  0.3073
  905MOL0     H22162   6.378   7.056   1.042  2.3215 -0.7686 -2.2810
  905MOL0     H22163   6.662   7.229   1.315 -0.1612  1.4348 -1.3756
  905MOL0     H22164   6.848   7.178   1.451 -0.9864  1.3220 -0.2155
  905MOL0     H22165   7.064   7.144   1.556 -0.4216 -1.3457  1.1142
  905MOL0     H22166   7.057   6.974   1.516 -0.8511  0.3682  2.7595
  905MOL0     H22167   7.303   6.956   1.475 -1.3203 -0.8781 -0.7631
  905MOL0     H22168   7.270   7.027   1.639  2.2692  3.1451 -0.6557
  905MOL0     H22169   7.318   7.250   1.517  1.2704  0.6125 -1.4797
  905MOL0     H22170   7.355   7.172   1.370 -0.3537  1.1236  0.1976
  905MOL0     H22171   7.554   7.069   1.435 -1.0596  1.3919 -1.6631
  905MOL0     H22172   7.523   7.069   1.605 -0.2397 -0.8593 -0.4668
  905MOL0     H22173   7.667   7.455   1.577 -0.0170  0.1116  0.3701
  905MOL0     H22174   7.097   7.105   1.108  0.3326  2.6354 -1.2656
  905MOL0     H22175   6.908   7.153   0.967  0.6001 -2.9027 -0.6945
  906MOL0     O22176   2.306  10.860   9.400  0.3270  0.6567  0.0761
  906MOL0     C22177   2.396  10.778   9.372 -0.1475  0.9996  0.8417
  906MOL0     O22178   2.375  10.644   9.361  0.2442 -0.0892 -0.5443
  906MOL0     C22179   2.255  10.594   9.395 -0.0697  0.4712 -0.8239
  906MOL0     C22180   2.224  10.553   9.521 -0.3430 -1.2015 -0.2605
  906MOL0     C22181   2.093  10.532   9.566  1.4498 -0.5904  0.1763
  906MOL0     C22182   1.983  10.551   9.472 -0.0161 -0.0141  0.4061
  906MOL0     O22183   1.845  10.543   9.506 -0.6260 -0.1614  0.7267
  906MOL0     C22184   1.773  10.640   9.580 -0.0778 -0.3740  0.4321
  906MOL0     C22185   1.638  10.576   9.610  1.0727  0.1091  0.3112
  906MOL0     C22186   1.644  10.444   9.698 -0.0720 -0.7569 -0.1029
  906MOL0     C22187   1.503  10.423   9.766 -0.3399  0.4292  0.2088
  906MOL0     C22188   1.501  10.291   9.855 -0.2668 -0.1868 -0.5276
  906MOL0     C22189   1.375  10.285   9.950  0.2930  0.6225 -0.3102
  906MOL0     C22190   1.243  10.273   9.875 -0.2487 -0.3275  0.5167
  906MOL0     C22191   1.128  10.248   9.965 -0.1800  0.0601  0.0437
  906MOL0     N22192   1.004  10.309   9.912 -0.4464  0.6383 -0.3796
  906MOL0     C22193   0.924  10.405   9.976  0.2038  0.0530 -0.0212
  906MOL0     C22194   0.817  10.427   9.893 -0.5621 -0.7029 -0.8197
  906MOL0     C22195   0.703  10.530   9.914 -0.0959  0.1657 -0.1502
  906MOL0     C22196   0.573  10.481   9.859  0.8112  0.7840 -0.1007
  906MOL0     C22197   0.509  10.361   9.915 -0.3501 -1.2519  0.2582
  906MOL0     C22198   0.359  10.351   9.874 -0.3032 -0.4722 -0.2187
  906MOL0     O22199   0.283  10.458   9.927 -0.3806  0.3241 -0.8871
  906MOL0     C22200   0.151  10.469   9.891  0.0858 -0.1314  0.5548
  906MOL0     C22201   0.098  10.412   9.771  0.5516 -0.2799 -0.6378
  906MOL0     C22202  -0.040  10.419   9.742 -0.0169 -0.1762 -0.7926
  906MOL0     C22203  -0.078  10.347   9.610  0.8175 -0.8648 -0.0112
  906MOL0     C22204  -0.136  10.479   9.832  0.7540  0.2592 -0.5472
  906MOL0     C22205  -0.287  10.482   9.807  0.1796 -0.0158 -1.2071
  906MOL0     O22206  -0.373  10.561   9.896 -0.6382  0.2735  0.6807
  906MOL0     C22207  -0.502  10.581   9.869 -0.0993 -0.1936 -0.2454
  906MOL0     C22208  -0.593  10.519   9.965  0.3082 -0.9876 -0.5910
  906MOL0     C22209  -0.737  10.537   9.940  0.0569 -0.7443 -0.2306
  906MOL0     C22210  -0.777  10.621   9.833  0.4170 -0.1839  0.3082
  906MOL0     O22211  -0.907  10.659   9.815  0.2903 -0.0782 -0.2596
  906MOL0     C22212  -0.963  10.559   9.723  0.1116  0.2285 -0.1942
  906MOL0     C22213  -1.119  10.566   9.705 -0.0321 -0.0059  0.0172
  906MOL0     C22214  -1.185  10.525   9.835  0.4398  0.0153  1.1926
  906MOL0     C22215  -1.329  10.575   9.824 -0.0172  0.6756  0.5170
  906MOL0     C22216  -1.415  10.533   9.948  0.9101  1.0288  0.3047
  906MOL0     C22217  -1.561  10.572   9.931  0.4878 -0.8635 -0.8472
  906MOL0     C22218  -1.638  10.503  10.047 -0.3241  0.1785 -0.6224
  906MOL0     C22219  -1.782  10.494  10.019  1.3091  0.9449 -0.2472
  906MOL0    Cl22220  -1.872  10.647  10.014 -0.1149  0.0644 -0.0290
  906MOL0     C22221  -0.678  10.673   9.741  0.7797 -0.4941 -0.0909
  906MOL0     C22222  -0.543  10.663   9.759  0.5010 -0.1569 -0.5313
  906MOL0     O22223  -0.334  10.403   9.719 -0.3354 -0.1571  0.4139
  906MOL0     C22224  -0.082  10.529   9.955  0.2050 -0.4987 -0.9184
  906MOL0     C22225   0.061  10.517   9.982 -0.2470  0.1044  0.0928
  906MOL0     N22226   0.844  10.355   9.777  0.7000 -0.7796 -0.1956
  906MOL0     N22227   0.955  10.289   9.791  0.4443  0.1561  1.2870
  906MOL0     C22228   2.014  10.593   9.346 -0.3127  0.0478 -0.0382
  906MOL0     C22229   2.146  10.612   9.308  0.0574  0.5163  0.3277
  906MOL0     C22230   2.528  10.837   9.339 -0.9166  0.6168  0.0220
  906MOL0     C22231   2.543  10.970   9.315  0.8425  0.3303  0.8233
  906MOL0     C22232   2.656  11.026   9.273 -0.3513  0.4836  0.8748
  906MOL0     C22233   2.771  10.947   9.246  0.7693  0.2037  1.2774
  906MOL0     O22234   2.891  10.987   9.192 -0.0358  0.0154  0.2588
  906MOL0     C22235   2.918  11.122   9.208  0.6285 -0.8627 -0.0623
  906MOL0     C22236   2.952  11.170   9.347 -0.0983  0.6545  0.3320
  906MOL0     C22237   2.984  11.319   9.358  1.0250  0.0507  0.5741
  906MOL0     C22238   3.023  11.374   9.498 -0.8799  0.8723  0.0248
  906MOL0     C22239   3.101  11.272   9.574  0.5522 -0.0808 -0.5446
  906MOL0     C22240   3.161  11.187   9.642  0.6343 -0.1975  0.6197
  906MOL0     C22241   2.758  10.809   9.281 -0.7414  0.5836 -0.4111
  906MOL0     C22242   2.639  10.747   9.321  0.2945  0.4147  0.6011
  906MOL0     H22243   2.309  10.542   9.588  0.2627 -0.9675 -0.9786
  906MOL0     H22244   2.081  10.506   9.671  0.9038 -2.6583 -0.3452
  906MOL0     H22245   1.830  10.657   9.672 -0.9479  0.4991  0.8291
  906MOL0     H22246   1.762  10.740   9.536 -3.3546  0.5109  2.8463
  906MOL0     H22247   1.578  10.659   9.650  2.7372  1.0988  0.8669
  906MOL0     H22248   1.587  10.560   9.515 -1.4167  0.2397  1.5333
  906MOL0     H22249   1.666  10.357   9.635 -0.8670 -0.2050 -1.1724
  906MOL0     H22250   1.719  10.455   9.777  2.5618  0.2884 -2.5470
  906MOL0     H22251   1.493  10.505   9.837  0.8135 -0.9726  2.0828
  906MOL0     H22252   1.429  10.431   9.686  0.6391  3.1695 -0.5343
  906MOL0     H22253   1.498  10.203   9.790 -2.7716  0.2652 -1.1179
  906MOL0     H22254   1.594  10.284   9.912 -0.4218  1.2238 -0.0632
  906MOL0     H22255   1.388  10.199  10.016 -0.2670  0.8031  0.0491
  906MOL0     H22256   1.369  10.370  10.019  1.1572  0.0210  0.5408
  906MOL0     H22257   1.233  10.364   9.816  3.3365  0.1373  0.3776
  906MOL0     H22258   1.252  10.189   9.805  1.0437  0.2893 -0.1010
  906MOL0     H22259   1.132  10.306  10.058  0.0411  1.0626 -0.5714
  906MOL0     H22260   1.127  10.142   9.993  2.0791  0.0446  0.3133
  906MOL0     H22261   0.940  10.439  10.078 -0.0233 -0.0788  0.0592
  906MOL0     H22262   0.688  10.545  10.022 -1.3061 -1.1826 -0.1102
  906MOL0     H22263   0.723  10.624   9.862 -1.0004  0.0264 -0.7637
  906MOL0     H22264   0.581  10.479   9.750  2.5031 -0.0608  0.0052
  906MOL0     H22265   0.498  10.557   9.886 -1.5475 -1.1951 -0.7548
  906MOL0     H22266   0.526  10.358  10.023  2.6375 -0.3603 -0.1084
  906MOL0     H22267   0.565  10.281   9.867  0.4604 -0.3793 -0.2780
  906MOL0     H22268   0.323  10.258   9.918 -0.7515 -0.6733 -0.9947
  906MOL0     H22269   0.351  10.337   9.766  1.0918  3.3675 -0.9886
  906MOL0     H22270   0.174  10.374   9.703  0.5344 -1.4476 -0.0344
  906MOL0     H22271  -0.131  10.254   9.632  1.5069 -1.6681 -1.5525
  906MOL0     H22272  -0.140  10.412   9.548  0.0325 -0.2277  1.4129
  906MOL0     H22273   0.017  10.316   9.565  1.6553 -3.7895  3.3155
  906MOL0     H22274  -0.565  10.456  10.048  1.3483 -0.7074 -0.7212
  906MOL0     H22275  -0.821  10.491   9.992 -2.6823  3.9051 -0.0166
  906MOL0     H22276  -0.928  10.573   9.620  0.7606  1.3490  0.1688
  906MOL0     H22277  -0.936  10.461   9.764 -3.4967 -0.1422  1.7489
  906MOL0     H22278  -1.154  10.669   9.693 -1.6147 -0.4354  0.5652
  906MOL0     H22279  -1.155  10.508   9.620 -0.3907 -0.5443  0.5257
  906MOL0     H22280  -1.141  10.582   9.918 -1.3497 -2.1019  3.7770
  906MOL0     H22281  -1.175  10.418   9.857  0.5134 -0.2274  0.0271
  906MOL0     H22282  -1.318  10.684   9.826 -1.4481  0.8758 -0.6938
  906MOL0     H22283  -1.376  10.541   9.732 -0.5631  2.6907 -0.0074
  906MOL0     H22284  -1.381  10.569  10.046  1.8387 -0.0419  0.3978
  906MOL0     H22285  -1.413  10.424   9.953  0.7557  0.9439 -1.1555
  906MOL0     H22286  -1.573  10.680   9.940  1.4136 -0.6679 -1.7366
  906MOL0     H22287  -1.597  10.544   9.832 -3.5949 -0.9514  0.4593
  906MOL0     H22288  -1.623  10.569  10.134 -2.5497  0.4314 -0.3513
  906MOL0     H22289  -1.604  10.401  10.064  0.7407  0.4474 -1.0672
  906MOL0     H22290  -1.833  10.427  10.088  1.2341 -1.1628 -2.2163
  906MOL0     H22291  -1.798  10.435   9.929  0.7050  0.0430  0.4420
  906MOL0     H22292  -0.716  10.729   9.656 -0.3931  0.8912  1.2828
  906MOL0     H22293  -0.476  10.705   9.686 -0.1395  0.2898 -0.8772
  906MOL0     H22294  -0.140  10.555  10.043  0.4380 -2.0871 -0.2638
  906MOL0     H22295   0.101  10.557  10.074 -0.7762  1.3650 -0.2133
  906MOL0     H22296   1.945  10.605   9.263  1.2265 -1.9986 -1.7638
  906MOL0     H22297   2.156  10.650   9.207 -1.3356 -1.7868 -0.7794
  906MOL0     H22298   2.467  11.046   9.331  1.3293  1.5997 -2.2843
  906MOL0     H22299   2.657  11.133   9.257  1.7402  0.3733 -0.1060
  906MOL0     H22300   3.007  11.141   9.147 -0.6202  0.2435 -1.6021
  906MOL0     H22301   2.837  11.178   9.162  0.6076 -2.2998 -1.8764
  906MOL0     H22302   3.037  11.105   9.370  1.6223  3.4478  2.5190
  906MOL0     H22303   2.869  11.161   9.418  0.1874 -3.3079  0.3915
  906MOL0     H22304   2.899  11.378   9.323  0.0124 -1.7641 -0.1586
  906MOL0     H22305   3.068  11.331   9.288  0.8361 -0.8207  0.1933
  906MOL0     H22306   2.931  11.406   9.548 -1.8129 -0.5795 -0.6778
  906MOL0     H22307   3.093  11.457   9.490  1.4575 -0.8192  1.4363
  906MOL0     H22308   3.195  11.108   9.705 -0.3628 -1.1348  0.0011
  906MOL0     H22309   2.846  10.745   9.277 -1.8380 -1.1017  0.9320
  906MOL0     H22310   2.643  10.643   9.351  0.7177  0.3869  0.4615
  907MOL0     O22311   0.481   9.504   4.073  0.0020  0.2008 -0.0372
  907MOL0     C22312   0.570   9.585   4.099  0.4977 -0.1292  0.7912
  907MOL0     O22313   0.554   9.715   4.134 -0.8423 -0.1310  0.1748
  907MOL0     C22314   0.430   9.758   4.167  1.0886  0.1482  0.8012
  907MOL0     C22315   0.348   9.825   4.071 -0.3164  1.2136  1.0363
  907MOL0     C22316   0.217   9.864   4.115  0.2249 -0.1419  0.6963
  907MOL0     C22317   0.175   9.850   4.246 -0.0280 -1.2449  0.5447
  907MOL0     O22318   0.053   9.892   4.299 -0.3017 -0.1988 -0.8199
  907MOL0     C22319  -0.046   9.802   4.254  0.3265  0.1875  0.1900
  907MOL0     C22320  -0.165   9.826   4.342  0.5182  0.3775 -0.1701
  907MOL0     C22321  -0.262   9.714   4.303  0.6300  0.0196  0.1813
  907MOL0     C22322  -0.381   9.719   4.398 -0.8648  0.0426 -0.0371
  907MOL0     C22323  -0.461   9.594   4.388  0.0171 -0.1849  0.1310
  907MOL0     C22324  -0.558   9.587   4.516  0.7996 -0.5501  0.1210
  907MOL0     C22325  -0.658   9.705   4.524 -0.4592  0.1981 -0.5157
  907MOL0     C22326  -0.779   9.657   4.607 -0.3675  0.5811  0.1886
  907MOL0     N22327  -0.866   9.767   4.662  0.2792  0.0650 -0.1600
  907MOL0     C22328  -0.870   9.822   4.790  0.8619 -0.2813 -0.7957
  907MOL0     C22329  -0.977   9.903   4.794 -0.0833  0.3721 -0.3173
  907MOL0     C22330  -1.023   9.968   4.926  0.1579  0.4576  0.4729
  907MOL0     C22331  -1.102   9.861   5.004 -0.6138 -0.0988 -0.1398
  907MOL0     C22332  -1.155   9.923   5.140 -0.6628 -0.4327  0.5986
  907MOL0     C22333  -1.270  10.024   5.121  0.8599  0.2591 -0.5942
  907MOL0     O22334  -1.371   9.967   5.033 -0.9512  0.2726 -0.0719
  907MOL0     C22335  -1.493   9.938   5.078 -0.2397  0.2656  0.3021
  907MOL0     C22336  -1.551   9.814   5.038 -0.1354  0.1455  1.2511
  907MOL0     C22337  -1.680   9.787   5.068  0.1973 -0.9922 -0.3647
  907MOL0     C22338  -1.719   9.642   5.031  0.1796 -0.3839  0.0814
  907MOL0     C22339  -1.762   9.884   5.146  0.3931 -0.0842  0.3281
  907MOL0     C22340  -1.903   9.855   5.197  0.0346 -0.0615 -0.0879
  907MOL0     O22341  -1.950   9.912   5.319 -0.2937  0.5681 -0.3838
  907MOL0     C22342  -2.081   9.891   5.340  0.2416 -0.0534  0.3644
  907MOL0     C22343  -2.122   9.827   5.453  0.1812 -0.7814 -0.7797
  907MOL0     C22344  -2.249   9.824   5.489  0.5930 -0.2922 -0.0448
  907MOL0     C22345  -2.352   9.886   5.412  1.2423  0.0648  0.0232
  907MOL0     O22346  -2.484   9.861   5.447 -0.3876 -1.2736 -0.4210
  907MOL0     C22347  -2.569   9.975   5.444  0.5725 -1.1288 -0.0890
  907MOL0     C22348  -2.702   9.923   5.489  0.1047 -0.2558 -0.1761
  907MOL0     C22349  -2.812  10.023   5.466  0.0500 -0.2488 -0.0916
  907MOL0     C22350  -2.946   9.987   5.542 -0.1141  0.2809 -0.1277
  907MOL0     C22351  -3.050  10.104   5.543  0.1442 -0.3585 -0.2501
  907MOL0     C22352  -3.173  10.058   5.618  0.1345  0.0434 -0.7936
  907MOL0     C22353  -3.291  10.149   5.612 -0.1641 -0.5992 -0.2431
  907MOL0     C22354  -3.417  10.102   5.676 -0.7344 -0.4739  1.0188
  907MOL0    Cl22355  -3.548  10.214   5.640  0.1975 -0.3106 -0.2067
  907MOL0     C22356  -2.307   9.945   5.292  0.7303 -0.8274 -0.4146
  907MOL0     C22357  -2.174   9.942   5.256 -0.7727 -0.3878 -0.2682
  907MOL0     O22358  -1.970   9.789   5.115  0.5107  0.0115 -0.2504
  907MOL0     C22359  -1.693  10.003   5.186  1.2399  0.4364  0.4459
  907MOL0     C22360  -1.564  10.036   5.153 -0.3836  0.3113  0.2159
  907MOL0     N22361  -1.038   9.901   4.667 -0.2216 -0.6503  0.1269
  907MOL0     N22362  -0.964   9.823   4.593  1.0053  0.5382  0.6228
  907MOL0     C22363   0.247   9.773   4.331 -0.8045  0.8076 -0.0053
  907MOL0     C22364   0.378   9.731   4.296 -0.5935  0.0582 -0.0827
  907MOL0     C22365   0.709   9.527   4.089 -0.2083  0.0551 -0.6560
  907MOL0     C22366   0.730   9.393   4.121 -0.1955 -0.0881  0.4195
  907MOL0     C22367   0.868   9.348   4.120  0.4222 -0.7306 -0.1407
  907MOL0     C22368   0.969   9.422   4.084 -0.3804 -0.2533  0.4812
  907MOL0     O22369   1.098   9.368   4.080  0.5084 -0.9448 -0.6847
  907MOL0     C22370   1.212   9.462   4.058 -0.4754  0.6917 -0.5982
  907MOL0     C22371   1.339   9.372   4.067 -0.0201  0.8882  0.0489
  907MOL0     C22372   1.460   9.450   4.067 -2.0827 -0.4790 -0.3553
  907MOL0     C22373   1.586   9.374   4.014  0.7014 -0.5252  0.3238
  907MOL0     C22374   1.707   9.406   4.092 -0.1820  1.1108  0.0623
  907MOL0     C22375   1.798   9.444   4.157  0.7276  0.5633 -0.4701
  907MOL0     C22376   0.948   9.560   4.058  0.0841  0.3428  0.5989
  907MOL0     C22377   0.816   9.616   4.068 -0.3313  0.1385  0.4419
  907MOL0     H22378   0.386   9.846   3.971 -2.4360  0.6118  0.0357
  907MOL0     H22379   0.150   9.922   4.052 -0.0888  2.5207  3.2533
  907MOL0     H22380  -0.078   9.831   4.153 -0.5157  0.5336  0.5541
  907MOL0     H22381  -0.007   9.701   4.269  2.4894  1.1691  1.7750
  907MOL0     H22382  -0.132   9.816   4.445  0.4205 -3.1321 -0.3525
  907MOL0     H22383  -0.200   9.926   4.315  0.4108  0.1589 -0.8680
  907MOL0     H22384  -0.302   9.717   4.201  1.1639 -2.4333 -0.1657
  907MOL0     H22385  -0.223   9.613   4.316  0.8245  0.4168  3.6257
  907MOL0     H22386  -0.347   9.729   4.501 -4.1720  0.0654  1.1696
  907MOL0     H22387  -0.417   9.821   4.384  1.2671  1.0170  1.1099
  907MOL0     H22388  -0.523   9.596   4.298 -1.2182  1.2159  0.9822
  907MOL0     H22389  -0.400   9.503   4.392 -0.8038 -0.8864 -2.0276
  907MOL0     H22390  -0.610   9.491   4.512 -0.6767  0.0483  2.4864
  907MOL0     H22391  -0.513   9.582   4.615  0.5583 -1.0425  0.2099
  907MOL0     H22392  -0.616   9.789   4.580 -0.5425  1.1335 -1.8159
  907MOL0     H22393  -0.702   9.741   4.431 -1.8388  1.0746  0.4344
  907MOL0     H22394  -0.749   9.587   4.685 -2.5510 -0.3456  0.2666
  907MOL0     H22395  -0.840   9.600   4.536 -1.4027 -0.1324  1.5999
  907MOL0     H22396  -0.804   9.804   4.874  1.9152 -2.1575 -1.9710
  907MOL0     H22397  -0.942  10.000   4.992 -1.3715  0.2726  2.5125
  907MOL0     H22398  -1.084  10.056   4.904 -0.5051 -0.3645 -1.1075
  907MOL0     H22399  -1.031   9.782   5.030 -0.7981 -0.4911 -0.8317
  907MOL0     H22400  -1.182   9.825   4.940 -0.5248  1.0402 -0.9210
  907MOL0     H22401  -1.073   9.981   5.183 -0.9944  1.3298 -1.0102
  907MOL0     H22402  -1.190   9.845   5.209 -1.3587 -1.4073 -0.7988
  907MOL0     H22403  -1.231  10.107   5.062  2.2260 -0.3110 -0.5330
  907MOL0     H22404  -1.308  10.060   5.216 -1.5286  1.6115 -1.9583
  907MOL0     H22405  -1.492   9.752   4.972 -0.6077  0.7403  0.2395
  907MOL0     H22406  -1.767   9.638   4.933 -0.0473  3.0396 -0.0648
  907MOL0     H22407  -1.632   9.576   5.019 -1.3206 -2.1367 -1.6915
  907MOL0     H22408  -1.785   9.615   5.114  1.2882  1.3009  1.6076
  907MOL0     H22409  -2.046   9.786   5.519  1.7350  0.5540 -1.6640
  907MOL0     H22410  -2.275   9.777   5.583 -2.3213  2.0446  0.4686
  907MOL0     H22411  -2.536  10.053   5.512  3.1510 -1.1780 -1.1952
  907MOL0     H22412  -2.581  10.013   5.342  2.1306  0.6197  0.3373
  907MOL0     H22413  -2.722   9.834   5.428  3.5159 -1.7537  0.6924
  907MOL0     H22414  -2.705   9.901   5.596 -2.6538  2.2172  0.4042
  907MOL0     H22415  -2.823  10.022   5.357  2.6147 -0.2961 -0.4013
  907MOL0     H22416  -2.778  10.121   5.499  1.1956 -0.7940  0.3975
  907MOL0     H22417  -2.989   9.899   5.493  2.6463  0.3605 -2.9828
  907MOL0     H22418  -2.931   9.971   5.649 -2.1171  2.4590  0.5598
  907MOL0     H22419  -3.079  10.132   5.441  1.7514  1.3765 -0.3024
  907MOL0     H22420  -3.006  10.191   5.592  0.3560 -1.2051  1.1160
  907MOL0     H22421  -3.207   9.959   5.587 -1.6012  0.5653 -0.6220
  907MOL0     H22422  -3.148  10.047   5.724 -0.1531 -0.9737 -0.8258
  907MOL0     H22423  -3.321  10.172   5.509 -1.8436 -1.4578  0.0218
  907MOL0     H22424  -3.262  10.240   5.666 -1.4056  0.4495 -1.2831
  907MOL0     H22425  -3.405  10.088   5.784 -2.4729  2.2192  1.6525
  907MOL0     H22426  -3.446  10.005   5.635 -0.7681  0.2339 -0.6847
  907MOL0     H22427  -2.378  10.001   5.232  2.2190  3.1643  1.1617
  907MOL0     H22428  -2.145  10.002   5.170  0.5795  2.6195  2.0741
  907MOL0     H22429  -1.763  10.075   5.228  1.0976  1.3428 -1.2490
  907MOL0     H22430  -1.516  10.131   5.175 -2.3263  2.3418 -3.4727
  907MOL0     H22431   0.215   9.742   4.430 -3.2697 -1.7102 -1.4416
  907MOL0     H22432   0.439   9.673   4.364  0.7812  0.2363 -1.1307
  907MOL0     H22433   0.652   9.322   4.148  0.9609 -1.3784  0.4451
  907MOL0     H22434   0.879   9.242   4.142  1.7357 -0.7152 -0.6164
  907MOL0     H22435   1.218   9.522   3.967 -2.2712 -1.0001 -1.9386
  907MOL0     H22436   1.222   9.538   4.135 -0.2980  0.7533 -0.6826
  907MOL0     H22437   1.319   9.313   3.977 -2.5780  0.4725  0.8027
  907MOL0     H22438   1.333   9.306   4.154 -0.5603 -0.0720 -0.6982
  907MOL0     H22439   1.484   9.489   4.167  1.6653  0.9719 -1.6277
  907MOL0     H22440   1.440   9.539   4.007 -1.6674 -1.0414 -1.3493
  907MOL0     H22441   1.594   9.400   3.908  2.4080 -1.9170  0.0844
  907MOL0     H22442   1.571   9.266   4.021 -1.0359 -0.3736 -0.3942
  907MOL0     H22443   1.867   9.505   4.212 -0.1490  2.3028 -1.2231
  907MOL0     H22444   1.027   9.626   4.026  0.2678  0.8742  2.0628
  907MOL0     H22445   0.786   9.718   4.047 -2.5245 -0.6958 -0.8388
  908MOL0     O22446   5.766   3.401  11.212 -0.1273  0.1524 -0.3744
  908MOL0     C22447   5.873   3.450  11.252  0.4101  0.6722  0.1451
  908MOL0     O22448   5.903   3.477  11.383  0.6671 -0.8142  0.1378
  908MOL0     C22449   5.806   3.471  11.480 -0.0457  0.3720  0.7956
  908MOL0     C22450   5.700   3.559  11.479  0.4709 -0.4957 -0.7283
  908MOL0     C22451   5.595   3.548  11.580 -0.1311  0.2720 -1.2385
  908MOL0     C22452   5.609   3.455  11.687 -0.6226 -0.2314  0.6327
  908MOL0     O22453   5.519   3.467  11.788  0.8868 -0.0613 -0.2146
  908MOL0     C22454   5.525   3.389  11.904  0.1232  0.2743 -0.9651
  908MOL0     C22455   5.402   3.431  11.984  0.5208  0.1370  0.0031
  908MOL0     C22456   5.278   3.385  11.901 -0.1984 -0.2653  1.0869
  908MOL0     C22457   5.140   3.400  11.977 -0.5195  0.4885  0.1491
  908MOL0     C22458   5.030   3.401  11.868  0.2144  0.6408 -0.0552
  908MOL0     C22459   4.914   3.317  11.912  0.6575 -0.7008 -0.4502
  908MOL0     C22460   4.854   3.367  12.051 -0.0258 -0.5718 -0.6979
  908MOL0     C22461   4.794   3.508  12.054  0.5662  0.0774 -0.1923
  908MOL0     N22462   4.665   3.516  11.986  0.4029 -0.1448  0.0323
  908MOL0     C22463   4.599   3.406  11.937  0.9853 -0.5067  0.0282
  908MOL0     C22464   4.532   3.449  11.823 -0.1049 -0.4700  0.5288
  908MOL0     C22465   4.465   3.368  11.715  0.7381 -0.1248  0.7808
  908MOL0     C22466   4.318   3.416  11.701 -0.3722 -1.1406 -0.1628
  908MOL0     C22467   4.229   3.374  11.817  0.4323 -0.4120 -0.0911
  908MOL0     C22468   4.088   3.420  11.810  0.0557 -0.4264  0.6113
  908MOL0     O22469   4.027   3.362  11.927 -0.1327 -0.0923  0.3529
  908MOL0     C22470   3.891   3.380  11.932  0.2392  0.2280 -0.1919
  908MOL0     C22471   3.826   3.495  11.897  0.1372  0.0866  0.2024
  908MOL0     C22472   3.687   3.506  11.912 -0.3012 -0.1092 -0.4223
  908MOL0     C22473   3.629   3.637  11.887 -0.2605  0.0450  0.1114
  908MOL0     C22474   3.605   3.401  11.962  0.7763  0.2705  0.1804
  908MOL0     C22475   3.455   3.403  11.983 -0.2453 -0.0477  0.4253
  908MOL0     O22476   3.412   3.299  12.065  0.0797 -0.0948 -0.3630
  908MOL0     C22477   3.277   3.274  12.071 -0.2580  0.7072 -0.3828
  908MOL0     C22478   3.216   3.168  11.996 -0.9931 -0.2657  0.4882
  908MOL0     C22479   3.081   3.141  11.996 -0.2304  0.9136 -0.2626
  908MOL0     C22480   2.996   3.234  12.055  0.3501  0.1722 -0.4026
  908MOL0     O22481   2.862   3.214  12.077  0.0014 -0.0874 -0.5982
  908MOL0     C22482   2.825   3.074  12.097  0.6245 -0.1322  0.7399
  908MOL0     C22483   2.687   3.058  12.161  0.7785 -0.4714  0.2279
  908MOL0     C22484   2.577   3.104  12.072 -0.1916  0.8174 -0.5623
  908MOL0     C22485   2.441   3.109  12.146 -0.5959 -0.1211 -0.1299
  908MOL0     C22486   2.412   3.237  12.228  0.1691  0.0253  1.2859
  908MOL0     C22487   2.289   3.211  12.319 -0.2202 -0.9652 -0.4181
  908MOL0     C22488   2.157   3.175  12.253  0.5769  0.0985  0.6883
  908MOL0     C22489   2.088   3.300  12.196  0.1678 -0.0381 -0.8171
  908MOL0    Cl22490   1.923   3.266  12.153 -0.0164 -0.1668  0.2155
  908MOL0     C22491   3.045   3.349  12.117 -0.2672  0.2538 -0.4608
  908MOL0     C22492   3.190   3.367  12.130 -0.2726  0.5218 -0.0005
  908MOL0     O22493   3.382   3.487  11.933  0.3804  0.2493 -0.9265
  908MOL0     C22494   3.673   3.283  11.986 -0.4289  1.2190  0.0173
  908MOL0     C22495   3.813   3.275  11.977 -0.1524 -0.4611  0.2346
  908MOL0     N22496   4.553   3.590  11.815  0.5091  0.5792  0.2681
  908MOL0     N22497   4.637   3.624  11.911  0.5772  0.3933 -0.1158
  908MOL0     C22498   5.725   3.379  11.688 -0.4760 -0.9039 -0.0227
  908MOL0     C22499   5.818   3.379  11.581  1.0417  0.2636 -0.1267
  908MOL0     C22500   5.986   3.436  11.157 -0.2238 -0.2199  0.2824
  908MOL0     C22501   6.113   3.483  11.203  0.2185  0.7234 -0.4442
  908MOL0     C22502   6.226   3.484  11.121 -1.6665  0.5853 -0.4019
  908MOL0     C22503   6.226   3.427  10.993 -0.1754 -1.3062  0.2736
  908MOL0     O22504   6.339   3.426  10.917 -0.4106 -0.4232  0.3079
  908MOL0     C22505   6.391   3.297  10.877 -0.2605 -0.1090 -0.5069
  908MOL0     C22506   6.537   3.301  10.831 -0.5791 -1.0279  0.2643
  908MOL0     C22507   6.553   3.391  10.716  1.3397  0.9522 -0.2660
  908MOL0     C22508   6.684   3.469  10.702  0.2695  0.7556  0.2462
  908MOL0     C22509   6.805   3.388  10.739 -0.6387 -0.6827  0.3914
  908MOL0     C22510   6.891   3.313  10.785  0.0731  0.7053  0.5405
  908MOL0     C22511   6.099   3.367  10.946 -0.1269 -0.1346 -0.3041
  908MOL0     C22512   5.983   3.372  11.031  0.6656 -0.0407  0.0472
  908MOL0     H22513   5.683   3.638  11.407 -2.2397  0.6390  1.0229
  908MOL0     H22514   5.514   3.620  11.581 -1.7301 -1.3237  2.2169
  908MOL0     H22515   5.513   3.285  11.874 -0.1345  0.6514 -2.2243
  908MOL0     H22516   5.621   3.403  11.955  1.0042 -0.7998 -2.2636
  908MOL0     H22517   5.400   3.382  12.081 -1.6981 -1.5626 -0.8080
  908MOL0     H22518   5.401   3.540  11.993  1.2230  0.1661 -0.2244
  908MOL0     H22519   5.266   3.447  11.811 -1.6213 -1.3906  0.4670
  908MOL0     H22520   5.279   3.281  11.869 -0.0184 -0.0590  0.4001
  908MOL0     H22521   5.130   3.326  12.057  0.3479 -0.6572 -0.7683
  908MOL0     H22522   5.143   3.497  12.026 -0.0360  0.4961  0.1132
  908MOL0     H22523   4.996   3.502  11.843 -1.5218  0.5725  1.7790
  908MOL0     H22524   5.057   3.366  11.768  1.8004  0.5387  0.3768
  908MOL0     H22525   4.847   3.316  11.826  0.5376 -0.9305 -0.3543
  908MOL0     H22526   4.949   3.216  11.935 -0.0698 -0.5336  1.6489
  908MOL0     H22527   4.783   3.294  12.091  1.3320 -1.3301  0.4212
  908MOL0     H22528   4.936   3.363  12.122 -1.9245  1.9997  1.8311
  908MOL0     H22529   4.864   3.577  12.006 -0.1594  0.2220 -1.0679
  908MOL0     H22530   4.775   3.535  12.158  0.5095 -1.9661  0.3647
  908MOL0     H22531   4.612   3.304  11.970 -0.5954 -0.5097  0.7179
  908MOL0     H22532   4.522   3.372  11.622  0.1395 -1.6706  0.3103
  908MOL0     H22533   4.465   3.262  11.741  3.2042 -1.0371 -2.3108
  908MOL0     H22534   4.277   3.388  11.604 -2.1428 -2.3968  0.9011
  908MOL0     H22535   4.306   3.525  11.701 -1.4642 -1.2253  1.6688
  908MOL0     H22536   4.264   3.410  11.914  0.9851 -1.6445  0.1841
  908MOL0     H22537   4.242   3.266  11.829  2.5938  0.0573  3.0356
  908MOL0     H22538   4.057   3.383  11.712  1.5092 -1.2438  0.4370
  908MOL0     H22539   4.093   3.529  11.809  0.0161 -0.4192 -0.9126
  908MOL0     H22540   3.886   3.580  11.869  0.3481  0.9765  3.0200
  908MOL0     H22541   3.706   3.713  11.870  0.0393 -0.5291 -1.2081
  908MOL0     H22542   3.568   3.638  11.796  0.2322  0.5649 -0.2280
  908MOL0     H22543   3.576   3.669  11.977  1.0081 -1.0871  1.3066
  908MOL0     H22544   3.276   3.099  11.938  0.0101  1.5058 -0.6446
  908MOL0     H22545   3.039   3.048  11.959 -0.2999  1.0082 -0.4229
  908MOL0     H22546   2.829   3.017  12.003  0.0810 -0.1840  0.7463
  908MOL0     H22547   2.899   3.022  12.159  2.4433 -2.3834 -2.9628
  908MOL0     H22548   2.667   2.953  12.186 -1.4475 -0.7325 -2.2696
  908MOL0     H22549   2.692   3.123  12.249  2.0720 -1.5712  0.9995
  908MOL0     H22550   2.556   3.027  11.998 -1.4393  0.5502  0.0329
  908MOL0     H22551   2.601   3.202  12.030 -0.0426  1.9132  1.8964
  908MOL0     H22552   2.363   3.112  12.069 -1.1503  0.0540  0.4287
  908MOL0     H22553   2.422   3.023  12.211 -2.7599  0.2889 -0.1553
  908MOL0     H22554   2.391   3.317  12.156  1.4997  0.2251  1.1006
  908MOL0     H22555   2.490   3.259  12.301  0.5394 -0.7320  1.1290
  908MOL0     H22556   2.315   3.142  12.399  0.3500  0.6494  0.8576
  908MOL0     H22557   2.274   3.306  12.372  0.8035 -0.8734 -0.2790
  908MOL0     H22558   2.093   3.127  12.328 -0.6688 -0.8918 -0.9570
  908MOL0     H22559   2.171   3.101  12.174 -1.3124 -1.0837  1.3781
  908MOL0     H22560   2.140   3.339  12.108  0.6817 -1.4004 -1.1374
  908MOL0     H22561   2.085   3.383  12.268  0.2190 -1.2924  0.6770
  908MOL0     H22562   2.975   3.413  12.169 -0.8967 -0.3221 -0.5914
  908MOL0     H22563   3.241   3.444  12.186 -1.3935  0.6349  0.9029
  908MOL0     H22564   3.623   3.189  12.006  0.9428 -0.4998 -3.7684
  908MOL0     H22565   3.864   3.183  12.005  2.0258  0.7121  0.3439
  908MOL0     H22566   5.743   3.319  11.777 -0.0900 -2.5200 -1.1382
  908MOL0     H22567   5.892   3.299  11.579 -2.2090 -2.9653 -0.4904
  908MOL0     H22568   6.130   3.520  11.304 -0.8376 -0.2921  0.1306
  908MOL0     H22569   6.319   3.528  11.155 -0.8808 -1.7345  0.6340
  908MOL0     H22570   6.387   3.224  10.959 -1.1039  0.9833  0.4484
  908MOL0     H22571   6.326   3.262  10.797 -1.3855 -1.1624  0.8246
  908MOL0     H22572   6.577   3.203  10.803  4.3368  1.3942 -2.7616
  908MOL0     H22573   6.587   3.344  10.918  0.7173 -0.6564 -0.6298
  908MOL0     H22574   6.468   3.458  10.706 -2.1982 -2.8342  1.2751
  908MOL0     H22575   6.547   3.321  10.632  0.6738  0.1283  0.4434
  908MOL0     H22576   6.690   3.563  10.756 -2.3683  1.5975 -0.7741
  908MOL0     H22577   6.696   3.490  10.596 -0.0844 -1.8491 -0.3825
  908MOL0     H22578   6.955   3.236  10.821 -0.4166  0.2109  0.3696
  908MOL0     H22579   6.097   3.332  10.843 -1.8946 -1.8443  0.2489
  908MOL0     H22580   5.895   3.328  10.986  2.4540 -2.8361 -0.9462
  909MOL0     O22581   5.746   6.216   7.770 -0.4573  0.3653 -0.1893
  909MOL0     C22582   5.780   6.222   7.656  0.7098  0.8446  0.6118
  909MOL0     O22583   5.697   6.250   7.553 -0.6767 -0.3327 -0.2269
  909MOL0     C22584   5.558   6.281   7.570 -0.4281  0.4739 -0.7543
  909MOL0     C22585   5.482   6.218   7.668  0.4711  0.2369 -0.2797
  909MOL0     C22586   5.349   6.249   7.680  0.3296 -0.9596  0.4646
  909MOL0     C22587   5.286   6.340   7.589 -0.1233 -0.0169 -0.3331
  909MOL0     O22588   5.154   6.376   7.582 -0.0995 -0.5495 -0.5293
  909MOL0     C22589   5.108   6.403   7.713  0.5685 -0.4006 -0.4316
  909MOL0     C22590   4.966   6.463   7.710  0.3108 -0.5072  1.1310
  909MOL0     C22591   4.973   6.620   7.700 -0.1172 -0.9780  0.5464
  909MOL0     C22592   4.838   6.690   7.678  0.1425  0.0228 -1.4439
  909MOL0     C22593   4.826   6.774   7.549 -0.2978  0.3021  0.0335
  909MOL0     C22594   4.785   6.687   7.430 -0.0095  0.3190 -0.0427
  909MOL0     C22595   4.779   6.763   7.304  0.1771 -1.2851 -0.7564
  909MOL0     C22596   4.744   6.676   7.186  1.3341 -0.0795  0.4465
  909MOL0     N22597   4.660   6.751   7.096 -0.2377 -0.3215  0.3065
  909MOL0     C22598   4.527   6.761   7.111  0.2897  0.5966  0.3084
  909MOL0     C22599   4.481   6.820   7.002 -0.0093  0.7537 -0.2554
  909MOL0     C22600   4.331   6.838   6.982 -0.2429 -0.9789  0.3977
  909MOL0     C22601   4.289   6.916   6.859 -0.0514  0.0059 -0.4011
  909MOL0     C22602   4.148   6.972   6.866  0.6102  0.8959 -0.1814
  909MOL0     C22603   4.050   6.860   6.879  0.5614  0.3836  0.4078
  909MOL0     O22604   4.061   6.765   6.771 -0.3968 -0.0836  0.4269
  909MOL0     C22605   3.969   6.767   6.673  0.6164 -0.0939  0.2926
  909MOL0     C22606   3.901   6.883   6.641  0.3375 -0.2530 -0.1556
  909MOL0     C22607   3.819   6.897   6.528  0.2128  0.3367  0.1918
  909MOL0     C22608   3.756   7.031   6.505 -0.2741 -1.0973  0.0059
  909MOL0     C22609   3.803   6.778   6.450 -0.3090 -0.5703 -0.5768
  909MOL0     C22610   3.719   6.761   6.329  0.2037 -0.8188  0.2466
  909MOL0     O22611   3.688   6.636   6.291  0.1751  0.3758  0.2684
  909MOL0     C22612   3.616   6.619   6.167  0.0844 -0.4618 -0.2351
  909MOL0     C22613   3.476   6.636   6.160 -0.2576  0.5196  0.0844
  909MOL0     C22614   3.400   6.619   6.043 -1.3674  0.2493  0.5074
  909MOL0     C22615   3.470   6.599   5.925  0.2354  0.4708  0.9216
  909MOL0     O22616   3.385   6.577   5.816 -0.0313  0.3623 -0.5499
  909MOL0     C22617   3.444   6.584   5.682 -0.2963 -0.0582 -0.6095
  909MOL0     C22618   3.482   6.736   5.653  0.3107  0.4093 -1.0685
  909MOL0     C22619   3.368   6.818   5.579 -0.3072 -0.0970 -0.1509
  909MOL0     C22620   3.352   6.770   5.432 -0.2376 -0.0043  0.2101
  909MOL0     C22621   3.231   6.837   5.364 -0.4669  0.2354 -0.4966
  909MOL0     C22622   3.265   6.974   5.299 -0.0459  0.3075 -0.1425
  909MOL0     C22623   3.259   7.093   5.390  0.5423  0.3744  0.5708
  909MOL0     C22624   3.254   7.212   5.306  1.1085  0.6984  0.2057
  909MOL0    Cl22625   3.415   7.219   5.230 -0.1890 -0.0712 -0.0392
  909MOL0     C22626   3.613   6.594   5.920 -0.1333  0.8160  0.5672
  909MOL0     C22627   3.686   6.604   6.046  0.0282 -0.2687  0.0318
  909MOL0     O22628   3.687   6.865   6.266  0.7396  0.3098 -0.8617
  909MOL0     C22629   3.866   6.662   6.493  0.5858 -0.0560  0.9337
  909MOL0     C22630   3.946   6.659   6.605  0.3941  1.3543 -0.1047
  909MOL0     N22631   4.587   6.836   6.916  0.4539  0.3493  0.7755
  909MOL0     N22632   4.690   6.804   6.974 -0.3642  0.4297 -0.6232
  909MOL0     C22633   5.363   6.387   7.478 -0.3559 -0.5313 -0.1438
  909MOL0     C22634   5.500   6.353   7.469  0.8400  0.4488  0.0847
  909MOL0     C22635   5.925   6.216   7.621 -0.0489  0.2324 -0.2560
  909MOL0     C22636   6.025   6.201   7.722  0.3635  0.7321  0.4344
  909MOL0     C22637   6.156   6.196   7.690 -0.5341 -0.5221  0.0920
  909MOL0     C22638   6.198   6.194   7.553 -0.0982 -0.5264 -0.7274
  909MOL0     O22639   6.336   6.196   7.540  0.1899 -0.4626 -0.5062
  909MOL0     C22640   6.399   6.189   7.407 -1.4691  0.2170 -0.3344
  909MOL0     C22641   6.555   6.227   7.435  1.0491  0.5808 -0.2212
  909MOL0     C22642   6.606   6.213   7.578 -0.7410  0.0378  0.1307
  909MOL0     C22643   6.760   6.243   7.582  0.1314 -0.0582  0.2875
  909MOL0     C22644   6.836   6.146   7.500  0.6972 -0.3332 -0.1888
  909MOL0     C22645   6.909   6.066   7.450 -0.3047  0.7068 -0.4131
  909MOL0     C22646   6.105   6.200   7.455  0.6923 -0.1324 -0.5482
  909MOL0     C22647   5.972   6.211   7.488  0.2786  0.1571  0.5528
  909MOL0     H22648   5.529   6.145   7.733  1.0250  2.3783  1.8754
  909MOL0     H22649   5.283   6.197   7.749 -1.1778 -1.0169 -0.9576
  909MOL0     H22650   5.094   6.305   7.759  0.6356  0.8190  2.3926
  909MOL0     H22651   5.169   6.463   7.781  0.3364 -0.7880  0.1256
  909MOL0     H22652   4.910   6.423   7.625  0.8259 -0.0393  0.5613
  909MOL0     H22653   4.909   6.439   7.800 -2.3657  0.8944 -0.0917
  909MOL0     H22654   5.024   6.667   7.785  0.1455  0.8499 -0.5641
  909MOL0     H22655   5.044   6.630   7.617 -2.3297 -0.8618 -1.4427
  909MOL0     H22656   4.765   6.608   7.684  0.4462 -0.2156 -0.9517
  909MOL0     H22657   4.827   6.752   7.768  0.6649 -0.2060 -1.2200
  909MOL0     H22658   4.753   6.854   7.562 -1.8029 -1.0045 -0.0748
  909MOL0     H22659   4.927   6.809   7.528 -0.3758  2.3704  2.6445
  909MOL0     H22660   4.848   6.598   7.423 -1.2456 -0.5233 -0.7570
  909MOL0     H22661   4.682   6.665   7.462 -0.3188  2.3674  0.5335
  909MOL0     H22662   4.710   6.845   7.328  2.0506 -0.1660  1.1559
  909MOL0     H22663   4.877   6.805   7.280 -0.0624  0.4021  0.9863
  909MOL0     H22664   4.689   6.586   7.214  0.4663  0.1621 -0.4386
  909MOL0     H22665   4.826   6.647   7.120 -1.1750  0.9484 -3.4925
  909MOL0     H22666   4.474   6.738   7.203 -0.8365  0.9146 -0.2425
  909MOL0     H22667   4.287   6.738   6.978 -1.6263 -0.4260  0.9366
  909MOL0     H22668   4.311   6.881   7.081  2.1784 -1.6271  1.2223
  909MOL0     H22669   4.305   6.839   6.784  2.1278 -0.4599  0.4757
  909MOL0     H22670   4.357   7.002   6.852  1.6612 -1.3474 -0.9806
  909MOL0     H22671   4.122   7.041   6.785  3.0176  0.0293 -1.7978
  909MOL0     H22672   4.138   7.030   6.959 -2.1671  2.2654 -1.1932
  909MOL0     H22673   3.949   6.897   6.894  1.5283  3.1459  0.7668
  909MOL0     H22674   4.061   6.803   6.971  2.0216  0.3706  0.2494
  909MOL0     H22675   3.934   6.973   6.692  0.4829  0.0314 -0.7521
  909MOL0     H22676   3.763   7.104   6.586 -2.5687 -1.7139  0.8210
  909MOL0     H22677   3.789   7.071   6.408  2.5240  1.4986  1.8434
  909MOL0     H22678   3.648   7.019   6.510 -0.1181 -4.4278 -1.7095
  909MOL0     H22679   3.426   6.652   6.255 -0.9611  0.8286 -0.3305
  909MOL0     H22680   3.293   6.638   6.036 -1.2704  0.4305 -0.7258
  909MOL0     H22681   3.535   6.523   5.680  0.7402  0.9526  4.0543
  909MOL0     H22682   3.369   6.556   5.608 -3.2282  1.0853  1.7679
  909MOL0     H22683   3.491   6.789   5.748 -0.7219  1.2272 -1.3929
  909MOL0     H22684   3.575   6.739   5.596 -1.1832  0.4885 -3.7016
  909MOL0     H22685   3.407   6.920   5.589  2.2338 -0.9912 -0.3802
  909MOL0     H22686   3.269   6.804   5.623  1.1690 -4.4018  2.3592
  909MOL0     H22687   3.445   6.800   5.384 -1.2751 -0.1045 -2.0012
  909MOL0     H22688   3.340   6.661   5.430  1.7194 -0.2393 -0.0577
  909MOL0     H22689   3.147   6.853   5.431  1.3305  1.8477  1.5162
  909MOL0     H22690   3.203   6.774   5.279  2.1931  0.1612 -1.4355
  909MOL0     H22691   3.369   6.969   5.264 -0.1087  1.0541 -0.4504
  909MOL0     H22692   3.205   6.994   5.210  0.8874 -1.2438 -1.1757
  909MOL0     H22693   3.349   7.104   5.451  0.3698 -1.0752  1.1104
  909MOL0     H22694   3.171   7.088   5.454  0.8896 -0.9685  0.9815
  909MOL0     H22695   3.229   7.296   5.371 -4.4585  0.5261 -1.1587
  909MOL0     H22696   3.173   7.212   5.232 -2.0172 -3.8615  3.0898
  909MOL0     H22697   3.663   6.570   5.828 -3.7596 -1.1344 -1.1115
  909MOL0     H22698   3.794   6.598   6.050  0.3867  3.6549  2.2378
  909MOL0     H22699   3.864   6.568   6.439  0.2186  0.1992  0.4885
  909MOL0     H22700   3.991   6.562   6.625  0.0323  1.6042  2.2161
  909MOL0     H22701   5.319   6.450   7.401  3.1173  2.2164 -0.1178
  909MOL0     H22702   5.577   6.392   7.403  1.2065 -1.4075 -0.6300
  909MOL0     H22703   5.993   6.200   7.826 -0.1746  1.9194  0.3000
  909MOL0     H22704   6.226   6.213   7.770  1.6036 -1.1106 -1.5707
  909MOL0     H22705   6.379   6.092   7.360  0.3440 -0.1144 -0.5002
  909MOL0     H22706   6.349   6.265   7.347  1.4925  2.0375 -0.7423
  909MOL0     H22707   6.569   6.330   7.402 -1.5698  0.2947 -2.5711
  909MOL0     H22708   6.608   6.155   7.372 -0.4012 -0.2251 -0.5506
  909MOL0     H22709   6.596   6.115   7.626 -1.5215  1.8075  3.9555
  909MOL0     H22710   6.561   6.290   7.641  0.1158  0.9711 -0.3833
  909MOL0     H22711   6.809   6.220   7.677  1.6915 -1.3987 -0.7814
  909MOL0     H22712   6.791   6.344   7.552  0.4100  0.0406  0.8931
  909MOL0     H22713   6.984   5.998   7.415  0.7123  0.4570  2.0273
  909MOL0     H22714   6.112   6.189   7.347  2.2323 -5.5459 -0.2065
  909MOL0     H22715   5.897   6.214   7.409  0.7055  3.9217  0.1207
  910MOL0     O22716   9.668   1.977   4.586 -0.0164  0.2944 -0.5084
  910MOL0     C22717   9.713   1.863   4.562  0.0262  0.5863  0.0361
  910MOL0     O22718   9.640   1.742   4.553 -0.3008 -0.0891  0.1290
  910MOL0     C22719   9.509   1.773   4.573  0.3327  0.8138 -0.4857
  910MOL0     C22720   9.408   1.767   4.475  0.5082  0.0137  0.5427
  910MOL0     C22721   9.275   1.767   4.502  0.7347 -0.6766  0.1363
  910MOL0     C22722   9.229   1.785   4.634 -0.2654  0.0172  0.0383
  910MOL0     O22723   9.101   1.794   4.673  0.5747 -0.1850  0.4033
  910MOL0     C22724   9.020   1.678   4.630  0.3582 -0.4760 -0.0642
  910MOL0     C22725   8.904   1.651   4.718  0.4433  0.0918 -0.1105
  910MOL0     C22726   8.812   1.777   4.738 -0.3394  0.2285 -0.1258
  910MOL0     C22727   8.689   1.778   4.652  0.7206 -0.3686  0.0842
  910MOL0     C22728   8.584   1.876   4.715 -0.2157  0.1106  0.9239
  910MOL0     C22729   8.457   1.859   4.634 -0.8650 -0.0986 -0.4334
  910MOL0     C22730   8.331   1.931   4.693 -0.0989 -0.3751 -0.0182
  910MOL0     C22731   8.200   1.886   4.626  0.1003 -0.6524 -0.2425
  910MOL0     N22732   8.087   1.972   4.653  0.6980 -0.1312  0.2968
  910MOL0     C22733   8.050   2.021   4.774  0.8753 -0.3125  0.5102
  910MOL0     C22734   7.928   2.081   4.753  0.2046 -0.6350 -0.0446
  910MOL0     C22735   7.843   2.145   4.861  0.2709  0.7201  0.4013
  910MOL0     C22736   7.714   2.062   4.878 -0.0574  0.2124  0.0013
  910MOL0     C22737   7.636   2.144   4.980 -0.1286 -0.3814 -0.5561
  910MOL0     C22738   7.486   2.103   4.959  0.5711 -0.6906  0.4722
  910MOL0     O22739   7.399   2.176   5.049 -0.4957  0.3200  0.0450
  910MOL0     C22740   7.266   2.142   5.045  0.2968  0.0495 -0.3123
  910MOL0     C22741   7.184   2.234   5.109 -0.0880 -0.0288 -0.4697
  910MOL0     C22742   7.050   2.235   5.103 -0.1054  0.3398  0.2905
  910MOL0     C22743   6.968   2.345   5.156  0.2679 -0.3366 -0.4806
  910MOL0     C22744   6.993   2.119   5.049  0.1904  0.5806 -0.6207
  910MOL0     C22745   6.850   2.113   5.029 -0.3837 -0.1637 -0.4470
  910MOL0     O22746   6.767   2.111   5.141  0.3409  0.5798  0.1399
  910MOL0     C22747   6.629   2.105   5.121 -1.0679  0.0631  0.4444
  910MOL0     C22748   6.569   1.994   5.067  1.3575 -0.4676 -0.2440
  910MOL0     C22749   6.428   1.993   5.045  0.2378 -0.6273 -0.2591
  910MOL0     C22750   6.351   2.096   5.093 -0.7237 -0.4370  0.9138
  910MOL0     O22751   6.217   2.104   5.086  0.2218  0.0992  0.3862
  910MOL0     C22752   6.146   2.000   5.021  0.5313  0.7855  0.3204
  910MOL0     C22753   6.002   2.014   5.051  0.7205  0.1452 -0.4488
  910MOL0     C22754   5.948   2.149   5.013 -0.0327  0.1815 -0.3767
  910MOL0     C22755   5.808   2.140   4.937 -0.8471  0.0089 -1.3682
  910MOL0     C22756   5.701   2.102   5.038  0.7226  0.6081 -0.5081
  910MOL0     C22757   5.569   2.131   4.977 -0.1953 -0.0925 -0.8885
  910MOL0     C22758   5.459   2.106   5.077 -0.2582 -0.3536  0.8999
  910MOL0     C22759   5.421   2.230   5.147 -0.4118 -0.6986 -0.3378
  910MOL0    Cl22760   5.270   2.187   5.226 -0.2843 -0.3302  0.3267
  910MOL0     C22761   6.411   2.214   5.146  0.4496 -0.1653  0.2019
  910MOL0     C22762   6.554   2.219   5.163  0.6718  0.3535  0.4243
  910MOL0     O22763   6.800   2.111   4.915 -0.3670  0.2765  0.3829
  910MOL0     C22764   7.072   2.024   4.986  0.0285  0.8855  0.0066
  910MOL0     C22765   7.212   2.032   4.985  0.3693  0.7078  0.0165
  910MOL0     N22766   7.891   2.064   4.617  0.1143 -0.2428  0.5538
  910MOL0     N22767   7.992   2.003   4.557  0.2864  0.2818 -0.9484
  910MOL0     C22768   9.321   1.795   4.735  0.8685  0.2145  0.2479
  910MOL0     C22769   9.460   1.785   4.708  0.3885  0.6383 -0.0821
  910MOL0     C22770   9.848   1.852   4.532 -0.1897  1.0809 -0.2265
  910MOL0     C22771   9.879   1.809   4.406 -0.4398  0.4281  0.1638
  910MOL0     C22772  10.017   1.803   4.373 -0.0288 -0.1100  1.2152
  910MOL0     C22773  10.114   1.847   4.457  0.4733 -0.7033  0.1681
  910MOL0     O22774  10.251   1.853   4.441  0.6818  0.2150  0.1134
  910MOL0     C22775  10.297   1.855   4.311  0.5578 -0.0923  0.7853
  910MOL0     C22776  10.423   1.932   4.281  0.5755  0.2014 -0.7830
  910MOL0     C22777  10.402   2.085   4.280 -0.4775  0.3146 -0.8971
  910MOL0     C22778  10.348   2.135   4.412  0.6589 -0.1078  0.0788
  910MOL0     C22779  10.381   2.269   4.427 -0.2456  0.6853 -0.6137
  910MOL0     C22780  10.394   2.383   4.449 -0.2430  0.1141 -0.3603
  910MOL0     C22781  10.078   1.891   4.584  0.2482 -0.3647 -0.2503
  910MOL0     C22782   9.946   1.893   4.613 -0.1221  0.0080  0.1851
  910MOL0     H22783   9.424   1.751   4.369 -1.5524 -0.1372  0.2014
  910MOL0     H22784   9.208   1.759   4.417  0.2344 -0.7070  0.5300
  910MOL0     H22785   8.977   1.700   4.532 -1.8770 -1.6459  0.5706
  910MOL0     H22786   9.083   1.588   4.623  1.2385 -0.1687  2.7175
  910MOL0     H22787   8.845   1.567   4.681 -0.9613  1.4447 -1.0673
  910MOL0     H22788   8.958   1.638   4.812  0.0834  0.5674  0.1651
  910MOL0     H22789   8.772   1.772   4.839  2.2224  0.3408  0.9734
  910MOL0     H22790   8.885   1.857   4.726  3.8233 -3.2609 -0.6338
  910MOL0     H22791   8.721   1.812   4.553  0.6063 -3.6149 -1.2127
  910MOL0     H22792   8.635   1.683   4.639 -1.8505  1.0347 -0.1580
  910MOL0     H22793   8.569   1.842   4.818  1.4043  0.6421  1.3701
  910MOL0     H22794   8.625   1.977   4.716 -2.8800  1.2662  0.7563
  910MOL0     H22795   8.474   1.900   4.533 -2.8608  1.4887 -0.1987
  910MOL0     H22796   8.445   1.751   4.642 -0.8545  0.0389  1.9998
  910MOL0     H22797   8.329   1.917   4.801 -0.2381 -0.3320 -0.0147
  910MOL0     H22798   8.344   2.039   4.691  1.6312 -0.5404  0.7780
  910MOL0     H22799   8.173   1.787   4.663  0.3136 -0.5557  0.1811
  910MOL0     H22800   8.214   1.883   4.517  2.7162  0.3335 -0.0175
  910MOL0     H22801   8.091   2.021   4.875  1.0818 -0.7137  0.4292
  910MOL0     H22802   7.900   2.158   4.953  2.5923 -0.6429 -0.7459
  910MOL0     H22803   7.817   2.247   4.831  0.7436  0.7930  0.2301
  910MOL0     H22804   7.727   1.959   4.914 -0.4504  1.0319  2.6624
  910MOL0     H22805   7.667   2.073   4.780 -2.3008 -0.3124  0.9632
  910MOL0     H22806   7.641   2.249   4.950 -0.0451 -0.1487  0.2561
  910MOL0     H22807   7.671   2.140   5.083 -0.8804 -1.0931 -0.3193
  910MOL0     H22808   7.471   1.996   4.976  1.9901 -1.2116 -1.2090
  910MOL0     H22809   7.445   2.123   4.860  2.0382 -5.5439 -1.4501
  910MOL0     H22810   7.232   2.311   5.169 -0.7917  0.6699 -0.7757
  910MOL0     H22811   6.887   2.304   5.218  1.2000 -1.1239  0.2434
  910MOL0     H22812   7.020   2.415   5.222  0.0933 -1.1812  0.5825
  910MOL0     H22813   6.918   2.396   5.073  1.8473  1.2424 -0.5042
  910MOL0     H22814   6.629   1.906   5.043 -0.3850 -1.7809  0.0262
  910MOL0     H22815   6.383   1.901   5.008  1.2263 -0.3453 -2.2793
  910MOL0     H22816   6.155   2.017   4.913  1.1788  1.5415  0.4760
  910MOL0     H22817   6.186   1.902   5.048 -0.4193 -0.4958 -2.6265
  910MOL0     H22818   5.950   1.928   5.009 -2.4698  1.9233 -0.4212
  910MOL0     H22819   5.970   2.014   5.156  1.2183  2.0500 -0.2473
  910MOL0     H22820   6.017   2.208   4.952 -0.9239  0.3947 -1.2204
  910MOL0     H22821   5.928   2.213   5.100  1.1427  0.9231 -0.6346
  910MOL0     H22822   5.786   2.238   4.893 -0.0509  0.5792 -0.5403
  910MOL0     H22823   5.810   2.068   4.855  0.9760 -1.1623 -0.3458
  910MOL0     H22824   5.703   2.157   5.132 -0.9316  0.2699 -0.2370
  910MOL0     H22825   5.716   2.000   5.073  1.4267  1.0527  0.5336
  910MOL0     H22826   5.580   2.236   4.949  1.3685 -0.6063 -2.3490
  910MOL0     H22827   5.559   2.063   4.892  0.9395  0.5278 -1.5378
  910MOL0     H22828   5.476   2.023   5.146 -1.7176 -1.4807 -0.0237
  910MOL0     H22829   5.376   2.066   5.018  1.7929  0.6237 -2.9324
  910MOL0     H22830   5.398   2.310   5.076 -1.7829  0.3511  1.2052
  910MOL0     H22831   5.494   2.252   5.226 -3.7880 -3.2215  3.9181
  910MOL0     H22832   6.356   2.302   5.177  0.4776 -0.7249  1.9390
  910MOL0     H22833   6.602   2.302   5.214  1.7878 -1.4958  2.5830
  910MOL0     H22834   7.028   1.941   4.933  1.0280 -0.7633  1.6323
  910MOL0     H22835   7.261   1.948   4.939  1.2925  2.2896 -2.0254
  910MOL0     H22836   9.291   1.805   4.839  0.0468 -0.4591  0.0892
  910MOL0     H22837   9.532   1.776   4.789 -0.7909  0.7321  1.0320
  910MOL0     H22838   9.809   1.770   4.333  2.5041 -0.5101 -2.3459
  910MOL0     H22839  10.038   1.770   4.272 -1.9067  4.3740 -0.9103
  910MOL0     H22840  10.308   1.752   4.273 -0.5324  0.3322 -0.7838
  910MOL0     H22841  10.226   1.898   4.240  1.7515  2.5800  1.0918
  910MOL0     H22842  10.463   1.901   4.184 -1.3604  4.2241 -3.1104
  910MOL0     H22843  10.497   1.903   4.356  2.8041  0.1625 -2.8581
  910MOL0     H22844  10.330   2.107   4.200 -1.5986  2.0163  0.5195
  910MOL0     H22845  10.496   2.136   4.257 -0.6240  0.6410 -0.7657
  910MOL0     H22846  10.386   2.080   4.498  0.7827 -1.7654 -1.0067
  910MOL0     H22847  10.239   2.131   4.418  0.5364  1.5206 -0.3034
  910MOL0     H22848  10.387   2.485   4.482  1.3867  0.2337 -0.2846
  910MOL0     H22849  10.157   1.916   4.655  0.9439  2.7356 -1.9497
  910MOL0     H22850   9.919   1.938   4.709  0.6810  0.6944  0.1017
  911MOL0     O22851   1.813   4.778   9.840  0.1730 -0.3376 -0.0421
  911MOL0     C22852   1.861   4.887   9.865  0.1286  0.8754 -0.3403
  911MOL0     O22853   1.784   5.008   9.864 -0.6202 -0.1466 -0.9422
  911MOL0     C22854   1.685   5.020   9.772 -0.5461 -0.0088  1.0560
  911MOL0     C22855   1.695   5.113   9.669  1.0437  0.7898 -0.2152
  911MOL0     C22856   1.588   5.130   9.576 -0.6212 -0.9644  0.1712
  911MOL0     C22857   1.470   5.057   9.591  0.4406 -0.2535  0.0690
  911MOL0     O22858   1.363   5.073   9.507  0.7505 -0.1051 -0.1631
  911MOL0     C22859   1.339   5.203   9.451 -0.2397 -0.0926 -0.2589
  911MOL0     C22860   1.197   5.213   9.417  0.9147 -0.4054 -0.0294
  911MOL0     C22861   1.155   5.349   9.370 -0.6532 -0.0180  0.1535
  911MOL0     C22862   1.008   5.361   9.332  0.6565  0.7005  0.6626
  911MOL0     C22863   0.987   5.476   9.232 -0.8938  0.0348 -0.0257
  911MOL0     C22864   0.840   5.470   9.197  0.4341  0.1303  0.1688
  911MOL0     C22865   0.804   5.559   9.074  0.5131  0.1948 -0.7106
  911MOL0     C22866   0.660   5.537   9.029  0.4116  0.0654 -0.5583
  911MOL0     N22867   0.553   5.550   9.125  0.1241 -0.0727 -0.6373
  911MOL0     C22868   0.520   5.445   9.207  0.8321 -0.6957  0.1545
  911MOL0     C22869   0.419   5.493   9.282 -0.2336  0.1202 -0.3582
  911MOL0     C22870   0.358   5.418   9.394  0.8039  0.2279  0.1200
  911MOL0     C22871   0.274   5.301   9.357 -0.0695  0.1164  0.2459
  911MOL0     C22872   0.154   5.343   9.269 -0.6119 -0.7353 -0.3728
  911MOL0     C22873   0.060   5.226   9.236  0.8239 -0.6821  0.1788
  911MOL0     O22874  -0.022   5.185   9.348 -0.3353  0.2981  0.2934
  911MOL0     C22875  -0.145   5.252   9.364  0.3031  0.3615 -1.0118
  911MOL0     C22876  -0.217   5.338   9.278  0.1678  0.2226  0.0384
  911MOL0     C22877  -0.343   5.391   9.313 -0.2873  0.5812  0.4704
  911MOL0     C22878  -0.392   5.486   9.214  0.6015 -0.5018  0.4781
  911MOL0     C22879  -0.419   5.337   9.420 -0.2483 -0.1620  0.6353
  911MOL0     C22880  -0.564   5.368   9.446  0.0147 -1.0010  0.5438
  911MOL0     O22881  -0.622   5.285   9.536  0.0739 -0.8599  0.3832
  911MOL0     C22882  -0.759   5.306   9.564  0.1057  0.5391  0.0439
  911MOL0     C22883  -0.801   5.296   9.698  0.4765 -0.6332 -0.0921
  911MOL0     C22884  -0.941   5.300   9.727 -0.5550 -0.3516  0.5456
  911MOL0     C22885  -1.033   5.330   9.631  0.6477 -0.5338 -0.5155
  911MOL0     O22886  -1.158   5.355   9.676 -0.4741  0.5589 -0.0924
  911MOL0     C22887  -1.194   5.493   9.690  0.9225  0.6956  0.4183
  911MOL0     C22888  -1.254   5.539   9.556 -0.2181 -0.0307  0.2069
  911MOL0     C22889  -1.404   5.500   9.534 -0.1202 -0.5307 -0.1360
  911MOL0     C22890  -1.438   5.352   9.567  0.2433  0.2408 -0.3119
  911MOL0     C22891  -1.582   5.311   9.517 -0.4669  0.3539  0.0865
  911MOL0     C22892  -1.596   5.157   9.519  0.6718  0.0592 -0.2002
  911MOL0     C22893  -1.728   5.108   9.447 -0.7947  0.0276 -0.0326
  911MOL0     C22894  -1.714   5.108   9.291  0.4681  0.3062 -0.3513
  911MOL0    Cl22895  -1.561   5.050   9.226 -0.1933  0.1152 -0.5489
  911MOL0     C22896  -0.989   5.345   9.500  0.3977  0.1901  0.1270
  911MOL0     C22897  -0.854   5.312   9.462 -0.2198 -0.5114  0.1886
  911MOL0     O22898  -0.611   5.469   9.402  0.2482  0.0690 -0.2010
  911MOL0     C22899  -0.342   5.249   9.506 -0.0282 -0.8874  0.4871
  911MOL0     C22900  -0.215   5.214   9.483 -0.2270 -0.1709 -0.1173
  911MOL0     N22901   0.397   5.620   9.259 -0.3479  0.1514  0.4973
  911MOL0     N22902   0.471   5.655   9.160 -0.4030  0.9034  0.4643
  911MOL0     C22903   1.464   4.961   9.692  0.2633  1.1161 -0.4656
  911MOL0     C22904   1.565   4.947   9.788  0.2687  0.7366  0.6652
  911MOL0     C22905   1.998   4.908   9.917  0.0105  0.0687 -0.7953
  911MOL0     C22906   2.060   5.032   9.896  0.2142  0.0718  0.0196
  911MOL0     C22907   2.190   5.056   9.940  0.3748  0.4509 -1.0727
  911MOL0     C22908   2.252   4.961  10.028 -0.7569 -0.4192  0.0432
  911MOL0     O22909   2.369   5.000  10.089  0.2205  0.7064  0.8749
  911MOL0     C22910   2.475   4.904  10.092 -0.3463 -0.0382 -0.7023
  911MOL0     C22911   2.606   4.947  10.180 -0.5614  1.0712 -0.2786
  911MOL0     C22912   2.684   5.075  10.139  0.0823  0.3338 -0.0968
  911MOL0     C22913   2.829   5.063  10.198  0.5040 -0.1292  0.3609
  911MOL0     C22914   2.902   4.958  10.124  0.5567 -0.4939 -1.0504
  911MOL0     C22915   2.977   4.896  10.056  0.7891  0.0005 -0.0232
  911MOL0     C22916   2.199   4.836  10.039  0.5954  0.0560 -0.9051
  911MOL0     C22917   2.070   4.808   9.994  0.1607  0.0578  0.3085
  911MOL0     H22918   1.791   5.163   9.660  1.5441 -0.2102 -0.4736
  911MOL0     H22919   1.603   5.201   9.496 -2.0877 -2.9628 -2.0298
  911MOL0     H22920   1.377   5.275   9.524 -0.1380 -0.1449 -0.2609
  911MOL0     H22921   1.392   5.224   9.358  2.4009 -0.7183  1.0225
  911MOL0     H22922   1.171   5.146   9.335 -1.2477 -0.5179  0.6981
  911MOL0     H22923   1.139   5.187   9.505  1.9781 -0.0246  0.8093
  911MOL0     H22924   1.170   5.420   9.452  1.3452  0.7885 -0.8271
  911MOL0     H22925   1.199   5.376   9.274 -1.2496 -1.6874 -0.6358
  911MOL0     H22926   0.975   5.269   9.283 -1.3695  3.0468 -2.8236
  911MOL0     H22927   0.943   5.372   9.419 -0.0939  3.8066 -0.1592
  911MOL0     H22928   1.011   5.578   9.264 -0.5502 -0.2932  0.7837
  911MOL0     H22929   1.050   5.461   9.143 -3.3849  1.1980 -2.1280
  911MOL0     H22930   0.813   5.368   9.171 -1.3203  0.5571  0.2132
  911MOL0     H22931   0.779   5.503   9.282  1.4669  1.2362  0.5206
  911MOL0     H22932   0.814   5.666   9.096  0.5272 -0.1184  0.9483
  911MOL0     H22933   0.870   5.541   8.988 -2.2581  1.1213 -3.2135
  911MOL0     H22934   0.666   5.430   9.005  1.4005 -0.1517  0.5367
  911MOL0     H22935   0.635   5.604   8.946  0.0944 -0.3967 -0.8431
  911MOL0     H22936   0.563   5.345   9.208  1.7916 -0.2893  0.5677
  911MOL0     H22937   0.445   5.387   9.453  0.4942  0.7124  0.8475
  911MOL0     H22938   0.290   5.474   9.459 -1.0021  0.3288 -1.7672
  911MOL0     H22939   0.230   5.269   9.451 -3.5509  2.0533 -0.5804
  911MOL0     H22940   0.338   5.230   9.303  0.6293  1.2813 -0.5128
  911MOL0     H22941   0.182   5.390   9.174 -2.2001 -0.1700 -0.5799
  911MOL0     H22942   0.098   5.421   9.320  2.6545  2.1808 -0.9130
  911MOL0     H22943   0.131   5.148   9.205  2.1609  0.5684 -0.0178
  911MOL0     H22944   0.005   5.253   9.146  3.5840  0.7567 -1.2234
  911MOL0     H22945  -0.165   5.380   9.194 -1.6195  2.2338 -0.1403
  911MOL0     H22946  -0.325   5.506   9.130 -3.8653  3.2302 -2.7172
  911MOL0     H22947  -0.487   5.461   9.166  1.3368 -3.5199  0.4061
  911MOL0     H22948  -0.402   5.585   9.261 -0.7294 -0.4469  0.1306
  911MOL0     H22949  -0.730   5.270   9.776 -1.0248 -0.0957  1.5185
  911MOL0     H22950  -0.985   5.282   9.825 -0.5007  3.4356  1.4540
  911MOL0     H22951  -1.270   5.513   9.767  1.4813  1.9906  0.6497
  911MOL0     H22952  -1.108   5.552   9.721  1.3299  1.6682 -2.2990
  911MOL0     H22953  -1.228   5.645   9.549  1.5135 -0.3832  0.9361
  911MOL0     H22954  -1.208   5.490   9.470 -1.4391  2.6613 -2.1447
  911MOL0     H22955  -1.411   5.510   9.426 -1.4291  0.7209  0.0419
  911MOL0     H22956  -1.481   5.570   9.569  1.3058  0.6824  0.6808
  911MOL0     H22957  -1.373   5.278   9.520  1.0541 -0.5541  1.9329
  911MOL0     H22958  -1.431   5.341   9.676 -0.9812  1.2988 -0.0923
  911MOL0     H22959  -1.598   5.345   9.415 -0.1273 -0.8313 -0.3791
  911MOL0     H22960  -1.660   5.351   9.582 -0.1643  2.2646 -0.6714
  911MOL0     H22961  -1.510   5.118   9.465 -0.6449  0.0045 -2.3714
  911MOL0     H22962  -1.598   5.120   9.622 -0.7791  1.0695  0.1634
  911MOL0     H22963  -1.815   5.163   9.485 -0.8927  0.3118 -0.6633
  911MOL0     H22964  -1.733   5.003   9.476  0.8294  0.3655  1.6850
  911MOL0     H22965  -1.723   5.210   9.253 -2.2965  0.9406  1.7061
  911MOL0     H22966  -1.798   5.047   9.257 -1.4808  1.9403  1.2283
  911MOL0     H22967  -1.067   5.365   9.427  0.2135 -1.9872 -0.3538
  911MOL0     H22968  -0.831   5.302   9.357 -0.8417  2.7237 -0.3633
  911MOL0     H22969  -0.398   5.209   9.590 -1.5284  0.8916  0.4105
  911MOL0     H22970  -0.163   5.153   9.556 -0.5621 -2.1793 -1.4562
  911MOL0     H22971   1.371   4.906   9.698 -0.2142  1.9251 -0.3315
  911MOL0     H22972   1.550   4.875   9.867  2.5659  0.1549  0.6523
  911MOL0     H22973   2.007   5.102   9.832 -0.1460  0.8744  1.1659
  911MOL0     H22974   2.244   5.150   9.942  1.7603 -0.3096 -1.5369
  911MOL0     H22975   2.439   4.811  10.137  0.3574  1.0589  2.3811
  911MOL0     H22976   2.505   4.878   9.990 -1.6125 -1.0589 -0.8406
  911MOL0     H22977   2.667   4.856  10.176 -3.0900 -1.1348  3.8674
  911MOL0     H22978   2.585   4.946  10.287  0.5143  0.8349 -0.0539
  911MOL0     H22979   2.618   5.149  10.186  0.8319  0.6189  0.5207
  911MOL0     H22980   2.688   5.089  10.031  1.1690  2.8114  0.1909
  911MOL0     H22981   2.838   5.041  10.305  1.2570 -0.9742  0.1393
  911MOL0     H22982   2.886   5.154  10.178 -0.7544  0.1742 -2.3092
  911MOL0     H22983   3.034   4.833   9.992 -1.7373 -2.0690 -0.4019
  911MOL0     H22984   2.254   4.755  10.086  0.8356 -0.4329 -2.0127
  911MOL0     H22985   2.036   4.708  10.018  2.5641 -0.4025  2.2350
  912MOL0     O22986   0.426   3.778   4.653 -0.5341  0.1353  0.8310
  912MOL0     C22987   0.408   3.684   4.575 -0.0157 -0.0798 -0.1333
  912MOL0     O22988   0.491   3.645   4.469  0.4997  0.3329 -0.3480
  912MOL0     C22989   0.610   3.714   4.437  0.0038  0.0886 -0.6326
  912MOL0     C22990   0.703   3.732   4.549 -0.2005  0.1553  0.0475
  912MOL0     C22991   0.817   3.818   4.520  0.3136  0.7611  0.3648
  912MOL0     C22992   0.837   3.872   4.384 -0.3320 -0.1679 -0.6948
  912MOL0     O22993   0.942   3.950   4.351 -0.1046 -0.4523 -0.3323
  912MOL0     C22994   1.026   4.003   4.453  0.2999  0.2895 -0.6148
  912MOL0     C22995   0.952   4.113   4.538  0.0088  0.6862 -0.3295
  912MOL0     C22996   0.890   4.227   4.456  0.2969 -0.2883 -0.5343
  912MOL0     C22997   0.755   4.187   4.388 -0.3963 -0.3666  0.0386
  912MOL0     C22998   0.700   4.310   4.309 -0.2457  0.3977 -0.2173
  912MOL0     C22999   0.548   4.294   4.286  0.4706  0.7855  0.1379
  912MOL0     C23000   0.523   4.186   4.175  0.0780 -0.1976 -0.1229
  912MOL0     C23001   0.454   4.057   4.223  0.6371 -0.1758 -0.0553
  912MOL0     N23002   0.312   4.080   4.242  0.0934  0.3513 -0.7734
  912MOL0     C23003   0.224   4.114   4.144  0.0077  0.6748  0.2763
  912MOL0     C23004   0.104   4.109   4.205  0.3125 -0.9271  0.4273
  912MOL0     C23005  -0.028   4.148   4.143 -0.2845  0.1469  0.2415
  912MOL0     C23006  -0.078   4.028   4.064 -0.2617  0.1408  0.1494
  912MOL0     C23007  -0.199   4.074   3.987 -1.0873  0.3125  0.5052
  912MOL0     C23008  -0.296   3.951   3.972 -0.4274 -0.1225  0.3269
  912MOL0     O23009  -0.374   3.933   4.090 -0.5098 -0.3848 -0.1199
  912MOL0     C23010  -0.486   3.848   4.087 -0.0124  0.3544  0.5580
  912MOL0     C23011  -0.540   3.777   3.983 -0.7564  0.1851 -0.8507
  912MOL0     C23012  -0.660   3.705   3.986  0.4987  0.4268 -0.2645
  912MOL0     C23013  -0.724   3.642   3.871 -0.3879  0.2323 -0.1370
  912MOL0     C23014  -0.724   3.702   4.114  0.1664 -0.1651  0.2785
  912MOL0     C23015  -0.854   3.633   4.143  0.4949  0.3527  1.1871
  912MOL0     O23016  -0.857   3.553   4.260 -0.3373 -0.1217  0.1152
  912MOL0     C23017  -0.960   3.466   4.282 -0.0095  0.0826 -0.5422
  912MOL0     C23018  -1.082   3.527   4.311 -0.3712 -0.0008 -0.3231
  912MOL0     C23019  -1.194   3.451   4.322  0.1342 -0.4050  0.0048
  912MOL0     C23020  -1.186   3.313   4.334 -0.0007  0.3457  0.2130
  912MOL0     O23021  -1.307   3.245   4.348 -0.4370 -0.7274 -0.5021
  912MOL0     C23022  -1.316   3.122   4.293  0.3200  1.0590 -0.0618
  912MOL0     C23023  -1.462   3.107   4.268  0.3134  0.7584 -0.3800
  912MOL0     C23024  -1.500   3.023   4.150  0.3190  0.3362  1.1236
  912MOL0     C23025  -1.448   3.075   4.011  0.2152 -0.0844  0.6913
  912MOL0     C23026  -1.468   2.992   3.890  0.3074 -0.0897  0.1899
  912MOL0     C23027  -1.399   2.857   3.898  0.6146 -0.1110  0.0971
  912MOL0     C23028  -1.385   2.794   3.760 -1.4030 -0.3730 -0.0392
  912MOL0     C23029  -1.314   2.656   3.753 -0.4669 -0.7644 -0.3831
  912MOL0    Cl23030  -1.144   2.681   3.797 -0.4225  0.2155  0.0197
  912MOL0     C23031  -1.061   3.248   4.323  0.0472 -0.0078 -0.0579
  912MOL0     C23032  -0.944   3.326   4.305  0.1504  0.1280 -0.1230
  912MOL0     O23033  -0.942   3.626   4.057 -0.1530 -0.2008  0.1179
  912MOL0     C23034  -0.671   3.779   4.223  0.4775  0.8623  0.9842
  912MOL0     C23035  -0.551   3.845   4.206  0.2087  0.6390  0.4071
  912MOL0     N23036   0.121   4.074   4.337  0.7423  0.5126 -0.1587
  912MOL0     N23037   0.247   4.051   4.358 -0.5527 -0.6286  0.1952
  912MOL0     C23038   0.747   3.851   4.283 -0.5404  0.2077  0.3361
  912MOL0     C23039   0.637   3.767   4.308  0.2192  0.9819  0.2306
  912MOL0     C23040   0.280   3.618   4.593 -0.3299 -0.1295  0.0860
  912MOL0     C23041   0.175   3.679   4.665  0.1199  0.0068  0.1396
  912MOL0     C23042   0.049   3.622   4.670 -0.3066  0.4701 -0.1018
  912MOL0     C23043   0.027   3.497   4.602  0.4314  0.8888  0.3419
  912MOL0     O23044  -0.106   3.459   4.603 -0.4665 -0.0215 -0.1306
  912MOL0     C23045  -0.156   3.344   4.540 -0.1352  0.8169  0.3663
  912MOL0     C23046  -0.313   3.346   4.551 -0.3595 -0.7752  0.2250
  912MOL0     C23047  -0.386   3.205   4.514 -0.7911 -0.0604 -0.1832
  912MOL0     C23048  -0.524   3.244   4.466 -0.0293  0.0151 -0.1651
  912MOL0     C23049  -0.605   3.136   4.408  0.5182 -0.9305 -1.1686
  912MOL0     C23050  -0.656   3.029   4.380  0.3469  1.0182  0.2993
  912MOL0     C23051   0.132   3.437   4.530 -0.2146 -0.1230  0.5557
  912MOL0     C23052   0.255   3.499   4.524 -0.7922 -0.1097  0.7316
  912MOL0     H23053   0.684   3.697   4.650 -2.7630  1.2441  0.0423
  912MOL0     H23054   0.885   3.853   4.596  1.9065  2.9633 -1.9131
  912MOL0     H23055   1.061   3.917   4.510 -1.8247 -0.6320 -0.6067
  912MOL0     H23056   1.115   4.054   4.416 -0.8914  2.1354 -1.1281
  912MOL0     H23057   0.872   4.059   4.591 -0.0571 -0.1845 -1.2766
  912MOL0     H23058   1.014   4.155   4.617 -0.5808  0.2574  0.3744
  912MOL0     H23059   0.886   4.315   4.521 -2.9590 -0.0464 -0.8705
  912MOL0     H23060   0.968   4.253   4.384  0.8201  3.9194  1.2365
  912MOL0     H23061   0.773   4.104   4.320  0.6753 -2.6436  2.8676
  912MOL0     H23062   0.677   4.156   4.458 -3.0380  2.9095 -1.1513
  912MOL0     H23063   0.729   4.398   4.366  0.2151 -0.0965  0.3261
  912MOL0     H23064   0.756   4.308   4.215 -1.9366  0.4444 -1.2790
  912MOL0     H23065   0.504   4.253   4.377  0.1719  0.3842 -0.1804
  912MOL0     H23066   0.490   4.386   4.273 -2.6093 -1.2983 -2.7533
  912MOL0     H23067   0.471   4.229   4.088 -0.7803  0.0751  0.5149
  912MOL0     H23068   0.621   4.150   4.143 -0.4531 -1.3964 -0.4652
  912MOL0     H23069   0.509   4.023   4.312  1.8342  1.6642 -0.0518
  912MOL0     H23070   0.451   3.979   4.147  1.7127 -0.3399  0.0503
  912MOL0     H23071   0.256   4.143   4.045  4.3012  0.8725  1.5150
  912MOL0     H23072  -0.101   4.165   4.223 -0.3429 -0.2784  0.2808
  912MOL0     H23073  -0.012   4.238   4.083 -0.4870  0.2034  0.2737
  912MOL0     H23074  -0.108   3.945   4.129 -0.1296  0.4988  0.6753
  912MOL0     H23075   0.010   3.991   4.010 -1.6603 -0.1069 -2.0787
  912MOL0     H23076  -0.173   4.105   3.885  0.6719 -1.6785  0.2888
  912MOL0     H23077  -0.250   4.161   4.030 -2.2846 -0.7399  1.2865
  912MOL0     H23078  -0.241   3.859   3.951  1.4086  0.7559  1.0749
  912MOL0     H23079  -0.363   3.970   3.888  2.6809  0.3376 -2.2766
  912MOL0     H23080  -0.503   3.789   3.882 -1.8049 -0.3695 -1.3173
  912MOL0     H23081  -0.655   3.652   3.787  0.0632  3.0245  0.4788
  912MOL0     H23082  -0.740   3.535   3.887 -3.0383  0.3420 -1.4876
  912MOL0     H23083  -0.823   3.682   3.846  0.2736  2.0386 -0.0298
  912MOL0     H23084  -1.085   3.635   4.315  0.5805  0.0159  0.3237
  912MOL0     H23085  -1.293   3.493   4.329 -0.5412 -1.7890 -0.8704
  912MOL0     H23086  -1.254   3.118   4.203  0.7218 -2.3138  0.2311
  912MOL0     H23087  -1.278   3.034   4.346  0.4079 -0.1950 -2.0790
  912MOL0     H23088  -1.517   3.061   4.351 -0.6718 -1.2678 -2.0818
  912MOL0     H23089  -1.505   3.205   4.244  1.3160  0.9217 -1.6577
  912MOL0     H23090  -1.608   3.004   4.157  0.5793 -0.7443  2.8672
  912MOL0     H23091  -1.454   2.924   4.162  2.8293  1.1868 -0.6797
  912MOL0     H23092  -1.496   3.172   4.000  3.1938  1.2980 -1.5587
  912MOL0     H23093  -1.342   3.100   4.022 -0.2667  3.0255 -0.6051
  912MOL0     H23094  -1.430   3.049   3.804 -1.5331 -0.9154 -1.2443
  912MOL0     H23095  -1.575   2.976   3.875  0.5973 -0.4161 -1.8083
  912MOL0     H23096  -1.301   2.869   3.946  0.9713 -1.2129 -0.2988
  912MOL0     H23097  -1.470   2.792   3.950  1.4508 -1.5288 -0.4543
  912MOL0     H23098  -1.323   2.862   3.699  3.3868 -2.1190  2.3736
  912MOL0     H23099  -1.487   2.778   3.723 -1.1422 -2.1174 -0.0678
  912MOL0     H23100  -1.314   2.614   3.652  0.7508  0.1896 -0.8028
  912MOL0     H23101  -1.364   2.581   3.815  1.9926 -1.9556  0.2822
  912MOL0     H23102  -1.070   3.140   4.322  2.4325 -0.2596 -0.6211
  912MOL0     H23103  -0.855   3.268   4.285 -2.2358 -3.8554 -0.3975
  912MOL0     H23104  -0.727   3.776   4.316 -1.9977  2.8025 -0.3184
  912MOL0     H23105  -0.503   3.893   4.291  1.9778  0.4773 -0.4599
  912MOL0     H23106   0.768   3.878   4.180  2.0984 -1.3383  0.3912
  912MOL0     H23107   0.582   3.735   4.220  1.2094 -3.6992  1.0690
  912MOL0     H23108   0.195   3.773   4.714  2.1611  0.3890 -1.3047
  912MOL0     H23109  -0.023   3.681   4.725 -0.6891 -1.1113  1.1875
  912MOL0     H23110  -0.124   3.329   4.436  1.3699 -1.7157  1.0937
  912MOL0     H23111  -0.107   3.261   4.591 -2.8152 -0.2097  1.4445
  912MOL0     H23112  -0.353   3.429   4.492  0.8479 -0.3355 -0.0152
  912MOL0     H23113  -0.336   3.361   4.657  0.4162  1.0653  0.1668
  912MOL0     H23114  -0.387   3.148   4.607 -2.3857  0.8122  0.3723
  912MOL0     H23115  -0.325   3.143   4.448  0.5301  1.5414 -0.5476
  912MOL0     H23116  -0.523   3.314   4.382 -0.4910 -1.7033 -1.6767
  912MOL0     H23117  -0.578   3.300   4.543  1.0103  0.5705  0.1768
  912MOL0     H23118  -0.717   2.948   4.346 -0.6344  1.8235  0.0781
  912MOL0     H23119   0.110   3.352   4.467  0.6500 -0.1093  0.2102
  912MOL0     H23120   0.327   3.453   4.457 -1.2579  0.2326 -0.0259
  913MOL0     O23121  10.381  10.372   8.944  0.9006  0.6686 -0.0979
  913MOL0     C23122  10.456  10.282   8.897 -0.0319  0.8089 -0.0088
  913MOL0     O23123  10.413  10.151   8.863  0.2791 -0.0242 -0.4319
  913MOL0     C23124  10.277  10.113   8.859 -0.2108 -0.4215 -0.0831
  913MOL0     C23125  10.171  10.189   8.803 -0.1765  0.1164  0.4031
  913MOL0     C23126  10.049  10.128   8.772  0.2546  0.6857  0.9708
  913MOL0     C23127  10.017  10.013   8.833 -0.8854 -1.0135 -0.5663
  913MOL0     O23128   9.900   9.954   8.803  0.1033  0.7438  0.1041
  913MOL0     C23129   9.821   9.929   8.917 -0.5901 -0.0305 -0.5006
  913MOL0     C23130   9.697   9.837   8.899  0.3488  0.7768  0.3090
  913MOL0     C23131   9.608   9.880   8.775 -0.5275  0.2023  0.1633
  913MOL0     C23132   9.492   9.788   8.775  0.4978  0.1661 -0.3418
  913MOL0     C23133   9.384   9.850   8.686  0.8180  0.8440 -0.4384
  913MOL0     C23134   9.273   9.743   8.684 -0.4795  0.2509  0.3466
  913MOL0     C23135   9.143   9.810   8.626 -0.5737  0.3498 -0.7570
  913MOL0     C23136   9.016   9.749   8.679  0.2514 -0.5053  0.0998
  913MOL0     N23137   9.031   9.605   8.665  0.3104  0.4480  0.2024
  913MOL0     C23138   9.043   9.539   8.549 -0.4131  0.6356 -0.3097
  913MOL0     C23139   9.054   9.410   8.590  0.0091  0.1685 -0.5196
  913MOL0     C23140   9.035   9.291   8.506 -0.1757  0.2171  0.0146
  913MOL0     C23141   8.881   9.261   8.477  0.4616 -0.7344 -0.0282
  913MOL0     C23142   8.807   9.222   8.598  1.4161  0.8967  0.3328
  913MOL0     C23143   8.658   9.193   8.581 -0.0394  0.6488  0.1965
  913MOL0     O23144   8.619   9.123   8.702  0.1966  0.4477 -0.0743
  913MOL0     C23145   8.498   9.059   8.720 -0.0151 -0.6399  0.1412
  913MOL0     C23146   8.402   9.040   8.618 -0.7242 -0.1158 -0.0234
  913MOL0     C23147   8.284   8.965   8.643  0.0789  0.6332 -0.0215
  913MOL0     C23148   8.206   8.939   8.511 -0.6697 -0.6524 -0.2538
  913MOL0     C23149   8.258   8.896   8.763  0.2500  0.3316 -0.6201
  913MOL0     C23150   8.135   8.819   8.789 -0.8067 -0.6562  0.1030
  913MOL0     O23151   8.134   8.764   8.910 -0.6243 -0.1041  0.1627
  913MOL0     C23152   8.007   8.726   8.946  1.0789 -0.1904  0.7881
  913MOL0     C23153   7.903   8.821   8.976 -0.7882  0.1655  0.1869
  913MOL0     C23154   7.780   8.772   9.019 -0.1165 -0.0196  0.4637
  913MOL0     C23155   7.754   8.636   9.022 -0.0690  0.6486 -0.7111
  913MOL0     O23156   7.629   8.582   9.050  0.0595 -0.2952 -0.1807
  913MOL0     C23157   7.501   8.656   9.025 -0.6466  0.1398 -0.6503
  913MOL0     C23158   7.384   8.566   9.078 -0.1837  1.0988 -0.7110
  913MOL0     C23159   7.254   8.623   9.008  1.0186  0.7449  0.1918
  913MOL0     C23160   7.205   8.737   9.100 -0.6664 -0.6054  0.2531
  913MOL0     C23161   7.058   8.781   9.046 -1.0049  0.8008 -0.2128
  913MOL0     C23162   7.007   8.900   9.127 -0.5010  0.4274  0.8587
  913MOL0     C23163   6.872   8.964   9.094  0.0475 -0.1607 -0.1786
  913MOL0     C23164   6.850   9.105   9.168  0.0623 -0.2128 -0.3693
  913MOL0    Cl23165   6.678   9.138   9.201 -0.0882  0.2912  0.4374
  913MOL0     C23166   7.857   8.550   8.997  0.1551  0.3032 -0.2946
  913MOL0     C23167   7.978   8.595   8.970  0.1459 -0.1774  0.0459
  913MOL0     O23168   8.044   8.819   8.706 -1.1783 -0.4118  0.6139
  913MOL0     C23169   8.358   8.912   8.863 -0.1148 -0.7948 -1.0033
  913MOL0     C23170   8.478   9.001   8.846  0.4757 -0.7686  0.3952
  913MOL0     N23171   9.046   9.396   8.726  0.5923 -0.6940  0.1330
  913MOL0     N23172   9.041   9.519   8.773  0.4916 -0.3214 -0.4406
  913MOL0     C23173  10.119   9.946   8.906  0.7943  0.5190  0.3284
  913MOL0     C23174  10.250   9.992   8.903 -0.4050  0.9275 -0.0341
  913MOL0     C23175  10.591  10.316   8.857 -0.0610  0.4940 -0.0509
  913MOL0     C23176  10.648  10.432   8.918 -0.0660 -0.8908  0.3905
  913MOL0     C23177  10.779  10.478   8.882  0.0410  0.3854  0.0013
  913MOL0     C23178  10.859  10.404   8.795 -0.5918 -0.2277 -0.0105
  913MOL0     O23179  10.983  10.449   8.751 -0.0796 -0.1568  0.1062
  913MOL0     C23180  10.976  10.532   8.641 -0.0195 -0.2126  0.2640
  913MOL0     C23181  11.108  10.610   8.642 -0.7085 -0.5836 -0.1609
  913MOL0     C23182  11.123  10.671   8.780  0.7352 -0.2810  0.0653
  913MOL0     C23183  11.212  10.795   8.785 -0.6709  0.4381 -0.5631
  913MOL0     C23184  11.155  10.915   8.723 -0.8183 -0.1506 -0.0399
  913MOL0     C23185  11.119  11.021   8.670 -0.3059 -0.2217 -0.4203
  913MOL0     C23186  10.807  10.287   8.740 -0.1155 -0.4723 -0.5355
  913MOL0     C23187  10.681  10.238   8.770  0.0746  0.3354 -0.0498
  913MOL0     H23188  10.196  10.288   8.767  0.8335  0.3710  1.7113
  913MOL0     H23189   9.976  10.182   8.713 -1.5014 -2.2333  0.2779
  913MOL0     H23190   9.884   9.863   8.977  3.4541  1.4604 -2.7147
  913MOL0     H23191   9.793  10.022   8.968 -1.4152  1.2730 -3.1404
  913MOL0     H23192   9.733   9.736   8.878  0.1694 -0.3050  4.3720
  913MOL0     H23193   9.640   9.833   8.991 -1.1573 -0.3869 -0.6311
  913MOL0     H23194   9.578   9.983   8.793  0.6852  0.7320 -0.7242
  913MOL0     H23195   9.648   9.875   8.673 -3.4554  0.6059 -1.0959
  913MOL0     H23196   9.529   9.689   8.747  0.4373 -0.1513  0.6410
  913MOL0     H23197   9.446   9.773   8.874 -2.1834 -0.7654 -1.6321
  913MOL0     H23198   9.340   9.931   8.745 -0.4951 -1.4747  1.9855
  913MOL0     H23199   9.406   9.893   8.588  1.7608 -0.3430 -0.7765
  913MOL0     H23200   9.298   9.670   8.607 -0.8532 -0.6257  1.0327
  913MOL0     H23201   9.255   9.690   8.778  0.4446  0.1857  0.4932
  913MOL0     H23202   9.151   9.918   8.641  1.1670  0.6111 -3.0229
  913MOL0     H23203   9.137   9.800   8.517  2.0610 -0.7810 -0.8715
  913MOL0     H23204   8.933   9.769   8.611  0.3116 -1.7919 -0.3925
  913MOL0     H23205   8.995   9.773   8.784 -2.7601 -2.1341 -0.0080
  913MOL0     H23206   9.030   9.555   8.443 -0.8176  0.0304 -0.3560
  913MOL0     H23207   9.087   9.292   8.411 -1.4961 -0.4570 -0.7536
  913MOL0     H23208   9.079   9.201   8.551  3.4226  0.9621 -1.7259
  913MOL0     H23209   8.879   9.190   8.394 -2.4885  0.1677 -0.8358
  913MOL0     H23210   8.832   9.353   8.444  0.3559 -0.8777 -0.2723
  913MOL0     H23211   8.810   9.302   8.672 -0.0174 -0.0489  1.4586
  913MOL0     H23212   8.858   9.139   8.646  1.8542  1.7865  1.4638
  913MOL0     H23213   8.649   9.132   8.491 -0.9314 -1.0676  1.3757
  913MOL0     H23214   8.606   9.289   8.568  1.0036  0.9816 -1.6936
  913MOL0     H23215   8.418   9.081   8.519  1.4714 -2.5517 -0.7834
  913MOL0     H23216   8.184   8.832   8.514 -2.5915 -0.2982 -0.4176
  913MOL0     H23217   8.113   8.996   8.521 -0.8117 -1.2884  5.6175
  913MOL0     H23218   8.254   8.963   8.416  1.1698 -1.1754  0.5022
  913MOL0     H23219   7.921   8.927   8.962 -2.5473  0.3610 -0.9212
  913MOL0     H23220   7.709   8.844   9.060  0.4027 -0.6708  2.6180
  913MOL0     H23221   7.503   8.747   9.087 -0.8372 -1.0038  1.1016
  913MOL0     H23222   7.498   8.678   8.918  2.2588 -1.4780 -1.1724
  913MOL0     H23223   7.414   8.466   9.046  3.1498  1.7941 -0.1800
  913MOL0     H23224   7.376   8.559   9.187  2.4535 -2.9654 -0.5510
  913MOL0     H23225   7.176   8.547   9.008 -0.1819  1.7779  3.9029
  913MOL0     H23226   7.268   8.675   8.912 -0.5515  2.6537  0.9112
  913MOL0     H23227   7.197   8.729   9.209 -1.3856 -0.1073  0.2394
  913MOL0     H23228   7.273   8.819   9.076  0.5405 -1.7179 -0.2278
  913MOL0     H23229   6.986   8.699   9.048 -0.8775  0.6108 -1.9079
  913MOL0     H23230   7.056   8.805   8.940 -2.2364  2.3478  0.1257
  913MOL0     H23231   7.016   8.878   9.234  2.5344 -0.0235  0.5933
  913MOL0     H23232   7.080   8.981   9.116  1.8700 -1.7030  0.1138
  913MOL0     H23233   6.796   8.896   9.134 -1.6888  2.4296  1.1916
  913MOL0     H23234   6.853   8.977   8.987  0.7153  1.2560 -0.1547
  913MOL0     H23235   6.890   9.190   9.112 -1.3550  1.0414  0.4284
  913MOL0     H23236   6.901   9.107   9.265 -0.8038  1.3173  0.0825
  913MOL0     H23237   7.842   8.443   9.005 -1.1039  0.4930  0.1960
  913MOL0     H23238   8.062   8.529   8.949  0.6012  0.3181  0.2861
  913MOL0     H23239   8.359   8.843   8.947  1.6044 -0.0428 -0.3582
  913MOL0     H23240   8.554   9.024   8.919  0.3897  1.8668 -0.2245
  913MOL0     H23241  10.088   9.846   8.934 -3.6343  1.2492 -1.2593
  913MOL0     H23242  10.337   9.931   8.925  0.6233  1.7905 -1.5363
  913MOL0     H23243  10.594  10.484   8.996 -0.4915 -0.3510 -0.2496
  913MOL0     H23244  10.815  10.576   8.912  2.3176  0.4565 -2.5653
  913MOL0     H23245  10.948  10.478   8.550 -0.4526  3.8040 -2.2473
  913MOL0     H23246  10.894  10.605   8.645 -1.2364 -1.5278  0.0377
  913MOL0     H23247  11.110  10.687   8.565  1.8487  1.9509  2.2085
  913MOL0     H23248  11.197  10.548   8.629  0.2072  0.9058 -1.3057
  913MOL0     H23249  11.160  10.603   8.857 -0.3609  1.2158  1.9945
  913MOL0     H23250  11.026  10.700   8.820  1.8384 -0.7634  3.3894
  913MOL0     H23251  11.306  10.767   8.735 -0.7408  0.2892 -0.6112
  913MOL0     H23252  11.232  10.814   8.891 -2.1745 -2.2833  0.3109
  913MOL0     H23253  11.093  11.122   8.646  3.0021  1.0487  0.6537
  913MOL0     H23254  10.882  10.238   8.680  1.1422 -3.7245  3.2112
  913MOL0     H23255  10.649  10.143   8.727  2.0507 -0.9344  1.1363
  914MOL0     O23256   4.268   8.209   6.648  0.9184 -0.0501 -0.0389
  914MOL0     C23257   4.271   8.259   6.755  0.4192 -0.1423  0.0256
  914MOL0     O23258   4.180   8.352   6.800 -0.2175 -0.3538  0.3091
  914MOL0     C23259   4.068   8.383   6.731  0.0710 -0.3163 -0.8759
  914MOL0     C23260   3.972   8.287   6.697  0.2808  0.0862  0.0837
  914MOL0     C23261   3.861   8.312   6.626  0.1838  0.2308  0.7471
  914MOL0     C23262   3.834   8.443   6.577 -0.3713  0.4733 -0.4651
  914MOL0     O23263   3.733   8.475   6.501 -0.2879 -0.4670  0.4571
  914MOL0     C23264   3.624   8.381   6.485 -0.9096  0.8292  0.2292
  914MOL0     C23265   3.505   8.472   6.465 -0.3618 -0.3652  0.9643
  914MOL0     C23266   3.526   8.567   6.343  0.0729 -0.2168  0.5823
  914MOL0     C23267   3.399   8.651   6.323  0.3684 -0.1163  0.3704
  914MOL0     C23268   3.411   8.751   6.213 -0.5400  0.4615  0.4036
  914MOL0     C23269   3.280   8.820   6.178 -1.2149  0.2069  1.3039
  914MOL0     C23270   3.212   8.893   6.291 -0.1555  0.6669  0.3946
  914MOL0     C23271   3.087   8.964   6.248  0.8414  0.3586 -0.2354
  914MOL0     N23272   2.985   9.000   6.352 -0.9273  0.4766  0.9000
  914MOL0     C23273   2.878   8.918   6.390  1.0797 -1.5736  1.0855
  914MOL0     C23274   2.774   9.001   6.435 -0.0154  0.1637  0.2823
  914MOL0     C23275   2.639   8.960   6.484 -0.2586 -0.4787 -0.7134
  914MOL0     C23276   2.565   8.887   6.373 -0.5181 -0.8570  0.0955
  914MOL0     C23277   2.437   8.827   6.434 -0.6824  0.6482 -0.3855
  914MOL0     C23278   2.381   8.744   6.323 -0.3808  0.0905 -0.5014
  914MOL0     O23279   2.280   8.664   6.390 -0.0243  0.0040  0.6492
  914MOL0     C23280   2.148   8.686   6.359 -0.0995 -1.0678 -0.2511
  914MOL0     C23281   2.065   8.583   6.384  0.4600  0.1926  0.1639
  914MOL0     C23282   1.928   8.592   6.353  1.2232  0.2888 -0.5973
  914MOL0     C23283   1.838   8.466   6.351 -0.2258 -0.1347 -0.0807
  914MOL0     C23284   1.877   8.719   6.309  0.0491  0.6622 -0.2833
  914MOL0     C23285   1.735   8.740   6.281  0.6339 -0.6114  0.6718
  914MOL0     O23286   1.663   8.640   6.237  0.9246  0.5827 -0.1999
  914MOL0     C23287   1.529   8.652   6.269  0.2442  0.1588 -0.1232
  914MOL0     C23288   1.488   8.618   6.402 -0.0254  0.3138 -0.1149
  914MOL0     C23289   1.355   8.618   6.439 -0.1676 -0.4703 -0.5843
  914MOL0     C23290   1.257   8.640   6.340 -0.3093 -1.3052 -0.2281
  914MOL0     O23291   1.123   8.632   6.375  0.1730 -0.2167 -0.3734
  914MOL0     C23292   1.056   8.753   6.393 -0.1660 -0.5094 -0.6395
  914MOL0     C23293   0.906   8.728   6.393 -0.5107 -0.5223 -0.6496
  914MOL0     C23294   0.852   8.647   6.279  0.4009  0.5252  0.6461
  914MOL0     C23295   0.867   8.740   6.145 -0.2050  0.5903  0.4911
  914MOL0     C23296   0.809   8.678   6.012  0.2133  0.0763 -0.6849
  914MOL0     C23297   0.661   8.718   5.987 -0.3569 -0.3563  0.1303
  914MOL0     C23298   0.666   8.859   5.936  0.2768  0.4106  0.5505
  914MOL0     C23299   0.531   8.889   5.876  0.2535 -0.8238 -0.4717
  914MOL0    Cl23300   0.415   8.935   5.998 -0.1601  0.1798 -0.3395
  914MOL0     C23301   1.297   8.668   6.209 -0.1066 -1.1813  0.4485
  914MOL0     C23302   1.430   8.675   6.174  0.4739 -0.6518 -0.6289
  914MOL0     O23303   1.681   8.843   6.328  0.3617  0.8243 -0.1400
  914MOL0     C23304   1.958   8.830   6.312  0.4534 -0.5717 -0.6452
  914MOL0     C23305   2.098   8.818   6.328  0.0970  0.2391  0.0085
  914MOL0     N23306   2.817   9.136   6.400  0.3655 -0.1067 -0.6948
  914MOL0     N23307   2.941   9.129   6.350  0.0080 -0.3231 -0.2133
  914MOL0     C23308   3.932   8.544   6.597  0.4672  0.1660  0.0855
  914MOL0     C23309   4.051   8.517   6.677  0.1917 -0.4874 -0.4275
  914MOL0     C23310   4.372   8.207   6.855  0.2340 -1.5494 -0.3595
  914MOL0     C23311   4.360   8.236   6.994  0.1868 -0.0253 -0.2767
  914MOL0     C23312   4.446   8.179   7.088 -0.1007 -0.7884 -0.0097
  914MOL0     C23313   4.559   8.108   7.039 -0.6476  0.6264 -0.1810
  914MOL0     O23314   4.657   8.069   7.127 -0.3743 -0.4285 -0.2578
  914MOL0     C23315   4.762   7.983   7.099 -0.3345  0.1295  0.0720
  914MOL0     C23316   4.885   8.045   7.018  0.1996 -0.0981 -1.4473
  914MOL0     C23317   4.994   7.948   6.982 -0.6940  0.4296  0.3578
  914MOL0     C23318   5.063   7.882   7.106  0.4348  0.7505 -0.3720
  914MOL0     C23319   5.009   7.751   7.146  0.2713 -0.8046 -0.1784
  914MOL0     C23320   4.956   7.652   7.184  0.7165 -0.5410  0.2717
  914MOL0     C23321   4.568   8.080   6.901 -0.2769 -0.1356 -0.4037
  914MOL0     C23322   4.468   8.119   6.811 -1.2820 -0.2604 -0.1239
  914MOL0     H23323   3.993   8.186   6.729 -0.3013 -1.2048 -3.1595
  914MOL0     H23324   3.796   8.229   6.599  0.4510 -0.1800  1.3592
  914MOL0     H23325   3.657   8.319   6.401  0.0198 -0.4049  1.4361
  914MOL0     H23326   3.604   8.318   6.572  0.5136  0.6791  0.4703
  914MOL0     H23327   3.414   8.412   6.454 -0.4224 -0.1784  0.4370
  914MOL0     H23328   3.499   8.536   6.554 -0.8075  0.4687  0.3476
  914MOL0     H23329   3.608   8.635   6.369  0.2816 -1.5529  3.7786
  914MOL0     H23330   3.558   8.511   6.254 -0.2915  1.1130 -0.4330
  914MOL0     H23331   3.323   8.577   6.301  1.1183 -0.9621  0.5528
  914MOL0     H23332   3.372   8.698   6.418 -0.1196  1.6943 -0.6198
  914MOL0     H23333   3.482   8.824   6.252  1.4080 -1.3877  0.5478
  914MOL0     H23334   3.454   8.704   6.124 -2.3417 -2.6618  1.0198
  914MOL0     H23335   3.286   8.887   6.092 -2.0093 -2.5694 -1.0769
  914MOL0     H23336   3.208   8.743   6.148  1.9248 -2.4541 -0.0227
  914MOL0     H23337   3.181   8.815   6.362 -1.0531  2.2528  1.8326
  914MOL0     H23338   3.271   8.965   6.348 -2.0826 -0.3108  3.9467
  914MOL0     H23339   3.056   8.896   6.168  2.4592 -2.5720  1.4429
  914MOL0     H23340   3.116   9.059   6.202  0.8354 -0.0341 -1.0750
  914MOL0     H23341   2.863   8.810   6.387 -4.4350 -1.0746  1.1717
  914MOL0     H23342   2.663   8.906   6.576  2.0521  3.9733  1.6249
  914MOL0     H23343   2.581   9.048   6.514 -0.9622 -1.6767  1.6045
  914MOL0     H23344   2.635   8.806   6.348 -0.3781 -1.3724  1.9491
  914MOL0     H23345   2.550   8.958   6.292  1.3343 -1.5408 -0.8969
  914MOL0     H23346   2.350   8.890   6.459 -0.7651  1.2694 -2.1235
  914MOL0     H23347   2.455   8.764   6.522 -1.3109 -2.0197 -2.0467
  914MOL0     H23348   2.461   8.683   6.279 -2.0789 -2.3981 -0.3660
  914MOL0     H23349   2.338   8.806   6.244 -3.0798 -0.5293  0.3844
  914MOL0     H23350   2.107   8.498   6.436  0.9220  0.7809  0.7839
  914MOL0     H23351   1.812   8.443   6.247 -3.1572 -1.4443  0.8135
  914MOL0     H23352   1.896   8.382   6.391  1.0616  0.6440 -0.2698
  914MOL0     H23353   1.752   8.474   6.418  2.0671 -2.6943  3.5080
  914MOL0     H23354   1.562   8.598   6.478 -1.2583 -0.2208  0.9884
  914MOL0     H23355   1.335   8.579   6.539 -0.2642  0.8555 -0.0688
  914MOL0     H23356   1.092   8.789   6.490  0.0698  0.3940 -1.0521
  914MOL0     H23357   1.093   8.826   6.321 -1.4539 -1.4463 -2.3109
  914MOL0     H23358   0.873   8.690   6.490 -1.6522  0.0174 -0.8053
  914MOL0     H23359   0.850   8.822   6.393  1.5780  0.8213  0.4079
  914MOL0     H23360   0.749   8.613   6.288  0.0271  1.7057  1.0668
  914MOL0     H23361   0.911   8.560   6.249  2.1604  2.5632 -2.4186
  914MOL0     H23362   0.830   8.842   6.162  3.4071  1.9768  0.8295
  914MOL0     H23363   0.974   8.751   6.125  0.2458 -1.4655  1.4617
  914MOL0     H23364   0.815   8.570   6.021  4.0887  0.1271 -0.7614
  914MOL0     H23365   0.864   8.704   5.921 -0.0245 -2.6840 -1.6966
  914MOL0     H23366   0.616   8.652   5.912  0.5084  1.3341 -1.9930
  914MOL0     H23367   0.603   8.709   6.079  0.5199  0.8629  0.8371
  914MOL0     H23368   0.739   8.852   5.854  3.3976 -0.8548  3.1914
  914MOL0     H23369   0.707   8.922   6.015 -2.6486  1.5650  1.2491
  914MOL0     H23370   0.490   8.801   5.824  0.2772 -0.3935 -1.2371
  914MOL0     H23371   0.538   8.963   5.795  2.7064 -1.1640 -0.6207
  914MOL0     H23372   1.219   8.684   6.135 -0.5944 -0.2444  1.1590
  914MOL0     H23373   1.465   8.698   6.074 -0.6945 -0.7438 -1.0790
  914MOL0     H23374   1.918   8.928   6.290  1.8495 -0.3701 -2.5769
  914MOL0     H23375   2.164   8.904   6.324  0.3228  0.0225 -1.8407
  914MOL0     H23376   3.906   8.639   6.552  0.1208  0.3017  0.5629
  914MOL0     H23377   4.113   8.596   6.718 -2.5446  0.2174  2.8016
  914MOL0     H23378   4.292   8.314   7.028  1.7899  1.0545  0.5756
  914MOL0     H23379   4.437   8.195   7.195  0.8668  2.2887 -0.2969
  914MOL0     H23380   4.800   7.957   7.198 -3.6342  0.3426  1.5052
  914MOL0     H23381   4.728   7.900   7.036 -0.3931  1.4267 -1.6904
  914MOL0     H23382   4.923   8.128   7.078  0.1977 -0.0058 -1.5732
  914MOL0     H23383   4.840   8.086   6.927 -2.9025 -1.3382 -0.6175
  914MOL0     H23384   5.071   7.995   6.921 -0.2647  1.9840  2.0107
  914MOL0     H23385   4.944   7.871   6.922  0.7004  0.4304 -0.8562
  914MOL0     H23386   5.056   7.955   7.186  0.8963  1.2327 -0.7599
  914MOL0     H23387   5.167   7.867   7.075  0.1221 -1.6000 -0.4328
  914MOL0     H23388   4.900   7.564   7.211  0.2226 -1.0924 -2.3199
  914MOL0     H23389   4.643   8.010   6.863  0.7435  1.8895 -2.3192
  914MOL0     H23390   4.479   8.096   6.706 -1.1961 -1.0397  0.0496
  915MOL0     O23391   7.489   3.131   5.516  0.6399  0.1368 -0.5796
  915MOL0     C23392   7.524   3.161   5.403  0.7870 -0.0706  1.1207
  915MOL0     O23393   7.433   3.175   5.301  0.0790  0.1895 -0.0027
  915MOL0     C23394   7.307   3.136   5.327  0.1282 -0.3144 -0.5436
  915MOL0     C23395   7.206   3.241   5.325  0.5720 -0.2149 -0.0644
  915MOL0     C23396   7.076   3.209   5.348 -0.5306  0.2889 -0.8966
  915MOL0     C23397   7.035   3.079   5.372  0.4077  0.2519 -0.4867
  915MOL0     O23398   6.908   3.037   5.405  0.3577  0.1167 -0.0226
  915MOL0     C23399   6.810   3.139   5.405  0.4453  0.6556 -0.0808
  915MOL0     C23400   6.672   3.077   5.424  0.0369  0.0174 -0.0313
  915MOL0     C23401   6.606   3.009   5.301 -1.0099 -0.2099  0.6747
  915MOL0     C23402   6.453   2.984   5.341 -0.2293 -0.7083  0.9909
  915MOL0     C23403   6.379   2.899   5.235 -0.4961 -0.4618 -0.7675
  915MOL0     C23404   6.240   2.872   5.293  0.0391 -0.0238 -0.0496
  915MOL0     C23405   6.169   2.771   5.195 -0.2105 -0.3927 -0.5941
  915MOL0     C23406   6.024   2.761   5.226  0.4120  0.3620 -0.6725
  915MOL0     N23407   5.960   2.889   5.203 -0.2784  0.5635  0.2065
  915MOL0     C23408   5.932   2.941   5.077 -1.3717 -0.1571  0.4337
  915MOL0     C23409   5.849   3.043   5.106 -0.1982  0.4703 -0.3388
  915MOL0     C23410   5.776   3.131   5.013  0.2123 -0.2404 -0.3853
  915MOL0     C23411   5.690   3.051   4.904  0.0496 -0.2186 -0.6894
  915MOL0     C23412   5.601   3.149   4.831  0.3152 -0.4048  0.2861
  915MOL0     C23413   5.496   3.085   4.742  0.6918  0.8938 -0.0306
  915MOL0     O23414   5.429   3.190   4.676  0.0481 -0.1104  0.2987
  915MOL0     C23415   5.316   3.242   4.731  0.2800  0.4585 -0.0820
  915MOL0     C23416   5.246   3.201   4.844  0.5933 -0.0209 -0.1111
  915MOL0     C23417   5.127   3.265   4.875  0.6057 -0.6682  0.1049
  915MOL0     C23418   5.063   3.226   5.013 -0.0468  0.8800  0.8686
  915MOL0     C23419   5.066   3.362   4.790  0.3395  0.2704 -0.7244
  915MOL0     C23420   4.942   3.438   4.820 -0.1487 -0.0698 -0.0594
  915MOL0     O23421   4.899   3.536   4.724 -0.2802 -0.5398 -0.4423
  915MOL0     C23422   4.778   3.601   4.738 -0.4009  0.2564 -0.3286
  915MOL0     C23423   4.750   3.689   4.838  0.4830 -0.4472  0.4553
  915MOL0     C23424   4.629   3.761   4.843 -0.1894  0.0526  0.3041
  915MOL0     C23425   4.532   3.746   4.739 -0.1996  0.2330  0.5348
  915MOL0     O23426   4.437   3.829   4.735 -0.3094  0.4292 -0.2267
  915MOL0     C23427   4.345   3.829   4.620  0.4852 -0.1588 -0.1134
  915MOL0     C23428   4.240   3.720   4.619  0.2865 -0.1798 -0.5980
  915MOL0     C23429   4.147   3.730   4.739  0.2542 -0.1425 -0.1807
  915MOL0     C23430   4.024   3.642   4.726  0.2571 -0.1761  0.1672
  915MOL0     C23431   3.922   3.712   4.631  1.0202  0.2098  0.0405
  915MOL0     C23432   3.795   3.630   4.586  0.2330  0.0875  0.0944
  915MOL0     C23433   3.683   3.718   4.517  0.6289  0.6581 -0.1093
  915MOL0     C23434   3.552   3.646   4.541  0.2017  0.4425  0.2884
  915MOL0    Cl23435   3.432   3.690   4.431 -0.0372  0.4422 -0.1297
  915MOL0     C23436   4.562   3.654   4.644 -0.3403 -0.0949  0.2113
  915MOL0     C23437   4.681   3.580   4.639 -0.2724 -0.3237  0.0709
  915MOL0     O23438   4.890   3.425   4.924  0.4252  0.3309 -0.7643
  915MOL0     C23439   5.133   3.391   4.674 -0.2819 -0.5000 -0.6973
  915MOL0     C23440   5.258   3.335   4.648  0.3669  0.2906  0.1362
  915MOL0     N23441   5.840   3.059   5.245 -0.3616 -0.5236 -0.0012
  915MOL0     N23442   5.904   2.959   5.302  0.0166 -0.2180  0.0482
  915MOL0     C23443   7.130   2.975   5.378 -0.9447 -0.5822  0.6379
  915MOL0     C23444   7.268   3.005   5.351  0.3485  0.0778 -0.2146
  915MOL0     C23445   7.665   3.200   5.374  0.0879 -0.4366  0.0076
  915MOL0     C23446   7.719   3.257   5.258 -0.5124  0.0521  0.5535
  915MOL0     C23447   7.855   3.281   5.245 -0.0782 -0.5989  0.4712
  915MOL0     C23448   7.943   3.252   5.353  0.6988  0.4538 -0.2152
  915MOL0     O23449   8.077   3.270   5.326 -0.1902 -0.4751 -0.7898
  915MOL0     C23450   8.161   3.283   5.439  0.1812  1.0356 -0.8880
  915MOL0     C23451   8.304   3.307   5.389  0.0415 -0.5125  0.4821
  915MOL0     C23452   8.377   3.189   5.329  0.2567 -0.6408 -0.9720
  915MOL0     C23453   8.527   3.203   5.294  0.0691  0.0479 -0.0308
  915MOL0     C23454   8.606   3.239   5.417 -0.7484 -0.5235 -0.7492
  915MOL0     C23455   8.657   3.262   5.524 -0.3875  0.0688  0.1932
  915MOL0     C23456   7.892   3.216   5.481  0.4146  0.5282 -0.2009
  915MOL0     C23457   7.752   3.187   5.484  0.0883 -0.0441  0.1301
  915MOL0     H23458   7.230   3.344   5.298 -2.3332  0.1858 -1.5051
  915MOL0     H23459   7.004   3.289   5.362 -0.3072 -0.0210  3.3045
  915MOL0     H23460   6.819   3.197   5.497  1.0360  0.9081 -0.2916
  915MOL0     H23461   6.809   3.200   5.314 -2.5221 -0.2958 -0.7758
  915MOL0     H23462   6.679   3.003   5.504 -1.6014 -1.8621 -1.5089
  915MOL0     H23463   6.604   3.153   5.463  0.7756 -1.0688  3.7889
  915MOL0     H23464   6.608   3.076   5.214  2.3171  0.2140  0.9486
  915MOL0     H23465   6.650   2.913   5.274 -3.2664 -1.8784  2.4860
  915MOL0     H23466   6.463   2.922   5.430  2.0229 -0.8377  0.7103
  915MOL0     H23467   6.403   3.080   5.360 -2.9386 -2.0028  0.7028
  915MOL0     H23468   6.371   2.945   5.135 -0.4169 -1.1312 -1.0866
  915MOL0     H23469   6.421   2.798   5.233 -0.1195 -0.3490  0.7493
  915MOL0     H23470   6.246   2.838   5.396 -2.3319 -1.3933 -0.2805
  915MOL0     H23471   6.189   2.968   5.303  2.1567  1.1277  0.2456
  915MOL0     H23472   6.192   2.805   5.094  1.8872  0.1904  0.0224
  915MOL0     H23473   6.215   2.672   5.199 -0.5269 -0.5284 -0.2285
  915MOL0     H23474   6.021   2.739   5.334  0.8972  0.9031 -0.5379
  915MOL0     H23475   5.975   2.686   5.164 -1.1033  0.1976  0.6661
  915MOL0     H23476   5.933   2.899   4.978 -1.2354 -1.4569  0.9712
  915MOL0     H23477   5.711   3.204   5.062 -1.3456 -1.7351 -0.1338
  915MOL0     H23478   5.860   3.177   4.960  2.2285 -2.2093  0.9014
  915MOL0     H23479   5.622   2.975   4.943  1.0675 -1.1149 -0.5923
  915MOL0     H23480   5.755   2.995   4.835 -0.9433 -0.0701 -1.7710
  915MOL0     H23481   5.659   3.223   4.775 -1.7013  2.7465  2.0552
  915MOL0     H23482   5.538   3.204   4.901  0.3542 -0.0163  0.0215
  915MOL0     H23483   5.437   3.019   4.807 -0.9924 -1.9318 -4.0172
  915MOL0     H23484   5.540   3.031   4.658  0.2345 -0.9034  0.8360
  915MOL0     H23485   5.285   3.138   4.923 -3.2264 -3.3746 -0.5962
  915MOL0     H23486   5.110   3.140   5.061  0.9969  0.1313 -1.3588
  915MOL0     H23487   5.067   3.311   5.082  2.9301  0.7416  0.9912
  915MOL0     H23488   4.960   3.201   4.990 -0.0443  0.5802  1.1778
  915MOL0     H23489   4.832   3.704   4.907  3.3443  1.2792 -2.9648
  915MOL0     H23490   4.598   3.829   4.921 -1.4007 -0.8258  0.6276
  915MOL0     H23491   4.287   3.921   4.626 -1.5690 -1.2953 -1.5332
  915MOL0     H23492   4.398   3.827   4.524  1.2166 -0.0467  0.2752
  915MOL0     H23493   4.182   3.730   4.527  0.3713  1.6010 -0.5029
  915MOL0     H23494   4.291   3.623   4.622 -3.0502 -2.1025  2.1408
  915MOL0     H23495   4.111   3.831   4.758 -0.0744 -0.2446 -0.2661
  915MOL0     H23496   4.200   3.690   4.826 -0.3088 -3.8753 -1.3754
  915MOL0     H23497   4.058   3.548   4.682  1.9575 -0.5859  2.2012
  915MOL0     H23498   3.972   3.628   4.822  1.2094  0.3816  0.7807
  915MOL0     H23499   3.970   3.746   4.539  2.5230  0.0075  0.7168
  915MOL0     H23500   3.886   3.794   4.694 -2.3457 -2.0508  1.3928
  915MOL0     H23501   3.812   3.546   4.519 -2.6769 -1.0536  0.6054
  915MOL0     H23502   3.757   3.574   4.673  0.5820 -0.2963  0.0025
  915MOL0     H23503   3.687   3.732   4.409 -2.8734  0.0853 -0.4344
  915MOL0     H23504   3.690   3.815   4.567  0.4244  0.1575  0.9205
  915MOL0     H23505   3.516   3.669   4.642 -1.3153 -1.2264  0.1823
  915MOL0     H23506   3.568   3.538   4.543  0.5209  0.4817 -0.0547
  915MOL0     H23507   4.498   3.646   4.556 -0.7705 -0.6264  0.5636
  915MOL0     H23508   4.708   3.516   4.556  0.3221 -0.5593  0.4387
  915MOL0     H23509   5.105   3.467   4.602  0.8521 -0.0336 -0.6705
  915MOL0     H23510   5.313   3.358   4.557  0.3926 -0.0681  0.0592
  915MOL0     H23511   7.088   2.877   5.394 -2.2742 -0.0727  0.4190
  915MOL0     H23512   7.347   2.932   5.340 -1.5079 -1.6873 -3.1042
  915MOL0     H23513   7.650   3.261   5.175  1.4217  2.8568 -1.1175
  915MOL0     H23514   7.894   3.326   5.155 -3.7391  0.3408 -0.8450
  915MOL0     H23515   8.134   3.361   5.511  0.3754 -1.7125  2.4508
  915MOL0     H23516   8.162   3.190   5.497  1.4250  2.0515  0.8400
  915MOL0     H23517   8.363   3.340   5.475  0.9106  1.5071 -0.8099
  915MOL0     H23518   8.293   3.387   5.316 -0.5712 -1.6471 -0.7179
  915MOL0     H23519   8.337   3.162   5.230  3.1843 -1.3218 -2.0733
  915MOL0     H23520   8.357   3.101   5.391 -4.4792 -0.0573 -1.3225
  915MOL0     H23521   8.546   3.271   5.211 -1.3925 -1.6992 -1.8756
  915MOL0     H23522   8.567   3.107   5.261 -0.3383  0.0555 -0.5490
  915MOL0     H23523   8.680   3.290   5.624  1.7217  0.2921 -0.3061
  915MOL0     H23524   7.956   3.197   5.567  0.5274 -0.0528 -0.4095
  915MOL0     H23525   7.714   3.143   5.576 -2.3847  1.1637 -0.2429
  916MOL0     O23526   7.335   9.281   6.022  0.3594 -0.0798  0.5768
  916MOL0     C23527   7.412   9.206   5.956 -0.0312  0.2832 -0.5624
  916MOL0     O23528   7.372   9.114   5.862 -0.2815  0.0647  0.3883
  916MOL0     C23529   7.240   9.095   5.830 -0.2092 -0.4728  0.9729
  916MOL0     C23530   7.129   9.110   5.912  0.3329  0.2230 -0.4945
  916MOL0     C23531   7.001   9.084   5.858 -0.2402 -0.7741 -0.4969
  916MOL0     C23532   6.985   9.031   5.731 -0.1931 -0.0067 -0.2092
  916MOL0     O23533   6.859   9.013   5.677  0.0743 -0.3578  0.0996
  916MOL0     C23534   6.746   8.973   5.760  0.3438 -1.1217  0.4526
  916MOL0     C23535   6.624   8.923   5.683  0.2989  0.4943 -1.2427
  916MOL0     C23536   6.523   8.859   5.788 -0.2594  0.2417 -0.5235
  916MOL0     C23537   6.396   8.816   5.735  0.3442  0.3040 -0.8756
  916MOL0     C23538   6.281   8.816   5.841 -0.0069  0.1413  0.8168
  916MOL0     C23539   6.149   8.744   5.792  0.4725 -0.2026 -0.5854
  916MOL0     C23540   6.074   8.816   5.681  0.2276  0.8711  0.2404
  916MOL0     C23541   5.999   8.937   5.733  0.4275  0.6062  0.4105
  916MOL0     N23542   5.933   9.014   5.626  0.3969  0.4039  0.3040
  916MOL0     C23543   5.998   9.111   5.560 -0.1119 -0.2433  0.4644
  916MOL0     C23544   5.920   9.142   5.455  1.6028 -0.6338  0.3096
  916MOL0     C23545   5.956   9.239   5.336 -0.1954 -0.0759 -0.5402
  916MOL0     C23546   5.854   9.286   5.238  0.3802 -0.3167 -0.0674
  916MOL0     C23547   5.922   9.358   5.118 -0.3182 -0.5098  0.1636
  916MOL0     C23548   5.815   9.408   5.017  0.9415  0.1065  0.5032
  916MOL0     O23549   5.783   9.302   4.922  0.3101  0.1584 -0.1871
  916MOL0     C23550   5.699   9.346   4.817  0.3679 -0.2937  0.1188
  916MOL0     C23551   5.756   9.371   4.688  0.1669 -0.0721  0.5434
  916MOL0     C23552   5.692   9.415   4.569  0.0739  0.3033  0.1297
  916MOL0     C23553   5.765   9.422   4.435 -0.4607  0.9695 -0.0476
  916MOL0     C23554   5.552   9.435   4.588  0.8071  0.9196 -0.2592
  916MOL0     C23555   5.464   9.472   4.474 -0.6755 -1.3335 -0.2454
  916MOL0     O23556   5.490   9.420   4.353  0.0635 -0.4776 -0.3801
  916MOL0     C23557   5.399   9.420   4.247  0.1812 -0.8989  0.2024
  916MOL0     C23558   5.377   9.539   4.175  0.3805 -0.2868  0.7335
  916MOL0     C23559   5.288   9.540   4.071 -0.1186 -0.2102 -0.5718
  916MOL0     C23560   5.232   9.420   4.019  0.6581 -0.2186 -0.7718
  916MOL0     O23561   5.156   9.424   3.906  0.4194  0.5022  1.3012
  916MOL0     C23562   5.145   9.312   3.820  0.0385  0.2134  0.8335
  916MOL0     C23563   5.010   9.249   3.837  1.5134  0.0471  0.4360
  916MOL0     C23564   4.889   9.348   3.838 -0.8505  0.9304 -0.2357
  916MOL0     C23565   4.765   9.267   3.841 -0.0390 -0.3012 -0.1095
  916MOL0     C23566   4.649   9.358   3.862 -0.7242 -0.3500 -0.4596
  916MOL0     C23567   4.517   9.299   3.805  0.4717 -0.3608 -0.5018
  916MOL0     C23568   4.476   9.176   3.892  0.4793  0.5184 -0.3660
  916MOL0     C23569   4.358   9.108   3.832 -0.7060  0.3693  0.8081
  916MOL0    Cl23570   4.260   9.017   3.948  0.1590  0.1492  0.5324
  916MOL0     C23571   5.260   9.305   4.091  0.2793  0.4009  0.5059
  916MOL0     C23572   5.339   9.301   4.203  0.7170 -0.5696 -0.2225
  916MOL0     O23573   5.362   9.543   4.500 -0.6135  0.2207 -0.5725
  916MOL0     C23574   5.490   9.405   4.713  0.9724 -0.2164 -0.7497
  916MOL0     C23575   5.562   9.364   4.826  0.5272 -0.0326 -0.2907
  916MOL0     N23576   5.797   9.084   5.478 -0.2717  0.5370  1.1276
  916MOL0     N23577   5.809   8.999   5.574  0.2913 -0.6119 -0.2874
  916MOL0     C23578   7.093   9.002   5.652  0.0222 -0.1492  0.1061
  916MOL0     C23579   7.220   9.041   5.695 -0.4459  1.0287  0.6072
  916MOL0     C23580   7.560   9.217   5.987  1.0727  0.5480  0.2685
  916MOL0     C23581   7.648   9.146   5.905 -0.3225  0.4783 -0.0061
  916MOL0     C23582   7.788   9.139   5.939 -0.3785  0.5650  0.3216
  916MOL0     C23583   7.838   9.206   6.052  0.0139  0.3651  0.2434
  916MOL0     O23584   7.969   9.202   6.085  0.0067 -0.4290 -0.2225
  916MOL0     C23585   8.063   9.168   5.985 -0.3857 -0.2004 -0.1647
  916MOL0     C23586   8.188   9.228   6.058 -0.4484  0.1423  0.0992
  916MOL0     C23587   8.219   9.140   6.186  0.6534  0.3349 -0.1966
  916MOL0     C23588   8.333   9.197   6.276  0.3823 -0.2165 -0.4887
  916MOL0     C23589   8.458   9.235   6.217 -0.1585 -0.4896 -0.5466
  916MOL0     C23590   8.565   9.258   6.174  0.2493 -0.7682 -0.2315
  916MOL0     C23591   7.750   9.263   6.140 -0.9844  0.0577  0.2096
  916MOL0     C23592   7.615   9.275   6.108  0.1649  0.4684  0.3857
  916MOL0     H23593   7.132   9.167   6.005 -0.8025 -2.1829  1.1188
  916MOL0     H23594   6.915   9.107   5.920 -0.2436 -0.5072 -0.5995
  916MOL0     H23595   6.781   8.891   5.823  2.4212 -1.7736 -1.4221
  916MOL0     H23596   6.712   9.048   5.833  2.0276  0.1940 -0.0469
  916MOL0     H23597   6.579   9.004   5.625  0.8059  0.1618 -2.1139
  916MOL0     H23598   6.654   8.840   5.619  0.0552 -1.8244  1.4350
  916MOL0     H23599   6.568   8.771   5.834 -2.8019 -0.5540  0.6093
  916MOL0     H23600   6.503   8.938   5.861 -1.6911  1.1418 -1.8154
  916MOL0     H23601   6.364   8.878   5.651 -0.0126  2.5756  0.8427
  916MOL0     H23602   6.407   8.712   5.704  3.5515  0.2202  0.2048
  916MOL0     H23603   6.313   8.764   5.932  1.0444  1.9122  1.5252
  916MOL0     H23604   6.261   8.919   5.873  3.4601  0.8299  1.1514
  916MOL0     H23605   6.183   8.642   5.771  0.6529 -0.3811  0.4798
  916MOL0     H23606   6.088   8.739   5.883 -0.6560 -1.2316 -1.3710
  916MOL0     H23607   6.135   8.841   5.594 -2.3456  0.7214 -1.7300
  916MOL0     H23608   6.002   8.747   5.634  0.8520 -1.2592  2.2543
  916MOL0     H23609   6.055   9.007   5.795 -3.0323  2.2709  1.9510
  916MOL0     H23610   5.928   8.890   5.803 -0.1467 -2.5032 -2.0204
  916MOL0     H23611   6.099   9.146   5.573 -0.1296 -0.2171  0.5343
  916MOL0     H23612   6.007   9.322   5.385 -0.1122  0.3880 -1.3979
  916MOL0     H23613   6.026   9.184   5.272 -0.9736 -0.4680 -1.0784
  916MOL0     H23614   5.792   9.361   5.287 -0.7871 -1.2239 -0.1137
  916MOL0     H23615   5.796   9.197   5.214 -0.6672 -0.3258  2.2211
  916MOL0     H23616   6.002   9.296   5.075  0.0395  0.4526 -0.5924
  916MOL0     H23617   5.978   9.443   5.156  0.6995  0.0110 -2.2764
  916MOL0     H23618   5.847   9.496   4.961 -0.5640  1.1632  1.2381
  916MOL0     H23619   5.723   9.430   5.073  0.7224 -0.3746  0.3458
  916MOL0     H23620   5.864   9.361   4.689  0.3065  0.9197 -1.1722
  916MOL0     H23621   5.749   9.333   4.373  1.1657  2.1273 -2.2787
  916MOL0     H23622   5.728   9.507   4.376  0.9386 -0.6956 -3.6381
  916MOL0     H23623   5.874   9.426   4.445 -0.6293  1.3676  2.2745
  916MOL0     H23624   5.417   9.634   4.211  3.8398 -1.0385 -0.7215
  916MOL0     H23625   5.271   9.635   4.022  2.3838 -0.4547 -2.1077
  916MOL0     H23626   5.144   9.355   3.719 -2.3726 -2.4155 -0.4122
  916MOL0     H23627   5.231   9.244   3.817  0.3877  0.7023 -1.1721
  916MOL0     H23628   4.996   9.183   3.752 -3.6411  2.2184 -0.7659
  916MOL0     H23629   5.010   9.189   3.929  1.1942  0.7233  0.8854
  916MOL0     H23630   4.889   9.403   3.743 -1.9534  0.8139 -0.3217
  916MOL0     H23631   4.905   9.419   3.919  1.1884  0.5330 -0.2374
  916MOL0     H23632   4.757   9.225   3.740  2.5681  3.8070 -2.2848
  916MOL0     H23633   4.755   9.184   3.912 -0.1589  1.4582  2.0223
  916MOL0     H23634   4.666   9.453   3.810  0.0510 -0.9805 -1.4069
  916MOL0     H23635   4.648   9.373   3.970 -1.6943  0.3426 -0.5569
  916MOL0     H23636   4.437   9.371   3.824 -1.5653 -2.3510 -1.0334
  916MOL0     H23637   4.520   9.265   3.701  0.5874 -0.2056 -0.5494
  916MOL0     H23638   4.478   9.208   3.997  3.6048  1.9590 -0.7688
  916MOL0     H23639   4.557   9.103   3.894  0.2128  0.2181  1.5520
  916MOL0     H23640   4.374   9.049   3.741 -3.3298  1.2741 -0.3475
  916MOL0     H23641   4.295   9.189   3.794  1.0969  1.1203 -0.7908
  916MOL0     H23642   5.211   9.217   4.052 -0.4454  0.4834  1.2005
  916MOL0     H23643   5.368   9.205   4.245  2.5984  0.0862  0.0573
  916MOL0     H23644   5.383   9.413   4.722  1.0998  2.2218 -0.7445
  916MOL0     H23645   5.513   9.333   4.918  1.6255 -1.1947 -0.0727
  916MOL0     H23646   7.073   8.954   5.557  2.0641 -0.1654 -0.3579
  916MOL0     H23647   7.303   9.023   5.628 -1.2709 -0.2172 -0.1142
  916MOL0     H23648   7.609   9.099   5.815 -1.2362 -1.6003  1.3936
  916MOL0     H23649   7.856   9.070   5.889  0.6241  0.5499  1.6299
  916MOL0     H23650   8.064   9.060   5.966 -2.4497 -0.5545  1.3999
  916MOL0     H23651   8.050   9.218   5.889  2.2485  0.4928 -0.2287
  916MOL0     H23652   8.150   9.328   6.083 -2.2702 -0.1906 -1.1941
  916MOL0     H23653   8.272   9.239   5.989  1.1970  0.1544  2.0100
  916MOL0     H23654   8.261   9.048   6.146  2.4902  0.7193  0.7283
  916MOL0     H23655   8.134   9.126   6.254 -0.2600 -2.9839 -1.8300
  916MOL0     H23656   8.348   9.122   6.354 -1.0408 -0.5524 -0.5122
  916MOL0     H23657   8.293   9.289   6.320  2.7456 -0.1135  1.6610
  916MOL0     H23658   8.662   9.282   6.135 -0.6441  1.0780 -1.5169
  916MOL0     H23659   7.786   9.305   6.234 -2.1470 -0.2752  0.8219
  916MOL0     H23660   7.559   9.340   6.174 -1.3364  1.3691 -1.6446
  917MOL0     O23661  11.254   6.162   1.762 -0.2833 -0.3595  0.4450
  917MOL0     C23662  11.259   6.271   1.710 -0.0432 -0.2960 -0.1969
  917MOL0     O23663  11.375   6.325   1.661 -1.0643 -0.1304 -0.6637
  917MOL0     C23664  11.501   6.273   1.659 -0.1591 -0.0996  0.9671
  917MOL0     C23665  11.586   6.321   1.555  0.7754  0.2300  0.4805
  917MOL0     C23666  11.711   6.266   1.532 -0.7291  0.6510  0.5566
  917MOL0     C23667  11.766   6.171   1.622 -0.0283  0.1002  0.2444
  917MOL0     O23668  11.896   6.130   1.599  0.5780 -0.1343  0.2266
  917MOL0     C23669  11.967   6.079   1.707  0.1089  0.1483  0.0590
  917MOL0     C23670  12.114   6.059   1.653 -0.2083 -0.1978  0.2558
  917MOL0     C23671  12.202   5.971   1.747 -0.4535  0.4386 -1.1788
  917MOL0     C23672  12.354   6.010   1.738  0.0054  0.6728 -0.0746
  917MOL0     C23673  12.455   5.906   1.786  1.2095 -0.1026 -0.5560
  917MOL0     C23674  12.594   5.965   1.766  0.0135  0.0815  0.6499
  917MOL0     C23675  12.642   5.952   1.627  0.7615  0.0638  0.2413
  917MOL0     C23676  12.791   5.992   1.616 -0.3833 -0.4232  0.4016
  917MOL0     N23677  12.836   6.133   1.653  0.6151  0.2356 -0.6593
  917MOL0     C23678  12.849   6.236   1.569 -0.6360  1.2033  0.3237
  917MOL0     C23679  12.870   6.349   1.646 -0.4163  0.2345  0.6883
  917MOL0     C23680  12.885   6.491   1.615  0.3377  0.3330 -0.8304
  917MOL0     C23681  12.768   6.578   1.596 -0.1871  0.0695  0.0687
  917MOL0     C23682  12.705   6.596   1.737 -0.1587  0.3162 -0.2225
  917MOL0     C23683  12.585   6.690   1.733  0.6101  0.6259 -0.5839
  917MOL0     O23684  12.557   6.746   1.862  0.3258  0.4586 -0.0521
  917MOL0     C23685  12.430   6.791   1.889 -0.2125 -0.5916  0.2657
  917MOL0     C23686  12.409   6.857   2.016 -0.3585  0.3141  0.1525
  917MOL0     C23687  12.286   6.907   2.059  1.3780  0.2436 -0.0576
  917MOL0     C23688  12.272   6.979   2.194  0.0581  0.2842  0.1011
  917MOL0     C23689  12.178   6.894   1.976  0.5696  0.6735  0.9381
  917MOL0     C23690  12.040   6.947   2.005  0.6086  1.3317 -0.5722
  917MOL0     O23691  11.949   6.934   1.908 -0.1587  0.5653 -0.0461
  917MOL0     C23692  11.817   6.977   1.921 -0.3680 -0.1784 -0.5070
  917MOL0     C23693  11.767   7.102   1.888  0.3640 -0.5369  0.2623
  917MOL0     C23694  11.630   7.126   1.895  0.7948 -0.6760  0.1333
  917MOL0     C23695  11.544   7.034   1.953  0.0946 -0.5492 -0.1993
  917MOL0     O23696  11.406   7.056   1.949 -0.0299  0.0967  0.1574
  917MOL0     C23697  11.356   7.112   1.823  1.0246  0.6898  0.6080
  917MOL0     C23698  11.214   7.071   1.811  0.0907 -0.1433  0.5541
  917MOL0     C23699  11.157   7.080   1.669 -0.3162  0.0844 -0.0982
  917MOL0     C23700  11.007   7.073   1.668  1.4331  0.1777 -0.2137
  917MOL0     C23701  10.951   7.102   1.523  0.7112  0.0632  0.0601
  917MOL0     C23702  10.949   6.990   1.411 -0.9456 -1.4061 -0.6564
  917MOL0     C23703  10.804   6.953   1.380 -0.5094  0.0949  0.9337
  917MOL0     C23704  10.808   6.862   1.264 -0.6219  0.0617 -0.2860
  917MOL0    Cl23705  10.647   6.800   1.248  0.4342  0.5330  0.2129
  917MOL0     C23706  11.591   6.909   1.995 -0.2330  0.3992  0.2024
  917MOL0     C23707  11.727   6.883   1.971  0.5484  0.1030  0.4985
  917MOL0     O23708  12.012   7.005   2.115 -0.2442  0.8132  0.1639
  917MOL0     C23709  12.193   6.818   1.859 -0.0560  0.1224  1.0202
  917MOL0     C23710  12.313   6.774   1.814 -0.2650  0.3471 -0.1218
  917MOL0     N23711  12.892   6.301   1.771 -0.0446 -0.6020 -1.0287
  917MOL0     N23712  12.881   6.178   1.773  0.5235  0.6843 -0.1351
  917MOL0     C23713  11.686   6.133   1.736  0.4834  0.3497 -0.6071
  917MOL0     C23714  11.552   6.170   1.747  0.4833 -0.2935 -0.9092
  917MOL0     C23715  11.131   6.349   1.701  0.4050  0.0073 -0.6791
  917MOL0     C23716  11.142   6.482   1.650 -0.0256 -0.2110  0.0258
  917MOL0     C23717  11.029   6.565   1.647 -0.0334 -0.0015 -0.0769
  917MOL0     C23718  10.905   6.520   1.696  0.3079 -0.3606  0.0900
  917MOL0     O23719  10.806   6.610   1.657 -0.4090 -0.1234 -0.8532
  917MOL0     C23720  10.676   6.580   1.704  0.1474 -0.7965 -0.3346
  917MOL0     C23721  10.658   6.597   1.849  0.1775  0.6228  0.4870
  917MOL0     C23722  10.519   6.551   1.908 -0.9573 -0.7063  1.1316
  917MOL0     C23723  10.482   6.411   1.871 -0.4156  0.2235 -0.0916
  917MOL0     C23724  10.555   6.308   1.946 -0.3326  0.8990  0.0736
  917MOL0     C23725  10.614   6.220   2.000 -0.7207  0.5983  0.0267
  917MOL0     C23726  10.903   6.399   1.763  0.0703  0.1713  0.0923
  917MOL0     C23727  11.009   6.314   1.761  0.1893  0.8750 -0.6045
  917MOL0     H23728  11.534   6.398   1.498 -0.7781 -0.6203  0.7159
  917MOL0     H23729  11.770   6.307   1.452 -0.5894  1.2158  0.9441
  917MOL0     H23730  11.971   6.145   1.794  3.4858  0.4467 -0.2028
  917MOL0     H23731  11.934   5.979   1.737 -0.8736 -0.2086 -2.0027
  917MOL0     H23732  12.116   6.013   1.553 -0.0984  1.1191 -0.3700
  917MOL0     H23733  12.172   6.150   1.634 -0.7995 -0.0372 -0.8746
  917MOL0     H23734  12.167   5.986   1.850 -1.6805 -3.8049 -0.8191
  917MOL0     H23735  12.194   5.864   1.728  0.8837 -0.0159  0.5273
  917MOL0     H23736  12.386   6.033   1.636 -2.6712 -1.5998 -1.6077
  917MOL0     H23737  12.364   6.096   1.805 -3.9432  0.5430  0.9796
  917MOL0     H23738  12.439   5.888   1.893  3.9000  3.1418  0.5724
  917MOL0     H23739  12.454   5.813   1.728  1.8527 -1.7588  1.8952
  917MOL0     H23740  12.598   6.069   1.800  0.3316 -0.0496  1.0294
  917MOL0     H23741  12.673   5.924   1.830 -1.1625 -0.0139  2.0815
  917MOL0     H23742  12.627   5.848   1.595 -0.8689 -0.1613  1.6027
  917MOL0     H23743  12.586   6.012   1.554  3.4046 -0.1788 -2.1467
  917MOL0     H23744  12.832   5.971   1.516  1.8603  0.8707  0.9776
  917MOL0     H23745  12.852   5.920   1.672  0.5222 -2.0296 -2.4271
  917MOL0     H23746  12.839   6.233   1.461  1.2612 -0.0741  0.1351
  917MOL0     H23747  12.947   6.531   1.696  0.4465 -2.4277  0.5434
  917MOL0     H23748  12.939   6.495   1.520 -0.7295  1.1094 -1.4395
  917MOL0     H23749  12.706   6.539   1.516  0.0269  0.7706 -0.4490
  917MOL0     H23750  12.796   6.680   1.567 -1.8525  0.6477  0.3779
  917MOL0     H23751  12.765   6.636   1.819 -3.0955 -0.6864  2.6429
  917MOL0     H23752  12.678   6.496   1.773  1.6492  0.5108  1.8833
  917MOL0     H23753  12.501   6.627   1.701  1.4039 -0.1433 -1.2094
  917MOL0     H23754  12.606   6.777   1.671  1.7845 -1.6936 -3.6953
  917MOL0     H23755  12.497   6.872   2.078 -1.1369  0.8973  1.1384
  917MOL0     H23756  12.241   7.083   2.186 -0.8333  0.0830  0.8744
  917MOL0     H23757  12.193   6.927   2.249  0.7164  0.8282  1.5986
  917MOL0     H23758  12.361   6.962   2.255  0.0539 -0.4859 -0.0901
  917MOL0     H23759  11.837   7.178   1.855  0.0827 -0.5105 -0.2787
  917MOL0     H23760  11.599   7.227   1.872  2.1433 -0.7651 -2.3739
  917MOL0     H23761  11.368   7.220   1.814 -0.9790  0.8554 -0.6424
  917MOL0     H23762  11.406   7.066   1.737 -1.1280 -0.9687  0.1597
  917MOL0     H23763  11.205   6.972   1.855 -1.9536 -0.2148  0.0794
  917MOL0     H23764  11.162   7.145   1.873 -0.7410  0.2740 -0.5905
  917MOL0     H23765  11.195   6.989   1.623  2.4548  2.1546 -2.1793
  917MOL0     H23766  11.195   7.160   1.606  0.1830 -2.6327 -3.5697
  917MOL0     H23767  10.979   6.973   1.703 -1.0196  0.4731 -1.1206
  917MOL0     H23768  10.965   7.151   1.732  1.4619  1.7367 -2.0150
  917MOL0     H23769  11.006   7.187   1.481  2.4764  0.6791  3.2790
  917MOL0     H23770  10.845   7.127   1.535  0.6068 -0.1361 -0.3917
  917MOL0     H23771  10.996   7.034   1.322 -0.9860  2.1873  0.9323
  917MOL0     H23772  11.006   6.906   1.450 -0.5251 -2.1871 -2.8072
  917MOL0     H23773  10.749   7.046   1.362  1.2272  0.5393 -3.3202
  917MOL0     H23774  10.744   6.904   1.457 -3.2409  0.7369 -0.6304
  917MOL0     H23775  10.880   6.781   1.281 -2.1474 -1.0290  1.3731
  917MOL0     H23776  10.836   6.916   1.173 -1.8714 -0.2905 -0.8947
  917MOL0     H23777  11.520   6.838   2.036 -0.6698  0.9981  0.5071
  917MOL0     H23778  11.774   6.788   1.991  0.6357 -0.5088 -2.1827
  917MOL0     H23779  12.101   6.794   1.806  0.4143  1.2986 -0.3844
  917MOL0     H23780  12.318   6.712   1.725  3.4683 -1.4511  1.1166
  917MOL0     H23781  11.711   6.054   1.807 -3.3984  1.3867  2.2484
  917MOL0     H23782  11.483   6.123   1.816  0.1777  2.8959  1.1673
  917MOL0     H23783  11.235   6.520   1.609 -0.4385  0.3688 -0.3959
  917MOL0     H23784  11.044   6.650   1.582 -2.5945 -1.0661 -2.2593
  917MOL0     H23785  10.607   6.653   1.659  2.1526  0.4833 -1.4723
  917MOL0     H23786  10.652   6.475   1.685  0.0673 -0.4492 -2.3465
  917MOL0     H23787  10.659   6.705   1.867 -0.8854  0.7102  0.0950
  917MOL0     H23788  10.734   6.541   1.904  0.6650 -0.1887 -0.9828
  917MOL0     H23789  10.438   6.614   1.868  0.0388  1.4453  2.3447
  917MOL0     H23790  10.516   6.571   2.015  0.8317  1.4161  0.8514
  917MOL0     H23791  10.486   6.408   1.762  6.2118  1.8336 -0.3247
  917MOL0     H23792  10.377   6.398   1.900 -1.4159  1.4023 -2.8890
  917MOL0     H23793  10.677   6.139   2.031 -1.3374 -0.0726 -0.4392
  917MOL0     H23794  10.811   6.369   1.811  0.7424 -2.0963  0.0709
  917MOL0     H23795  11.006   6.215   1.805  2.2303  1.1027  0.1495
  918MOL0     O23796   1.844   8.585   7.195 -0.0636 -0.0313 -0.4641
  918MOL0     C23797   1.864   8.471   7.235  0.2908  0.2230  0.7334
  918MOL0     O23798   1.770   8.386   7.274  0.3750  0.2721 -0.4254
  918MOL0     C23799   1.642   8.432   7.274 -0.2573  0.1860  0.5089
  918MOL0     C23800   1.553   8.430   7.170  0.1856  0.0625  0.3887
  918MOL0     C23801   1.421   8.464   7.183  0.7159 -0.2473 -0.3692
  918MOL0     C23802   1.371   8.507   7.308 -0.2370 -0.5912  0.0282
  918MOL0     O23803   1.246   8.552   7.338  0.1400 -0.2992 -0.0770
  918MOL0     C23804   1.144   8.531   7.235 -0.4218  0.2980 -0.0611
  918MOL0     C23805   1.010   8.566   7.310  0.6210  0.0875 -0.1635
  918MOL0     C23806   0.881   8.512   7.226  0.1786 -0.1702 -0.0003
  918MOL0     C23807   0.833   8.368   7.261 -0.9079  0.0449  0.0704
  918MOL0     C23808   0.689   8.339   7.216 -0.2538 -0.1807  0.5440
  918MOL0     C23809   0.685   8.393   7.067  1.3241 -0.0915 -0.6522
  918MOL0     C23810   0.577   8.314   6.977 -0.5750  0.3676  0.0778
  918MOL0     C23811   0.437   8.327   7.027 -0.2455 -0.0139 -0.7123
  918MOL0     N23812   0.336   8.307   6.920  0.2742  0.3463  0.3847
  918MOL0     C23813   0.325   8.195   6.848 -0.6415 -0.4763  0.3352
  918MOL0     C23814   0.203   8.208   6.788  0.1900 -0.2644  0.2771
  918MOL0     C23815   0.130   8.120   6.696  1.1072  0.2207 -0.4711
  918MOL0     C23816   0.005   8.189   6.618 -0.4289 -0.1315 -0.0394
  918MOL0     C23817   0.054   8.284   6.505  0.5532  0.0484 -0.3001
  918MOL0     C23818  -0.068   8.321   6.427  0.4817  0.0592 -1.4125
  918MOL0     O23819  -0.155   8.411   6.497  0.6775 -0.6653 -0.2575
  918MOL0     C23820  -0.289   8.419   6.480 -0.7170 -0.0664  0.1285
  918MOL0     C23821  -0.372   8.321   6.418 -0.0727  0.4902 -0.0211
  918MOL0     C23822  -0.514   8.318   6.428 -0.8801 -0.8997 -0.0683
  918MOL0     C23823  -0.588   8.198   6.385  0.4608 -0.0451 -1.0043
  918MOL0     C23824  -0.573   8.424   6.492  0.0268  0.0082 -0.4000
  918MOL0     C23825  -0.720   8.439   6.518  1.1801  0.3377  0.6060
  918MOL0     O23826  -0.763   8.566   6.523 -0.5349  0.4703  0.3936
  918MOL0     C23827  -0.898   8.591   6.522 -0.0966  0.8234 -1.0754
  918MOL0     C23828  -0.946   8.697   6.595  0.2423 -0.3711 -0.0927
  918MOL0     C23829  -1.078   8.741   6.593 -0.1287 -0.9837  0.0238
  918MOL0     C23830  -1.168   8.679   6.501 -0.7798 -0.7238 -0.6770
  918MOL0     O23831  -1.299   8.727   6.480  0.1395  0.4917  0.4488
  918MOL0     C23832  -1.370   8.771   6.599 -0.0738  0.1239 -0.0693
  918MOL0     C23833  -1.512   8.807   6.572 -0.4376 -0.2171 -0.3378
  918MOL0     C23834  -1.606   8.692   6.532 -0.1038  0.8891 -1.1799
  918MOL0     C23835  -1.754   8.736   6.509 -1.2033 -0.2773 -0.3025
  918MOL0     C23836  -1.854   8.620   6.467 -0.0838 -1.0889  0.1059
  918MOL0     C23837  -1.839   8.490   6.552 -0.0319 -1.7092  0.4861
  918MOL0     C23838  -1.856   8.531   6.704 -0.7396  0.2211  0.3919
  918MOL0     C23839  -1.884   8.409   6.795 -0.6554 -0.2669  0.3556
  918MOL0    Cl23840  -1.749   8.300   6.791  0.1213  0.0102 -0.3410
  918MOL0     C23841  -1.127   8.571   6.421  1.3398 -0.0859 -0.5477
  918MOL0     C23842  -0.987   8.526   6.439  0.2610 -1.0157 -0.2367
  918MOL0     O23843  -0.794   8.334   6.525 -0.3207  0.5917  0.5196
  918MOL0     C23844  -0.493   8.531   6.546 -0.1670  0.5115 -0.0894
  918MOL0     C23845  -0.351   8.527   6.538  0.0276  0.9569 -0.0940
  918MOL0     N23846   0.156   8.332   6.806  0.5189 -0.2462 -0.4514
  918MOL0     N23847   0.226   8.388   6.899  0.2931 -0.1566  0.2924
  918MOL0     C23848   1.466   8.508   7.417 -0.2834  0.5902 -1.3564
  918MOL0     C23849   1.599   8.470   7.395  0.1613  0.8067 -0.6003
  918MOL0     C23850   2.003   8.417   7.230  0.9310  0.3441  0.0477
  918MOL0     C23851   2.114   8.496   7.224  0.4249 -0.5675  0.1686
  918MOL0     C23852   2.247   8.448   7.221 -0.9902  0.3580 -0.1013
  918MOL0     C23853   2.263   8.312   7.221  0.5011 -0.4709  0.9858
  918MOL0     O23854   2.390   8.262   7.213  0.2199  0.3239  0.4642
  918MOL0     C23855   2.441   8.268   7.078 -0.1226  0.1816 -0.4179
  918MOL0     C23856   2.562   8.356   7.054 -0.2960 -0.1249  0.1514
  918MOL0     C23857   2.688   8.316   7.137 -0.1640 -0.3225  0.3387
  918MOL0     C23858   2.817   8.377   7.078  0.2728  1.3374  0.0037
  918MOL0     C23859   2.822   8.522   7.112  0.6101 -0.4359 -0.4053
  918MOL0     C23860   2.815   8.644   7.122  0.6497  0.1388  0.9428
  918MOL0     C23861   2.155   8.233   7.233  1.7654  0.6383  0.5955
  918MOL0     C23862   2.023   8.275   7.246 -0.1708 -0.4041  1.0497
  918MOL0     H23863   1.591   8.389   7.077  1.8596  0.1862  0.9765
  918MOL0     H23864   1.359   8.462   7.093 -0.7332  0.1818  0.5946
  918MOL0     H23865   1.162   8.602   7.154  1.2725 -1.8883 -1.7148
  918MOL0     H23866   1.136   8.431   7.192  1.2903  1.0977 -2.4953
  918MOL0     H23867   1.011   8.520   7.409 -1.6055  1.3563  0.5091
  918MOL0     H23868   1.007   8.674   7.330  0.3428 -0.2412  1.7754
  918MOL0     H23869   0.793   8.575   7.238  0.1480  0.3565 -2.4695
  918MOL0     H23870   0.908   8.516   7.120 -1.3848  1.0816 -0.3878
  918MOL0     H23871   0.902   8.297   7.214 -0.9585 -0.5516  0.8677
  918MOL0     H23872   0.845   8.359   7.369 -1.1718 -0.4544  0.0630
  918MOL0     H23873   0.674   8.231   7.218  2.8416 -0.7057  0.7916
  918MOL0     H23874   0.615   8.382   7.283  0.3962  3.3144 -0.7451
  918MOL0     H23875   0.652   8.497   7.074  0.9133 -0.2785  0.3723
  918MOL0     H23876   0.780   8.382   7.015  1.1743  0.6868 -1.1085
  918MOL0     H23877   0.582   8.349   6.874  0.2508  0.5021  0.1572
  918MOL0     H23878   0.609   8.211   6.992  1.2910  1.0446  1.2366
  918MOL0     H23879   0.415   8.431   7.053 -0.7470 -0.7196  1.9726
  918MOL0     H23880   0.422   8.262   7.113  0.8120  1.7572  0.9074
  918MOL0     H23881   0.391   8.112   6.825 -0.5289  0.1595 -1.8701
  918MOL0     H23882   0.202   8.073   6.627  1.5938 -0.1313  0.2629
  918MOL0     H23883   0.082   8.037   6.748  1.5059 -1.1862 -2.2383
  918MOL0     H23884  -0.062   8.232   6.694  1.9802  2.0549  1.0108
  918MOL0     H23885  -0.048   8.106   6.571  0.4646  0.2535 -1.8100
  918MOL0     H23886   0.116   8.221   6.440  3.6051  0.7865  1.6435
  918MOL0     H23887   0.108   8.370   6.546 -1.6070 -1.3037  6.5912
  918MOL0     H23888  -0.125   8.233   6.394  1.2259 -0.5341 -1.1441
  918MOL0     H23889  -0.037   8.373   6.336  0.4486  1.1061 -0.8436
  918MOL0     H23890  -0.327   8.236   6.368  2.8292  3.6047 -3.2127
  918MOL0     H23891  -0.631   8.147   6.471 -1.9855  1.6242 -1.1375
  918MOL0     H23892  -0.672   8.226   6.321  1.3490  1.1621 -1.6877
  918MOL0     H23893  -0.533   8.119   6.333  2.3890 -2.1050  3.6183
  918MOL0     H23894  -0.877   8.751   6.660 -0.5229  0.3451  0.1390
  918MOL0     H23895  -1.107   8.819   6.663  2.8054  1.4261 -1.2394
  918MOL0     H23896  -1.378   8.695   6.678 -0.5866 -0.9979 -1.1630
  918MOL0     H23897  -1.329   8.864   6.639 -1.5383  0.5422  0.5413
  918MOL0     H23898  -1.544   8.855   6.665  1.1387  4.0026 -1.7485
  918MOL0     H23899  -1.518   8.890   6.502 -0.6134 -1.1061 -1.4048
  918MOL0     H23900  -1.601   8.620   6.614 -1.5433  1.1007 -0.8855
  918MOL0     H23901  -1.571   8.641   6.442 -2.3243 -1.7789 -0.6539
  918MOL0     H23902  -1.784   8.778   6.605 -0.0884  0.7962 -0.3939
  918MOL0     H23903  -1.763   8.822   6.441 -1.6186 -0.6965 -0.7869
  918MOL0     H23904  -1.843   8.587   6.364 -1.7771 -0.6738 -0.2395
  918MOL0     H23905  -1.958   8.654   6.477  0.5433  0.5290  1.6552
  918MOL0     H23906  -1.923   8.425   6.527 -2.5818  1.7377 -0.7454
  918MOL0     H23907  -1.743   8.452   6.517  1.3831  2.9617 -1.5752
  918MOL0     H23908  -1.940   8.601   6.706  0.8329  2.1609  1.5513
  918MOL0     H23909  -1.767   8.583   6.738 -1.5427  1.6634  0.3588
  918MOL0     H23910  -1.970   8.366   6.742  0.4814 -0.5330 -1.3320
  918MOL0     H23911  -1.911   8.430   6.899 -0.5889 -0.4256  0.4066
  918MOL0     H23912  -1.198   8.512   6.364  2.4985 -2.8317  0.6530
  918MOL0     H23913  -0.950   8.446   6.376  1.2754 -1.5477  0.9751
  918MOL0     H23914  -0.535   8.623   6.583 -1.0344  0.8670 -1.8367
  918MOL0     H23915  -0.291   8.611   6.572 -0.5159  1.5645 -0.6006
  918MOL0     H23916   1.444   8.544   7.517  0.4308  0.4549 -1.1438
  918MOL0     H23917   1.665   8.457   7.480 -2.6364  0.8185  1.7386
  918MOL0     H23918   2.100   8.603   7.213 -1.1301 -0.6929  0.6397
  918MOL0     H23919   2.334   8.512   7.219 -1.1360  0.5743  0.2670
  918MOL0     H23920   2.466   8.168   7.043  0.6786  0.6506 -1.2326
  918MOL0     H23921   2.368   8.302   7.004 -0.0398 -0.7806 -0.9574
  918MOL0     H23922   2.527   8.457   7.077  1.2301 -0.1050  2.7083
  918MOL0     H23923   2.588   8.344   6.948  1.8024  2.4513  0.2796
  918MOL0     H23924   2.710   8.210   7.124 -0.8956 -0.6689  1.7357
  918MOL0     H23925   2.678   8.344   7.243 -1.4577  2.0505 -0.3253
  918MOL0     H23926   2.827   8.361   6.970  2.9590  0.1101  0.3549
  918MOL0     H23927   2.907   8.337   7.125 -0.7377  0.8458  1.5797
  918MOL0     H23928   2.806   8.750   7.135  2.3372  0.5586 -0.8766
  918MOL0     H23929   2.167   8.126   7.249 -2.1775 -0.0748 -0.1543
  918MOL0     H23930   1.941   8.206   7.263 -0.9045  0.2142  0.1332
  919MOL0     O23931   7.409   6.990   2.072  0.2923 -0.2911  0.5203
  919MOL0     C23932   7.454   6.935   1.973 -0.0645 -0.3747  0.1440
  919MOL0     O23933   7.386   6.870   1.878  0.0750  0.6974 -0.0704
  919MOL0     C23934   7.248   6.863   1.864  0.6605 -0.0347  0.1982
  919MOL0     C23935   7.193   6.745   1.816 -0.0552  0.0745 -0.4549
  919MOL0     C23936   7.069   6.737   1.758 -0.3974 -0.8199 -0.1313
  919MOL0     C23937   6.977   6.851   1.768  0.2932  0.6919 -0.4771
  919MOL0     O23938   6.846   6.840   1.725 -0.3079 -0.6518  0.1447
  919MOL0     C23939   6.747   6.930   1.778  0.2742 -1.0272 -0.3016
  919MOL0     C23940   6.622   6.847   1.754  0.2133 -0.0628  0.4382
  919MOL0     C23941   6.599   6.846   1.607  0.4780  0.4684 -0.1901
  919MOL0     C23942   6.478   6.763   1.579  0.0504  0.9533  0.4177
  919MOL0     C23943   6.345   6.832   1.567 -0.8616 -0.2355  0.0977
  919MOL0     C23944   6.235   6.723   1.568  0.3664 -0.3120  0.5041
  919MOL0     C23945   6.098   6.803   1.562  0.2695  0.2223 -0.4940
  919MOL0     C23946   5.980   6.710   1.572 -0.1519  0.1754 -0.2221
  919MOL0     N23947   5.846   6.771   1.566  0.7513  0.0194  0.2684
  919MOL0     C23948   5.783   6.785   1.444 -0.1239  0.5474 -0.1057
  919MOL0     C23949   5.658   6.807   1.470  1.0762  0.2539  0.0787
  919MOL0     C23950   5.546   6.829   1.373  0.1929  0.4156  0.8028
  919MOL0     C23951   5.553   6.745   1.235  0.8349 -0.4447 -0.0662
  919MOL0     C23952   5.558   6.591   1.257 -0.1155 -0.2224 -0.3720
  919MOL0     C23953   5.412   6.549   1.277  0.0701 -0.4809  0.2603
  919MOL0     O23954   5.394   6.412   1.308  0.0007  0.3886 -0.6637
  919MOL0     C23955   5.268   6.360   1.340  0.8333 -0.2723  0.2621
  919MOL0     C23956   5.150   6.450   1.338 -2.0323  0.4071  0.4537
  919MOL0     C23957   5.026   6.392   1.352 -0.9453  0.0290 -1.0233
  919MOL0     C23958   4.910   6.479   1.315 -0.7118  0.7519 -0.2559
  919MOL0     C23959   5.009   6.251   1.384  0.1274 -0.3033  0.5343
  919MOL0     C23960   4.879   6.184   1.420 -0.2092  0.2069 -0.0737
  919MOL0     O23961   4.778   6.264   1.454  0.1267 -0.5448  0.3260
  919MOL0     C23962   4.645   6.224   1.422 -1.3438  0.1880 -0.1986
  919MOL0     C23963   4.611   6.146   1.314 -0.0656 -0.2090  0.2644
  919MOL0     C23964   4.474   6.103   1.301 -0.6011  0.5429 -0.4198
  919MOL0     C23965   4.380   6.147   1.391 -0.0343  0.2211  0.0568
  919MOL0     O23966   4.264   6.073   1.389  0.5255 -0.4526  0.3371
  919MOL0     C23967   4.139   6.142   1.392 -0.5559  0.0932 -0.2371
  919MOL0     C23968   4.037   6.039   1.385  0.6425 -0.0106  0.4131
  919MOL0     C23969   3.891   6.099   1.393  0.0410  0.3336  0.2029
  919MOL0     C23970   3.785   5.989   1.378 -0.6875  0.0221  0.3126
  919MOL0     C23971   3.647   6.046   1.359 -0.6068  0.6426 -0.6022
  919MOL0     C23972   3.538   5.939   1.360 -0.5664  0.1235 -0.0665
  919MOL0     C23973   3.402   6.018   1.356 -0.1700 -0.3196  0.0207
  919MOL0     C23974   3.278   5.938   1.336  0.4619  0.1409  0.6565
  919MOL0    Cl23975   3.271   5.797   1.442 -0.1861  0.0205  0.4776
  919MOL0     C23976   4.417   6.245   1.485  0.5974 -0.2859  1.1250
  919MOL0     C23977   4.545   6.283   1.505 -0.3142 -0.0103  0.4151
  919MOL0     O23978   4.875   6.061   1.417 -0.4645  0.1191 -0.3894
  919MOL0     C23979   5.120   6.174   1.368 -0.3833  0.3128 -0.2228
  919MOL0     C23980   5.245   6.220   1.352 -0.2767  0.4528 -1.0862
  919MOL0     N23981   5.634   6.784   1.607  0.0143 -0.6335  0.3497
  919MOL0     N23982   5.748   6.753   1.657  0.6290  0.1319  0.6477
  919MOL0     C23983   7.024   6.974   1.827  0.2043  0.4381  0.1646
  919MOL0     C23984   7.161   6.980   1.868  0.4231  0.4633  0.7958
  919MOL0     C23985   7.606   6.923   1.961 -0.3263  0.2864  0.0233
  919MOL0     C23986   7.656   6.839   1.853 -0.6308 -0.1870 -0.4283
  919MOL0     C23987   7.792   6.829   1.830 -0.0941 -0.3541  0.2199
  919MOL0     C23988   7.882   6.885   1.923 -0.2299  0.4844  0.0263
  919MOL0     O23989   8.020   6.878   1.908  0.0899 -0.3799  0.9333
  919MOL0     C23990   8.072   6.892   1.776 -0.7233  0.7098  0.3618
  919MOL0     C23991   8.028   7.023   1.711 -0.6653 -0.1255 -0.4545
  919MOL0     C23992   8.062   7.150   1.792 -0.5468  0.2523 -0.7697
  919MOL0     C23993   8.207   7.168   1.843 -0.6107  0.2621 -0.8162
  919MOL0     C23994   8.312   7.184   1.738  0.6425 -0.5192 -0.3026
  919MOL0     C23995   8.385   7.196   1.643 -0.1477  0.2195  0.0875
  919MOL0     C23996   7.835   6.958   2.032  0.7724  0.5526 -0.4898
  919MOL0     C23997   7.694   6.978   2.059 -1.1409 -0.0789  0.8362
  919MOL0     H23998   7.259   6.659   1.809  0.8681  0.6725  0.6389
  919MOL0     H23999   7.030   6.650   1.707  2.1296 -1.7722 -0.5460
  919MOL0     H24000   6.755   6.937   1.887 -2.9596  0.5574 -0.0689
  919MOL0     H24001   6.739   7.028   1.730  1.3114 -0.7222  0.1312
  919MOL0     H24002   6.640   6.745   1.790 -0.2179 -0.5900 -0.7728
  919MOL0     H24003   6.540   6.894   1.809  0.0562  0.3750 -0.1594
  919MOL0     H24004   6.588   6.951   1.579  3.8822  0.9071 -0.3105
  919MOL0     H24005   6.690   6.816   1.553 -0.7156 -1.5106 -1.2138
  919MOL0     H24006   6.489   6.727   1.477 -2.3171 -1.7021  0.9806
  919MOL0     H24007   6.473   6.672   1.639  1.5046  0.2677 -0.4640
  919MOL0     H24008   6.332   6.897   1.654 -0.2070 -1.2612  0.9770
  919MOL0     H24009   6.352   6.898   1.480 -1.4505 -0.8444 -0.4220
  919MOL0     H24010   6.258   6.655   1.486  1.8446 -0.4253  0.9706
  919MOL0     H24011   6.237   6.661   1.658  1.6918 -1.9481 -0.6105
  919MOL0     H24012   6.088   6.881   1.638 -0.0635 -1.1085  0.8813
  919MOL0     H24013   6.097   6.860   1.468  2.0538 -2.1523 -2.0445
  919MOL0     H24014   5.995   6.665   1.671 -0.3516  2.5374  0.9701
  919MOL0     H24015   5.990   6.626   1.503 -0.3586 -2.3068  2.5666
  919MOL0     H24016   5.842   6.779   1.353  1.6242  3.0853  0.7379
  919MOL0     H24017   5.450   6.799   1.416  0.6144 -0.2076  1.3348
  919MOL0     H24018   5.552   6.932   1.336  0.4576  0.2248  0.3008
  919MOL0     H24019   5.640   6.779   1.177 -0.3998  2.7519 -0.2415
  919MOL0     H24020   5.466   6.771   1.175  1.4839 -1.1208 -1.3447
  919MOL0     H24021   5.632   6.549   1.326  1.7428  0.8472 -1.6006
  919MOL0     H24022   5.581   6.551   1.157  2.5097  0.2843 -0.0359
  919MOL0     H24023   5.357   6.581   1.188  0.8934  0.6462  0.1438
  919MOL0     H24024   5.369   6.614   1.353  0.6069  0.9475 -0.6097
  919MOL0     H24025   5.150   6.554   1.306  2.0024  1.0765  2.0208
  919MOL0     H24026   4.933   6.565   1.252 -0.6080  0.7065 -0.2788
  919MOL0     H24027   4.836   6.423   1.256 -1.3015  1.3689 -0.1258
  919MOL0     H24028   4.856   6.510   1.405 -0.6185 -2.2947  0.9764
  919MOL0     H24029   4.686   6.117   1.241 -0.0873 -0.4491  0.3357
  919MOL0     H24030   4.439   6.038   1.221  0.1915 -1.4922  0.8138
  919MOL0     H24031   4.137   6.202   1.483  1.3994 -2.0119  1.2882
  919MOL0     H24032   4.126   6.201   1.300  0.1462 -1.6972 -1.5588
  919MOL0     H24033   4.041   5.984   1.290 -1.3326  1.3862 -0.5499
  919MOL0     H24034   4.050   5.966   1.465  1.7718 -0.1443  0.1199
  919MOL0     H24035   3.878   6.172   1.312  1.7279 -0.2407 -0.6389
  919MOL0     H24036   3.880   6.163   1.481  2.1408  0.1305  0.6491
  919MOL0     H24037   3.801   5.941   1.281 -1.6454 -0.8537  0.5704
  919MOL0     H24038   3.796   5.904   1.446  1.8841 -0.6876 -0.8448
  919MOL0     H24039   3.646   6.108   1.269  0.5908  2.3688  0.5085
  919MOL0     H24040   3.619   6.105   1.446 -0.0277  1.7097 -1.1228
  919MOL0     H24041   3.552   5.884   1.266  0.4908  0.3340 -0.0557
  919MOL0     H24042   3.542   5.876   1.449  1.1121  1.1038  0.6098
  919MOL0     H24043   3.406   6.103   1.288 -0.6015  0.6984  1.2304
  919MOL0     H24044   3.394   6.063   1.455  0.2753  2.2380 -1.0315
  919MOL0     H24045   3.294   5.898   1.235 -3.0430  0.6669 -0.2579
  919MOL0     H24046   3.192   6.005   1.343 -0.6512 -0.6448 -3.0438
  919MOL0     H24047   4.343   6.287   1.553 -0.9785  1.4511 -1.4740
  919MOL0     H24048   4.585   6.342   1.587  4.0796 -0.4572 -1.1401
  919MOL0     H24049   5.116   6.065   1.376  0.1592  0.1477 -1.8514
  919MOL0     H24050   5.319   6.142   1.343 -1.0639 -0.2119 -2.0493
  919MOL0     H24051   6.957   7.059   1.833  0.8344  1.0261 -0.8892
  919MOL0     H24052   7.199   7.072   1.910  0.5835  1.6404 -1.7708
  919MOL0     H24053   7.585   6.785   1.791 -2.5958 -0.2321  1.7067
  919MOL0     H24054   7.808   6.774   1.738 -1.1313 -0.6535  0.2127
  919MOL0     H24055   8.181   6.883   1.777 -0.8765 -2.6840  2.0767
  919MOL0     H24056   8.036   6.806   1.719  1.5449  0.9738 -1.6333
  919MOL0     H24057   7.920   7.020   1.696 -0.5758 -0.4712 -1.0943
  919MOL0     H24058   8.082   7.017   1.615  1.1939  3.4522  0.2121
  919MOL0     H24059   8.006   7.157   1.886  3.8665 -2.9130  2.5471
  919MOL0     H24060   8.042   7.238   1.731 -0.7499  0.5963 -0.2112
  919MOL0     H24061   8.240   7.078   1.895 -0.2126  0.5983 -0.4747
  919MOL0     H24062   8.201   7.249   1.917 -1.9437 -1.3896  1.0244
  919MOL0     H24063   8.446   7.216   1.558 -3.0700 -0.9158 -2.5044
  919MOL0     H24064   7.908   6.992   2.105 -0.7723 -1.8861  2.4579
  919MOL0     H24065   7.651   7.046   2.131 -0.9808  1.3916 -0.4146
  920MOL0     O24066   8.915  10.043   8.527  0.0931  0.8688  0.2217
  920MOL0     C24067   8.923  10.141   8.604 -0.0405  0.5276 -0.1998
  920MOL0     O24068   8.825  10.194   8.683 -0.0466  0.8972  0.0292
  920MOL0     C24069   8.706  10.127   8.682  0.5004  0.7100  0.6622
  920MOL0     C24070   8.588  10.189   8.652  0.2629  0.0550  0.0220
  920MOL0     C24071   8.461  10.133   8.676 -0.1840  0.2890  0.4588
  920MOL0     C24072   8.457   9.997   8.699 -0.2627 -0.5929 -0.2530
  920MOL0     O24073   8.332   9.949   8.723  0.1567  0.0626 -0.0566
  920MOL0     C24074   8.294   9.809   8.719  0.1806  0.6393  0.0595
  920MOL0     C24075   8.149   9.811   8.670  0.2749  0.7973 -0.5016
  920MOL0     C24076   8.080   9.673   8.644  0.2757 -0.8452  0.0803
  920MOL0     C24077   7.949   9.702   8.564  0.6543 -0.2381 -1.0005
  920MOL0     C24078   7.869   9.583   8.506  0.2093 -0.9506  0.1122
  920MOL0     C24079   7.753   9.632   8.419 -0.5126  0.1263 -0.0232
  920MOL0     C24080   7.802   9.697   8.282 -1.0358 -0.1061  0.1983
  920MOL0     C24081   7.751   9.641   8.156  0.0241 -0.5875 -0.7521
  920MOL0     N24082   7.613   9.705   8.129 -1.1960  0.2007 -0.6718
  920MOL0     C24083   7.589   9.791   8.016  0.0473 -0.6348  0.4378
  920MOL0     C24084   7.454   9.792   8.002 -0.5001  0.4658  0.1791
  920MOL0     C24085   7.383   9.863   7.890  1.0312 -0.9886  0.1333
  920MOL0     C24086   7.235   9.888   7.931  1.2103  0.3230 -0.8409
  920MOL0     C24087   7.152   9.762   7.903 -0.1796 -0.0414 -0.3033
  920MOL0     C24088   7.014   9.762   7.954  0.2603 -0.4775  0.2033
  920MOL0     O24089   6.937   9.877   7.897  0.0839  0.4607  0.0378
  920MOL0     C24090   6.811   9.896   7.930  0.5242 -0.7321  0.0833
  920MOL0     C24091   6.739   9.825   8.028 -0.1367 -0.2997 -0.6691
  920MOL0     C24092   6.598   9.848   8.056 -1.5534 -0.7348 -0.0720
  920MOL0     C24093   6.539   9.762   8.167 -0.2824 -0.3494 -0.0287
  920MOL0     C24094   6.532   9.937   7.969 -0.2091 -0.8351  0.7229
  920MOL0     C24095   6.387   9.974   7.988 -0.3121 -0.0187  0.1829
  920MOL0     O24096   6.317  10.015   7.876 -0.4116  0.0535  0.2349
  920MOL0     C24097   6.190  10.037   7.887  0.9013 -0.1136 -0.9106
  920MOL0     C24098   6.150  10.160   7.937  0.8452  0.0901 -0.1126
  920MOL0     C24099   6.013  10.186   7.946  0.0435 -0.1340 -0.7037
  920MOL0     C24100   5.916  10.092   7.905  0.7797 -0.0845 -0.0252
  920MOL0     O24101   5.789  10.138   7.907 -0.0092  0.0340 -0.1531
  920MOL0     C24102   5.711  10.081   8.017 -0.2665 -0.0023  0.6488
  920MOL0     C24103   5.566  10.136   8.022 -1.4215 -0.0075 -0.1138
  920MOL0     C24104   5.477  10.047   7.943  0.0740  0.2680  0.0861
  920MOL0     C24105   5.344  10.113   7.938  1.1229  0.0614  0.3570
  920MOL0     C24106   5.253   9.994   7.902  0.7793  0.1612 -0.2942
  920MOL0     C24107   5.118  10.045   7.849 -0.4087  0.3326 -0.4640
  920MOL0     C24108   5.045  10.134   7.959 -0.5006 -0.5868 -0.5954
  920MOL0     C24109   4.898  10.167   7.934  0.5191 -0.0186 -0.6188
  920MOL0    Cl24110   4.805  10.031   7.993  0.1597 -0.1189  0.1605
  920MOL0     C24111   5.955   9.970   7.849  1.0155 -0.5337  0.3322
  920MOL0     C24112   6.096   9.952   7.834  0.4161 -0.3097 -0.2399
  920MOL0     O24113   6.346   9.964   8.101  0.0629  0.1191  0.2567
  920MOL0     C24114   6.605  10.007   7.872 -0.1383 -0.3860  0.2865
  920MOL0     C24115   6.736   9.981   7.846  0.3747  0.1585 -0.6743
  920MOL0     N24116   7.400   9.708   8.099  0.0321  0.5187  0.2293
  920MOL0     N24117   7.492   9.659   8.167  0.9024 -0.1155 -0.0955
  920MOL0     C24118   8.571   9.923   8.737 -0.0514 -0.4789 -0.4540
  920MOL0     C24119   8.698   9.990   8.716 -0.1815  0.0354  0.3271
  920MOL0     C24120   9.045  10.224   8.593 -0.8494  0.3798  0.0471
  920MOL0     C24121   9.140  10.201   8.500 -0.1006 -0.5128  0.6206
  920MOL0     C24122   9.256  10.267   8.493 -0.0143  0.3452  0.0566
  920MOL0     C24123   9.290  10.368   8.585 -0.8557 -1.4661  0.2857
  920MOL0     O24124   9.410  10.431   8.564  1.3896  0.4679  0.6875
  920MOL0     C24125   9.467  10.504   8.673  0.1218  0.7752  0.6591
  920MOL0     C24126   9.610  10.541   8.639 -0.5794 -0.1946  1.1218
  920MOL0     C24127   9.695  10.417   8.601 -0.6737 -0.7683 -0.1677
  920MOL0     C24128   9.831  10.467   8.547  0.5791  0.5912  0.3058
  920MOL0     C24129   9.816  10.510   8.406  0.2043 -0.2492 -0.3936
  920MOL0     C24130   9.810  10.567   8.298 -0.3364  0.0661 -0.5563
  920MOL0     C24131   9.201  10.390   8.686 -1.0184 -0.0872  0.0966
  920MOL0     C24132   9.084  10.319   8.691 -0.0368 -0.0371  0.3792
  920MOL0     H24133   8.580  10.289   8.610  1.4615 -0.6574 -2.0408
  920MOL0     H24134   8.372  10.194   8.660 -0.5469 -0.0715  1.0737
  920MOL0     H24135   8.354   9.747   8.651 -0.9317 -1.1383  0.6131
  920MOL0     H24136   8.297   9.753   8.813 -0.6160  1.6733  0.7175
  920MOL0     H24137   8.092   9.867   8.746  0.3489  2.2961 -1.5129
  920MOL0     H24138   8.143   9.862   8.573  0.0753  0.0896 -0.8704
  920MOL0     H24139   8.143   9.616   8.575  0.0687 -0.4930 -0.4069
  920MOL0     H24140   8.057   9.616   8.734  0.0427  0.9080  1.1711
  920MOL0     H24141   7.878   9.760   8.623 -0.8872 -2.9140 -0.0106
  920MOL0     H24142   7.980   9.762   8.479 -1.8201  2.6349 -0.0565
  920MOL0     H24143   7.946   9.526   8.453  3.0290  2.2038  0.4579
  920MOL0     H24144   7.832   9.518   8.586 -2.6312  0.5071  0.1294
  920MOL0     H24145   7.712   9.539   8.379  0.2881 -1.0635  1.7937
  920MOL0     H24146   7.681   9.689   8.478  0.6368  1.2616  0.3050
  920MOL0     H24147   7.789   9.806   8.282 -1.7264 -0.1789  0.9851
  920MOL0     H24148   7.908   9.673   8.265 -1.3618  0.2552 -3.2165
  920MOL0     H24149   7.744   9.532   8.163 -0.5682 -0.6505 -2.0045
  920MOL0     H24150   7.822   9.667   8.076  0.3451  1.0542  0.0130
  920MOL0     H24151   7.667   9.847   7.966  0.3651 -0.1412  1.4675
  920MOL0     H24152   7.430   9.956   7.857 -1.2143  0.3483  0.4929
  920MOL0     H24153   7.375   9.796   7.804 -1.7036 -0.8410  0.1848
  920MOL0     H24154   7.190   9.970   7.875  0.6605  1.8876  1.6987
  920MOL0     H24155   7.231   9.918   8.036 -1.7623  2.3409 -1.4146
  920MOL0     H24156   7.192   9.670   7.946 -2.8178 -1.1203  0.0184
  920MOL0     H24157   7.151   9.761   7.793  3.5202 -2.5717 -0.4749
  920MOL0     H24158   7.013   9.774   8.063 -1.1843 -0.9054  0.2645
  920MOL0     H24159   6.962   9.671   7.924  1.8069 -0.1341 -4.2226
  920MOL0     H24160   6.791   9.760   8.098  1.7268 -0.5904 -2.2489
  920MOL0     H24161   6.611   9.681   8.181  1.6130  0.6003 -3.3153
  920MOL0     H24162   6.530   9.812   8.265 -2.6385 -0.4102 -0.1615
  920MOL0     H24163   6.438   9.731   8.141 -0.8637 -0.5062  2.1997
  920MOL0     H24164   6.228  10.232   7.959 -0.9486  1.6344  1.5573
  920MOL0     H24165   5.989  10.285   7.983 -0.3785 -0.9934  1.4809
  920MOL0     H24166   5.699   9.974   7.999 -1.6425  0.2206  0.1442
  920MOL0     H24167   5.755  10.105   8.114  1.8169 -0.0962 -0.2125
  920MOL0     H24168   5.531  10.137   8.126 -0.5183 -0.7059  0.2064
  920MOL0     H24169   5.568  10.240   7.986  0.1553  0.6730  1.7073
  920MOL0     H24170   5.462   9.956   8.003  1.1083  0.0781  0.0842
  920MOL0     H24171   5.521  10.026   7.845  2.3471  1.8457  0.7063
  920MOL0     H24172   5.309  10.151   8.034 -2.3318 -1.8954  0.0406
  920MOL0     H24173   5.353  10.191   7.861  2.4696  0.0215  0.4454
  920MOL0     H24174   5.246   9.919   7.981  2.9632 -1.5042 -1.5377
  920MOL0     H24175   5.299   9.940   7.818 -2.2014 -1.1572 -1.1974
  920MOL0     H24176   5.136  10.107   7.761  3.4196  0.1173 -0.0343
  920MOL0     H24177   5.049   9.964   7.827 -1.2006  0.5442  1.1327
  920MOL0     H24178   5.090  10.232   7.977 -2.5582 -0.1053  2.6262
  920MOL0     H24179   5.054  10.082   8.055  1.0008  1.0249  0.1904
  920MOL0     H24180   4.876  10.200   7.832 -3.1356  3.9262  1.1383
  920MOL0     H24181   4.873  10.263   7.978  0.3696 -0.2267 -0.2489
  920MOL0     H24182   5.887   9.901   7.800  2.8065 -2.3110  0.2532
  920MOL0     H24183   6.125   9.859   7.786 -0.0551 -1.8765  2.3393
  920MOL0     H24184   6.557  10.076   7.804  1.4004  1.3803  0.9028
  920MOL0     H24185   6.780  10.035   7.763  1.3273  3.3805  1.7072
  920MOL0     H24186   8.562   9.822   8.775 -0.4934  0.4978  2.2152
  920MOL0     H24187   8.796   9.946   8.729  0.4924  1.7144  1.2196
  920MOL0     H24188   9.120  10.149   8.407 -0.6996  2.6433 -1.1735
  920MOL0     H24189   9.318  10.249   8.405 -0.4136 -1.7264  0.1414
  920MOL0     H24190   9.411  10.593   8.705  2.4534  2.6751 -0.2883
  920MOL0     H24191   9.478  10.444   8.763 -0.7643  1.1981  1.0687
  920MOL0     H24192   9.652  10.587   8.729  2.0549 -2.9798  1.5041
  920MOL0     H24193   9.611  10.615   8.559 -2.1138 -1.3030  0.0230
  920MOL0     H24194   9.650  10.353   8.524 -1.2080  2.1132 -2.4078
  920MOL0     H24195   9.721  10.363   8.692  4.4440  2.1138  0.4239
  920MOL0     H24196   9.910  10.391   8.553  1.8590  1.9640  4.3435
  920MOL0     H24197   9.868  10.544   8.616 -1.2099  2.6527 -0.9040
  920MOL0     H24198   9.799  10.597   8.195  1.4623 -0.6916 -0.9965
  920MOL0     H24199   9.225  10.467   8.759  0.4662 -1.1223  0.7337
  920MOL0     H24200   9.015  10.360   8.764  0.9401  0.7018  0.9168
  921MOL0     O24201   3.927   8.596   0.784  0.3731 -1.3004 -0.0402
  921MOL0     C24202   3.909   8.720   0.780  0.3114 -0.2440  0.3562
  921MOL0     O24203   3.797   8.781   0.732  0.6553 -0.4996 -0.1319
  921MOL0     C24204   3.703   8.712   0.663 -0.3528  0.0066  0.1969
  921MOL0     C24205   3.728   8.604   0.569  0.4789 -0.4377 -0.0224
  921MOL0     C24206   3.621   8.556   0.492  0.2372 -0.0841 -0.0845
  921MOL0     C24207   3.491   8.607   0.507 -0.8229 -0.2074  0.0530
  921MOL0     O24208   3.377   8.560   0.436 -0.2992 -0.1094 -0.4436
  921MOL0     C24209   3.381   8.533   0.298  0.0444 -0.3903  0.4021
  921MOL0     C24210   3.246   8.523   0.225  0.5091  0.1844 -0.5486
  921MOL0     C24211   3.269   8.523   0.069 -0.5399  0.6706 -0.2343
  921MOL0     C24212   3.146   8.569  -0.027 -0.7398 -0.6023  0.7178
  921MOL0     C24213   3.052   8.460  -0.049  0.5256 -0.6872  0.2662
  921MOL0     C24214   2.922   8.504  -0.115  1.2046 -0.0382  0.1712
  921MOL0     C24215   2.828   8.596  -0.027  0.5990 -0.1758  0.1233
  921MOL0     C24216   2.679   8.584  -0.040  0.2355  0.2118 -0.8711
  921MOL0     N24217   2.605   8.673   0.051 -0.6972  0.0451  0.5153
  921MOL0     C24218   2.600   8.676   0.189 -0.9730 -0.1607  0.5159
  921MOL0     C24219   2.522   8.787   0.218 -0.0874 -0.1510 -0.5208
  921MOL0     C24220   2.465   8.825   0.358 -0.0029 -0.1424  0.1799
  921MOL0     C24221   2.361   8.737   0.421  0.1862  0.7162  0.2557
  921MOL0     C24222   2.252   8.692   0.324  0.4785 -0.3424 -0.0139
  921MOL0     C24223   2.196   8.556   0.364  0.9126 -0.2971  0.0236
  921MOL0     O24224   2.079   8.535   0.280  0.3981  0.2720 -1.0352
  921MOL0     C24225   2.004   8.422   0.299  0.0326 -0.2481 -0.1346
  921MOL0     C24226   2.050   8.313   0.377 -0.7492  0.1310  0.4222
  921MOL0     C24227   1.971   8.197   0.394  0.1778 -0.5340 -0.5660
  921MOL0     C24228   2.039   8.100   0.488 -0.8256  0.3242 -0.2399
  921MOL0     C24229   1.842   8.193   0.339 -0.0345 -0.4989  0.3193
  921MOL0     C24230   1.754   8.073   0.351  0.3990 -0.3021  0.6881
  921MOL0     O24231   1.621   8.093   0.323 -0.5177  0.2814  0.9136
  921MOL0     C24232   1.526   8.000   0.310  0.7722  1.1797  0.1663
  921MOL0     C24233   1.399   8.045   0.262  0.0261 -0.5627 -0.6001
  921MOL0     C24234   1.293   7.957   0.235 -0.0998  0.5076 -0.4732
  921MOL0     C24235   1.302   7.825   0.258 -0.6833  1.3538  0.3416
  921MOL0     O24236   1.199   7.732   0.246 -0.5498  0.1008  0.8414
  921MOL0     C24237   1.115   7.739   0.125 -0.3425  0.0768 -0.2251
  921MOL0     C24238   1.037   7.615   0.082  0.8328  0.2183 -0.3989
  921MOL0     C24239   0.937   7.582   0.195 -0.3249  0.0035 -0.2544
  921MOL0     C24240   0.840   7.690   0.236  0.0370 -1.2079  0.6576
  921MOL0     C24241   0.735   7.640   0.327  0.1298 -0.0065 -0.4132
  921MOL0     C24242   0.628   7.748   0.351  0.0319 -0.2849  0.2544
  921MOL0     C24243   0.677   7.865   0.430 -0.1016 -0.9595 -0.0750
  921MOL0     C24244   0.668   8.004   0.349 -0.0011  0.1764  0.0100
  921MOL0    Cl24245   0.507   8.040   0.276 -0.1451 -0.1640  0.1011
  921MOL0     C24246   1.422   7.779   0.312 -0.6420 -0.1652  0.9753
  921MOL0     C24247   1.534   7.861   0.329 -0.6720 -0.2021  0.4205
  921MOL0     O24248   1.812   7.965   0.366 -0.1867  0.1219 -0.6524
  921MOL0     C24249   1.801   8.298   0.246 -0.1464 -0.2930  0.4144
  921MOL0     C24250   1.886   8.414   0.228 -0.9934 -0.0261  0.1486
  921MOL0     N24251   2.498   8.849   0.100 -0.0552 -0.5771  0.4070
  921MOL0     N24252   2.551   8.786  -0.001  0.3319  0.0167 -0.7268
  921MOL0     C24253   3.468   8.700   0.605 -0.3180 -0.5293 -0.0430
  921MOL0     C24254   3.568   8.748   0.691 -0.0404 -0.0660 -0.0427
  921MOL0     C24255   4.018   8.807   0.832 -0.6116  0.3093 -0.5444
  921MOL0     C24256   4.000   8.949   0.840 -0.3151  0.3873 -0.1858
  921MOL0     C24257   4.114   9.025   0.872  0.1269  0.0915  1.3417
  921MOL0     C24258   4.234   8.977   0.916  0.0216  0.5765  0.2423
  921MOL0     O24259   4.324   9.064   0.967 -0.7073 -0.2276  1.6201
  921MOL0     C24260   4.459   9.018   1.002 -0.7409 -0.7733  0.1881
  921MOL0     C24261   4.531   9.140   1.066 -0.6051  0.6066 -0.0414
  921MOL0     C24262   4.684   9.120   1.044 -0.2304  0.4308  0.2690
  921MOL0     C24263   4.790   9.221   1.099  0.1798  0.9099 -0.6047
  921MOL0     C24264   4.754   9.353   1.051 -0.0252 -0.6132  0.0329
  921MOL0     C24265   4.721   9.457   1.011  0.0395 -0.7329 -0.2913
  921MOL0     C24266   4.247   8.837   0.915  1.0034  0.1912  0.8392
  921MOL0     C24267   4.142   8.756   0.877 -0.1207  0.7820  0.9337
  921MOL0     H24268   3.828   8.565   0.548  0.6974  1.2355 -2.4616
  921MOL0     H24269   3.648   8.469   0.434  1.1256 -0.6865  1.1893
  921MOL0     H24270   3.433   8.612   0.243  0.4303 -1.4597 -0.7967
  921MOL0     H24271   3.433   8.439   0.278 -0.3337 -0.8515  1.5037
  921MOL0     H24272   3.209   8.430   0.270  3.5442 -0.1041  1.6504
  921MOL0     H24273   3.186   8.605   0.267  0.2810 -0.3403  0.1761
  921MOL0     H24274   3.351   8.591   0.045 -1.9041  3.3513  2.1433
  921MOL0     H24275   3.302   8.423   0.039 -2.1865  0.8294 -2.9366
  921MOL0     H24276   3.092   8.654   0.015  0.9912  0.5962  0.6341
  921MOL0     H24277   3.178   8.606  -0.125 -1.8697 -1.8022 -0.1368
  921MOL0     H24278   3.104   8.381  -0.104  1.5739  0.9940 -1.2596
  921MOL0     H24279   3.023   8.426   0.050 -3.5791  3.6935  0.9440
  921MOL0     H24280   2.936   8.548  -0.214 -0.0578 -2.0731 -0.9746
  921MOL0     H24281   2.856   8.417  -0.123 -2.0736  2.3119 -0.5436
  921MOL0     H24282   2.843   8.589   0.081 -4.8364  0.7034  1.2052
  921MOL0     H24283   2.844   8.701  -0.055 -2.5844  0.7205  1.3148
  921MOL0     H24284   2.661   8.481  -0.011 -0.2817  0.4643 -0.2681
  921MOL0     H24285   2.648   8.600  -0.144 -1.4951 -3.5256 -1.1029
  921MOL0     H24286   2.636   8.603   0.261  0.5310 -0.1806 -0.2278
  921MOL0     H24287   2.546   8.833   0.432 -0.8769  1.2105  1.0495
  921MOL0     H24288   2.412   8.919   0.345 -1.5845 -1.0058  0.1419
  921MOL0     H24289   2.308   8.789   0.501 -1.0688 -0.9723  0.5720
  921MOL0     H24290   2.413   8.649   0.460 -2.0709 -0.0391  1.7506
  921MOL0     H24291   2.286   8.693   0.220 -0.8013 -0.0309 -0.4480
  921MOL0     H24292   2.178   8.772   0.319  1.3887  0.4323 -2.1223
  921MOL0     H24293   2.169   8.566   0.470 -0.4172 -1.7109 -0.1323
  921MOL0     H24294   2.268   8.474   0.371  1.7463  0.4592  0.5165
  921MOL0     H24295   2.142   8.310   0.435 -0.6620 -1.5211  0.2528
  921MOL0     H24296   2.053   8.002   0.442 -1.2261  0.7312 -1.2597
  921MOL0     H24297   2.140   8.117   0.526 -0.4914 -1.7058 -0.1273
  921MOL0     H24298   1.980   8.095   0.579  1.1840 -2.4238  1.0618
  921MOL0     H24299   1.382   8.150   0.241 -0.2845 -0.4397  0.2131
  921MOL0     H24300   1.198   8.003   0.209 -0.3211 -0.3752 -1.2477
  921MOL0     H24301   1.045   7.823   0.134 -2.3587 -1.6387  1.2503
  921MOL0     H24302   1.179   7.763   0.040 -3.3455  2.4079 -2.0425
  921MOL0     H24303   0.998   7.632  -0.018 -1.0922 -0.1146  0.2613
  921MOL0     H24304   1.102   7.527   0.084 -1.1213 -1.2859 -0.4885
  921MOL0     H24305   0.996   7.540   0.277 -0.2290  0.1993 -0.2229
  921MOL0     H24306   0.883   7.491   0.166 -0.8398 -1.0253  3.4067
  921MOL0     H24307   0.902   7.767   0.285 -0.6915 -0.4358  0.3892
  921MOL0     H24308   0.806   7.737   0.143  1.6648 -0.3358  0.4555
  921MOL0     H24309   0.783   7.603   0.417  0.0764  0.3365 -0.2425
  921MOL0     H24310   0.689   7.550   0.286 -1.1804  0.5056 -0.1191
  921MOL0     H24311   0.604   7.784   0.250 -0.8938  1.0115  0.9142
  921MOL0     H24312   0.545   7.692   0.394  0.0540  1.8865  3.4423
  921MOL0     H24313   0.783   7.851   0.450  0.2909  2.4763  0.7748
  921MOL0     H24314   0.621   7.873   0.524 -0.8326  0.4823 -0.5920
  921MOL0     H24315   0.742   8.004   0.268 -0.9928  0.3409 -0.9165
  921MOL0     H24316   0.701   8.084   0.416 -0.2661  0.4612 -0.1937
  921MOL0     H24317   1.441   7.675   0.340  1.4489  0.3342  1.5518
  921MOL0     H24318   1.625   7.825   0.376  0.5082  0.0366 -1.5943
  921MOL0     H24319   1.705   8.306   0.196  0.5102 -1.0524 -1.0322
  921MOL0     H24320   1.863   8.489   0.153 -1.2541  1.5380  1.7320
  921MOL0     H24321   3.367   8.736   0.623  0.3492  0.7394  1.4203
  921MOL0     H24322   3.549   8.841   0.744  2.0416  0.1197  0.5036
  921MOL0     H24323   3.909   8.997   0.805 -1.8422 -1.2605  1.3076
  921MOL0     H24324   4.089   9.130   0.880  2.2311  0.5589  2.3284
  921MOL0     H24325   4.460   8.934   1.072  0.2828 -0.9199  0.0030
  921MOL0     H24326   4.506   8.990   0.908 -2.0822  2.6102 -1.6334
  921MOL0     H24327   4.508   9.154   1.172 -0.6171 -1.4940  0.2699
  921MOL0     H24328   4.500   9.236   1.024 -1.1613  0.7511  0.6831
  921MOL0     H24329   4.693   9.115   0.935 -3.3179 -0.9717 -0.0331
  921MOL0     H24330   4.717   9.030   1.097 -0.6696  1.5195  2.5259
  921MOL0     H24331   4.894   9.208   1.067  0.3055  0.3566  0.0257
  921MOL0     H24332   4.788   9.212   1.208  1.5235 -1.2347 -0.7074
  921MOL0     H24333   4.674   9.542   0.967  1.0338  0.5890  1.1051
  921MOL0     H24334   4.338   8.788   0.947  2.0787 -0.0273 -2.2149
  921MOL0     H24335   4.165   8.649   0.878  3.4810  1.3844 -0.3599
  922MOL0     O24336   7.995   1.772   2.724  0.0964  0.3606  0.7560
  922MOL0     C24337   8.005   1.889   2.693 -0.0694  1.0978  0.2805
  922MOL0     O24338   7.901   1.981   2.706 -0.4385 -0.0286  0.3110
  922MOL0     C24339   7.769   1.938   2.707 -0.2803 -0.8320 -0.4113
  922MOL0     C24340   7.717   1.818   2.650  0.2454 -0.2149 -0.5479
  922MOL0     C24341   7.583   1.788   2.660  0.1135 -0.9883 -0.4310
  922MOL0     C24342   7.496   1.883   2.712 -0.4332  0.2368 -0.2953
  922MOL0     O24343   7.367   1.843   2.690  0.4613 -0.5258  0.3534
  922MOL0     C24344   7.256   1.929   2.708 -0.2923 -0.3414 -0.3122
  922MOL0     C24345   7.141   1.865   2.638 -0.1049 -0.1430 -0.3651
  922MOL0     C24346   7.020   1.951   2.669  0.2936 -0.6180  0.0571
  922MOL0     C24347   6.891   1.902   2.593  0.2984 -1.1309  0.1656
  922MOL0     C24348   6.775   1.998   2.620  0.6338 -0.2312 -0.3190
  922MOL0     C24349   6.640   1.948   2.574  0.4514  0.0516  0.6302
  922MOL0     C24350   6.513   1.999   2.646  0.0146 -0.9833 -0.4230
  922MOL0     C24351   6.386   1.934   2.590 -0.5622 -0.5586  0.0755
  922MOL0     N24352   6.264   1.978   2.655  0.3811 -0.0761  0.0089
  922MOL0     C24353   6.246   2.005   2.793  0.3390 -0.9635  0.1257
  922MOL0     C24354   6.116   2.037   2.799  0.6486  0.5374 -0.9005
  922MOL0     C24355   6.062   2.080   2.926  0.0390 -0.3868 -0.2826
  922MOL0     C24356   5.912   2.118   2.906 -0.1774  0.4901  0.3131
  922MOL0     C24357   5.852   2.158   3.038  0.2320  0.6881 -0.3600
  922MOL0     C24358   5.703   2.137   3.051 -0.0320  0.1789  0.3549
  922MOL0     O24359   5.631   2.232   2.967  0.4033 -0.0034 -0.2496
  922MOL0     C24360   5.496   2.244   2.989  0.3449 -0.2923 -0.4505
  922MOL0     C24361   5.408   2.161   3.055 -0.7217 -0.5235 -0.2432
  922MOL0     C24362   5.268   2.178   3.060 -0.7455  0.4447 -0.6364
  922MOL0     C24363   5.185   2.060   3.110 -0.2170  1.1692  0.1233
  922MOL0     C24364   5.207   2.300   3.007 -0.5822  0.5868  0.3786
  922MOL0     C24365   5.064   2.306   2.992  1.0383  0.2323 -0.2567
  922MOL0     O24366   5.010   2.345   2.874  0.2861 -0.0387 -0.0503
  922MOL0     C24367   4.877   2.381   2.874  0.1163 -0.5693 -0.0568
  922MOL0     C24368   4.778   2.279   2.862  0.2276  0.5313 -0.5750
  922MOL0     C24369   4.648   2.321   2.841  0.0536  0.1796  0.8581
  922MOL0     C24370   4.609   2.451   2.827  0.6817  0.0689 -0.0466
  922MOL0     O24371   4.471   2.476   2.822 -0.0396 -0.8792  0.7126
  922MOL0     C24372   4.422   2.613   2.815 -0.0819 -0.9644 -0.1618
  922MOL0     C24373   4.273   2.597   2.858  0.1579 -0.3060 -0.1641
  922MOL0     C24374   4.269   2.567   3.020 -0.4420  0.2310  0.3990
  922MOL0     C24375   4.135   2.540   3.088 -0.2303 -0.7988 -0.3766
  922MOL0     C24376   4.056   2.421   3.026  0.0652  0.0682  0.1494
  922MOL0     C24377   3.921   2.395   3.091 -0.2607 -0.3377  0.1784
  922MOL0     C24378   3.856   2.256   3.063 -0.4582 -0.5446 -0.0578
  922MOL0     C24379   3.733   2.238   3.144  0.0288 -0.0840  0.3424
  922MOL0    Cl24380   3.620   2.368   3.110 -0.1076 -0.3264 -0.3437
  922MOL0     C24381   4.717   2.547   2.817  0.0876  1.3941  0.5129
  922MOL0     C24382   4.846   2.516   2.854  1.1638 -0.2363 -0.1468
  922MOL0     O24383   4.995   2.275   3.087  0.8311 -0.8377 -0.3762
  922MOL0     C24384   5.294   2.382   2.932  0.4466  0.3582 -0.4136
  922MOL0     C24385   5.432   2.350   2.919 -0.0236  0.1635  0.1043
  922MOL0     N24386   6.056   2.046   2.668  0.3761 -0.0570 -0.0262
  922MOL0     N24387   6.147   2.008   2.587  0.2330 -0.4924  0.0795
  922MOL0     C24388   7.542   2.000   2.766  0.2880 -0.4415 -0.4142
  922MOL0     C24389   7.679   2.024   2.769 -1.0124  0.3426 -0.0860
  922MOL0     C24390   8.133   1.934   2.642  0.8025  0.4614  0.9623
  922MOL0     C24391   8.240   1.853   2.662 -0.6632  0.7204  0.2632
  922MOL0     C24392   8.363   1.899   2.612  0.0809 -0.4049 -0.2732
  922MOL0     C24393   8.386   2.026   2.561 -1.0723  0.6007  0.1127
  922MOL0     O24394   8.508   2.080   2.524  0.3136 -0.4974  0.0001
  922MOL0     C24395   8.582   2.149   2.628  0.2106 -0.4397 -0.8091
  922MOL0     C24396   8.699   2.229   2.574  0.5874 -0.5485  0.4550
  922MOL0     C24397   8.787   2.296   2.671  1.0944  0.0207  0.0515
  922MOL0     C24398   8.712   2.420   2.728 -0.3228  0.2730 -0.5829
  922MOL0     C24399   8.814   2.512   2.779 -0.2487 -0.4282 -0.7775
  922MOL0     C24400   8.903   2.587   2.808 -0.5140 -0.1891  0.7877
  922MOL0     C24401   8.276   2.105   2.551 -0.0835 -0.1538  0.9381
  922MOL0     C24402   8.148   2.067   2.591  0.4043  0.6687 -0.3058
  922MOL0     H24403   7.790   1.749   2.608  2.4980  1.4928  0.3990
  922MOL0     H24404   7.545   1.704   2.603 -2.3276 -1.3486  1.5854
  922MOL0     H24405   7.243   1.919   2.816  1.3057 -1.1303 -0.1659
  922MOL0     H24406   7.293   2.029   2.681  1.0780  0.7136  4.4825
  922MOL0     H24407   7.163   1.862   2.531 -1.0317 -1.8752 -0.5363
  922MOL0     H24408   7.128   1.765   2.678  3.2646 -0.3522  0.4764
  922MOL0     H24409   6.995   1.956   2.775 -1.5984  2.6124 -0.4301
  922MOL0     H24410   7.034   2.051   2.627 -0.7962 -1.2558 -1.9634
  922MOL0     H24411   6.913   1.915   2.487  1.0629 -0.1981  0.4197
  922MOL0     H24412   6.871   1.797   2.615 -3.2923 -0.7322 -0.6099
  922MOL0     H24413   6.765   2.026   2.725 -1.7839 -2.8709  0.2895
  922MOL0     H24414   6.791   2.092   2.566 -1.5707  0.4554  0.1435
  922MOL0     H24415   6.622   1.967   2.468  0.2535 -2.0780  0.2241
  922MOL0     H24416   6.641   1.841   2.597  4.4930  0.1059  1.3029
  922MOL0     H24417   6.518   1.975   2.753  0.8160 -2.2831 -0.7296
  922MOL0     H24418   6.501   2.108   2.636 -2.4219 -1.3661 -2.9622
  922MOL0     H24419   6.394   1.825   2.596  3.6138 -0.3792  0.4999
  922MOL0     H24420   6.372   1.958   2.484  3.6858 -1.2653 -0.8042
  922MOL0     H24421   6.312   1.992   2.878 -0.9631  2.5085  1.8813
  922MOL0     H24422   6.064   1.988   2.985  2.7020 -0.4980 -0.4321
  922MOL0     H24423   6.129   2.152   2.974  2.6534 -3.1470  0.5073
  922MOL0     H24424   5.863   2.030   2.864  1.9940  0.4063 -2.3327
  922MOL0     H24425   5.914   2.197   2.830  2.6041  2.6217  2.3880
  922MOL0     H24426   5.869   2.261   3.071 -1.9284  2.0779 -3.1995
  922MOL0     H24427   5.900   2.093   3.112  2.5910  1.2376 -1.2973
  922MOL0     H24428   5.670   2.132   3.156 -0.5457  1.2354  0.2616
  922MOL0     H24429   5.678   2.036   3.017 -1.0228  0.3601  0.5018
  922MOL0     H24430   5.445   2.071   3.102  0.1968 -1.9219 -3.4197
  922MOL0     H24431   5.246   1.970   3.120 -3.6642 -1.3236  0.3999
  922MOL0     H24432   5.139   2.069   3.209 -0.6406  0.2011  0.0273
  922MOL0     H24433   5.104   2.052   3.036  2.8995  1.4559 -3.6539
  922MOL0     H24434   4.811   2.177   2.878  2.0129  1.1235 -0.1687
  922MOL0     H24435   4.568   2.248   2.841 -1.8414  2.1608  1.0021
  922MOL0     H24436   4.468   2.687   2.882 -0.9291  1.8639 -2.4664
  922MOL0     H24437   4.426   2.640   2.710 -0.2779  1.5311  0.4106
  922MOL0     H24438   4.208   2.680   2.828  1.2746  0.5452 -0.2658
  922MOL0     H24439   4.224   2.510   2.813  1.8567  0.0786 -2.9870
  922MOL0     H24440   4.314   2.657   3.063 -1.7771  1.7715 -1.2614
  922MOL0     H24441   4.326   2.475   3.034 -2.0317 -1.0417 -0.9769
  922MOL0     H24442   4.155   2.523   3.195 -2.5824  0.2472  0.2864
  922MOL0     H24443   4.071   2.628   3.087 -1.4926 -1.6454  0.9307
  922MOL0     H24444   4.128   2.344   3.055  0.0021  0.1805  0.6136
  922MOL0     H24445   4.046   2.424   2.917 -0.6107  1.2923  0.2312
  922MOL0     H24446   3.929   2.397   3.200 -3.3326 -0.4162  0.4979
  922MOL0     H24447   3.850   2.475   3.070 -0.7755 -1.0367 -0.8353
  922MOL0     H24448   3.925   2.178   3.096 -1.9266 -1.7363  0.2678
  922MOL0     H24449   3.850   2.255   2.954 -1.0017  1.8734 -0.1141
  922MOL0     H24450   3.762   2.238   3.249  1.6220  0.3604 -0.0680
  922MOL0     H24451   3.693   2.139   3.122  1.0938 -0.5615  0.4930
  922MOL0     H24452   4.702   2.653   2.801  2.0492  1.5784 -0.3405
  922MOL0     H24453   4.925   2.591   2.856  0.8202  0.1252  1.5742
  922MOL0     H24454   5.261   2.466   2.871 -1.7309  0.3088  0.6129
  922MOL0     H24455   5.505   2.395   2.852 -0.9314  0.6160 -0.6057
  922MOL0     H24456   7.468   2.069   2.803  1.1797 -1.0636  2.8062
  922MOL0     H24457   7.724   2.115   2.807 -0.4230  0.9330 -2.1076
  922MOL0     H24458   8.236   1.760   2.717  0.0489  0.9429  0.7053
  922MOL0     H24459   8.445   1.828   2.619 -0.3082 -0.8600 -0.2926
  922MOL0     H24460   8.511   2.219   2.674  1.4056  1.9937 -2.4147
  922MOL0     H24461   8.614   2.069   2.695  2.4614  2.4958  1.9285
  922MOL0     H24462   8.663   2.307   2.506  2.4538  0.6464  0.7534
  922MOL0     H24463   8.770   2.164   2.522  3.4021  1.6808  1.2616
  922MOL0     H24464   8.887   2.311   2.630  0.9637 -0.4357 -0.4401
  922MOL0     H24465   8.789   2.224   2.753 -0.1305  1.7327  1.6715
  922MOL0     H24466   8.647   2.395   2.811  1.3924  1.8901  1.3720
  922MOL0     H24467   8.652   2.468   2.650 -1.8881  0.4802  0.7218
  922MOL0     H24468   8.984   2.656   2.821 -0.7088 -0.2342  2.3397
  922MOL0     H24469   8.280   2.206   2.513 -1.1645 -0.7743 -0.9414
  922MOL0     H24470   8.068   2.141   2.597  0.5693  0.8552 -0.3971
  923MOL0     O24471   3.858   8.869  10.605  0.3359  0.2873  0.8703
  923MOL0     C24472   3.919   8.973  10.571 -0.3577 -0.1130 -0.7923
  923MOL0     O24473   3.864   9.090  10.533 -0.9595  0.8973 -0.3070
  923MOL0     C24474   3.732   9.082  10.510  0.2109  0.0287 -0.0137
  923MOL0     C24475   3.655   9.177  10.576  0.1919 -0.1942 -0.5024
  923MOL0     C24476   3.516   9.171  10.561 -0.4837 -0.3143 -0.4206
  923MOL0     C24477   3.454   9.086  10.470  0.3838  0.7579  0.3851
  923MOL0     O24478   3.317   9.096  10.450  0.1169 -0.0657  0.4309
  923MOL0     C24479   3.265   9.016  10.339  0.1304  0.1395  0.0386
  923MOL0     C24480   3.124   9.064  10.297 -0.0325  0.1973 -0.1579
  923MOL0     C24481   3.021   9.051  10.411 -0.1765 -1.2720  0.4281
  923MOL0     C24482   2.905   9.154  10.400 -0.6429 -0.1188 -0.5122
  923MOL0     C24483   2.784   9.111  10.484  0.3285 -0.0928  0.7338
  923MOL0     C24484   2.686   9.232  10.502  0.3909 -0.6891  0.7953
  923MOL0     C24485   2.584   9.213  10.626  0.6499 -0.2525  0.4576
  923MOL0     C24486   2.512   9.076  10.624  1.1049 -0.3059  0.0802
  923MOL0     N24487   2.424   9.059  10.737 -1.0153 -0.1359 -0.2142
  923MOL0     C24488   2.468   8.992  10.851  0.0589  0.0993  0.1271
  923MOL0     C24489   2.348   8.961  10.916 -1.0420  0.0832  0.4455
  923MOL0     C24490   2.330   8.906  11.056  1.2102  0.7042  0.0126
  923MOL0     C24491   2.179   8.897  11.104 -1.0452 -0.0449 -0.5754
  923MOL0     C24492   2.181   8.816  11.228  0.2414 -0.5232  0.3951
  923MOL0     C24493   2.041   8.776  11.289  0.9199  0.2727  0.1767
  923MOL0     O24494   1.936   8.740  11.191  0.5588 -0.2032  0.1888
  923MOL0     C24495   1.819   8.684  11.234  0.5602  0.4243 -0.2463
  923MOL0     C24496   1.770   8.684  11.371 -0.1346 -0.0843  0.9657
  923MOL0     C24497   1.648   8.630  11.409  0.5125 -0.2217 -0.0710
  923MOL0     C24498   1.601   8.658  11.547 -0.4153  0.1337  0.3168
  923MOL0     C24499   1.572   8.559  11.312  0.2009  0.0405  0.3815
  923MOL0     C24500   1.442   8.497  11.344  0.6999  0.8541 -0.0068
  923MOL0     O24501   1.337   8.533  11.267  0.2782 -0.3115 -0.0512
  923MOL0     C24502   1.214   8.482  11.286  0.6054 -0.2599 -0.5576
  923MOL0     C24503   1.121   8.581  11.326 -0.0486 -0.3698  0.2165
  923MOL0     C24504   0.987   8.537  11.323  0.1568 -0.8018  0.0809
  923MOL0     C24505   0.941   8.408  11.311 -0.0684 -0.3530 -0.4519
  923MOL0     O24506   0.805   8.392  11.319  0.2647 -0.6724  0.2863
  923MOL0     C24507   0.732   8.315  11.218 -0.2365  0.3256 -0.6959
  923MOL0     C24508   0.583   8.309  11.237 -0.4813 -0.4360  0.6935
  923MOL0     C24509   0.526   8.446  11.279  0.1713  1.1577 -0.0095
  923MOL0     C24510   0.372   8.456  11.312  0.3505  0.6233 -0.4285
  923MOL0     C24511   0.279   8.383  11.211  0.5208  0.1373  0.2285
  923MOL0     C24512   0.128   8.377  11.251  0.4474 -0.0330  0.5995
  923MOL0     C24513   0.100   8.288  11.378 -2.0691 -1.3229  0.5422
  923MOL0     C24514   0.019   8.375  11.485  0.1936 -0.0951  0.9300
  923MOL0    Cl24515   0.126   8.495  11.567 -0.1463  0.4715  0.0375
  923MOL0     C24516   1.039   8.310  11.293 -0.1690 -0.2128 -0.5112
  923MOL0     C24517   1.172   8.348  11.282  0.4161 -0.9127  0.0574
  923MOL0     O24518   1.447   8.409  11.439  0.3021 -0.0886  0.6252
  923MOL0     C24519   1.617   8.549  11.178  0.1962 -0.3502  0.7116
  923MOL0     C24520   1.739   8.616  11.141  0.4349  0.2634 -0.0283
  923MOL0     N24521   2.242   9.009  10.840 -0.5691  0.3194 -0.2048
  923MOL0     N24522   2.294   9.067  10.736  0.4781  0.3316 -0.0834
  923MOL0     C24523   3.534   8.993  10.397 -0.0328  0.6969  0.9122
  923MOL0     C24524   3.674   9.002  10.417 -0.4340  0.1988  0.8630
  923MOL0     C24525   4.066   8.963  10.597 -0.8689 -0.9880  0.2381
  923MOL0     C24526   4.126   8.836  10.630 -0.0264 -0.3177 -0.5444
  923MOL0     C24527   4.265   8.834  10.660  0.0832  0.2126  0.3584
  923MOL0     C24528   4.340   8.945  10.630 -0.8301 -1.2919  0.3336
  923MOL0     O24529   4.472   8.952  10.632 -0.7134  0.0879  0.0314
  923MOL0     C24530   4.545   8.834  10.634  1.1454  0.0656  0.5797
  923MOL0     C24531   4.693   8.871  10.635  0.3187  0.3281 -0.5259
  923MOL0     C24532   4.742   8.928  10.767  0.0694 -0.0664  0.6232
  923MOL0     C24533   4.853   9.033  10.760 -0.7769  0.2595  0.1391
  923MOL0     C24534   4.855   9.108  10.886 -0.1284  0.8009  0.1355
  923MOL0     C24535   4.859   9.164  10.995 -1.4828  1.1137 -0.4230
  923MOL0     C24536   4.282   9.074  10.594 -0.0265  0.3442 -1.2013
  923MOL0     C24537   4.147   9.078  10.574 -0.3424 -1.0513  0.7116
  923MOL0     H24538   3.711   9.257  10.624  0.5919 -1.1238  0.6442
  923MOL0     H24539   3.453   9.245  10.609  1.2447  1.2861 -0.5361
  923MOL0     H24540   3.330   9.028  10.252  0.5686 -0.6027  0.2559
  923MOL0     H24541   3.260   8.912  10.372 -1.8125 -0.3700 -1.6568
  923MOL0     H24542   3.133   9.166  10.259 -0.6966  1.0979  1.9352
  923MOL0     H24543   3.097   8.999  10.213  3.9646  0.8688 -2.1665
  923MOL0     H24544   2.976   8.951  10.403 -0.9154 -0.9477  0.4424
  923MOL0     H24545   3.072   9.062  10.507 -0.0084  1.2523  0.1105
  923MOL0     H24546   2.928   9.256  10.434  0.1938 -0.6498  0.5446
  923MOL0     H24547   2.867   9.162  10.297 -0.7737 -0.9057 -0.5259
  923MOL0     H24548   2.720   9.040  10.430  0.7400  0.0445  0.0536
  923MOL0     H24549   2.821   9.068  10.577  1.1994 -1.4196 -0.2009
  923MOL0     H24550   2.731   9.327  10.533 -2.5812  0.5835  1.4889
  923MOL0     H24551   2.635   9.239  10.405  0.5899 -3.2646  0.4354
  923MOL0     H24552   2.641   9.228  10.718  0.4153  1.3816  0.3580
  923MOL0     H24553   2.506   9.288  10.611 -0.5209 -1.4689  0.2870
  923MOL0     H24554   2.583   8.993  10.617  1.1016 -0.1897 -1.7935
  923MOL0     H24555   2.451   9.068  10.534 -0.3225  0.0930  0.9798
  923MOL0     H24556   2.569   8.969  10.882  0.7881  2.3634 -0.3217
  923MOL0     H24557   2.367   8.803  11.046  1.9298  0.7711  1.7422
  923MOL0     H24558   2.397   8.961  11.122  0.0522  2.8610 -0.5045
  923MOL0     H24559   2.118   8.853  11.025 -1.8822 -1.6257  0.8862
  923MOL0     H24560   2.144   8.998  11.127  0.0332 -0.2463  2.3649
  923MOL0     H24561   2.233   8.877  11.303 -0.2884 -1.1585  1.2944
  923MOL0     H24562   2.236   8.722  11.220 -1.4944 -1.5195 -0.3408
  923MOL0     H24563   2.012   8.871  11.336  0.5124  0.8226 -1.1387
  923MOL0     H24564   2.049   8.702  11.368  0.8389  1.4951  1.3680
  923MOL0     H24565   1.839   8.728  11.443 -0.8823  2.5190  0.1913
  923MOL0     H24566   1.593   8.767  11.553 -1.4319  0.2377 -1.8745
  923MOL0     H24567   1.506   8.621  11.587 -1.4959  3.4382  1.1238
  923MOL0     H24568   1.674   8.621  11.619 -1.4965 -1.6275  0.5812
  923MOL0     H24569   1.144   8.687  11.330  2.7074 -0.9306  2.7084
  923MOL0     H24570   0.910   8.609  11.347 -1.0228 -2.6307  2.2825
  923MOL0     H24571   0.751   8.367  11.124  0.4921  2.9640  0.7981
  923MOL0     H24572   0.777   8.217  11.201 -0.0399  0.5192 -1.3219
  923MOL0     H24573   0.548   8.280  11.137  1.8263  1.9084 -0.9476
  923MOL0     H24574   0.550   8.234  11.309  0.1796 -0.0208  1.4521
  923MOL0     H24575   0.530   8.518  11.197 -0.1006 -0.8517 -1.8944
  923MOL0     H24576   0.572   8.485  11.369 -0.8779  3.3473 -0.3576
  923MOL0     H24577   0.353   8.405  11.408  0.5634  1.0664 -0.1475
  923MOL0     H24578   0.339   8.560  11.320  0.3558  0.7791 -2.1451
  923MOL0     H24579   0.311   8.280  11.192 -0.8490 -0.0445 -1.2826
  923MOL0     H24580   0.289   8.435  11.115  2.4170  1.0753  0.8843
  923MOL0     H24581   0.098   8.481  11.268 -1.8672 -0.7466  1.2977
  923MOL0     H24582   0.068   8.339  11.168 -0.4795  4.0905 -0.8795
  923MOL0     H24583   0.192   8.245  11.417 -0.0950  2.1368  0.1128
  923MOL0     H24584   0.034   8.210  11.339 -2.9028  1.1288 -3.6026
  923MOL0     H24585  -0.024   8.308  11.560 -1.4278 -0.4401 -0.2385
  923MOL0     H24586  -0.070   8.423  11.442  0.6095  0.6940  0.9426
  923MOL0     H24587   1.019   8.204  11.292  0.9351 -0.5599  2.5832
  923MOL0     H24588   1.249   8.271  11.275  0.9757 -0.2178 -2.4399
  923MOL0     H24589   1.547   8.508  11.105 -0.2441 -2.0988  2.0715
  923MOL0     H24590   1.771   8.607  11.038 -2.2119  0.6003 -0.9409
  923MOL0     H24591   3.486   8.918  10.334 -0.5780  1.2735  0.6277
  923MOL0     H24592   3.734   8.932  10.360  0.8503  1.1221  1.0298
  923MOL0     H24593   4.073   8.741  10.632  2.2192 -1.6560 -1.0522
  923MOL0     H24594   4.306   8.736  10.684 -0.4534  0.0378  0.5700
  923MOL0     H24595   4.525   8.768  10.718 -0.9275  0.2606  0.2859
  923MOL0     H24596   4.531   8.778  10.541  2.9207 -2.6909  1.8497
  923MOL0     H24597   4.723   8.940  10.555  1.7249  0.9149  0.4774
  923MOL0     H24598   4.748   8.777  10.627  0.8898  0.4051  1.8874
  923MOL0     H24599   4.775   8.842  10.826  1.1849 -0.6793 -0.8399
  923MOL0     H24600   4.654   8.973  10.815 -0.5706 -1.4784  0.8458
  923MOL0     H24601   4.844   9.098  10.673  1.7014  0.6946  0.1175
  923MOL0     H24602   4.949   8.981  10.752 -0.4263  1.0918 -1.4272
  923MOL0     H24603   4.850   9.224  11.083 -3.7214 -0.7742  0.7584
  923MOL0     H24604   4.353   9.156  10.589 -0.9339  1.2456 -0.1126
  923MOL0     H24605   4.113   9.172  10.530  2.8158 -0.8534 -1.6797
  924MOL0     O24606   5.623  10.237   4.541 -0.2257  0.1555  0.6862
  924MOL0     C24607   5.649  10.283   4.428 -0.2094 -0.2624 -0.0183
  924MOL0     O24608   5.560  10.311   4.329  0.2855 -0.5523 -0.2325
  924MOL0     C24609   5.428  10.287   4.348 -0.0762 -0.2118  0.5050
  924MOL0     C24610   5.356  10.318   4.461  0.7539  0.1715  0.3631
  924MOL0     C24611   5.222  10.293   4.473  0.4284  0.8091  0.1090
  924MOL0     C24612   5.145  10.239   4.372  0.5197 -0.3836  0.2542
  924MOL0     O24613   5.013  10.218   4.398  0.2761  0.3336 -0.0927
  924MOL0     C24614   4.960  10.109   4.328  0.4544  0.6428 -0.1807
  924MOL0     C24615   4.827  10.080   4.383 -0.4317  0.4759  0.1110
  924MOL0     C24616   4.738   9.994   4.294 -0.6774  0.3455  0.9480
  924MOL0     C24617   4.607   9.961   4.356  0.1514  0.0876 -0.1832
  924MOL0     C24618   4.617   9.840   4.461 -0.2912 -0.1526  0.2985
  924MOL0     C24619   4.481   9.784   4.518  0.0924  0.8897 -0.1954
  924MOL0     C24620   4.509   9.677   4.630 -0.1645  0.0801  0.3462
  924MOL0     C24621   4.514   9.532   4.567  0.9252  0.2244 -0.7203
  924MOL0     N24622   4.387   9.491   4.492  0.3151 -0.3015  0.0386
  924MOL0     C24623   4.363   9.493   4.354 -0.3967  0.2720 -1.0155
  924MOL0     C24624   4.232   9.454   4.343 -0.1090  0.3026  0.2129
  924MOL0     C24625   4.141   9.451   4.220 -0.1643  0.2657  0.9888
  924MOL0     C24626   4.175   9.353   4.113  0.4334  0.0948 -0.2588
  924MOL0     C24627   4.069   9.368   3.999  0.4701  0.4887 -0.0346
  924MOL0     C24628   3.960   9.255   3.992 -0.2209 -0.2149 -0.4256
  924MOL0     O24629   3.911   9.247   3.861  0.4728 -0.2337  0.2585
  924MOL0     C24630   3.778   9.215   3.832  0.2673  0.0756  0.0785
  924MOL0     C24631   3.677   9.183   3.924 -0.2381 -0.0950 -0.3136
  924MOL0     C24632   3.540   9.158   3.889 -0.0962  0.7118  0.0389
  924MOL0     C24633   3.441   9.141   4.000 -0.5070 -0.7770 -0.5251
  924MOL0     C24634   3.501   9.161   3.755  0.4103  0.2974  0.0513
  924MOL0     C24635   3.359   9.135   3.707 -0.4585 -0.3938 -0.7097
  924MOL0     O24636   3.357   9.085   3.590  0.0219  1.0721  0.2581
  924MOL0     C24637   3.230   9.060   3.528 -0.9115 -0.0952  0.3894
  924MOL0     C24638   3.237   9.070   3.386 -0.2963 -0.4244 -0.8630
  924MOL0     C24639   3.118   9.044   3.310 -0.4431 -0.1176 -0.7993
  924MOL0     C24640   2.995   9.014   3.376  0.0949  0.0490 -0.1555
  924MOL0     O24641   2.885   8.990   3.299  0.2440 -0.4254  0.1120
  924MOL0     C24642   2.766   9.060   3.346  0.0394 -0.9731  0.0109
  924MOL0     C24643   2.768   9.203   3.299  0.6939 -0.1045 -0.5139
  924MOL0     C24644   2.779   9.223   3.147  0.2528  0.3044 -0.0408
  924MOL0     C24645   2.771   9.375   3.107  0.1541 -0.2520  0.6287
  924MOL0     C24646   2.783   9.400   2.962  0.4194 -0.4435 -0.2152
  924MOL0     C24647   2.679   9.319   2.880  0.2828 -0.2866 -0.1085
  924MOL0     C24648   2.688   9.340   2.726 -0.2043 -0.8138  0.0446
  924MOL0     C24649   2.573   9.263   2.660 -0.0185  0.2589 -0.0778
  924MOL0    Cl24650   2.410   9.300   2.732 -0.2219  0.5595  0.0282
  924MOL0     C24651   3.001   8.988   3.514  0.7290 -0.6536 -0.1693
  924MOL0     C24652   3.118   9.011   3.587 -0.1612 -0.1550  0.7425
  924MOL0     O24653   3.261   9.169   3.772 -0.1949  0.6573  0.0276
  924MOL0     C24654   3.605   9.194   3.667 -0.0096  0.5509 -0.4685
  924MOL0     C24655   3.731   9.224   3.703 -0.3430 -0.0540  0.5066
  924MOL0     N24656   4.186   9.426   4.473  0.1671  0.6237 -0.1108
  924MOL0     N24657   4.280   9.457   4.563  0.0248  0.2319 -0.3257
  924MOL0     C24658   5.214  10.199   4.253  0.5996 -0.5788 -0.2788
  924MOL0     C24659   5.355  10.226   4.241  0.2138  0.2921  0.1777
  924MOL0     C24660   5.789  10.331   4.403 -0.1227  0.1587 -0.3547
  924MOL0     C24661   5.828  10.400   4.279  0.6733  0.1244 -0.0217
  924MOL0     C24662   5.960  10.441   4.258  0.2255 -0.4533 -0.1007
  924MOL0     C24663   6.054  10.426   4.354  0.4729  0.7874 -0.6692
  924MOL0     O24664   6.177  10.478   4.321 -0.6016 -0.1142 -0.3934
  924MOL0     C24665   6.272  10.487   4.434  0.3243 -0.0544 -0.1034
  924MOL0     C24666   6.373  10.589   4.374  0.4448 -0.5971 -0.9710
  924MOL0     C24667   6.483  10.607   4.484 -0.4552 -0.5125 -0.0565
  924MOL0     C24668   6.603  10.694   4.428  0.3104 -0.5681 -1.1860
  924MOL0     C24669   6.701  10.726   4.534  0.0498 -0.2411 -0.1325
  924MOL0     C24670   6.789  10.764   4.611 -0.4191 -0.1173 -0.3048
  924MOL0     C24671   6.024  10.354   4.468 -0.4005 -0.1371 -0.1257
  924MOL0     C24672   5.891  10.311   4.492  0.3511  0.5849 -0.1011
  924MOL0     H24673   5.402  10.362   4.549 -1.5561 -0.9334  2.2365
  924MOL0     H24674   5.170  10.310   4.567 -2.0159 -2.1146 -0.5765
  924MOL0     H24675   4.949  10.120   4.220  2.7484  0.8453 -0.4465
  924MOL0     H24676   5.020  10.018   4.340 -0.5611  0.2391  2.6704
  924MOL0     H24677   4.837  10.039   4.484  0.3758  1.2074  0.3386
  924MOL0     H24678   4.777  10.177   4.387  1.2155  1.3171  1.7603
  924MOL0     H24679   4.718  10.054   4.205  3.3986 -0.7843 -0.9265
  924MOL0     H24680   4.794   9.909   4.253  1.8701  2.9884 -1.4550
  924MOL0     H24681   4.574  10.048   4.414 -1.1176 -0.9295  0.6655
  924MOL0     H24682   4.530   9.941   4.280  2.0824  1.5259 -2.6597
  924MOL0     H24683   4.672   9.760   4.410  1.7783  0.4858  1.4248
  924MOL0     H24684   4.679   9.871   4.545  1.3607 -1.3793 -0.4247
  924MOL0     H24685   4.426   9.864   4.569 -1.8974 -0.6705  0.2555
  924MOL0     H24686   4.421   9.757   4.431 -3.1660  5.6263  0.1560
  924MOL0     H24687   4.603   9.694   4.683  1.3359 -1.3083 -1.7341
  924MOL0     H24688   4.435   9.680   4.711  1.6241  0.6899  2.0463
  924MOL0     H24689   4.529   9.464   4.652  2.3299 -0.8626 -1.7945
  924MOL0     H24690   4.599   9.521   4.499  2.9922  1.0524  1.5848
  924MOL0     H24691   4.421   9.534   4.271 -1.2428 -1.6165 -2.6354
  924MOL0     H24692   4.046   9.429   4.268  0.4338  1.9092  3.1061
  924MOL0     H24693   4.144   9.548   4.171  1.6471  0.0729  0.6192
  924MOL0     H24694   4.177   9.250   4.148  1.3686 -0.3870 -1.6475
  924MOL0     H24695   4.272   9.376   4.068  1.2498 -1.3025  0.7247
  924MOL0     H24696   4.127   9.370   3.906  0.4153 -1.7998 -0.1748
  924MOL0     H24697   4.011   9.460   4.004 -0.3617  0.2722 -3.3798
  924MOL0     H24698   3.883   9.285   4.063 -2.4024 -2.8456 -1.5129
  924MOL0     H24699   4.004   9.156   4.012  0.7324  0.1494 -0.6456
  924MOL0     H24700   3.706   9.178   4.028  0.8693 -0.0074 -0.6008
  924MOL0     H24701   3.399   9.241   4.016  0.3945 -0.0461 -2.3777
  924MOL0     H24702   3.359   9.069   3.988  1.1495 -2.9672  0.6946
  924MOL0     H24703   3.490   9.095   4.086 -1.0310 -2.4356 -1.0688
  924MOL0     H24704   3.334   9.099   3.347  0.3491 -0.3356  0.7323
  924MOL0     H24705   3.118   9.060   3.203  0.1671  0.3418 -0.7331
  924MOL0     H24706   2.679   9.007   3.307  0.2492 -0.2196 -1.5561
  924MOL0     H24707   2.760   9.064   3.455  0.7528  1.9013  0.0373
  924MOL0     H24708   2.671   9.246   3.326 -0.6154 -3.8187  1.2965
  924MOL0     H24709   2.849   9.258   3.347  1.2608 -0.1844 -1.3508
  924MOL0     H24710   2.707   9.162   3.092  0.0120  0.4611  0.0998
  924MOL0     H24711   2.881   9.185   3.133  0.3539  0.7143 -0.4347
  924MOL0     H24712   2.676   9.413   3.145 -0.5404 -2.7107  1.5342
  924MOL0     H24713   2.855   9.424   3.158 -0.3561  0.0060  1.2298
  924MOL0     H24714   2.885   9.377   2.928  1.5289  1.7580  1.3923
  924MOL0     H24715   2.763   9.507   2.949  1.6776 -0.3663 -1.9709
  924MOL0     H24716   2.688   9.212   2.901  0.3454 -0.2934 -0.1758
  924MOL0     H24717   2.582   9.350   2.919  0.0571  1.2033 -1.7565
  924MOL0     H24718   2.786   9.318   2.681 -0.3110 -1.3593  0.0702
  924MOL0     H24719   2.680   9.447   2.706  1.9631 -0.2870  1.5984
  924MOL0     H24720   2.590   9.156   2.671  0.0960  0.4653  2.4093
  924MOL0     H24721   2.575   9.290   2.554 -1.3884  0.5385 -0.0539
  924MOL0     H24722   2.911   8.945   3.556  1.5475 -1.2121  1.0857
  924MOL0     H24723   3.123   8.990   3.693  4.2019 -1.6411  0.4199
  924MOL0     H24724   3.580   9.198   3.562  0.1849  1.9704 -0.4755
  924MOL0     H24725   3.801   9.270   3.634 -0.1267 -0.7431  0.2569
  924MOL0     H24726   5.164  10.151   4.170  1.2025 -0.1229 -0.9175
  924MOL0     H24727   5.400  10.217   4.143  0.6991  2.5082  0.1370
  924MOL0     H24728   5.746  10.410   4.208 -1.1672  0.0257  1.9867
  924MOL0     H24729   5.975  10.504   4.171 -1.6394 -0.0372 -0.1585
  924MOL0     H24730   6.230  10.538   4.521 -1.2210 -0.7574 -0.4100
  924MOL0     H24731   6.316  10.392   4.464  1.7421  0.8740  0.9091
  924MOL0     H24732   6.326  10.688   4.364  0.2223 -0.6091 -0.1494
  924MOL0     H24733   6.412  10.557   4.278  2.2987 -0.8051 -0.1859
  924MOL0     H24734   6.523  10.513   4.523  0.6654 -0.4337 -0.9732
  924MOL0     H24735   6.448  10.668   4.567 -0.1166  1.2029 -1.1351
  924MOL0     H24736   6.553  10.784   4.391  0.0559 -0.8740 -1.5904
  924MOL0     H24737   6.645  10.640   4.343 -0.4489 -0.4599 -1.6339
  924MOL0     H24738   6.875  10.797   4.666  1.3425  3.3007 -4.4893
  924MOL0     H24739   6.095  10.325   4.545 -0.9169  0.6713  0.6883
  924MOL0     H24740   5.870  10.262   4.587  0.5707 -0.7809 -0.7341
  925MOL0     O24741   4.795   9.962   4.800 -0.4399  0.0568  0.2980
  925MOL0     C24742   4.772  10.086   4.808 -1.0266  0.4596  0.2046
  925MOL0     O24743   4.870  10.175   4.844 -0.4679  0.5828  0.4621
  925MOL0     C24744   4.991  10.117   4.845 -0.0426 -0.1528  0.3972
  925MOL0     C24745   5.058  10.075   4.732 -0.5650 -0.4033  0.4704
  925MOL0     C24746   5.196  10.020   4.743  1.2343 -0.2327  0.3843
  925MOL0     C24747   5.259  10.013   4.860 -0.0681  0.0849 -0.1138
  925MOL0     O24748   5.389   9.968   4.886  0.5368 -0.6496 -0.0283
  925MOL0     C24749   5.484   9.955   4.777 -0.3646  0.4314  0.0243
  925MOL0     C24750   5.493   9.801   4.748 -0.7847 -0.0670 -0.0200
  925MOL0     C24751   5.641   9.757   4.712  0.5115 -0.0267  0.2468
  925MOL0     C24752   5.706   9.827   4.590 -0.7299 -0.5036  0.8875
  925MOL0     C24753   5.610   9.848   4.475  0.0262 -0.5096  0.2945
  925MOL0     C24754   5.673   9.869   4.344  0.1295 -0.0193 -0.0576
  925MOL0     C24755   5.573   9.925   4.251 -0.1825  0.1511  0.1536
  925MOL0     C24756   5.622   9.954   4.107 -0.0708  0.0301 -0.3788
  925MOL0     N24757   5.513   9.955   4.011 -0.5705 -0.4540 -0.2301
  925MOL0     C24758   5.477   9.846   3.939 -0.2317  0.0342  0.2184
  925MOL0     C24759   5.383   9.898   3.858  0.5238 -0.0541 -0.6089
  925MOL0     C24760   5.282   9.819   3.768  0.1559 -0.4312 -1.3078
  925MOL0     C24761   5.346   9.696   3.708  0.3047 -0.5167  0.2652
  925MOL0     C24762   5.293   9.680   3.567 -0.1341  0.3820 -0.2853
  925MOL0     C24763   5.142   9.649   3.547  0.3819 -0.8937  0.1258
  925MOL0     O24764   5.062   9.771   3.567  0.4037 -0.3201  0.0695
  925MOL0     C24765   4.925   9.755   3.573 -0.9390 -0.4061  0.1364
  925MOL0     C24766   4.860   9.639   3.528  1.1352  1.2021  0.5714
  925MOL0     C24767   4.717   9.624   3.535 -0.1154  0.0975 -0.9241
  925MOL0     C24768   4.664   9.489   3.494 -0.8364 -0.2242  0.5093
  925MOL0     C24769   4.634   9.720   3.597 -0.6114  0.0328  0.3091
  925MOL0     C24770   4.490   9.710   3.600 -0.4058  1.0399  0.4598
  925MOL0     O24771   4.420   9.588   3.606 -0.1062 -0.1170  0.5021
  925MOL0     C24772   4.290   9.587   3.560 -0.6697  0.2055  0.3106
  925MOL0     C24773   4.231   9.664   3.462  0.2809  0.0369  0.2580
  925MOL0     C24774   4.095   9.649   3.435  0.1982  0.1556  0.2542
  925MOL0     C24775   4.016   9.548   3.498  0.1140 -1.0142  0.2438
  925MOL0     O24776   3.886   9.516   3.461 -0.0385 -0.2559 -0.0573
  925MOL0     C24777   3.807   9.617   3.400  0.7107  0.1021  0.3821
  925MOL0     C24778   3.672   9.571   3.373  0.0153 -0.5334  0.1930
  925MOL0     C24779   3.572   9.686   3.311 -0.7859  0.2133  0.2241
  925MOL0     C24780   3.432   9.621   3.302 -0.0786  0.4807 -0.5078
  925MOL0     C24781   3.404   9.549   3.168 -0.1785 -0.4973 -0.2406
  925MOL0     C24782   3.442   9.400   3.170  0.0496  0.6622 -0.1519
  925MOL0     C24783   3.405   9.305   3.059 -0.5897 -0.4051 -0.0647
  925MOL0     C24784   3.252   9.298   3.046  0.6373 -0.6956 -0.2534
  925MOL0    Cl24785   3.211   9.161   2.939  0.2257 -0.1970  0.1427
  925MOL0     C24786   4.076   9.465   3.583 -0.7205  0.1179  0.0390
  925MOL0     C24787   4.210   9.483   3.614 -0.1999 -0.1508  0.6040
  925MOL0     O24788   4.429   9.821   3.617  1.1174  0.6420  0.1399
  925MOL0     C24789   4.701   9.841   3.633 -0.1053 -0.1608  0.4206
  925MOL0     C24790   4.844   9.849   3.627 -0.0370  1.2502 -0.7326
  925MOL0     N24791   5.389  10.033   3.866 -0.0732  0.0556  0.0534
  925MOL0     N24792   5.463  10.069   3.961 -0.1194  0.6894 -0.1182
  925MOL0     C24793   5.185  10.056   4.968  0.0027 -0.1159 -0.2244
  925MOL0     C24794   5.052  10.108   4.966  0.1562 -0.3576 -0.6286
  925MOL0     C24795   4.641  10.141   4.794 -0.0436 -0.3186 -1.3839
  925MOL0     C24796   4.616  10.284   4.804  0.0977  0.2840  0.3199
  925MOL0     C24797   4.487  10.320   4.783 -0.3648  0.8281 -0.8523
  925MOL0     C24798   4.373  10.227   4.775  0.7777 -0.2011  0.5739
  925MOL0     O24799   4.249  10.285   4.767 -0.3957 -0.5094  0.7854
  925MOL0     C24800   4.135  10.211   4.804  0.0707 -0.1707  0.0589
  925MOL0     C24801   4.098  10.236   4.948 -0.0222 -0.3219 -0.4257
  925MOL0     C24802   4.058  10.376   4.970  0.6692 -0.0988  0.5736
  925MOL0     C24803   4.034  10.414   5.116  0.1684 -0.8188  0.2565
  925MOL0     C24804   3.949  10.324   5.198  0.4718 -0.4505 -1.2549
  925MOL0     C24805   3.888  10.264   5.289 -0.9334 -1.0111  0.1747
  925MOL0     C24806   4.402  10.090   4.777  0.1661  0.3486 -0.1407
  925MOL0     C24807   4.535  10.050   4.778 -0.0385  0.1600 -0.6341
  925MOL0     H24808   5.018  10.100   4.635  2.7257  1.2093 -0.6216
  925MOL0     H24809   5.237   9.973   4.654 -0.6084  2.1972 -1.9224
  925MOL0     H24810   5.465  10.013   4.686 -1.5174 -1.3090 -0.9204
  925MOL0     H24811   5.576   9.994   4.822 -0.4829 -2.0019  2.6839
  925MOL0     H24812   5.452   9.746   4.834  0.4440 -0.0890  0.5826
  925MOL0     H24813   5.433   9.778   4.660  1.3418 -1.9478 -1.1186
  925MOL0     H24814   5.711   9.773   4.795 -0.8162 -0.0402  1.4134
  925MOL0     H24815   5.643   9.648   4.704  1.6214 -0.1099  1.2515
  925MOL0     H24816   5.742   9.924   4.624 -0.1714 -2.0902  5.4360
  925MOL0     H24817   5.801   9.777   4.564 -2.2212 -1.6196 -3.3383
  925MOL0     H24818   5.540   9.763   4.470 -0.1985 -0.2900 -0.4217
  925MOL0     H24819   5.557   9.941   4.496 -0.7455 -0.1277 -2.7478
  925MOL0     H24820   5.758   9.937   4.357  0.4557  0.0941 -2.4338
  925MOL0     H24821   5.709   9.768   4.321  0.4670 -0.3228  1.6794
  925MOL0     H24822   5.482   9.865   4.257  0.7181 -1.6889 -2.5274
  925MOL0     H24823   5.547  10.024   4.288 -0.4871  1.0523 -2.2576
  925MOL0     H24824   5.694   9.875   4.082  0.1946  0.5551 -1.3387
  925MOL0     H24825   5.671  10.052   4.108 -0.0178  0.0075  0.6812
  925MOL0     H24826   5.512   9.745   3.956  2.2526  0.0345 -3.7770
  925MOL0     H24827   5.200   9.792   3.835 -0.7863  0.8059 -1.9214
  925MOL0     H24828   5.235   9.893   3.702  0.9848  0.9240 -0.4494
  925MOL0     H24829   5.313   9.617   3.776 -3.0323  0.7548  0.3537
  925MOL0     H24830   5.454   9.713   3.702  0.0272  1.0060 -1.4770
  925MOL0     H24831   5.344   9.587   3.539  0.7536  0.5276  0.7847
  925MOL0     H24832   5.337   9.752   3.496 -0.7415 -0.1269 -1.2060
  925MOL0     H24833   5.125   9.578   3.628  0.4554 -2.1125 -0.8855
  925MOL0     H24834   5.133   9.602   3.448  0.4937  0.1616 -0.3969
  925MOL0     H24835   4.925   9.561   3.490  0.1075  0.2334  0.7258
  925MOL0     H24836   4.605   9.500   3.402  1.6534 -1.0253 -1.2981
  925MOL0     H24837   4.746   9.427   3.458 -0.2603  0.4566  0.6268
  925MOL0     H24838   4.597   9.445   3.569 -1.0005  2.7424  2.2706
  925MOL0     H24839   4.288   9.741   3.411 -0.8694  0.2994 -0.6909
  925MOL0     H24840   4.044   9.719   3.370  0.3911  1.0704  1.0672
  925MOL0     H24841   3.798   9.704   3.467 -1.9374  0.2426 -0.0502
  925MOL0     H24842   3.849   9.650   3.305  0.1740 -0.9287 -0.2207
  925MOL0     H24843   3.662   9.473   3.327 -0.4485  0.4513 -1.9383
  925MOL0     H24844   3.625   9.554   3.471 -0.2888 -0.1002  0.1265
  925MOL0     H24845   3.628   9.712   3.221  0.8711  0.8555  1.3904
  925MOL0     H24846   3.569   9.769   3.382  1.7157 -0.2054  0.9194
  925MOL0     H24847   3.407   9.549   3.381  0.8949 -0.1340 -0.7345
  925MOL0     H24848   3.361   9.703   3.314 -0.4221 -0.0969  2.0427
  925MOL0     H24849   3.467   9.608   3.101  0.0027  0.5415  0.8104
  925MOL0     H24850   3.298   9.556   3.146 -0.2183 -0.6832 -0.1098
  925MOL0     H24851   3.549   9.387   3.184 -0.2855 -1.2651  0.9825
  925MOL0     H24852   3.402   9.353   3.261 -0.2509 -2.5066 -1.7785
  925MOL0     H24853   3.444   9.210   3.095  1.0209 -0.0336 -0.7771
  925MOL0     H24854   3.450   9.334   2.964  1.2402 -1.6862  0.3653
  925MOL0     H24855   3.219   9.399   3.018  2.2229  0.8341  2.7848
  925MOL0     H24856   3.192   9.278   3.136 -2.1105  0.4941 -1.6769
  925MOL0     H24857   4.033   9.377   3.630 -0.3496  0.5783  1.2821
  925MOL0     H24858   4.249   9.410   3.683  0.8279  1.0628  1.3506
  925MOL0     H24859   4.642   9.923   3.673  0.3614  0.9791 -1.1479
  925MOL0     H24860   4.889   9.939   3.668  0.9160 -0.0003  1.1038
  925MOL0     H24861   5.240  10.054   5.062  1.9996  2.7303 -1.2230
  925MOL0     H24862   5.002  10.145   5.055  1.4950  3.1637 -1.1832
  925MOL0     H24863   4.695  10.359   4.803  0.8285 -0.4754 -0.1481
  925MOL0     H24864   4.462  10.426   4.782  0.2873  0.9852 -1.3956
  925MOL0     H24865   4.056  10.240   4.735  0.8794  1.5404 -0.1959
  925MOL0     H24866   4.153  10.104   4.789 -0.6773 -0.3757  0.5856
  925MOL0     H24867   4.188  10.208   5.004 -0.1256 -3.5390 -1.6094
  925MOL0     H24868   4.014  10.170   4.969 -0.9672  0.5716 -1.3063
  925MOL0     H24869   3.956  10.372   4.930  0.9973 -0.0224 -0.2861
  925MOL0     H24870   4.111  10.445   4.904 -0.5757  0.1407 -0.2180
  925MOL0     H24871   3.980  10.509   5.112 -3.2404 -2.6118 -1.4747
  925MOL0     H24872   4.128  10.419   5.171 -1.1324  1.2264  2.5012
  925MOL0     H24873   3.841  10.207   5.367  0.5347  0.3531  2.1689
  925MOL0     H24874   4.330  10.009   4.787 -1.5402  2.0709  2.8521
  925MOL0     H24875   4.557   9.944   4.773  0.6810  0.1112  2.1616
  926MOL0     O24876   2.611   8.527   4.981 -0.0926  0.4679 -0.2538
  926MOL0     C24877   2.512   8.483   5.044  0.3486  0.3442  0.0071
  926MOL0     O24878   2.523   8.404   5.158 -0.1836 -0.1621  0.2583
  926MOL0     C24879   2.646   8.386   5.227  0.0634  0.6615  0.5745
  926MOL0     C24880   2.681   8.257   5.278  0.6833  1.0138 -0.2169
  926MOL0     C24881   2.805   8.215   5.324  0.2929  0.0958 -0.0668
  926MOL0     C24882   2.903   8.312   5.341  0.5976 -0.1657  0.4616
  926MOL0     O24883   3.023   8.285   5.397  0.1915  0.2637 -0.4545
  926MOL0     C24884   3.053   8.161   5.471 -0.0068  0.2771 -0.2693
  926MOL0     C24885   3.208   8.176   5.492 -0.3322  0.5182 -0.5328
  926MOL0     C24886   3.271   8.037   5.519  0.0054  0.8003  0.2312
  926MOL0     C24887   3.278   8.008   5.673 -0.1516 -0.7622  1.3972
  926MOL0     C24888   3.393   7.915   5.707 -0.9366 -1.3137  0.1991
  926MOL0     C24889   3.402   7.788   5.627 -0.3409 -0.5202 -0.1224
  926MOL0     C24890   3.531   7.713   5.670 -0.5680 -0.6065  0.3945
  926MOL0     C24891   3.558   7.574   5.615 -0.1940 -0.2757  0.6112
  926MOL0     N24892   3.466   7.469   5.669 -0.2163  0.1882  0.0849
  926MOL0     C24893   3.480   7.404   5.789  0.4497  0.8917 -1.2971
  926MOL0     C24894   3.374   7.327   5.798 -0.2848  0.6357 -0.0295
  926MOL0     C24895   3.340   7.242   5.907  0.0112  0.4207 -0.3236
  926MOL0     C24896   3.297   7.330   6.023 -0.6226  0.4761  0.3672
  926MOL0     C24897   3.257   7.247   6.141  0.1999  0.3601 -0.2348
  926MOL0     C24898   3.204   7.344   6.248 -0.6711 -0.8623  0.2115
  926MOL0     O24899   3.100   7.434   6.209 -0.1659 -0.3400  0.5315
  926MOL0     C24900   2.968   7.395   6.206  0.7248 -1.0358 -0.1346
  926MOL0     C24901   2.924   7.269   6.229  0.1510  0.0361 -1.9433
  926MOL0     C24902   2.786   7.236   6.218  0.5389  0.4955 -0.1555
  926MOL0     C24903   2.734   7.096   6.261 -0.3326 -0.6314  0.0090
  926MOL0     C24904   2.695   7.334   6.169 -0.4824  0.5840  0.8943
  926MOL0     C24905   2.545   7.304   6.157 -0.4136  0.5957 -0.0047
  926MOL0     O24906   2.477   7.253   6.260 -0.1522  0.7066 -0.2314
  926MOL0     C24907   2.344   7.234   6.264 -0.4224  0.9646  0.5895
  926MOL0     C24908   2.305   7.107   6.305  0.2477 -0.2188  0.8182
  926MOL0     C24909   2.167   7.086   6.298  0.3615  0.3379  0.0928
  926MOL0     C24910   2.074   7.186   6.269  0.0421 -0.3556  0.1394
  926MOL0     O24911   1.943   7.155   6.272  0.5351  0.4113  0.4130
  926MOL0     C24912   1.844   7.252   6.281 -0.3987 -0.0404  0.6570
  926MOL0     C24913   1.712   7.186   6.279 -0.2074 -0.3591 -0.2554
  926MOL0     C24914   1.669   7.094   6.392  0.3791 -1.1072  0.1773
  926MOL0     C24915   1.518   7.039   6.384 -0.4628 -0.1012  0.0211
  926MOL0     C24916   1.512   6.894   6.439 -1.1143 -0.0611  0.2345
  926MOL0     C24917   1.368   6.842   6.425 -1.1228 -0.1768  0.8682
  926MOL0     C24918   1.345   6.715   6.499  0.3802 -0.7601  0.7040
  926MOL0     C24919   1.431   6.592   6.462  0.6341 -0.2077 -0.0979
  926MOL0    Cl24920   1.336   6.444   6.496 -0.1633  0.1408 -0.0036
  926MOL0     C24921   2.120   7.309   6.231 -0.1925 -0.4665 -0.3544
  926MOL0     C24922   2.253   7.337   6.235  0.2117  0.1822  0.1781
  926MOL0     O24923   2.494   7.347   6.052  0.7307 -0.1045  0.1869
  926MOL0     C24924   2.744   7.461   6.149 -0.0043 -0.1130 -0.1362
  926MOL0     C24925   2.882   7.496   6.160 -0.5311 -0.3787  0.3563
  926MOL0     N24926   3.304   7.329   5.679 -0.2269  0.5728  0.3586
  926MOL0     N24927   3.358   7.413   5.599 -0.8739  0.5043  0.8310
  926MOL0     C24928   2.872   8.445   5.295  0.2844 -0.1568 -0.0046
  926MOL0     C24929   2.750   8.484   5.239  0.0289  0.3251  0.2596
  926MOL0     C24930   2.375   8.510   4.989  0.3595 -0.3356  0.8981
  926MOL0     C24931   2.255   8.449   5.042 -0.0624 -0.1060 -0.2684
  926MOL0     C24932   2.138   8.471   4.978  1.1015  0.1459  0.0319
  926MOL0     C24933   2.115   8.550   4.865 -0.6707  0.2179 -0.1586
  926MOL0     O24934   1.990   8.549   4.818  0.0395 -0.4757  1.0144
  926MOL0     C24935   1.956   8.639   4.710  0.1468 -0.1904  0.2691
  926MOL0     C24936   1.975   8.593   4.564 -0.2799 -0.0626 -0.6589
  926MOL0     C24937   1.986   8.708   4.470 -1.1858 -0.7469 -0.6685
  926MOL0     C24938   1.979   8.664   4.323 -0.0692 -0.2249  0.3628
  926MOL0     C24939   1.845   8.674   4.270 -0.1053 -0.2217  0.1483
  926MOL0     C24940   1.737   8.687   4.218  0.5736  0.5676  0.4364
  926MOL0     C24941   2.234   8.603   4.814  0.7961 -0.2515  0.0925
  926MOL0     C24942   2.361   8.596   4.874 -0.5131  0.6234  0.4229
  926MOL0     H24943   2.623   8.166   5.270  3.2086 -0.6787 -0.5463
  926MOL0     H24944   2.825   8.112   5.352  1.1878 -0.4391 -2.4079
  926MOL0     H24945   3.006   8.144   5.568 -1.4071 -1.4298 -1.1882
  926MOL0     H24946   3.031   8.073   5.411 -0.4493 -0.2846  0.7054
  926MOL0     H24947   3.247   8.214   5.398 -1.2683  2.7915 -0.0617
  926MOL0     H24948   3.225   8.249   5.571  0.8254  1.4124 -1.5712
  926MOL0     H24949   3.220   7.958   5.463  2.2613 -0.6631  0.1454
  926MOL0     H24950   3.375   8.040   5.486  0.0966 -3.4054 -0.4198
  926MOL0     H24951   3.288   8.100   5.732 -1.6621 -0.4548  1.2133
  926MOL0     H24952   3.184   7.960   5.700 -1.0501 -0.0765 -0.3890
  926MOL0     H24953   3.486   7.965   5.678 -1.6232 -0.8798 -1.3976
  926MOL0     H24954   3.387   7.894   5.814  2.2741 -0.4846  0.6548
  926MOL0     H24955   3.319   7.724   5.659  0.8466 -2.2666 -0.3638
  926MOL0     H24956   3.409   7.812   5.521 -0.7715 -2.1662 -0.5563
  926MOL0     H24957   3.616   7.763   5.621 -2.2263  0.5950 -1.3989
  926MOL0     H24958   3.550   7.726   5.777 -3.2627  1.6653  0.6826
  926MOL0     H24959   3.662   7.542   5.627 -0.7237 -2.2028  0.4547
  926MOL0     H24960   3.550   7.574   5.506 -1.7294  1.2854  0.6814
  926MOL0     H24961   3.557   7.426   5.861  0.7831 -2.3459 -0.5183
  926MOL0     H24962   3.250   7.187   5.879  0.6084 -1.2601  0.9114
  926MOL0     H24963   3.417   7.170   5.936 -2.3557 -1.6985  1.0912
  926MOL0     H24964   3.224   7.404   5.988 -1.6910  0.0075  1.5025
  926MOL0     H24965   3.388   7.381   6.057 -1.1611  1.5775  0.1939
  926MOL0     H24966   3.334   7.181   6.181  0.2653  0.9852  0.7023
  926MOL0     H24967   3.174   7.183   6.110  1.4022 -1.6252  0.5282
  926MOL0     H24968   3.283   7.409   6.286 -1.4600  0.9047 -1.0441
  926MOL0     H24969   3.179   7.288   6.339  1.1160 -0.2233  1.1337
  926MOL0     H24970   2.997   7.197   6.268  0.1835  0.7290 -0.6863
  926MOL0     H24971   2.693   7.099   6.363 -3.3138 -2.2884 -1.0138
  926MOL0     H24972   2.666   7.068   6.181  2.8731  1.3655 -3.7668
  926MOL0     H24973   2.813   7.020   6.256 -0.2253 -0.4383 -2.8105
  926MOL0     H24974   2.380   7.032   6.329  2.1457  0.9564 -1.0335
  926MOL0     H24975   2.130   6.984   6.302  2.9763 -0.6526  1.4059
  926MOL0     H24976   1.853   7.307   6.376  0.5350  0.4209  0.3199
  926MOL0     H24977   1.851   7.332   6.207 -1.3790  0.5634  1.1812
  926MOL0     H24978   1.634   7.261   6.268 -0.1807 -0.5364 -1.7635
  926MOL0     H24979   1.705   7.128   6.187 -1.1672 -0.4579 -0.1252
  926MOL0     H24980   1.676   7.147   6.487 -0.7828  3.0672 -1.7931
  926MOL0     H24981   1.732   7.005   6.383  1.7873 -0.0902 -0.4994
  926MOL0     H24982   1.451   7.105   6.441  0.8885  0.4469  1.0441
  926MOL0     H24983   1.497   7.031   6.277 -3.0004  3.1145  0.0979
  926MOL0     H24984   1.541   6.884   6.543  0.4324 -1.0964 -0.2620
  926MOL0     H24985   1.580   6.830   6.382 -0.1991 -0.4294  1.6926
  926MOL0     H24986   1.307   6.922   6.467  0.7069  3.4867 -2.7885
  926MOL0     H24987   1.333   6.825   6.323 -2.0815 -0.6761  1.2701
  926MOL0     H24988   1.240   6.688   6.483  0.2159  0.0940  0.2981
  926MOL0     H24989   1.348   6.736   6.607 -0.3159  1.8737  0.2827
  926MOL0     H24990   1.527   6.595   6.515  0.2477  0.3752  0.5695
  926MOL0     H24991   1.450   6.591   6.354 -0.4582 -1.6975 -0.3090
  926MOL0     H24992   2.057   7.394   6.208 -1.3357  0.2590  4.4182
  926MOL0     H24993   2.293   7.437   6.218 -0.4867  1.0143  2.9137
  926MOL0     H24994   2.689   7.548   6.115  2.7640  1.5986 -0.5249
  926MOL0     H24995   2.918   7.594   6.129 -0.1144 -0.0371  1.8518
  926MOL0     H24996   2.943   8.526   5.304  0.3919  0.2438 -3.1885
  926MOL0     H24997   2.722   8.579   5.194 -0.4865  0.2348  0.3844
  926MOL0     H24998   2.262   8.382   5.127  1.0321  0.1481 -0.1440
  926MOL0     H24999   2.050   8.415   5.009 -0.5401  1.9950 -1.0761
  926MOL0     H25000   1.855   8.670   4.736  0.3555 -0.9042  2.0822
  926MOL0     H25001   2.015   8.730   4.724  1.9268 -1.2132 -0.2068
  926MOL0     H25002   1.893   8.530   4.527 -1.2215  0.3741  0.6298
  926MOL0     H25003   2.070   8.538   4.565 -0.7727 -0.9547  0.9324
  926MOL0     H25004   2.086   8.749   4.486 -1.3272 -0.4452 -0.5381
  926MOL0     H25005   1.913   8.788   4.487  0.5996  0.7050  0.6911
  926MOL0     H25006   2.011   8.562   4.305  2.5734  0.9705 -2.4872
  926MOL0     H25007   2.052   8.726   4.270  0.8084 -0.6211  1.0925
  926MOL0     H25008   1.644   8.682   4.164  1.7410 -2.0109 -1.5343
  926MOL0     H25009   2.219   8.667   4.727 -1.3364 -1.5464 -0.5504
  926MOL0     H25010   2.448   8.650   4.840  1.0246 -0.9334  1.7220
  927MOL0     O25011   7.979  10.413   4.505 -0.2575  0.8354  0.1142
  927MOL0     C25012   8.002  10.299   4.550  0.6544  0.5106 -0.2942
  927MOL0     O25013   7.932  10.237   4.662  0.5422  0.1476 -0.5074
  927MOL0     C25014   7.847  10.313   4.732 -0.5121  0.2426 -0.1801
  927MOL0     C25015   7.712  10.282   4.723 -0.0527  0.4892  0.3688
  927MOL0     C25016   7.623  10.363   4.788  1.4075 -0.4145 -0.1649
  927MOL0     C25017   7.659  10.485   4.849  0.8536  0.7481  0.0688
  927MOL0     O25018   7.576  10.575   4.908  0.3909  0.5519  0.2075
  927MOL0     C25019   7.452  10.534   4.969 -0.4737  0.9062  0.0329
  927MOL0     C25020   7.367  10.653   5.005  0.0861  0.3687  0.3785
  927MOL0     C25021   7.221  10.603   5.049  0.2069  0.9366  0.8360
  927MOL0     C25022   7.119  10.717   5.067  0.3456  0.5629 -0.0249
  927MOL0     C25023   7.083  10.794   4.938  0.2752 -0.0503 -0.1892
  927MOL0     C25024   6.988  10.906   4.958  0.3861 -1.1683  0.1433
  927MOL0     C25025   7.020  11.013   5.062  0.0821  0.4407  0.0777
  927MOL0     C25026   6.908  11.118   5.081 -0.3390  0.7356  1.0066
  927MOL0     N25027   6.775  11.071   5.126 -0.0453 -0.3512 -0.0528
  927MOL0     C25028   6.736  11.033   5.255  0.5268 -0.2710  0.1217
  927MOL0     C25029   6.607  10.996   5.245  0.3687  0.2448  0.2841
  927MOL0     C25030   6.524  10.943   5.354  0.0949  0.7828  0.1664
  927MOL0     C25031   6.432  10.837   5.308  0.6073  0.0857  0.9086
  927MOL0     C25032   6.345  10.779   5.420  0.4438 -0.2865  0.1862
  927MOL0     C25033   6.215  10.720   5.370  0.6515  0.2470 -0.8405
  927MOL0     O25034   6.128  10.827   5.343  0.2025  0.8661  0.0212
  927MOL0     C25035   5.992  10.814   5.362  0.0104 -0.6200  0.1031
  927MOL0     C25036   5.922  10.700   5.342  0.9361  0.4512  0.5519
  927MOL0     C25037   5.777  10.692   5.378 -0.9791  0.0470 -0.3168
  927MOL0     C25038   5.721  10.555   5.368  0.8249 -0.4392  0.0303
  927MOL0     C25039   5.705  10.814   5.404  0.7353  0.1805 -0.4382
  927MOL0     C25040   5.561  10.812   5.432 -0.7042 -0.7705 -0.1102
  927MOL0     O25041   5.495  10.919   5.373  0.2429 -0.6157  0.7233
  927MOL0     C25042   5.358  10.930   5.403  0.9749  0.4665  0.8373
  927MOL0     C25043   5.308  10.955   5.537 -0.6078 -0.7381 -0.0155
  927MOL0     C25044   5.173  10.965   5.560  0.7673 -0.4045 -0.0917
  927MOL0     C25045   5.079  10.955   5.463 -0.6381  0.0832  1.0550
  927MOL0     O25046   4.948  10.979   5.503  0.7992  0.0209  0.1069
  927MOL0     C25047   4.838  10.934   5.417 -0.8630  0.1626  0.6807
  927MOL0     C25048   4.699  10.965   5.475 -0.7601 -0.0492 -0.3267
  927MOL0     C25049   4.672  10.861   5.583  0.3334  0.4672 -0.2960
  927MOL0     C25050   4.529  10.891   5.647  0.2898 -1.2790 -0.5306
  927MOL0     C25051   4.487  10.801   5.758  0.2128 -0.4195 -0.6987
  927MOL0     C25052   4.377  10.865   5.841  0.0475 -0.1940 -0.3728
  927MOL0     C25053   4.407  11.005   5.910 -0.7535 -0.1800 -0.0210
  927MOL0     C25054   4.305  11.040   6.027  1.2787 -0.5594 -0.5766
  927MOL0    Cl25055   4.148  11.089   5.961  0.3067 -0.1085 -0.1067
  927MOL0     C25056   5.123  10.926   5.331 -0.1382 -0.7789 -0.2765
  927MOL0     C25057   5.261  10.916   5.303 -0.0999  0.1227 -0.0646
  927MOL0     O25058   5.515  10.727   5.503  0.4309  0.5320  0.3966
  927MOL0     C25059   5.775  10.938   5.401  0.3720  0.6552  0.0266
  927MOL0     C25060   5.918  10.933   5.378 -0.8575 -0.0343  0.7707
  927MOL0     N25061   6.564  11.012   5.112 -0.1258 -0.5707 -0.6738
  927MOL0     N25062   6.670  11.055   5.039  0.2880  0.6939  1.1631
  927MOL0     C25063   7.794  10.524   4.845  0.5061 -0.1144  0.6284
  927MOL0     C25064   7.887  10.437   4.789 -0.0195 -0.5367 -0.0967
  927MOL0     C25065   8.105  10.211   4.482  0.3669  0.0276 -0.0872
  927MOL0     C25066   8.190  10.261   4.379 -0.7332  0.3847 -0.0357
  927MOL0     C25067   8.284  10.180   4.323 -0.8858 -0.8995  0.8254
  927MOL0     C25068   8.294  10.039   4.351 -1.0361 -0.4358  0.0175
  927MOL0     O25069   8.383   9.949   4.288 -0.3732 -0.3290 -0.8032
  927MOL0     C25070   8.456   9.995   4.174  0.0076  0.0926  0.3210
  927MOL0     C25071   8.547   9.874   4.141  0.0404 -0.2376 -0.3056
  927MOL0     C25072   8.465   9.747   4.113 -0.5353  0.0723 -0.7293
  927MOL0     C25073   8.559   9.639   4.055  0.6771  1.2439 -0.5769
  927MOL0     C25074   8.612   9.680   3.920 -0.3550 -0.0635  0.1125
  927MOL0     C25075   8.661   9.697   3.812  0.7672  0.0564 -0.7281
  927MOL0     C25076   8.212   9.987   4.460  0.6007 -0.4714  0.0285
  927MOL0     C25077   8.130  10.073   4.524  1.5582 -0.7310  0.0940
  927MOL0     H25078   7.677  10.194   4.670 -1.3221  1.2664 -0.1345
  927MOL0     H25079   7.517  10.344   4.780  1.2969 -0.7281  1.6326
  927MOL0     H25080   7.396  10.464   4.906 -1.0090 -0.8202  2.2941
  927MOL0     H25081   7.479  10.487   5.064  1.1308 -1.6847 -1.5702
  927MOL0     H25082   7.428  10.718   5.069  0.3010  1.3498 -0.7831
  927MOL0     H25083   7.368  10.709   4.911  1.2368 -1.3010 -0.6503
  927MOL0     H25084   7.174  10.541   4.972  0.3377  2.0293 -0.1508
  927MOL0     H25085   7.224  10.549   5.144  0.7579 -2.9928 -1.2183
  927MOL0     H25086   7.036  10.669   5.119  0.2886  2.0127  1.3111
  927MOL0     H25087   7.166  10.790   5.134  0.7018  1.3203 -1.0600
  927MOL0     H25088   7.169  10.837   4.886 -0.3603  0.0558 -1.1977
  927MOL0     H25089   7.037  10.714   4.879 -1.0230  0.8883 -0.5086
  927MOL0     H25090   6.970  10.956   4.863 -1.6341  0.7089  1.4314
  927MOL0     H25091   6.892  10.861   4.986 -0.4280  0.5744  0.2840
  927MOL0     H25092   7.024  10.957   5.156 -0.6086  1.9726  1.0548
  927MOL0     H25093   7.123  11.048   5.047  0.7133 -0.9821  0.8799
  927MOL0     H25094   6.889  11.174   4.989  4.1898  2.6498  0.9772
  927MOL0     H25095   6.954  11.182   5.157  0.7369  2.4655 -1.0316
  927MOL0     H25096   6.803  11.029   5.340  0.4976  1.6709  0.2857
  927MOL0     H25097   6.596  10.898   5.422  1.0641  0.0513 -1.2868
  927MOL0     H25098   6.469  11.025   5.401 -0.1402 -0.4663  2.1586
  927MOL0     H25099   6.486  10.749   5.270 -1.1120 -0.7517  0.3266
  927MOL0     H25100   6.380  10.873   5.219 -0.2288 -4.9067 -0.9927
  927MOL0     H25101   6.317  10.857   5.491  1.3080 -0.6016  0.8960
  927MOL0     H25102   6.408  10.703   5.468  2.7867 -0.4028 -2.7225
  927MOL0     H25103   6.185  10.675   5.465  2.6752  0.4799 -0.0269
  927MOL0     H25104   6.215  10.647   5.289 -2.0587 -1.2675  0.4085
  927MOL0     H25105   5.964  10.607   5.305 -2.8053 -1.2764  0.1829
  927MOL0     H25106   5.656  10.545   5.281  0.9244 -1.1014  0.0273
  927MOL0     H25107   5.808  10.489   5.362  1.3168 -0.0776  2.2701
  927MOL0     H25108   5.670  10.523   5.459  0.5377  2.2045  0.8732
  927MOL0     H25109   5.384  10.959   5.613 -1.3954  0.4125  0.7380
  927MOL0     H25110   5.129  10.985   5.657  0.8650  2.3609 -0.5355
  927MOL0     H25111   4.851  10.994   5.327 -0.0017  0.2679  0.8739
  927MOL0     H25112   4.853  10.827   5.400 -1.1837 -0.2557  2.7487
  927MOL0     H25113   4.702  11.063   5.523  2.2706 -0.8839  1.4608
  927MOL0     H25114   4.624  10.954   5.396 -0.0009 -1.9566 -0.8192
  927MOL0     H25115   4.749  10.863   5.661 -0.7399 -0.8623  0.8555
  927MOL0     H25116   4.671  10.763   5.535  1.6829  0.2070  0.1592
  927MOL0     H25117   4.534  10.996   5.674 -0.6726 -0.9198 -1.6391
  927MOL0     H25118   4.450  10.887   5.571  0.2437 -2.0559 -0.4546
  927MOL0     H25119   4.557  10.756   5.828 -1.4492 -4.2987 -1.2388
  927MOL0     H25120   4.455  10.711   5.705  0.9778 -0.5040 -1.0322
  927MOL0     H25121   4.292  10.876   5.772  2.5221 -1.7109 -4.0053
  927MOL0     H25122   4.348  10.789   5.914  0.0237 -1.4469 -1.6491
  927MOL0     H25123   4.401  11.089   5.840  0.7674  0.0555  0.0948
  927MOL0     H25124   4.503  11.012   5.961 -1.1124  2.6577  0.4111
  927MOL0     H25125   4.346  11.123   6.086 -2.0380  0.6202  0.3123
  927MOL0     H25126   4.282  10.957   6.094 -3.0343  1.4238  0.7793
  927MOL0     H25127   5.061  10.903   5.245  0.7668 -2.7728 -0.4488
  927MOL0     H25128   5.294  10.898   5.202 -1.8499  1.2277 -0.8824
  927MOL0     H25129   5.727  11.025   5.446 -1.5732 -2.1909  3.9652
  927MOL0     H25130   5.980  11.022   5.382  0.5259 -0.9483  0.0135
  927MOL0     H25131   7.809  10.622   4.889 -0.1465  0.1834  0.2126
  927MOL0     H25132   7.993  10.463   4.789  0.7022 -3.1805  0.7390
  927MOL0     H25133   8.172  10.358   4.334 -2.3262 -0.9377 -2.5012
  927MOL0     H25134   8.342  10.219   4.239 -0.9648 -0.9292  0.7573
  927MOL0     H25135   8.382  10.016   4.097 -0.8571 -0.4638  0.9863
  927MOL0     H25136   8.512  10.084   4.206 -0.6628  0.6137  0.0600
  927MOL0     H25137   8.628   9.850   4.210  0.0447 -2.4142 -0.9807
  927MOL0     H25138   8.599   9.903   4.049  0.8458 -0.4355  0.0824
  927MOL0     H25139   8.383   9.767   4.043  0.8178  1.6307 -1.9398
  927MOL0     H25140   8.428   9.720   4.212  0.0315 -1.4419 -0.9094
  927MOL0     H25141   8.509   9.542   4.055  1.5305  0.7722 -1.7036
  927MOL0     H25142   8.648   9.630   4.117  0.0071  0.9896  0.3582
  927MOL0     H25143   8.700   9.722   3.715 -0.4863 -1.3796 -1.6415
  927MOL0     H25144   8.219   9.883   4.489  0.3887 -1.1488 -2.1805
  927MOL0     H25145   8.065  10.027   4.598  0.0120  1.8096  0.4809
  928MOL0     O25146   9.024   2.077   2.472 -0.8049  0.9532  0.5019
  928MOL0     C25147   9.090   2.000   2.395  0.1426 -0.9770 -0.2407
  928MOL0     O25148   9.041   1.929   2.299  0.4447  0.2411 -0.2763
  928MOL0     C25149   8.905   1.900   2.300 -0.8666  0.4119  0.4315
  928MOL0     C25150   8.830   1.874   2.414  0.4586  0.7102  0.6064
  928MOL0     C25151   8.704   1.818   2.403 -0.2552  0.4653 -0.4566
  928MOL0     C25152   8.657   1.769   2.283  0.2895 -0.3059 -0.5996
  928MOL0     O25153   8.529   1.720   2.274  0.4417  0.4120 -0.5328
  928MOL0     C25154   8.424   1.807   2.237  0.2590  0.3208  0.1594
  928MOL0     C25155   8.292   1.731   2.187  0.8736 -0.4566  0.1199
  928MOL0     C25156   8.248   1.638   2.292  0.0466 -0.3194 -0.3434
  928MOL0     C25157   8.113   1.576   2.270  0.0782 -0.5005 -0.2266
  928MOL0     C25158   8.057   1.505   2.394  0.7248 -0.4687 -0.1122
  928MOL0     C25159   7.917   1.454   2.368  0.3569  0.1717 -0.1999
  928MOL0     C25160   7.857   1.394   2.492  1.0488  0.6792  0.1212
  928MOL0     C25161   7.755   1.286   2.443  0.1479 -0.2500  0.4334
  928MOL0     N25162   7.693   1.249   2.568 -0.3915  0.5820 -0.2410
  928MOL0     C25163   7.614   1.339   2.641 -0.8742  0.0124 -0.1694
  928MOL0     C25164   7.572   1.277   2.753 -0.0277 -0.1718 -0.6938
  928MOL0     C25165   7.487   1.335   2.874 -0.1209  0.5894  0.6776
  928MOL0     C25166   7.345   1.280   2.888 -0.7455  0.0765 -0.3822
  928MOL0     C25167   7.264   1.334   2.769  0.9128 -0.2431 -0.2188
  928MOL0     C25168   7.117   1.341   2.821  0.4757  0.4874  0.3649
  928MOL0     O25169   7.055   1.214   2.805 -0.2915 -0.7548  0.6288
  928MOL0     C25170   6.938   1.189   2.864 -0.7231 -0.3725  0.0153
  928MOL0     C25171   6.888   1.054   2.866 -0.0106  0.3324  1.4359
  928MOL0     C25172   6.754   1.022   2.899 -0.7973  0.4611 -0.2108
  928MOL0     C25173   6.716   0.872   2.896  0.3499  0.6750 -0.1313
  928MOL0     C25174   6.675   1.128   2.949 -1.0760  0.6027  0.2403
  928MOL0     C25175   6.532   1.093   2.997 -0.1838 -0.7447  0.8082
  928MOL0     O25176   6.443   1.189   2.969  0.3509 -0.3781  0.2463
  928MOL0     C25177   6.309   1.168   3.003 -0.2006 -0.3758 -0.0254
  928MOL0     C25178   6.240   1.058   2.974  0.4972 -0.5636 -0.4322
  928MOL0     C25179   6.098   1.046   2.992  0.4843 -0.7511 -0.3863
  928MOL0     C25180   6.028   1.153   3.052 -0.3017 -0.6495  0.1209
  928MOL0     O25181   5.899   1.134   3.094  0.2038 -0.6960  0.1972
  928MOL0     C25182   5.817   1.230   3.028 -0.1468  0.1077  0.7950
  928MOL0     C25183   5.681   1.200   3.097  0.4831 -0.5720  0.1163
  928MOL0     C25184   5.588   1.104   3.023 -0.3772 -0.4709 -0.1744
  928MOL0     C25185   5.443   1.112   3.075 -0.2259  0.8551 -0.4360
  928MOL0     C25186   5.356   1.006   3.015 -0.2008  0.3808  0.3406
  928MOL0     C25187   5.215   1.009   3.074  0.7527  0.1762  0.2987
  928MOL0     C25188   5.119   0.964   2.969  0.3607 -0.3934  0.2241
  928MOL0     C25189   4.994   0.906   3.036 -0.7321  0.1792  0.5516
  928MOL0    Cl25190   4.862   0.868   2.916 -0.0284 -0.5452  0.1694
  928MOL0     C25191   6.097   1.272   3.080 -0.6601 -0.8403 -0.4099
  928MOL0     C25192   6.235   1.276   3.052  0.1893  0.3889  0.1092
  928MOL0     O25193   6.510   0.998   3.068 -0.4822 -0.5520  0.3114
  928MOL0     C25194   6.723   1.256   2.949 -0.8649  0.0800 -0.0872
  928MOL0     C25195   6.851   1.288   2.904 -0.5946  0.3095  0.9044
  928MOL0     N25196   7.624   1.146   2.743 -0.2017 -0.0201 -0.6015
  928MOL0     N25197   7.689   1.123   2.633 -0.7617 -0.1406 -0.0887
  928MOL0     C25198   8.732   1.802   2.164 -0.5052  0.5780 -0.6472
  928MOL0     C25199   8.859   1.854   2.174 -0.0859 -0.0173 -0.1985
  928MOL0     C25200   9.233   2.000   2.417 -1.0848  0.6108  0.6315
  928MOL0     C25201   9.327   1.984   2.317 -0.0029 -0.3633  0.7773
  928MOL0     C25202   9.467   1.998   2.346  0.2516  0.7022  0.2161
  928MOL0     C25203   9.509   2.032   2.479 -0.2278 -0.0257  0.5375
  928MOL0     O25204   9.629   2.069   2.520 -0.7122  0.6650 -0.3068
  928MOL0     C25205   9.741   2.051   2.429  0.5756 -0.4993 -0.5502
  928MOL0     C25206   9.794   1.914   2.420  0.1977 -0.1610 -0.2170
  928MOL0     C25207   9.844   1.872   2.553 -0.8214 -0.0216  0.0692
  928MOL0     C25208   9.915   1.738   2.546 -0.1695 -0.1013 -0.1873
  928MOL0     C25209  10.020   1.734   2.642  0.1221  0.7344  0.6087
  928MOL0     C25210  10.119   1.727   2.719  0.3562  0.3049  0.4492
  928MOL0     C25211   9.414   2.034   2.575 -0.1277  0.6681 -0.3282
  928MOL0     C25212   9.273   2.013   2.550 -0.2533 -0.1172  0.5949
  928MOL0     H25213   8.867   1.897   2.513 -0.0123  0.1127  0.9314
  928MOL0     H25214   8.644   1.813   2.494 -0.3260 -3.4731 -0.5401
  928MOL0     H25215   8.407   1.877   2.319 -1.7332 -0.8046  0.7652
  928MOL0     H25216   8.462   1.870   2.156 -0.4790 -0.3218 -0.7166
  928MOL0     H25217   8.211   1.801   2.168 -0.9566 -1.2380  3.9204
  928MOL0     H25218   8.305   1.682   2.090 -0.7280  2.1076 -1.5087
  928MOL0     H25219   8.320   1.557   2.302 -0.1653 -0.6955 -1.6408
  928MOL0     H25220   8.246   1.691   2.388 -0.0837  0.8172 -0.9565
  928MOL0     H25221   8.038   1.647   2.235  1.3699  0.4780 -1.0765
  928MOL0     H25222   8.126   1.507   2.186  1.2412  0.8475 -1.1985
  928MOL0     H25223   8.113   1.416   2.421  0.1522 -1.0028 -0.6516
  928MOL0     H25224   8.048   1.565   2.485  1.6741  1.0764 -0.9807
  928MOL0     H25225   7.855   1.534   2.327  0.1054 -0.4823 -1.1357
  928MOL0     H25226   7.935   1.373   2.296 -3.2417 -0.7184 -0.3126
  928MOL0     H25227   7.940   1.343   2.543  0.5833 -1.6207 -1.2596
  928MOL0     H25228   7.809   1.465   2.560 -0.4862 -2.1769  2.2456
  928MOL0     H25229   7.805   1.207   2.387  0.4032 -0.6845  1.2556
  928MOL0     H25230   7.682   1.331   2.375  0.8307 -3.9162 -3.1287
  928MOL0     H25231   7.590   1.444   2.624  1.6125  0.5005 -1.0299
  928MOL0     H25232   7.532   1.304   2.969 -0.3944 -2.1243 -0.0235
  928MOL0     H25233   7.482   1.445   2.867 -2.4718  0.7340  3.2184
  928MOL0     H25234   7.315   1.320   2.985  4.3028 -1.2696  2.0470
  928MOL0     H25235   7.360   1.172   2.893  2.5323  0.4439 -0.3951
  928MOL0     H25236   7.257   1.262   2.686  1.6571  0.9018 -1.3177
  928MOL0     H25237   7.310   1.424   2.728  0.2019 -1.1007 -3.1440
  928MOL0     H25238   7.059   1.418   2.769 -1.2123 -1.3821 -0.6352
  928MOL0     H25239   7.106   1.364   2.927 -1.2310 -1.7126  0.7300
  928MOL0     H25240   6.950   0.967   2.846  0.0301  0.6954 -0.1824
  928MOL0     H25241   6.623   0.857   2.840 -1.0153  1.3485  1.8440
  928MOL0     H25242   6.797   0.811   2.856  0.0050 -1.9791  2.8547
  928MOL0     H25243   6.704   0.836   2.998 -1.3974  0.4974 -0.3743
  928MOL0     H25244   6.282   0.965   2.938 -0.0458 -0.6154 -0.9480
  928MOL0     H25245   6.051   0.949   2.980  2.1275 -1.3926 -2.1910
  928MOL0     H25246   5.849   1.332   3.050 -1.3972  0.1527  2.6438
  928MOL0     H25247   5.815   1.207   2.921 -0.0269 -2.2169  1.2411
  928MOL0     H25248   5.707   1.171   3.200  0.6982 -0.1010  0.1988
  928MOL0     H25249   5.622   1.291   3.113  0.9301 -0.3323  0.4074
  928MOL0     H25250   5.627   1.002   3.015 -2.5608 -1.2958 -1.2588
  928MOL0     H25251   5.590   1.148   2.923  0.4398  4.4413  1.7202
  928MOL0     H25252   5.427   1.109   3.184 -1.0744 -3.1012 -0.5354
  928MOL0     H25253   5.412   1.207   3.030  1.1162  0.6363 -1.9101
  928MOL0     H25254   5.394   0.904   3.027 -2.4387 -0.6937 -1.2116
  928MOL0     H25255   5.342   1.027   2.909 -3.4408 -0.2024  0.5730
  928MOL0     H25256   5.209   0.938   3.157 -3.0463 -0.9512 -0.7309
  928MOL0     H25257   5.195   1.108   3.116 -3.0033 -1.1502  2.0861
  928MOL0     H25258   5.173   0.900   2.898  0.5702 -0.4702  0.4493
  928MOL0     H25259   5.093   1.044   2.899  0.8877 -1.4392 -1.2169
  928MOL0     H25260   4.957   0.964   3.121 -1.6745 -0.0221  0.2915
  928MOL0     H25261   5.027   0.816   3.089 -0.3957  2.5032  4.6783
  928MOL0     H25262   6.055   1.363   3.119  1.3573  0.9531 -2.1446
  928MOL0     H25263   6.288   1.370   3.059  0.7746  0.0620  0.0788
  928MOL0     H25264   6.667   1.348   2.964 -0.1151  0.5707 -0.1919
  928MOL0     H25265   6.879   1.392   2.897  1.1327 -0.0819  1.5590
  928MOL0     H25266   8.687   1.764   2.073 -0.4575  0.5916 -0.6763
  928MOL0     H25267   8.930   1.864   2.092 -0.9225  0.2748 -0.9011
  928MOL0     H25268   9.281   1.959   2.222 -2.3243  0.0912  1.7180
  928MOL0     H25269   9.539   1.994   2.265 -2.4388 -0.9042 -2.2868
  928MOL0     H25270   9.722   2.079   2.325  0.8746  1.2092 -0.1761
  928MOL0     H25271   9.825   2.110   2.467 -0.0586 -1.1139  2.0173
  928MOL0     H25272   9.876   1.918   2.348  0.1071  0.5127 -0.2845
  928MOL0     H25273   9.714   1.847   2.386 -1.9548  1.5727  1.1550
  928MOL0     H25274   9.756   1.841   2.609 -0.3087 -3.5223 -0.8049
  928MOL0     H25275   9.901   1.949   2.605 -1.0708 -0.4040  0.9308
  928MOL0     H25276   9.966   1.720   2.451  0.7313 -3.1484  0.7559
  928MOL0     H25277   9.851   1.650   2.559 -0.3422 -0.2627 -1.8469
  928MOL0     H25278  10.199   1.710   2.788 -0.5016  0.9189  1.6224
  928MOL0     H25279   9.436   2.046   2.680 -0.5103 -4.7430  0.6417
  928MOL0     H25280   9.203   2.007   2.633 -1.4637  3.0289 -0.0707
  929MOL0     O25281   8.181   7.344   6.965  0.3833  0.9986 -0.2806
  929MOL0     C25282   8.129   7.418   7.049 -0.5789  0.0881  0.0396
  929MOL0     O25283   8.004   7.412   7.109  0.4072 -0.6076  0.3449
  929MOL0     C25284   7.907   7.311   7.083 -0.2823  0.0142 -0.3587
  929MOL0     C25285   7.777   7.349   7.126 -0.4970 -0.9888 -0.3487
  929MOL0     C25286   7.674   7.254   7.126  0.0909  0.5028  0.0466
  929MOL0     C25287   7.694   7.129   7.066 -0.7080  0.3079  0.2988
  929MOL0     O25288   7.584   7.056   7.063 -0.3513  0.4952 -0.1729
  929MOL0     C25289   7.585   6.921   7.020  0.5710 -0.6043  0.8030
  929MOL0     C25290   7.465   6.851   7.085 -0.0445 -0.7397  0.2628
  929MOL0     C25291   7.469   6.709   7.044 -0.0218 -0.2783 -0.3816
  929MOL0     C25292   7.344   6.643   7.100  0.0281 -0.5823 -0.4474
  929MOL0     C25293   7.345   6.485   7.090 -1.0317 -1.0586 -0.0940
  929MOL0     C25294   7.227   6.424   7.141  0.2734 -0.7015  0.0059
  929MOL0     C25295   7.212   6.417   7.289 -0.1369  0.6718 -0.1068
  929MOL0     C25296   7.074   6.360   7.336  0.0351 -0.2234  1.1407
  929MOL0     N25297   6.972   6.454   7.288  0.2447 -0.6488  0.3414
  929MOL0     C25298   6.952   6.580   7.333 -0.0826  0.1608  0.8391
  929MOL0     C25299   6.846   6.622   7.256 -0.1335 -0.2568 -0.4303
  929MOL0     C25300   6.785   6.764   7.273  0.5468  0.4746 -0.8077
  929MOL0     C25301   6.858   6.878   7.206  0.7442  0.4469 -0.4076
  929MOL0     C25302   6.879   6.854   7.056  0.2229  0.0513  0.3047
  929MOL0     C25303   6.964   6.968   6.984 -0.6545  0.1156 -0.1952
  929MOL0     O25304   6.923   7.109   7.004  0.2259 -0.3881 -0.9199
  929MOL0     C25305   6.824   7.153   6.922  0.6011 -0.0117  0.6729
  929MOL0     C25306   6.796   7.103   6.794 -0.3436 -0.2715 -0.1806
  929MOL0     C25307   6.676   7.126   6.729 -0.0324 -0.1557  0.7732
  929MOL0     C25308   6.652   7.060   6.598 -0.3541  0.5535  0.1848
  929MOL0     C25309   6.575   7.215   6.790  0.1416 -0.1364 -0.3804
  929MOL0     C25310   6.437   7.240   6.735  0.1160  0.1258 -0.5584
  929MOL0     O25311   6.384   7.362   6.780  0.4590 -0.3405  0.1480
  929MOL0     C25312   6.243   7.395   6.771  0.9658  0.4113  0.0062
  929MOL0     C25313   6.154   7.290   6.790  0.3832 -0.2568 -0.1878
  929MOL0     C25314   6.025   7.299   6.743 -0.2952 -0.3414 -0.0624
  929MOL0     C25315   5.972   7.426   6.709 -0.1497 -0.0989  0.9375
  929MOL0     O25316   5.840   7.442   6.659  0.0284  0.1753 -0.1121
  929MOL0     C25317   5.775   7.544   6.738  0.0882  0.0060 -0.4875
  929MOL0     C25318   5.631   7.507   6.754 -0.5326 -0.0863  0.6368
  929MOL0     C25319   5.562   7.598   6.849  0.5789  0.0645  0.2694
  929MOL0     C25320   5.414   7.555   6.836 -0.1937  0.4160  0.3332
  929MOL0     C25321   5.308   7.643   6.906 -0.0457 -0.8587  0.4687
  929MOL0     C25322   5.167   7.619   6.844 -0.5500  0.5597  0.3983
  929MOL0     C25323   5.105   7.479   6.860 -0.4671 -0.6384 -0.3460
  929MOL0     C25324   4.987   7.456   6.782  0.9013  0.0606 -0.3546
  929MOL0    Cl25325   4.854   7.567   6.832  0.0725 -0.1937 -0.0853
  929MOL0     C25326   6.068   7.529   6.706  0.1328 -0.4342  0.7153
  929MOL0     C25327   6.196   7.518   6.729  0.2550  0.1259  0.5052
  929MOL0     O25328   6.380   7.158   6.667 -0.4949 -0.5758  0.3476
  929MOL0     C25329   6.620   7.276   6.913 -0.4239  0.4312  0.9124
  929MOL0     C25330   6.737   7.243   6.977 -0.1200 -0.6975  0.2797
  929MOL0     N25331   6.788   6.518   7.186 -0.2169  1.4213  0.4941
  929MOL0     N25332   6.871   6.420   7.202  0.2276  0.4494 -0.8683
  929MOL0     C25333   7.824   7.088   7.024  0.1167 -0.0308 -0.7693
  929MOL0     C25334   7.933   7.182   7.031  0.1724 -0.3286 -0.4530
  929MOL0     C25335   8.203   7.535   7.093 -0.0124  0.0375  0.4499
  929MOL0     C25336   8.138   7.638   7.173 -0.0532  0.0576  0.4276
  929MOL0     C25337   8.207   7.749   7.226  0.0459 -0.5298 -0.0053
  929MOL0     C25338   8.346   7.757   7.207 -0.2848 -0.4200 -0.1193
  929MOL0     O25339   8.421   7.855   7.265 -0.3596  0.4221 -0.1700
  929MOL0     C25340   8.406   7.897   7.400  0.1073  0.0637  1.0525
  929MOL0     C25341   8.446   8.033   7.417 -0.6555 -0.5657 -0.1785
  929MOL0     C25342   8.600   8.050   7.391 -0.8879 -0.8234 -0.0153
  929MOL0     C25343   8.661   8.193   7.398 -0.2013 -0.1901 -1.1201
  929MOL0     C25344   8.668   8.233   7.538  0.4478 -0.2978 -0.7182
  929MOL0     C25345   8.688   8.271   7.652  0.2690 -0.3470 -0.0049
  929MOL0     C25346   8.408   7.671   7.117  0.2574 -0.4547  0.0931
  929MOL0     C25347   8.340   7.565   7.058  0.0379  0.0956 -0.2804
  929MOL0     H25348   7.753   7.444   7.172 -1.0887  0.2728 -3.0811
  929MOL0     H25349   7.586   7.291   7.177  1.2509  2.2440  0.9024
  929MOL0     H25350   7.560   6.934   6.915  0.7033 -1.2628  0.6835
  929MOL0     H25351   7.672   6.855   7.032  0.4591 -0.4516  2.8016
  929MOL0     H25352   7.469   6.849   7.194 -0.8891 -0.5337  0.3031
  929MOL0     H25353   7.372   6.898   7.052 -0.0747 -1.8564 -1.3778
  929MOL0     H25354   7.458   6.699   6.936  1.9076  4.4351 -1.2545
  929MOL0     H25355   7.564   6.663   7.074  0.2776  1.6221  1.9156
  929MOL0     H25356   7.331   6.671   7.205  3.4705 -0.7938  0.1541
  929MOL0     H25357   7.255   6.688   7.054  0.4140  0.6706 -0.0297
  929MOL0     H25358   7.352   6.466   6.982  2.4108 -0.8585 -0.0050
  929MOL0     H25359   7.437   6.439   7.128  0.4072  1.3702 -0.3993
  929MOL0     H25360   7.143   6.486   7.105 -0.5427  0.0890  3.0014
  929MOL0     H25361   7.202   6.327   7.098 -1.1491 -0.3955  0.0789
  929MOL0     H25362   7.294   6.350   7.316 -0.9593 -0.1040  0.5285
  929MOL0     H25363   7.226   6.511   7.343 -4.8255  0.6905  1.5021
  929MOL0     H25364   7.069   6.358   7.445 -4.7950  1.4618  1.1962
  929MOL0     H25365   7.054   6.261   7.294 -2.6726  1.0934 -0.9877
  929MOL0     H25366   7.002   6.645   7.404 -0.1457 -1.1535  2.1262
  929MOL0     H25367   6.683   6.759   7.235  1.3521  1.0074 -3.2742
  929MOL0     H25368   6.780   6.800   7.376 -0.1596  0.7073 -0.9189
  929MOL0     H25369   6.950   6.890   7.265 -0.0906 -0.8864  1.2621
  929MOL0     H25370   6.812   6.976   7.220 -3.7448 -1.4296 -0.3937
  929MOL0     H25371   6.784   6.861   7.003  1.9167  1.7512 -2.7798
  929MOL0     H25372   6.924   6.755   7.047  2.7446  0.8220  2.9104
  929MOL0     H25373   6.980   6.958   6.877  1.0994  2.3485 -0.2228
  929MOL0     H25374   7.067   6.963   7.022 -0.2274 -0.7375 -1.4441
  929MOL0     H25375   6.869   7.050   6.734 -2.3391 -1.0011 -2.1129
  929MOL0     H25376   6.620   7.143   6.533 -1.3372 -1.0698 -1.4948
  929MOL0     H25377   6.728   6.994   6.556 -1.6701 -1.8625  1.4322
  929MOL0     H25378   6.564   6.998   6.617  0.6657 -0.9677  0.0703
  929MOL0     H25379   6.191   7.195   6.826  1.0619 -0.7412 -2.0313
  929MOL0     H25380   5.961   7.213   6.726  1.6170 -1.6178 -1.1648
  929MOL0     H25381   5.816   7.563   6.838 -0.2238 -1.5278 -0.0319
  929MOL0     H25382   5.772   7.637   6.682 -3.1836  0.8073  0.7910
  929MOL0     H25383   5.577   7.510   6.659  3.2317 -0.5960 -1.7091
  929MOL0     H25384   5.618   7.402   6.783  1.0790 -0.6996 -0.6981
  929MOL0     H25385   5.583   7.702   6.821 -1.5346  1.5905  3.6995
  929MOL0     H25386   5.601   7.579   6.949  1.5717 -0.0705 -0.1316
  929MOL0     H25387   5.376   7.554   6.734 -3.3736 -1.5207  1.4000
  929MOL0     H25388   5.394   7.454   6.874 -2.6193 -0.0031 -1.8226
  929MOL0     H25389   5.332   7.750   6.896 -2.0989 -0.2937  1.1078
  929MOL0     H25390   5.306   7.615   7.011  0.9291  0.4450  0.8604
  929MOL0     H25391   5.107   7.701   6.886 -0.8411  0.3648  0.3640
  929MOL0     H25392   5.179   7.625   6.735  1.7844 -0.2983  0.5552
  929MOL0     H25393   5.096   7.470   6.969  2.4139  0.1531  0.0301
  929MOL0     H25394   5.184   7.407   6.837  0.3356  0.6045 -1.5971
  929MOL0     H25395   4.946   7.355   6.788 -3.9587  1.7163 -1.0594
  929MOL0     H25396   5.023   7.470   6.679 -0.5548  4.4645 -0.4968
  929MOL0     H25397   6.043   7.632   6.681 -3.1528 -1.4484 -0.8794
  929MOL0     H25398   6.262   7.603   6.715 -1.6312  1.3655 -1.4612
  929MOL0     H25399   6.562   7.347   6.970  2.2429  2.3445  1.4831
  929MOL0     H25400   6.775   7.298   7.062 -1.7411 -0.3368  0.7972
  929MOL0     H25401   7.837   6.985   6.992 -0.4264 -0.3203 -0.0563
  929MOL0     H25402   8.031   7.148   6.999 -0.6251 -1.0382 -2.2776
  929MOL0     H25403   8.031   7.646   7.186  0.3099  2.4682  2.7980
  929MOL0     H25404   8.138   7.812   7.281 -0.9580  0.3256 -2.1229
  929MOL0     H25405   8.307   7.867   7.435 -0.2571 -1.1101 -0.8864
  929MOL0     H25406   8.471   7.836   7.463 -1.2877 -3.1273 -0.3857
  929MOL0     H25407   8.431   8.067   7.520  0.4186  2.0391 -0.7951
  929MOL0     H25408   8.379   8.092   7.354  0.0317  2.8195  2.0100
  929MOL0     H25409   8.617   8.018   7.288  0.5327 -2.8265  0.7981
  929MOL0     H25410   8.656   7.979   7.451  0.3894 -0.6858 -0.9846
  929MOL0     H25411   8.597   8.264   7.345 -0.2861  0.4905 -0.1389
  929MOL0     H25412   8.762   8.193   7.356  0.2401  0.1717 -0.0886
  929MOL0     H25413   8.711   8.304   7.752  1.1572  1.9834 -0.9249
  929MOL0     H25414   8.512   7.687   7.090  0.7776  0.5546  2.5034
  929MOL0     H25415   8.395   7.501   6.989  0.6507  0.1067  0.1880
  930MOL0     O25416  11.245  10.566   8.281  0.7835 -0.0222 -0.3127
  930MOL0     C25417  11.316  10.650   8.337 -0.4549  0.2996  0.2217
  930MOL0     O25418  11.294  10.780   8.331  0.2889 -0.6020  0.5851
  930MOL0     C25419  11.188  10.817   8.257  0.3751  0.0908 -0.0729
  930MOL0     C25420  11.067  10.842   8.323  0.4160  0.6421  0.2779
  930MOL0     C25421  10.945  10.845   8.251 -0.1840 -0.3607  0.3215
  930MOL0     C25422  10.945  10.841   8.110  0.0027  0.3992  0.3880
  930MOL0     O25423  10.820  10.842   8.045 -0.3662 -0.3183  0.0387
  930MOL0     C25424  10.804  10.824   7.904  0.2375  0.1864 -0.1013
  930MOL0     C25425  10.665  10.868   7.864  0.4827  0.3940  0.2368
  930MOL0     C25426  10.565  10.782   7.943 -0.2899 -0.2171  0.5306
  930MOL0     C25427  10.421  10.840   7.918  0.2035  0.3113 -0.5859
  930MOL0     C25428  10.324  10.720   7.912  0.6958 -0.4378  0.2891
  930MOL0     C25429  10.183  10.770   7.932 -0.0772 -0.0636  0.3739
  930MOL0     C25430  10.081  10.657   7.934 -0.3651  0.6307 -0.2189
  930MOL0     C25431  10.086  10.571   8.068 -0.1686  0.0178  0.2410
  930MOL0     N25432   9.999  10.454   8.058 -0.2455  0.0456 -0.0276
  930MOL0     C25433  10.011  10.344   8.142 -0.3861  0.9794  0.3102
  930MOL0     C25434   9.900  10.271   8.117 -0.1960  0.5279 -0.5677
  930MOL0     C25435   9.881  10.134   8.186 -0.0594 -0.3126  0.0945
  930MOL0     C25436   9.805  10.120   8.319  0.1926 -0.1083 -0.1767
  930MOL0     C25437   9.826   9.990   8.393 -0.5240 -0.3667 -0.5467
  930MOL0     C25438   9.768   9.877   8.308  0.7129 -0.4170 -0.7270
  930MOL0     O25439   9.629   9.881   8.341  0.1832 -0.3307 -0.3271
  930MOL0     C25440   9.541   9.784   8.292  0.3943  0.1558 -0.7693
  930MOL0     C25441   9.587   9.681   8.207  0.8416 -0.1668  0.3120
  930MOL0     C25442   9.496   9.580   8.169 -0.0487 -0.2268  0.0652
  930MOL0     C25443   9.544   9.471   8.078 -0.4243  0.1264  0.6696
  930MOL0     C25444   9.362   9.580   8.216 -0.4360 -0.5664 -0.1313
  930MOL0     C25445   9.265   9.469   8.193 -0.3757 -1.3698  0.4506
  930MOL0     O25446   9.127   9.513   8.193 -0.5143  0.1005 -0.6816
  930MOL0     C25447   9.025   9.434   8.154  0.2171  0.0688  0.1133
  930MOL0     C25448   8.894   9.487   8.152 -0.6591  0.7343  0.5109
  930MOL0     C25449   8.778   9.407   8.133 -0.2223  0.1630  0.3343
  930MOL0     C25450   8.792   9.272   8.118 -0.4814 -0.6284  1.2171
  930MOL0     O25451   8.683   9.187   8.096 -0.0840  0.0328  0.9370
  930MOL0     C25452   8.573   9.181   8.185 -0.2839 -1.1844  0.3387
  930MOL0     C25453   8.447   9.143   8.116  0.0432 -0.1240  0.5850
  930MOL0     C25454   8.396   9.253   8.024 -0.1043 -1.2954  0.5019
  930MOL0     C25455   8.433   9.226   7.878 -0.4826  0.4234 -0.3746
  930MOL0     C25456   8.403   9.345   7.794  0.0423  0.4457  0.6575
  930MOL0     C25457   8.401   9.308   7.642  0.6294  0.6681  0.1675
  930MOL0     C25458   8.275   9.226   7.609 -0.3939  0.1900 -1.0024
  930MOL0     C25459   8.250   9.230   7.460 -0.2433 -0.1083  0.6139
  930MOL0    Cl25460   8.152   9.095   7.410 -0.0130  0.1072  0.0998
  930MOL0     C25461   8.925   9.219   8.108  0.0955 -0.3674  0.0628
  930MOL0     C25462   9.038   9.295   8.127  0.1924  0.3371 -0.4516
  930MOL0     O25463   9.315   9.357   8.194 -0.0826  0.6169  0.0955
  930MOL0     C25464   9.317   9.690   8.293  0.0491 -0.5368  0.9633
  930MOL0     C25465   9.410   9.790   8.327  0.1134 -0.9166  0.6263
  930MOL0     N25466   9.822  10.327   8.010 -0.1493 -0.4881  0.6958
  930MOL0     N25467   9.889  10.434   7.975 -0.0961  0.6176  0.0604
  930MOL0     C25468  11.072  10.827   8.046  0.3244 -0.5897  0.3855
  930MOL0     C25469  11.192  10.823   8.122 -0.5046 -0.5164 -0.2142
  930MOL0     C25470  11.432  10.603   8.419  0.0427 -0.0689  0.3204
  930MOL0     C25471  11.475  10.476   8.420 -0.1673 -0.1690 -0.7198
  930MOL0     C25472  11.589  10.431   8.492 -0.1727  0.3801  0.9040
  930MOL0     C25473  11.649  10.515   8.580 -0.6633  0.2566  0.4080
  930MOL0     O25474  11.763  10.472   8.658  0.8902 -0.2518  0.2317
  930MOL0     C25475  11.838  10.358   8.614  0.2220 -0.3171  0.4192
  930MOL0     C25476  11.979  10.382   8.663 -0.0357  0.1546  0.0587
  930MOL0     C25477  12.038  10.515   8.596  0.3559  1.3151 -0.4490
  930MOL0     C25478  12.180  10.539   8.630 -0.4196  0.1799 -0.4970
  930MOL0     C25479  12.273  10.419   8.592  0.6005  0.3327  0.8786
  930MOL0     C25480  12.337  10.329   8.537 -0.8886  0.5074  0.3448
  930MOL0     C25481  11.601  10.646   8.589  0.4659  0.2105  0.0380
  930MOL0     C25482  11.497  10.687   8.510 -0.2281  0.4862  0.7379
  930MOL0     H25483  11.083  10.847   8.430  3.4454 -2.1033  0.1094
  930MOL0     H25484  10.845  10.851   8.293 -2.4544 -3.4699 -3.9121
  930MOL0     H25485  10.885  10.881   7.858  1.3572 -2.4126 -1.5868
  930MOL0     H25486  10.821  10.722   7.867  0.6390 -0.1005  0.8590
  930MOL0     H25487  10.651  10.975   7.878  1.9110  1.0193 -2.3838
  930MOL0     H25488  10.645  10.852   7.757  2.2468  1.2946 -0.2572
  930MOL0     H25489  10.576  10.677   7.917  1.2098 -0.5961  2.3957
  930MOL0     H25490  10.594  10.797   8.048  0.9509 -0.0983  0.1923
  930MOL0     H25491  10.388  10.895   8.007  0.1400 -0.3570 -0.1870
  930MOL0     H25492  10.405  10.914   7.839  0.3509  2.1645  1.0129
  930MOL0     H25493  10.333  10.673   7.813 -1.5456  1.2107 -0.7945
  930MOL0     H25494  10.351  10.656   7.996 -1.2819 -0.2164  1.1293
  930MOL0     H25495  10.179  10.829   8.024  1.7926  1.9585 -0.7519
  930MOL0     H25496  10.160  10.828   7.842 -1.4914 -1.6692 -0.3733
  930MOL0     H25497   9.979  10.694   7.919 -0.5253  0.7084  0.9421
  930MOL0     H25498  10.108  10.586   7.856  0.8967 -0.8034  1.4343
  930MOL0     H25499  10.047  10.627   8.153 -3.1059  1.1725 -1.6754
  930MOL0     H25500  10.188  10.538   8.089 -1.0261 -1.9355  1.5425
  930MOL0     H25501  10.088  10.331   8.218 -0.5655  3.1405  0.9429
  930MOL0     H25502   9.820  10.074   8.118 -2.3679  2.2443 -0.2568
  930MOL0     H25503   9.977  10.082   8.189  0.0016 -0.1704  2.4340
  930MOL0     H25504   9.702  10.139   8.290 -0.2692 -2.9581 -0.7144
  930MOL0     H25505   9.836  10.202   8.385  3.0211  0.4696 -2.0255
  930MOL0     H25506   9.783   9.987   8.494 -3.2400  0.5904 -1.5926
  930MOL0     H25507   9.934   9.974   8.395 -0.2495  0.5646 -3.4072
  930MOL0     H25508   9.813   9.778   8.323  2.3981  0.1032 -2.0493
  930MOL0     H25509   9.773   9.889   8.200 -0.0618  1.5095 -0.5939
  930MOL0     H25510   9.680   9.662   8.156  0.4432 -1.7526  0.1241
  930MOL0     H25511   9.605   9.507   7.996 -2.1367 -1.2757 -1.3317
  930MOL0     H25512   9.606   9.398   8.132  0.9286  0.0157 -0.9427
  930MOL0     H25513   9.463   9.414   8.031 -0.0019 -0.4203  0.5863
  930MOL0     H25514   8.893   9.592   8.178  2.3489  0.7201  1.0502
  930MOL0     H25515   8.681   9.456   8.125 -0.3255  0.2942  2.0069
  930MOL0     H25516   8.584   9.102   8.260  1.9419  0.2527  1.6419
  930MOL0     H25517   8.551   9.275   8.236 -0.0308 -1.4792  0.9960
  930MOL0     H25518   8.469   9.055   8.054 -1.3554  0.0208 -0.1561
  930MOL0     H25519   8.372   9.119   8.192 -0.2386  0.3266  0.4522
  930MOL0     H25520   8.428   9.353   8.054  1.9775 -0.5127 -3.6420
  930MOL0     H25521   8.286   9.246   8.026 -0.2100  0.3343  1.2418
  930MOL0     H25522   8.541   9.210   7.869 -0.4853  0.6761 -0.9484
  930MOL0     H25523   8.380   9.138   7.840  1.1372 -0.7916  0.0652
  930MOL0     H25524   8.478   9.422   7.814  0.1835  1.3542 -2.7576
  930MOL0     H25525   8.311   9.392   7.830  0.2554  0.7855  0.7646
  930MOL0     H25526   8.400   9.399   7.581 -0.9116  1.9728  1.9782
  930MOL0     H25527   8.490   9.253   7.613  0.3445  0.3398 -0.1009
  930MOL0     H25528   8.187   9.266   7.660  0.9398  3.3182 -0.9434
  930MOL0     H25529   8.287   9.120   7.633 -0.3331  0.4204  0.0169
  930MOL0     H25530   8.347   9.229   7.409 -1.4431 -3.0322 -1.8962
  930MOL0     H25531   8.200   9.322   7.428 -0.3147  0.1824  1.5299
  930MOL0     H25532   8.930   9.111   8.107  2.9468 -0.3378  1.3369
  930MOL0     H25533   9.126   9.235   8.148  0.1424  0.4547  0.1146
  930MOL0     H25534   9.223   9.707   8.344  0.6608  2.3687  1.3318
  930MOL0     H25535   9.390   9.872   8.395  0.6892 -2.0893  2.3113
  930MOL0     H25536  11.079  10.820   7.938  2.0043  0.5684  0.3741
  930MOL0     H25537  11.281  10.801   8.064  0.1051 -0.1551  0.5695
  930MOL0     H25538  11.435  10.399   8.354  0.6680 -1.0043 -0.2806
  930MOL0     H25539  11.610  10.325   8.485 -2.7479 -0.1104 -1.0673
  930MOL0     H25540  11.788  10.266   8.643  0.6509 -0.5431  0.4447
  930MOL0     H25541  11.845  10.369   8.505  0.3466 -0.6926  0.3886
  930MOL0     H25542  12.045  10.297   8.642 -1.9870 -1.7539  1.3265
  930MOL0     H25543  11.979  10.395   8.771  1.2361  1.1123 -0.0285
  930MOL0     H25544  11.977  10.604   8.613 -0.8991  0.1911  1.2063
  930MOL0     H25545  12.034  10.489   8.490  1.5153 -1.0967  0.0223
  930MOL0     H25546  12.184  10.559   8.737 -0.1648  2.2235 -0.8442
  930MOL0     H25547  12.215  10.628   8.577 -0.1010  0.4068  0.0862
  930MOL0     H25548  12.404  10.258   8.493 -1.9908 -0.0718 -0.4389
  930MOL0     H25549  11.643  10.728   8.647 -0.9648  1.8867 -1.1958
  930MOL0     H25550  11.461  10.789   8.515  1.2942  1.0107  1.6599
  931MOL0     O25551  10.209   6.513   6.298 -0.4430 -0.3598 -0.4811
  931MOL0     C25552  10.273   6.558   6.203  0.2400 -0.8064  0.3209
  931MOL0     O25553  10.214   6.620   6.095 -0.0127 -0.2133  0.1454
  931MOL0     C25554  10.075   6.631   6.099 -0.2455 -0.2632  0.3213
  931MOL0     C25555   9.997   6.538   6.026  0.3255  1.2092  0.4475
  931MOL0     C25556   9.859   6.541   6.021  0.5171 -0.1334 -1.1154
  931MOL0     C25557   9.786   6.638   6.082  0.4801  0.5305 -0.7719
  931MOL0     O25558   9.648   6.625   6.071 -0.1506  0.3677  0.0088
  931MOL0     C25559   9.578   6.749   6.041 -0.8160 -0.2049  0.7150
  931MOL0     C25560   9.617   6.801   5.904 -0.3066  0.3049 -0.2234
  931MOL0     C25561   9.507   6.860   5.814  0.1518  0.0980  0.4639
  931MOL0     C25562   9.396   6.745   5.780  0.1269  0.4826 -1.0058
  931MOL0     C25563   9.275   6.812   5.716 -0.4787  0.6090  0.0292
  931MOL0     C25564   9.188   6.700   5.644 -0.6338 -0.3149  0.3202
  931MOL0     C25565   9.048   6.751   5.604  0.8094  0.7262  0.7378
  931MOL0     C25566   9.047   6.842   5.478  0.0983  1.2042  0.7596
  931MOL0     N25567   9.022   6.759   5.353 -0.1305  0.3283 -0.6696
  931MOL0     C25568   8.900   6.735   5.298 -0.2586  0.0162  0.1786
  931MOL0     C25569   8.929   6.680   5.181  0.1127 -0.4456  0.2714
  931MOL0     C25570   8.819   6.645   5.084  0.1798  0.4816  0.9763
  931MOL0     C25571   8.864   6.663   4.936  0.1514 -0.9406  0.5948
  931MOL0     C25572   8.737   6.643   4.843 -0.3648 -0.0838  0.3845
  931MOL0     C25573   8.793   6.643   4.699  0.1864  0.5619 -0.1371
  931MOL0     O25574   8.693   6.615   4.596  1.0985  0.6972  0.4069
  931MOL0     C25575   8.588   6.697   4.592 -0.3999  0.2905 -0.2635
  931MOL0     C25576   8.592   6.831   4.640  0.4694  0.2611  0.3092
  931MOL0     C25577   8.485   6.914   4.637 -0.4539 -0.2166  0.5658
  931MOL0     C25578   8.493   7.055   4.686  0.2187 -0.3139 -0.1174
  931MOL0     C25579   8.365   6.867   4.575 -0.2376 -0.1965 -0.6511
  931MOL0     C25580   8.241   6.938   4.555  0.8830  0.1200  0.6406
  931MOL0     O25581   8.241   7.071   4.570  0.5910 -0.0031 -0.4715
  931MOL0     C25582   8.114   7.127   4.549  0.3651  0.1884 -0.3568
  931MOL0     C25583   8.073   7.166   4.421 -1.3609  0.0003  0.6587
  931MOL0     C25584   7.955   7.231   4.409  0.8011 -0.1487 -0.6178
  931MOL0     C25585   7.875   7.269   4.525  0.3972 -0.3366  0.1911
  931MOL0     O25586   7.757   7.342   4.512  0.1778 -0.0864 -0.3075
  931MOL0     C25587   7.719   7.377   4.378 -0.1481 -0.4455 -1.2963
  931MOL0     C25588   7.587   7.466   4.399 -0.5722 -0.2398  0.4607
  931MOL0     C25589   7.534   7.534   4.275  0.8360  0.6489 -0.0239
  931MOL0     C25590   7.400   7.606   4.311  0.2079 -0.2296  0.7457
  931MOL0     C25591   7.371   7.699   4.196 -0.9283 -0.0722 -0.5632
  931MOL0     C25592   7.237   7.770   4.218  0.4034 -0.7441 -0.5862
  931MOL0     C25593   7.176   7.807   4.082  0.7873  0.2311  0.5523
  931MOL0     C25594   7.060   7.906   4.096  0.3403  0.2276  0.1724
  931MOL0    Cl25595   6.931   7.859   4.207  0.4355  0.0578  0.3102
  931MOL0     C25596   7.920   7.231   4.646 -0.4066 -0.1024  0.4428
  931MOL0     C25597   8.044   7.171   4.657 -0.0352  0.1375 -0.0020
  931MOL0     O25598   8.144   6.871   4.511 -0.3512 -0.5582 -0.1182
  931MOL0     C25599   8.369   6.733   4.533 -0.0499  0.7861  0.2392
  931MOL0     C25600   8.476   6.646   4.542  0.6578 -0.5965 -0.3651
  931MOL0     N25601   9.067   6.659   5.166 -0.2314 -0.0034  0.4888
  931MOL0     N25602   9.122   6.703   5.277  0.5406  0.3797 -0.3980
  931MOL0     C25603   9.860   6.737   6.149 -0.0466 -0.7967 -0.0611
  931MOL0     C25604  10.002   6.731   6.160 -0.3448  0.5456  0.2158
  931MOL0     C25605  10.413   6.577   6.214 -0.4614 -0.7332  0.3506
  931MOL0     C25606  10.479   6.568   6.339 -0.0884 -0.3141 -0.6619
  931MOL0     C25607  10.619   6.571   6.341 -0.2327 -0.0366 -0.2436
  931MOL0     C25608  10.698   6.591   6.228 -0.4447  0.3158  0.0661
  931MOL0     O25609  10.836   6.569   6.238  0.1858 -0.3947  0.1661
  931MOL0     C25610  10.865   6.428   6.252 -0.5015 -0.0411  0.0538
  931MOL0     C25611  11.009   6.386   6.288  0.3686 -0.0519  0.0113
  931MOL0     C25612  11.099   6.409   6.168 -0.1251  0.6165  0.3875
  931MOL0     C25613  11.231   6.335   6.175 -0.7169 -0.6411 -0.7195
  931MOL0     C25614  11.319   6.341   6.052  0.0614  1.6729  0.2666
  931MOL0     C25615  11.381   6.340   5.946  0.1780  1.2335  0.5555
  931MOL0     C25616  10.638   6.595   6.104  0.2388  0.0139  0.4099
  931MOL0     C25617  10.497   6.583   6.090  0.6547 -1.4210 -0.0729
  931MOL0     H25618  10.046   6.452   5.982  0.5974  0.6351  1.8163
  931MOL0     H25619   9.803   6.466   5.966 -0.1231  0.9602 -1.9879
  931MOL0     H25620   9.469   6.739   6.048 -0.8587 -1.0679 -0.9296
  931MOL0     H25621   9.601   6.823   6.119  2.7347 -1.8306  1.4231
  931MOL0     H25622   9.700   6.872   5.916  0.5118 -0.9941  2.6906
  931MOL0     H25623   9.666   6.721   5.847  1.5421  1.5924 -0.5596
  931MOL0     H25624   9.456   6.945   5.860 -0.6339 -0.8478  1.3971
  931MOL0     H25625   9.548   6.887   5.716 -2.0319 -0.2113 -0.5989
  931MOL0     H25626   9.438   6.666   5.716 -3.5311 -2.2974 -0.2905
  931MOL0     H25627   9.360   6.686   5.864  0.7286  0.2857 -0.8788
  931MOL0     H25628   9.212   6.874   5.779 -0.3212  1.7792 -0.9259
  931MOL0     H25629   9.315   6.886   5.645 -3.0958  0.5233 -1.6617
  931MOL0     H25630   9.245   6.657   5.562  0.1064 -1.2045  1.2665
  931MOL0     H25631   9.182   6.615   5.713 -0.0785  0.2506  1.0964
  931MOL0     H25632   8.996   6.656   5.590  2.4760 -0.1105  0.0060
  931MOL0     H25633   9.015   6.813   5.688  0.7541  0.8067  0.6562
  931MOL0     H25634   9.143   6.891   5.461 -1.0391  3.1750 -0.3241
  931MOL0     H25635   8.966   6.915   5.484  1.0859  2.4067  0.0580
  931MOL0     H25636   8.807   6.780   5.330  0.5588  3.2034 -1.4273
  931MOL0     H25637   8.797   6.539   5.099  3.2041 -0.6730 -1.5716
  931MOL0     H25638   8.733   6.710   5.102 -0.9277 -0.5134 -0.5157
  931MOL0     H25639   8.949   6.596   4.922  1.1683  0.2884  0.6934
  931MOL0     H25640   8.904   6.762   4.913  0.0289 -0.9419  0.3698
  931MOL0     H25641   8.656   6.716   4.850 -0.6781  0.0382 -2.8996
  931MOL0     H25642   8.697   6.545   4.872 -0.3007  0.1233  1.1913
  931MOL0     H25643   8.868   6.563   4.699 -0.2756  0.0853 -2.1142
  931MOL0     H25644   8.846   6.737   4.681 -0.5839  1.8247  3.2934
  931MOL0     H25645   8.687   6.870   4.677 -1.5112  0.8167  5.5938
  931MOL0     H25646   8.580   7.074   4.750 -0.1039  1.1029 -0.0640
  931MOL0     H25647   8.480   7.132   4.610  1.6180  1.1700  1.0673
  931MOL0     H25648   8.404   7.056   4.750 -0.1977  1.0338 -0.6757
  931MOL0     H25649   8.131   7.158   4.329  0.6793  2.1535  1.6488
  931MOL0     H25650   7.935   7.244   4.303  0.8056  2.4647 -0.3578
  931MOL0     H25651   7.804   7.434   4.339 -0.6170  0.7147 -0.7003
  931MOL0     H25652   7.693   7.290   4.317  0.5159  0.2056 -2.5502
  931MOL0     H25653   7.516   7.394   4.439  1.9375 -3.6000 -0.6817
  931MOL0     H25654   7.613   7.544   4.472  1.3623  0.0110 -0.4183
  931MOL0     H25655   7.518   7.462   4.194 -0.3448  0.9764 -0.0990
  931MOL0     H25656   7.607   7.610   4.245 -1.6242  2.9875 -0.4755
  931MOL0     H25657   7.323   7.533   4.339  1.0115 -0.7599  1.6343
  931MOL0     H25658   7.425   7.660   4.402 -0.3177 -1.1069  1.4233
  931MOL0     H25659   7.377   7.636   4.107  0.3872  0.5362 -0.9409
  931MOL0     H25660   7.456   7.767   4.183  0.1552 -1.0134  1.2905
  931MOL0     H25661   7.166   7.711   4.277  0.3302 -0.4109 -0.3389
  931MOL0     H25662   7.266   7.854   4.282 -0.3126 -0.0131 -1.2022
  931MOL0     H25663   7.145   7.707   4.050  1.1357  0.6292 -1.1065
  931MOL0     H25664   7.242   7.843   4.002 -0.6441  0.8758 -0.3687
  931MOL0     H25665   7.014   7.911   3.997 -2.4045  1.2969  1.4134
  931MOL0     H25666   7.096   8.006   4.122  0.3882  0.4761 -0.8256
  931MOL0     H25667   7.862   7.261   4.732 -0.5969 -0.0818  0.3079
  931MOL0     H25668   8.090   7.141   4.750  0.0538  1.1864  0.3020
  931MOL0     H25669   8.281   6.688   4.487  0.0351 -1.1650  1.8155
  931MOL0     H25670   8.477   6.547   4.498  1.8514 -1.4702  1.4868
  931MOL0     H25671   9.820   6.836   6.172  0.4130 -0.4943 -0.5348
  931MOL0     H25672  10.069   6.801   6.208 -0.6034  0.8640  0.1113
  931MOL0     H25673  10.421   6.558   6.431  1.1644 -0.1601  0.1752
  931MOL0     H25674  10.666   6.548   6.436 -0.8742 -0.6906 -0.0788
  931MOL0     H25675  10.813   6.379   6.334 -0.0616 -1.7790 -0.6650
  931MOL0     H25676  10.825   6.371   6.168 -1.3154 -1.6657  1.4721
  931MOL0     H25677  11.012   6.281   6.317  2.2078 -0.1459 -0.3463
  931MOL0     H25678  11.040   6.448   6.373  1.7841 -2.9317  1.7331
  931MOL0     H25679  11.119   6.516   6.158  3.0084  0.2821  1.8611
  931MOL0     H25680  11.049   6.366   6.081  0.3327  0.5399  0.1573
  931MOL0     H25681  11.224   6.228   6.195  0.1964 -0.4758  0.6168
  931MOL0     H25682  11.282   6.374   6.264 -2.4854  1.7387 -0.6475
  931MOL0     H25683  11.430   6.344   5.850 -3.1296  1.9401 -1.2438
  931MOL0     H25684  10.716   6.599   6.029 -0.1438 -0.3168 -0.0125
  931MOL0     H25685  10.456   6.569   5.990 -1.5942  1.9090  0.1875
  932MOL0     O25686   8.724   8.455   3.752 -0.1994  0.2718 -0.2653
  932MOL0     C25687   8.773   8.514   3.657  0.4488 -0.1727 -0.3253
  932MOL0     O25688   8.709   8.528   3.537  0.3791  0.0524 -0.1232
  932MOL0     C25689   8.581   8.499   3.525 -0.0168  0.3114  0.3556
  932MOL0     C25690   8.478   8.552   3.596 -1.2438  0.1526 -0.3647
  932MOL0     C25691   8.349   8.538   3.552  0.3679  0.3379 -0.2788
  932MOL0     C25692   8.309   8.459   3.446 -0.3768 -1.1145  0.1007
  932MOL0     O25693   8.175   8.462   3.417  0.0145  0.3029 -0.3416
  932MOL0     C25694   8.128   8.365   3.322 -0.0243 -0.2753 -0.3295
  932MOL0     C25695   7.972   8.370   3.337  0.5018  0.5313 -0.4851
  932MOL0     C25696   7.890   8.307   3.222 -0.2227  0.5246  0.2931
  932MOL0     C25697   7.743   8.319   3.259 -0.7442  0.3574  0.0882
  932MOL0     C25698   7.651   8.259   3.158  0.1185  0.4007  0.1655
  932MOL0     C25699   7.516   8.229   3.225  0.1442  0.6670  0.0350
  932MOL0     C25700   7.416   8.163   3.130  0.2096 -1.0519  0.6243
  932MOL0     C25701   7.329   8.279   3.073 -0.0264 -0.8614  0.0246
  932MOL0     N25702   7.225   8.235   2.979  0.3706  0.2858  0.4900
  932MOL0     C25703   7.115   8.152   3.005 -0.1828 -0.1652 -1.4043
  932MOL0     C25704   7.039   8.161   2.896 -0.2196  0.1179  0.5958
  932MOL0     C25705   6.910   8.091   2.870  0.7556 -0.3226 -1.0400
  932MOL0     C25706   6.803   8.145   2.972 -0.0424  0.0140 -1.1675
  932MOL0     C25707   6.670   8.071   2.974 -1.1089  0.0895  0.0459
  932MOL0     C25708   6.575   8.135   3.085  0.0954 -0.3966  0.4327
  932MOL0     O25709   6.447   8.071   3.062  0.3636 -0.1426 -0.2010
  932MOL0     C25710   6.347   8.078   3.159 -0.1538 -0.1750 -0.5501
  932MOL0     C25711   6.356   8.172   3.271  0.8348 -0.7280  0.3135
  932MOL0     C25712   6.246   8.183   3.361  0.2996 -0.3398  0.0681
  932MOL0     C25713   6.253   8.306   3.456 -0.8553 -0.0941 -0.5774
  932MOL0     C25714   6.129   8.113   3.338 -0.1806  0.0806  0.5377
  932MOL0     C25715   6.009   8.127   3.421  0.3690  0.2512 -0.3199
  932MOL0     O25716   5.914   8.023   3.402 -0.1264  0.2335  0.2500
  932MOL0     C25717   5.784   8.053   3.426  0.5488  0.1587  0.3121
  932MOL0     C25718   5.732   8.092   3.550  0.2237  0.2538 -0.9805
  932MOL0     C25719   5.591   8.104   3.571 -0.3551  0.0028  0.1217
  932MOL0     C25720   5.508   8.084   3.462 -0.6901  0.8337 -0.1461
  932MOL0     O25721   5.373   8.067   3.474 -0.1291 -0.1852 -0.1809
  932MOL0     C25722   5.292   8.141   3.381  0.2363  0.3016  0.4157
  932MOL0     C25723   5.145   8.150   3.436  0.5484  0.2813 -0.2887
  932MOL0     C25724   5.047   8.185   3.324  0.4814  0.4691  0.4268
  932MOL0     C25725   4.903   8.140   3.347  0.0719  0.3548  0.3095
  932MOL0     C25726   4.864   8.169   3.487  0.4041  0.3290 -0.1057
  932MOL0     C25727   4.711   8.191   3.504  0.1637  0.3940 -0.1462
  932MOL0     C25728   4.657   8.194   3.652  0.1328 -0.0272  0.2440
  932MOL0     C25729   4.509   8.204   3.669  0.6174  0.0008  0.0770
  932MOL0    Cl25730   4.486   8.175   3.848  0.1709  0.3832  0.1656
  932MOL0     C25731   5.562   8.045   3.342  0.3611  0.3702  0.5722
  932MOL0     C25732   5.699   8.030   3.320 -0.5129  0.2432 -0.6834
  932MOL0     O25733   5.996   8.220   3.499  0.3733 -0.5300 -0.8586
  932MOL0     C25734   6.134   8.018   3.238  0.4461  0.5846 -0.2044
  932MOL0     C25735   6.231   8.008   3.148 -0.1121 -0.0800 -0.7347
  932MOL0     N25736   7.104   8.243   2.808  1.0165  0.6802  0.1165
  932MOL0     N25737   7.213   8.288   2.860  0.8727 -0.2588  0.1700
  932MOL0     C25738   8.408   8.377   3.381 -0.1268  0.6341  0.0580
  932MOL0     C25739   8.545   8.414   3.414  0.5888 -0.6971  0.9776
  932MOL0     C25740   8.909   8.560   3.671  0.5902  0.3092 -0.2398
  932MOL0     C25741   8.947   8.664   3.594  0.9873 -0.8053 -0.5344
  932MOL0     C25742   9.075   8.717   3.620 -0.0294 -1.4148 -0.7200
  932MOL0     C25743   9.162   8.653   3.713  0.2495 -0.0358  0.7177
  932MOL0     O25744   9.286   8.695   3.747  0.3755  0.1531 -1.0149
  932MOL0     C25745   9.353   8.803   3.679  0.1177  0.3159  0.0515
  932MOL0     C25746   9.499   8.810   3.724  0.5664 -0.0218  0.7203
  932MOL0     C25747   9.493   8.848   3.871  0.2880 -0.8339 -0.3338
  932MOL0     C25748   9.592   8.960   3.908 -0.2171 -0.3981 -0.3294
  932MOL0     C25749   9.729   8.918   3.877 -0.3351 -0.1846 -0.8366
  932MOL0     C25750   9.839   8.884   3.842 -0.1538 -0.0038 -0.3669
  932MOL0     C25751   9.120   8.545   3.789 -0.0070  0.0004  0.1976
  932MOL0     C25752   8.996   8.493   3.760  0.4584 -0.6062  0.6263
  932MOL0     H25753   8.508   8.625   3.671  0.9571 -1.9628  0.9509
  932MOL0     H25754   8.282   8.610   3.597 -0.2086  0.0443 -0.6616
  932MOL0     H25755   8.169   8.381   3.222 -0.4837 -2.9231 -1.0098
  932MOL0     H25756   8.158   8.268   3.362  0.6497 -0.1617 -0.5455
  932MOL0     H25757   7.942   8.327   3.433 -0.5127 -0.7705 -1.3373
  932MOL0     H25758   7.963   8.478   3.328 -0.7372  0.4132 -0.8648
  932MOL0     H25759   7.912   8.366   3.133  1.1561 -0.4366 -0.0300
  932MOL0     H25760   7.928   8.207   3.197  1.2771  0.8011  1.3207
  932MOL0     H25761   7.727   8.254   3.345 -0.3331  1.6669  1.1806
  932MOL0     H25762   7.726   8.426   3.274  2.2250  0.9388 -0.0554
  932MOL0     H25763   7.636   8.335   3.081  0.4146 -0.2428 -0.5435
  932MOL0     H25764   7.694   8.166   3.118 -2.3947 -1.6921  1.9912
  932MOL0     H25765   7.536   8.158   3.305  2.2530 -0.2618 -1.2264
  932MOL0     H25766   7.477   8.323   3.264  2.6754  2.4586 -1.3924
  932MOL0     H25767   7.463   8.118   3.042  0.3713  0.7244 -0.2341
  932MOL0     H25768   7.349   8.092   3.180  1.8424 -2.9906  0.1960
  932MOL0     H25769   7.394   8.353   3.026  0.8676 -0.7650  1.3386
  932MOL0     H25770   7.295   8.334   3.162  1.9371  1.2394 -0.4178
  932MOL0     H25771   7.091   8.090   3.091 -0.9661 -2.7840 -3.3702
  932MOL0     H25772   6.876   8.123   2.771 -0.2372  0.1523 -0.5565
  932MOL0     H25773   6.924   7.983   2.880 -2.5049 -0.8858 -1.7229
  932MOL0     H25774   6.785   8.252   2.959  2.3316  0.9937  2.2347
  932MOL0     H25775   6.852   8.142   3.070 -1.4803  1.3083 -0.3751
  932MOL0     H25776   6.683   7.966   3.004 -2.6027 -0.8090 -2.2004
  932MOL0     H25777   6.628   8.077   2.873 -1.7851  0.6011  0.3490
  932MOL0     H25778   6.565   8.242   3.063  1.6625 -0.4270 -0.6511
  932MOL0     H25779   6.613   8.138   3.188  3.0067 -0.4200 -0.5242
  932MOL0     H25780   6.438   8.241   3.280  0.4903 -0.3758  0.7913
  932MOL0     H25781   6.347   8.360   3.439  0.7336 -0.8315  4.2585
  932MOL0     H25782   6.172   8.377   3.438 -1.1738 -0.1458  0.6020
  932MOL0     H25783   6.253   8.278   3.562  0.2518  1.3316 -0.1672
  932MOL0     H25784   5.801   8.101   3.633  1.4042 -1.1200 -1.7850
  932MOL0     H25785   5.541   8.132   3.662 -1.1578  0.9148 -0.5848
  932MOL0     H25786   5.338   8.239   3.369 -1.2856  0.7694 -2.3182
  932MOL0     H25787   5.296   8.095   3.282  2.2475 -0.4087  0.7659
  932MOL0     H25788   5.129   8.058   3.493  1.9636 -0.9142 -1.7161
  932MOL0     H25789   5.146   8.231   3.510 -0.7547 -0.8478  1.0299
  932MOL0     H25790   5.081   8.131   3.236 -2.7227 -0.7533 -0.2075
  932MOL0     H25791   5.045   8.293   3.306  1.5924  0.2724 -1.0426
  932MOL0     H25792   4.837   8.196   3.281  0.1720 -0.2865 -0.3506
  932MOL0     H25793   4.907   8.035   3.316  1.7621  0.9806 -1.8820
  932MOL0     H25794   4.907   8.266   3.511 -0.7057  0.9228 -0.4408
  932MOL0     H25795   4.899   8.088   3.551  0.3710  0.4587  0.0767
  932MOL0     H25796   4.695   8.286   3.452 -0.0372  0.3271 -0.2087
  932MOL0     H25797   4.653   8.110   3.458  1.6702 -1.3375  0.9113
  932MOL0     H25798   4.701   8.284   3.697  0.9029 -0.5794  0.6197
  932MOL0     H25799   4.696   8.105   3.702 -1.8717  0.1315  2.2271
  932MOL0     H25800   4.468   8.118   3.616 -0.7081 -0.3847  1.6371
  932MOL0     H25801   4.456   8.290   3.627 -2.7048 -1.8619  0.1243
  932MOL0     H25802   5.495   8.008   3.266  0.3998  0.1712  0.6340
  932MOL0     H25803   5.729   7.999   3.221  0.0061 -0.5558 -0.2830
  932MOL0     H25804   6.046   7.955   3.230  1.8375 -1.2938 -1.5938
  932MOL0     H25805   6.234   7.939   3.065  2.9848  1.3522 -1.9717
  932MOL0     H25806   8.395   8.308   3.298 -0.7131  1.2593 -0.3793
  932MOL0     H25807   8.628   8.381   3.353 -1.2354 -1.8413 -1.0527
  932MOL0     H25808   8.882   8.715   3.525  0.3546 -0.6444  0.1749
  932MOL0     H25809   9.101   8.804   3.560 -0.0963 -1.2060 -0.4481
  932MOL0     H25810   9.345   8.774   3.574 -1.8030  0.5866  0.0719
  932MOL0     H25811   9.300   8.896   3.700  1.5387  1.0807  0.3614
  932MOL0     H25812   9.545   8.885   3.659 -2.3316 -0.8277 -2.5831
  932MOL0     H25813   9.548   8.713   3.714  0.9111  0.3012 -1.1716
  932MOL0     H25814   9.527   8.767   3.937  0.6488 -1.0380 -0.7599
  932MOL0     H25815   9.394   8.878   3.906 -0.2569 -1.3146 -1.4248
  932MOL0     H25816   9.593   8.975   4.016  1.7651 -1.5452 -0.1489
  932MOL0     H25817   9.562   9.057   3.866 -0.9193 -2.0025 -3.9304
  932MOL0     H25818   9.935   8.854   3.804 -0.2277 -1.9653  0.8637
  932MOL0     H25819   9.186   8.498   3.861  1.8869  2.2042  0.0223
  932MOL0     H25820   8.965   8.407   3.819  3.8981 -2.1249  0.5080
  933MOL0     O25821   1.098   4.680   3.585 -0.0341  0.7494 -0.7023
  933MOL0     C25822   1.172   4.583   3.604 -0.0607  0.2537  0.2525
  933MOL0     O25823   1.129   4.449   3.609 -0.2980  0.4426 -0.4288
  933MOL0     C25824   1.000   4.412   3.605 -0.1760  1.0077  0.1194
  933MOL0     C25825   0.885   4.485   3.592 -0.3315  0.7771 -0.0649
  933MOL0     C25826   0.760   4.423   3.563 -0.5227 -0.5290  0.9245
  933MOL0     C25827   0.752   4.286   3.534 -0.6147 -0.3744 -0.5498
  933MOL0     O25828   0.649   4.209   3.490 -0.1070 -0.3623 -0.1112
  933MOL0     C25829   0.530   4.280   3.457 -0.8592  0.2366 -1.0256
  933MOL0     C25830   0.431   4.174   3.419 -0.0037  0.1696  0.3128
  933MOL0     C25831   0.308   4.235   3.347 -0.4443  0.2815 -0.2933
  933MOL0     C25832   0.217   4.131   3.284  0.5263 -0.3716  0.0480
  933MOL0     C25833   0.103   4.204   3.218  0.1639  0.3752  0.2743
  933MOL0     C25834  -0.009   4.102   3.184 -0.1967  0.3953 -0.1337
  933MOL0     C25835  -0.117   4.175   3.107  0.7037 -0.0558 -0.9129
  933MOL0     C25836  -0.256   4.103   3.104 -0.1149  0.5330 -0.4047
  933MOL0     N25837  -0.341   4.186   3.011  0.0711 -0.1672  0.0264
  933MOL0     C25838  -0.357   4.322   3.020  0.0906  0.1116 -0.2628
  933MOL0     C25839  -0.411   4.363   2.901 -0.5514  0.0019  0.2401
  933MOL0     C25840  -0.451   4.508   2.867 -0.2584  0.0063  1.1717
  933MOL0     C25841  -0.601   4.509   2.831 -0.0307  0.1491  0.6501
  933MOL0     C25842  -0.636   4.470   2.689  0.3882  0.0966 -0.1943
  933MOL0     C25843  -0.788   4.499   2.648 -1.1541  0.8472 -0.2221
  933MOL0     O25844  -0.868   4.417   2.733  0.3782  0.1005 -0.4503
  933MOL0     C25845  -1.004   4.418   2.728 -0.1295 -0.5506 -0.4067
  933MOL0     C25846  -1.076   4.493   2.634 -0.5364 -0.2040  0.8237
  933MOL0     C25847  -1.218   4.489   2.623 -0.5907  0.2835  0.1863
  933MOL0     C25848  -1.290   4.555   2.511 -0.2830 -0.4121  0.2488
  933MOL0     C25849  -1.287   4.416   2.723  0.3259  0.9779 -0.4750
  933MOL0     C25850  -1.435   4.416   2.735 -0.0546  0.0013 -0.3472
  933MOL0     O25851  -1.497   4.399   2.612 -0.6436 -0.3730  0.4763
  933MOL0     C25852  -1.626   4.441   2.596  0.0488 -1.1361 -0.2449
  933MOL0     C25853  -1.649   4.522   2.485  0.4921  0.7969 -0.5792
  933MOL0     C25854  -1.772   4.588   2.469  0.0767 -0.1918  0.6124
  933MOL0     C25855  -1.874   4.568   2.561 -0.5092 -0.5990 -0.3416
  933MOL0     O25856  -1.984   4.641   2.537  0.5001  0.4622 -0.2140
  933MOL0     C25857  -2.083   4.663   2.641  0.0756  0.8951 -0.6757
  933MOL0     C25858  -2.151   4.793   2.613  1.2667 -0.2255  0.1950
  933MOL0     C25859  -2.043   4.904   2.584  0.2429 -1.4485  0.7039
  933MOL0     C25860  -2.103   5.018   2.498 -0.4154 -0.5158 -0.1408
  933MOL0     C25861  -2.204   5.102   2.572 -0.4425  0.4139  0.5616
  933MOL0     C25862  -2.262   5.207   2.476  0.3766 -0.1753  0.1118
  933MOL0     C25863  -2.330   5.310   2.576  0.2728 -0.2445  0.2209
  933MOL0     C25864  -2.403   5.430   2.503 -0.0014 -0.5923 -0.4127
  933MOL0    Cl25865  -2.551   5.406   2.400  0.0951  0.2883  0.1508
  933MOL0     C25866  -1.857   4.479   2.669 -0.4341 -0.4894 -0.7876
  933MOL0     C25867  -1.732   4.419   2.688 -0.3452  0.5935 -0.5022
  933MOL0     O25868  -1.481   4.447   2.844 -0.7606  0.1354  0.2740
  933MOL0     C25869  -1.208   4.359   2.832  0.4181 -0.3601 -1.8759
  933MOL0     C25870  -1.065   4.358   2.835  0.3650 -0.1881  0.5083
  933MOL0     N25871  -0.420   4.248   2.822 -0.6010  0.5109  0.1884
  933MOL0     N25872  -0.376   4.140   2.884  0.5391 -0.5116  0.1007
  933MOL0     C25873   0.860   4.206   3.576  0.0149  0.2160 -0.2028
  933MOL0     C25874   0.984   4.270   3.607 -0.3403 -0.0471 -0.1634
  933MOL0     C25875   1.315   4.615   3.609  0.9866  0.5267 -0.5906
  933MOL0     C25876   1.399   4.511   3.639 -0.4383 -0.3171 -0.2904
  933MOL0     C25877   1.539   4.536   3.654 -0.5827  0.2684  0.3900
  933MOL0     C25878   1.589   4.664   3.637 -0.7812  0.7655 -0.1871
  933MOL0     O25879   1.728   4.697   3.657  0.3233 -0.2167  0.4021
  933MOL0     C25880   1.798   4.613   3.751 -0.3709  0.2433 -0.5510
  933MOL0     C25881   1.866   4.489   3.685 -0.4113  1.7227  0.7184
  933MOL0     C25882   2.001   4.513   3.627 -0.6042  0.3357 -0.1925
  933MOL0     C25883   2.012   4.617   3.519 -0.4732  0.1089  0.5617
  933MOL0     C25884   2.150   4.642   3.472 -0.0671  0.8169 -0.2154
  933MOL0     C25885   2.263   4.627   3.433  0.2330 -0.6323 -0.6258
  933MOL0     C25886   1.502   4.769   3.607 -0.7739  0.9471 -0.2531
  933MOL0     C25887   1.363   4.744   3.595 -1.3671 -0.2726  1.0671
  933MOL0     H25888   0.896   4.593   3.593  0.0460  0.7567 -0.9219
  933MOL0     H25889   0.679   4.491   3.540  0.5849  0.1301 -1.3588
  933MOL0     H25890   0.497   4.326   3.550  0.3420 -0.3068 -0.3119
  933MOL0     H25891   0.544   4.355   3.379  1.2288  1.1770  0.1701
  933MOL0     H25892   0.474   4.107   3.344 -0.5797  0.6737 -0.4847
  933MOL0     H25893   0.403   4.129   3.515  0.6625  2.7688  1.8149
  933MOL0     H25894   0.248   4.292   3.419 -0.4263  1.4769 -1.2032
  933MOL0     H25895   0.348   4.295   3.265  3.2594  1.4933  2.1540
  933MOL0     H25896   0.262   4.067   3.208  0.3076  2.5273 -2.7309
  933MOL0     H25897   0.176   4.059   3.356  1.2092 -0.0306  0.7879
  933MOL0     H25898   0.060   4.286   3.276  1.7146  1.9592 -0.7195
  933MOL0     H25899   0.137   4.243   3.122 -0.4093 -2.2353 -1.0864
  933MOL0     H25900   0.011   4.012   3.126  3.9771  0.8020  0.3754
  933MOL0     H25901  -0.045   4.071   3.282 -1.1159  3.3168  0.5765
  933MOL0     H25902  -0.136   4.269   3.160 -0.7668 -0.2593 -1.0324
  933MOL0     H25903  -0.091   4.204   3.005  0.0655  1.0707 -0.7750
  933MOL0     H25904  -0.294   4.084   3.205 -0.0670 -0.1644 -0.5133
  933MOL0     H25905  -0.240   4.004   3.059  2.1788  1.0265 -0.7818
  933MOL0     H25906  -0.350   4.385   3.108 -2.5134 -0.3064  0.3326
  933MOL0     H25907  -0.430   4.575   2.951 -0.8454 -0.8248  2.0129
  933MOL0     H25908  -0.391   4.537   2.781  0.2536  1.0931  1.8814
  933MOL0     H25909  -0.633   4.613   2.838 -0.4143 -0.0334  1.8105
  933MOL0     H25910  -0.648   4.446   2.906 -0.4818  1.5749  1.6157
  933MOL0     H25911  -0.615   4.365   2.665  0.1499  0.0345 -0.1439
  933MOL0     H25912  -0.574   4.517   2.612  0.1780 -0.5034 -0.7482
  933MOL0     H25913  -0.802   4.479   2.542  2.1461  2.3331 -1.0876
  933MOL0     H25914  -0.794   4.605   2.673 -1.3810  0.3245  2.2764
  933MOL0     H25915  -1.024   4.563   2.569  3.2054  1.1350  4.8011
  933MOL0     H25916  -1.384   4.600   2.544 -0.2357  0.5711 -0.8553
  933MOL0     H25917  -1.228   4.642   2.484  0.5536 -0.5977  1.4484
  933MOL0     H25918  -1.296   4.496   2.419  1.2361 -2.9859  1.6940
  933MOL0     H25919  -1.562   4.537   2.422  1.9517  2.3769  1.7025
  933MOL0     H25920  -1.790   4.657   2.387 -1.7635 -1.0660  0.2446
  933MOL0     H25921  -2.147   4.574   2.642  2.5341 -1.0053 -0.9489
  933MOL0     H25922  -2.043   4.653   2.742 -0.5616 -1.6369 -0.6054
  933MOL0     H25923  -2.216   4.778   2.526  0.9336  3.0213 -0.2444
  933MOL0     H25924  -2.204   4.813   2.706  0.3748 -1.6251  0.0117
  933MOL0     H25925  -1.956   4.878   2.523  0.4461  0.4054  0.1227
  933MOL0     H25926  -1.990   4.932   2.676  4.2352  0.8382 -1.9624
  933MOL0     H25927  -2.033   5.084   2.445 -1.1159 -0.3560 -0.8903
  933MOL0     H25928  -2.145   4.966   2.411  0.0111 -1.2022  0.0594
  933MOL0     H25929  -2.152   5.151   2.654  0.4175  0.1241  0.2110
  933MOL0     H25930  -2.279   5.040   2.621  2.2024 -2.1544  1.7060
  933MOL0     H25931  -2.179   5.244   2.416  0.2386  2.1077  1.2251
  933MOL0     H25932  -2.341   5.156   2.420 -1.6510  3.7088 -0.8739
  933MOL0     H25933  -2.252   5.349   2.643  0.1338  1.7657 -0.7138
  933MOL0     H25934  -2.401   5.261   2.643 -0.6578  0.1039 -0.4866
  933MOL0     H25935  -2.331   5.491   2.448 -0.1861  0.3737  0.3834
  933MOL0     H25936  -2.438   5.499   2.581 -2.7335 -0.0566 -1.9881
  933MOL0     H25937  -1.935   4.478   2.746 -0.7470  3.5722 -0.8598
  933MOL0     H25938  -1.724   4.365   2.782 -0.9696  0.7716 -0.3407
  933MOL0     H25939  -1.272   4.324   2.912  1.5626  0.9208 -0.3503
  933MOL0     H25940  -1.002   4.302   2.903  0.5938  1.3622  1.6287
  933MOL0     H25941   0.847   4.100   3.592  1.1125  0.0800 -0.1110
  933MOL0     H25942   1.066   4.203   3.627 -2.4054 -2.2604  1.5347
  933MOL0     H25943   1.362   4.409   3.649 -2.3422 -0.1354 -3.7813
  933MOL0     H25944   1.601   4.451   3.681 -1.3236  0.1803  1.9389
  933MOL0     H25945   1.884   4.667   3.791  0.3664 -1.3096  0.0102
  933MOL0     H25946   1.733   4.570   3.828 -3.8585  0.9394 -2.8930
  933MOL0     H25947   1.820   4.451   3.594  3.4917  2.9380 -1.9934
  933MOL0     H25948   1.886   4.401   3.747  0.2343  0.1063 -1.6535
  933MOL0     H25949   2.031   4.412   3.596 -0.8801  0.1488  0.1286
  933MOL0     H25950   2.069   4.539   3.708  1.2215 -2.8787 -0.5262
  933MOL0     H25951   1.979   4.715   3.555 -0.1937  0.1856  0.6160
  933MOL0     H25952   1.955   4.584   3.432  0.7457 -0.3076 -0.0990
  933MOL0     H25953   2.362   4.598   3.403 -0.2267 -2.0844 -0.8122
  933MOL0     H25954   1.548   4.867   3.602  2.7582 -0.3997  2.0832
  933MOL0     H25955   1.306   4.833   3.569  0.6904  0.7268 -0.2953
  934MOL0     O25956   1.190   3.184   4.338 -0.1568  0.2118 -0.5164
  934MOL0     C25957   1.232   3.067   4.315 -0.5320  0.7157  0.0047
  934MOL0     O25958   1.176   2.966   4.231  0.3193  0.2380 -0.4073
  934MOL0     C25959   1.048   2.957   4.199 -0.0501 -0.4255 -0.1202
  934MOL0     C25960   1.030   2.862   4.100  1.1022  0.0078  0.3447
  934MOL0     C25961   0.895   2.832   4.053 -1.2930 -0.1484  0.2512
  934MOL0     C25962   0.782   2.883   4.111 -0.2491  0.6616  0.1880
  934MOL0     O25963   0.655   2.829   4.090 -0.6754  0.2795 -0.2614
  934MOL0     C25964   0.633   2.754   3.969  0.4150  0.3000  0.7862
  934MOL0     C25965   0.507   2.815   3.906 -0.9381  0.1837 -0.2421
  934MOL0     C25966   0.383   2.767   3.981 -0.0862  0.4847  0.7308
  934MOL0     C25967   0.264   2.832   3.911 -1.3139 -0.1969  0.3694
  934MOL0     C25968   0.143   2.802   3.981  0.4116 -0.4258  0.1485
  934MOL0     C25969   0.029   2.890   3.925 -0.2911  0.1854  0.6308
  934MOL0     C25970  -0.018   2.851   3.779 -0.7594 -0.4398 -0.0820
  934MOL0     C25971  -0.133   2.943   3.741  0.2296 -0.0708  0.6753
  934MOL0     N25972  -0.196   2.873   3.627  0.0688 -0.2231 -0.4148
  934MOL0     C25973  -0.311   2.803   3.630  0.3119  0.8349 -0.4863
  934MOL0     C25974  -0.313   2.728   3.514 -0.4517  0.9610  0.5907
  934MOL0     C25975  -0.412   2.625   3.465 -1.0247 -0.1705  0.1699
  934MOL0     C25976  -0.425   2.486   3.538  0.2221 -0.3067 -0.1676
  934MOL0     C25977  -0.487   2.497   3.682 -0.7063 -0.1066  0.0539
  934MOL0     C25978  -0.496   2.351   3.749  0.2806 -0.3419 -0.3249
  934MOL0     O25979  -0.532   2.349   3.882 -0.1557 -0.5203 -0.0602
  934MOL0     C25980  -0.668   2.381   3.906 -0.1244 -0.2880  1.0898
  934MOL0     C25981  -0.775   2.316   3.833  0.1930  0.3691 -0.3085
  934MOL0     C25982  -0.907   2.343   3.870  0.0984  0.6472 -0.5362
  934MOL0     C25983  -1.009   2.269   3.779  0.5923 -0.6561 -0.5312
  934MOL0     C25984  -0.948   2.437   3.974 -0.1289  0.2938  0.1820
  934MOL0     C25985  -1.089   2.464   4.018  0.4754 -0.2981 -0.2200
  934MOL0     O25986  -1.090   2.543   4.132  0.0018  0.4438 -0.0064
  934MOL0     C25987  -1.203   2.578   4.203  0.2921  0.3783 -0.1750
  934MOL0     C25988  -1.327   2.593   4.157  0.2258 -1.0887 -0.3971
  934MOL0     C25989  -1.423   2.658   4.236 -1.1263 -0.9703 -0.0959
  934MOL0     C25990  -1.398   2.683   4.372  0.4340 -0.2472  0.4496
  934MOL0     O25991  -1.498   2.723   4.465 -0.9861 -0.3946 -0.0464
  934MOL0     C25992  -1.633   2.723   4.425 -0.1090  0.5020  0.6949
  934MOL0     C25993  -1.680   2.578   4.398 -0.6473 -1.4556 -1.0497
  934MOL0     C25994  -1.825   2.590   4.352  0.3967  0.0311  0.7738
  934MOL0     C25995  -1.885   2.457   4.309  0.1173 -0.0258  0.0215
  934MOL0     C25996  -2.006   2.459   4.213  0.0936 -0.6955 -0.3549
  934MOL0     C25997  -2.127   2.539   4.273  0.8006  0.8818 -0.0683
  934MOL0     C25998  -2.261   2.527   4.189  1.0005 -0.6178  0.0899
  934MOL0     C25999  -2.350   2.408   4.240 -0.4262 -0.0291 -0.4814
  934MOL0    Cl26000  -2.504   2.393   4.166  0.1461  0.1238 -0.3423
  934MOL0     C26001  -1.272   2.658   4.432 -0.6407 -0.3429  0.3524
  934MOL0     C26002  -1.175   2.611   4.342  0.1394  0.1961 -0.4495
  934MOL0     O26003  -1.187   2.416   3.960 -0.0552  0.2582 -0.3727
  934MOL0     C26004  -0.844   2.511   4.026  0.3470 -0.6738 -0.4339
  934MOL0     C26005  -0.709   2.484   3.993  1.1261 -0.4331 -0.3177
  934MOL0     N26006  -0.205   2.756   3.440 -0.6484 -0.0067  0.5873
  934MOL0     N26007  -0.127   2.841   3.508 -0.2387  0.8011 -0.6007
  934MOL0     C26008   0.804   2.983   4.207 -0.0310 -0.4962 -0.5059
  934MOL0     C26009   0.938   3.022   4.250  0.7896 -0.5017 -0.5182
  934MOL0     C26010   1.354   3.034   4.388 -0.8356  0.1172  0.2582
  934MOL0     C26011   1.424   2.913   4.354 -0.3052  1.1632 -0.3179
  934MOL0     C26012   1.537   2.870   4.416 -0.4902  0.2358  0.8057
  934MOL0     C26013   1.581   2.930   4.530 -0.0287  0.1259 -1.2812
  934MOL0     O26014   1.684   2.890   4.612 -0.4341  0.1015 -0.5252
  934MOL0     C26015   1.774   2.787   4.563 -0.7898 -0.1047  0.1130
  934MOL0     C26016   1.873   2.843   4.458  0.6468 -0.0454  0.7813
  934MOL0     C26017   1.974   2.942   4.510  0.0718 -0.0368  0.1367
  934MOL0     C26018   2.105   2.882   4.562  0.2370 -0.4071 -0.6230
  934MOL0     C26019   2.189   2.841   4.449  0.5332 -0.4583  0.1787
  934MOL0     C26020   2.257   2.808   4.358  1.0493 -1.1076 -0.5467
  934MOL0     C26021   1.513   3.043   4.572 -0.4613 -0.6131 -0.0418
  934MOL0     C26022   1.403   3.098   4.499 -0.8921  0.3304 -0.7589
  934MOL0     H26023   1.108   2.811   4.045  0.2925 -1.6223  0.6463
  934MOL0     H26024   0.892   2.746   3.987  0.9996 -1.2395  1.4199
  934MOL0     H26025   0.704   2.766   3.886 -2.1537  1.5686 -1.3711
  934MOL0     H26026   0.624   2.649   3.999 -1.5077  1.0913  3.2595
  934MOL0     H26027   0.506   2.924   3.911 -1.8313  0.4989 -3.9613
  934MOL0     H26028   0.507   2.791   3.799  0.9221 -1.2891  0.0297
  934MOL0     H26029   0.365   2.659   3.977  0.0710  0.4830 -1.9836
  934MOL0     H26030   0.396   2.800   4.084  1.9294 -0.6231  0.8711
  934MOL0     H26031   0.280   2.940   3.908 -0.8628 -0.2382  1.0353
  934MOL0     H26032   0.252   2.800   3.807 -0.3356  3.6639 -1.0855
  934MOL0     H26033   0.120   2.696   3.967  0.5761 -0.2179 -2.0313
  934MOL0     H26034   0.154   2.827   4.087  1.7078  0.9851 -0.2761
  934MOL0     H26035  -0.055   2.894   3.995  0.2186  2.0758  1.2121
  934MOL0     H26036   0.062   2.994   3.921 -1.6476  0.7481  2.3080
  934MOL0     H26037   0.070   2.869   3.717  0.0483  3.0438  1.7881
  934MOL0     H26038  -0.047   2.746   3.768  1.4153 -1.1244  0.1719
  934MOL0     H26039  -0.089   3.037   3.706 -1.1127 -0.1387 -1.3613
  934MOL0     H26040  -0.208   2.958   3.819 -0.0499 -0.2305  0.4383
  934MOL0     H26041  -0.399   2.813   3.692  0.8517  1.7059  0.1641
  934MOL0     H26042  -0.515   2.659   3.452  0.2895  3.7748 -1.0146
  934MOL0     H26043  -0.379   2.601   3.364 -1.0887 -1.0465  0.3445
  934MOL0     H26044  -0.328   2.436   3.538 -0.1625 -1.0955 -1.1253
  934MOL0     H26045  -0.491   2.415   3.486 -0.5768 -0.8261  1.4877
  934MOL0     H26046  -0.585   2.545   3.678 -1.0606 -0.8521 -0.3731
  934MOL0     H26047  -0.414   2.545   3.748  0.5706  0.6340 -1.7957
  934MOL0     H26048  -0.394   2.312   3.739  0.1397 -0.6401 -0.5837
  934MOL0     H26049  -0.554   2.291   3.679  1.1557  0.3026 -1.6408
  934MOL0     H26050  -0.749   2.241   3.759  0.2175  0.5020 -0.4367
  934MOL0     H26051  -1.062   2.198   3.842  0.2063  0.2014  0.1277
  934MOL0     H26052  -1.073   2.347   3.737 -1.3281 -1.3704  0.9328
  934MOL0     H26053  -0.963   2.218   3.693  1.3505  0.9941 -1.1467
  934MOL0     H26054  -1.352   2.575   4.053  0.6086  0.5286 -0.8029
  934MOL0     H26055  -1.516   2.687   4.188 -1.4667  3.4124  2.6233
  934MOL0     H26056  -1.703   2.760   4.501 -2.0003  0.9527 -1.1730
  934MOL0     H26057  -1.661   2.784   4.339  0.9899  0.1656  0.0705
  934MOL0     H26058  -1.610   2.521   4.337 -0.1554 -0.2887 -1.5905
  934MOL0     H26059  -1.692   2.526   4.494 -1.4032  2.0806  0.9286
  934MOL0     H26060  -1.837   2.667   4.275  2.5594 -0.3666 -0.0282
  934MOL0     H26061  -1.891   2.633   4.428 -1.9514  1.1280 -1.7285
  934MOL0     H26062  -1.799   2.408   4.263 -1.0143 -1.4910 -0.6398
  934MOL0     H26063  -1.902   2.397   4.398  0.6554  0.4449  0.4491
  934MOL0     H26064  -2.037   2.354   4.210  1.4374 -1.5130  4.7493
  934MOL0     H26065  -1.970   2.504   4.120 -1.2320 -1.9898 -1.5584
  934MOL0     H26066  -2.144   2.502   4.375  4.5100  1.3739  0.8779
  934MOL0     H26067  -2.103   2.645   4.270  0.5835  0.9110 -1.0690
  934MOL0     H26068  -2.232   2.520   4.084 -1.8596  1.3857 -0.9649
  934MOL0     H26069  -2.315   2.621   4.207  0.6460 -0.9074  0.5588
  934MOL0     H26070  -2.359   2.393   4.349  1.9328 -2.7597 -0.5385
  934MOL0     H26071  -2.295   2.319   4.208 -1.4609 -0.3955 -1.2996
  934MOL0     H26072  -1.249   2.673   4.537  4.5467 -0.5959 -0.4925
  934MOL0     H26073  -1.076   2.600   4.384 -0.0822 -2.5259 -0.5003
  934MOL0     H26074  -0.865   2.594   4.092 -0.3521 -0.4528 -0.9214
  934MOL0     H26075  -0.629   2.544   4.037 -0.6425  1.4648  0.4536
  934MOL0     H26076   0.719   3.040   4.243  0.1927 -0.4637 -0.0285
  934MOL0     H26077   0.942   3.085   4.338 -0.8004  0.6788 -1.2392
  934MOL0     H26078   1.407   2.839   4.277  2.5217 -0.3863  0.4164
  934MOL0     H26079   1.595   2.787   4.377  1.5641  1.8117  0.3067
  934MOL0     H26080   1.830   2.755   4.651 -1.5242 -0.4278  0.4649
  934MOL0     H26081   1.730   2.695   4.524 -0.0065 -2.1718  3.6838
  934MOL0     H26082   1.818   2.898   4.381  0.2396  0.7729  1.6322
  934MOL0     H26083   1.928   2.758   4.416 -2.3543 -1.9203  0.4007
  934MOL0     H26084   1.927   3.021   4.571  2.5381  3.5694 -2.1965
  934MOL0     H26085   2.009   2.998   4.423  0.7973 -0.5009  0.1234
  934MOL0     H26086   2.091   2.798   4.630  0.4566 -1.0614 -1.3710
  934MOL0     H26087   2.154   2.968   4.609 -1.2430 -1.3619  2.9771
  934MOL0     H26088   2.318   2.784   4.273 -0.3479 -2.8523 -1.1121
  934MOL0     H26089   1.558   3.091   4.658  1.9853 -2.3614 -0.2467
  934MOL0     H26090   1.363   3.188   4.545 -1.3692 -1.4792  2.6626
  935MOL0     O26091   6.211   1.490   7.275  0.7353  0.0481 -0.0406
  935MOL0     C26092   6.220   1.374   7.324  0.7466 -0.4406  0.2627
  935MOL0     O26093   6.119   1.304   7.377  0.4952  0.4461  0.2458
  935MOL0     C26094   5.984   1.344   7.390 -0.7648 -0.0589  0.0085
  935MOL0     C26095   5.931   1.368   7.513 -0.2686  0.0019 -0.9484
  935MOL0     C26096   5.799   1.420   7.531 -0.2833 -0.0888  0.5583
  935MOL0     C26097   5.703   1.440   7.432 -0.2631  0.7067 -0.8178
  935MOL0     O26098   5.573   1.470   7.449  0.0851 -0.0832 -0.0713
  935MOL0     C26099   5.512   1.436   7.571 -0.1949 -0.3636 -0.1251
  935MOL0     C26100   5.367   1.487   7.575  0.6949  0.6718  0.8436
  935MOL0     C26101   5.290   1.420   7.463 -0.7981 -0.4323  0.9317
  935MOL0     C26102   5.141   1.413   7.454  0.8565  1.1611 -0.1470
  935MOL0     C26103   5.100   1.573   7.449  0.6875  0.3949 -0.7761
  935MOL0     C26104   4.947   1.582   7.432  0.4208  1.4453 -0.5749
  935MOL0     C26105   4.904   1.723   7.421  0.2254 -0.1317 -0.0802
  935MOL0     C26106   4.755   1.743   7.386  0.4601  0.2074 -0.0777
  935MOL0     N26107   4.731   1.860   7.305 -0.0650 -0.7176  0.4260
  935MOL0     C26108   4.650   1.964   7.337  1.4143 -0.2288  0.0547
  935MOL0     C26109   4.651   2.058   7.238 -0.7368 -0.2919 -0.1060
  935MOL0     C26110   4.576   2.188   7.231  0.0520  0.9266 -0.1588
  935MOL0     C26111   4.435   2.158   7.156 -0.0326  0.0742  0.2723
  935MOL0     C26112   4.458   2.163   7.008  0.2680  0.2411  0.8790
  935MOL0     C26113   4.318   2.164   6.940  0.0685  0.0775 -0.2916
  935MOL0     O26114   4.349   2.171   6.802  0.1018  0.1111  0.4419
  935MOL0     C26115   4.247   2.213   6.723 -0.7143  0.1697  1.0992
  935MOL0     C26116   4.118   2.230   6.748 -0.0375  0.1840  0.2884
  935MOL0     C26117   4.021   2.281   6.659 -0.0883 -0.0452  0.8272
  935MOL0     C26118   3.885   2.284   6.715 -0.1571 -0.2536  0.0605
  935MOL0     C26119   4.052   2.299   6.519  0.0197 -0.2787 -0.4440
  935MOL0     C26120   3.970   2.346   6.414  0.1129  0.5428  1.1066
  935MOL0     O26121   3.884   2.448   6.434  0.3722  0.2107 -0.6603
  935MOL0     C26122   3.800   2.472   6.329  0.5892 -0.3849 -0.5926
  935MOL0     C26123   3.662   2.435   6.335  0.0455  0.3612 -0.1697
  935MOL0     C26124   3.575   2.461   6.229 -0.3161  0.0462  0.3537
  935MOL0     C26125   3.626   2.530   6.117  0.1827 -0.3302 -0.4142
  935MOL0     O26126   3.562   2.559   6.006  0.9627 -0.4634 -0.3017
  935MOL0     C26127   3.576   2.450   5.905 -0.0333  0.3159 -0.3269
  935MOL0     C26128   3.497   2.498   5.784  0.3652  0.1852 -0.2156
  935MOL0     C26129   3.347   2.531   5.815  0.4882 -0.1251  0.0779
  935MOL0     C26130   3.267   2.415   5.874 -0.6309 -0.0784  0.1566
  935MOL0     C26131   3.231   2.303   5.766 -0.0415 -0.1595 -0.3716
  935MOL0     C26132   3.135   2.354   5.656  0.3194  0.1712 -0.2746
  935MOL0     C26133   3.087   2.230   5.588 -1.1052 -0.1503  0.7534
  935MOL0     C26134   2.984   2.278   5.487 -0.3499  0.6337 -0.2476
  935MOL0    Cl26135   2.860   2.390   5.548  0.2072 -0.1175  0.1269
  935MOL0     C26136   3.756   2.576   6.120  0.6663 -0.5312 -0.4588
  935MOL0     C26137   3.840   2.556   6.230  0.2319 -0.6453 -0.5924
  935MOL0     O26138   3.975   2.277   6.308  0.6549 -0.5539 -0.6656
  935MOL0     C26139   4.183   2.276   6.490  0.0355  0.1321  0.4763
  935MOL0     C26140   4.280   2.230   6.585  0.6455  0.0623  0.4178
  935MOL0     N26141   4.745   2.012   7.147  0.5508  0.5785  0.6961
  935MOL0     N26142   4.790   1.890   7.181  0.3659  0.4857  0.5958
  935MOL0     C26143   5.762   1.410   7.305 -0.2265  0.1872  0.1372
  935MOL0     C26144   5.895   1.359   7.283  0.1358 -0.0421  0.5779
  935MOL0     C26145   6.347   1.317   7.300 -1.5339 -0.3040  0.3948
  935MOL0     C26146   6.374   1.179   7.313  0.7922 -0.4914  0.0421
  935MOL0     C26147   6.495   1.118   7.298  0.1916 -0.0561  0.7913
  935MOL0     C26148   6.608   1.197   7.284  0.4302 -0.2480  0.0309
  935MOL0     O26149   6.731   1.142   7.284 -0.7773 -0.8155 -0.2639
  935MOL0     C26150   6.821   1.175   7.170 -0.5063  0.0443  0.0190
  935MOL0     C26151   6.884   1.054   7.119  0.2014 -0.2078  0.7898
  935MOL0     C26152   6.975   0.979   7.213  0.3702  0.5087 -0.5155
  935MOL0     C26153   7.031   0.852   7.152 -0.1928 -0.1984 -0.2725
  935MOL0     C26154   7.131   0.793   7.248 -0.8790  0.1408 -0.0055
  935MOL0     C26155   7.207   0.744   7.327  0.5436  0.6813  0.1459
  935MOL0     C26156   6.595   1.330   7.271  0.0511  0.5935  0.9990
  935MOL0     C26157   6.466   1.396   7.275 -0.2457  0.1053  0.2907
  935MOL0     H26158   5.988   1.349   7.603 -0.8460  0.5616 -0.4582
  935MOL0     H26159   5.772   1.435   7.635  1.2799  2.3414  0.6885
  935MOL0     H26160   5.526   1.327   7.573  2.7574 -0.0695 -0.5864
  935MOL0     H26161   5.567   1.485   7.652 -1.8913  1.3138  0.0723
  935MOL0     H26162   5.320   1.454   7.669 -2.2724 -0.6894 -0.9652
  935MOL0     H26163   5.347   1.594   7.569 -3.8734  0.0259  1.4022
  935MOL0     H26164   5.322   1.461   7.367 -1.3049  0.5261  1.1664
  935MOL0     H26165   5.315   1.313   7.458  1.2383  0.0540 -1.5145
  935MOL0     H26166   5.113   1.353   7.367 -1.5289 -1.2468  2.0899
  935MOL0     H26167   5.102   1.362   7.542  2.3567  0.3165  0.0520
  935MOL0     H26168   5.127   1.624   7.543 -0.6303  1.9184 -1.1666
  935MOL0     H26169   5.143   1.626   7.364 -0.9027 -0.1200 -1.9382
  935MOL0     H26170   4.926   1.527   7.340  2.1141 -2.6736  1.2871
  935MOL0     H26171   4.895   1.526   7.510  0.5541 -0.0618 -1.5334
  935MOL0     H26172   4.934   1.789   7.503  1.4895  0.4406 -0.9634
  935MOL0     H26173   4.962   1.761   7.337  1.2622 -2.0878 -0.3125
  935MOL0     H26174   4.698   1.744   7.480 -1.0593  0.3248 -0.9658
  935MOL0     H26175   4.727   1.656   7.325 -1.1466  0.2559  0.5315
  935MOL0     H26176   4.586   1.977   7.423  0.3108 -0.6397 -0.6818
  935MOL0     H26177   4.559   2.232   7.330  0.6281  1.1590 -0.1608
  935MOL0     H26178   4.627   2.265   7.174  0.4222  2.7295  2.4393
  935MOL0     H26179   4.364   2.237   7.183  0.2183  0.1407  0.7350
  935MOL0     H26180   4.391   2.064   7.192 -1.1282 -0.8144 -2.9535
  935MOL0     H26181   4.516   2.080   6.969 -0.3623  1.2368 -2.5520
  935MOL0     H26182   4.503   2.257   6.975  0.3151 -0.4882 -1.2890
  935MOL0     H26183   4.252   2.248   6.963  0.7963 -0.0773  2.7751
  935MOL0     H26184   4.261   2.076   6.970 -1.4656  1.9406  2.7621
  935MOL0     H26185   4.086   2.193   6.844 -0.5445 -1.3844 -0.4579
  935MOL0     H26186   3.878   2.249   6.818 -2.2231 -0.1904 -0.0179
  935MOL0     H26187   3.843   2.385   6.717 -1.4870 -0.7428  2.9369
  935MOL0     H26188   3.813   2.225   6.657 -0.2897  1.4365 -1.6009
  935MOL0     H26189   3.618   2.375   6.413  1.4025 -1.7453 -0.9153
  935MOL0     H26190   3.476   2.415   6.227 -0.4624  0.2492  1.8978
  935MOL0     H26191   3.683   2.448   5.879  0.4671 -1.7601  1.5447
  935MOL0     H26192   3.542   2.355   5.948 -1.3571  0.4372 -1.0508
  935MOL0     H26193   3.535   2.589   5.737 -1.8924  0.1090 -2.4235
  935MOL0     H26194   3.503   2.430   5.699 -2.4403  1.8185 -1.8672
  935MOL0     H26195   3.292   2.572   5.730  1.6969  0.8151 -0.2790
  935MOL0     H26196   3.333   2.620   5.877 -0.4729  0.6508 -1.2223
  935MOL0     H26197   3.328   2.366   5.950  1.7174  1.4194 -0.6528
  935MOL0     H26198   3.184   2.450   5.935  1.8634  2.9758  2.1438
  935MOL0     H26199   3.190   2.215   5.817  0.9497 -2.0026 -2.5964
  935MOL0     H26200   3.317   2.270   5.708  2.1760  2.4142  1.2016
  935MOL0     H26201   3.051   2.406   5.703 -0.0241 -0.9527  0.4004
  935MOL0     H26202   3.196   2.412   5.586  1.1308  0.7875  0.9133
  935MOL0     H26203   3.035   2.168   5.661 -2.6824  1.9765  1.5417
  935MOL0     H26204   3.171   2.172   5.548 -0.0474  0.0428  2.6001
  935MOL0     H26205   2.933   2.193   5.442  0.9850 -0.1108 -0.3978
  935MOL0     H26206   3.039   2.327   5.406 -0.4684 -0.3206 -0.9167
  935MOL0     H26207   3.787   2.627   6.030 -1.7297  1.1777 -0.4228
  935MOL0     H26208   3.941   2.597   6.230  0.2694 -0.7349 -0.6720
  935MOL0     H26209   4.211   2.289   6.386 -2.6674  1.2025 -0.1898
  935MOL0     H26210   4.381   2.202   6.557 -0.5160 -2.5534 -1.6726
  935MOL0     H26211   5.694   1.421   7.221 -0.2025  0.3882  0.1438
  935MOL0     H26212   5.920   1.348   7.178 -0.3374 -0.2564  0.4857
  935MOL0     H26213   6.300   1.099   7.321  1.1155 -0.7703  0.2669
  935MOL0     H26214   6.505   1.012   7.316  1.0207  0.4530  3.9923
  935MOL0     H26215   6.760   1.213   7.087 -3.1564 -1.4690  1.1440
  935MOL0     H26216   6.895   1.253   7.191  1.8400 -1.8682 -0.6824
  935MOL0     H26217   6.953   1.088   7.041 -0.6256  2.0644  0.9678
  935MOL0     H26218   6.820   0.978   7.074  0.4511 -1.3749  2.3242
  935MOL0     H26219   6.919   0.943   7.300  2.0248 -1.1535 -0.0883
  935MOL0     H26220   7.054   1.049   7.242 -0.0614  1.1930 -0.9484
  935MOL0     H26221   7.096   0.876   7.067  1.3033 -1.5860  0.4195
  935MOL0     H26222   6.959   0.773   7.126 -2.2854  1.6495 -0.3736
  935MOL0     H26223   7.272   0.690   7.392  0.0859 -0.0255  0.0278
  935MOL0     H26224   6.680   1.397   7.262 -1.1470  1.9085 -1.3570
  935MOL0     H26225   6.453   1.503   7.262 -1.3034 -0.0515  0.0364
  936MOL0     O26226   1.814   7.576   6.722 -0.2688 -0.6612  0.0800
  936MOL0     C26227   1.864   7.561   6.608  0.7263  0.9642 -0.1081
  936MOL0     O26228   1.802   7.498   6.497 -0.1311  0.2159  0.2109
  936MOL0     C26229   1.669   7.466   6.510 -0.2460  0.2854 -0.4384
  936MOL0     C26230   1.594   7.534   6.413 -0.9087  0.9310 -0.0927
  936MOL0     C26231   1.463   7.500   6.397 -0.1752  0.4805  0.2418
  936MOL0     C26232   1.404   7.405   6.475  0.3974 -0.0562 -0.9142
  936MOL0     O26233   1.270   7.379   6.445  0.1667  0.3048 -0.2057
  936MOL0     C26234   1.184   7.305   6.534  0.4008 -0.1001 -0.1638
  936MOL0     C26235   1.035   7.318   6.498  0.3096  0.2775 -0.0653
  936MOL0     C26236   0.991   7.213   6.387 -1.1448 -0.5667 -0.0366
  936MOL0     C26237   0.842   7.251   6.353 -0.5471  0.2202 -0.0401
  936MOL0     C26238   0.807   7.212   6.211  0.5135  0.4140  0.4558
  936MOL0     C26239   0.837   7.059   6.172  0.2206  0.2546  0.0171
  936MOL0     C26240   0.746   6.964   6.246 -0.2144  0.0975 -0.5636
  936MOL0     C26241   0.781   6.825   6.200  0.3474  0.8141 -0.5432
  936MOL0     N26242   0.665   6.734   6.225  0.6304 -0.1370 -0.2626
  936MOL0     C26243   0.575   6.688   6.131  0.5853  0.1959 -0.9684
  936MOL0     C26244   0.496   6.608   6.197  0.7853 -0.4174  0.0670
  936MOL0     C26245   0.388   6.529   6.117 -0.5560 -0.6039  0.3752
  936MOL0     C26246   0.269   6.620   6.076  0.0664  0.2644  0.0127
  936MOL0     C26247   0.176   6.680   6.186 -0.2586 -1.1402  0.4582
  936MOL0     C26248   0.065   6.765   6.124  0.7927  0.4915  0.2379
  936MOL0     O26249  -0.028   6.791   6.223  0.2048  0.1247 -0.1736
  936MOL0     C26250  -0.156   6.831   6.189  0.3603 -0.4599 -0.4215
  936MOL0     C26251  -0.236   6.853   6.299  0.2579  0.0130  0.2984
  936MOL0     C26252  -0.363   6.902   6.291  0.1935  0.1648 -0.4587
  936MOL0     C26253  -0.455   6.909   6.406 -0.7302 -0.4217  0.3577
  936MOL0     C26254  -0.420   6.915   6.157  0.0300  0.6385 -0.2752
  936MOL0     C26255  -0.558   6.977   6.129 -0.1541  0.2323 -1.2912
  936MOL0     O26256  -0.647   6.992   6.230 -0.1236 -0.5403  0.1065
  936MOL0     C26257  -0.777   7.033   6.201 -0.0098 -0.6133  0.5081
  936MOL0     C26258  -0.856   6.957   6.121 -0.5927 -0.3543  1.2446
  936MOL0     C26259  -0.984   7.008   6.080 -0.1394 -0.6732 -0.0587
  936MOL0     C26260  -1.034   7.123   6.130  0.9185 -0.0758  0.2948
  936MOL0     O26261  -1.151   7.182   6.090  0.5883  0.3151  0.3769
  936MOL0     C26262  -1.152   7.208   5.954  0.9255 -0.2005 -0.1016
  936MOL0     C26263  -1.261   7.322   5.924  0.0133  0.1213  1.2306
  936MOL0     C26264  -1.397   7.256   5.934 -0.2698  0.5151  0.3021
  936MOL0     C26265  -1.496   7.362   5.955  0.1079 -0.2328  0.3708
  936MOL0     C26266  -1.638   7.315   5.981 -0.2065  0.2144 -0.0891
  936MOL0     C26267  -1.735   7.443   6.015 -0.3292 -0.2288  0.2319
  936MOL0     C26268  -1.767   7.524   5.896 -0.0185 -0.4386  0.5855
  936MOL0     C26269  -1.839   7.657   5.909  0.1204 -0.1449  0.2145
  936MOL0    Cl26270  -2.016   7.612   5.953 -0.0469  0.1805  0.3661
  936MOL0     C26271  -0.958   7.196   6.223 -0.3601 -0.4852  0.7678
  936MOL0     C26272  -0.823   7.156   6.250 -0.6436  0.3452 -0.4568
  936MOL0     O26273  -0.578   7.012   6.021  0.3819 -0.7230  0.8603
  936MOL0     C26274  -0.332   6.891   6.045  0.4142  0.3657 -0.5238
  936MOL0     C26275  -0.203   6.848   6.063 -0.0004 -0.1158  0.4505
  936MOL0     N26276   0.524   6.601   6.332  0.7490 -1.0143  0.2329
  936MOL0     N26277   0.622   6.686   6.347  0.0323 -0.2982  0.4135
  936MOL0     C26278   1.473   7.349   6.584  0.5171 -0.4199 -0.0321
  936MOL0     C26279   1.607   7.375   6.605  0.2270 -0.9054  0.7326
  936MOL0     C26280   2.012   7.590   6.592 -0.5148 -0.4146 -0.1559
  936MOL0     C26281   2.090   7.629   6.706  0.2738 -0.0361  0.6864
  936MOL0     C26282   2.230   7.649   6.687 -0.0495 -0.8415 -0.0176
  936MOL0     C26283   2.282   7.652   6.554 -0.0299  0.3299  0.4316
  936MOL0     O26284   2.421   7.665   6.546  0.2568  0.3282 -0.1494
  936MOL0     C26285   2.489   7.613   6.434  0.5369 -0.1528  0.5959
  936MOL0     C26286   2.634   7.667   6.440  0.4031 -0.7373  0.0801
  936MOL0     C26287   2.642   7.817   6.433 -0.3817  0.9589  0.4701
  936MOL0     C26288   2.794   7.848   6.445  0.0559 -0.0380  0.0285
  936MOL0     C26289   2.813   7.985   6.417 -0.3619  0.5813 -0.7440
  936MOL0     C26290   2.847   8.091   6.381 -0.4165 -0.8366 -1.1844
  936MOL0     C26291   2.204   7.626   6.444 -0.4060  0.1635 -0.3004
  936MOL0     C26292   2.068   7.591   6.463 -1.5029 -0.1517 -0.4686
  936MOL0     H26293   1.645   7.608   6.351  1.5124 -0.0987  0.5675
  936MOL0     H26294   1.400   7.543   6.319  2.1295  0.9813 -1.4519
  936MOL0     H26295   1.216   7.201   6.533  2.1453  0.3631  1.9623
  936MOL0     H26296   1.191   7.342   6.636 -1.6184  2.5447 -0.8648
  936MOL0     H26297   0.965   7.316   6.582  1.3735  0.0843  0.8493
  936MOL0     H26298   1.023   7.415   6.450 -2.3942  0.4568  0.8201
  936MOL0     H26299   1.058   7.222   6.301  0.7774 -0.5969  1.3886
  936MOL0     H26300   0.994   7.111   6.425  1.5963 -1.0206 -1.2732
  936MOL0     H26301   0.777   7.200   6.425 -0.5953  0.5751  0.1689
  936MOL0     H26302   0.813   7.357   6.358  0.9259  0.7471 -1.5267
  936MOL0     H26303   0.705   7.238   6.180  1.6096  0.7081 -3.5554
  936MOL0     H26304   0.867   7.278   6.147  3.2746 -1.2478  1.1835
  936MOL0     H26305   0.814   7.052   6.065 -2.4601  0.5781  0.5180
  936MOL0     H26306   0.940   7.026   6.191  0.2459  0.4911  0.2882
  936MOL0     H26307   0.774   6.972   6.351 -0.8023  1.4902 -0.4881
  936MOL0     H26308   0.643   6.995   6.227 -0.0799  1.8172  1.2292
  936MOL0     H26309   0.869   6.798   6.259  0.2133  1.7249  0.0926
  936MOL0     H26310   0.804   6.827   6.093 -0.9615  2.7287 -0.8388
  936MOL0     H26311   0.572   6.708   6.025 -1.7569 -1.9502 -1.3930
  936MOL0     H26312   0.434   6.493   6.024 -2.7611 -2.2856 -0.1609
  936MOL0     H26313   0.356   6.438   6.168 -3.6982  0.0774 -0.1512
  936MOL0     H26314   0.198   6.570   6.010  3.7599 -0.7682 -3.6253
  936MOL0     H26315   0.300   6.704   6.012 -2.2385  2.5598  1.7119
  936MOL0     H26316   0.230   6.752   6.248 -1.6560  2.5647 -2.2657
  936MOL0     H26317   0.133   6.603   6.251  3.0704 -0.7386  3.4511
  936MOL0     H26318   0.020   6.703   6.046  3.5716 -2.2315  0.6331
  936MOL0     H26319   0.109   6.860   6.092 -2.8773  1.7585 -1.6543
  936MOL0     H26320  -0.198   6.838   6.400 -3.2462 -1.1694  1.5870
  936MOL0     H26321  -0.495   7.011   6.408  0.9402  0.4134 -2.6062
  936MOL0     H26322  -0.536   6.836   6.397  0.3405 -1.6880  0.6603
  936MOL0     H26323  -0.403   6.895   6.502  1.5467  0.8295 -0.6143
  936MOL0     H26324  -0.812   6.871   6.073  0.8604  1.7235 -1.4009
  936MOL0     H26325  -1.045   6.952   6.010  1.9781 -0.9286 -1.7610
  936MOL0     H26326  -1.055   7.251   5.929  0.3947  2.6887  2.2655
  936MOL0     H26327  -1.155   7.110   5.905  0.7931  0.1991 -0.9166
  936MOL0     H26328  -1.255   7.417   5.978  1.4819  1.2200 -0.7578
  936MOL0     H26329  -1.245   7.354   5.821 -0.0324 -0.5465  1.0109
  936MOL0     H26330  -1.403   7.187   6.019 -1.8013 -1.7648 -1.5095
  936MOL0     H26331  -1.418   7.199   5.843 -0.8569  1.4792 -0.1752
  936MOL0     H26332  -1.466   7.414   6.046  1.7968  1.9101 -1.3001
  936MOL0     H26333  -1.485   7.431   5.870 -3.3338  0.5277  0.4070
  936MOL0     H26334  -1.633   7.240   6.060  0.5408  1.2286  0.8587
  936MOL0     H26335  -1.674   7.277   5.885 -0.0816 -0.9618  0.3226
  936MOL0     H26336  -1.826   7.401   6.058 -1.4826  0.0140 -1.8569
  936MOL0     H26337  -1.684   7.505   6.089  2.4687 -0.3330 -1.4638
  936MOL0     H26338  -1.815   7.464   5.818  0.3911  1.3299 -1.1065
  936MOL0     H26339  -1.673   7.570   5.861  0.1080  1.1657  2.8495
  936MOL0     H26340  -1.835   7.715   5.816  3.5366 -0.1353  0.2558
  936MOL0     H26341  -1.787   7.711   5.989  1.3742  1.7723 -1.7948
  936MOL0     H26342  -0.979   7.298   6.254  2.4520  0.6872 -0.8368
  936MOL0     H26343  -0.756   7.228   6.297 -0.4307 -0.1377 -0.0097
  936MOL0     H26344  -0.370   6.900   5.943  0.8132  3.5863 -0.4804
  936MOL0     H26345  -0.150   6.809   5.977  0.5552  0.6648  0.4309
  936MOL0     H26346   1.437   7.266   6.644  1.9264 -0.9756  0.0845
  936MOL0     H26347   1.668   7.333   6.684  1.3845  0.2863  0.5055
  936MOL0     H26348   2.038   7.637   6.801 -0.5510  1.4379  0.1386
  936MOL0     H26349   2.302   7.670   6.766 -1.2429  0.1470  0.8639
  936MOL0     H26350   2.488   7.504   6.432 -1.0412 -0.1831 -2.3286
  936MOL0     H26351   2.442   7.646   6.341  1.8155  3.4082  1.0506
  936MOL0     H26352   2.690   7.630   6.354 -2.0747  4.1464 -4.2477
  936MOL0     H26353   2.683   7.642   6.535  1.1268 -0.8708 -0.3215
  936MOL0     H26354   2.584   7.874   6.507  0.9232  2.8348  0.1073
  936MOL0     H26355   2.616   7.843   6.330  1.5219 -1.8402 -0.8474
  936MOL0     H26356   2.864   7.794   6.380  1.6755  3.2967 -1.2693
  936MOL0     H26357   2.824   7.826   6.548 -0.8004 -1.5249 -0.0149
  936MOL0     H26358   2.875   8.186   6.341 -4.0932 -0.0515 -2.2762
  936MOL0     H26359   2.247   7.625   6.344 -1.9426 -2.1687 -1.0070
  936MOL0     H26360   2.026   7.570   6.366  1.7440  0.4357 -2.1448
  937MOL0     O26361   2.447   8.213   0.357 -0.2849 -0.6150 -0.0365
  937MOL0     C26362   2.543   8.262   0.294  0.3351 -0.4528 -1.0077
  937MOL0     O26363   2.540   8.303   0.161 -0.0924 -0.5753  0.7097
  937MOL0     C26364   2.417   8.301   0.099 -1.0655  1.0965 -0.3627
  937MOL0     C26365   2.364   8.415   0.040  0.3534 -1.3416 -0.4628
  937MOL0     C26366   2.238   8.419  -0.019 -0.3622 -0.0467 -0.4204
  937MOL0     C26367   2.163   8.304  -0.032  0.6855  0.3326  0.2981
  937MOL0     O26368   2.044   8.323  -0.099 -0.3561 -0.5951  0.1488
  937MOL0     C26369   1.951   8.216  -0.111  0.0238 -0.7635  0.7093
  937MOL0     C26370   1.834   8.278  -0.185 -0.9208  1.0095  0.5500
  937MOL0     C26371   1.752   8.176  -0.252  0.4391  0.3250  0.4971
  937MOL0     C26372   1.643   8.233  -0.346 -0.3912  0.4315 -0.0090
  937MOL0     C26373   1.591   8.120  -0.443 -0.9623 -0.0687 -1.1458
  937MOL0     C26374   1.507   8.017  -0.372 -0.1732  0.4483  0.3912
  937MOL0     C26375   1.411   7.963  -0.482 -0.2402 -0.2197  0.7530
  937MOL0     C26376   1.324   7.854  -0.427  0.0504 -0.0910  0.0756
  937MOL0     N26377   1.217   7.895  -0.332  0.4197  0.0256 -0.1696
  937MOL0     C26378   1.086   7.868  -0.356  0.3426  0.1363  0.2711
  937MOL0     C26379   1.021   7.887  -0.239 -0.2712  0.2156 -0.1451
  937MOL0     C26380   0.876   7.852  -0.195 -0.7131 -0.4302  0.0964
  937MOL0     C26381   0.765   7.900  -0.292 -0.7143 -0.5951 -0.1198
  937MOL0     C26382   0.673   7.786  -0.315 -0.5120 -0.3051  0.4064
  937MOL0     C26383   0.561   7.821  -0.408  0.2052 -0.0577 -0.2566
  937MOL0     O26384   0.479   7.905  -0.317  0.2322 -0.0017 -0.5980
  937MOL0     C26385   0.358   7.946  -0.352 -0.1338  0.2316 -0.1925
  937MOL0     C26386   0.300   7.961  -0.476 -0.1934  0.8078  0.3781
  937MOL0     C26387   0.166   7.991  -0.495  0.4545  0.1070  0.1849
  937MOL0     C26388   0.119   7.996  -0.640 -0.3678 -0.1511 -0.2173
  937MOL0     C26389   0.084   8.023  -0.380  0.6530  0.3401 -0.7771
  937MOL0     C26390  -0.064   8.060  -0.384 -0.7962  0.4741  0.0240
  937MOL0     O26391  -0.126   8.115  -0.274 -0.3070 -0.1510  0.2834
  937MOL0     C26392  -0.266   8.127  -0.279  0.7487  0.4235  0.3796
  937MOL0     C26393  -0.319   8.249  -0.239  0.4508  0.7297 -0.4327
  937MOL0     C26394  -0.458   8.263  -0.226  0.3468  0.6269 -0.0697
  937MOL0     C26395  -0.540   8.148  -0.264 -0.2212  0.1031  0.2328
  937MOL0     O26396  -0.677   8.155  -0.264 -0.6955 -0.2037 -0.0537
  937MOL0     C26397  -0.746   8.264  -0.199 -0.2523  0.1321  0.7146
  937MOL0     C26398  -0.892   8.236  -0.197  0.8057  0.2054 -0.1914
  937MOL0     C26399  -0.976   8.357  -0.145 -0.8800  0.8209 -0.5648
  937MOL0     C26400  -1.116   8.316  -0.142 -0.6645  1.2845 -1.5995
  937MOL0     C26401  -1.205   8.437  -0.127  0.3128 -0.0804  0.0372
  937MOL0     C26402  -1.355   8.418  -0.083 -0.0867  0.3537  0.1801
  937MOL0     C26403  -1.416   8.297  -0.153 -0.0450  0.6108  0.1515
  937MOL0     C26404  -1.551   8.270  -0.078 -0.0177  0.3278  0.3269
  937MOL0    Cl26405  -1.680   8.392  -0.120  0.0473 -0.2415 -0.2637
  937MOL0     C26406  -0.485   8.028  -0.309  0.0057  0.6064  0.2922
  937MOL0     C26407  -0.352   8.017  -0.311 -0.0361 -0.7911 -1.2531
  937MOL0     O26408  -0.122   8.039  -0.488  0.0818  0.3824  0.2249
  937MOL0     C26409   0.144   8.020  -0.255 -0.1114 -0.2061 -0.0770
  937MOL0     C26410   0.280   7.982  -0.241  0.0838 -0.2020  0.5306
  937MOL0     N26411   1.116   7.952  -0.154 -0.0239  0.9276  0.5170
  937MOL0     N26412   1.224   7.957  -0.217 -0.4559  0.4345  0.2943
  937MOL0     C26413   2.205   8.188   0.026 -0.4277 -0.3314  1.0082
  937MOL0     C26414   2.332   8.185   0.089  0.7830  1.1188 -0.1658
  937MOL0     C26415   2.684   8.258   0.360 -0.1438  0.3200  0.2980
  937MOL0     C26416   2.712   8.206   0.486 -0.4937  0.2859  1.3609
  937MOL0     C26417   2.847   8.222   0.539 -0.0570  0.5300  0.4032
  937MOL0     C26418   2.946   8.289   0.474 -0.5340 -0.3587  0.1479
  937MOL0     O26419   3.070   8.294   0.525  0.1060  0.3388  0.7502
  937MOL0     C26420   3.102   8.241   0.652  0.0862  0.3234 -0.5331
  937MOL0     C26421   3.260   8.270   0.665  0.4145 -0.8513 -0.5489
  937MOL0     C26422   3.281   8.422   0.698  0.5266  0.6736 -1.1062
  937MOL0     C26423   3.246   8.459   0.846 -0.6012  0.5080  0.1350
  937MOL0     C26424   3.300   8.590   0.877  0.4942  0.2680  0.0734
  937MOL0     C26425   3.328   8.702   0.908 -0.8779 -0.0876 -0.2014
  937MOL0     C26426   2.918   8.335   0.342 -0.4305  0.4848  0.0715
  937MOL0     C26427   2.792   8.313   0.287 -0.4338  0.3918  0.4139
  937MOL0     H26428   2.419   8.508   0.043 -0.1049 -1.0798  0.4722
  937MOL0     H26429   2.202   8.516  -0.051  0.5474  0.6486  0.5979
  937MOL0     H26430   1.990   8.138  -0.178  1.6210  1.2328 -0.8077
  937MOL0     H26431   1.929   8.165  -0.017  1.3955  2.0080  2.6770
  937MOL0     H26432   1.782   8.338  -0.111 -0.3243  1.8433  0.3073
  937MOL0     H26433   1.869   8.356  -0.254 -0.5739  2.6058  2.4372
  937MOL0     H26434   1.816   8.108  -0.309 -1.5329 -1.5619  0.3911
  937MOL0     H26435   1.703   8.113  -0.178 -0.2551 -0.8230 -0.8861
  937MOL0     H26436   1.568   8.281  -0.284 -0.5348  0.7435 -0.4227
  937MOL0     H26437   1.686   8.318  -0.400 -1.0904 -0.0352 -1.3605
  937MOL0     H26438   1.536   8.179  -0.517 -1.4294 -0.7990 -1.4034
  937MOL0     H26439   1.676   8.068  -0.487  1.7542  1.8100  1.4906
  937MOL0     H26440   1.567   7.938  -0.326 -0.0050 -0.0556 -0.6607
  937MOL0     H26441   1.448   8.069  -0.296 -0.6496  0.6465 -0.1077
  937MOL0     H26442   1.347   8.043  -0.520 -2.5004 -2.6511 -0.9287
  937MOL0     H26443   1.478   7.924  -0.559 -0.1760  3.7300 -1.4893
  937MOL0     H26444   1.397   7.783  -0.388  1.8512  1.0201 -1.1150
  937MOL0     H26445   1.282   7.799  -0.511  2.4308  0.4455 -1.5557
  937MOL0     H26446   1.041   7.808  -0.434 -1.2429 -1.1122  2.0481
  937MOL0     H26447   0.864   7.747  -0.168  0.6464 -0.6529 -0.1011
  937MOL0     H26448   0.853   7.914  -0.108 -0.8350  0.7715 -0.7530
  937MOL0     H26449   0.808   7.935  -0.386  0.4276 -2.9866 -0.5657
  937MOL0     H26450   0.713   7.985  -0.246 -0.2503 -1.6411  2.5172
  937MOL0     H26451   0.637   7.757  -0.216 -0.3689 -1.4144  0.1495
  937MOL0     H26452   0.723   7.698  -0.358 -0.3008 -0.2192  0.4750
  937MOL0     H26453   0.504   7.731  -0.433 -1.0803  0.9087 -0.9067
  937MOL0     H26454   0.599   7.861  -0.503 -0.9635  0.3955 -0.5547
  937MOL0     H26455   0.357   7.921  -0.560  1.1690  2.9806  0.1896
  937MOL0     H26456   0.133   8.100  -0.672  2.0768 -0.5490 -0.6802
  937MOL0     H26457   0.173   7.934  -0.712  1.3161  1.1073 -0.1129
  937MOL0     H26458   0.019   7.952  -0.641 -1.2963  1.2562  4.6281
  937MOL0     H26459  -0.251   8.333  -0.226  1.0043  0.1727  0.2876
  937MOL0     H26460  -0.499   8.355  -0.187 -0.0636  1.0548 -1.4461
  937MOL0     H26461  -0.707   8.285  -0.099  0.8210 -1.0183  0.5592
  937MOL0     H26462  -0.727   8.354  -0.259  0.5524  0.3227  1.2437
  937MOL0     H26463  -0.932   8.209  -0.295 -0.5050 -1.6284  0.7778
  937MOL0     H26464  -0.908   8.151  -0.130 -0.4811  1.4809  1.1904
  937MOL0     H26465  -0.966   8.432  -0.224  0.2865 -0.2003 -1.4039
  937MOL0     H26466  -0.935   8.392  -0.049 -0.0068 -1.3905 -0.0759
  937MOL0     H26467  -1.133   8.251  -0.228  2.7472  0.5903 -1.8848
  937MOL0     H26468  -1.127   8.254  -0.052 -0.2218  1.5682 -1.3434
  937MOL0     H26469  -1.208   8.485  -0.225 -1.0684 -2.1856 -1.0355
  937MOL0     H26470  -1.171   8.499  -0.043 -1.6062  1.1944 -0.0783
  937MOL0     H26471  -1.356   8.402   0.025 -4.1886  0.1943  0.2898
  937MOL0     H26472  -1.413   8.509  -0.101 -0.0211  0.3829  0.1222
  937MOL0     H26473  -1.352   8.208  -0.152 -0.1504  0.4141 -2.7879
  937MOL0     H26474  -1.435   8.308  -0.260  0.3322  0.6110  0.0842
  937MOL0     H26475  -1.539   8.270   0.030  1.7801 -4.4132  0.3553
  937MOL0     H26476  -1.586   8.172  -0.111  1.5735  0.1576 -0.9869
  937MOL0     H26477  -0.535   7.946  -0.359  0.8445  1.1681 -1.5702
  937MOL0     H26478  -0.311   7.920  -0.334 -1.3995 -1.6506 -0.1880
  937MOL0     H26479   0.082   8.021  -0.166  0.4219 -2.5813  0.3969
  937MOL0     H26480   0.327   7.959  -0.146  0.6508 -0.6920  0.1408
  937MOL0     H26481   2.139   8.103   0.011  1.9309 -2.2413  0.9224
  937MOL0     H26482   2.375   8.097   0.135 -0.3596  1.1138  0.9521
  937MOL0     H26483   2.652   8.148   0.554  1.8217  0.8557  4.0662
  937MOL0     H26484   2.859   8.169   0.633 -0.6740 -1.1872 -0.4409
  937MOL0     H26485   3.039   8.277   0.734 -0.1891  1.4556 -1.2300
  937MOL0     H26486   3.092   8.132   0.651  0.8709  0.2455 -0.5432
  937MOL0     H26487   3.317   8.240   0.577  0.3091 -1.5454 -0.3932
  937MOL0     H26488   3.312   8.209   0.739  0.8042 -2.4511 -2.0756
  937MOL0     H26489   3.227   8.482   0.623 -0.2725  0.2992 -0.8471
  937MOL0     H26490   3.388   8.438   0.685  0.8778 -1.0560 -0.5382
  937MOL0     H26491   3.277   8.384   0.919 -0.9970 -0.2092 -0.4222
  937MOL0     H26492   3.137   8.460   0.853 -0.6624 -1.4937  0.0649
  937MOL0     H26493   3.355   8.805   0.921 -3.2931  0.5653  0.3641
  937MOL0     H26494   3.002   8.372   0.283  0.7215 -1.9244  0.0954
  937MOL0     H26495   2.784   8.364   0.191 -0.7045 -0.1296  0.1583
  938MOL0     O26496  10.965   3.276   1.878  0.1651 -0.6158 -0.2267
  938MOL0     C26497  11.061   3.336   1.827  0.2309 -0.0143 -0.5398
  938MOL0     O26498  11.044   3.443   1.740  0.3755 -0.7856  0.1943
  938MOL0     C26499  10.921   3.504   1.730  0.8096 -0.6384 -0.3252
  938MOL0     C26500  10.877   3.579   1.841  0.2872 -0.1514  1.2255
  938MOL0     C26501  10.763   3.659   1.833 -0.7620  0.3084 -0.7102
  938MOL0     C26502  10.691   3.656   1.712  1.0005 -0.6276 -0.4689
  938MOL0     O26503  10.585   3.740   1.693  0.4989 -0.0932  0.3467
  938MOL0     C26504  10.520   3.802   1.800 -1.1100 -1.1000 -0.3932
  938MOL0     C26505  10.389   3.884   1.760 -1.2173  0.0990  0.6291
  938MOL0     C26506  10.334   3.955   1.875 -0.6268 -0.5404 -0.2688
  938MOL0     C26507  10.210   4.033   1.827  0.2052  0.3017  0.4657
  938MOL0     C26508  10.149   4.111   1.947 -0.1955  0.0118  0.0703
  938MOL0     C26509  10.224   4.230   2.003 -0.0613  0.5230 -0.0114
  938MOL0     C26510  10.267   4.326   1.891  0.3190  0.4506 -0.3250
  938MOL0     C26511  10.287   4.479   1.930 -0.4208  0.5475  0.0007
  938MOL0     N26512  10.393   4.471   2.025  0.3406  0.0978 -0.4837
  938MOL0     C26513  10.535   4.487   2.007 -0.9584 -0.1390 -0.4129
  938MOL0     C26514  10.592   4.498   2.130  0.0070 -0.5329  0.4990
  938MOL0     C26515  10.740   4.523   2.146 -0.0379 -0.0289  0.7949
  938MOL0     C26516  10.804   4.485   2.286  0.1005  0.5479 -0.0295
  938MOL0     C26517  10.843   4.340   2.287 -0.1267  0.1462  0.6328
  938MOL0     C26518  10.951   4.335   2.394  1.4451  1.1487 -1.0141
  938MOL0     O26519  11.065   4.378   2.319 -0.1129 -0.4443  0.1016
  938MOL0     C26520  11.182   4.355   2.385 -0.1373 -0.4149 -0.9792
  938MOL0     C26521  11.194   4.389   2.520  0.8656  0.4939  0.4322
  938MOL0     C26522  11.304   4.378   2.602 -0.0192  0.7333 -0.3022
  938MOL0     C26523  11.281   4.413   2.748 -1.1002 -0.0314  0.1755
  938MOL0     C26524  11.423   4.326   2.547  1.0423 -0.4219  0.6587
  938MOL0     C26525  11.551   4.303   2.622  0.1317 -0.1935 -0.6144
  938MOL0     O26526  11.569   4.354   2.741  0.0562 -0.3376  0.0607
  938MOL0     C26527  11.659   4.299   2.829 -0.5116  0.9102 -0.3090
  938MOL0     C26528  11.785   4.365   2.827 -0.1518 -0.2630  1.0444
  938MOL0     C26529  11.890   4.325   2.913 -0.3976 -0.5894  0.1716
  938MOL0     C26530  11.882   4.208   2.984 -0.0045 -0.3184 -0.9081
  938MOL0     O26531  11.973   4.152   3.070  0.1286  0.0085 -0.0778
  938MOL0     C26532  12.115   4.163   3.043  0.5081  0.4844  0.4710
  938MOL0     C26533  12.203   4.069   3.123  0.9629 -0.4493 -0.3128
  938MOL0     C26534  12.347   4.074   3.078  0.2238 -0.2144  0.0207
  938MOL0     C26535  12.451   4.009   3.168  0.2190  0.4776 -0.4479
  938MOL0     C26536  12.497   4.102   3.284 -0.5750 -0.6457 -0.2613
  938MOL0     C26537  12.564   4.026   3.404 -0.0509  0.2616  0.6514
  938MOL0     C26538  12.649   4.125   3.486 -0.6458 -0.1751 -0.5858
  938MOL0     C26539  12.773   4.145   3.416 -0.0121  0.5209  0.9796
  938MOL0    Cl26540  12.864   3.984   3.431  0.1552 -0.2510 -0.0543
  938MOL0     C26541  11.752   4.147   2.992  0.2299  0.1917  1.1622
  938MOL0     C26542  11.642   4.188   2.918  0.0953  0.2251  0.8531
  938MOL0     O26543  11.628   4.220   2.570  0.2743 -0.1839  0.0434
  938MOL0     C26544  11.416   4.287   2.409 -0.0498 -0.4724  0.1889
  938MOL0     C26545  11.304   4.309   2.330  1.3692  0.4777 -0.1740
  938MOL0     N26546  10.481   4.509   2.220  0.2869 -0.5580  0.2301
  938MOL0     N26547  10.372   4.489   2.158 -0.4410 -0.1170 -0.1337
  938MOL0     C26548  10.736   3.585   1.599 -0.3144  0.3016 -0.4371
  938MOL0     C26549  10.853   3.507   1.607 -0.0204  0.4479 -0.3323
  938MOL0     C26550  11.194   3.294   1.862 -0.6952 -0.0230  0.5738
  938MOL0     C26551  11.315   3.331   1.789  0.3589 -0.0057 -0.5266
  938MOL0     C26552  11.443   3.304   1.837 -0.5695 -0.1915  0.1368
  938MOL0     C26553  11.458   3.235   1.956  0.4846 -0.0166 -0.3968
  938MOL0     O26554  11.585   3.212   2.015 -0.0715 -0.2080  0.1440
  938MOL0     C26555  11.699   3.290   1.967  0.0716  1.6088 -0.8374
  938MOL0     C26556  11.797   3.292   2.079 -0.8979  0.2119 -0.5723
  938MOL0     C26557  11.945   3.327   2.056 -0.7799 -0.2567 -0.0556
  938MOL0     C26558  12.030   3.368   2.190 -0.6767 -0.0847  0.5056
  938MOL0     C26559  12.170   3.391   2.152 -1.2487 -0.7946 -0.9350
  938MOL0     C26560  12.287   3.393   2.123 -0.6587 -0.0628 -0.0359
  938MOL0     C26561  11.339   3.191   2.026 -0.0725  0.5776  0.5308
  938MOL0     C26562  11.210   3.224   1.983 -0.5521 -0.2740 -0.4711
  938MOL0     H26563  10.941   3.571   1.928  2.1307  1.4414  0.1031
  938MOL0     H26564  10.744   3.726   1.916 -1.2783 -1.4421  0.6524
  938MOL0     H26565  10.510   3.735   1.886  3.8877 -1.8659 -0.1001
  938MOL0     H26566  10.593   3.876   1.835 -1.3721 -0.9426 -0.1797
  938MOL0     H26567  10.412   3.950   1.676 -0.5216  1.0910  1.5750
  938MOL0     H26568  10.319   3.808   1.723 -1.1653  0.9033 -1.2219
  938MOL0     H26569  10.294   3.880   1.944 -0.5731 -1.6768 -1.4378
  938MOL0     H26570  10.405   4.019   1.928 -1.0746 -0.7180  0.5654
  938MOL0     H26571  10.239   4.095   1.741 -1.8386  3.2231  1.7089
  938MOL0     H26572  10.140   3.961   1.785 -0.9960  2.2337 -1.0727
  938MOL0     H26573  10.049   4.145   1.918 -0.2641  2.1869  2.4323
  938MOL0     H26574  10.131   4.038   2.025  0.9564  0.3652  0.6815
  938MOL0     H26575  10.155   4.279   2.074  2.3831  1.4026  1.9153
  938MOL0     H26576  10.311   4.196   2.060  0.3822  0.6376 -0.6141
  938MOL0     H26577  10.365   4.288   1.861  0.7904 -0.1725  1.8355
  938MOL0     H26578  10.203   4.325   1.802 -0.3651  0.9985  0.1470
  938MOL0     H26579  10.205   4.532   1.979 -0.1113 -1.6684  3.2304
  938MOL0     H26580  10.322   4.542   1.848  1.6058 -1.1285 -0.5117
  938MOL0     H26581  10.590   4.478   1.914 -0.7303  0.6322 -0.3558
  938MOL0     H26582  10.792   4.477   2.062 -2.0222 -1.8003  0.4813
  938MOL0     H26583  10.769   4.629   2.147  2.7038 -0.6945  0.6998
  938MOL0     H26584  10.748   4.523   2.372 -0.6971  1.7411 -1.0517
  938MOL0     H26585  10.895   4.546   2.285  0.8714 -0.5194  1.4627
  938MOL0     H26586  10.887   4.315   2.190  0.1061  2.2923  0.1515
  938MOL0     H26587  10.757   4.275   2.305  0.9013 -2.0003 -1.4811
  938MOL0     H26588  10.972   4.233   2.430 -0.7158  0.8235 -0.5498
  938MOL0     H26589  10.929   4.407   2.473  0.1631 -0.6735  0.3884
  938MOL0     H26590  11.107   4.435   2.567 -1.2913 -2.6812 -0.1833
  938MOL0     H26591  11.287   4.318   2.800  3.2995 -0.7766 -1.2569
  938MOL0     H26592  11.357   4.483   2.786  1.5547 -2.3421 -0.5619
  938MOL0     H26593  11.185   4.465   2.753 -2.4976 -2.0824 -2.5680
  938MOL0     H26594  11.811   4.454   2.770 -0.1316 -2.6083 -2.9518
  938MOL0     H26595  11.979   4.388   2.907 -2.2147  1.9697 -2.2524
  938MOL0     H26596  12.138   4.145   2.937 -1.4378  2.8795 -0.4684
  938MOL0     H26597  12.140   4.269   3.056 -1.6151  1.3941 -2.0598
  938MOL0     H26598  12.190   4.095   3.228  0.3085 -0.3542 -0.4128
  938MOL0     H26599  12.173   3.966   3.105 -2.0173  0.4184 -0.9735
  938MOL0     H26600  12.378   4.176   3.054 -0.6912 -0.3611 -1.9963
  938MOL0     H26601  12.349   4.015   2.986 -1.1250 -0.9171  0.4098
  938MOL0     H26602  12.417   3.917   3.216  2.4648 -1.0292 -1.5568
  938MOL0     H26603  12.543   3.977   3.118  0.6273  1.7110 -0.5209
  938MOL0     H26604  12.416   4.161   3.328  0.5272  0.6445  0.1109
  938MOL0     H26605  12.568   4.170   3.236 -2.5521  0.6149 -1.5271
  938MOL0     H26606  12.488   3.980   3.468 -2.0032 -1.0302 -2.3735
  938MOL0     H26607  12.633   3.945   3.376  2.4542  2.0113  1.3807
  938MOL0     H26608  12.677   4.093   3.586  1.4761  2.9383 -0.0373
  938MOL0     H26609  12.597   4.221   3.484 -0.8025 -0.2567 -0.4106
  938MOL0     H26610  12.827   4.225   3.467  0.5635 -0.0492  1.2891
  938MOL0     H26611  12.760   4.156   3.308 -2.9756 -2.7715  0.8277
  938MOL0     H26612  11.739   4.057   3.051 -0.4877  1.1050  2.4568
  938MOL0     H26613  11.552   4.128   2.914 -0.6586  1.3854 -2.0572
  938MOL0     H26614  11.496   4.242   2.351 -1.0107 -0.7724 -0.9197
  938MOL0     H26615  11.300   4.292   2.223  1.2941 -0.1073 -0.0786
  938MOL0     H26616  10.692   3.590   1.500  0.0009  2.5069 -0.5240
  938MOL0     H26617  10.887   3.443   1.526 -0.4500  0.1189 -0.2557
  938MOL0     H26618  11.303   3.390   1.699  1.9733  2.6748  0.8865
  938MOL0     H26619  11.535   3.333   1.788 -1.1281 -0.2120 -0.9452
  938MOL0     H26620  11.745   3.246   1.878  1.8326 -1.1467  1.2765
  938MOL0     H26621  11.660   3.392   1.961  1.1250  1.9743 -1.7548
  938MOL0     H26622  11.798   3.186   2.109 -2.1729 -0.6594 -3.2755
  938MOL0     H26623  11.743   3.341   2.160 -1.9142 -1.7715  0.0337
  938MOL0     H26624  11.950   3.387   1.964 -1.8471  0.8289  0.5602
  938MOL0     H26625  11.997   3.231   2.043  1.9123  1.3437 -2.3305
  938MOL0     H26626  12.023   3.293   2.270 -0.8875 -0.8403 -0.2099
  938MOL0     H26627  11.996   3.466   2.224 -1.1232 -0.4674  1.2145
  938MOL0     H26628  12.387   3.384   2.086 -0.0012  0.5635  1.5282
  938MOL0     H26629  11.346   3.145   2.124  2.7782  0.6793  0.4770
  938MOL0     H26630  11.122   3.193   2.038  0.5502  0.1348  1.6159
  939MOL0     O26631   9.790   2.158   8.569 -0.2147  0.0700  0.0701
  939MOL0     C26632   9.882   2.073   8.568  0.0998 -0.2424 -0.1893
  939MOL0     O26633   9.875   1.943   8.608 -0.0782 -0.3235 -0.1069
  939MOL0     C26634   9.755   1.895   8.663  0.1224  0.5445 -0.3220
  939MOL0     C26635   9.702   1.774   8.617  0.2618 -0.6135 -0.2223
  939MOL0     C26636   9.589   1.718   8.683  0.6344 -1.5891  0.3009
  939MOL0     C26637   9.542   1.777   8.806 -0.1203 -0.8440  0.2491
  939MOL0     O26638   9.437   1.736   8.892 -0.2805 -0.9384  0.3150
  939MOL0     C26639   9.406   1.600   8.885  0.2991  0.0384  0.3262
  939MOL0     C26640   9.326   1.567   9.009 -0.2634 -0.6793  0.3071
  939MOL0     C26641   9.251   1.437   9.011 -0.4877 -0.1415 -0.3978
  939MOL0     C26642   9.121   1.431   8.933  0.2228 -0.2181  0.4700
  939MOL0     C26643   9.025   1.320   8.968  0.5604  0.2331  0.0526
  939MOL0     C26644   8.990   1.290   9.114 -0.0158 -0.2201 -0.6445
  939MOL0     C26645   8.882   1.186   9.113 -0.0477  0.1968  0.8661
  939MOL0     C26646   8.861   1.138   9.260 -0.0730 -0.9537  0.5099
  939MOL0     N26647   8.750   1.054   9.285 -0.5443 -0.0519 -0.2561
  939MOL0     C26648   8.633   1.062   9.224 -0.2043 -0.2133  0.2098
  939MOL0     C26649   8.568   0.966   9.286  0.3519 -1.1818 -0.2030
  939MOL0     C26650   8.426   0.937   9.245 -0.1723 -0.3038  0.2334
  939MOL0     C26651   8.333   1.013   9.336 -0.0326  0.2227  0.0339
  939MOL0     C26652   8.181   0.983   9.313 -0.8712 -0.5732  0.2234
  939MOL0     C26653   8.091   1.081   9.387  0.1368  0.3824 -0.4656
  939MOL0     O26654   8.122   1.219   9.362  0.2401 -0.3737  0.0212
  939MOL0     C26655   8.023   1.305   9.399  0.3764  0.3950  0.7451
  939MOL0     C26656   7.963   1.299   9.528  0.1176 -0.5588 -0.3290
  939MOL0     C26657   7.863   1.402   9.554 -0.4380 -0.7322  0.2405
  939MOL0     C26658   7.820   1.411   9.694  0.3516  0.0623 -0.0998
  939MOL0     C26659   7.810   1.484   9.444 -0.3060  0.3935  0.5578
  939MOL0     C26660   7.695   1.584   9.439 -0.2783 -0.5057 -0.3913
  939MOL0     O26661   7.610   1.591   9.545  0.4056 -0.2909  0.3630
  939MOL0     C26662   7.535   1.700   9.556 -0.9291 -0.5679  0.3338
  939MOL0     C26663   7.590   1.828   9.567  0.0536  0.8717  0.2099
  939MOL0     C26664   7.519   1.946   9.563  0.9854  0.1598  0.2072
  939MOL0     C26665   7.381   1.945   9.554 -0.2153 -0.7745 -0.0885
  939MOL0     O26666   7.302   2.059   9.574 -0.1960  0.2370 -0.4833
  939MOL0     C26667   7.362   2.185   9.611  0.1978 -0.7392  0.0252
  939MOL0     C26668   7.240   2.283   9.617 -0.3144 -0.1005  0.1817
  939MOL0     C26669   7.156   2.259   9.740  0.8039  0.8166  0.5877
  939MOL0     C26670   7.076   2.385   9.771  0.3074  0.1305 -0.5519
  939MOL0     C26671   6.998   2.452   9.654 -0.1423 -1.0193  0.1392
  939MOL0     C26672   6.921   2.572   9.720 -0.1588 -0.2690  0.2772
  939MOL0     C26673   6.881   2.672   9.613 -0.3313  0.0397 -0.0126
  939MOL0     C26674   6.771   2.751   9.675  0.3541 -0.8424  0.4039
  939MOL0    Cl26675   6.689   2.852   9.550  0.2555  0.0550 -0.4705
  939MOL0     C26676   7.324   1.817   9.529  0.3829  0.1619 -0.8518
  939MOL0     C26677   7.397   1.694   9.539  0.0575 -0.3565  0.3606
  939MOL0     O26678   7.695   1.662   9.339  0.0575 -0.3069 -0.2623
  939MOL0     C26679   7.872   1.476   9.323 -0.4577  0.7963  0.3869
  939MOL0     C26680   7.983   1.393   9.302  0.6704  0.3681 -0.0922
  939MOL0     N26681   8.635   0.914   9.397  0.2831 -0.5921  0.2780
  939MOL0     N26682   8.743   0.969   9.396 -0.0418 -0.0688 -0.4523
  939MOL0     C26683   9.601   1.895   8.854 -0.2572 -0.1971 -0.1472
  939MOL0     C26684   9.708   1.953   8.777  0.2449  0.2329  0.4357
  939MOL0     C26685  10.013   2.122   8.536  0.2578  0.4666  0.1964
  939MOL0     C26686  10.042   2.260   8.518 -0.1634  0.6803  0.4245
  939MOL0     C26687  10.163   2.306   8.478 -1.2965  0.0420  0.8351
  939MOL0     C26688  10.265   2.216   8.451  0.2787 -0.1916  0.1890
  939MOL0     O26689  10.395   2.260   8.414 -0.0965 -0.2503 -1.2381
  939MOL0     C26690  10.449   2.366   8.503  0.6620  0.2707 -0.8591
  939MOL0     C26691  10.600   2.363   8.478  0.6620  0.3169 -0.0060
  939MOL0     C26692  10.684   2.453   8.572  0.6508  0.9720 -0.6501
  939MOL0     C26693  10.837   2.440   8.563 -0.3647  0.3745 -0.4968
  939MOL0     C26694  10.895   2.495   8.443  0.1277  0.3323  0.0425
  939MOL0     C26695  10.947   2.529   8.341 -0.5927 -0.3380  0.1549
  939MOL0     C26696  10.233   2.076   8.453  0.2274  0.3315  0.1820
  939MOL0     C26697  10.107   2.027   8.488 -0.5972  1.1493 -0.9815
  939MOL0     H26698   9.742   1.732   8.525  0.4395  0.3696 -0.6147
  939MOL0     H26699   9.522   1.644   8.641  0.8835 -2.4001  1.2826
  939MOL0     H26700   9.355   1.574   8.792 -0.1661  1.8667  0.0315
  939MOL0     H26701   9.496   1.537   8.888 -0.4256 -1.1246 -0.9681
  939MOL0     H26702   9.386   1.559   9.100  1.2618 -0.1184 -0.6074
  939MOL0     H26703   9.250   1.644   9.027  2.4387  1.9971  1.2034
  939MOL0     H26704   9.312   1.372   8.947  0.4693  0.6071 -0.2662
  939MOL0     H26705   9.253   1.395   9.112  2.6281 -2.0345 -1.0891
  939MOL0     H26706   9.062   1.523   8.946  2.2696  1.5516 -1.7491
  939MOL0     H26707   9.148   1.429   8.827 -0.7130  0.8117  0.1906
  939MOL0     H26708   8.930   1.348   8.920 -0.2049 -1.6862  0.3476
  939MOL0     H26709   9.063   1.229   8.922  2.0131  1.7442 -1.9162
  939MOL0     H26710   9.080   1.247   9.160  1.0095  1.5057 -0.9594
  939MOL0     H26711   8.954   1.378   9.167  2.2925 -0.7063  1.9664
  939MOL0     H26712   8.790   1.232   9.078  1.6848  2.3140 -1.2716
  939MOL0     H26713   8.906   1.098   9.051  2.1011  1.9222 -0.9447
  939MOL0     H26714   8.836   1.229   9.316 -1.2879  0.6868 -2.4485
  939MOL0     H26715   8.953   1.095   9.301  1.4977  1.6254 -0.0234
  939MOL0     H26716   8.598   1.136   9.152  2.0916  1.1311  0.4025
  939MOL0     H26717   8.403   0.969   9.143  1.2656  1.3766  0.3806
  939MOL0     H26718   8.404   0.831   9.262 -1.1757 -0.3769 -1.3312
  939MOL0     H26719   8.341   1.122   9.331  0.0638  0.2161  0.0480
  939MOL0     H26720   8.362   0.990   9.438  0.4414  3.1308  0.6528
  939MOL0     H26721   8.164   0.889   9.366 -2.7111  0.0163  0.7448
  939MOL0     H26722   8.149   0.984   9.209 -2.0215 -1.0480  0.5547
  939MOL0     H26723   8.088   1.043   9.489 -0.4160  1.0687 -0.2148
  939MOL0     H26724   7.990   1.068   9.347 -0.2526  1.4122  0.1236
  939MOL0     H26725   8.004   1.236   9.607  1.4915 -1.4651 -1.7107
  939MOL0     H26726   7.824   1.515   9.729 -1.2723  0.0113  0.3285
  939MOL0     H26727   7.724   1.366   9.720  0.8284 -1.3736 -0.7625
  939MOL0     H26728   7.889   1.355   9.758  0.2324  0.1925  0.1450
  939MOL0     H26729   7.698   1.841   9.562 -0.1886  3.1619  0.1299
  939MOL0     H26730   7.577   2.034   9.588  1.5072  0.0764 -0.6954
  939MOL0     H26731   7.420   2.176   9.703  0.1523  0.5795  0.2030
  939MOL0     H26732   7.423   2.213   9.525  2.0015 -0.6660  1.2950
  939MOL0     H26733   7.290   2.381   9.618  4.9424 -2.2489 -4.1021
  939MOL0     H26734   7.187   2.274   9.522  1.1398 -0.8141 -0.5914
  939MOL0     H26735   7.215   2.242   9.831  0.2119  2.4256  1.3027
  939MOL0     H26736   7.090   2.172   9.734  2.4233 -0.4182 -0.3327
  939MOL0     H26737   7.009   2.353   9.851 -0.2968  1.7063 -0.3965
  939MOL0     H26738   7.134   2.465   9.819 -0.5136 -0.4374  1.4859
  939MOL0     H26739   6.935   2.378   9.604 -3.4646  0.6832  1.4828
  939MOL0     H26740   7.072   2.489   9.584 -3.9044  0.7366 -3.3349
  939MOL0     H26741   6.834   2.524   9.765  0.2125  0.3661  1.7156
  939MOL0     H26742   6.986   2.633   9.783  2.8081 -1.5710 -1.2991
  939MOL0     H26743   6.852   2.621   9.520  2.4407  0.5148 -1.2218
  939MOL0     H26744   6.967   2.734   9.590  1.5929 -1.6108  2.2753
  939MOL0     H26745   6.812   2.814   9.755 -0.8058  0.6394 -0.1402
  939MOL0     H26746   6.699   2.685   9.725 -2.3764  0.1786 -1.9668
  939MOL0     H26747   7.216   1.816   9.521  0.0286  0.4144  2.3600
  939MOL0     H26748   7.344   1.600   9.534  0.5510 -0.7223  1.6659
  939MOL0     H26749   7.839   1.531   9.235  1.8301 -0.5119 -1.3890
  939MOL0     H26750   8.032   1.396   9.205  1.4800 -2.5358  0.1062
  939MOL0     H26751   9.568   1.945   8.944  3.0680  2.3258 -0.1343
  939MOL0     H26752   9.756   2.040   8.821 -2.7337  0.5298  3.4963
  939MOL0     H26753   9.959   2.328   8.535  0.3025  1.9010 -1.8023
  939MOL0     H26754  10.174   2.414   8.483 -0.5242 -0.0501  1.3577
  939MOL0     H26755  10.406   2.461   8.472  0.4663  0.3610 -0.3202
  939MOL0     H26756  10.419   2.346   8.606 -0.6274 -0.2602 -1.3192
  939MOL0     H26757  10.627   2.398   8.378  3.1506 -2.1476 -0.3246
  939MOL0     H26758  10.629   2.258   8.491  0.9963 -0.1449 -3.3530
  939MOL0     H26759  10.647   2.439   8.674  0.0182 -1.2743 -1.1459
  939MOL0     H26760  10.671   2.560   8.555  1.5927  1.2583  0.2830
  939MOL0     H26761  10.881   2.341   8.578  1.3371  0.5912 -3.3267
  939MOL0     H26762  10.868   2.497   8.651  0.1440  1.1877 -1.1774
  939MOL0     H26763  10.999   2.581   8.263  2.0323 -2.0068  0.6670
  939MOL0     H26764  10.316   2.011   8.429  0.1067 -0.5767  2.0555
  939MOL0     H26765  10.084   1.921   8.489 -2.2371  1.4785  0.0548
  940MOL0     O26766   3.352   3.726  10.095  0.1756  0.2620  0.2766
  940MOL0     C26767   3.368   3.623  10.167 -0.0804 -0.3537  0.5085
  940MOL0     O26768   3.269   3.527  10.178 -0.2840  0.8345 -0.5115
  940MOL0     C26769   3.160   3.526  10.090  0.3232  0.1975 -0.1128
  940MOL0     C26770   3.049   3.603  10.116 -0.3015 -0.2488 -0.5740
  940MOL0     C26771   2.946   3.614  10.023  0.4855 -0.0430 -1.1239
  940MOL0     C26772   2.954   3.557   9.891 -0.1445 -0.3167 -0.3854
  940MOL0     O26773   2.864   3.576   9.794 -0.0447 -0.4576 -0.0033
  940MOL0     C26774   2.718   3.573   9.816 -0.9820 -0.1576 -1.3044
  940MOL0     C26775   2.655   3.550   9.678 -0.4786  0.5002 -0.5554
  940MOL0     C26776   2.506   3.551   9.692  0.6136 -1.1092 -0.1284
  940MOL0     C26777   2.455   3.508   9.560 -0.6107 -0.6930  0.9342
  940MOL0     C26778   2.315   3.455   9.567 -1.1043  0.2730  0.9151
  940MOL0     C26779   2.274   3.422   9.432  0.1575 -0.5988 -0.2193
  940MOL0     C26780   2.124   3.376   9.434  0.7002  0.4350  0.7609
  940MOL0     C26781   2.081   3.251   9.503 -0.4571  0.1729  0.8121
  940MOL0     N26782   2.128   3.135   9.434  0.4612  0.0538 -0.1092
  940MOL0     C26783   2.068   3.080   9.324  0.7937  0.2013  0.3096
  940MOL0     C26784   2.127   2.960   9.306 -0.3235  0.2227  0.3001
  940MOL0     C26785   2.084   2.874   9.197  0.4060  0.1849  0.0839
  940MOL0     C26786   2.043   2.731   9.239 -0.7247  0.2250  0.5563
  940MOL0     C26787   2.024   2.635   9.113  0.6843 -0.0232 -0.2323
  940MOL0     C26788   1.991   2.485   9.139  0.1638  0.0815 -0.2548
  940MOL0     O26789   1.856   2.451   9.135 -0.1659 -0.2305 -0.5199
  940MOL0     C26790   1.839   2.319   9.111  0.2197  0.9045  0.2595
  940MOL0     C26791   1.875   2.262   8.993 -0.3408  0.0464  1.2564
  940MOL0     C26792   1.873   2.121   8.969 -0.1717 -0.0915  0.2626
  940MOL0     C26793   1.912   2.065   8.834 -0.4123  0.1604 -0.0387
  940MOL0     C26794   1.829   2.039   9.072  0.6072  0.5556  0.6416
  940MOL0     C26795   1.864   1.895   9.078 -0.8062  0.8296 -1.1648
  940MOL0     O26796   1.876   1.845   9.199  0.5437 -0.3461 -0.2522
  940MOL0     C26797   1.930   1.722   9.225 -0.3884 -1.0737 -0.2464
  940MOL0     C26798   2.072   1.710   9.232  0.4778 -0.2967  0.1411
  940MOL0     C26799   2.130   1.586   9.272  0.1028  0.9839 -0.9920
  940MOL0     C26800   2.046   1.481   9.312  0.0555  0.2523  0.6003
  940MOL0     O26801   2.121   1.371   9.354  0.8649 -0.1598  0.2671
  940MOL0     C26802   2.045   1.276   9.429  0.9384  0.1821 -0.9076
  940MOL0     C26803   2.133   1.152   9.477  0.1754  1.0495 -0.5175
  940MOL0     C26804   2.068   1.073   9.597  0.7413  0.4856  0.2982
  940MOL0     C26805   2.039   0.931   9.564  0.0138  0.2567  0.4623
  940MOL0     C26806   1.970   0.858   9.689 -0.6575 -0.2348  0.1521
  940MOL0     C26807   1.901   0.729   9.644 -0.4470  0.1831 -0.1649
  940MOL0     C26808   1.832   0.651   9.751 -0.6034  1.1265  0.0294
  940MOL0     C26809   1.759   0.530   9.688  0.4417 -0.5225 -0.4870
  940MOL0    Cl26810   1.895   0.424   9.632  0.3386  0.4071  0.3278
  940MOL0     C26811   1.903   1.493   9.290  0.2223 -0.4910  0.1161
  940MOL0     C26812   1.851   1.615   9.256 -0.5427 -0.5989 -0.4201
  940MOL0     O26813   1.867   1.826   8.976  0.4784  1.3980 -0.9673
  940MOL0     C26814   1.779   2.093   9.187 -1.0852 -0.8117 -0.3015
  940MOL0     C26815   1.788   2.234   9.207  1.1262  0.1567  0.6236
  940MOL0     N26816   2.225   2.939   9.404 -0.3057 -0.7086 -0.5869
  940MOL0     N26817   2.226   3.052   9.471 -0.3392 -0.4810 -0.7772
  940MOL0     C26818   3.067   3.482   9.864 -0.6748 -0.0595 -0.1039
  940MOL0     C26819   3.167   3.461   9.964 -0.3089 -0.5567 -0.2838
  940MOL0     C26820   3.487   3.610  10.249 -0.0116 -0.3428  0.5118
  940MOL0     C26821   3.600   3.681  10.215  0.2658  1.2791  0.4273
  940MOL0     C26822   3.719   3.667  10.284 -0.3579 -0.3993 -0.6161
  940MOL0     C26823   3.725   3.591  10.401  0.4861  0.5532 -0.3388
  940MOL0     O26824   3.843   3.606  10.481  0.4290 -0.1094  0.0547
  940MOL0     C26825   3.877   3.511  10.580  0.8657  0.2187  1.3587
  940MOL0     C26826   3.914   3.377  10.512 -1.5725 -0.6488  0.0394
  940MOL0     C26827   4.049   3.396  10.428 -0.2660 -0.3120 -0.9368
  940MOL0     C26828   4.160   3.472  10.505 -0.8891 -0.1969  0.1694
  940MOL0     C26829   4.192   3.424  10.640 -0.1716  0.7393  0.1326
  940MOL0     C26830   4.184   3.369  10.752  0.2738 -0.5911 -0.2891
  940MOL0     C26831   3.611   3.512  10.438  0.3961 -1.2133 -0.8300
  940MOL0     C26832   3.494   3.521  10.357  0.0071  0.4843 -0.1157
  940MOL0     H26833   3.049   3.648  10.215  0.6114 -1.1203 -0.1620
  940MOL0     H26834   2.868   3.688  10.041  2.3922  1.5347  1.4462
  940MOL0     H26835   2.683   3.496   9.886  4.4489 -0.8215  1.1505
  940MOL0     H26836   2.691   3.675   9.844 -0.6319 -0.2890 -0.4464
  940MOL0     H26837   2.688   3.632   9.613  0.0240 -0.8599 -2.0865
  940MOL0     H26838   2.690   3.454   9.640 -1.5872  0.6073 -1.9390
  940MOL0     H26839   2.463   3.490   9.773 -0.4420 -1.1732 -0.7119
  940MOL0     H26840   2.484   3.657   9.708  0.4985 -0.8024 -2.0424
  940MOL0     H26841   2.452   3.597   9.497  0.5867 -1.2879 -0.0013
  940MOL0     H26842   2.516   3.433   9.509 -2.2271  0.0592 -2.3910
  940MOL0     H26843   2.307   3.372   9.638  0.1731  1.1939  2.1904
  940MOL0     H26844   2.246   3.530   9.606 -0.7382  0.3937  1.3341
  940MOL0     H26845   2.284   3.515   9.375  0.3533 -0.9771 -0.8082
  940MOL0     H26846   2.339   3.349   9.384  2.8276  1.2265  0.4143
  940MOL0     H26847   2.064   3.452   9.486 -0.9235 -0.7242  0.6479
  940MOL0     H26848   2.086   3.368   9.332 -1.9632 -0.1379  1.7276
  940MOL0     H26849   1.971   3.250   9.510 -0.5367  1.0268 -0.1165
  940MOL0     H26850   2.122   3.243   9.604 -0.4372  0.0457  0.7936
  940MOL0     H26851   1.983   3.116   9.266  0.8380 -1.3045 -0.7423
  940MOL0     H26852   1.996   2.923   9.155 -0.1395  1.5644  2.6107
  940MOL0     H26853   2.161   2.869   9.119  0.6044 -0.5216  0.3155
  940MOL0     H26854   1.959   2.712   9.306 -1.1156 -3.3109 -0.7099
  940MOL0     H26855   2.124   2.686   9.297 -0.4774  1.1485  0.9478
  940MOL0     H26856   2.111   2.644   9.048 -0.5787 -0.1487 -2.0096
  940MOL0     H26857   1.933   2.663   9.059  0.5031 -3.7134 -2.1506
  940MOL0     H26858   2.039   2.457   9.234  0.1148 -0.0020 -0.2550
  940MOL0     H26859   2.045   2.430   9.062 -0.1145 -0.7723  0.1448
  940MOL0     H26860   1.913   2.323   8.912 -1.5643 -1.9254 -0.9285
  940MOL0     H26861   1.820   2.030   8.786 -0.5277 -1.6344  1.3818
  940MOL0     H26862   1.959   2.148   8.780 -1.0210 -0.5948 -1.7764
  940MOL0     H26863   2.000   2.001   8.845  0.3787  1.1014 -0.7547
  940MOL0     H26864   2.135   1.796   9.209 -0.7895  0.3315 -1.1710
  940MOL0     H26865   2.238   1.578   9.270 -0.0453 -1.5144 -0.9994
  940MOL0     H26866   2.003   1.335   9.511  0.3751 -0.5497 -0.6666
  940MOL0     H26867   1.967   1.238   9.363 -0.3681  0.5241  0.4073
  940MOL0     H26868   2.151   1.077   9.399 -2.2917 -1.8036  1.4580
  940MOL0     H26869   2.229   1.185   9.517 -0.4889 -0.7731  2.9508
  940MOL0     H26870   1.974   1.118   9.629  1.6602  1.8163  1.2135
  940MOL0     H26871   2.135   1.063   9.683  0.1545  0.8749  0.8042
  940MOL0     H26872   1.965   0.926   9.483 -1.4087 -0.1115  1.7306
  940MOL0     H26873   2.132   0.881   9.537 -0.3137 -1.7248  2.7110
  940MOL0     H26874   1.903   0.931   9.737 -0.1869  0.0562  0.3765
  940MOL0     H26875   2.057   0.839   9.752 -1.1481  0.3091  1.0249
  940MOL0     H26876   1.822   0.758   9.574 -0.4201 -0.1031 -0.3150
  940MOL0     H26877   1.963   0.666   9.580 -1.8664  0.8869 -2.3559
  940MOL0     H26878   1.754   0.717   9.792  0.2737  2.3747 -0.2729
  940MOL0     H26879   1.909   0.630   9.827  1.4515  4.5636 -0.9114
  940MOL0     H26880   1.696   0.560   9.603  2.7622 -1.1375 -2.5317
  940MOL0     H26881   1.700   0.475   9.762  0.2010 -0.0127 -0.2920
  940MOL0     H26882   1.842   1.403   9.297 -0.3192 -0.0002  3.6435
  940MOL0     H26883   1.744   1.634   9.244 -0.2765  1.4813  0.1470
  940MOL0     H26884   1.735   2.031   9.264 -3.0205  1.1215  0.2645
  940MOL0     H26885   1.752   2.284   9.297 -0.3268  0.4992 -0.1153
  940MOL0     H26886   3.083   3.432   9.770 -1.6736 -1.1621  0.2988
  940MOL0     H26887   3.250   3.393   9.944 -0.6694 -0.6268 -1.5890
  940MOL0     H26888   3.601   3.748  10.130  1.9514 -0.2659 -0.8606
  940MOL0     H26889   3.804   3.728  10.253  1.6252 -3.0784 -0.8354
  940MOL0     H26890   3.943   3.549  10.659 -0.5877 -0.4613  2.9648
  940MOL0     H26891   3.798   3.487  10.651  1.4172 -0.1272  1.8667
  940MOL0     H26892   3.833   3.342  10.448 -0.6467  0.1314 -1.6433
  940MOL0     H26893   3.943   3.308  10.592  0.9096  2.4399  2.0483
  940MOL0     H26894   4.026   3.444  10.332  1.7560  0.6698 -0.9754
  940MOL0     H26895   4.094   3.297  10.419  2.8904  1.0246 -1.0529
  940MOL0     H26896   4.138   3.579  10.509  1.1022  0.2443  0.6206
  940MOL0     H26897   4.255   3.458  10.453 -0.3081 -1.9540  1.6104
  940MOL0     H26898   4.177   3.326  10.849 -1.7779  1.7781  0.7167
  940MOL0     H26899   3.607   3.444  10.522 -1.2381 -1.0825 -0.7793
  940MOL0     H26900   3.415   3.454  10.387 -1.7495  2.6439  0.3798
  941MOL0     O26901   1.365   5.061   5.463 -0.9432  0.6423  0.1119
  941MOL0     C26902   1.420   5.157   5.501 -0.8885  0.1272  0.2287
  941MOL0     O26903   1.361   5.277   5.524  0.1654  0.3768  0.5726
  941MOL0     C26904   1.230   5.284   5.552 -0.2703 -0.8698 -0.7419
  941MOL0     C26905   1.161   5.192   5.629  0.3786  0.4695  0.3716
  941MOL0     C26906   1.025   5.203   5.650 -0.1602  0.8734 -0.6348
  941MOL0     C26907   0.954   5.309   5.600  0.0124 -0.3718 -0.2825
  941MOL0     O26908   0.822   5.311   5.623  0.4672  0.1488  0.0671
  941MOL0     C26909   0.738   5.401   5.563  1.0721 -0.3471  0.5065
  941MOL0     C26910   0.605   5.375   5.634 -0.2803 -0.6830 -0.0512
  941MOL0     C26911   0.493   5.451   5.580  0.5668 -0.4480 -0.6380
  941MOL0     C26912   0.361   5.422   5.652  0.8817 -0.3744  0.7085
  941MOL0     C26913   0.256   5.513   5.577  0.0199 -0.2441 -0.3861
  941MOL0     C26914   0.119   5.514   5.644 -0.4534 -0.8821 -0.3616
  941MOL0     C26915   0.112   5.591   5.784  0.2217 -0.0228  0.4259
  941MOL0     C26916   0.181   5.726   5.790  0.1351  0.3416  0.5813
  941MOL0     N26917   0.111   5.818   5.707  0.1123 -0.3961  0.4095
  941MOL0     C26918  -0.028   5.824   5.677 -0.0902 -0.6353 -0.3844
  941MOL0     C26919  -0.043   5.945   5.615 -0.4131  0.3233  0.9505
  941MOL0     C26920  -0.167   6.002   5.544  0.2252  0.0210  0.5140
  941MOL0     C26921  -0.240   6.112   5.620 -0.3133 -0.8411 -0.0269
  941MOL0     C26922  -0.322   6.065   5.743  0.5725 -0.5751  0.5329
  941MOL0     C26923  -0.326   6.166   5.854 -0.1120 -0.3177  0.5694
  941MOL0     O26924  -0.380   6.292   5.807  0.0214  0.2040  0.8091
  941MOL0     C26925  -0.517   6.306   5.801  0.3529 -0.3481  0.2129
  941MOL0     C26926  -0.600   6.272   5.904  0.5172 -0.2933 -0.1539
  941MOL0     C26927  -0.742   6.283   5.884 -0.4209  0.3235 -0.4031
  941MOL0     C26928  -0.851   6.240   5.990  0.5242 -0.1379  0.4381
  941MOL0     C26929  -0.787   6.345   5.766 -0.3145  0.4233 -0.3690
  941MOL0     C26930  -0.930   6.375   5.734  0.5841 -0.4081 -0.0134
  941MOL0     O26931  -0.979   6.371   5.604  0.1898 -0.0773 -0.0038
  941MOL0     C26932  -1.117   6.373   5.584 -0.5651 -0.1843 -0.0592
  941MOL0     C26933  -1.177   6.466   5.492  0.2316 -0.1540 -0.0130
  941MOL0     C26934  -1.310   6.455   5.461 -0.6403  0.3008  0.2197
  941MOL0     C26935  -1.395   6.362   5.521  0.0735 -0.6266 -0.2710
  941MOL0     O26936  -1.530   6.359   5.478  0.3828 -0.8140 -0.2655
  941MOL0     C26937  -1.631   6.301   5.569  0.0738  0.0514 -0.6593
  941MOL0     C26938  -1.693   6.390   5.677 -0.0390  0.5836  0.5360
  941MOL0     C26939  -1.759   6.301   5.777  0.5620 -0.1619  1.1856
  941MOL0     C26940  -1.838   6.381   5.877  0.2254  0.8020 -0.3194
  941MOL0     C26941  -1.905   6.285   5.993  0.2500 -0.6157  0.3647
  941MOL0     C26942  -2.042   6.226   5.936 -0.4186  0.1396 -1.3859
  941MOL0     C26943  -2.145   6.337   5.912  0.3993  0.4596 -0.4691
  941MOL0     C26944  -2.286   6.271   5.926  0.2232  0.2364  0.3260
  941MOL0    Cl26945  -2.308   6.137   5.800 -0.0248 -0.0872 -0.0084
  941MOL0     C26946  -1.331   6.275   5.612  0.7773 -0.0381 -0.1190
  941MOL0     C26947  -1.203   6.282   5.649 -0.6182  1.0470  0.4755
  941MOL0     O26948  -0.998   6.429   5.828  0.7200 -0.2820  0.2435
  941MOL0     C26949  -0.694   6.387   5.666 -0.5005  0.4211  0.0736
  941MOL0     C26950  -0.558   6.363   5.684  0.0064  0.1751  0.9327
  941MOL0     N26951   0.080   6.011   5.629  0.1977  0.2248  0.5933
  941MOL0     N26952   0.170   5.933   5.673 -0.4982 -0.9351 -0.8739
  941MOL0     C26953   1.027   5.415   5.537  0.5153  0.8693 -0.7997
  941MOL0     C26954   1.163   5.397   5.513 -0.7903  0.4477  0.0016
  941MOL0     C26955   1.562   5.146   5.510 -0.2839 -1.0102  0.5012
  941MOL0     C26956   1.634   5.032   5.461 -0.0965  0.0273  0.2667
  941MOL0     C26957   1.777   5.029   5.470  0.4663  0.2462 -0.2147
  941MOL0     C26958   1.845   5.128   5.526 -0.5326  0.1327  0.0624
  941MOL0     O26959   1.978   5.109   5.522  0.6703  0.0752 -0.0634
  941MOL0     C26960   2.073   5.195   5.592  0.1511 -0.6459  0.1568
  941MOL0     C26961   2.207   5.178   5.531 -0.8381  0.3588  0.3070
  941MOL0     C26962   2.308   5.292   5.574  0.0830  0.4306  0.0060
  941MOL0     C26963   2.319   5.314   5.723 -0.7528  0.2074 -0.4255
  941MOL0     C26964   2.389   5.187   5.772  0.6311 -0.0060  0.8585
  941MOL0     C26965   2.440   5.090   5.820  0.4520 -0.8801 -0.0429
  941MOL0     C26966   1.776   5.236   5.590  0.6522 -0.5552  0.0077
  941MOL0     C26967   1.641   5.247   5.579  0.4260  0.2342 -0.5665
  941MOL0     H26968   1.204   5.103   5.675 -0.0960 -0.1756 -0.4020
  941MOL0     H26969   0.973   5.127   5.709 -0.3147  1.3301 -0.1748
  941MOL0     H26970   0.776   5.504   5.561 -0.4936  0.3010  1.6686
  941MOL0     H26971   0.708   5.379   5.459  1.3936  2.1026 -0.1631
  941MOL0     H26972   0.576   5.270   5.627 -1.9683 -0.1830 -1.4729
  941MOL0     H26973   0.612   5.411   5.737 -0.4619 -0.0805 -0.2388
  941MOL0     H26974   0.514   5.558   5.596 -0.0855 -0.4900  0.6077
  941MOL0     H26975   0.497   5.420   5.476  4.7808  1.0672 -1.1587
  941MOL0     H26976   0.333   5.318   5.630 -2.4214  0.8705 -1.6594
  941MOL0     H26977   0.374   5.445   5.758  0.2799 -0.0815  0.7191
  941MOL0     H26978   0.284   5.618   5.564  1.7244 -0.7765 -1.4022
  941MOL0     H26979   0.265   5.478   5.473  3.5719  2.3010 -1.1427
  941MOL0     H26980   0.045   5.566   5.582  3.1721  2.2629 -2.4949
  941MOL0     H26981   0.091   5.413   5.675 -4.0607  0.0117 -0.1730
  941MOL0     H26982   0.008   5.604   5.817  0.1422 -0.1231  0.2142
  941MOL0     H26983   0.169   5.538   5.861  0.1045  0.2588  0.7110
  941MOL0     H26984   0.277   5.729   5.737 -1.4101  1.8929 -2.3185
  941MOL0     H26985   0.187   5.764   5.893 -0.9242  1.2551  0.3143
  941MOL0     H26986  -0.105   5.747   5.684 -0.0520 -0.6309  0.1592
  941MOL0     H26987  -0.128   6.056   5.457 -0.2828 -1.1218 -0.4439
  941MOL0     H26988  -0.237   5.925   5.509  1.7432 -0.4374 -1.7478
  941MOL0     H26989  -0.312   6.155   5.550 -2.0833 -2.6805  0.5496
  941MOL0     H26990  -0.174   6.196   5.641  0.7967 -1.7254  0.1022
  941MOL0     H26991  -0.290   5.965   5.776  1.6328  0.9317  4.6814
  941MOL0     H26992  -0.425   6.057   5.709  0.8933 -0.6322 -0.4715
  941MOL0     H26993  -0.222   6.178   5.886  0.2951 -1.5140 -0.2179
  941MOL0     H26994  -0.386   6.113   5.929 -0.7927 -2.5978 -1.4678
  941MOL0     H26995  -0.557   6.230   5.994  0.5601  0.5253  0.2186
  941MOL0     H26996  -0.936   6.186   5.947  0.1457 -1.0186  2.2184
  941MOL0     H26997  -0.818   6.166   6.064 -1.2078  1.2871  2.7771
  941MOL0     H26998  -0.883   6.328   6.047 -1.9743 -0.7420  0.0998
  941MOL0     H26999  -1.121   6.547   5.446  2.2741 -0.8667  1.1077
  941MOL0     H27000  -1.353   6.520   5.386  0.7491 -0.4764 -1.3113
  941MOL0     H27001  -1.708   6.271   5.497 -1.2939 -0.7375  1.0641
  941MOL0     H27002  -1.604   6.204   5.610  0.3891  0.3303 -0.2078
  941MOL0     H27003  -1.628   6.467   5.720 -2.3751  3.8581 -1.3347
  941MOL0     H27004  -1.775   6.444   5.628 -0.5723 -1.0858 -0.5054
  941MOL0     H27005  -1.684   6.238   5.825  0.3644 -1.8426 -0.6244
  941MOL0     H27006  -1.828   6.226   5.737  1.6463 -1.0916  1.0176
  941MOL0     H27007  -1.770   6.454   5.920  2.4959 -1.5192  0.3220
  941MOL0     H27008  -1.919   6.444   5.840  2.8328  3.8601 -1.2677
  941MOL0     H27009  -1.928   6.340   6.085 -2.2406  0.9050 -1.0272
  941MOL0     H27010  -1.838   6.202   6.013  0.8880 -0.8122 -2.2058
  941MOL0     H27011  -2.029   6.163   5.848 -3.3329 -2.8411  0.0442
  941MOL0     H27012  -2.075   6.150   6.008  0.9918 -0.3874 -1.2610
  941MOL0     H27013  -2.137   6.386   5.814  0.6487 -1.5633 -1.5217
  941MOL0     H27014  -2.138   6.398   6.002  3.6282  0.7065 -0.7561
  941MOL0     H27015  -2.370   6.342   5.919  1.2580  1.6051  1.3075
  941MOL0     H27016  -2.284   6.229   6.026  1.6041 -0.6209 -0.0377
  941MOL0     H27017  -1.383   6.190   5.654  1.4581  0.1482  1.1278
  941MOL0     H27018  -1.158   6.216   5.723 -0.0332 -0.0421 -0.7881
  941MOL0     H27019  -0.737   6.437   5.580 -3.5247  0.1168  1.3095
  941MOL0     H27020  -0.487   6.383   5.604 -0.0039 -4.6623 -0.6150
  941MOL0     H27021   0.969   5.493   5.490 -0.4066 -0.8725 -2.6900
  941MOL0     H27022   1.208   5.467   5.443  1.4000 -0.1406  0.7632
  941MOL0     H27023   1.578   4.959   5.403  0.1734  0.4432 -0.5324
  941MOL0     H27024   1.828   4.939   5.436 -2.3302 -0.7811 -2.0665
  941MOL0     H27025   2.038   5.297   5.577 -0.7089 -1.2010 -1.9336
  941MOL0     H27026   2.064   5.186   5.701 -3.0683  1.0187  0.1306
  941MOL0     H27027   2.207   5.170   5.422 -1.3659  0.6621  0.2862
  941MOL0     H27028   2.233   5.079   5.571 -0.9730  1.4242  3.2868
  941MOL0     H27029   2.268   5.380   5.523  2.1223 -0.3187 -3.1686
  941MOL0     H27030   2.402   5.267   5.524 -0.5313 -2.2141 -0.0041
  941MOL0     H27031   2.220   5.333   5.763 -0.1608  0.9593  0.7152
  941MOL0     H27032   2.383   5.400   5.743 -0.9411  0.2615 -0.0657
  941MOL0     H27033   2.483   5.003   5.865  1.6184  0.3166  1.2556
  941MOL0     H27034   1.818   5.300   5.668 -1.1359 -0.9846  1.3781
  941MOL0     H27035   1.584   5.326   5.626 -0.0485  0.1446 -0.9849
  942MOL0     O27036   4.461   5.282   7.885  0.0017  0.5851 -0.0324
  942MOL0     C27037   4.507   5.196   7.957 -0.4138  0.1795  0.0708
  942MOL0     O27038   4.432   5.123   8.051  0.2258 -0.1019  0.0425
  942MOL0     C27039   4.299   5.157   8.066 -0.6905  0.1590  0.3182
  942MOL0     C27040   4.208   5.052   8.065  0.7302 -0.2302 -0.5415
  942MOL0     C27041   4.071   5.078   8.091  0.3335  0.6029 -0.3756
  942MOL0     C27042   4.035   5.211   8.128 -0.4774 -0.9541 -0.0326
  942MOL0     O27043   3.904   5.238   8.163  0.6750 -0.0016  0.1972
  942MOL0     C27044   3.855   5.376   8.157 -0.3354 -0.1942  0.7865
  942MOL0     C27045   3.712   5.401   8.176  0.6517 -0.4153 -0.4384
  942MOL0     C27046   3.664   5.324   8.306 -0.3807 -0.4030  0.2282
  942MOL0     C27047   3.516   5.316   8.317  0.0067 -0.4819  1.0868
  942MOL0     C27048   3.457   5.455   8.341 -0.3890 -0.0705 -0.5766
  942MOL0     C27049   3.316   5.451   8.394 -0.3009 -0.6197 -0.7638
  942MOL0     C27050   3.315   5.416   8.545  0.1346  0.7154 -0.2669
  942MOL0     C27051   3.174   5.386   8.588 -0.0178  0.1176 -0.0985
  942MOL0     N27052   3.093   5.512   8.571 -0.0309 -1.1828 -0.7389
  942MOL0     C27053   2.982   5.523   8.488  0.4924  0.0953 -0.0438
  942MOL0     C27054   2.940   5.652   8.509 -0.1495 -0.5457  0.6493
  942MOL0     C27055   2.816   5.716   8.444  0.0761  0.3751 -0.1360
  942MOL0     C27056   2.833   5.766   8.293  0.8229  0.2828 -0.0811
  942MOL0     C27057   2.860   5.652   8.191  1.1269 -0.2714  0.5014
  942MOL0     C27058   2.855   5.707   8.047  0.2963  0.0417 -0.2708
  942MOL0     O27059   2.890   5.611   7.943 -0.5728 -0.6475 -0.2680
  942MOL0     C27060   3.004   5.542   7.975  0.6780  0.3450 -0.0856
  942MOL0     C27061   2.981   5.399   7.966  0.0544  0.0613  1.2568
  942MOL0     C27062   3.095   5.318   7.967 -0.0245  0.3479 -0.4035
  942MOL0     C27063   3.061   5.173   7.946 -0.1161  0.3618 -0.0242
  942MOL0     C27064   3.218   5.367   7.991 -0.0130 -0.4120 -0.2583
  942MOL0     C27065   3.345   5.283   7.971  0.1580 -0.0082  0.6326
  942MOL0     O27066   3.335   5.147   7.981  0.3124  0.2917 -0.1662
  942MOL0     C27067   3.451   5.076   7.974  0.3062 -0.6518  0.2178
  942MOL0     C27068   3.512   5.022   8.085  0.1493 -0.0304 -0.1405
  942MOL0     C27069   3.619   4.940   8.069 -0.7329  0.4546 -1.0865
  942MOL0     C27070   3.668   4.902   7.948 -0.4119  0.5293  0.5655
  942MOL0     O27071   3.782   4.834   7.956  0.4937  0.7110  0.1869
  942MOL0     C27072   3.794   4.727   7.859  0.1371  0.0668 -0.0527
  942MOL0     C27073   3.903   4.626   7.884 -0.2065 -0.3514  0.3341
  942MOL0     C27074   4.041   4.675   7.841 -0.4785 -0.8487  0.5509
  942MOL0     C27075   4.080   4.644   7.699 -0.6137  0.3028  0.8821
  942MOL0     C27076   4.149   4.507   7.685 -0.4639  0.4520 -0.7183
  942MOL0     C27077   4.289   4.502   7.746 -0.4767 -0.3037 -0.8370
  942MOL0     C27078   4.368   4.392   7.693  0.6115 -0.3087 -0.4355
  942MOL0     C27079   4.501   4.382   7.765  0.0128 -0.6104  0.1404
  942MOL0    Cl27080   4.574   4.231   7.716  0.1048  0.5835 -0.1603
  942MOL0     C27081   3.616   4.959   7.827 -0.0764  0.0084 -0.0655
  942MOL0     C27082   3.496   5.041   7.843  0.3915  0.5013 -0.6817
  942MOL0     O27083   3.448   5.341   7.945  0.3761  0.1252  0.3568
  942MOL0     C27084   3.240   5.507   8.007  0.0800  0.3014 -0.1700
  942MOL0     C27085   3.129   5.594   7.997 -0.4158  0.1738  0.2813
  942MOL0     N27086   3.025   5.715   8.591  0.0900 -0.0823  0.3529
  942MOL0     N27087   3.113   5.632   8.634 -0.1045  0.7497 -0.2791
  942MOL0     C27088   4.134   5.314   8.133  0.5816  0.0142  0.4615
  942MOL0     C27089   4.260   5.278   8.107 -0.2688 -0.0851  0.1675
  942MOL0     C27090   4.652   5.191   7.949  0.1607  0.5571 -0.6197
  942MOL0     C27091   4.722   5.094   8.023 -0.9327 -0.1241 -0.3227
  942MOL0     C27092   4.865   5.088   8.013  0.1333 -0.1216  0.0643
  942MOL0     C27093   4.932   5.160   7.909  0.1377  0.1507  0.0367
  942MOL0     O27094   5.066   5.141   7.883 -0.2675  0.4857 -0.3410
  942MOL0     C27095   5.161   5.189   7.984 -0.0782  0.0030  0.3926
  942MOL0     C27096   5.234   5.076   8.052 -0.4551  0.7628 -0.1321
  942MOL0     C27097   5.294   4.971   7.961 -0.9686  1.0067  0.1062
  942MOL0     C27098   5.359   4.852   8.021  0.0760 -0.8257 -0.2136
  942MOL0     C27099   5.494   4.863   8.077  0.5645 -0.9488 -0.3084
  942MOL0     C27100   5.611   4.857   8.113  0.4108  0.5782  1.1207
  942MOL0     C27101   4.853   5.252   7.830 -0.2978  0.1585  0.2072
  942MOL0     C27102   4.722   5.268   7.853  0.0049 -0.5523  0.4306
  942MOL0     H27103   4.241   4.950   8.049  0.0335 -0.6954  0.8042
  942MOL0     H27104   3.997   4.999   8.079 -1.8870  2.4099  0.5704
  942MOL0     H27105   3.902   5.431   8.239  1.3311 -0.6658  0.1970
  942MOL0     H27106   3.893   5.423   8.067 -0.1984  1.2506  1.5750
  942MOL0     H27107   3.692   5.506   8.202 -1.0012 -1.0185  0.9792
  942MOL0     H27108   3.659   5.355   8.092  0.7296 -0.9205 -0.2162
  942MOL0     H27109   3.700   5.221   8.294  1.1683  0.1297  0.0402
  942MOL0     H27110   3.711   5.362   8.398  3.4756  0.3949 -1.8666
  942MOL0     H27111   3.467   5.280   8.226  1.1878  0.0293  0.2241
  942MOL0     H27112   3.487   5.257   8.404  0.0638  0.8934  2.0575
  942MOL0     H27113   3.510   5.511   8.419 -1.8335 -0.3223  0.6137
  942MOL0     H27114   3.462   5.518   8.251  0.1599  0.7167 -0.0116
  942MOL0     H27115   3.279   5.553   8.386  2.0062  0.6680  2.5929
  942MOL0     H27116   3.254   5.381   8.338 -1.5455 -0.3537  0.2373
  942MOL0     H27117   3.377   5.328   8.564  2.1916  1.9159 -1.1437
  942MOL0     H27118   3.353   5.499   8.605 -0.6458  0.7874  0.1454
  942MOL0     H27119   3.164   5.352   8.691  4.0220 -2.1572 -0.2705
  942MOL0     H27120   3.126   5.307   8.529 -0.9091 -0.2534  1.0870
  942MOL0     H27121   2.935   5.453   8.420 -2.2628  1.1329  0.6218
  942MOL0     H27122   2.729   5.651   8.457 -0.5112  1.6260  2.8151
  942MOL0     H27123   2.785   5.802   8.504 -1.8947  0.7207 -1.5336
  942MOL0     H27124   2.915   5.838   8.285  0.5971  0.6790  1.0078
  942MOL0     H27125   2.739   5.811   8.261  1.2706  0.1310 -1.7038
  942MOL0     H27126   2.787   5.572   8.201  1.7801 -0.7558  1.6279
  942MOL0     H27127   2.959   5.611   8.213  2.3083  0.0171 -3.4934
  942MOL0     H27128   2.927   5.790   8.047  0.4873 -0.1204 -0.2105
  942MOL0     H27129   2.749   5.728   8.033  0.3102  0.1481 -0.2121
  942MOL0     H27130   2.879   5.366   7.951  0.2323  0.3876 -1.1734
  942MOL0     H27131   3.100   5.105   8.021 -0.0365 -1.2646 -1.4782
  942MOL0     H27132   2.953   5.155   7.944 -0.2222  0.7462  1.2006
  942MOL0     H27133   3.106   5.135   7.853 -0.4001  1.6122 -0.7037
  942MOL0     H27134   3.477   5.052   8.183 -1.3096 -0.3749 -0.5321
  942MOL0     H27135   3.654   4.892   8.160 -3.2608  2.7721  1.2902
  942MOL0     H27136   3.709   4.661   7.838  0.7110  0.0360 -2.7290
  942MOL0     H27137   3.805   4.772   7.760 -1.8853 -0.9754 -0.7980
  942MOL0     H27138   3.902   4.590   7.987 -4.1771 -1.7523 -0.0113
  942MOL0     H27139   3.891   4.529   7.834 -2.6808 -1.5701  3.0422
  942MOL0     H27140   4.119   4.644   7.912  0.0851 -0.8095 -0.0401
  942MOL0     H27141   4.036   4.783   7.830  3.0759 -0.7949 -2.0741
  942MOL0     H27142   3.995   4.641   7.630 -0.0859 -2.2850  0.2269
  942MOL0     H27143   4.150   4.725   7.679 -1.1775  0.7666  0.7740
  942MOL0     H27144   4.180   4.486   7.582  0.5153 -1.2384 -0.1112
  942MOL0     H27145   4.097   4.418   7.722 -2.8584  2.2217  0.4491
  942MOL0     H27146   4.332   4.599   7.721  0.0931  0.1109  1.4986
  942MOL0     H27147   4.279   4.490   7.855 -0.2027 -0.1955 -0.7997
  942MOL0     H27148   4.384   4.410   7.586  1.1761  1.6106 -0.0662
  942MOL0     H27149   4.317   4.295   7.701 -0.3253  0.0933 -1.4501
  942MOL0     H27150   4.492   4.385   7.874 -0.9686  0.3201  0.0489
  942MOL0     H27151   4.569   4.460   7.730 -0.8173  1.3049  2.5232
  942MOL0     H27152   3.670   4.928   7.738 -0.0936 -2.6684  0.7538
  942MOL0     H27153   3.441   5.091   7.763  0.5241  1.2888 -0.2890
  942MOL0     H27154   3.341   5.544   8.023  0.9621 -1.7042 -0.8022
  942MOL0     H27155   3.152   5.699   8.011  2.0036 -0.3845  1.0707
  942MOL0     H27156   4.108   5.417   8.155  2.7119  0.9773 -1.1136
  942MOL0     H27157   4.339   5.353   8.112 -1.7764  1.9350 -3.0680
  942MOL0     H27158   4.679   5.020   8.090 -1.1613 -0.5195 -0.9016
  942MOL0     H27159   4.921   5.030   8.087  1.2060 -1.2633 -1.5732
  942MOL0     H27160   5.224   5.246   7.915 -0.1916 -1.3468 -0.8820
  942MOL0     H27161   5.124   5.258   8.061  2.5885 -0.2269  2.0331
  942MOL0     H27162   5.178   5.019   8.126  1.3955 -2.3129 -0.8926
  942MOL0     H27163   5.326   5.115   8.097  0.3079 -0.3772 -0.6502
  942MOL0     H27164   5.369   5.017   7.896  1.0771  0.0272  1.6713
  942MOL0     H27165   5.208   4.929   7.908 -0.0064 -0.4134 -0.3647
  942MOL0     H27166   5.367   4.777   7.942  0.1659  0.1833 -1.1994
  942MOL0     H27167   5.284   4.809   8.088 -0.2577 -0.1388 -0.1317
  942MOL0     H27168   5.712   4.832   8.137  0.4667  0.8221  1.1357
  942MOL0     H27169   4.904   5.294   7.744 -1.2702 -1.6641 -1.3288
  942MOL0     H27170   4.671   5.347   7.798  1.3454 -1.7047 -2.7089
  943MOL0     O27171   1.800   8.527   5.974  0.3626  0.4166 -0.5739
  943MOL0     C27172   1.847   8.581   5.878  0.8048 -0.3413  0.6254
  943MOL0     O27173   1.777   8.622   5.763 -0.3436 -0.3708 -0.6034
  943MOL0     C27174   1.644   8.602   5.774  0.2630 -0.6400 -0.0510
  943MOL0     C27175   1.560   8.716   5.785 -0.2065 -0.3116 -0.0173
  943MOL0     C27176   1.423   8.702   5.779  0.0494 -0.2412 -0.1052
  943MOL0     C27177   1.368   8.576   5.783  0.3077  0.0337  0.9973
  943MOL0     O27178   1.234   8.547   5.779  0.5769 -0.1876  0.4879
  943MOL0     C27179   1.142   8.650   5.728 -0.3029  0.7427 -0.1342
  943MOL0     C27180   1.007   8.590   5.691 -0.0736  0.1216 -0.6394
  943MOL0     C27181   0.911   8.691   5.624 -0.3851  0.3733 -0.3307
  943MOL0     C27182   0.775   8.630   5.568  0.5618  0.3688 -0.1802
  943MOL0     C27183   0.676   8.746   5.526  0.5321  0.2558 -0.4657
  943MOL0     C27184   0.540   8.702   5.485 -0.1820 -0.1286 -0.2251
  943MOL0     C27185   0.442   8.815   5.453  0.0442 -1.0456  0.0126
  943MOL0     C27186   0.482   8.906   5.339 -0.6274  0.4348 -0.2400
  943MOL0     N27187   0.386   9.003   5.291 -0.7428  0.2683 -0.0721
  943MOL0     C27188   0.263   8.976   5.239 -0.5485 -0.1125 -1.1937
  943MOL0     C27189   0.202   9.097   5.227 -0.1701  0.2224  0.3103
  943MOL0     C27190   0.067   9.110   5.172  0.3230 -0.1435 -0.1690
  943MOL0     C27191  -0.043   9.133   5.267 -0.5694 -0.5865  1.0431
  943MOL0     C27192  -0.065   9.007   5.344  0.3467 -0.5288  0.1655
  943MOL0     C27193  -0.184   9.022   5.441 -0.3663 -0.6345 -0.5140
  943MOL0     O27194  -0.298   8.998   5.366  0.0515 -0.1600  0.1025
  943MOL0     C27195  -0.422   9.004   5.419 -0.3444 -0.4941 -0.4023
  943MOL0     C27196  -0.454   8.948   5.550  0.3430 -0.0817  0.3819
  943MOL0     C27197  -0.588   8.942   5.597 -0.2801  0.3960  0.7235
  943MOL0     C27198  -0.606   8.894   5.744  0.2031 -0.4501 -0.4663
  943MOL0     C27199  -0.694   8.984   5.506  0.5485  0.1911 -0.2869
  943MOL0     C27200  -0.841   8.982   5.547 -1.1582  0.2315 -0.1167
  943MOL0     O27201  -0.921   9.053   5.477 -0.1572 -0.9775 -0.3067
  943MOL0     C27202  -1.058   9.065   5.493  0.0561 -0.4859 -0.5424
  943MOL0     C27203  -1.121   9.051   5.614  0.4678  0.2141 -0.5950
  943MOL0     C27204  -1.259   9.054   5.631  0.3756  0.5804  0.8190
  943MOL0     C27205  -1.336   9.094   5.524 -0.4227 -0.1391  0.9332
  943MOL0     O27206  -1.468   9.118   5.528 -0.9814 -0.5880  0.2928
  943MOL0     C27207  -1.543   9.020   5.600 -0.3879  0.1387 -0.0231
  943MOL0     C27208  -1.573   9.061   5.744 -1.6114 -0.0332  1.0288
  943MOL0     C27209  -1.702   9.149   5.746 -0.2992 -0.0922 -0.6837
  943MOL0     C27210  -1.822   9.065   5.776  0.0214 -0.7462 -0.2363
  943MOL0     C27211  -1.947   9.158   5.784  0.1889  0.3368  0.3277
  943MOL0     C27212  -2.079   9.079   5.785 -0.2837 -1.0657 -0.2598
  943MOL0     C27213  -2.187   9.163   5.859 -0.5307 -0.4086 -0.3749
  943MOL0     C27214  -2.328   9.112   5.846  0.7378  0.3778 -0.3217
  943MOL0    Cl27215  -2.450   9.187   5.956 -0.2988  0.0695  0.2940
  943MOL0     C27216  -1.281   9.128   5.403  0.3373  0.5999 -0.2629
  943MOL0     C27217  -1.141   9.107   5.384 -1.1146 -0.4408  0.2488
  943MOL0     O27218  -0.876   8.896   5.630  0.4116 -0.3505  1.1367
  943MOL0     C27219  -0.659   9.034   5.378  0.2411  0.0775  0.3657
  943MOL0     C27220  -0.527   9.055   5.338  0.6665  0.5795 -0.2277
  943MOL0     N27221   0.287   9.192   5.280  0.3500  0.3583  0.7834
  943MOL0     N27222   0.394   9.135   5.320  0.8068  0.6947  0.4490
  943MOL0     C27223   1.447   8.464   5.774 -0.0611 -0.1760 -0.2067
  943MOL0     C27224   1.585   8.476   5.768  0.1928 -0.4774  0.5182
  943MOL0     C27225   1.995   8.611   5.878  0.0490 -0.5673 -0.3842
  943MOL0     C27226   2.061   8.661   5.760 -0.3974 -0.0144 -0.8252
  943MOL0     C27227   2.195   8.696   5.760 -0.7550 -0.3194 -0.5350
  943MOL0     C27228   2.276   8.660   5.873  0.0032 -0.1920  0.4486
  943MOL0     O27229   2.402   8.710   5.854 -0.1795 -0.3347 -0.0671
  943MOL0     C27230   2.485   8.684   5.968  0.0861  0.5355 -0.2458
  943MOL0     C27231   2.625   8.733   5.949  0.3919 -0.1110 -0.3339
  943MOL0     C27232   2.709   8.684   6.069  0.6064  0.3597 -1.0056
  943MOL0     C27233   2.848   8.743   6.077  0.5292  0.2259 -0.5908
  943MOL0     C27234   2.931   8.658   6.168 -0.3707 -0.5239 -0.7959
  943MOL0     C27235   3.005   8.597   6.240  0.4209  0.0390 -0.1581
  943MOL0     C27236   2.218   8.595   5.981 -0.4346 -0.6929 -0.1113
  943MOL0     C27237   2.075   8.580   5.987  0.1403 -0.0795  0.3896
  943MOL0     H27238   1.608   8.813   5.790 -0.7722 -0.0957  2.1719
  943MOL0     H27239   1.364   8.792   5.762  2.2883  1.0654 -1.4420
  943MOL0     H27240   1.126   8.733   5.798  1.5451  0.8639  0.1791
  943MOL0     H27241   1.185   8.691   5.636  0.0410  2.0451  0.5757
  943MOL0     H27242   1.035   8.512   5.620 -0.1106 -2.0192  1.5408
  943MOL0     H27243   0.962   8.547   5.781 -0.7921  0.2867 -0.9143
  943MOL0     H27244   0.881   8.761   5.703 -2.0526 -0.0459 -0.5508
  943MOL0     H27245   0.966   8.748   5.549  0.6864  2.0241  1.6118
  943MOL0     H27246   0.795   8.561   5.486 -0.3304 -1.5201  1.1179
  943MOL0     H27247   0.736   8.557   5.639  0.1275  1.7750  1.0775
  943MOL0     H27248   0.659   8.805   5.616 -0.3331 -2.0276  0.9436
  943MOL0     H27249   0.716   8.816   5.451 -3.1017  0.9830 -1.9549
  943MOL0     H27250   0.547   8.636   5.398  1.5563  0.1964 -0.3521
  943MOL0     H27251   0.487   8.638   5.557  2.0339 -2.7229 -0.7260
  943MOL0     H27252   0.341   8.784   5.425 -0.3943  0.2558  0.0835
  943MOL0     H27253   0.423   8.879   5.540  3.1978 -0.2003  0.2074
  943MOL0     H27254   0.512   8.842   5.255  0.0427  0.0279  0.3016
  943MOL0     H27255   0.571   8.961   5.371  0.1528 -1.2436  0.5874
  943MOL0     H27256   0.230   8.875   5.220  0.5110 -0.7664  0.2816
  943MOL0     H27257   0.081   9.208   5.125  3.0349 -0.3476  0.0896
  943MOL0     H27258   0.039   9.031   5.102 -0.6978  0.6115 -0.6424
  943MOL0     H27259  -0.132   9.156   5.207 -0.1840 -4.5422 -1.4132
  943MOL0     H27260  -0.030   9.225   5.325 -0.3776  0.5134 -0.6821
  943MOL0     H27261   0.023   8.992   5.407 -0.4106 -1.0702  1.1189
  943MOL0     H27262  -0.082   8.916   5.286  1.9481 -1.8994  1.7347
  943MOL0     H27263  -0.182   9.117   5.497 -1.2873  0.0147 -1.5303
  943MOL0     H27264  -0.187   8.946   5.519 -1.5116 -0.0417  0.0530
  943MOL0     H27265  -0.370   8.919   5.612 -1.7780 -1.7079  2.6873
  943MOL0     H27266  -0.670   8.806   5.753 -0.9891  0.4616  0.2515
  943MOL0     H27267  -0.511   8.868   5.790 -0.5695 -4.9394 -1.0055
  943MOL0     H27268  -0.654   8.973   5.802 -0.8683 -2.1467  1.0502
  943MOL0     H27269  -1.063   9.033   5.704  0.9094  2.0077 -0.4803
  943MOL0     H27270  -1.302   9.027   5.726  1.5947 -2.0084  0.7331
  943MOL0     H27271  -1.637   8.999   5.549 -0.0220 -0.3953 -0.4902
  943MOL0     H27272  -1.483   8.929   5.601  1.2943  1.1825  2.1334
  943MOL0     H27273  -1.594   8.978   5.813 -0.1207 -0.7218  0.6833
  943MOL0     H27274  -1.489   9.113   5.789 -0.8364 -0.8416  0.5372
  943MOL0     H27275  -1.703   9.221   5.664 -0.1301  0.5608 -0.1224
  943MOL0     H27276  -1.696   9.218   5.831 -4.2960  1.1319 -1.1650
  943MOL0     H27277  -1.833   8.993   5.695  0.1973  1.2469 -2.1243
  943MOL0     H27278  -1.813   9.017   5.874  0.0963  1.6022  0.9698
  943MOL0     H27279  -1.939   9.223   5.697  3.9322 -2.9824 -2.1689
  943MOL0     H27280  -1.940   9.224   5.870  2.1581  2.5141 -1.3870
  943MOL0     H27281  -2.095   9.039   5.685  1.0854 -0.6738 -0.6583
  943MOL0     H27282  -2.060   8.991   5.847  2.1137 -0.4283  0.0137
  943MOL0     H27283  -2.191   9.265   5.820  2.3745 -0.1420 -0.1496
  943MOL0     H27284  -2.170   9.160   5.967  1.3736 -1.7635 -0.6745
  943MOL0     H27285  -2.325   9.006   5.873  0.3756  0.3385 -0.4288
  943MOL0     H27286  -2.362   9.121   5.742 -0.1227 -2.0618 -0.3133
  943MOL0     H27287  -1.351   9.158   5.327 -0.8870 -1.8222 -0.1988
  943MOL0     H27288  -1.093   9.132   5.290  0.6987  1.5920  1.6160
  943MOL0     H27289  -0.744   9.068   5.321 -2.1614  1.3042  4.3008
  943MOL0     H27290  -0.494   9.093   5.241  1.7563 -0.3982 -0.2646
  943MOL0     H27291   1.396   8.371   5.754 -1.3023  0.4273  0.0832
  943MOL0     H27292   1.655   8.395   5.750 -0.4896 -0.4364 -3.2650
  943MOL0     H27293   2.004   8.681   5.670 -0.3235 -2.1660 -1.4097
  943MOL0     H27294   2.230   8.750   5.673  4.6442  2.1808  2.7236
  943MOL0     H27295   2.450   8.743   6.054 -0.2708 -1.0987  0.7802
  943MOL0     H27296   2.495   8.576   5.986 -0.8382  0.2918 -1.1159
  943MOL0     H27297   2.615   8.842   5.943  0.9825  0.4847  4.7112
  943MOL0     H27298   2.676   8.701   5.858 -0.6138  1.0930 -1.3568
  943MOL0     H27299   2.705   8.575   6.063 -0.8332  0.0213  3.0916
  943MOL0     H27300   2.659   8.712   6.162  1.0038 -0.0777 -0.6575
  943MOL0     H27301   2.834   8.842   6.120 -1.0180 -0.4981  0.6702
  943MOL0     H27302   2.891   8.748   5.976 -0.1232 -3.0171 -1.1439
  943MOL0     H27303   3.069   8.539   6.303  0.5236 -0.4286 -0.6857
  943MOL0     H27304   2.272   8.551   6.065 -3.5819 -2.2162  1.2652
  943MOL0     H27305   2.027   8.522   6.065 -1.1667 -0.9003 -0.9767
  944MOL0     O27306  11.116   0.058   8.805 -0.7195  0.1674  0.1172
  944MOL0     C27307  11.242   0.045   8.801 -0.8732  0.5562 -0.6644
  944MOL0     O27308  11.304  -0.026   8.892  0.2499  0.2597  0.5611
  944MOL0     C27309  11.243  -0.074   9.009  0.1778  0.1006 -0.5586
  944MOL0     C27310  11.265  -0.002   9.129  0.2165  0.1055 -0.4152
  944MOL0     C27311  11.180  -0.037   9.242 -0.1697 -0.0335 -0.4814
  944MOL0     C27312  11.087  -0.140   9.239 -0.3885  0.7293 -1.4500
  944MOL0     O27313  11.027  -0.160   9.358  0.0841 -0.3810  0.0770
  944MOL0     C27314  10.921  -0.252   9.361  0.2380 -0.0464 -0.0159
  944MOL0     C27315  10.788  -0.172   9.386 -0.0373  0.8524  0.3959
  944MOL0     C27316  10.669  -0.262   9.381  0.2364  0.2502 -0.0591
  944MOL0     C27317  10.543  -0.181   9.385  0.7345  0.7320  0.0565
  944MOL0     C27318  10.416  -0.260   9.425  0.1190  0.3801 -0.8351
  944MOL0     C27319  10.293  -0.163   9.447 -1.1482  0.1405 -0.8957
  944MOL0     C27320  10.156  -0.237   9.450  0.5698 -0.0988  0.1388
  944MOL0     C27321  10.153  -0.331   9.566  0.3734 -0.6129 -0.0006
  944MOL0     N27322  10.019  -0.372   9.594 -1.3104 -0.6165  0.0448
  944MOL0     C27323   9.934  -0.285   9.657  0.3546  0.1013 -0.0367
  944MOL0     C27324   9.824  -0.366   9.684 -0.2192 -0.1883 -0.0741
  944MOL0     C27325   9.698  -0.319   9.740  0.5989 -0.2854 -0.1264
  944MOL0     C27326   9.584  -0.348   9.652 -0.9034 -0.3425  0.5651
  944MOL0     C27327   9.451  -0.316   9.727  0.4652 -0.6491 -0.2721
  944MOL0     C27328   9.340  -0.385   9.650 -0.1690 -0.5524 -0.8515
  944MOL0     O27329   9.214  -0.334   9.695 -0.2801 -0.2893 -0.1413
  944MOL0     C27330   9.139  -0.400   9.793  0.4607 -0.6464  0.5590
  944MOL0     C27331   8.999  -0.377   9.795 -0.1718  0.2264 -0.2867
  944MOL0     C27332   8.918  -0.416   9.902 -0.0089  0.2044  0.2048
  944MOL0     C27333   8.766  -0.396   9.885 -0.7386  0.2248  0.3318
  944MOL0     C27334   8.979  -0.494  10.006 -0.2836  0.4633  0.0176
  944MOL0     C27335   8.911  -0.543  10.135 -1.0664 -0.9552 -0.5231
  944MOL0     O27336   8.770  -0.524  10.127 -0.2262 -0.0668  0.2292
  944MOL0     C27337   8.687  -0.605  10.196  0.4766 -0.1405 -0.0051
  944MOL0     C27338   8.715  -0.660  10.327 -0.5496 -0.2630  0.0522
  944MOL0     C27339   8.618  -0.721  10.402  0.3317  0.4491 -0.2699
  944MOL0     C27340   8.487  -0.743  10.351 -1.2353  0.6118 -0.4573
  944MOL0     O27341   8.386  -0.814  10.410  0.2990 -0.0876 -0.4915
  944MOL0     C27342   8.400  -0.839  10.554  0.1784  0.0468 -0.6737
  944MOL0     C27343   8.268  -0.917  10.601  0.5239 -0.2363 -0.4615
  944MOL0     C27344   8.147  -0.822  10.598 -0.0027  0.7041  0.9030
  944MOL0     C27345   8.132  -0.720  10.716 -0.9534 -0.3545  0.1218
  944MOL0     C27346   7.997  -0.662  10.716  0.2299 -0.0310 -1.0297
  944MOL0     C27347   7.973  -0.560  10.824 -0.4159  1.1238 -1.2145
  944MOL0     C27348   7.827  -0.523  10.822  0.2372  0.3502  0.4133
  944MOL0     C27349   7.791  -0.419  10.934  0.3307  0.5962  0.7272
  944MOL0    Cl27350   7.858  -0.255  10.919 -0.0559  0.4809  0.2393
  944MOL0     C27351   8.465  -0.682  10.228  0.8068  0.2605 -0.0225
  944MOL0     C27352   8.559  -0.612  10.156 -0.6483  0.4080  0.5125
  944MOL0     O27353   8.973  -0.590  10.229  0.0215 -0.1020  0.5333
  944MOL0     C27354   9.114  -0.530   9.991 -0.4017  1.1096 -0.4124
  944MOL0     C27355   9.191  -0.488   9.887  0.4517  0.5052 -0.2743
  944MOL0     N27356   9.862  -0.496   9.654  0.7446  0.2469  1.3046
  944MOL0     N27357   9.974  -0.499   9.595 -0.4867 -0.4484  0.6361
  944MOL0     C27358  11.062  -0.210   9.116 -0.0144  0.3177 -0.1782
  944MOL0     C27359  11.145  -0.185   9.011 -0.6394 -0.4602 -0.2531
  944MOL0     C27360  11.326   0.094   8.685  0.0274 -0.9366 -0.4650
  944MOL0     C27361  11.465   0.081   8.694 -0.6398 -0.0003  0.5977
  944MOL0     C27362  11.548   0.149   8.603 -0.5789  0.5957 -0.5013
  944MOL0     C27363  11.488   0.211   8.488 -0.7480  0.8564 -0.4182
  944MOL0     O27364  11.558   0.271   8.386 -0.3440  0.2508  0.5315
  944MOL0     C27365  11.697   0.275   8.406  0.3240  0.3708  0.4841
  944MOL0     C27366  11.769   0.354   8.298  0.3538  0.1880  0.1850
  944MOL0     C27367  11.921   0.328   8.290 -0.4242  0.0835 -0.3617
  944MOL0     C27368  11.994   0.393   8.399  0.3897 -0.3703  0.4376
  944MOL0     C27369  11.985   0.543   8.386 -0.0392  0.7373  0.4829
  944MOL0     C27370  11.989   0.663   8.395  0.3261  0.0636 -0.1790
  944MOL0     C27371  11.346   0.222   8.484  0.2620 -0.6793 -0.8272
  944MOL0     C27372  11.265   0.169   8.589  0.1513  0.1522  0.7677
  944MOL0     H27373  11.338   0.078   9.134  3.1455 -2.0381 -3.8011
  944MOL0     H27374  11.209   0.011   9.335  1.7841 -1.7844 -0.1009
  944MOL0     H27375  10.909  -0.320   9.277 -2.1934 -0.9361  0.9765
  944MOL0     H27376  10.942  -0.314   9.449 -0.5157  2.4458  2.0515
  944MOL0     H27377  10.797  -0.119   9.481 -1.3388  1.3237  0.2804
  944MOL0     H27378  10.800  -0.096   9.307  2.7814 -0.3457 -0.4772
  944MOL0     H27379  10.661  -0.310   9.283  1.8675 -0.3877  0.0852
  944MOL0     H27380  10.670  -0.346   9.451 -1.6489  1.7782  1.9455
  944MOL0     H27381  10.553  -0.099   9.457  0.9770 -0.9397  1.9936
  944MOL0     H27382  10.537  -0.125   9.291 -0.0661  1.9772  0.8219
  944MOL0     H27383  10.397  -0.348   9.364  0.6017 -0.7989  0.6319
  944MOL0     H27384  10.427  -0.313   9.521 -1.6865  0.3921 -0.6005
  944MOL0     H27385  10.304  -0.111   9.543  0.8566 -0.1506 -0.9258
  944MOL0     H27386  10.289  -0.091   9.365  1.9771  2.6611  0.9510
  944MOL0     H27387  10.070  -0.170   9.449 -0.9336 -1.9630 -0.3876
  944MOL0     H27388  10.148  -0.296   9.359  0.3925 -1.6459  1.1134
  944MOL0     H27389  10.189  -0.278   9.655 -0.1237  1.4373 -0.9582
  944MOL0     H27390  10.213  -0.422   9.552  0.3860 -1.0558  2.4330
  944MOL0     H27391   9.948  -0.185   9.696 -0.7048  0.6197 -0.9089
  944MOL0     H27392   9.681  -0.372   9.834  0.6457 -1.8088 -0.9526
  944MOL0     H27393   9.709  -0.212   9.759  1.3794 -0.3796 -0.0283
  944MOL0     H27394   9.589  -0.454   9.623  3.3433 -0.2365  0.2455
  944MOL0     H27395   9.593  -0.285   9.563 -0.8421 -0.7820  0.2569
  944MOL0     H27396   9.443  -0.207   9.719 -0.8194 -0.7602 -0.7292
  944MOL0     H27397   9.455  -0.342   9.833 -2.3336 -1.8261 -0.3534
  944MOL0     H27398   9.354  -0.493   9.662  1.2148 -0.2350  0.6514
  944MOL0     H27399   9.356  -0.359   9.545  2.1396  0.2467 -0.3570
  944MOL0     H27400   8.956  -0.307   9.724  0.7449  0.9531 -0.1382
  944MOL0     H27401   8.751  -0.324   9.804  1.1125  0.9872  0.6116
  944MOL0     H27402   8.715  -0.487   9.851 -1.1852  0.4926  0.2791
  944MOL0     H27403   8.714  -0.357   9.973 -0.1987 -1.2885  1.3696
  944MOL0     H27404   8.818  -0.669  10.363 -0.4045 -2.2058 -0.7303
  944MOL0     H27405   8.640  -0.757  10.502  0.0000  0.6472 -0.1257
  944MOL0     H27406   8.491  -0.895  10.575 -0.3869 -1.1141 -1.2639
  944MOL0     H27407   8.401  -0.746  10.613  0.1011  0.0556 -0.6867
  944MOL0     H27408   8.254  -1.003  10.535 -1.9753  0.5987 -1.1313
  944MOL0     H27409   8.281  -0.955  10.703 -2.6030 -1.1856 -0.3131
  944MOL0     H27410   8.055  -0.880  10.583  0.6487 -0.0608 -0.3484
  944MOL0     H27411   8.156  -0.768  10.504 -1.6021  2.0893  1.4972
  944MOL0     H27412   8.149  -0.766  10.814 -3.4730 -0.9165  0.3599
  944MOL0     H27413   8.197  -0.633  10.702 -1.5323 -0.0041 -0.4268
  944MOL0     H27414   7.925  -0.740  10.742 -1.3624  1.2920 -1.2702
  944MOL0     H27415   7.962  -0.623  10.619  0.9877  2.7857 -0.2622
  944MOL0     H27416   7.996  -0.605  10.921 -0.9048 -1.1555 -2.0785
  944MOL0     H27417   8.046  -0.479  10.813 -1.3110  1.9319 -1.2484
  944MOL0     H27418   7.774  -0.616  10.845  0.1285  0.2779 -0.1144
  944MOL0     H27419   7.791  -0.490  10.724 -1.7315 -0.3871  0.8545
  944MOL0     H27420   7.818  -0.453  11.034 -0.2228  0.6134  0.8804
  944MOL0     H27421   7.682  -0.413  10.929  0.2061 -0.5351  1.7113
  944MOL0     H27422   8.365  -0.704  10.192  1.4495 -1.7105 -0.7485
  944MOL0     H27423   8.541  -0.568  10.058  4.4858 -0.8076 -1.3316
  944MOL0     H27424   9.161  -0.583  10.074 -1.1598  1.2161  0.0934
  944MOL0     H27425   9.299  -0.499   9.894  0.5132  1.2518  0.0070
  944MOL0     H27426  10.985  -0.283   9.095  0.8476 -0.0538 -2.2882
  944MOL0     H27427  11.147  -0.237   8.916 -1.3946 -1.3194  0.1894
  944MOL0     H27428  11.508   0.006   8.760 -1.1673 -1.1449 -0.3205
  944MOL0     H27429  11.655   0.132   8.609 -0.3716  1.9042 -0.2492
  944MOL0     H27430  11.715   0.317   8.506  0.7517  1.2945  0.0297
  944MOL0     H27431  11.739   0.174   8.406 -2.1816 -0.7698 -1.0847
  944MOL0     H27432  11.738   0.459   8.302 -1.4322 -0.3162  0.3340
  944MOL0     H27433  11.724   0.336   8.200 -0.5232 -0.0177  0.6119
  944MOL0     H27434  11.950   0.352   8.187  2.4699 -1.0335  0.1204
  944MOL0     H27435  11.926   0.221   8.310  1.3193  0.2583  0.3269
  944MOL0     H27436  12.099   0.363   8.401  0.4928 -0.0427  0.1692
  944MOL0     H27437  11.942   0.371   8.492 -0.9902 -2.2807 -0.7201
  944MOL0     H27438  12.009   0.768   8.393  0.6965  0.0278  0.8976
  944MOL0     H27439  11.310   0.283   8.402  0.7202  1.1489  0.2851
  944MOL0     H27440  11.156   0.175   8.587  0.2426  2.9431 -0.9703
  945MOL0     O27441   4.098   5.003   7.063  0.0506 -0.3830  0.1785
  945MOL0     C27442   4.088   4.981   6.939  0.1954  0.2701  0.7308
  945MOL0     O27443   3.972   5.006   6.858 -0.3567  0.4510  0.1619
  945MOL0     C27444   3.858   5.018   6.920  0.2650 -0.0553 -0.5692
  945MOL0     C27445   3.802   4.899   6.963  0.4691 -0.7687 -0.7777
  945MOL0     C27446   3.678   4.908   7.038  0.3349 -0.1440  0.4475
  945MOL0     C27447   3.606   5.023   7.070 -1.2918 -0.4490  0.5746
  945MOL0     O27448   3.484   5.039   7.134 -0.0593 -0.6730  0.2760
  945MOL0     C27449   3.407   4.920   7.144 -0.0235  0.1430 -0.1966
  945MOL0     C27450   3.290   4.942   7.239  0.5344  0.5446 -0.1850
  945MOL0     C27451   3.185   5.049   7.204  0.1291  0.5226  0.1225
  945MOL0     C27452   3.091   5.071   7.312 -0.0091  1.3513 -0.0319
  945MOL0     C27453   2.966   5.147   7.271  0.7520  0.6655 -0.4709
  945MOL0     C27454   2.847   5.133   7.363 -0.2434 -0.3147  0.3259
  945MOL0     C27455   2.727   5.231   7.330 -0.6644 -0.0611  1.1441
  945MOL0     C27456   2.631   5.190   7.216  0.3362  0.0687 -0.2146
  945MOL0     N27457   2.508   5.271   7.214 -0.3221 -0.5723  0.3456
  945MOL0     C27458   2.482   5.396   7.150 -0.0251  0.1738 -1.0836
  945MOL0     C27459   2.347   5.418   7.161  0.1284  0.4545  0.0903
  945MOL0     C27460   2.287   5.545   7.119 -0.8998  0.7875 -0.9531
  945MOL0     C27461   2.144   5.541   7.080 -0.0931 -0.0753  0.8230
  945MOL0     C27462   2.041   5.512   7.189  0.5133 -0.1183 -0.1104
  945MOL0     C27463   1.900   5.536   7.135  0.7616  0.3165 -0.1093
  945MOL0     O27464   1.884   5.448   7.019  0.0854  1.0688  0.1020
  945MOL0     C27465   1.843   5.318   7.041 -0.5756 -0.2553  0.5143
  945MOL0     C27466   1.931   5.224   7.078  0.2646  0.4130 -0.3109
  945MOL0     C27467   1.895   5.091   7.115 -0.8499 -0.4755 -0.2241
  945MOL0     C27468   2.012   5.006   7.153  0.1953 -0.3898  0.1217
  945MOL0     C27469   1.762   5.059   7.091 -0.2525  0.4911 -0.3060
  945MOL0     C27470   1.702   4.929   7.124  0.1417  1.0965 -0.4676
  945MOL0     O27471   1.574   4.906   7.087 -0.3062 -0.0613 -0.6522
  945MOL0     C27472   1.510   4.784   7.111 -0.2046  0.1201  1.1305
  945MOL0     C27473   1.579   4.665   7.085 -0.6009 -0.7964 -0.1862
  945MOL0     C27474   1.516   4.538   7.102 -0.3641 -0.3143  0.5177
  945MOL0     C27475   1.373   4.535   7.130 -0.9035 -0.2169 -0.2303
  945MOL0     O27476   1.299   4.422   7.119 -0.5818  0.5415  0.1551
  945MOL0     C27477   1.347   4.299   7.170  0.1576  0.1720  0.2863
  945MOL0     C27478   1.237   4.195   7.205  0.1503  0.0153 -0.0985
  945MOL0     C27479   1.151   4.227   7.329 -0.1030 -0.3921 -0.0770
  945MOL0     C27480   1.043   4.126   7.344  0.5601  0.1592  0.0881
  945MOL0     C27481   0.941   4.172   7.449 -0.1075 -0.1131  0.3326
  945MOL0     C27482   0.814   4.082   7.447  0.4172 -0.0732 -0.2593
  945MOL0     C27483   0.710   4.147   7.534  1.1470  0.3682 -0.2226
  945MOL0     C27484   0.567   4.093   7.509  0.1071  0.6771 -0.2507
  945MOL0    Cl27485   0.502   4.124   7.343  0.4260  0.0197 -0.6038
  945MOL0     C27486   1.306   4.651   7.139  0.8160 -0.7294  0.2082
  945MOL0     C27487   1.379   4.774   7.131 -1.0345 -0.2102 -0.4814
  945MOL0     O27488   1.773   4.851   7.183 -0.1025 -0.0037 -0.3517
  945MOL0     C27489   1.673   5.151   7.038 -0.6077 -0.6336  1.0772
  945MOL0     C27490   1.709   5.284   7.025  1.0212  0.5692 -0.3063
  945MOL0     N27491   2.283   5.310   7.231 -0.4212 -0.5157 -0.2448
  945MOL0     N27492   2.384   5.223   7.252  1.1485 -0.0500  0.5137
  945MOL0     C27493   3.673   5.141   7.012 -0.7334  0.0773 -0.6504
  945MOL0     C27494   3.795   5.140   6.937  1.1979  0.0944  0.9411
  945MOL0     C27495   4.210   4.940   6.874 -0.5980 -0.0072  0.4005
  945MOL0     C27496   4.333   4.944   6.941  0.4860  0.1144 -0.5056
  945MOL0     C27497   4.437   4.873   6.892 -0.2773 -0.3279 -0.2014
  945MOL0     C27498   4.439   4.827   6.760  0.5598 -0.2445  0.1398
  945MOL0     O27499   4.548   4.764   6.694  0.4144  0.0103 -0.0216
  945MOL0     C27500   4.679   4.733   6.762  0.6267 -0.1189 -0.3301
  945MOL0     C27501   4.757   4.664   6.651  0.0479  0.7631  0.4654
  945MOL0     C27502   4.837   4.548   6.709  0.5565  0.0370  0.4520
  945MOL0     C27503   4.950   4.509   6.608  0.2028 -0.1782 -0.8856
  945MOL0     C27504   5.051   4.423   6.667 -0.0518 -0.5327  0.4275
  945MOL0     C27505   5.143   4.354   6.704  0.8557  0.2628 -0.7506
  945MOL0     C27506   4.329   4.841   6.681  0.2915  0.4841  0.7620
  945MOL0     C27507   4.209   4.892   6.740 -0.1296  0.0466 -0.1732
  945MOL0     H27508   3.857   4.806   6.952  1.5904 -0.2507  0.2530
  945MOL0     H27509   3.647   4.814   7.081 -2.0651  0.5244  0.3142
  945MOL0     H27510   3.370   4.882   7.048 -1.6234  2.1968 -0.4703
  945MOL0     H27511   3.463   4.843   7.198 -1.6458 -0.0039  1.3692
  945MOL0     H27512   3.234   4.850   7.257 -2.6457  2.7624  2.3737
  945MOL0     H27513   3.335   4.984   7.329 -0.4882 -0.4402  0.8172
  945MOL0     H27514   3.239   5.140   7.174  0.2110  0.3302 -0.3218
  945MOL0     H27515   3.132   5.019   7.114  0.6432 -0.5543  0.1630
  945MOL0     H27516   3.055   4.978   7.357  1.3954  1.0611  0.5358
  945MOL0     H27517   3.152   5.122   7.387 -0.5707 -0.4414  1.7415
  945MOL0     H27518   3.000   5.250   7.261  3.2311  0.0553  0.9464
  945MOL0     H27519   2.934   5.105   7.175  0.6767  2.8839 -1.4719
  945MOL0     H27520   2.809   5.031   7.369 -1.5101  0.0413 -1.0023
  945MOL0     H27521   2.895   5.170   7.454  0.6850  1.6636 -0.9060
  945MOL0     H27522   2.662   5.246   7.417 -0.5988 -0.6236  1.2996
  945MOL0     H27523   2.765   5.332   7.317 -0.4451 -0.3708 -1.0428
  945MOL0     H27524   2.596   5.088   7.231 -0.0124  0.3471  0.9692
  945MOL0     H27525   2.675   5.198   7.116 -0.4883 -1.1602 -0.6945
  945MOL0     H27526   2.556   5.466   7.111 -0.9718  0.4003 -2.5061
  945MOL0     H27527   2.298   5.603   7.211  0.4820 -0.9008  0.0045
  945MOL0     H27528   2.356   5.583   7.043  0.9598 -1.6852 -0.6085
  945MOL0     H27529   2.136   5.483   6.987  0.2477  1.1683 -0.0043
  945MOL0     H27530   2.125   5.646   7.057 -0.7251  0.0212  1.7781
  945MOL0     H27531   2.057   5.570   7.280  3.2363  0.4403 -0.8723
  945MOL0     H27532   2.041   5.410   7.230 -0.5035  0.8563  2.5065
  945MOL0     H27533   1.888   5.642   7.112 -0.4002  0.3476  0.5415
  945MOL0     H27534   1.816   5.523   7.204 -0.3845  3.0942 -0.8369
  945MOL0     H27535   2.036   5.253   7.084  0.8581 -1.5724 -0.2574
  945MOL0     H27536   2.011   4.979   7.259 -0.8836 -3.3005 -0.5410
  945MOL0     H27537   1.999   4.910   7.102  0.3195 -0.0405 -0.5821
  945MOL0     H27538   2.108   5.055   7.133  1.6267 -2.5445  1.3925
  945MOL0     H27539   1.685   4.670   7.063 -0.4177  1.9311  0.8605
  945MOL0     H27540   1.568   4.446   7.077  0.3658  0.5085 -1.1480
  945MOL0     H27541   1.416   4.256   7.097 -1.7926 -2.1483 -0.3113
  945MOL0     H27542   1.403   4.316   7.262 -1.1944  0.3234  1.1144
  945MOL0     H27543   1.173   4.186   7.118 -1.5786 -1.8694  1.2851
  945MOL0     H27544   1.285   4.098   7.218  2.6341  0.6189 -3.4459
  945MOL0     H27545   1.113   4.329   7.317  0.9868  0.1248  0.6492
  945MOL0     H27546   1.216   4.218   7.417  1.8738  1.2181 -1.2733
  945MOL0     H27547   0.993   4.092   7.253 -1.4369 -0.3673  1.3167
  945MOL0     H27548   1.090   4.037   7.386 -1.0395 -0.7054  0.1140
  945MOL0     H27549   0.913   4.278   7.440  0.3929  0.1336  1.5115
  945MOL0     H27550   0.986   4.160   7.548  0.8383 -0.4310 -0.1294
  945MOL0     H27551   0.782   4.060   7.344 -0.8844 -1.3901  0.3923
  945MOL0     H27552   0.838   3.988   7.497  2.5527  2.0771  3.1961
  945MOL0     H27553   0.713   4.254   7.512 -0.1275  0.5763  0.4833
  945MOL0     H27554   0.739   4.138   7.639 -1.0336 -1.4766  0.3133
  945MOL0     H27555   0.498   4.135   7.583  0.0234  1.4780 -0.7763
  945MOL0     H27556   0.565   3.984   7.521 -1.0308  0.4497 -2.1830
  945MOL0     H27557   1.202   4.656   7.170  1.4019  1.0458  2.1306
  945MOL0     H27558   1.334   4.872   7.133  2.6625  1.7188 -2.2083
  945MOL0     H27559   1.571   5.120   7.015  0.1424 -3.5523  1.2803
  945MOL0     H27560   1.630   5.356   7.003 -0.8612 -0.5833  2.1545
  945MOL0     H27561   3.642   5.243   7.033  0.5778  0.4190 -0.2732
  945MOL0     H27562   3.845   5.223   6.889  1.2250 -0.0269  0.7573
  945MOL0     H27563   4.323   4.966   7.046 -0.3074 -0.5077 -0.4424
  945MOL0     H27564   4.523   4.872   6.958 -0.0477 -0.4792 -0.5001
  945MOL0     H27565   4.735   4.822   6.792 -0.4120  0.5035 -0.2059
  945MOL0     H27566   4.656   4.673   6.850  0.0970  0.7401  0.1331
  945MOL0     H27567   4.814   4.740   6.597 -0.9840 -0.5479 -2.7568
  945MOL0     H27568   4.691   4.629   6.570 -1.1054  0.4612  1.5013
  945MOL0     H27569   4.768   4.464   6.718  1.5910 -0.6815  2.1274
  945MOL0     H27570   4.870   4.572   6.810  3.6641 -0.0703 -0.4283
  945MOL0     H27571   4.999   4.603   6.580 -1.5094  1.1338  0.3455
  945MOL0     H27572   4.914   4.457   6.519 -2.1131 -1.3054  0.6194
  945MOL0     H27573   5.221   4.285   6.730 -2.2948 -3.0171  0.9143
  945MOL0     H27574   4.314   4.795   6.583 -0.5705 -0.8864  1.5000
  945MOL0     H27575   4.115   4.909   6.689 -0.6275  2.1253  1.3182
  946MOL0     O27576   0.175   5.138   0.626 -0.2497 -0.1902  0.4725
  946MOL0     C27577   0.268   5.203   0.675 -0.7474  0.0555 -0.5536
  946MOL0     O27578   0.276   5.339   0.707  0.0177  0.1117  0.1823
  946MOL0     C27579   0.163   5.419   0.683  0.4982 -0.6936  0.1896
  946MOL0     C27580   0.133   5.500   0.800 -0.5292  1.3587  0.8788
  946MOL0     C27581   0.021   5.590   0.794  0.3063 -0.1403  0.7268
  946MOL0     C27582  -0.062   5.590   0.676 -0.3796  0.0090 -0.9169
  946MOL0     O27583  -0.169   5.672   0.645  0.1348 -0.7027 -0.3407
  946MOL0     C27584  -0.274   5.687   0.744 -0.8775  0.3293  0.3405
  946MOL0     C27585  -0.405   5.714   0.685  0.2194 -0.5553  0.6357
  946MOL0     C27586  -0.530   5.723   0.786  0.2124  0.0060 -0.3053
  946MOL0     C27587  -0.660   5.705   0.710 -0.2018  0.3998  0.0984
  946MOL0     C27588  -0.777   5.730   0.810  0.2838  0.5222 -0.2883
  946MOL0     C27589  -0.903   5.698   0.721  0.0832 -0.3775  0.4150
  946MOL0     C27590  -1.024   5.723   0.808  0.4003  0.9790 -0.6985
  946MOL0     C27591  -1.147   5.698   0.721 -1.1730 -0.1284 -0.6211
  946MOL0     N27592  -1.271   5.715   0.804  0.1503  0.1080 -0.1819
  946MOL0     C27593  -1.338   5.836   0.822 -0.1144 -0.4411  0.1168
  946MOL0     C27594  -1.413   5.801   0.929 -0.0297  0.0236 -0.1916
  946MOL0     C27595  -1.515   5.892   0.984  0.1201 -0.3472  0.1910
  946MOL0     C27596  -1.656   5.874   0.923 -0.1526  0.0576  0.3433
  946MOL0     C27597  -1.760   5.936   1.016 -0.0163 -0.0894 -0.3552
  946MOL0     C27598  -1.900   5.928   0.955  0.8688 -0.5008  0.3520
  946MOL0     O27599  -1.908   6.061   0.890 -0.0551 -0.2388  0.0647
  946MOL0     C27600  -2.037   6.087   0.856  0.4901 -0.4674  0.5057
  946MOL0     C27601  -2.141   5.991   0.829 -0.3367 -0.3028  0.5880
  946MOL0     C27602  -2.264   6.023   0.777  0.3123 -0.0005  0.0639
  946MOL0     C27603  -2.365   5.915   0.742  0.2710 -0.2633 -0.8044
  946MOL0     C27604  -2.295   6.163   0.750  0.7171  0.8749 -0.5752
  946MOL0     C27605  -2.432   6.208   0.696  0.1031 -0.4951 -0.6839
  946MOL0     O27606  -2.505   6.121   0.622  0.2743 -0.1164  0.3829
  946MOL0     C27607  -2.636   6.141   0.579 -0.1819 -0.5791  0.2680
  946MOL0     C27608  -2.742   6.158   0.675  0.3828 -0.1204 -0.1696
  946MOL0     C27609  -2.875   6.180   0.639  0.6437 -0.5883 -1.0366
  946MOL0     C27610  -2.916   6.184   0.506 -1.4979 -0.4172  0.7124
  946MOL0     O27611  -3.051   6.190   0.492 -0.1430  0.0187 -0.1198
  946MOL0     C27612  -3.094   6.178   0.357 -0.6710 -0.1914 -0.3471
  946MOL0     C27613  -3.236   6.130   0.341 -0.0784  1.0739  0.1632
  946MOL0     C27614  -3.326   6.241   0.347  0.3946  0.2254 -0.5115
  946MOL0     C27615  -3.467   6.193   0.335  1.3126 -0.2987  0.7630
  946MOL0     C27616  -3.575   6.299   0.355 -0.0056 -0.2060 -0.2376
  946MOL0     C27617  -3.597   6.334   0.497 -0.3592 -0.5612 -0.5596
  946MOL0     C27618  -3.737   6.364   0.546 -0.1297  0.6605 -0.1070
  946MOL0     C27619  -3.830   6.248   0.574 -0.1813 -0.0116  0.6292
  946MOL0    Cl27620  -3.877   6.165   0.419 -0.2670  0.2428 -0.2096
  946MOL0     C27621  -2.814   6.170   0.407 -0.5919  0.0767 -0.1094
  946MOL0     C27622  -2.675   6.151   0.441  0.6173 -0.4207 -0.4266
  946MOL0     O27623  -2.468   6.328   0.717  0.0430 -0.0776  0.2196
  946MOL0     C27624  -2.198   6.263   0.783  0.7154  0.5944  0.9063
  946MOL0     C27625  -2.072   6.222   0.836 -0.0139  0.1400  0.1670
  946MOL0     N27626  -1.381   5.675   0.982  0.3244 -0.4378  0.0978
  946MOL0     N27627  -1.298   5.630   0.902  0.0114  0.5460  0.2539
  946MOL0     C27628  -0.031   5.503   0.572 -0.0283 -0.7747 -1.0176
  946MOL0     C27629   0.086   5.426   0.571  0.0853  0.1085 -0.4849
  946MOL0     C27630   0.390   5.136   0.706  0.4236  0.3638 -0.5190
  946MOL0     C27631   0.507   5.214   0.702 -0.5797  0.0461  0.0498
  946MOL0     C27632   0.621   5.153   0.745 -0.4191  0.6647 -0.8972
  946MOL0     C27633   0.621   5.028   0.803 -0.5938  0.0076  0.2620
  946MOL0     O27634   0.735   4.981   0.858 -0.5992  0.3843 -0.8073
  946MOL0     C27635   0.855   5.061   0.861  0.6737 -0.5230  0.1360
  946MOL0     C27636   0.962   4.987   0.943  0.2015 -0.4450 -0.6791
  946MOL0     C27637   0.929   4.978   1.091  0.7881  0.2954 -0.0170
  946MOL0     C27638   0.926   5.114   1.160 -0.3010  0.5468 -0.1347
  946MOL0     C27639   0.921   5.111   1.306  0.6598  1.1402  0.4148
  946MOL0     C27640   0.912   5.114   1.430 -0.1157 -0.3625 -0.7667
  946MOL0     C27641   0.508   4.952   0.802  0.6192 -0.2603 -0.1271
  946MOL0     C27642   0.389   5.003   0.751 -0.6200 -0.4445 -0.7514
  946MOL0     H27643   0.192   5.483   0.889  2.2886  2.3148 -0.6596
  946MOL0     H27644  -0.002   5.656   0.877  1.2346 -0.2902  1.1142
  946MOL0     H27645  -0.275   5.606   0.817  2.6401  0.8113  1.1086
  946MOL0     H27646  -0.241   5.778   0.795  2.0982  0.3487 -1.3443
  946MOL0     H27647  -0.401   5.811   0.636  0.6855 -0.3851  0.9983
  946MOL0     H27648  -0.412   5.627   0.619  4.5500 -1.4744  1.1105
  946MOL0     H27649  -0.514   5.654   0.869 -2.3318  0.6389  0.7818
  946MOL0     H27650  -0.524   5.822   0.832  4.4073  0.0216 -0.4303
  946MOL0     H27651  -0.681   5.775   0.629 -4.2384  0.6091  1.0708
  946MOL0     H27652  -0.659   5.603   0.670 -1.4316  0.3858  0.0515
  946MOL0     H27653  -0.774   5.676   0.905  1.6525  0.8966 -0.0878
  946MOL0     H27654  -0.773   5.836   0.836 -1.3063  0.6357 -0.4317
  946MOL0     H27655  -0.911   5.769   0.638  0.2964  0.6270  1.2236
  946MOL0     H27656  -0.906   5.594   0.687 -4.8501  0.0034 -1.0773
  946MOL0     H27657  -1.025   5.648   0.887 -0.2933  0.0735 -1.5296
  946MOL0     H27658  -1.045   5.822   0.849 -0.9687  0.8733 -1.0629
  946MOL0     H27659  -1.137   5.600   0.674  1.3420  0.6411 -1.8899
  946MOL0     H27660  -1.136   5.766   0.635  0.6122 -2.3320 -2.2442
  946MOL0     H27661  -1.326   5.933   0.776 -0.9954 -0.5689 -0.4086
  946MOL0     H27662  -1.514   5.889   1.093  1.7773 -0.3792  0.2081
  946MOL0     H27663  -1.489   5.994   0.957  1.7175 -0.9770 -0.8365
  946MOL0     H27664  -1.674   5.768   0.907 -2.6361  0.6682 -1.5218
  946MOL0     H27665  -1.672   5.913   0.822  2.2945  0.2510 -0.0088
  946MOL0     H27666  -1.730   6.035   1.053  0.8731 -0.4094 -0.2057
  946MOL0     H27667  -1.756   5.867   1.101  0.0738  1.4471  0.9532
  946MOL0     H27668  -1.974   5.923   1.035 -0.8457 -1.2279 -1.1887
  946MOL0     H27669  -1.912   5.838   0.894  0.4871  1.9708 -3.6151
  946MOL0     H27670  -2.118   5.886   0.846 -0.0059 -0.8871 -2.8171
  946MOL0     H27671  -2.321   5.815   0.753  2.3274  0.6495 -0.2855
  946MOL0     H27672  -2.456   5.935   0.799  0.6221  1.5472 -0.8201
  946MOL0     H27673  -2.394   5.919   0.636  1.5995  1.2950 -1.1533
  946MOL0     H27674  -2.715   6.143   0.779 -0.9479 -1.6672 -0.0158
  946MOL0     H27675  -2.955   6.186   0.712 -0.1203 -2.2125 -1.6756
  946MOL0     H27676  -3.081   6.273   0.306  0.3070  1.1030  2.1468
  946MOL0     H27677  -3.033   6.100   0.309 -1.4060 -0.2285 -1.2331
  946MOL0     H27678  -3.239   6.068   0.251  1.4069 -1.9368  2.0087
  946MOL0     H27679  -3.255   6.060   0.423 -0.1178  0.1516 -0.6149
  946MOL0     H27680  -3.286   6.319   0.282  0.0780  0.8881  0.0877
  946MOL0     H27681  -3.325   6.283   0.448  0.1234  0.5460 -0.6394
  946MOL0     H27682  -3.471   6.146   0.236  2.4731 -0.0558  0.5843
  946MOL0     H27683  -3.495   6.105   0.394 -2.3576 -0.1614 -0.5149
  946MOL0     H27684  -3.667   6.251   0.319 -0.5474  0.0133  0.8391
  946MOL0     H27685  -3.547   6.380   0.287 -2.2710 -0.1580 -1.2046
  946MOL0     H27686  -3.543   6.262   0.560  1.9759 -0.7600 -2.6388
  946MOL0     H27687  -3.548   6.432   0.505  0.5547 -1.0023 -0.6275
  946MOL0     H27688  -3.792   6.414   0.467 -1.7906 -1.8560 -0.6717
  946MOL0     H27689  -3.735   6.418   0.641  1.7938  0.2402  0.1430
  946MOL0     H27690  -3.918   6.294   0.622 -0.1552 -0.2431  0.9029
  946MOL0     H27691  -3.786   6.176   0.644  2.6555 -0.6004 -1.5883
  946MOL0     H27692  -2.851   6.151   0.307 -2.4478  1.4594  0.2790
  946MOL0     H27693  -2.593   6.135   0.372 -1.2422 -1.3661 -2.5659
  946MOL0     H27694  -2.231   6.366   0.782  0.7434  0.6188  1.7417
  946MOL0     H27695  -1.999   6.303   0.841 -0.2736  0.5089 -1.5669
  946MOL0     H27696  -0.106   5.501   0.494 -1.3682  2.1994  0.0460
  946MOL0     H27697   0.121   5.377   0.480  1.4438 -0.6922  0.4336
  946MOL0     H27698   0.503   5.316   0.667 -3.2495 -0.3970 -1.1681
  946MOL0     H27699   0.708   5.216   0.730  0.3163  0.4969  2.0526
  946MOL0     H27700   0.887   5.087   0.760  2.4087 -0.2417  0.7239
  946MOL0     H27701   0.823   5.153   0.910 -0.2200 -1.9945  2.4823
  946MOL0     H27702   1.057   5.037   0.920 -0.2378 -0.5054 -2.9102
  946MOL0     H27703   0.955   4.884   0.905 -1.0495 -0.4734 -0.4082
  946MOL0     H27704   1.011   4.925   1.140  0.8740 -1.1932 -1.6911
  946MOL0     H27705   0.838   4.917   1.096  1.3971 -0.9522 -2.5639
  946MOL0     H27706   0.835   5.169   1.133 -0.1534 -0.1048 -2.1287
  946MOL0     H27707   1.015   5.169   1.127  2.5749 -3.3110  0.5088
  946MOL0     H27708   0.918   5.135   1.535 -1.2681  0.8049 -0.9063
  946MOL0     H27709   0.495   4.851   0.839 -0.7331 -0.3388 -0.7670
  946MOL0     H27710   0.311   4.929   0.767  0.6973 -1.8653 -0.6471
  947MOL0     O27711   6.663   0.541   2.232 -0.3129  0.1303 -0.1648
  947MOL0     C27712   6.694   0.446   2.299 -0.0538 -0.7589  0.0177
  947MOL0     O27713   6.600   0.363   2.354  0.1538 -0.5430  0.0917
  947MOL0     C27714   6.474   0.406   2.379 -0.5215  0.2966 -0.3038
  947MOL0     C27715   6.373   0.314   2.350 -0.3815 -0.2517 -0.1904
  947MOL0     C27716   6.239   0.354   2.378 -0.9162 -0.2074  0.0852
  947MOL0     C27717   6.205   0.474   2.436 -0.0409 -0.4198 -0.4707
  947MOL0     O27718   6.067   0.497   2.447  0.1893 -0.1212  0.2383
  947MOL0     C27719   6.029   0.635   2.420 -0.5466  0.4895 -0.8738
  947MOL0     C27720   5.879   0.633   2.381  0.0422 -0.2558 -0.6756
  947MOL0     C27721   5.817   0.777   2.353  0.4148  0.3679  0.0409
  947MOL0     C27722   5.670   0.770   2.293  0.4415 -0.0934  0.1723
  947MOL0     C27723   5.597   0.904   2.302 -0.0612 -0.2657 -0.4186
  947MOL0     C27724   5.472   0.921   2.224  0.2000  0.0256  0.3482
  947MOL0     C27725   5.404   1.054   2.256 -0.0121 -1.1326 -0.8640
  947MOL0     C27726   5.288   1.070   2.156  0.2069  0.3502  0.0309
  947MOL0     N27727   5.205   1.186   2.196  0.6075  0.5179 -0.0045
  947MOL0     C27728   5.249   1.318   2.192  0.1081  0.2992 -0.4373
  947MOL0     C27729   5.136   1.389   2.218 -0.7043 -0.2839  0.1777
  947MOL0     C27730   5.116   1.541   2.209  0.6739 -0.6258 -0.0826
  947MOL0     C27731   5.024   1.602   2.324 -0.4672  0.2386  0.2983
  947MOL0     C27732   4.876   1.577   2.287  1.5759 -0.6618 -0.0531
  947MOL0     C27733   4.782   1.663   2.370 -0.1691 -0.0537 -0.2101
  947MOL0     O27734   4.648   1.648   2.330  0.2637 -0.6918 -0.3902
  947MOL0     C27735   4.558   1.744   2.366  0.5229  0.6596 -0.3459
  947MOL0     C27736   4.576   1.841   2.456 -0.1744 -0.0067  0.5923
  947MOL0     C27737   4.485   1.937   2.490  0.4872 -0.2939  0.4112
  947MOL0     C27738   4.514   2.032   2.597 -0.6709  0.4152  0.5811
  947MOL0     C27739   4.357   1.936   2.429 -0.5431 -0.0096  0.4305
  947MOL0     C27740   4.243   2.027   2.462 -0.9131 -0.7900  0.0905
  947MOL0     O27741   4.128   1.966   2.441 -0.3364 -1.1701  0.3440
  947MOL0     C27742   4.025   2.023   2.509  0.1388 -0.1458  0.3255
  947MOL0     C27743   4.023   2.057   2.640  0.0308  0.0893  0.6413
  947MOL0     C27744   3.905   2.093   2.700 -0.5114 -0.0365  1.0317
  947MOL0     C27745   3.789   2.109   2.630 -0.8828  1.1978  0.8092
  947MOL0     O27746   3.677   2.155   2.700  0.8430 -0.3327  0.8691
  947MOL0     C27747   3.639   2.087   2.820  0.0390  0.3163 -0.0021
  947MOL0     C27748   3.540   1.977   2.786 -0.4224  0.6288  0.4094
  947MOL0     C27749   3.408   2.037   2.727  0.0566 -0.2784 -0.3470
  947MOL0     C27750   3.332   1.926   2.659 -0.1293 -0.1635  0.0241
  947MOL0     C27751   3.189   1.967   2.635  0.5959 -1.1315 -0.0330
  947MOL0     C27752   3.116   1.852   2.561  0.6242 -0.0356 -0.2494
  947MOL0     C27753   2.985   1.908   2.495 -0.4833  0.3627 -0.1707
  947MOL0     C27754   2.888   1.980   2.588 -0.6139  0.4049  0.5641
  947MOL0    Cl27755   2.785   1.880   2.695  0.1384 -0.1348  0.1754
  947MOL0     C27756   3.791   2.087   2.489  0.0819  0.3051 -0.0581
  947MOL0     C27757   3.910   2.047   2.425 -0.2473  0.1568 -0.6043
  947MOL0     O27758   4.266   2.147   2.488 -0.0619 -0.5207  0.5007
  947MOL0     C27759   4.334   1.839   2.331  0.0653  0.0588  0.3172
  947MOL0     C27760   4.435   1.742   2.302  0.5847  0.7432 -0.0058
  947MOL0     N27761   5.028   1.308   2.227 -0.0473  0.8250  0.2899
  947MOL0     N27762   5.069   1.182   2.226 -0.3208  0.6630  1.2737
  947MOL0     C27763   6.310   0.571   2.461  0.3610  1.1739 -0.2607
  947MOL0     C27764   6.441   0.532   2.439 -0.9862 -0.0008 -0.1287
  947MOL0     C27765   6.836   0.415   2.314  0.3625 -0.7665 -0.5803
  947MOL0     C27766   6.937   0.493   2.267  0.7344  0.0072  0.4930
  947MOL0     C27767   7.070   0.460   2.302  0.3163 -0.0334  0.6480
  947MOL0     C27768   7.102   0.346   2.370  0.0991  0.1722  0.2866
  947MOL0     O27769   7.230   0.327   2.393 -0.4185  0.9507  0.7810
  947MOL0     C27770   7.291   0.259   2.500 -0.0452 -0.0650  1.2140
  947MOL0     C27771   7.319   0.356   2.616  0.1169  1.0023  0.8858
  947MOL0     C27772   7.203   0.388   2.719  0.1121  0.9937  0.0287
  947MOL0     C27773   7.196   0.286   2.841 -0.6001 -0.8681  0.5222
  947MOL0     C27774   7.127   0.164   2.797  0.1762 -1.9413 -0.6519
  947MOL0     C27775   7.061   0.070   2.774  0.0015  0.2394  0.4417
  947MOL0     C27776   7.003   0.260   2.411  0.0881 -0.6421  0.2862
  947MOL0     C27777   6.864   0.301   2.385  0.1598  0.5246 -0.3120
  947MOL0     H27778   6.390   0.213   2.314  3.0042  0.0277  0.3011
  947MOL0     H27779   6.151   0.301   2.343 -1.0928 -1.1650  1.8463
  947MOL0     H27780   6.038   0.698   2.508  3.0234 -1.0648  0.0720
  947MOL0     H27781   6.086   0.681   2.339  1.2013  3.2462  1.6943
  947MOL0     H27782   5.865   0.564   2.297 -0.9628 -0.7650 -0.1188
  947MOL0     H27783   5.829   0.603   2.474  0.4786  3.0633  0.7726
  947MOL0     H27784   5.819   0.841   2.442 -0.0342 -0.1210  0.4083
  947MOL0     H27785   5.877   0.821   2.273  1.0576  0.0965  0.3646
  947MOL0     H27786   5.681   0.739   2.189  0.0488 -1.8677  0.6280
  947MOL0     H27787   5.599   0.708   2.349  1.5558 -0.3334  1.3681
  947MOL0     H27788   5.576   0.925   2.408 -0.3665  0.4880 -0.6173
  947MOL0     H27789   5.657   0.987   2.264 -2.5602  0.6674 -2.6586
  947MOL0     H27790   5.500   0.906   2.119 -2.1910  0.4295 -0.3991
  947MOL0     H27791   5.402   0.839   2.244 -1.4133  1.8775  2.7843
  947MOL0     H27792   5.370   1.058   2.359  1.9090  2.5654 -0.1830
  947MOL0     H27793   5.476   1.136   2.244 -1.7927  0.3767 -1.8691
  947MOL0     H27794   5.215   0.989   2.164 -1.8902  2.1320  0.2193
  947MOL0     H27795   5.309   1.077   2.049 -1.4087  2.1875 -0.2378
  947MOL0     H27796   5.349   1.356   2.174  0.4171  0.7979  1.9629
  947MOL0     H27797   5.211   1.594   2.201 -0.1816  0.8200 -1.1676
  947MOL0     H27798   5.065   1.561   2.115  1.6457 -0.0792 -0.5043
  947MOL0     H27799   5.041   1.710   2.324 -2.3845  0.6256 -2.3290
  947MOL0     H27800   5.045   1.553   2.420 -0.1151 -1.0452 -0.4123
  947MOL0     H27801   4.858   1.474   2.318  2.4243 -1.1856 -1.2272
  947MOL0     H27802   4.850   1.596   2.182  3.3452  0.5884 -0.3110
  947MOL0     H27803   4.814   1.767   2.356 -0.0464 -0.1653 -0.7944
  947MOL0     H27804   4.799   1.645   2.477 -0.9787 -1.8871 -0.3613
  947MOL0     H27805   4.671   1.855   2.506  0.8740 -2.4792 -0.5222
  947MOL0     H27806   4.606   2.012   2.652  0.2780 -0.5116 -1.2439
  947MOL0     H27807   4.527   2.123   2.538 -2.0523  1.6195  2.0316
  947MOL0     H27808   4.427   2.052   2.661 -2.6622 -1.5612 -1.3017
  947MOL0     H27809   4.115   2.059   2.698  1.1605 -3.5871 -0.7025
  947MOL0     H27810   3.916   2.122   2.804 -2.2853  1.1988  0.9337
  947MOL0     H27811   3.731   2.048   2.864 -1.7360 -0.1201  3.6572
  947MOL0     H27812   3.597   2.151   2.898 -1.0749  0.0004 -0.3252
  947MOL0     H27813   3.596   1.906   2.723 -0.2146  0.4743  0.7642
  947MOL0     H27814   3.526   1.914   2.874  0.0303  2.3175  1.7351
  947MOL0     H27815   3.422   2.122   2.659 -0.8705  0.9631  0.9606
  947MOL0     H27816   3.352   2.080   2.810  2.3163 -0.3634  1.2918
  947MOL0     H27817   3.376   1.897   2.563 -1.1185  1.4834 -0.9863
  947MOL0     H27818   3.336   1.830   2.711  0.3303  0.4001  1.0530
  947MOL0     H27819   3.180   2.060   2.578 -2.0238  0.1972  2.2911
  947MOL0     H27820   3.129   1.980   2.726 -2.9245  0.4542 -2.3390
  947MOL0     H27821   3.176   1.803   2.484 -2.7799  1.2222 -4.0024
  947MOL0     H27822   3.092   1.774   2.635  1.9452  0.3087  0.5812
  947MOL0     H27823   2.929   1.823   2.456 -2.2920  0.9222  1.0561
  947MOL0     H27824   3.011   1.979   2.415  0.5776  0.2816  0.0902
  947MOL0     H27825   2.819   2.036   2.523 -1.1276 -0.5797  0.2372
  947MOL0     H27826   2.935   2.060   2.645  2.3926  0.6776 -2.0442
  947MOL0     H27827   3.698   2.110   2.438  1.5979  0.3132 -3.0147
  947MOL0     H27828   3.919   2.017   2.321 -1.4030 -1.4730 -0.2800
  947MOL0     H27829   4.248   1.823   2.267  1.3380  1.1082 -1.7666
  947MOL0     H27830   4.408   1.670   2.226  0.6826 -0.8171  1.3863
  947MOL0     H27831   6.289   0.664   2.513  0.5452 -0.2009  2.4454
  947MOL0     H27832   6.530   0.580   2.478 -0.1970 -1.9068  0.5480
  947MOL0     H27833   6.915   0.577   2.202  1.6648 -1.9702 -2.6089
  947MOL0     H27834   7.148   0.525   2.264  0.0494  0.8769  1.6267
  947MOL0     H27835   7.241   0.172   2.543  4.2409 -2.4536  1.9482
  947MOL0     H27836   7.385   0.215   2.465  1.2298  3.9911 -1.1131
  947MOL0     H27837   7.367   0.441   2.565  2.8300 -2.2982 -2.6950
  947MOL0     H27838   7.400   0.320   2.679 -1.9449 -1.1661  2.4624
  947MOL0     H27839   7.107   0.414   2.674  0.4693 -1.2378 -2.2307
  947MOL0     H27840   7.245   0.482   2.758  0.1663  0.7454  0.5770
  947MOL0     H27841   7.134   0.326   2.922 -0.3580 -0.4998  0.5316
  947MOL0     H27842   7.294   0.269   2.887 -0.9683 -1.4044  1.1106
  947MOL0     H27843   7.001  -0.019   2.768  0.6030 -0.2875  1.8320
  947MOL0     H27844   7.016   0.169   2.470  0.4464 -1.8725 -1.5890
  947MOL0     H27845   6.787   0.232   2.419  2.7036 -1.7819  1.2147
  948MOL0     O27846   8.822   1.373   6.738 -0.5605  0.1719  0.2599
  948MOL0     C27847   8.828   1.452   6.639 -1.0260  0.7855 -0.8800
  948MOL0     O27848   8.721   1.517   6.581  0.8067  1.1112 -0.0531
  948MOL0     C27849   8.597   1.501   6.638 -0.1347  0.3172 -0.2737
  948MOL0     C27850   8.532   1.616   6.664  0.0651 -0.2555 -0.5841
  948MOL0     C27851   8.406   1.615   6.723  0.2892 -1.1513  0.4658
  948MOL0     C27852   8.340   1.493   6.749 -0.8738  0.9055  0.4631
  948MOL0     O27853   8.205   1.496   6.793  0.0816 -0.6203 -0.7582
  948MOL0     C27854   8.156   1.372   6.841  0.5531 -0.4661  0.5231
  948MOL0     C27855   8.025   1.399   6.910 -0.1735  0.8371 -0.0808
  948MOL0     C27856   7.963   1.261   6.944 -0.0941  0.1796 -1.0672
  948MOL0     C27857   7.870   1.247   7.063  0.4861 -0.0336 -0.2039
  948MOL0     C27858   7.737   1.322   7.043 -0.9828  0.0697 -0.3051
  948MOL0     C27859   7.610   1.246   7.005  0.0676 -0.1235 -0.7185
  948MOL0     C27860   7.563   1.151   7.113  0.1704 -0.5597  0.2644
  948MOL0     C27861   7.416   1.117   7.104  0.5252 -0.6909  0.5285
  948MOL0     N27862   7.323   1.229   7.116  0.3688 -0.0327 -0.1169
  948MOL0     C27863   7.307   1.315   7.230  0.1860 -0.5993 -0.0294
  948MOL0     C27864   7.179   1.364   7.228 -0.0226 -0.4929 -0.9424
  948MOL0     C27865   7.104   1.461   7.321  0.3615  0.8561 -0.1384
  948MOL0     C27866   7.043   1.571   7.229 -0.3102 -0.0494  0.1413
  948MOL0     C27867   6.943   1.656   7.305 -0.1043  0.0389 -0.2704
  948MOL0     C27868   6.894   1.771   7.219 -0.2846 -0.1577 -0.9378
  948MOL0     O27869   6.789   1.731   7.128 -0.1742  0.3581  0.2884
  948MOL0     C27870   6.666   1.774   7.170  0.7981 -0.2623  0.0402
  948MOL0     C27871   6.604   1.747   7.288  0.1781  1.0094 -0.0161
  948MOL0     C27872   6.471   1.783   7.319  0.7087 -0.3324 -0.0431
  948MOL0     C27873   6.433   1.751   7.461  0.1564 -0.5874  0.4593
  948MOL0     C27874   6.398   1.851   7.220  0.1037  0.1040 -0.5641
  948MOL0     C27875   6.257   1.896   7.227 -0.5365 -0.3204  0.5299
  948MOL0     O27876   6.190   1.861   7.332 -1.0887 -0.3569 -0.1056
  948MOL0     C27877   6.050   1.884   7.335 -0.5028 -0.3366  0.1179
  948MOL0     C27878   6.002   2.017   7.331  0.4789 -0.0181  0.0185
  948MOL0     C27879   5.867   2.035   7.339  0.8672 -0.0094  0.5365
  948MOL0     C27880   5.780   1.930   7.354 -0.5635 -0.3053  1.2389
  948MOL0     O27881   5.652   1.963   7.374 -0.1417 -0.5772  0.2480
  948MOL0     C27882   5.567   1.879   7.452 -0.5533 -0.1173 -0.3384
  948MOL0     C27883   5.441   1.952   7.501  0.6965  0.3410 -0.1611
  948MOL0     C27884   5.327   1.968   7.391 -0.0276 -0.0504  0.1341
  948MOL0     C27885   5.194   2.027   7.453  0.3666  0.4213 -0.3131
  948MOL0     C27886   5.104   2.072   7.325 -0.3801 -0.2429 -0.2150
  948MOL0     C27887   4.965   2.124   7.366  0.5094 -0.0199 -0.6884
  948MOL0     C27888   4.972   2.221   7.484  0.3215 -0.3070  0.7378
  948MOL0     C27889   4.850   2.319   7.496 -0.4750  0.1837 -0.2333
  948MOL0    Cl27890   4.702   2.215   7.538  0.8570  0.0289 -0.0333
  948MOL0     C27891   5.832   1.798   7.365  0.6428 -0.2785  0.2451
  948MOL0     C27892   5.968   1.778   7.350 -0.0316  0.3640  0.6090
  948MOL0     O27893   6.210   1.968   7.130  0.0738  0.4390 -0.9105
  948MOL0     C27894   6.466   1.882   7.099  0.4881  0.0378  0.2410
  948MOL0     C27895   6.597   1.847   7.075 -0.4067  0.3560  0.1668
  948MOL0     N27896   7.123   1.305   7.112 -0.0188  0.2608 -0.7122
  948MOL0     N27897   7.209   1.240   7.045  0.8080  0.2823  0.2673
  948MOL0     C27898   8.409   1.373   6.719  0.3959 -0.4378 -0.0041
  948MOL0     C27899   8.533   1.374   6.666 -0.3623  0.0093  0.4721
  948MOL0     C27900   8.960   1.493   6.591  0.1986  0.2531  1.0144
  948MOL0     C27901   8.966   1.607   6.504  0.4698 -0.5903 -0.1244
  948MOL0     C27902   9.089   1.649   6.463 -0.4610 -0.0631 -0.6082
  948MOL0     C27903   9.205   1.576   6.501 -0.6014  0.1434  0.2938
  948MOL0     O27904   9.324   1.636   6.469 -0.7908  0.6741  1.3328
  948MOL0     C27905   9.451   1.564   6.472  0.2671 -1.3329  0.4829
  948MOL0     C27906   9.565   1.642   6.423 -1.1723 -0.0520  0.1781
  948MOL0     C27907   9.549   1.667   6.279 -0.1006  0.3768  0.5945
  948MOL0     C27908   9.676   1.734   6.222  0.6937 -0.3917  1.2653
  948MOL0     C27909   9.680   1.867   6.279 -0.1303 -0.1769 -0.1722
  948MOL0     C27910   9.691   1.980   6.314 -0.0313 -0.2754 -0.1501
  948MOL0     C27911   9.194   1.464   6.579 -1.5015  0.2568 -0.4250
  948MOL0     C27912   9.075   1.429   6.631  0.4854  1.8408 -0.4201
  948MOL0     H27913   8.575   1.715   6.651 -1.3923  0.5625  0.5573
  948MOL0     H27914   8.344   1.699   6.754  1.5659  0.1604 -0.3601
  948MOL0     H27915   8.139   1.310   6.752 -0.7264 -0.2137  0.5815
  948MOL0     H27916   8.230   1.325   6.907  2.9932  2.4867  0.1054
  948MOL0     H27917   8.045   1.455   7.002 -0.7565  0.7956  0.0783
  948MOL0     H27918   7.962   1.460   6.844 -2.1209 -2.3266 -1.3715
  948MOL0     H27919   7.900   1.222   6.863  2.6643 -2.5290 -2.1268
  948MOL0     H27920   8.041   1.184   6.939 -2.5944 -2.5189 -1.1101
  948MOL0     H27921   7.844   1.142   7.080  4.6965 -1.1596  0.2835
  948MOL0     H27922   7.911   1.287   7.156 -0.4595  2.6360 -0.8459
  948MOL0     H27923   7.708   1.370   7.137 -0.3358 -1.5988  0.7891
  948MOL0     H27924   7.748   1.401   6.968 -2.1153  3.0784  2.4332
  948MOL0     H27925   7.532   1.320   6.984  0.5940  0.1422 -1.7931
  948MOL0     H27926   7.623   1.199   6.907 -0.6692 -0.0629 -0.8538
  948MOL0     H27927   7.615   1.055   7.119 -1.0648 -1.1534  2.9789
  948MOL0     H27928   7.585   1.202   7.207  1.1707  0.4763 -0.4999
  948MOL0     H27929   7.393   1.029   7.166 -1.0639  0.8266  2.2092
  948MOL0     H27930   7.397   1.072   7.006  0.0324  0.7835 -0.0823
  948MOL0     H27931   7.381   1.326   7.308  1.7185 -2.2631 -1.1611
  948MOL0     H27932   7.024   1.410   7.374  1.6333  0.3029  1.3030
  948MOL0     H27933   7.176   1.510   7.388  0.2594  1.2174 -0.2857
  948MOL0     H27934   6.981   1.520   7.154 -2.3457  1.5478  0.6532
  948MOL0     H27935   7.122   1.632   7.185 -0.3172 -1.3622 -1.8506
  948MOL0     H27936   6.992   1.711   7.386  3.4701 -2.2122 -0.6760
  948MOL0     H27937   6.853   1.610   7.347  0.3361  0.6254  1.4179
  948MOL0     H27938   6.976   1.804   7.154  0.5586 -1.9402 -0.8550
  948MOL0     H27939   6.865   1.850   7.288 -0.0516 -0.9441  0.0864
  948MOL0     H27940   6.648   1.681   7.362 -1.3702  0.0324  0.0711
  948MOL0     H27941   6.338   1.697   7.461 -0.6397  0.7041  1.9557
  948MOL0     H27942   6.507   1.693   7.517 -0.3372  0.0015  1.7663
  948MOL0     H27943   6.402   1.840   7.516 -3.2232 -1.9851  1.0136
  948MOL0     H27944   6.065   2.101   7.304 -3.8365  3.0433 -1.5017
  948MOL0     H27945   5.819   2.132   7.330 -0.0356 -0.6355 -2.7556
  948MOL0     H27946   5.545   1.792   7.389 -1.3110 -0.5898  0.5577
  948MOL0     H27947   5.620   1.835   7.537  0.4974  0.7926 -0.5034
  948MOL0     H27948   5.396   1.886   7.577  1.1286  1.1862  0.8553
  948MOL0     H27949   5.480   2.043   7.547 -0.0054  0.3952  0.3503
  948MOL0     H27950   5.301   1.875   7.339 -2.1072  0.4019  0.2476
  948MOL0     H27951   5.372   2.029   7.312 -2.5856 -1.0097 -2.2324
  948MOL0     H27952   5.135   1.958   7.514  1.7578 -1.3962 -0.9090
  948MOL0     H27953   5.221   2.113   7.513  0.3795  0.9580 -1.0697
  948MOL0     H27954   5.091   1.980   7.267 -2.5568 -2.3601  3.2573
  948MOL0     H27955   5.154   2.156   7.277 -3.9706  2.5100  0.4391
  948MOL0     H27956   4.912   2.183   7.291  1.0236  0.2880 -0.8104
  948MOL0     H27957   4.907   2.043   7.410  2.4005  0.0535  2.2158
  948MOL0     H27958   5.056   2.288   7.464 -0.7968  0.5586 -1.3937
  948MOL0     H27959   4.996   2.175   7.580 -0.9900 -0.3985  1.0326
  948MOL0     H27960   4.817   2.359   7.400  1.2080  0.0784 -0.9010
  948MOL0     H27961   4.877   2.401   7.564  1.0544 -0.9487  0.5899
  948MOL0     H27962   5.772   1.708   7.376  0.3988 -0.1328  0.0791
  948MOL0     H27963   6.014   1.681   7.336  0.8099  1.1403 -3.0007
  948MOL0     H27964   6.412   1.944   7.027  0.2201  1.3527  1.5207
  948MOL0     H27965   6.645   1.866   6.979 -2.5557  1.2972 -0.7997
  948MOL0     H27966   8.362   1.277   6.739  0.6208 -0.5609 -0.0603
  948MOL0     H27967   8.592   1.286   6.644  0.4109  0.7366 -0.4166
  948MOL0     H27968   8.879   1.666   6.478 -0.0081  0.1188  2.6796
  948MOL0     H27969   9.101   1.735   6.398  0.4474 -0.4365 -0.9546
  948MOL0     H27970   9.469   1.527   6.573  0.7173 -3.4073 -0.2939
  948MOL0     H27971   9.433   1.474   6.412 -3.0901  1.1475 -2.6763
  948MOL0     H27972   9.652   1.578   6.446 -3.5181 -3.3095  0.7060
  948MOL0     H27973   9.567   1.732   6.485 -0.7794 -0.2206  0.4152
  948MOL0     H27974   9.458   1.729   6.274  0.7088  1.7067  1.6011
  948MOL0     H27975   9.528   1.570   6.234  0.3200  0.1432  0.8921
  948MOL0     H27976   9.659   1.741   6.114  0.0456 -0.8415  1.3305
  948MOL0     H27977   9.772   1.688   6.248  1.4073 -0.6795 -1.5077
  948MOL0     H27978   9.709   2.078   6.353 -2.5337 -1.3296  4.3250
  948MOL0     H27979   9.292   1.435   6.615  0.2210  2.1447 -3.2159
  948MOL0     H27980   9.066   1.362   6.716 -0.3981  2.8625  0.3269
  949MOL0     O27981   2.828   3.425   1.574  0.7326 -0.6303 -0.0988
  949MOL0     C27982   2.912   3.469   1.655 -0.1522 -0.3188  0.0893
  949MOL0     O27983   2.890   3.552   1.757  0.4088 -0.1504 -0.4003
  949MOL0     C27984   2.769   3.611   1.791  0.5614 -0.7505 -0.0244
  949MOL0     C27985   2.643   3.578   1.732 -0.2154 -0.2525  0.0479
  949MOL0     C27986   2.524   3.641   1.770 -0.4376  0.6697  0.0798
  949MOL0     C27987   2.528   3.726   1.880 -0.3192 -0.4368 -0.2853
  949MOL0     O27988   2.419   3.785   1.930  0.1895  0.3417  0.2581
  949MOL0     C27989   2.326   3.841   1.834 -0.4096 -0.4773 -1.2029
  949MOL0     C27990   2.245   3.952   1.898 -0.7281 -0.0728  0.7412
  949MOL0     C27991   2.099   3.948   1.865  0.4594  0.3461  0.1980
  949MOL0     C27992   2.033   4.086   1.898  0.0054 -0.7254  0.0056
  949MOL0     C27993   1.890   4.083   1.908  0.9709  0.4477 -0.7130
  949MOL0     C27994   1.837   4.078   1.755  0.5821  0.2097 -0.1030
  949MOL0     C27995   1.685   4.046   1.754  0.1692 -0.5207 -0.4547
  949MOL0     C27996   1.610   4.080   1.622  0.2313 -0.3477  0.1617
  949MOL0     N27997   1.461   4.052   1.622 -0.2581 -0.4262 -0.0791
  949MOL0     C27998   1.384   4.024   1.508  0.2563 -0.6760  0.3478
  949MOL0     C27999   1.262   3.971   1.554 -0.1686 -0.2497  0.3448
  949MOL0     C28000   1.161   3.904   1.461  0.1863 -0.3486  0.2720
  949MOL0     C28001   1.219   3.810   1.356  0.6400  0.5566  0.2002
  949MOL0     C28002   1.309   3.704   1.421 -0.0706  0.5301 -0.6875
  949MOL0     C28003   1.346   3.607   1.310 -0.0132  0.1111  0.1439
  949MOL0     O28004   1.246   3.521   1.249 -0.4815 -0.1322 -0.6674
  949MOL0     C28005   1.285   3.418   1.164 -0.8206 -0.0111  0.2935
  949MOL0     C28006   1.414   3.411   1.108 -0.1791 -0.0096  0.6221
  949MOL0     C28007   1.448   3.321   1.009 -0.2675 -0.7381  0.0452
  949MOL0     C28008   1.585   3.342   0.944  0.5074  0.2393  0.4128
  949MOL0     C28009   1.352   3.230   0.965 -0.2442  0.2605 -0.4752
  949MOL0     C28010   1.375   3.130   0.859  0.5302  0.3466 -0.5794
  949MOL0     O28011   1.348   3.003   0.892  0.6613  0.1186 -0.0423
  949MOL0     C28012   1.344   2.907   0.799  0.0319  0.8349 -0.1829
  949MOL0     C28013   1.299   2.910   0.657  1.0962 -0.0579 -0.7721
  949MOL0     C28014   1.292   2.794   0.574 -0.2315 -0.1215 -0.0594
  949MOL0     C28015   1.327   2.672   0.634 -0.4992 -0.8447 -0.3509
  949MOL0     O28016   1.306   2.571   0.548  0.4141  1.3555  0.1119
  949MOL0     C28017   1.298   2.429   0.585 -0.4076  0.8114 -0.1380
  949MOL0     C28018   1.177   2.364   0.531 -0.4657 -1.1014  0.1867
  949MOL0     C28019   1.043   2.432   0.591  0.3377 -0.0391  0.6232
  949MOL0     C28020   0.918   2.376   0.512 -0.3047 -0.3316 -1.4472
  949MOL0     C28021   0.782   2.412   0.574 -0.5910 -0.5375 -0.1519
  949MOL0     C28022   0.663   2.337   0.506 -0.0237  0.3189 -0.7454
  949MOL0     C28023   0.648   2.369   0.351 -0.3022  0.1467  0.3318
  949MOL0     C28024   0.509   2.369   0.314 -0.1299  0.2796 -0.0380
  949MOL0    Cl28025   0.440   2.201   0.301  0.7293  0.3907 -0.4446
  949MOL0     C28026   1.371   2.672   0.766 -0.1476  0.2830  0.9829
  949MOL0     C28027   1.375   2.782   0.850 -0.5377 -0.0703  0.5616
  949MOL0     O28028   1.430   3.163   0.759  0.0243  0.4824  0.2594
  949MOL0     C28029   1.225   3.233   1.022 -0.6357 -0.0075 -0.8211
  949MOL0     C28030   1.199   3.328   1.120 -0.3404  0.6779 -0.4152
  949MOL0     N28031   1.271   3.959   1.692 -0.6553  0.7660  0.1265
  949MOL0     N28032   1.390   4.011   1.732  0.7190 -0.0820 -0.8312
  949MOL0     C28033   2.649   3.751   1.951  0.6643  0.5808  0.1751
  949MOL0     C28034   2.772   3.698   1.903  0.1628 -0.7006 -0.6671
  949MOL0     C28035   3.049   3.415   1.650  0.9803 -0.1489 -0.3211
  949MOL0     C28036   3.131   3.417   1.764 -0.4238  0.0828 -0.0032
  949MOL0     C28037   3.246   3.343   1.765 -0.2113 -0.7879 -0.2095
  949MOL0     C28038   3.300   3.285   1.649 -0.5214 -0.3051 -0.2122
  949MOL0     O28039   3.424   3.220   1.634 -0.0143  0.2012  0.0491
  949MOL0     C28040   3.510   3.215   1.752 -0.9583  0.0938 -0.8255
  949MOL0     C28041   3.637   3.144   1.707 -0.3640  0.0292  0.4242
  949MOL0     C28042   3.723   3.238   1.618  0.9198 -0.4865 -0.6145
  949MOL0     C28043   3.860   3.168   1.597  0.3483  0.2440  0.4766
  949MOL0     C28044   3.963   3.202   1.697 -0.2587  0.7180 -0.1560
  949MOL0     C28045   4.064   3.206   1.770  0.9521 -0.3078 -0.0365
  949MOL0     C28046   3.217   3.280   1.540 -0.3397 -0.2179  0.0330
  949MOL0     C28047   3.094   3.342   1.535  0.3265  0.6575 -0.2948
  949MOL0     H28048   2.621   3.517   1.644  0.9164  0.3670 -0.6894
  949MOL0     H28049   2.431   3.613   1.722  1.4075 -1.3250 -2.7257
  949MOL0     H28050   2.391   3.884   1.757 -0.3868  3.1548  0.6164
  949MOL0     H28051   2.268   3.758   1.793  2.0044 -3.3416  0.7360
  949MOL0     H28052   2.252   3.950   2.007 -0.3711  2.0536  0.7944
  949MOL0     H28053   2.293   4.048   1.882  1.6733 -0.8816  2.3993
  949MOL0     H28054   2.091   3.931   1.757  0.0652  3.2614 -0.3136
  949MOL0     H28055   2.050   3.864   1.915 -0.7307 -0.4677 -2.1681
  949MOL0     H28056   2.079   4.119   1.992  0.2208  0.0620 -0.3638
  949MOL0     H28057   2.051   4.165   1.825 -0.2924 -0.8097 -0.1597
  949MOL0     H28058   1.856   4.003   1.975  0.8967  2.6677  2.0929
  949MOL0     H28059   1.854   4.175   1.954  0.8331  0.0004  0.0880
  949MOL0     H28060   1.859   4.173   1.707 -0.0739  0.0780 -0.6878
  949MOL0     H28061   1.882   3.997   1.696 -0.2258  2.2139 -3.7413
  949MOL0     H28062   1.664   3.940   1.770  1.7440 -0.9674 -1.1081
  949MOL0     H28063   1.633   4.085   1.842 -0.3432 -4.0846  1.0050
  949MOL0     H28064   1.661   4.018   1.548  1.2816  0.2011  0.4170
  949MOL0     H28065   1.620   4.184   1.591 -0.9563  0.7038  3.0295
  949MOL0     H28066   1.397   4.042   1.402 -0.8670 -4.5560 -0.6089
  949MOL0     H28067   1.105   3.846   1.535  1.1426  0.2484  1.5068
  949MOL0     H28068   1.114   3.989   1.411  5.6507  1.5465 -2.5700
  949MOL0     H28069   1.260   3.856   1.266  1.2695  0.5006  0.4508
  949MOL0     H28070   1.139   3.746   1.317  1.9972 -2.0458  1.3937
  949MOL0     H28071   1.268   3.661   1.513  2.0357  1.3494  0.6996
  949MOL0     H28072   1.392   3.762   1.463  0.4157  1.4774 -2.7990
  949MOL0     H28073   1.421   3.541   1.355 -1.5395 -2.4064 -0.7831
  949MOL0     H28074   1.379   3.679   1.234  1.1274  1.3526  1.7420
  949MOL0     H28075   1.484   3.487   1.142 -0.0757  0.2616 -0.1807
  949MOL0     H28076   1.663   3.372   1.014  0.7111 -0.1015  0.3337
  949MOL0     H28077   1.622   3.258   0.885  0.7424  1.8084 -1.7988
  949MOL0     H28078   1.569   3.427   0.878  3.0948  0.9484  0.5883
  949MOL0     H28079   1.259   3.006   0.623 -0.1045 -0.2594  0.0367
  949MOL0     H28080   1.251   2.804   0.474 -1.4677  0.0800  0.4520
  949MOL0     H28081   1.382   2.372   0.544  0.7124  0.9732  1.8008
  949MOL0     H28082   1.299   2.415   0.693 -0.7279  0.7075 -0.1499
  949MOL0     H28083   1.183   2.371   0.422 -0.7852 -1.0376  0.1710
  949MOL0     H28084   1.184   2.258   0.558 -1.0637 -0.9432  1.0239
  949MOL0     H28085   1.052   2.539   0.570 -1.2195  0.0210  0.1554
  949MOL0     H28086   1.029   2.418   0.698  1.7727 -1.5812  0.6444
  949MOL0     H28087   0.920   2.425   0.414 -0.8286 -1.1961 -1.9066
  949MOL0     H28088   0.928   2.268   0.498 -2.0519 -0.4326 -2.1574
  949MOL0     H28089   0.755   2.517   0.565 -2.6200 -0.8470  1.4104
  949MOL0     H28090   0.779   2.382   0.680 -0.2283 -2.0890 -0.5533
  949MOL0     H28091   0.666   2.229   0.521  0.0309  0.7930  4.1160
  949MOL0     H28092   0.579   2.381   0.560  1.4346  1.6252  0.5490
  949MOL0     H28093   0.701   2.298   0.287  0.8396  2.2271 -1.1458
  949MOL0     H28094   0.689   2.470   0.341  1.0284 -0.3620  0.4649
  949MOL0     H28095   0.495   2.425   0.221  0.0249 -1.4803 -1.1758
  949MOL0     H28096   0.455   2.424   0.392 -0.0387  1.4407 -0.7675
  949MOL0     H28097   1.393   2.584   0.826 -1.8481 -0.9887 -0.1556
  949MOL0     H28098   1.387   2.778   0.958 -0.1468  2.0717  0.6553
  949MOL0     H28099   1.151   3.169   0.976 -2.7092  1.7378 -0.1157
  949MOL0     H28100   1.100   3.328   1.165 -0.8263  1.0726 -1.4479
  949MOL0     H28101   2.650   3.809   2.044 -0.0060 -0.7324  1.0264
  949MOL0     H28102   2.871   3.731   1.934 -0.6018  2.8150 -1.5662
  949MOL0     H28103   3.116   3.467   1.859  1.8281 -0.1448  0.5281
  949MOL0     H28104   3.307   3.354   1.854  0.3194  1.5534 -0.7923
  949MOL0     H28105   3.528   3.318   1.785 -1.1010  0.2276 -1.1629
  949MOL0     H28106   3.459   3.151   1.824  2.0400 -4.6282 -2.4342
  949MOL0     H28107   3.616   3.045   1.664  0.6768 -1.7802  3.7125
  949MOL0     H28108   3.694   3.115   1.796 -1.1220  1.1673  1.3166
  949MOL0     H28109   3.730   3.332   1.674 -1.9237 -0.1791 -0.6327
  949MOL0     H28110   3.671   3.264   1.526  0.8211  0.7309 -0.2385
  949MOL0     H28111   3.890   3.192   1.495 -2.0782  1.3595 -0.0594
  949MOL0     H28112   3.835   3.062   1.592 -2.9023  0.8534  1.3174
  949MOL0     H28113   4.159   3.203   1.819  2.7532  0.5549 -3.1438
  949MOL0     H28114   3.254   3.230   1.452 -1.0622 -0.2569 -0.2612
  949MOL0     H28115   3.034   3.340   1.444 -1.1511 -1.9359  0.6301
  950MOL0     O28116   8.733  10.119   5.784  0.9520 -0.3888 -0.2892
  950MOL0     C28117   8.794  10.226   5.774  0.4695 -1.0015 -0.4498
  950MOL0     O28118   8.738  10.348   5.760 -0.0058  0.7382  0.0060
  950MOL0     C28119   8.604  10.361   5.788 -0.3391  0.7176  0.4835
  950MOL0     C28120   8.540  10.330   5.904 -0.0599  1.0438 -0.0853
  950MOL0     C28121   8.403  10.348   5.928 -0.2478 -0.2556  0.0510
  950MOL0     C28122   8.323  10.396   5.821  0.1889  0.7538 -0.1477
  950MOL0     O28123   8.185  10.424   5.832 -0.3282  0.2557  0.6409
  950MOL0     C28124   8.115  10.396   5.956 -0.8214  0.6009  0.3419
  950MOL0     C28125   7.967  10.387   5.928 -0.1075 -0.2391 -0.0393
  950MOL0     C28126   7.889  10.434   6.060 -1.0524  0.3133  0.1095
  950MOL0     C28127   7.740  10.433   6.044 -0.4164 -0.0890 -0.3862
  950MOL0     C28128   7.667  10.475   6.168  0.5466 -0.1288  0.7214
  950MOL0     C28129   7.518  10.438   6.173 -0.1349  0.0343 -0.1686
  950MOL0     C28130   7.461  10.477   6.308 -0.8057  0.1516  0.6325
  950MOL0     C28131   7.306  10.473   6.301 -0.5967 -0.3641 -0.1872
  950MOL0     N28132   7.258  10.331   6.298  0.2143 -1.5084 -0.9081
  950MOL0     C28133   7.201  10.275   6.410  0.3975 -0.5309 -0.0703
  950MOL0     C28134   7.154  10.158   6.365  0.3243 -0.1270 -0.4519
  950MOL0     C28135   7.092  10.068   6.463  0.8031 -0.2086 -0.4215
  950MOL0     C28136   6.967  10.117   6.534  0.5938  0.6885 -0.2108
  950MOL0     C28137   6.912  10.002   6.622  0.2936 -0.4442 -0.8366
  950MOL0     C28138   6.789  10.049   6.698 -0.0297 -0.0320  0.5679
  950MOL0     O28139   6.719   9.941   6.759 -0.3235 -0.4121  0.4100
  950MOL0     C28140   6.589   9.957   6.786 -0.3089  0.5268 -0.0976
  950MOL0     C28141   6.510   9.845   6.819  0.7075 -0.2345 -0.3415
  950MOL0     C28142   6.375   9.859   6.850 -0.1888  0.2014  0.3697
  950MOL0     C28143   6.301   9.722   6.882 -0.6281 -0.5168  0.0368
  950MOL0     C28144   6.320   9.989   6.841  0.2756  0.4747  0.5327
  950MOL0     C28145   6.178  10.009   6.866  0.3229 -0.6387  0.2294
  950MOL0     O28146   6.122  10.104   6.791 -0.6496 -0.2597  0.1123
  950MOL0     C28147   5.994  10.095   6.760  0.1733  0.8178  0.4067
  950MOL0     C28148   5.902   9.983   6.785  0.1795 -0.5822  0.5842
  950MOL0     C28149   5.765   9.990   6.741 -0.5879  0.5733  0.0149
  950MOL0     C28150   5.717  10.116   6.693  0.8662  0.6377 -0.4906
  950MOL0     O28151   5.587  10.120   6.636  0.5887 -0.4835  0.3745
  950MOL0     C28152   5.491  10.024   6.688  0.0891 -0.1624  0.8147
  950MOL0     C28153   5.347  10.044   6.630 -0.6815  0.2942 -0.3063
  950MOL0     C28154   5.265  10.134   6.722 -0.1000 -0.5410  0.0129
  950MOL0     C28155   5.118  10.137   6.681  0.1450  0.6345 -0.6758
  950MOL0     C28156   5.030  10.018   6.732  0.2336 -0.0657 -0.3514
  950MOL0     C28157   4.877  10.044   6.703  0.1250  0.7704 -0.2853
  950MOL0     C28158   4.769   9.971   6.801 -0.9380 -0.6414  0.0955
  950MOL0     C28159   4.624   9.991   6.765  0.1948 -0.2644  0.2191
  950MOL0    Cl28160   4.566  10.158   6.818  0.1405  0.1379  0.0215
  950MOL0     C28161   5.800  10.223   6.680 -0.0128 -0.2574  0.3398
  950MOL0     C28162   5.938  10.207   6.703 -0.1043 -0.7756 -0.4347
  950MOL0     O28163   6.118   9.948   6.958  0.4362  0.1034 -0.3209
  950MOL0     C28164   6.398  10.105   6.806  1.2372 -0.0964  0.8598
  950MOL0     C28165   6.526  10.080   6.778  0.3172 -0.2622 -0.8173
  950MOL0     N28166   7.170  10.149   6.231  0.7112  0.5258 -0.9413
  950MOL0     N28167   7.239  10.252   6.191  0.6284 -0.4709  0.1227
  950MOL0     C28168   8.388  10.432   5.706  0.0630  0.2005 -0.6563
  950MOL0     C28169   8.529  10.423   5.690  0.6421  0.2370  0.2662
  950MOL0     C28170   8.940  10.220   5.774 -0.0733  0.2126  0.8317
  950MOL0     C28171   9.022  10.334   5.784  0.6372 -0.1771  0.7942
  950MOL0     C28172   9.163  10.331   5.767  0.0605  0.0322 -1.4399
  950MOL0     C28173   9.226  10.209   5.758 -0.7120 -0.2794 -0.2607
  950MOL0     O28174   9.363  10.191   5.765 -0.7282 -0.4510  0.3750
  950MOL0     C28175   9.451  10.308   5.750  0.3046  0.3833  1.0674
  950MOL0     C28176   9.590  10.251   5.741 -0.5750  0.5543  0.1309
  950MOL0     C28177   9.657  10.255   5.878  0.3390  0.5152  0.7102
  950MOL0     C28178   9.787  10.168   5.885  0.0970 -0.2352  0.3706
  950MOL0     C28179   9.746  10.032   5.899 -0.5050 -0.3250  0.0317
  950MOL0     C28180   9.719   9.914   5.923  0.0788 -0.5600  0.0586
  950MOL0     C28181   9.147  10.095   5.746 -0.1621 -0.0950 -0.1122
  950MOL0     C28182   9.011  10.101   5.752 -0.3893 -0.0160  0.5221
  950MOL0     H28183   8.595  10.297   5.992  1.2399  0.3675 -1.1171
  950MOL0     H28184   8.354  10.326   6.023 -2.1640  0.4038 -0.7419
  950MOL0     H28185   8.143  10.296   5.991 -1.3762  1.5031  3.7042
  950MOL0     H28186   8.140  10.459   6.042  0.4977  0.3738  0.1505
  950MOL0     H28187   7.936  10.434   5.835  0.6719 -2.2605 -1.3744
  950MOL0     H28188   7.940  10.281   5.924 -0.5220 -0.1241 -0.3185
  950MOL0     H28189   7.927  10.365   6.136  1.0665  1.0214 -0.2291
  950MOL0     H28190   7.910  10.534   6.100 -1.9484  0.5241  0.0853
  950MOL0     H28191   7.710  10.490   5.956 -1.3473  0.1770  0.0904
  950MOL0     H28192   7.706  10.332   6.018 -1.4958 -0.6991  2.9324
  950MOL0     H28193   7.711  10.419   6.251  2.2863 -2.6766 -1.7463
  950MOL0     H28194   7.676  10.580   6.197  0.2270  0.5937 -1.6054
  950MOL0     H28195   7.463  10.501   6.101  1.2389 -1.1327 -2.3529
  950MOL0     H28196   7.496  10.333   6.151  1.7025 -1.5277  4.3203
  950MOL0     H28197   7.493  10.409   6.388 -1.3130 -1.5001 -0.5031
  950MOL0     H28198   7.484  10.578   6.342 -1.5765  0.5585 -0.0199
  950MOL0     H28199   7.268  10.518   6.209  0.3124 -0.1910 -0.4918
  950MOL0     H28200   7.262  10.525   6.386  1.3603  0.3604  0.4574
  950MOL0     H28201   7.196  10.314   6.511  0.3566 -1.3739  0.2564
  950MOL0     H28202   7.065   9.981   6.402 -0.9715 -1.0425  1.4378
  950MOL0     H28203   7.167  10.038   6.537  1.4110  1.2647 -0.4024
  950MOL0     H28204   6.889  10.136   6.460 -2.2514  0.0709  2.3876
  950MOL0     H28205   6.983  10.209   6.591 -1.6853 -0.7443  3.0755
  950MOL0     H28206   6.988   9.976   6.697 -1.4712  2.4482  2.2318
  950MOL0     H28207   6.892   9.912   6.563  2.3697 -1.2564 -0.4142
  950MOL0     H28208   6.729  10.100   6.622 -0.0795 -1.1601 -0.1703
  950MOL0     H28209   6.811  10.123   6.775 -2.4027  0.3022  0.9981
  950MOL0     H28210   6.557   9.746   6.823  4.6510  1.3323 -2.3905
  950MOL0     H28211   6.203   9.712   6.835 -0.2898 -1.4398 -0.4995
  950MOL0     H28212   6.371   9.647   6.844 -2.0080  0.2859 -4.6659
  950MOL0     H28213   6.285   9.708   6.989  3.3372 -0.3019  0.8126
  950MOL0     H28214   5.938   9.884   6.811  0.9257 -1.5446 -3.4355
  950MOL0     H28215   5.706   9.901   6.756  2.9857 -1.7729  1.4952
  950MOL0     H28216   5.511   9.927   6.642 -1.3271  0.2260 -0.7380
  950MOL0     H28217   5.498  10.019   6.797 -0.2519  0.7696  0.8940
  950MOL0     H28218   5.364  10.109   6.544 -0.1906  1.6273  0.7576
  950MOL0     H28219   5.300   9.948   6.607 -1.0243  0.2051  0.6893
  950MOL0     H28220   5.309  10.234   6.726 -1.4056  0.0427  0.5802
  950MOL0     H28221   5.272  10.097   6.825  0.0372 -0.3988  0.0549
  950MOL0     H28222   5.076  10.228   6.726 -1.1877 -0.4743  0.4362
  950MOL0     H28223   5.117  10.135   6.572  1.4768  0.3282 -0.6988
  950MOL0     H28224   5.047  10.013   6.840 -3.4152 -1.0472  0.3173
  950MOL0     H28225   5.061   9.920   6.693  1.4633  0.5974 -1.0912
  950MOL0     H28226   4.860  10.151   6.722 -1.1478  0.1851  2.4599
  950MOL0     H28227   4.846  10.017   6.602 -1.0735  0.8699  0.0361
  950MOL0     H28228   4.784  10.011   6.901  0.6849  2.2073 -1.1696
  950MOL0     H28229   4.777   9.862   6.794 -0.7272 -0.6239  0.0719
  950MOL0     H28230   4.561   9.919   6.818  1.6754 -0.3682  1.9307
  950MOL0     H28231   4.613   9.980   6.657  1.0770  4.2480 -0.5249
  950MOL0     H28232   5.766  10.315   6.634 -0.2279  0.7338  2.3512
  950MOL0     H28233   6.006  10.289   6.680  1.0342 -0.9119  2.0869
  950MOL0     H28234   6.371  10.209   6.788  0.4758 -0.4800 -0.3278
  950MOL0     H28235   6.575  10.172   6.747  0.0330  0.0249 -0.4218
  950MOL0     H28236   8.329  10.465   5.621  3.0634  0.1810 -2.9412
  950MOL0     H28237   8.577  10.462   5.600 -1.0582 -0.4411 -1.0017
  950MOL0     H28238   8.980  10.435   5.786  1.9200  0.3636  1.2476
  950MOL0     H28239   9.220  10.422   5.778  0.4327 -0.5019  2.3768
  950MOL0     H28240   9.423  10.361   5.659 -1.6720 -1.8250  0.2887
  950MOL0     H28241   9.445  10.370   5.840  0.6123  1.1928  0.5409
  950MOL0     H28242   9.648  10.311   5.670  2.0353 -2.3853 -0.4293
  950MOL0     H28243   9.571  10.149   5.706 -1.9329  0.6666  0.4742
  950MOL0     H28244   9.590  10.224   5.959  0.7579 -2.6926 -0.0081
  950MOL0     H28245   9.676  10.357   5.913  2.2717  1.8941 -3.7189
  950MOL0     H28246   9.847  10.185   5.976  0.0524  1.2881  0.1290
  950MOL0     H28247   9.861  10.182   5.806 -0.9877  1.6378 -0.3709
  950MOL0     H28248   9.694   9.820   5.969  0.3049  0.2044  1.8416
  950MOL0     H28249   9.204  10.006   5.721  0.2877  0.5470 -1.4560
  950MOL0     H28250   8.945  10.017   5.735 -0.6005  0.2625 -0.0575
  951MOL0     O28251   7.837   3.600   7.196 -0.4157 -0.1797 -0.2274
  951MOL0     C28252   7.777   3.566   7.299 -0.7768 -0.3841 -0.1433
  951MOL0     O28253   7.645   3.591   7.326 -0.3817 -0.1117 -0.1589
  951MOL0     C28254   7.566   3.655   7.227  0.1466  0.3524 -0.1456
  951MOL0     C28255   7.559   3.595   7.096  0.5139 -0.0998 -0.0196
  951MOL0     C28256   7.482   3.664   7.002  0.3356 -0.6023 -0.2466
  951MOL0     C28257   7.415   3.786   7.025 -0.1005  0.4273  0.7939
  951MOL0     O28258   7.354   3.873   6.937 -0.0427 -0.0960 -0.1605
  951MOL0     C28259   7.381   3.871   6.794  0.3110 -0.5225  0.4334
  951MOL0     C28260   7.269   3.946   6.716 -1.0769  0.5006  0.5831
  951MOL0     C28261   7.139   3.875   6.741 -0.5422 -0.2843 -0.6138
  951MOL0     C28262   7.016   3.960   6.722 -0.0051  0.3137  0.4449
  951MOL0     C28263   6.888   3.880   6.747 -0.4396  0.5899  0.0040
  951MOL0     C28264   6.765   3.955   6.690 -0.1116 -0.1782 -0.2186
  951MOL0     C28265   6.628   3.880   6.712 -0.4967 -0.3905  0.3793
  951MOL0     C28266   6.572   3.881   6.859  0.8244 -0.1705  0.3583
  951MOL0     N28267   6.466   3.782   6.876 -0.3832 -0.1888 -0.6219
  951MOL0     C28268   6.370   3.748   6.789  0.5372 -0.4993 -0.0628
  951MOL0     C28269   6.292   3.663   6.860  0.1862 -0.6319  0.2798
  951MOL0     C28270   6.168   3.600   6.815  0.6006 -0.0575  0.0896
  951MOL0     C28271   6.045   3.678   6.861 -0.3836  0.9417  0.7194
  951MOL0     C28272   5.917   3.597   6.846  0.2490 -0.4572  0.1728
  951MOL0     C28273   5.789   3.684   6.820 -0.0588  0.0918  0.1027
  951MOL0     O28274   5.777   3.701   6.671  0.5443  0.4604 -0.6551
  951MOL0     C28275   5.652   3.738   6.623  0.6997 -0.2157  0.0971
  951MOL0     C28276   5.623   3.719   6.486  0.1652  0.2423 -0.1784
  951MOL0     C28277   5.497   3.753   6.429  0.0150  0.1220 -0.5152
  951MOL0     C28278   5.484   3.728   6.286 -0.6827  0.3471  0.1966
  951MOL0     C28279   5.399   3.807   6.518  0.5940  1.0453 -0.0953
  951MOL0     C28280   5.276   3.849   6.474  0.5090  0.3843  1.1282
  951MOL0     O28281   5.170   3.845   6.564  0.1007  0.1215 -0.2566
  951MOL0     C28282   5.055   3.902   6.519  0.1150  0.3433 -0.7087
  951MOL0     C28283   4.970   3.854   6.418  0.4342  0.1320 -0.2649
  951MOL0     C28284   4.848   3.910   6.409  0.6082 -0.2074 -0.2122
  951MOL0     C28285   4.806   4.031   6.484  0.2434  0.6449 -0.0969
  951MOL0     O28286   4.681   4.083   6.457  0.0410 -0.8637 -0.3350
  951MOL0     C28287   4.631   4.194   6.538 -0.4606  0.6803  0.0418
  951MOL0     C28288   4.485   4.176   6.534 -0.0127 -1.0245 -0.8742
  951MOL0     C28289   4.403   4.306   6.558 -0.0217  0.0730  0.3869
  951MOL0     C28290   4.371   4.367   6.421 -0.6391 -0.2780 -0.7360
  951MOL0     C28291   4.285   4.492   6.450 -0.4775 -0.3977 -0.0334
  951MOL0     C28292   4.235   4.569   6.320  0.1306  0.1139 -0.2234
  951MOL0     C28293   4.186   4.714   6.338 -0.0306  0.0116  1.0417
  951MOL0     C28294   4.092   4.740   6.226 -0.0631  0.0489  0.5011
  951MOL0    Cl28295   4.035   4.906   6.221 -0.1350 -0.2294 -0.1607
  951MOL0     C28296   4.908   4.088   6.556 -0.2843 -0.2876  0.0087
  951MOL0     C28297   5.028   4.024   6.579 -0.2009 -0.1389  0.4230
  951MOL0     O28298   5.270   3.894   6.358  0.0346 -0.6961 -0.2692
  951MOL0     C28299   5.427   3.812   6.655  0.7599 -0.2378 -0.2777
  951MOL0     C28300   5.557   3.793   6.702 -1.1885  0.4765  0.0115
  951MOL0     N28301   6.335   3.659   6.989 -0.9719 -0.1558 -0.2712
  951MOL0     N28302   6.443   3.729   6.995  0.1121 -0.6611 -0.6832
  951MOL0     C28303   7.407   3.833   7.154 -0.2920  0.7600 -0.2546
  951MOL0     C28304   7.485   3.770   7.258  0.2515  0.2137 -0.1560
  951MOL0     C28305   7.853   3.501   7.401  0.4441 -0.0192  0.1900
  951MOL0     C28306   7.994   3.493   7.394  0.8832 -0.3429 -0.5261
  951MOL0     C28307   8.072   3.413   7.480 -0.2756 -0.0141  0.4329
  951MOL0     C28308   8.015   3.352   7.598  0.2845 -0.1857  1.3969
  951MOL0     O28309   8.105   3.296   7.681 -0.3841 -0.4863  0.4430
  951MOL0     C28310   8.066   3.304   7.828  0.2776  0.5922  0.6673
  951MOL0     C28311   8.191   3.262   7.911 -0.1066 -0.3356 -0.6731
  951MOL0     C28312   8.146   3.255   8.062  0.8458  0.3754  0.2612
  951MOL0     C28313   8.149   3.393   8.132 -0.3088  0.1039 -0.9134
  951MOL0     C28314   8.118   3.380   8.284  0.2100 -0.1775  0.3175
  951MOL0     C28315   8.096   3.358   8.400 -0.4542  0.1899 -0.0748
  951MOL0     C28316   7.875   3.367   7.612 -0.7723 -0.0984  0.1046
  951MOL0     C28317   7.790   3.436   7.518 -0.5598 -0.3598 -0.1405
  951MOL0     H28318   7.606   3.500   7.073  0.2946 -0.0836 -0.5482
  951MOL0     H28319   7.485   3.626   6.900  2.6877 -0.1514 -0.3988
  951MOL0     H28320   7.472   3.929   6.778 -0.5295  0.7880  0.2716
  951MOL0     H28321   7.402   3.770   6.756  3.0456 -1.1181  3.1526
  951MOL0     H28322   7.256   4.053   6.737  3.3048  0.9987  1.8613
  951MOL0     H28323   7.297   3.937   6.611 -0.6458 -0.0671  0.7419
  951MOL0     H28324   7.136   3.788   6.675 -1.2352 -2.7144  2.4050
  951MOL0     H28325   7.122   3.843   6.844 -0.6231 -1.7528 -1.0580
  951MOL0     H28326   7.018   4.055   6.775 -1.5422  1.3947 -1.3024
  951MOL0     H28327   7.015   3.981   6.614 -2.0382 -1.3649  0.0726
  951MOL0     H28328   6.909   3.785   6.697  3.2807 -0.6263  3.3334
  951MOL0     H28329   6.876   3.860   6.854  0.2472 -0.4115 -0.1027
  951MOL0     H28330   6.756   4.047   6.748  3.2690  0.5473 -0.6545
  951MOL0     H28331   6.789   3.990   6.589  2.4903 -1.5019 -0.1385
  951MOL0     H28332   6.552   3.914   6.642  0.9413  2.9564  0.2662
  951MOL0     H28333   6.656   3.781   6.673 -0.6613  0.5766 -2.4033
  951MOL0     H28334   6.541   3.983   6.883 -0.9475 -0.7254  0.5971
  951MOL0     H28335   6.656   3.852   6.923  2.7730  2.1137 -1.0032
  951MOL0     H28336   6.354   3.787   6.689  1.7955 -0.9456 -0.4614
  951MOL0     H28337   6.187   3.594   6.708  1.8193  0.8305  0.2335
  951MOL0     H28338   6.169   3.494   6.845  4.1790 -0.2793 -0.3344
  951MOL0     H28339   6.039   3.768   6.800 -0.2177  1.5813  1.6285
  951MOL0     H28340   6.040   3.702   6.968 -1.8239 -1.5816  1.3210
  951MOL0     H28341   5.902   3.549   6.943 -0.9527  1.5419  1.0212
  951MOL0     H28342   5.919   3.530   6.759  3.1229  0.7058 -0.7884
  951MOL0     H28343   5.794   3.773   6.884  1.5705 -1.3349  2.1300
  951MOL0     H28344   5.703   3.627   6.855  0.1888  1.7086  3.8105
  951MOL0     H28345   5.699   3.676   6.421  0.3862  1.1636 -0.5544
  951MOL0     H28346   5.552   3.654   6.243  0.3465  1.9557 -1.0799
  951MOL0     H28347   5.384   3.683   6.286 -0.5722  0.1013  0.5061
  951MOL0     H28348   5.478   3.817   6.223  0.0824 -1.2625 -2.3112
  951MOL0     H28349   4.997   3.759   6.374  1.9390  0.0636  0.7064
  951MOL0     H28350   4.773   3.869   6.341  1.7542  1.6133 -2.7302
  951MOL0     H28351   4.678   4.181   6.636  0.7129 -2.1867 -0.7958
  951MOL0     H28352   4.660   4.280   6.477 -0.5421 -0.8475 -2.2323
  951MOL0     H28353   4.452   4.129   6.441 -0.0600 -0.7266 -1.0083
  951MOL0     H28354   4.472   4.104   6.615 -0.2420 -0.1161 -0.0922
  951MOL0     H28355   4.463   4.369   6.625  0.6442 -2.2183  2.0818
  951MOL0     H28356   4.313   4.289   6.618 -1.3284  3.4026 -0.4045
  951MOL0     H28357   4.470   4.386   6.380  1.3884 -1.4865  3.1490
  951MOL0     H28358   4.317   4.288   6.367 -1.7884 -0.2617  0.3565
  951MOL0     H28359   4.339   4.564   6.512  2.0863 -0.5265 -1.9270
  951MOL0     H28360   4.196   4.463   6.507 -0.3753 -0.4077  0.1193
  951MOL0     H28361   4.322   4.573   6.254  1.3429 -1.0410  1.2364
  951MOL0     H28362   4.161   4.500   6.276 -0.5669  0.5438  0.2528
  951MOL0     H28363   4.276   4.776   6.338 -0.3530  0.5021  0.0768
  951MOL0     H28364   4.124   4.721   6.429 -1.6380  1.5105 -0.1057
  951MOL0     H28365   4.012   4.668   6.249 -0.3697  0.1981 -0.0774
  951MOL0     H28366   4.134   4.716   6.128  0.2233 -0.2328  0.6879
  951MOL0     H28367   4.899   4.181   6.611  1.3051 -0.6129  0.8821
  951MOL0     H28368   5.101   4.041   6.657 -0.4288 -0.5874  0.7358
  951MOL0     H28369   5.353   3.849   6.725 -1.2492 -1.3729 -1.7080
  951MOL0     H28370   5.571   3.799   6.810  1.5312 -0.6927 -0.2090
  951MOL0     H28371   7.365   3.932   7.169  0.8747  1.4521 -1.3224
  951MOL0     H28372   7.478   3.810   7.358 -0.8610  2.8075 -1.1719
  951MOL0     H28373   8.047   3.530   7.306  3.2058 -0.7566  0.6168
  951MOL0     H28374   8.178   3.404   7.458 -0.4699  0.0759 -0.5786
  951MOL0     H28375   8.025   3.402   7.855 -3.7698 -1.0798  1.2223
  951MOL0     H28376   7.989   3.231   7.851  2.2536 -1.8879 -0.1799
  951MOL0     H28377   8.267   3.341   7.902 -1.3501  0.7471 -2.3955
  951MOL0     H28378   8.242   3.178   7.864 -2.1005 -0.8971 -1.9318
  951MOL0     H28379   8.209   3.183   8.116 -1.4288 -0.8714  1.3738
  951MOL0     H28380   8.048   3.207   8.073  1.8527 -1.6864  0.7957
  951MOL0     H28381   8.075   3.456   8.082 -0.1720 -1.4716 -3.2600
  951MOL0     H28382   8.248   3.437   8.119 -0.3744 -0.3630 -3.4971
  951MOL0     H28383   8.094   3.345   8.507  0.9166 -3.2985 -0.3306
  951MOL0     H28384   7.835   3.326   7.704 -0.5048  0.6899  0.5813
  951MOL0     H28385   7.682   3.435   7.533 -0.7365 -2.5022 -1.1180
  952MOL0     O28386   7.165   9.194   2.019  0.8460 -0.5351 -0.0748
  952MOL0     C28387   7.224   9.121   2.093  0.9146 -1.1187 -0.6996
  952MOL0     O28388   7.158   9.045   2.189  0.0447  0.0856  0.1339
  952MOL0     C28389   7.021   9.039   2.202 -0.2078 -0.1331 -0.2561
  952MOL0     C28390   6.942   9.011   2.084 -0.4307 -0.1181  0.2842
  952MOL0     C28391   6.799   9.005   2.087 -0.2906  0.3895 -0.3704
  952MOL0     C28392   6.730   9.033   2.204 -0.0492 -0.2722 -0.6257
  952MOL0     O28393   6.590   9.042   2.226  0.1054  0.4327  0.0066
  952MOL0     C28394   6.514   9.074   2.117  1.0352 -0.3752 -0.0098
  952MOL0     C28395   6.362   9.098   2.135 -0.4408  0.3159  0.4035
  952MOL0     C28396   6.294   9.061   2.009  0.8861 -0.1390  0.4605
  952MOL0     C28397   6.139   9.090   2.006 -1.1325  0.3573  0.5870
  952MOL0     C28398   6.046   9.002   1.927 -1.1744 -0.1340 -0.2224
  952MOL0     C28399   6.066   9.024   1.786  0.5339 -0.5985  0.0826
  952MOL0     C28400   5.961   8.973   1.696  0.5110  0.2852 -0.0352
  952MOL0     C28401   5.828   9.057   1.692 -1.0872 -0.2071 -0.3740
  952MOL0     N28402   5.718   8.992   1.620  0.0618  0.2702 -0.1084
  952MOL0     C28403   5.709   8.955   1.488 -0.3940  0.9278 -0.3259
  952MOL0     C28404   5.587   8.895   1.480  0.4534  0.4851  0.0156
  952MOL0     C28405   5.525   8.850   1.348  0.5148  0.1253 -0.3389
  952MOL0     C28406   5.375   8.817   1.362 -0.0159 -0.4968  0.0761
  952MOL0     C28407   5.319   8.741   1.238  0.7794  0.0317  0.1047
  952MOL0     C28408   5.174   8.687   1.257 -0.2516  0.3187 -0.1019
  952MOL0     O28409   5.073   8.776   1.231 -0.3892 -0.5615  0.0141
  952MOL0     C28410   4.954   8.729   1.195 -0.1044  0.0435 -0.2206
  952MOL0     C28411   4.931   8.628   1.100  0.0536 -0.4578  0.0738
  952MOL0     C28412   4.809   8.575   1.052  0.5310 -0.3541  0.1313
  952MOL0     C28413   4.814   8.471   0.949 -0.1526  0.7920  0.6723
  952MOL0     C28414   4.692   8.636   1.113 -0.7752 -0.0605  0.6988
  952MOL0     C28415   4.553   8.593   1.084  0.3348  0.4033  0.6236
  952MOL0     O28416   4.464   8.626   1.185  0.5828  0.4594 -0.6715
  952MOL0     C28417   4.326   8.588   1.174 -0.9426 -0.3627  0.2435
  952MOL0     C28418   4.283   8.471   1.116 -0.5500 -0.5326 -0.2775
  952MOL0     C28419   4.146   8.428   1.115 -0.5761 -0.2513 -0.3404
  952MOL0     C28420   4.049   8.523   1.147 -0.8771 -0.0988 -0.7243
  952MOL0     O28421   3.914   8.490   1.139  0.3895 -0.1514  0.4225
  952MOL0     C28422   3.819   8.600   1.164  0.7087 -0.3383 -0.0836
  952MOL0     C28423   3.664   8.584   1.146  0.2606 -0.6256  0.1850
  952MOL0     C28424   3.613   8.466   1.223 -0.3844 -0.6378 -0.1493
  952MOL0     C28425   3.475   8.412   1.186  0.3784 -0.9598  1.1003
  952MOL0     C28426   3.410   8.319   1.283  0.6711  0.2847  0.2584
  952MOL0     C28427   3.477   8.191   1.335 -0.1036 -0.3579  0.5452
  952MOL0     C28428   3.413   8.135   1.463  0.2427 -0.2781  0.5605
  952MOL0     C28429   3.448   7.994   1.504 -0.3708 -0.5613 -0.1247
  952MOL0    Cl28430   3.616   7.973   1.550  0.0763 -0.8206 -0.4964
  952MOL0     C28431   4.094   8.654   1.194  0.0508  0.2516  0.3313
  952MOL0     C28432   4.231   8.678   1.208  0.2834 -0.1550 -1.1490
  952MOL0     O28433   4.529   8.528   0.979  0.5924 -0.7029 -0.0220
  952MOL0     C28434   4.713   8.750   1.198 -0.4203 -0.3266  0.1625
  952MOL0     C28435   4.841   8.788   1.243 -0.6656  0.0772 -0.2415
  952MOL0     N28436   5.518   8.908   1.600  0.2579 -0.1710  0.5037
  952MOL0     N28437   5.601   8.963   1.679  0.3513 -0.1953 -0.2042
  952MOL0     C28438   6.807   9.063   2.318 -0.6455  0.6157  1.0012
  952MOL0     C28439   6.948   9.055   2.316  0.3507 -0.2881 -0.7089
  952MOL0     C28440   7.369   9.116   2.074  0.9354  0.2486  0.2088
  952MOL0     C28441   7.436   9.191   1.974 -1.1052  0.9228 -0.2032
  952MOL0     C28442   7.576   9.170   1.956 -0.2412 -0.9198 -0.0471
  952MOL0     C28443   7.655   9.084   2.040  0.5466  0.4804 -0.3140
  952MOL0     O28444   7.789   9.063   2.017  0.7847  0.7427 -0.1105
  952MOL0     C28445   7.859   9.150   1.922 -0.1364  0.1882 -0.0097
  952MOL0     C28446   7.876   9.079   1.785 -0.0367 -0.0909  0.6799
  952MOL0     C28447   7.951   8.943   1.788  0.4365  0.8360 -0.1803
  952MOL0     C28448   8.084   8.952   1.868  0.1802 -1.1616 -1.3343
  952MOL0     C28449   8.177   8.851   1.822 -0.0420 -0.5787  0.7964
  952MOL0     C28450   8.255   8.763   1.787  0.8471  0.3368 -0.2983
  952MOL0     C28451   7.579   9.027   2.146 -0.8214 -0.3186 -0.3178
  952MOL0     C28452   7.447   9.035   2.165  0.5113  0.1041  0.3163
  952MOL0     H28453   6.982   9.017   1.983  0.3929  1.0809  0.6602
  952MOL0     H28454   6.726   9.002   2.007 -2.4142  4.1974  1.1326
  952MOL0     H28455   6.557   9.152   2.053 -2.5061  2.1233  0.3134
  952MOL0     H28456   6.515   8.987   2.051  1.6970 -0.5736  0.2556
  952MOL0     H28457   6.330   9.031   2.215  0.4383 -1.0554 -0.3548
  952MOL0     H28458   6.342   9.202   2.163 -0.5180 -0.7345  4.9521
  952MOL0     H28459   6.340   9.115   1.926 -0.3519  1.5966  0.8357
  952MOL0     H28460   6.304   8.956   1.982  1.1103 -0.0410  0.1640
  952MOL0     H28461   6.100   9.096   2.108 -1.0972  1.1978  0.5574
  952MOL0     H28462   6.135   9.189   1.960  0.2253 -1.2087 -3.3822
  952MOL0     H28463   6.056   8.899   1.961 -1.1864  0.4048  1.5403
  952MOL0     H28464   5.941   9.023   1.951 -0.5543  0.4019  2.3531
  952MOL0     H28465   6.075   9.132   1.775  1.1744 -0.6109  0.4189
  952MOL0     H28466   6.160   8.974   1.759  0.4328 -0.5450 -0.3720
  952MOL0     H28467   6.007   8.954   1.599  0.6446 -4.2847  0.7052
  952MOL0     H28468   5.923   8.879   1.737  1.1462  0.3765  0.7901
  952MOL0     H28469   5.845   9.151   1.638  0.3617  0.1442  0.6334
  952MOL0     H28470   5.802   9.092   1.792  0.6847  4.3559 -1.2793
  952MOL0     H28471   5.777   8.973   1.405 -1.3763  4.0925 -0.5810
  952MOL0     H28472   5.550   8.932   1.280 -0.5493  1.4632  0.8182
  952MOL0     H28473   5.572   8.759   1.309  0.1013  0.3095 -1.2951
  952MOL0     H28474   5.310   8.904   1.378 -0.3815 -1.0224  1.6548
  952MOL0     H28475   5.364   8.761   1.455 -0.0426 -0.4335  0.1118
  952MOL0     H28476   5.384   8.654   1.222  2.9939  1.7600 -0.7570
  952MOL0     H28477   5.323   8.808   1.152  2.0215  0.5447  0.5433
  952MOL0     H28478   5.165   8.661   1.363 -0.3598 -1.3476 -0.4819
  952MOL0     H28479   5.167   8.596   1.196 -2.0721  1.2543 -1.4006
  952MOL0     H28480   5.022   8.581   1.065  1.5234  0.3015  2.5647
  952MOL0     H28481   4.914   8.426   0.945 -0.2559  0.2877  2.7152
  952MOL0     H28482   4.744   8.390   0.972 -1.7992  1.3644 -1.9087
  952MOL0     H28483   4.791   8.517   0.853 -0.9559 -0.0105  0.4578
  952MOL0     H28484   4.355   8.396   1.083  0.8111  1.5731 -2.4853
  952MOL0     H28485   4.132   8.324   1.090  1.8635 -1.2920  2.1853
  952MOL0     H28486   3.834   8.632   1.268  0.3568  0.2299 -0.1980
  952MOL0     H28487   3.848   8.678   1.093 -0.3417 -2.2223 -2.7474
  952MOL0     H28488   3.612   8.674   1.181  0.2816  1.1450 -3.8037
  952MOL0     H28489   3.655   8.574   1.038  2.3629  1.4296 -0.2857
  952MOL0     H28490   3.617   8.492   1.329 -1.1072  2.0043 -0.6759
  952MOL0     H28491   3.677   8.378   1.215 -1.7573 -1.7139  0.3864
  952MOL0     H28492   3.404   8.495   1.181  2.5222  0.9296 -0.0875
  952MOL0     H28493   3.479   8.367   1.087  3.1695  0.5790  0.3776
  952MOL0     H28494   3.320   8.292   1.228  1.9333  0.4328 -2.0171
  952MOL0     H28495   3.379   8.383   1.366 -1.7731 -0.4155 -0.0541
  952MOL0     H28496   3.477   8.115   1.256 -1.8737 -0.2248  0.3743
  952MOL0     H28497   3.583   8.209   1.355 -0.1883  0.4299  0.3177
  952MOL0     H28498   3.304   8.141   1.455  0.1945  0.4068  1.4813
  952MOL0     H28499   3.442   8.201   1.545 -0.8993 -0.5828  1.2375
  952MOL0     H28500   3.425   7.934   1.416 -3.9746  2.7333 -1.6873
  952MOL0     H28501   3.386   7.957   1.586  2.0715 -0.9605  1.6586
  952MOL0     H28502   4.028   8.738   1.210 -1.6840 -0.7269 -1.2738
  952MOL0     H28503   4.250   8.779   1.243  1.0440 -0.0289 -1.8970
  952MOL0     H28504   4.633   8.815   1.233  0.2958  1.1070 -0.7570
  952MOL0     H28505   4.858   8.882   1.296  1.1508 -2.1873  3.6201
  952MOL0     H28506   6.759   9.083   2.413 -3.9682  1.6291 -0.7031
  952MOL0     H28507   7.002   9.072   2.409 -1.6204  0.9075  0.2879
  952MOL0     H28508   7.368   9.250   1.913 -2.4686  3.4159  3.4162
  952MOL0     H28509   7.616   9.219   1.868  3.1625 -1.4493  1.0678
  952MOL0     H28510   7.812   9.249   1.917 -1.8754 -0.4750  1.6049
  952MOL0     H28511   7.950   9.162   1.981 -1.7993  0.6951  2.6234
  952MOL0     H28512   7.916   9.152   1.714  2.9161 -4.3502 -2.5553
  952MOL0     H28513   7.782   9.042   1.743  0.8261 -2.1314  0.4531
  952MOL0     H28514   7.973   8.910   1.686 -0.8227  1.4070 -0.6589
  952MOL0     H28515   7.879   8.871   1.827  1.4044 -0.7284 -1.1677
  952MOL0     H28516   8.057   8.937   1.973 -0.2323  1.8320 -0.9220
  952MOL0     H28517   8.119   9.055   1.873  1.3008 -1.5941  0.4137
  952MOL0     H28518   8.311   8.678   1.754 -1.8032 -0.8691 -2.0162
  952MOL0     H28519   7.647   8.983   2.218 -1.1152  0.7271  0.6286
  952MOL0     H28520   7.402   8.979   2.247 -0.6141 -0.1541 -0.4562
  953MOL0     O28521   8.018   6.214   8.261 -0.2751  0.1081  0.3808
  953MOL0     C28522   8.049   6.327   8.239  0.0019 -0.6565  1.2353
  953MOL0     O28523   7.971   6.440   8.271  0.1521 -0.0039  0.1426
  953MOL0     C28524   7.842   6.423   8.322  0.1761  0.9072  0.1513
  953MOL0     C28525   7.739   6.520   8.296 -0.0408 -0.5076  0.1311
  953MOL0     C28526   7.612   6.499   8.321 -0.8461  0.2394 -0.2721
  953MOL0     C28527   7.576   6.386   8.386 -0.7955  0.6373  0.3014
  953MOL0     O28528   7.452   6.353   8.425 -0.3001  0.0120  0.4985
  953MOL0     C28529   7.374   6.464   8.461 -0.0893  0.0533 -0.1097
  953MOL0     C28530   7.251   6.403   8.523 -0.3484  0.1060 -0.1637
  953MOL0     C28531   7.139   6.506   8.558  0.2239 -0.7495 -0.5037
  953MOL0     C28532   7.045   6.435   8.651 -0.1143  0.4475 -1.1294
  953MOL0     C28533   6.920   6.521   8.666  0.0503  0.2694 -0.2718
  953MOL0     C28534   6.816   6.504   8.554 -0.2030  0.7942 -0.1123
  953MOL0     C28535   6.683   6.565   8.598  0.6391  0.3690  0.4580
  953MOL0     C28536   6.587   6.572   8.477  0.3891 -0.4360 -0.5778
  953MOL0     N28537   6.446   6.547   8.512  0.2391  0.2438 -0.5399
  953MOL0     C28538   6.381   6.429   8.483  0.6091 -0.2376 -0.3931
  953MOL0     C28539   6.252   6.438   8.527  0.2455  0.4256 -0.6285
  953MOL0     C28540   6.137   6.342   8.515 -1.4015  0.1929  0.5722
  953MOL0     C28541   6.005   6.383   8.451 -0.0781 -0.4640  0.7390
  953MOL0     C28542   5.910   6.477   8.523  0.0666  0.3201 -0.7310
  953MOL0     C28543   5.763   6.462   8.482  0.4598  0.1012  0.3821
  953MOL0     O28544   5.696   6.562   8.567 -0.4664 -0.1380  0.0850
  953MOL0     C28545   5.566   6.548   8.574  0.5865 -0.6436 -0.2486
  953MOL0     C28546   5.474   6.512   8.475 -0.3583  0.3534 -0.1282
  953MOL0     C28547   5.337   6.499   8.497  0.2161  0.0810 -0.0721
  953MOL0     C28548   5.256   6.425   8.388  0.2486 -0.4891 -0.2356
  953MOL0     C28549   5.278   6.537   8.623  0.2670  0.0070  0.7515
  953MOL0     C28550   5.135   6.534   8.665 -0.4638 -0.3507 -0.5646
  953MOL0     O28551   5.093   6.602   8.774  1.0492 -0.1421 -0.2229
  953MOL0     C28552   4.981   6.575   8.846 -0.1965 -0.5598  0.4114
  953MOL0     C28553   4.928   6.686   8.909 -0.1999  0.4553 -0.8310
  953MOL0     C28554   4.812   6.683   8.998  0.6391 -0.1731 -0.4115
  953MOL0     C28555   4.746   6.558   9.012  1.2280 -0.3171 -0.2365
  953MOL0     O28556   4.628   6.546   9.088  0.0933 -0.3360 -0.0298
  953MOL0     C28557   4.519   6.471   9.033 -0.3736  0.1328 -0.4038
  953MOL0     C28558   4.389   6.522   9.093  0.3736 -1.1180 -0.5105
  953MOL0     C28559   4.372   6.469   9.237  0.5419 -0.5005  0.0323
  953MOL0     C28560   4.224   6.499   9.278 -0.4684 -0.6864 -0.5688
  953MOL0     C28561   4.184   6.460   9.409  0.4672  0.2002 -0.9136
  953MOL0     C28562   4.158   6.307   9.427  0.2104 -0.6000 -0.2638
  953MOL0     C28563   4.036   6.258   9.355 -0.0005 -0.5648  0.3100
  953MOL0     C28564   3.984   6.126   9.417 -0.2287  0.7164 -0.2218
  953MOL0    Cl28565   4.085   5.975   9.401 -0.0610  0.6355 -0.0457
  953MOL0     C28566   4.798   6.445   8.941 -0.3287  0.4805  0.2348
  953MOL0     C28567   4.911   6.455   8.860  0.3708 -0.2525  0.2359
  953MOL0     O28568   5.062   6.473   8.588  0.1563  0.1549  0.2961
  953MOL0     C28569   5.373   6.578   8.723 -0.1930 -1.1439 -0.5359
  953MOL0     C28570   5.512   6.584   8.701  0.0754 -0.2057 -0.4391
  953MOL0     N28571   6.235   6.568   8.577 -0.1721 -0.8274 -0.4368
  953MOL0     N28572   6.348   6.631   8.560 -0.7894  0.0351  0.1961
  953MOL0     C28573   7.667   6.287   8.414 -0.4554 -0.2270 -0.4956
  953MOL0     C28574   7.796   6.306   8.386 -0.0413 -1.4844 -0.2157
  953MOL0     C28575   8.191   6.350   8.193 -0.8832 -1.4116 -1.5948
  953MOL0     C28576   8.258   6.247   8.121  0.6972 -0.0477  0.4534
  953MOL0     C28577   8.379   6.274   8.063 -1.0298 -0.2241  0.4694
  953MOL0     C28578   8.452   6.395   8.081 -0.8360 -0.0647  0.5326
  953MOL0     O28579   8.583   6.404   8.030  0.4794  0.1755  0.7565
  953MOL0     C28580   8.644   6.534   8.046 -0.4096  0.2723  0.4243
  953MOL0     C28581   8.768   6.545   7.957 -0.8555  0.3989  0.5212
  953MOL0     C28582   8.755   6.517   7.810  0.2506  0.6477 -0.7807
  953MOL0     C28583   8.710   6.373   7.785  0.4378  0.4000 -0.2092
  953MOL0     C28584   8.767   6.337   7.653  0.4052 -0.7831  0.2117
  953MOL0     C28585   8.799   6.320   7.531  0.0653  0.1112  0.5582
  953MOL0     C28586   8.379   6.500   8.151 -0.1446  0.0041 -0.6148
  953MOL0     C28587   8.249   6.479   8.204  0.7924  0.3683 -0.7030
  953MOL0     H28588   7.766   6.614   8.248 -0.0115 -0.5041  0.1539
  953MOL0     H28589   7.540   6.579   8.305  0.2096  1.2623 -0.0530
  953MOL0     H28590   7.436   6.522   8.529 -0.0075  1.6044 -1.4505
  953MOL0     H28591   7.336   6.530   8.382 -0.4672 -0.3548 -0.2756
  953MOL0     H28592   7.206   6.340   8.446 -0.1846 -0.2392  0.0176
  953MOL0     H28593   7.284   6.340   8.607  0.6170  1.6775  0.6704
  953MOL0     H28594   7.183   6.592   8.609  3.0327 -0.7409 -2.6684
  953MOL0     H28595   7.087   6.530   8.465  1.6110  0.2137 -1.0653
  953MOL0     H28596   7.024   6.332   8.621  1.8234 -1.4335  3.0808
  953MOL0     H28597   7.090   6.427   8.751 -0.6575  1.0833 -0.8304
  953MOL0     H28598   6.874   6.507   8.765  0.4599  2.0002  0.2018
  953MOL0     H28599   6.945   6.628   8.667 -1.5413  0.6629  0.2704
  953MOL0     H28600   6.862   6.545   8.464  0.9652  0.9018  0.5163
  953MOL0     H28601   6.797   6.398   8.538  0.6178 -0.0430  3.5781
  953MOL0     H28602   6.636   6.503   8.674 -0.1148  1.5161  0.9501
  953MOL0     H28603   6.700   6.663   8.644  1.4459  0.5543 -0.2053
  953MOL0     H28604   6.623   6.500   8.403 -1.3074  0.2767 -2.2001
  953MOL0     H28605   6.586   6.669   8.426 -0.7742  1.0038  1.9779
  953MOL0     H28606   6.419   6.343   8.429 -0.1144 -0.7921 -0.0308
  953MOL0     H28607   6.175   6.265   8.448 -1.2502  0.6688  0.1152
  953MOL0     H28608   6.106   6.291   8.607 -2.1861  0.6883  0.5921
  953MOL0     H28609   5.949   6.294   8.422  0.4479 -0.3790 -0.6248
  953MOL0     H28610   6.024   6.435   8.357 -3.0290 -0.0351  0.2651
  953MOL0     H28611   5.933   6.584   8.522 -1.8205  0.7947  0.5778
  953MOL0     H28612   5.921   6.445   8.627 -2.3661 -1.2823 -0.8779
  953MOL0     H28613   5.724   6.360   8.488 -0.4433  0.2118 -2.4038
  953MOL0     H28614   5.762   6.486   8.375  1.1654 -2.2697 -0.2352
  953MOL0     H28615   5.499   6.480   8.374  0.0658  2.4365 -0.7524
  953MOL0     H28616   5.317   6.401   8.301 -0.1731 -1.1839 -0.3421
  953MOL0     H28617   5.210   6.335   8.430  3.3037 -1.1621  1.9973
  953MOL0     H28618   5.181   6.497   8.353 -0.1845 -0.1186  1.3371
  953MOL0     H28619   4.982   6.780   8.899 -1.4676  1.1363 -1.6155
  953MOL0     H28620   4.777   6.774   9.045  0.6888 -0.1250 -0.4696
  953MOL0     H28621   4.509   6.504   8.930  1.2489  0.9844 -0.3173
  953MOL0     H28622   4.542   6.364   9.036  1.2365  0.4603  0.0036
  953MOL0     H28623   4.380   6.631   9.095 -0.9443 -1.1930 -1.2453
  953MOL0     H28624   4.301   6.495   9.035 -1.9351  0.6079  1.9192
  953MOL0     H28625   4.449   6.521   9.295  0.4697 -1.5759  1.1434
  953MOL0     H28626   4.397   6.362   9.244  0.1837 -0.6025 -0.2139
  953MOL0     H28627   4.208   6.607   9.272 -2.4314 -0.8222  1.1138
  953MOL0     H28628   4.162   6.445   9.206  1.2506 -1.2901 -1.6535
  953MOL0     H28629   4.093   6.513   9.438 -0.3119 -0.3675 -2.2212
  953MOL0     H28630   4.254   6.506   9.480 -2.1693  0.5056  1.6759
  953MOL0     H28631   4.246   6.257   9.388  0.7688  1.1074 -1.3071
  953MOL0     H28632   4.155   6.288   9.535  0.1681  2.4805  0.3931
  953MOL0     H28633   4.068   6.241   9.252 -4.5872 -1.1091 -1.2273
  953MOL0     H28634   3.952   6.327   9.353 -0.4271 -1.0620  0.7270
  953MOL0     H28635   3.891   6.099   9.367  0.5453 -2.5004 -0.1409
  953MOL0     H28636   3.962   6.137   9.524  1.4708 -3.6753  0.8082
  953MOL0     H28637   4.738   6.355   8.949  0.9093 -0.3528  0.3658
  953MOL0     H28638   4.945   6.374   8.796 -1.3158 -0.8752  0.0740
  953MOL0     H28639   5.333   6.606   8.820 -1.3789  3.2923 -2.0772
  953MOL0     H28640   5.578   6.614   8.782 -0.6100  0.9971 -0.2896
  953MOL0     H28641   7.635   6.189   8.447  0.1627 -0.6982 -1.2783
  953MOL0     H28642   7.871   6.234   8.418  0.2548 -0.9436  0.3233
  953MOL0     H28643   8.212   6.150   8.105 -0.1066  0.5681 -1.2868
  953MOL0     H28644   8.423   6.200   7.997  0.5366  0.4295  0.7429
  953MOL0     H28645   8.579   6.611   8.003  1.1058  1.0079 -0.6365
  953MOL0     H28646   8.677   6.547   8.149 -0.7358 -1.0541  0.7111
  953MOL0     H28647   8.847   6.480   7.995 -2.9750 -1.6683  1.6735
  953MOL0     H28648   8.793   6.651   7.971 -3.2660  1.7173 -3.4900
  953MOL0     H28649   8.850   6.538   7.760  1.2927 -4.7654 -1.6858
  953MOL0     H28650   8.676   6.584   7.775 -0.2850  0.5448  0.1791
  953MOL0     H28651   8.602   6.360   7.797  0.6884  0.2096  2.5876
  953MOL0     H28652   8.747   6.313   7.869 -2.3286 -3.8012 -1.6296
  953MOL0     H28653   8.825   6.298   7.429  0.3572  4.4832 -0.5091
  953MOL0     H28654   8.424   6.597   8.168  2.1504 -1.1026  0.0884
  953MOL0     H28655   8.189   6.563   8.238  3.4213  1.7341  0.9051
  954MOL0     O28656   6.531   4.642   7.015 -0.3138  0.0708 -0.2967
  954MOL0     C28657   6.572   4.533   6.983 -0.3625  0.1613 -0.6679
  954MOL0     O28658   6.496   4.429   6.959  0.0124 -0.7567  0.3323
  954MOL0     C28659   6.361   4.453   6.976  0.1284  1.1062  0.2797
  954MOL0     C28660   6.308   4.456   7.099 -0.7865  0.1278  0.1740
  954MOL0     C28661   6.172   4.492   7.120  0.0366  0.4399  0.2231
  954MOL0     C28662   6.096   4.500   7.014  0.4064 -0.7501  0.0567
  954MOL0     O28663   5.967   4.515   7.048 -0.5400 -0.5727  0.6942
  954MOL0     C28664   5.862   4.425   6.989  0.2329 -0.1203 -0.2526
  954MOL0     C28665   5.737   4.500   6.959 -0.0507 -0.1322 -0.3956
  954MOL0     C28666   5.637   4.420   6.873 -0.2489 -0.1137  0.8400
  954MOL0     C28667   5.523   4.499   6.810  0.1553  0.1433  0.4549
  954MOL0     C28668   5.449   4.586   6.911  0.0486 -0.1984 -0.0692
  954MOL0     C28669   5.337   4.679   6.846 -0.3554  0.6230  0.7396
  954MOL0     C28670   5.239   4.717   6.961 -0.2251  0.4346 -0.3262
  954MOL0     C28671   5.142   4.821   6.911  0.1628  0.0611  0.4556
  954MOL0     N28672   5.033   4.852   7.004  0.1244  0.1346 -0.2741
  954MOL0     C28673   5.043   4.924   7.123 -0.0709 -0.1145  0.1961
  954MOL0     C28674   4.913   4.922   7.171 -0.1670  0.2858 -0.3699
  954MOL0     C28675   4.854   4.987   7.301  0.7835  0.6818  0.2178
  954MOL0     C28676   4.704   5.033   7.294 -0.2513  0.4373 -1.0322
  954MOL0     C28677   4.662   5.130   7.409  0.0926  0.1152  0.3783
  954MOL0     C28678   4.606   5.057   7.534  0.2459  0.5799  0.5694
  954MOL0     O28679   4.701   4.962   7.564  0.0758  0.3790 -0.1169
  954MOL0     C28680   4.678   4.879   7.677 -0.3597 -0.4607  0.7212
  954MOL0     C28681   4.775   4.790   7.715  0.4914  0.1266 -0.5376
  954MOL0     C28682   4.756   4.698   7.824  0.3847  0.3019 -0.6332
  954MOL0     C28683   4.869   4.606   7.849  0.0565  0.5125  0.7839
  954MOL0     C28684   4.635   4.701   7.894  0.3803  0.5989 -0.0454
  954MOL0     C28685   4.590   4.609   8.012 -0.5578  0.0113 -0.1717
  954MOL0     O28686   4.473   4.628   8.077 -0.1996 -0.4840  0.7762
  954MOL0     C28687   4.413   4.536   8.156 -0.0735  0.3453  0.0538
  954MOL0     C28688   4.304   4.590   8.228 -0.2671  0.2867 -0.0436
  954MOL0     C28689   4.239   4.520   8.330  0.0522 -0.4557  0.8791
  954MOL0     C28690   4.272   4.390   8.351  0.3861 -0.2115  0.2651
  954MOL0     O28691   4.191   4.329   8.440 -0.3287 -0.6753  0.3051
  954MOL0     C28692   4.213   4.193   8.471 -0.2454 -0.3855 -0.1829
  954MOL0     C28693   4.124   4.159   8.590  0.4354  0.1443 -0.3051
  954MOL0     C28694   3.971   4.169   8.560  0.7512 -0.3336  0.0263
  954MOL0     C28695   3.889   4.119   8.681 -0.7897 -0.0990 -0.1022
  954MOL0     C28696   3.744   4.106   8.635  0.1311  1.0586 -0.5226
  954MOL0     C28697   3.661   4.041   8.752  0.2241  0.3708 -0.4282
  954MOL0     C28698   3.509   4.026   8.720 -0.8926  0.7216 -0.0889
  954MOL0     C28699   3.425   3.956   8.818  0.4148 -0.0028 -0.7280
  954MOL0    Cl28700   3.456   4.027   8.978  0.0893  0.1453 -0.1476
  954MOL0     C28701   4.378   4.331   8.286 -0.2137  0.6530 -0.7227
  954MOL0     C28702   4.448   4.402   8.188 -0.7509  0.1049  0.5215
  954MOL0     O28703   4.677   4.533   8.045 -0.1163 -0.1235 -0.2596
  954MOL0     C28704   4.539   4.795   7.860  0.3384  0.0837 -0.2223
  954MOL0     C28705   4.552   4.873   7.746  0.3413 -0.2978  0.1196
  954MOL0     N28706   4.833   4.846   7.087  0.6197 -0.1332 -0.5461
  954MOL0     N28707   4.914   4.797   6.997  0.3505  0.5805  0.0864
  954MOL0     C28708   6.145   4.490   6.878  0.2063  1.1976  0.2238
  954MOL0     C28709   6.285   4.464   6.859  0.3713  0.6220  0.1450
  954MOL0     C28710   6.723   4.509   6.957 -0.2571  0.3311  0.7293
  954MOL0     C28711   6.776   4.382   6.937 -0.5095 -0.2619  0.1279
  954MOL0     C28712   6.914   4.358   6.909  0.4885 -1.2725 -0.0495
  954MOL0     C28713   6.996   4.473   6.902 -0.1256  0.4828  0.5012
  954MOL0     O28714   7.133   4.453   6.884 -0.2614  0.4455 -0.1923
  954MOL0     C28715   7.203   4.330   6.898  0.3435  1.0097  0.4313
  954MOL0     C28716   7.351   4.354   6.944 -0.3064  1.5609  0.3348
  954MOL0     C28717   7.423   4.217   6.933  0.9743  0.0689 -0.0551
  954MOL0     C28718   7.557   4.230   7.005 -0.1814 -0.0746  0.4183
  954MOL0     C28719   7.634   4.099   7.008  0.4804 -0.0055 -0.1474
  954MOL0     C28720   7.692   3.999   6.971  0.0375  0.2376  0.4704
  954MOL0     C28721   6.947   4.604   6.913  0.6382 -0.4378  0.6735
  954MOL0     C28722   6.809   4.622   6.937  0.2475 -0.0022  0.2904
  954MOL0     H28723   6.370   4.441   7.187  3.5144 -0.3287 -2.6119
  954MOL0     H28724   6.139   4.489   7.223 -2.6998  0.6643 -0.5695
  954MOL0     H28725   5.894   4.383   6.893 -2.3469 -1.6992 -0.5382
  954MOL0     H28726   5.840   4.335   7.048 -2.2454  0.3192 -0.3912
  954MOL0     H28727   5.683   4.508   7.053  2.0436  0.6423  0.8243
  954MOL0     H28728   5.765   4.595   6.912  0.5296  1.5330  3.0465
  954MOL0     H28729   5.697   4.372   6.795 -1.1406 -0.0491  0.0874
  954MOL0     H28730   5.593   4.338   6.931  2.5029 -2.9327 -0.7896
  954MOL0     H28731   5.561   4.559   6.726 -1.6969  1.6362  0.6250
  954MOL0     H28732   5.440   4.438   6.775  1.1085 -3.0478  3.2320
  954MOL0     H28733   5.392   4.526   6.983 -0.5708  1.7828  1.1991
  954MOL0     H28734   5.519   4.660   6.951  2.1700 -0.6936 -2.6657
  954MOL0     H28735   5.374   4.759   6.781  1.2976 -0.3820  0.4023
  954MOL0     H28736   5.276   4.620   6.777 -1.9429  1.5744  1.2580
  954MOL0     H28737   5.183   4.625   6.982 -3.5219  2.0701 -1.3132
  954MOL0     H28738   5.294   4.757   7.047 -0.4772  2.0457 -0.8770
  954MOL0     H28739   5.097   4.793   6.815  1.3645 -4.3359  0.9761
  954MOL0     H28740   5.196   4.913   6.886  0.4072 -0.6313 -1.8156
  954MOL0     H28741   5.126   4.977   7.167 -0.7939  0.1227  1.3321
  954MOL0     H28742   4.863   4.922   7.388  2.1053 -0.1067 -0.4677
  954MOL0     H28743   4.915   5.075   7.323 -0.8783  3.1245 -3.7262
  954MOL0     H28744   4.638   4.946   7.299  0.4740 -0.1220 -0.9699
  954MOL0     H28745   4.706   5.084   7.197  2.1752  0.4489 -1.0503
  954MOL0     H28746   4.581   5.193   7.372  0.1350  0.0155  0.1143
  954MOL0     H28747   4.750   5.192   7.426  0.6535 -0.5341 -0.1079
  954MOL0     H28748   4.505   5.023   7.511 -0.7829  3.4850  0.4320
  954MOL0     H28749   4.592   5.131   7.614  2.4607  2.2089 -0.4413
  954MOL0     H28750   4.862   4.796   7.650 -0.7005 -1.3446 -2.3640
  954MOL0     H28751   4.887   4.596   7.957  2.2624 -1.3656  0.3229
  954MOL0     H28752   4.838   4.510   7.807  0.2733  1.5249 -1.8836
  954MOL0     H28753   4.965   4.618   7.798 -0.4386  0.0466 -0.2726
  954MOL0     H28754   4.277   4.693   8.206  0.5770  0.8128  1.2680
  954MOL0     H28755   4.154   4.569   8.375  0.2293 -0.3863  1.1397
  954MOL0     H28756   4.192   4.128   8.386  0.0344 -2.4063  1.2314
  954MOL0     H28757   4.314   4.178   8.510 -0.4770 -0.0810  0.5526
  954MOL0     H28758   4.136   4.063   8.641 -3.6904 -0.3919 -0.0055
  954MOL0     H28759   4.157   4.231   8.665 -0.7755  0.7572 -0.3346
  954MOL0     H28760   3.945   4.125   8.463 -0.7579  1.8450 -0.6472
  954MOL0     H28761   3.942   4.274   8.548 -3.5978 -1.3118  0.3995
  954MOL0     H28762   3.932   4.021   8.701 -0.2161 -0.2794 -2.0201
  954MOL0     H28763   3.897   4.184   8.769  0.1842 -1.8886  1.1968
  954MOL0     H28764   3.732   4.045   8.545  2.7026 -0.7524  0.2573
  954MOL0     H28765   3.689   4.199   8.618 -3.8096 -0.6315  1.6844
  954MOL0     H28766   3.699   3.942   8.780 -0.2442  0.5506  0.9392
  954MOL0     H28767   3.673   4.116   8.831  1.4947 -0.6582  0.3835
  954MOL0     H28768   3.511   3.981   8.620 -1.3400  1.2921 -0.3630
  954MOL0     H28769   3.464   4.124   8.705 -1.7536  0.3767  0.1617
  954MOL0     H28770   3.450   3.850   8.821  1.1798  0.0743 -2.8726
  954MOL0     H28771   3.320   3.972   8.795  0.2308  1.8362  1.0947
  954MOL0     H28772   4.401   4.226   8.301 -0.2687  0.8047  0.5980
  954MOL0     H28773   4.533   4.352   8.141 -1.2317  1.0115 -1.4212
  954MOL0     H28774   4.438   4.800   7.900  0.6184 -1.0109  0.6532
  954MOL0     H28775   4.473   4.936   7.706 -0.5483 -0.0135  2.2031
  954MOL0     H28776   6.092   4.511   6.786  0.5133  0.6301 -0.0893
  954MOL0     H28777   6.345   4.440   6.771  1.1736 -2.5290  1.4180
  954MOL0     H28778   6.721   4.288   6.942 -1.6892  0.2859 -1.7336
  954MOL0     H28779   6.953   4.261   6.881  4.4731 -0.3545  1.6656
  954MOL0     H28780   7.155   4.265   6.972  2.3417  0.0985  1.0143
  954MOL0     H28781   7.204   4.276   6.803 -1.5558  0.8156  0.4778
  954MOL0     H28782   7.359   4.396   7.045 -0.7299  4.3369 -0.6760
  954MOL0     H28783   7.399   4.428   6.879 -2.8138  1.0157 -2.3356
  954MOL0     H28784   7.434   4.202   6.825 -0.0845 -1.3120  0.0080
  954MOL0     H28785   7.371   4.139   6.989  1.6916 -0.0521  0.4726
  954MOL0     H28786   7.551   4.271   7.106  0.2478 -2.2075  1.3692
  954MOL0     H28787   7.619   4.291   6.939 -2.5388  0.9446 -0.9703
  954MOL0     H28788   7.729   3.906   6.932  2.9646  1.5027  0.0125
  954MOL0     H28789   7.013   4.689   6.901 -0.5573  0.3206 -0.9150
  954MOL0     H28790   6.772   4.721   6.962  0.8572  0.2791  0.0996
  955MOL0     O28791  11.286   5.851   8.362  0.1214 -0.5419 -0.9537
  955MOL0     C28792  11.316   5.969   8.380  0.9938  0.2642  0.2051
  955MOL0     O28793  11.229   6.067   8.432 -0.4448  0.6547  0.2795
  955MOL0     C28794  11.096   6.048   8.415  0.2156  0.6180  0.0939
  955MOL0     C28795  11.016   6.024   8.531  0.3298  0.2882 -0.4040
  955MOL0     C28796  10.876   6.004   8.533  0.0930  0.6600 -0.1672
  955MOL0     C28797  10.817   5.979   8.406 -0.5558 -0.8230 -0.1914
  955MOL0     O28798  10.695   5.927   8.397 -0.2334  0.0624  0.1580
  955MOL0     C28799  10.692   5.796   8.348 -0.5418  0.3388  0.3365
  955MOL0     C28800  10.551   5.746   8.382  0.5426 -0.4308  0.4757
  955MOL0     C28801  10.531   5.600   8.371  0.3653  0.1607  0.0292
  955MOL0     C28802  10.442   5.586   8.248  0.9774  0.1138 -0.3379
  955MOL0     C28803  10.391   5.439   8.245 -0.4576 -1.3841 -0.4000
  955MOL0     C28804  10.284   5.426   8.128 -0.9999  1.0193 -0.0115
  955MOL0     C28805  10.249   5.276   8.123 -0.3149  0.0562  0.2560
  955MOL0     C28806  10.119   5.265   8.060  0.9967 -0.3054  0.4309
  955MOL0     N28807  10.071   5.127   8.084  0.4747  0.8179 -0.4181
  955MOL0     C28808  10.017   5.040   7.997  0.1902 -0.5040  0.1789
  955MOL0     C28809   9.950   4.945   8.068  0.5566  0.4003 -0.1461
  955MOL0     C28810   9.870   4.834   7.999 -0.8643  0.0417  0.3273
  955MOL0     C28811   9.755   4.784   8.088  0.0758 -0.1373  0.0969
  955MOL0     C28812   9.677   4.680   8.003  0.4795 -0.3876  0.1448
  955MOL0     C28813   9.544   4.636   8.067 -0.7127 -0.2151 -0.0489
  955MOL0     O28814   9.459   4.580   7.962  0.4538  0.1206 -0.6488
  955MOL0     C28815   9.329   4.566   8.011 -0.2608  0.1172 -0.3253
  955MOL0     C28816   9.244   4.527   7.907 -1.1069 -0.2548 -0.0506
  955MOL0     C28817   9.105   4.505   7.924  0.2015  0.2089 -0.3969
  955MOL0     C28818   9.008   4.477   7.803  0.4016 -0.0120  0.2071
  955MOL0     C28819   9.048   4.533   8.057  0.1206 -0.4528  0.2687
  955MOL0     C28820   8.910   4.508   8.102 -0.7639 -0.5854  0.6723
  955MOL0     O28821   8.872   4.577   8.208  0.3911  0.2533 -0.0740
  955MOL0     C28822   8.745   4.561   8.255  0.1065  0.3721  1.1451
  955MOL0     C28823   8.708   4.460   8.342 -1.4421  0.7156  0.1917
  955MOL0     C28824   8.578   4.453   8.387  0.1883  0.1014  0.4223
  955MOL0     C28825   8.483   4.541   8.342  0.4347  0.9946 -0.0127
  955MOL0     O28826   8.358   4.516   8.406  0.0933  0.2154  0.2114
  955MOL0     C28827   8.276   4.633   8.407 -0.2921  0.2991  0.2774
  955MOL0     C28828   8.166   4.607   8.512  0.2490  0.6500 -0.5561
  955MOL0     C28829   8.063   4.514   8.443  0.7681  0.6380  0.7244
  955MOL0     C28830   7.940   4.476   8.530 -0.0837  0.2840  0.1295
  955MOL0     C28831   7.833   4.587   8.521  0.0753 -0.6755  0.6952
  955MOL0     C28832   7.710   4.580   8.612  0.0587 -0.0624 -0.9460
  955MOL0     C28833   7.627   4.707   8.599  0.5949  0.1372 -0.6987
  955MOL0     C28834   7.528   4.727   8.710 -0.7788  0.8344  0.0106
  955MOL0    Cl28835   7.421   4.583   8.709  0.1829  0.1221 -0.1724
  955MOL0     C28836   8.510   4.632   8.235 -0.6917  0.1128 -0.1793
  955MOL0     C28837   8.644   4.639   8.199 -0.4829  0.9388  0.1992
  955MOL0     O28838   8.833   4.434   8.026 -0.0526 -0.5465 -0.2763
  955MOL0     C28839   9.135   4.557   8.161  0.3712 -1.2881 -0.0719
  955MOL0     C28840   9.272   4.580   8.142  0.1877 -0.4525 -0.8014
  955MOL0     N28841   9.959   4.981   8.204 -0.7349 -0.7388 -0.5048
  955MOL0     N28842  10.027   5.091   8.206 -0.0418  0.3176  0.1974
  955MOL0     C28843  10.900   5.992   8.290 -0.0763 -0.2439 -0.4018
  955MOL0     C28844  11.038   6.028   8.289  0.8912 -0.9656 -0.3328
  955MOL0     C28845  11.457   6.003   8.352 -0.6191 -0.6613 -0.1527
  955MOL0     C28846  11.547   5.908   8.309 -0.0755 -0.1204 -0.5433
  955MOL0     C28847  11.676   5.949   8.266 -0.4433  0.5207 -0.3640
  955MOL0     C28848  11.723   6.080   8.270 -0.1956  0.5012  0.4168
  955MOL0     O28849  11.848   6.127   8.230 -0.2517  0.8049  0.0506
  955MOL0     C28850  11.925   6.029   8.157 -0.0270 -0.6779 -0.3267
  955MOL0     C28851  12.041   6.102   8.092 -0.9176  0.3385 -0.3788
  955MOL0     C28852  12.131   6.029   7.991 -0.2286  0.2384  0.5955
  955MOL0     C28853  12.196   5.902   8.046  0.0321  0.3186  0.6901
  955MOL0     C28854  12.283   5.832   7.945 -0.9810  0.8621  0.9774
  955MOL0     C28855  12.353   5.757   7.871 -0.5561 -0.4802 -0.5132
  955MOL0     C28856  11.629   6.173   8.315 -0.7663 -0.3685  0.3531
  955MOL0     C28857  11.500   6.134   8.358 -0.1789  1.1271 -0.1705
  955MOL0     H28858  11.059   6.053   8.626 -0.7201  2.4463 -0.5078
  955MOL0     H28859  10.812   5.989   8.619 -1.8376 -1.2014 -1.7868
  955MOL0     H28860  10.712   5.804   8.241 -1.5362  5.1017  0.3165
  955MOL0     H28861  10.757   5.721   8.396 -1.8523 -0.8875  0.2662
  955MOL0     H28862  10.533   5.788   8.482  1.5549  2.1731 -0.3375
  955MOL0     H28863  10.490   5.806   8.314  2.4671  0.7920 -0.2713
  955MOL0     H28864  10.617   5.535   8.354 -0.2783 -1.3128  2.1001
  955MOL0     H28865  10.490   5.570   8.468  1.8453  3.9075  2.0344
  955MOL0     H28866  10.353   5.649   8.248  1.9781  1.6564 -2.8129
  955MOL0     H28867  10.502   5.607   8.160  2.0281 -0.7542  0.1398
  955MOL0     H28868  10.479   5.377   8.227  1.2689  0.7242  0.3487
  955MOL0     H28869  10.344   5.414   8.340 -2.8620  2.0852 -0.4786
  955MOL0     H28870  10.193   5.481   8.152 -1.9217 -0.7009  0.6205
  955MOL0     H28871  10.315   5.463   8.030 -4.5420  2.3492 -0.7466
  955MOL0     H28872  10.322   5.221   8.063 -1.3381  1.8741 -2.9204
  955MOL0     H28873  10.232   5.249   8.227 -3.2721 -1.4429 -0.5097
  955MOL0     H28874  10.123   5.285   7.952 -0.3774 -4.4213 -0.5859
  955MOL0     H28875  10.049   5.333   8.109 -1.2090 -1.8345 -0.4336
  955MOL0     H28876  10.025   5.047   7.889 -3.0916  2.8176 -0.0501
  955MOL0     H28877   9.837   4.875   7.904 -1.1952  0.4142  0.6019
  955MOL0     H28878   9.943   4.752   8.006 -1.3865 -0.5120 -0.6391
  955MOL0     H28879   9.691   4.863   8.128  0.1510 -0.1785  0.2998
  955MOL0     H28880   9.807   4.739   8.173  0.6344  2.2913  1.1072
  955MOL0     H28881   9.740   4.593   7.980  1.5313  0.0590  1.2712
  955MOL0     H28882   9.650   4.716   7.903  0.0879  0.4813  0.5544
  955MOL0     H28883   9.497   4.719   8.120 -2.3910 -0.9124 -0.3583
  955MOL0     H28884   9.560   4.557   8.141  1.9903 -0.5360 -0.8595
  955MOL0     H28885   9.286   4.517   7.807  0.4097 -1.3786  0.6620
  955MOL0     H28886   8.938   4.396   7.822  1.7734 -1.6145 -1.2196
  955MOL0     H28887   8.955   4.568   7.774  0.5019 -0.2099 -0.6198
  955MOL0     H28888   9.055   4.445   7.709 -0.7044  1.2805 -0.8280
  955MOL0     H28889   8.775   4.389   8.390 -0.5253  2.1037  1.0412
  955MOL0     H28890   8.556   4.372   8.457  1.7087 -0.5594  0.1906
  955MOL0     H28891   8.339   4.720   8.425  1.0514 -0.5334 -0.2533
  955MOL0     H28892   8.229   4.650   8.309 -3.0558  0.0956  1.4768
  955MOL0     H28893   8.196   4.551   8.601 -3.1760 -0.1148  0.2480
  955MOL0     H28894   8.126   4.702   8.548  1.1543  0.7697  0.1823
  955MOL0     H28895   8.109   4.423   8.403 -0.2559  0.3192  0.2387
  955MOL0     H28896   8.015   4.564   8.359  1.1728 -0.5891 -0.2570
  955MOL0     H28897   7.906   4.380   8.490  2.4153 -0.0586 -1.4054
  955MOL0     H28898   7.982   4.459   8.629  1.4185 -0.1120 -0.5430
  955MOL0     H28899   7.780   4.590   8.425 -1.6431  1.9990  1.6291
  955MOL0     H28900   7.884   4.682   8.540 -0.6476  0.4319 -2.2155
  955MOL0     H28901   7.665   4.484   8.589 -0.1960 -0.3998  0.8018
  955MOL0     H28902   7.746   4.574   8.715 -0.4901  0.9713 -0.6769
  955MOL0     H28903   7.578   4.724   8.503  2.3023  0.1948 -1.6066
  955MOL0     H28904   7.691   4.795   8.612  1.0128 -0.3055  0.4243
  955MOL0     H28905   7.480   4.825   8.705 -0.2762  1.2060  1.7948
  955MOL0     H28906   7.581   4.727   8.805 -1.5299  1.3574  0.4429
  955MOL0     H28907   8.448   4.709   8.190 -0.9595  0.8271  1.3713
  955MOL0     H28908   8.677   4.720   8.135 -0.0682  2.8731  2.7100
  955MOL0     H28909   9.100   4.556   8.263  0.0566 -1.0703 -0.1760
  955MOL0     H28910   9.342   4.606   8.222 -0.4961  2.2844 -0.9662
  955MOL0     H28911  10.860   5.968   8.192 -2.0118  1.1462 -0.0031
  955MOL0     H28912  11.101   6.037   8.201  0.9903 -3.2019 -0.5415
  955MOL0     H28913  11.518   5.805   8.293 -0.1808 -0.2841  0.6266
  955MOL0     H28914  11.733   5.874   8.213 -0.5223  0.6153 -0.5829
  955MOL0     H28915  11.965   5.953   8.225 -0.7753 -1.5521 -0.8270
  955MOL0     H28916  11.857   5.995   8.078 -1.4224  0.5856  0.2751
  955MOL0     H28917  12.109   6.143   8.168  1.4792 -2.2379 -0.9702
  955MOL0     H28918  11.997   6.191   8.044  0.4285  1.3471  0.1998
  955MOL0     H28919  12.214   6.096   7.966  2.1685 -1.8970  2.2972
  955MOL0     H28920  12.076   6.015   7.897  0.6200  0.8843 -0.0144
  955MOL0     H28921  12.109   5.838   8.065 -0.4762  0.0170 -2.1676
  955MOL0     H28922  12.266   5.928   8.126  0.2806  2.7925 -0.2500
  955MOL0     H28923  12.420   5.710   7.801  0.0734  0.2639 -0.4271
  955MOL0     H28924  11.652   6.278   8.329 -2.3286  0.0013  0.3319
  955MOL0     H28925  11.436   6.214   8.394 -0.4916  0.7852  0.0255
  956MOL0     O28926   4.942   1.340   9.795 -0.0082  0.5774  0.3117
  956MOL0     C28927   4.847   1.417   9.762 -0.5132 -0.0250  0.1511
  956MOL0     O28928   4.726   1.375   9.734  0.5554  0.8328  0.7526
  956MOL0     C28929   4.664   1.249   9.756  0.0119  0.4424  0.0096
  956MOL0     C28930   4.565   1.249   9.863  0.4286 -0.1946  0.0635
  956MOL0     C28931   4.485   1.137   9.890  0.1754 -0.0520  0.3799
  956MOL0     C28932   4.503   1.018   9.817 -0.6058 -0.8507  0.6582
  956MOL0     O28933   4.425   0.904   9.833 -0.6409  0.0155  0.0542
  956MOL0     C28934   4.412   0.856   9.968 -0.4079 -0.7939 -0.1574
  956MOL0     C28935   4.352   0.713   9.955 -1.0183 -0.4130  0.3827
  956MOL0     C28936   4.208   0.707   9.927 -0.6452  0.6083 -0.0813
  956MOL0     C28937   4.140   0.578   9.967 -0.2564  0.1733  0.4460
  956MOL0     C28938   4.002   0.553   9.911  0.5988  0.5049 -0.4872
  956MOL0     C28939   3.945   0.417   9.977 -0.4499  0.8364  0.1247
  956MOL0     C28940   3.806   0.386   9.929  0.2707 -0.4391  0.2315
  956MOL0     C28941   3.765   0.234   9.929 -0.6223 -0.6970 -0.3977
  956MOL0     N28942   3.636   0.216   9.878 -0.2767 -0.5084  0.6056
  956MOL0     C28943   3.564   0.306   9.790  0.4371  0.6262  0.4245
  956MOL0     C28944   3.431   0.260   9.790 -0.9675  0.4108 -0.8413
  956MOL0     C28945   3.318   0.317   9.715 -0.1123 -0.1438  0.9317
  956MOL0     C28946   3.235   0.416   9.797  0.1198  0.2548 -0.5899
  956MOL0     C28947   3.170   0.361   9.925  0.2029  0.0405  0.3960
  956MOL0     C28948   3.078   0.241   9.910 -0.5531 -0.0587  0.5723
  956MOL0     O28949   2.987   0.260   9.794  0.0144  0.2399  0.4481
  956MOL0     C28950   2.858   0.254   9.829 -0.5644 -0.6475  0.6898
  956MOL0     C28951   2.790   0.366   9.821  0.7891  0.4952  0.3257
  956MOL0     C28952   2.648   0.362   9.847 -0.0642 -0.5096  0.0248
  956MOL0     C28953   2.573   0.503   9.843  0.5153 -0.6942  0.7917
  956MOL0     C28954   2.579   0.240   9.887  0.4506  0.7781  0.9851
  956MOL0     C28955   2.438   0.219   9.925  0.0500 -0.1650  0.4973
  956MOL0     O28956   2.381   0.096   9.908  0.1696  0.3457 -0.0820
  956MOL0     C28957   2.238   0.103   9.922 -1.0029 -0.5432  0.2864
  956MOL0     C28958   2.153   0.196   9.858 -0.0020  0.1210  0.0147
  956MOL0     C28959   2.009   0.190   9.863  0.9302  0.4793  0.0927
  956MOL0     C28960   1.950   0.095   9.948 -0.0832  0.1676 -0.0961
  956MOL0     O28961   1.814   0.100   9.975  0.1851 -0.0005 -0.0547
  956MOL0     C28962   1.775   0.046  10.106  0.5222  0.1276 -0.1958
  956MOL0     C28963   1.624   0.031  10.115 -0.0978  0.3496  0.5151
  956MOL0     C28964   1.573  -0.090  10.039  1.3687  0.4316  0.5523
  956MOL0     C28965   1.417  -0.079  10.021 -0.5079 -0.0892 -0.4212
  956MOL0     C28966   1.354  -0.217   9.992 -0.0751 -0.5565  0.5543
  956MOL0     C28967   1.207  -0.197  10.019  0.3576 -0.4294 -0.1178
  956MOL0     C28968   1.129  -0.322   9.984  0.5578  0.0550  0.7978
  956MOL0     C28969   1.129  -0.359   9.837 -0.0420 -0.2956 -0.5177
  956MOL0    Cl28970   1.000  -0.474   9.791  0.8394 -0.2068  0.0776
  956MOL0     C28971   2.041   0.001  10.009 -0.2533  0.5266  0.0934
  956MOL0     C28972   2.181   0.008   9.990  0.8008  0.2125 -0.9936
  956MOL0     O28973   2.380   0.324   9.959 -0.2944 -0.1807 -0.1219
  956MOL0     C28974   2.666   0.130   9.898  0.3665  0.8058 -0.1598
  956MOL0     C28975   2.801   0.135   9.869  0.0217  1.0758 -0.6296
  956MOL0     N28976   3.420   0.162   9.890  0.0543  0.3466 -0.1774
  956MOL0     N28977   3.541   0.136   9.933  0.7368  1.1008 -0.3139
  956MOL0     C28978   4.599   1.027   9.710 -0.2835  0.2091  0.0890
  956MOL0     C28979   4.678   1.132   9.677  0.9294  0.0832 -0.2689
  956MOL0     C28980   4.872   1.558   9.728 -0.3417 -0.6589  0.2418
  956MOL0     C28981   4.779   1.655   9.692 -0.5462 -0.2332 -0.8418
  956MOL0     C28982   4.810   1.787   9.678  0.5140 -0.5359  0.5248
  956MOL0     C28983   4.941   1.836   9.702  0.7973  0.3925  0.6229
  956MOL0     O28984   4.955   1.970   9.671 -0.4215  0.4764  0.5245
  956MOL0     C28985   5.086   2.025   9.647  0.9039  0.1786  0.4024
  956MOL0     C28986   5.076   2.177   9.624  0.4109 -0.0611 -0.2007
  956MOL0     C28987   5.002   2.213   9.497 -0.4988  0.7591 -0.1036
  956MOL0     C28988   4.935   2.353   9.499  0.1006  0.3234 -0.1095
  956MOL0     C28989   5.030   2.458   9.536  0.0720 -0.7491 -1.1345
  956MOL0     C28990   5.109   2.548   9.555 -0.7394 -0.6333 -0.0144
  956MOL0     C28991   5.047   1.739   9.730  0.9859 -0.1047 -0.3397
  956MOL0     C28992   5.005   1.604   9.739  0.1273 -0.1682  0.1903
  956MOL0     H28993   4.541   1.335   9.924  2.1677  0.2031  0.2330
  956MOL0     H28994   4.411   1.133   9.970  0.4307  1.7573  0.7535
  956MOL0     H28995   4.508   0.838  10.016 -0.0210 -0.5818 -0.8385
  956MOL0     H28996   4.349   0.916  10.034 -1.1491 -0.2451 -1.3178
  956MOL0     H28997   4.403   0.656   9.877 -1.6571  0.5843 -0.8068
  956MOL0     H28998   4.371   0.669  10.054 -1.0154  1.8384  1.4551
  956MOL0     H28999   4.147   0.785   9.975 -1.3802 -0.2169  0.3580
  956MOL0     H29000   4.190   0.724   9.820  1.8974  1.4515 -0.4343
  956MOL0     H29001   4.206   0.498   9.933  0.8587  1.1171  0.3204
  956MOL0     H29002   4.137   0.575  10.076  0.1433 -2.9685  0.4568
  956MOL0     H29003   3.940   0.642   9.927 -1.1791 -0.9031  1.0387
  956MOL0     H29004   4.014   0.541   9.803  0.9850  1.0151 -0.5041
  956MOL0     H29005   4.026   0.350   9.947  1.0905  2.5476  0.3189
  956MOL0     H29006   3.951   0.440  10.084 -0.8672  2.1475 -0.1144
  956MOL0     H29007   3.732   0.446   9.983 -0.0534  1.2649 -1.9537
  956MOL0     H29008   3.798   0.428   9.828 -1.7875  2.5707  1.4821
  956MOL0     H29009   3.783   0.190  10.027  2.2559  0.0826 -0.4598
  956MOL0     H29010   3.832   0.176   9.864  0.7856  1.0281 -0.5849
  956MOL0     H29011   3.604   0.385   9.727  0.1096 -0.7940 -1.6633
  956MOL0     H29012   3.354   0.373   9.628 -1.8522 -2.4621 -1.4629
  956MOL0     H29013   3.256   0.233   9.681  0.3871  0.0669 -0.5623
  956MOL0     H29014   3.161   0.464   9.732 -0.1960 -3.9345 -3.7285
  956MOL0     H29015   3.303   0.499   9.816  2.8837 -1.3384 -2.7453
  956MOL0     H29016   3.103   0.443   9.954 -0.6870 -0.1565 -1.0251
  956MOL0     H29017   3.240   0.345  10.008 -0.8997 -0.2729  1.2999
  956MOL0     H29018   3.021   0.240  10.003  1.5316 -0.2526  1.9104
  956MOL0     H29019   3.134   0.147   9.905 -0.2145  0.0930  1.3837
  956MOL0     H29020   2.845   0.457   9.797  2.6885 -0.7706 -0.3107
  956MOL0     H29021   2.517   0.515   9.750  0.3845 -2.1834  0.6567
  956MOL0     H29022   2.507   0.514   9.930 -1.2823 -1.6085 -0.3815
  956MOL0     H29023   2.647   0.583   9.833 -1.4350  1.2946  1.3958
  956MOL0     H29024   2.186   0.274   9.790  0.2658  0.6737  0.7693
  956MOL0     H29025   1.946   0.260   9.810  1.8747  0.9825 -0.3805
  956MOL0     H29026   1.831  -0.041  10.140  1.0039  0.7263  0.5922
  956MOL0     H29027   1.792   0.125  10.180 -1.0367  0.8694 -0.5783
  956MOL0     H29028   1.606   0.024  10.223  1.9948 -0.4876  0.8504
  956MOL0     H29029   1.577   0.124  10.080  2.2683  1.3897 -0.0676
  956MOL0     H29030   1.600  -0.183  10.090  2.6165 -0.5176 -1.6877
  956MOL0     H29031   1.615  -0.099   9.939  2.7554  3.9876  0.6839
  956MOL0     H29032   1.388  -0.046  10.121  1.7860  1.7613 -0.2916
  956MOL0     H29033   1.389  -0.001   9.950 -0.5990  1.2880  1.0639
  956MOL0     H29034   1.392  -0.297  10.056  0.1502 -0.0702  1.0324
  956MOL0     H29035   1.371  -0.235   9.885  1.1918 -0.1605  0.6728
  956MOL0     H29036   1.176  -0.163  10.118  0.1700 -1.9621  0.3830
  956MOL0     H29037   1.169  -0.121   9.952  0.4390 -0.3417 -0.0661
  956MOL0     H29038   1.026  -0.305  10.018 -0.6815  0.2866 -2.6455
  956MOL0     H29039   1.170  -0.407  10.038  0.0014 -0.6671  0.1136
  956MOL0     H29040   1.227  -0.402   9.813  1.9116  2.9350  0.8771
  956MOL0     H29041   1.139  -0.266   9.779 -1.6545  0.6612  0.6758
  956MOL0     H29042   2.001  -0.080  10.068  1.2828  1.4313  2.5222
  956MOL0     H29043   2.234  -0.079  10.030 -1.7183 -0.5809  0.8388
  956MOL0     H29044   2.633   0.031   9.929 -0.6803 -0.0246 -3.5350
  956MOL0     H29045   2.863   0.047   9.879 -0.3610  1.0048  1.4103
  956MOL0     H29046   4.610   0.945   9.640 -1.2139  0.4215 -0.3218
  956MOL0     H29047   4.750   1.117   9.598  1.8405  1.4383  0.2769
  956MOL0     H29048   4.676   1.622   9.678 -0.7576 -1.0209  1.9141
  956MOL0     H29049   4.735   1.857   9.646 -0.0743 -0.5000  1.9113
  956MOL0     H29050   5.155   2.004   9.730  0.5977  0.9283  0.8583
  956MOL0     H29051   5.120   1.994   9.548  0.8300  2.2448 -0.3104
  956MOL0     H29052   5.173   2.228   9.623  0.2163  0.3109 -1.1717
  956MOL0     H29053   5.017   2.223   9.704 -1.1440 -1.0372 -0.7307
  956MOL0     H29054   4.932   2.131   9.478  0.7809 -0.0595 -1.5148
  956MOL0     H29055   5.077   2.213   9.418 -1.0024 -2.8368 -0.7638
  956MOL0     H29056   4.845   2.346   9.561 -0.1788 -1.2376 -0.6562
  956MOL0     H29057   4.899   2.372   9.398  1.1462  2.1427 -0.1971
  956MOL0     H29058   5.170   2.630   9.587 -2.7171  1.3118 -0.9952
  956MOL0     H29059   5.153   1.754   9.746  1.1558  0.0337 -1.5084
  956MOL0     H29060   5.082   1.532   9.764  0.6427  0.9804  2.0793
  957MOL0     O29061   1.641   0.643   1.500 -0.0980 -0.3550  0.3419
  957MOL0     C29062   1.624   0.532   1.555 -0.9098 -0.5790  0.1765
  957MOL0     O29063   1.502   0.471   1.569  0.7526  0.2633  0.1861
  957MOL0     C29064   1.381   0.527   1.536  0.0918  0.7634 -0.0114
  957MOL0     C29065   1.363   0.611   1.425  1.3160  0.0101  0.0981
  957MOL0     C29066   1.251   0.686   1.410  0.2452  0.3723 -0.3659
  957MOL0     C29067   1.139   0.674   1.500 -0.1235 -0.1024 -0.6685
  957MOL0     O29068   1.018   0.738   1.468 -1.1396  0.1490  0.8195
  957MOL0     C29069   0.897   0.680   1.522 -0.9397  0.2683  0.2329
  957MOL0     C29070   0.776   0.734   1.456 -0.1343 -0.1784  0.6610
  957MOL0     C29071   0.661   0.667   1.523 -0.4815  0.4162 -1.0075
  957MOL0     C29072   0.536   0.690   1.445 -0.6338 -0.0297 -0.3064
  957MOL0     C29073   0.419   0.635   1.523  0.7850  0.7658  0.2702
  957MOL0     C29074   0.294   0.675   1.435 -0.8143 -0.4027  0.0811
  957MOL0     C29075   0.173   0.670   1.527 -1.0076  0.4826  0.0735
  957MOL0     C29076   0.047   0.666   1.439  0.8018 -0.0447 -0.2125
  957MOL0     N29077  -0.069   0.689   1.525 -0.0843  0.2061  0.1988
  957MOL0     C29078  -0.092   0.623   1.641 -0.6075  0.0399 -0.3390
  957MOL0     C29079  -0.218   0.664   1.680 -0.6722  0.4212 -0.3773
  957MOL0     C29080  -0.287   0.623   1.817 -0.1475  0.0102  0.0193
  957MOL0     C29081  -0.439   0.638   1.799  0.0268 -0.5759  0.6241
  957MOL0     C29082  -0.511   0.587   1.926  0.1937 -0.1286  0.5392
  957MOL0     C29083  -0.648   0.648   1.941 -0.3471  0.2180 -0.5488
  957MOL0     O29084  -0.639   0.791   1.981  0.1193 -0.1352  0.1429
  957MOL0     C29085  -0.758   0.860   1.981 -0.0163  0.5624 -0.1805
  957MOL0     C29086  -0.756   0.999   1.956 -0.1107 -0.7092  0.7551
  957MOL0     C29087  -0.870   1.078   1.950  0.1912 -0.5290 -0.4222
  957MOL0     C29088  -0.858   1.227   1.919 -0.0040  0.4698  0.0862
  957MOL0     C29089  -0.998   1.024   1.985 -1.0543  0.1789  0.2481
  957MOL0     C29090  -1.129   1.098   1.981 -0.1791  0.1611 -0.2711
  957MOL0     O29091  -1.238   1.015   1.973  0.3856 -0.0880  1.2191
  957MOL0     C29092  -1.357   1.079   1.942 -0.0201 -0.2620  0.5456
  957MOL0     C29093  -1.402   1.125   1.812 -1.3552 -0.0768 -0.1396
  957MOL0     C29094  -1.530   1.183   1.794 -1.0671  0.6202  0.0117
  957MOL0     C29095  -1.621   1.187   1.902 -0.5369  0.1917  0.1928
  957MOL0     O29096  -1.744   1.228   1.890  0.5746 -0.7939  0.3137
  957MOL0     C29097  -1.782   1.315   1.778 -0.1971  0.0256  0.2770
  957MOL0     C29098  -1.918   1.372   1.818 -0.0476  0.3988 -1.0288
  957MOL0     C29099  -1.997   1.397   1.692 -0.1418 -0.1197 -0.3861
  957MOL0     C29100  -2.137   1.454   1.720 -0.5127  0.5323  0.8127
  957MOL0     C29101  -2.231   1.447   1.588 -0.5955  0.1738 -0.4973
  957MOL0     C29102  -2.375   1.488   1.614  0.5673  0.4421 -0.7499
  957MOL0     C29103  -2.449   1.501   1.476 -0.6388  0.2020  0.8023
  957MOL0     C29104  -2.600   1.536   1.489 -0.6571  1.1715 -1.2607
  957MOL0    Cl29105  -2.689   1.515   1.343 -0.0389  1.1947 -0.2590
  957MOL0     C29106  -1.579   1.131   2.020 -0.2240 -0.5432 -0.7070
  957MOL0     C29107  -1.454   1.078   2.041 -0.5630  0.9528  0.0484
  957MOL0     O29108  -1.132   1.219   1.989  0.3811 -0.0493 -0.3878
  957MOL0     C29109  -1.002   0.882   1.999  0.2603 -0.3058 -0.1021
  957MOL0     C29110  -0.888   0.807   1.995  0.5643 -0.7434  0.0418
  957MOL0     N29111  -0.277   0.743   1.583  0.0489 -0.5939  0.3833
  957MOL0     N29112  -0.184   0.764   1.498 -0.4573 -0.1148 -0.1992
  957MOL0     C29113   1.157   0.591   1.612  0.1936  0.1260  0.5340
  957MOL0     C29114   1.278   0.524   1.634 -0.7674  0.6496  1.0886
  957MOL0     C29115   1.739   0.457   1.604  0.0342  0.0908  0.0911
  957MOL0     C29116   1.728   0.324   1.648  0.5529 -0.4025  0.5495
  957MOL0     C29117   1.845   0.244   1.669 -0.6248  0.5366 -0.1502
  957MOL0     C29118   1.976   0.308   1.657 -0.6269  0.6539 -0.3435
  957MOL0     O29119   2.098   0.253   1.689  0.5280 -0.2545  0.4069
  957MOL0     C29120   2.130   0.110   1.679  0.8753 -0.3659  0.6431
  957MOL0     C29121   2.120   0.053   1.541 -0.5587  0.1633 -0.0675
  957MOL0     C29122   2.246   0.070   1.457  0.3305  0.1736  0.4518
  957MOL0     C29123   2.257   0.208   1.420  0.2491  0.5521 -1.5824
  957MOL0     C29124   2.373   0.222   1.335 -0.4255 -0.0162  0.0743
  957MOL0     C29125   2.473   0.247   1.272 -0.7595 -0.6754  0.2237
  957MOL0     C29126   1.988   0.438   1.628  0.6074 -0.4045 -0.1607
  957MOL0     C29127   1.871   0.510   1.591 -0.1378  0.3247 -0.2400
  957MOL0     H29128   1.442   0.629   1.353  0.2550  3.0656 -0.4666
  957MOL0     H29129   1.240   0.749   1.321  2.6538 -0.0850 -1.0594
  957MOL0     H29130   0.892   0.574   1.496 -0.1511  0.5953 -1.3984
  957MOL0     H29131   0.884   0.693   1.630 -0.7345 -0.5723  0.3700
  957MOL0     H29132   0.780   0.843   1.451  1.6379 -0.1785  1.5011
  957MOL0     H29133   0.796   0.705   1.353 -0.6121 -0.6685  0.7009
  957MOL0     H29134   0.660   0.559   1.538 -0.3041  0.6450  0.9226
  957MOL0     H29135   0.657   0.711   1.623 -2.1725 -1.3061 -0.2421
  957MOL0     H29136   0.537   0.798   1.425  0.5473  0.0218 -0.0324
  957MOL0     H29137   0.542   0.641   1.347 -0.3142  1.1121 -0.8740
  957MOL0     H29138   0.425   0.526   1.528 -3.0994  0.4381  1.4549
  957MOL0     H29139   0.413   0.675   1.625  3.1077 -0.1106  0.7954
  957MOL0     H29140   0.310   0.777   1.398  2.5418 -0.7659  0.2116
  957MOL0     H29141   0.287   0.601   1.355  1.3125 -0.5862  0.0041
  957MOL0     H29142   0.163   0.575   1.582 -0.3657  0.4457  0.1295
  957MOL0     H29143   0.194   0.748   1.600  3.4856  0.0309 -0.4833
  957MOL0     H29144   0.026   0.565   1.403 -1.5862  0.0517  0.7113
  957MOL0     H29145   0.038   0.732   1.352 -1.3957  0.0369  0.0119
  957MOL0     H29146  -0.034   0.557   1.706 -0.1451  1.3820  0.6620
  957MOL0     H29147  -0.268   0.518   1.844 -0.4427  0.0116  0.2370
  957MOL0     H29148  -0.249   0.693   1.891  3.1228  1.4591 -2.7780
  957MOL0     H29149  -0.480   0.592   1.709 -0.4803  0.4612  0.3051
  957MOL0     H29150  -0.462   0.745   1.788  0.1530 -0.8134 -3.1184
  957MOL0     H29151  -0.448   0.611   2.012  1.3715  1.6097 -0.7192
  957MOL0     H29152  -0.518   0.478   1.928 -1.4219 -0.0423  0.2590
  957MOL0     H29153  -0.685   0.592   2.027  2.5732 -0.7165  0.2330
  957MOL0     H29154  -0.711   0.627   1.854 -0.5436 -1.4330 -0.0305
  957MOL0     H29155  -0.660   1.048   1.947 -1.0621  1.5664  2.1607
  957MOL0     H29156  -0.896   1.290   1.999  0.7747 -0.1848  0.9953
  957MOL0     H29157  -0.752   1.250   1.907  0.4489 -1.8070 -0.7597
  957MOL0     H29158  -0.909   1.249   1.825  1.6591  1.2032 -0.6894
  957MOL0     H29159  -1.330   1.134   1.732  1.6051 -1.8353  2.1128
  957MOL0     H29160  -1.565   1.214   1.695 -1.6043  2.8524  0.8330
  957MOL0     H29161  -1.715   1.390   1.734  0.1079 -2.2670 -3.6321
  957MOL0     H29162  -1.797   1.254   1.689 -1.0571  0.8464 -0.1621
  957MOL0     H29163  -1.969   1.299   1.882 -0.5941  2.8390  1.5442
  957MOL0     H29164  -1.897   1.464   1.875  1.3407 -0.2074 -0.5093
  957MOL0     H29165  -1.990   1.306   1.633  3.8954 -0.5940  0.5413
  957MOL0     H29166  -1.941   1.473   1.636 -1.0988  0.9724  0.0896
  957MOL0     H29167  -2.177   1.388   1.798  1.4877 -3.3677 -1.1731
  957MOL0     H29168  -2.123   1.553   1.763  2.0783  1.0104 -0.9442
  957MOL0     H29169  -2.222   1.350   1.538  4.1916  0.6919 -1.1605
  957MOL0     H29170  -2.185   1.519   1.520  2.4721  1.6087  2.7508
  957MOL0     H29171  -2.426   1.416   1.679 -0.4903  2.6126  0.9963
  957MOL0     H29172  -2.386   1.587   1.661  0.1827 -1.1578  2.8995
  957MOL0     H29173  -2.433   1.405   1.426  0.2162 -0.0104  1.4701
  957MOL0     H29174  -2.400   1.581   1.421  0.1546 -1.4383 -1.0266
  957MOL0     H29175  -2.608   1.639   1.523 -0.9686  0.9023 -0.4902
  957MOL0     H29176  -2.650   1.468   1.559  0.6817 -0.9795 -2.2463
  957MOL0     H29177  -1.652   1.118   2.100  1.5343 -1.3294  0.8483
  957MOL0     H29178  -1.420   1.031   2.133 -1.7471 -0.2920 -0.1294
  957MOL0     H29179  -1.087   0.814   2.007  1.2625 -1.6475 -0.5473
  957MOL0     H29180  -0.900   0.701   2.017  1.0977 -0.1503  4.0170
  957MOL0     H29181   1.083   0.588   1.691 -1.5798  2.8012 -0.8481
  957MOL0     H29182   1.297   0.474   1.728 -1.1585  0.5982  1.1419
  957MOL0     H29183   1.630   0.277   1.655 -0.4884  1.6201  0.4480
  957MOL0     H29184   1.844   0.141   1.704  1.1970  0.1750 -1.0556
  957MOL0     H29185   2.231   0.103   1.721  1.0365  0.0436  0.3201
  957MOL0     H29186   2.053   0.065   1.743  0.9256 -1.1506  0.1712
  957MOL0     H29187   2.037   0.092   1.482 -0.8036  0.6441  0.5799
  957MOL0     H29188   2.106  -0.055   1.555  0.0729  0.1454  0.4607
  957MOL0     H29189   2.223   0.010   1.369  0.0522  0.4179  0.3550
  957MOL0     H29190   2.334   0.028   1.505 -1.0582 -1.5359  1.6322
  957MOL0     H29191   2.265   0.282   1.500  0.0210 -0.1542 -0.9076
  957MOL0     H29192   2.168   0.234   1.361  0.0971 -1.2244 -2.1871
  957MOL0     H29193   2.567   0.258   1.221 -1.4070 -1.6981 -1.2286
  957MOL0     H29194   2.081   0.492   1.620 -0.7430  2.0989 -0.0974
  957MOL0     H29195   1.876   0.606   1.540  0.3229 -0.0767 -0.9689
  958MOL0     O29196   5.093   6.283   0.318  0.8170 -0.2993 -0.0965
  958MOL0     C29197   5.120   6.371   0.397 -1.3543 -0.1671  0.2201
  958MOL0     O29198   5.039   6.459   0.466 -0.1810  0.7467  0.1673
  958MOL0     C29199   4.902   6.449   0.432 -0.2896  0.7068 -0.3869
  958MOL0     C29200   4.859   6.479   0.308  0.5372  0.3951  0.5749
  958MOL0     C29201   4.725   6.467   0.269 -0.2147  0.3358  0.6960
  958MOL0     C29202   4.632   6.439   0.368  0.1419 -0.3086  0.5171
  958MOL0     O29203   4.495   6.443   0.353 -0.1773  0.0025  0.3072
  958MOL0     C29204   4.441   6.344   0.260 -0.5480 -0.9567  0.5121
  958MOL0     C29205   4.309   6.395   0.199 -1.0394 -0.2750 -0.4025
  958MOL0     C29206   4.259   6.307   0.086  1.0093  0.1153  0.3975
  958MOL0     C29207   4.180   6.185   0.138  0.4852  0.0674  0.3376
  958MOL0     C29208   4.147   6.094   0.023  0.2159 -0.5640 -0.6034
  958MOL0     C29209   4.029   6.144  -0.060 -0.3378 -0.2255 -0.6609
  958MOL0     C29210   3.982   6.038  -0.163  0.0346  0.1868  0.8081
  958MOL0     C29211   3.889   6.085  -0.263 -0.7773 -0.2319  0.0047
  958MOL0     N29212   3.795   6.193  -0.228 -0.4303 -0.0118 -0.1341
  958MOL0     C29213   3.822   6.333  -0.227 -0.3449  0.0749  0.4825
  958MOL0     C29214   3.706   6.388  -0.180  0.1201 -0.9163  0.2948
  958MOL0     C29215   3.690   6.540  -0.165 -0.2482 -0.0870 -0.7021
  958MOL0     C29216   3.557   6.604  -0.209 -0.1558  0.0670 -0.0548
  958MOL0     C29217   3.456   6.565  -0.107  0.0354 -0.3325 -0.1388
  958MOL0     C29218   3.308   6.614  -0.132 -0.1382  0.3277  0.4719
  958MOL0     O29219   3.239   6.612  -0.005 -0.0025 -0.0662  0.0920
  958MOL0     C29220   3.101   6.637   0.005 -0.3961 -1.0797  0.3605
  958MOL0     C29221   3.019   6.684  -0.098 -0.8776  0.4439  1.0477
  958MOL0     C29222   2.891   6.728  -0.081 -0.1086 -0.0267 -0.9053
  958MOL0     C29223   2.800   6.740  -0.195 -0.4874 -0.6204  0.2530
  958MOL0     C29224   2.845   6.744   0.057 -0.6343  1.1912  0.2573
  958MOL0     C29225   2.708   6.776   0.107  0.2163  0.6197 -0.6025
  958MOL0     O29226   2.700   6.862   0.208  0.0726  0.2753  0.3461
  958MOL0     C29227   2.572   6.877   0.273 -1.2118 -0.2059  0.9233
  958MOL0     C29228   2.496   6.772   0.323  0.5213  0.4135  0.2477
  958MOL0     C29229   2.368   6.794   0.371 -1.5168  0.2718  0.9502
  958MOL0     C29230   2.312   6.922   0.365  0.1153 -0.7331  0.3865
  958MOL0     O29231   2.178   6.953   0.404 -0.8722 -0.5215 -0.3249
  958MOL0     C29232   2.082   6.851   0.401  0.2739 -0.2286  0.2018
  958MOL0     C29233   1.944   6.917   0.404 -0.2185  0.4361  0.9469
  958MOL0     C29234   1.824   6.809   0.406  0.3539  0.8098 -0.6836
  958MOL0     C29235   1.712   6.859   0.504 -1.0261  0.5920 -0.4238
  958MOL0     C29236   1.620   6.740   0.551 -0.1850 -0.3792 -0.3292
  958MOL0     C29237   1.528   6.767   0.667  0.1883 -0.0039 -0.6562
  958MOL0     C29238   1.444   6.644   0.699 -0.6399  0.3761 -0.0357
  958MOL0     C29239   1.310   6.670   0.772  0.0437  0.1710 -0.8119
  958MOL0    Cl29240   1.352   6.693   0.952  0.3841 -0.1108 -0.0316
  958MOL0     C29241   2.391   7.032   0.329 -0.4901 -0.1901 -0.6896
  958MOL0     C29242   2.524   7.009   0.280 -0.7062 -0.3927  0.0186
  958MOL0     O29243   2.610   6.726   0.047 -0.6681  0.2168  0.6806
  958MOL0     C29244   2.930   6.712   0.164 -0.3080 -0.3023  0.0045
  958MOL0     C29245   3.053   6.652   0.141 -0.5185  0.8579  0.5662
  958MOL0     N29246   3.615   6.286  -0.158  0.0063 -0.5788  0.1674
  958MOL0     N29247   3.671   6.177  -0.171 -0.1126  0.4841  0.1040
  958MOL0     C29248   4.681   6.409   0.499 -0.5904  0.2128  0.1445
  958MOL0     C29249   4.814   6.411   0.526  0.2715 -0.3981  0.1893
  958MOL0     C29250   5.269   6.387   0.411  0.4495  0.7333  0.1561
  958MOL0     C29251   5.322   6.471   0.508  0.3581  0.6822 -0.2793
  958MOL0     C29252   5.453   6.504   0.515  0.5167  0.1623  0.8331
  958MOL0     C29253   5.546   6.444   0.423  1.0073 -0.3534 -0.2981
  958MOL0     O29254   5.685   6.471   0.417 -0.4193  0.7146 -0.0333
  958MOL0     C29255   5.749   6.567   0.511 -0.4926  0.3781  0.0496
  958MOL0     C29256   5.889   6.601   0.467  1.0264  0.9858  0.5466
  958MOL0     C29257   5.974   6.695   0.549 -0.4481 -0.2149  0.7449
  958MOL0     C29258   5.905   6.819   0.598  0.2120 -0.9864 -0.5835
  958MOL0     C29259   5.819   6.891   0.500 -0.7668 -0.7837  0.3578
  958MOL0     C29260   5.749   6.940   0.406 -0.1461 -0.5837 -0.4375
  958MOL0     C29261   5.497   6.357   0.326 -1.0183  0.1478  0.5211
  958MOL0     C29262   5.356   6.341   0.308 -0.6008 -0.5432 -0.0287
  958MOL0     H29263   4.937   6.506   0.238  0.3641  0.7091  0.5007
  958MOL0     H29264   4.686   6.493   0.171  1.4551  1.1110  0.1959
  958MOL0     H29265   4.513   6.320   0.182  0.2230  1.5028  0.3785
  958MOL0     H29266   4.425   6.253   0.319 -2.4075 -1.2088 -0.3074
  958MOL0     H29267   4.232   6.406   0.276 -0.8503  2.3799 -0.5040
  958MOL0     H29268   4.325   6.496   0.159 -1.2304  1.6135  3.7717
  958MOL0     H29269   4.200   6.371   0.020 -1.2433 -2.1128  0.1250
  958MOL0     H29270   4.346   6.266   0.034 -0.6043 -1.0898 -1.4644
  958MOL0     H29271   4.249   6.119   0.191 -0.0594  0.5345  1.6628
  958MOL0     H29272   4.093   6.216   0.197 -1.2964  4.5028 -3.9239
  958MOL0     H29273   4.237   6.110  -0.038  0.5542  0.7845  0.2100
  958MOL0     H29274   4.139   5.990   0.054  4.5442 -1.2725 -1.1352
  958MOL0     H29275   3.946   6.164   0.008 -2.7688  1.3888 -3.7990
  958MOL0     H29276   4.054   6.239  -0.110 -1.0898 -1.9598 -4.7383
  958MOL0     H29277   4.071   6.006  -0.217 -0.4170 -0.9987  0.7393
  958MOL0     H29278   3.944   5.947  -0.115 -1.0607  0.2575  0.1195
  958MOL0     H29279   3.842   5.995  -0.302 -0.8055 -0.9808  1.6783
  958MOL0     H29280   3.958   6.118  -0.341 -1.5482 -1.5044 -1.2586
  958MOL0     H29281   3.917   6.381  -0.246  0.9233 -1.9711  1.3251
  958MOL0     H29282   3.714   6.562  -0.060  1.8227  2.0976 -1.5432
  958MOL0     H29283   3.776   6.581  -0.220  2.0070 -2.3968  0.8593
  958MOL0     H29284   3.533   6.588  -0.314 -2.8851  1.9902  0.1792
  958MOL0     H29285   3.578   6.709  -0.188  1.2073 -0.5869  2.2040
  958MOL0     H29286   3.501   6.615  -0.020  1.4331  0.2911 -1.1996
  958MOL0     H29287   3.454   6.459  -0.078  0.2996 -0.3932 -0.3391
  958MOL0     H29288   3.264   6.541  -0.201  2.6790 -0.7106 -0.3337
  958MOL0     H29289   3.311   6.714  -0.175  2.8181  0.1340  0.0216
  958MOL0     H29290   3.066   6.675  -0.196 -3.0458  3.0645 -0.3674
  958MOL0     H29291   2.860   6.751  -0.286 -0.3934  0.6647  0.4551
  958MOL0     H29292   2.735   6.652  -0.203  0.7002 -1.6490  1.5737
  958MOL0     H29293   2.726   6.820  -0.183 -2.6569 -2.4318 -0.3483
  958MOL0     H29294   2.541   6.673   0.312 -2.0597 -0.7899 -0.1225
  958MOL0     H29295   2.311   6.714   0.416  0.3112 -0.0333  2.8440
  958MOL0     H29296   2.089   6.802   0.303  1.7861 -0.6900  0.5168
  958MOL0     H29297   2.084   6.778   0.483 -2.3523  1.4652  1.9322
  958MOL0     H29298   1.937   6.993   0.481  2.5280 -0.1710  1.9079
  958MOL0     H29299   1.931   6.973   0.310 -0.0767 -0.9767  0.0505
  958MOL0     H29300   1.866   6.713   0.435  2.5373  1.3851 -1.7496
  958MOL0     H29301   1.787   6.786   0.306  2.2047 -1.4306 -0.9364
  958MOL0     H29302   1.769   6.893   0.591  0.4835  2.8955 -2.1619
  958MOL0     H29303   1.654   6.944   0.466 -1.4822  0.7371  0.5641
  958MOL0     H29304   1.685   6.659   0.585  0.3797 -1.0560 -2.7727
  958MOL0     H29305   1.562   6.705   0.464 -0.8024  1.9297 -0.9131
  958MOL0     H29306   1.584   6.796   0.756  0.6601 -0.5287 -0.7847
  958MOL0     H29307   1.465   6.855   0.648 -0.6269  0.0283  1.8348
  958MOL0     H29308   1.508   6.575   0.755  0.8505 -0.0778 -2.1323
  958MOL0     H29309   1.433   6.598   0.600 -1.6514 -1.4347  0.8701
  958MOL0     H29310   1.244   6.582   0.773  0.0892  0.1404 -0.0096
  958MOL0     H29311   1.244   6.745   0.727  0.6858 -0.5398 -3.0898
  958MOL0     H29312   2.374   7.138   0.346 -0.2405  0.1115 -2.1352
  958MOL0     H29313   2.589   7.088   0.244  0.5559 -2.2685 -2.1097
  958MOL0     H29314   2.919   6.742   0.268  1.4585  0.8213 -0.1023
  958MOL0     H29315   3.119   6.626   0.223  0.1277  1.6574  0.3142
  958MOL0     H29316   4.616   6.376   0.579  1.3911 -0.4698  1.5505
  958MOL0     H29317   4.844   6.390   0.628  0.9114  1.2217  0.3746
  958MOL0     H29318   5.256   6.506   0.587 -2.5286 -0.1250 -2.2065
  958MOL0     H29319   5.481   6.582   0.585  4.1182 -0.5398  0.3749
  958MOL0     H29320   5.700   6.665   0.514 -0.3301  0.4472  1.7237
  958MOL0     H29321   5.738   6.527   0.612  0.6676 -0.9095 -0.2989
  958MOL0     H29322   5.871   6.647   0.369 -2.1089  1.5262  1.2659
  958MOL0     H29323   5.945   6.512   0.437 -2.2803 -1.1882  0.1580
  958MOL0     H29324   6.060   6.722   0.487  0.1722  1.3620  2.2222
  958MOL0     H29325   6.026   6.640   0.628  2.2467  0.5451 -0.3752
  958MOL0     H29326   5.980   6.897   0.613 -2.5922  2.0450 -1.2888
  958MOL0     H29327   5.849   6.801   0.691 -2.0233  1.5943 -1.2981
  958MOL0     H29328   5.685   6.968   0.324 -0.0342  0.6943 -0.1187
  958MOL0     H29329   5.572   6.307   0.266  0.8349 -0.4730  3.2248
  958MOL0     H29330   5.313   6.289   0.222 -0.1942 -1.8749  0.5397
  959MOL0     O29331   7.948   5.053   7.333  0.5716 -0.1300 -0.7883
  959MOL0     C29332   7.959   5.061   7.459  0.3370  0.5857 -0.2079
  959MOL0     O29333   7.869   5.015   7.546 -0.2113  0.0497  0.2179
  959MOL0     C29334   7.744   4.963   7.512 -0.4128 -0.2575 -0.3194
  959MOL0     C29335   7.686   4.891   7.617  0.5816 -1.1003 -0.2983
  959MOL0     C29336   7.551   4.849   7.597  0.1757  0.2867  0.0893
  959MOL0     C29337   7.463   4.875   7.487 -0.9977 -0.5999 -0.7820
  959MOL0     O29338   7.338   4.834   7.481 -0.0533  0.0058 -0.6115
  959MOL0     C29339   7.307   4.699   7.538 -0.0849  0.0863  0.5241
  959MOL0     C29340   7.194   4.647   7.457 -0.6188  0.5094  0.0859
  959MOL0     C29341   7.185   4.488   7.452 -0.1101 -0.2619 -0.4507
  959MOL0     C29342   7.268   4.430   7.350  0.0759 -0.2880 -0.4488
  959MOL0     C29343   7.269   4.273   7.354 -1.1809  0.2254 -0.2349
  959MOL0     C29344   7.132   4.213   7.303  0.2313  0.3550 -0.8433
  959MOL0     C29345   7.135   4.061   7.312  0.0112  0.0055  0.3207
  959MOL0     C29346   7.092   3.995   7.174  0.3675  0.0168 -0.5977
  959MOL0     N29347   6.951   3.999   7.157  0.2298 -0.4924  0.6792
  959MOL0     C29348   6.858   3.980   7.255 -0.4564 -0.6228  0.1085
  959MOL0     C29349   6.740   4.006   7.201  1.2550 -0.1659  0.2968
  959MOL0     C29350   6.614   3.972   7.268  0.2737  0.3715 -0.4265
  959MOL0     C29351   6.506   4.074   7.217  0.1946  0.0723 -0.2768
  959MOL0     C29352   6.370   4.069   7.290 -0.5388  0.0719 -0.8893
  959MOL0     C29353   6.306   3.934   7.280 -0.5330  0.1372 -0.2227
  959MOL0     O29354   6.174   3.935   7.344 -0.3207  0.1533 -0.0325
  959MOL0     C29355   6.064   3.966   7.268  0.0563 -0.0835  0.6973
  959MOL0     C29356   6.073   4.011   7.138 -0.1247 -0.2567  0.9095
  959MOL0     C29357   5.956   4.018   7.060 -0.0063 -0.4603  0.7058
  959MOL0     C29358   5.974   4.053   6.908 -0.7568 -0.1075 -0.4416
  959MOL0     C29359   5.828   4.014   7.121 -0.6724 -0.1454  0.4343
  959MOL0     C29360   5.699   4.040   7.043  0.1683  0.3966  0.3778
  959MOL0     O29361   5.584   4.001   7.116 -0.5489  1.0210  0.6400
  959MOL0     C29362   5.455   4.017   7.078  0.1701  0.1814  1.0637
  959MOL0     C29363   5.393   4.139   7.116 -0.1330  0.2843 -0.1206
  959MOL0     C29364   5.263   4.152   7.085  0.5134 -0.4760  0.3133
  959MOL0     C29365   5.193   4.063   7.009 -0.5417 -0.2786  0.3714
  959MOL0     O29366   5.068   4.105   6.958  0.3519 -0.3174  0.1897
  959MOL0     C29367   4.974   4.143   7.054  0.9079 -0.5028  0.3615
  959MOL0     C29368   4.846   4.165   6.976  0.0220 -0.2544 -0.1256
  959MOL0     C29369   4.732   4.223   7.057  0.0743  0.8329  0.8241
  959MOL0     C29370   4.618   4.275   6.958  0.9482  0.0664  0.3647
  959MOL0     C29371   4.485   4.290   7.019 -0.4687  0.6196  0.8398
  959MOL0     C29372   4.378   4.312   6.910 -0.2121  0.0177 -0.1604
  959MOL0     C29373   4.259   4.394   6.961 -0.0828 -0.3111  0.4293
  959MOL0     C29374   4.289   4.541   6.970 -0.4415 -1.0930 -0.2134
  959MOL0    Cl29375   4.159   4.609   7.069 -0.2985 -0.1667 -0.1427
  959MOL0     C29376   5.252   3.945   6.969  0.5152 -0.1037 -0.5390
  959MOL0     C29377   5.381   3.921   7.011 -1.1623  0.4851  0.0613
  959MOL0     O29378   5.701   4.070   6.923  0.3375  0.3535 -0.0539
  959MOL0     C29379   5.822   3.977   7.258 -0.6964 -0.9518 -0.6702
  959MOL0     C29380   5.939   3.949   7.328  0.2205 -0.3432  0.1329
  959MOL0     N29381   6.758   4.048   7.069 -0.0310  0.8721 -0.0383
  959MOL0     N29382   6.884   4.041   7.041  0.4051 -0.5485  0.1808
  959MOL0     C29383   7.527   4.934   7.391 -0.5854 -1.0885 -0.1216
  959MOL0     C29384   7.664   4.990   7.400  0.5254 -0.1929  0.0544
  959MOL0     C29385   8.085   5.103   7.494  0.4577 -0.2103 -0.2037
  959MOL0     C29386   8.152   5.023   7.591  0.1174 -0.5635 -0.1774
  959MOL0     C29387   8.288   5.052   7.627  0.0901  0.8234  0.2852
  959MOL0     C29388   8.356   5.154   7.552  0.1003  0.1377 -0.3429
  959MOL0     O29389   8.490   5.191   7.584  0.3457 -0.7857 -0.1515
  959MOL0     C29390   8.561   5.124   7.687 -0.5373 -0.0694 -0.0719
  959MOL0     C29391   8.681   5.213   7.721 -0.2324  0.0162  1.1894
  959MOL0     C29392   8.637   5.322   7.815 -0.5253 -0.0929  0.0238
  959MOL0     C29393   8.759   5.409   7.861 -0.0178 -0.6666 -0.0049
  959MOL0     C29394   8.863   5.336   7.937  0.0454 -0.0158 -0.1250
  959MOL0     C29395   8.930   5.268   8.004 -0.7565  0.3861  0.0142
  959MOL0     C29396   8.282   5.230   7.462 -0.0592  0.5079  0.0978
  959MOL0     C29397   8.144   5.212   7.436 -0.4139  0.8374  0.3313
  959MOL0     H29398   7.731   4.868   7.713 -1.4436 -2.2668  0.4351
  959MOL0     H29399   7.514   4.802   7.687  0.0784  1.0093  0.4299
  959MOL0     H29400   7.391   4.632   7.517  1.0334  1.1288  1.5387
  959MOL0     H29401   7.297   4.696   7.646 -1.8417 -0.1989  0.3760
  959MOL0     H29402   7.102   4.669   7.513  0.8343  1.1935  2.3287
  959MOL0     H29403   7.187   4.703   7.363 -0.5605 -0.6931 -0.6456
  959MOL0     H29404   7.220   4.454   7.550 -0.2069  1.8978  0.3928
  959MOL0     H29405   7.081   4.459   7.435 -0.1382  0.3028 -1.3100
  959MOL0     H29406   7.224   4.460   7.255 -0.4487  2.9606  0.7113
  959MOL0     H29407   7.368   4.469   7.369  0.9880 -2.5171 -0.3561
  959MOL0     H29408   7.355   4.239   7.295 -0.0698  2.5158 -0.0323
  959MOL0     H29409   7.289   4.233   7.454 -0.8538  1.4284  0.1994
  959MOL0     H29410   7.057   4.255   7.371 -0.9651 -1.1903 -1.1404
  959MOL0     H29411   7.100   4.241   7.202 -0.3873  2.0760 -0.2077
  959MOL0     H29412   7.239   4.032   7.330  0.0500 -0.1064 -0.0771
  959MOL0     H29413   7.074   4.026   7.396 -0.6968 -2.1600 -0.9898
  959MOL0     H29414   7.123   3.891   7.180 -0.1720 -0.1245 -0.2511
  959MOL0     H29415   7.140   4.044   7.088  0.8776 -0.4213 -0.5641
  959MOL0     H29416   6.876   3.944   7.356  0.2735  0.9631  0.5771
  959MOL0     H29417   6.595   3.870   7.235 -0.8722  0.4589 -0.0734
  959MOL0     H29418   6.632   3.979   7.376  0.3629  1.9305 -0.5266
  959MOL0     H29419   6.481   4.060   7.111 -1.5619  2.5741 -0.2694
  959MOL0     H29420   6.543   4.177   7.214  0.7565 -0.1287 -0.4571
  959MOL0     H29421   6.301   4.141   7.247  1.1199  1.0757 -1.9958
  959MOL0     H29422   6.388   4.096   7.394  1.2754  2.0054 -1.6276
  959MOL0     H29423   6.361   3.854   7.330  0.3773  0.1276 -1.1969
  959MOL0     H29424   6.305   3.901   7.176 -1.0513 -1.1182  0.1649
  959MOL0     H29425   6.168   4.034   7.091 -1.7640  2.4247 -1.4425
  959MOL0     H29426   6.077   4.030   6.877 -0.9927 -0.4372 -0.9856
  959MOL0     H29427   5.911   3.990   6.845 -1.0561  0.8805 -1.1527
  959MOL0     H29428   5.950   4.158   6.890  0.0810  0.4668  1.4677
  959MOL0     H29429   5.437   4.213   7.182 -0.0409 -1.1007  1.4206
  959MOL0     H29430   5.216   4.238   7.133  1.9128  0.5007  0.0186
  959MOL0     H29431   4.963   4.058   7.122  1.0368 -1.1682 -0.4355
  959MOL0     H29432   5.004   4.226   7.118  0.9415 -0.7584  0.6829
  959MOL0     H29433   4.868   4.228   6.889  1.3440  2.4683  2.0298
  959MOL0     H29434   4.813   4.072   6.930  0.0265  0.0307 -0.7127
  959MOL0     H29435   4.776   4.312   7.105  0.4276  0.9800  0.2341
  959MOL0     H29436   4.690   4.157   7.134 -3.5889  0.2862 -1.4255
  959MOL0     H29437   4.655   4.368   6.915  2.2875 -0.6340 -0.0579
  959MOL0     H29438   4.602   4.206   6.874  0.8757  0.5907 -0.0536
  959MOL0     H29439   4.491   4.370   7.093  0.9928  0.0038  1.4233
  959MOL0     H29440   4.465   4.199   7.076 -0.0934  0.0263  0.0523
  959MOL0     H29441   4.410   4.357   6.816 -2.8327 -0.9745 -1.6390
  959MOL0     H29442   4.333   4.215   6.884  2.3158 -1.3562  0.3527
  959MOL0     H29443   4.234   4.361   7.062 -1.0842 -0.8830  0.0125
  959MOL0     H29444   4.175   4.386   6.892  1.2235  0.6539 -1.3646
  959MOL0     H29445   4.291   4.579   6.867  0.1204  0.1099  0.2200
  959MOL0     H29446   4.384   4.558   7.022  0.8414 -2.3047 -2.0454
  959MOL0     H29447   5.194   3.885   6.900 -0.0281 -0.8047  0.5080
  959MOL0     H29448   5.428   3.829   6.978  0.0690  1.1107  0.0214
  959MOL0     H29449   5.730   3.962   7.314  0.5878 -4.4710  0.8246
  959MOL0     H29450   5.932   3.919   7.432  2.5245 -1.7072 -0.0533
  959MOL0     H29451   7.475   4.953   7.297  1.7282  1.7063 -0.9785
  959MOL0     H29452   7.711   5.045   7.319  2.0701  0.4069  1.3113
  959MOL0     H29453   8.101   4.935   7.631  1.6110 -0.8216  1.2524
  959MOL0     H29454   8.337   4.987   7.698 -0.6402  0.4579  0.4625
  959MOL0     H29455   8.503   5.110   7.779 -1.1821 -0.2322 -0.5014
  959MOL0     H29456   8.603   5.029   7.653 -0.2615 -0.1503  0.4753
  959MOL0     H29457   8.718   5.241   7.622  1.2553  0.7044  1.9210
  959MOL0     H29458   8.753   5.155   7.779 -0.1866 -2.3166 -1.0188
  959MOL0     H29459   8.582   5.283   7.901 -2.2215  1.1060 -0.4591
  959MOL0     H29460   8.569   5.383   7.754  0.7204  1.7005  0.3400
  959MOL0     H29461   8.721   5.493   7.920 -0.3077 -0.5464 -0.3514
  959MOL0     H29462   8.814   5.452   7.776  1.6506 -1.4226  0.6481
  959MOL0     H29463   8.993   5.194   8.047  0.8568  1.5276 -0.2895
  959MOL0     H29464   8.330   5.316   7.418  0.4850  0.0852 -0.1505
  959MOL0     H29465   8.087   5.266   7.362 -1.2562  0.9672  1.0586
  960MOL0     O29466   6.600   1.726   3.233  0.3800  0.4746 -0.4004
  960MOL0     C29467   6.640   1.672   3.134  0.2159 -1.0538  0.3896
  960MOL0     O29468   6.568   1.602   3.044  0.2276 -0.5599 -0.1693
  960MOL0     C29469   6.431   1.632   3.042 -0.0774  0.0589  0.5122
  960MOL0     C29470   6.339   1.609   3.143  0.4682  0.3893 -0.8138
  960MOL0     C29471   6.209   1.628   3.126 -0.3357  0.1943 -0.3948
  960MOL0     C29472   6.159   1.678   3.005 -0.1667 -0.8292  0.7488
  960MOL0     O29473   6.037   1.736   2.986  0.2957  0.0868  0.4835
  960MOL0     C29474   5.928   1.674   3.048 -0.3842  0.2959  0.2471
  960MOL0     C29475   5.806   1.699   2.967 -0.3650  0.1678  0.0457
  960MOL0     C29476   5.695   1.619   3.029 -0.0741 -0.0465 -0.0518
  960MOL0     C29477   5.549   1.681   3.015 -0.9295  0.6288  0.2565
  960MOL0     C29478   5.449   1.587   3.079 -0.5534  0.5891 -0.3260
  960MOL0     C29479   5.301   1.641   3.051 -0.4525  0.1388 -0.5331
  960MOL0     C29480   5.204   1.617   3.167 -0.3646  1.0979  0.6444
  960MOL0     C29481   5.175   1.470   3.201  0.2497 -0.3713 -0.7807
  960MOL0     N29482   5.081   1.417   3.100 -0.8702 -0.0020  0.3593
  960MOL0     C29483   4.943   1.439   3.097  0.1841  0.5688 -0.0961
  960MOL0     C29484   4.899   1.365   2.989 -0.1843 -0.4359  0.7641
  960MOL0     C29485   4.759   1.338   2.928  0.3829 -0.3081 -0.8831
  960MOL0     C29486   4.675   1.242   3.019 -0.6635  0.4277 -0.4452
  960MOL0     C29487   4.527   1.234   2.981 -0.1937  0.4123 -0.2491
  960MOL0     C29488   4.507   1.191   2.839 -0.4210  0.4148 -0.5410
  960MOL0     O29489   4.512   1.049   2.833  0.5719  0.0320 -0.0656
  960MOL0     C29490   4.400   0.980   2.876 -0.0885 -0.3978  0.3216
  960MOL0     C29491   4.280   1.034   2.926 -0.2972 -0.6139  0.1571
  960MOL0     C29492   4.179   0.949   2.984  0.3229  0.4091 -0.2722
  960MOL0     C29493   4.058   1.021   3.032  0.1788 -1.0634 -0.9475
  960MOL0     C29494   4.193   0.806   2.985  0.1956 -0.2719  0.6468
  960MOL0     C29495   4.090   0.711   3.028 -0.2317  0.0001 -0.0482
  960MOL0     O29496   3.992   0.753   3.110  0.3832  0.5761 -0.2481
  960MOL0     C29497   3.913   0.659   3.172 -0.9146  0.1647  0.9536
  960MOL0     C29498   3.795   0.625   3.100  0.6079  0.3278  0.1362
  960MOL0     C29499   3.704   0.535   3.157  0.8410 -0.2947  0.3035
  960MOL0     C29500   3.731   0.467   3.282  0.3592 -0.0262  0.4669
  960MOL0     O29501   3.645   0.386   3.349 -0.0179 -0.2267 -0.1723
  960MOL0     C29502   3.577   0.277   3.293  0.4687 -0.3426  0.7651
  960MOL0     C29503   3.425   0.302   3.293 -0.4314 -0.6773 -0.4030
  960MOL0     C29504   3.324   0.199   3.251 -0.6266 -0.1120 -0.2210
  960MOL0     C29505   3.268   0.141   3.384  0.2360  0.0344 -0.8782
  960MOL0     C29506   3.175   0.012   3.379 -0.0024  0.0762 -0.0065
  960MOL0     C29507   3.038   0.045   3.326 -1.2495  0.3134  0.5037
  960MOL0     C29508   2.947  -0.073   3.309 -0.2302 -0.9966  0.5618
  960MOL0     C29509   2.905  -0.076   3.161  0.0209  0.0064 -0.0861
  960MOL0    Cl29510   2.798  -0.216   3.128  0.1380  0.3968  0.1653
  960MOL0     C29511   3.847   0.504   3.348  0.7567  0.7661  0.3501
  960MOL0     C29512   3.939   0.601   3.297  0.1999  0.2129  0.2922
  960MOL0     O29513   4.104   0.595   2.988  0.9068 -0.7857  0.4903
  960MOL0     C29514   4.310   0.758   2.925 -0.4027  0.0073  0.2528
  960MOL0     C29515   4.412   0.838   2.875 -0.2599 -0.0523 -0.4779
  960MOL0     N29516   5.014   1.310   2.933 -0.8708 -0.1317  0.4589
  960MOL0     N29517   5.125   1.336   3.000  0.2887  0.6382 -0.3372
  960MOL0     C29518   6.248   1.696   2.898  0.4356  0.3705  0.1115
  960MOL0     C29519   6.379   1.656   2.912  0.1605  0.1164  0.2980
  960MOL0     C29520   6.779   1.678   3.114 -0.9615  0.4164  0.1975
  960MOL0     C29521   6.835   1.679   2.982 -0.0761  0.1648  0.4127
  960MOL0     C29522   6.971   1.672   2.952  0.5384  1.1039  0.0997
  960MOL0     C29523   7.063   1.678   3.059  0.6364 -0.6333  0.2626
  960MOL0     O29524   7.199   1.700   3.022  0.0851 -0.0335  0.1285
  960MOL0     C29525   7.295   1.680   3.121  0.4235 -0.6197  1.1747
  960MOL0     C29526   7.417   1.726   3.042 -0.4233 -0.2156 -0.1462
  960MOL0     C29527   7.532   1.727   3.133 -0.2382  0.8810 -0.8097
  960MOL0     C29528   7.662   1.776   3.066 -0.1704 -0.6349  0.2307
  960MOL0     C29529   7.776   1.728   3.141  0.3004 -0.2213  0.4174
  960MOL0     C29530   7.873   1.692   3.201  0.2303 -0.3245  0.6660
  960MOL0     C29531   7.016   1.686   3.191 -0.9755 -0.5538 -0.9278
  960MOL0     C29532   6.879   1.686   3.221  0.1979  0.1507  0.3508
  960MOL0     H29533   6.376   1.570   3.237 -2.0641  2.0013  0.9649
  960MOL0     H29534   6.149   1.599   3.212  1.7135 -3.5080 -0.0197
  960MOL0     H29535   5.945   1.568   3.067  1.1297  0.6108  0.7893
  960MOL0     H29536   5.921   1.735   3.139 -0.0415  2.7625 -1.2884
  960MOL0     H29537   5.788   1.807   2.964 -1.4756  0.0355  1.1637
  960MOL0     H29538   5.825   1.683   2.861  2.9844 -0.3312  0.5932
  960MOL0     H29539   5.694   1.515   2.995  1.6350 -0.8905  2.1928
  960MOL0     H29540   5.717   1.595   3.134 -2.8362  0.8334  0.8384
  960MOL0     H29541   5.550   1.780   3.063 -0.3219  1.4461 -1.3420
  960MOL0     H29542   5.537   1.692   2.907  1.5326 -3.0692 -0.5805
  960MOL0     H29543   5.474   1.491   3.033  1.7146  1.8858 -1.9957
  960MOL0     H29544   5.473   1.578   3.186 -2.0875  2.7838  0.2603
  960MOL0     H29545   5.304   1.749   3.033 -4.0774  0.6162  0.8394
  960MOL0     H29546   5.261   1.594   2.960  1.3219  2.7876 -2.8713
  960MOL0     H29547   5.248   1.666   3.254  1.3230  0.3876  0.2294
  960MOL0     H29548   5.118   1.678   3.138 -0.4471  0.2982 -0.8822
  960MOL0     H29549   5.136   1.458   3.302 -0.1392 -2.4379 -1.1136
  960MOL0     H29550   5.266   1.411   3.189 -0.6139 -1.6845 -1.1470
  960MOL0     H29551   4.885   1.488   3.174 -2.9070  1.3628 -2.7157
  960MOL0     H29552   4.700   1.428   2.907  0.1906 -0.9284 -3.2600
  960MOL0     H29553   4.773   1.281   2.836  1.7635 -1.0097 -0.2752
  960MOL0     H29554   4.679   1.269   3.124 -0.7093 -1.8558  0.2104
  960MOL0     H29555   4.705   1.138   3.000 -0.7298  0.3303 -0.0173
  960MOL0     H29556   4.493   1.337   2.995  1.4352  0.6502  2.8415
  960MOL0     H29557   4.478   1.165   3.051 -0.7923  1.8992  0.8403
  960MOL0     H29558   4.587   1.233   2.778  0.0681  2.5296  1.4038
  960MOL0     H29559   4.413   1.230   2.797 -1.8070 -0.2813  1.7164
  960MOL0     H29560   4.262   1.141   2.921  0.9798 -0.1091  3.5844
  960MOL0     H29561   3.973   0.987   2.972  0.2733 -1.8427 -0.6470
  960MOL0     H29562   4.053   1.002   3.140  0.2707  1.5166 -0.4326
  960MOL0     H29563   4.074   1.126   3.006  0.9688 -0.9611 -0.0995
  960MOL0     H29564   3.768   0.675   3.007  4.0645 -0.1471 -1.2509
  960MOL0     H29565   3.616   0.499   3.106  0.9658  1.0304 -0.9246
  960MOL0     H29566   3.605   0.266   3.188  2.3343  3.0210  0.7749
  960MOL0     H29567   3.586   0.186   3.354 -0.0263 -0.6027  0.4605
  960MOL0     H29568   3.411   0.336   3.396  0.8361  0.9052 -0.7061
  960MOL0     H29569   3.406   0.388   3.228  1.3534 -1.3591 -1.9436
  960MOL0     H29570   3.354   0.117   3.186 -4.2997 -0.2020 -2.0739
  960MOL0     H29571   3.245   0.249   3.194 -1.9163 -1.5104  0.2669
  960MOL0     H29572   3.356   0.103   3.437 -0.4861 -0.0069  0.3182
  960MOL0     H29573   3.219   0.218   3.445 -3.6350 -1.5711 -1.6351
  960MOL0     H29574   3.164  -0.038   3.475 -1.8164 -2.6391 -1.5046
  960MOL0     H29575   3.220  -0.061   3.311 -0.2270 -0.9475  0.9363
  960MOL0     H29576   2.989   0.116   3.393 -0.1704  2.1175 -0.5154
  960MOL0     H29577   3.058   0.093   3.230  0.9780  2.9041  2.1095
  960MOL0     H29578   2.859  -0.063   3.373 -0.0243 -0.7196  0.8065
  960MOL0     H29579   2.981  -0.172   3.342  0.7569 -0.5721  0.8625
  960MOL0     H29580   2.996  -0.079   3.100  1.5629  1.6691  2.0129
  960MOL0     H29581   2.859   0.019   3.131  0.1399 -0.1456 -0.7778
  960MOL0     H29582   3.873   0.450   3.439  3.0248 -1.0786 -1.2803
  960MOL0     H29583   4.032   0.611   3.352  0.7653 -1.2540 -0.3509
  960MOL0     H29584   4.325   0.651   2.920 -0.8553 -0.0933  0.9180
  960MOL0     H29585   4.499   0.783   2.842  0.0968  0.7115 -0.8344
  960MOL0     H29586   6.209   1.741   2.807  1.8595  1.9311  0.2317
  960MOL0     H29587   6.445   1.656   2.826  0.5798 -3.9004  0.4520
  960MOL0     H29588   6.767   1.662   2.899 -0.5707  0.6788  0.7062
  960MOL0     H29589   7.012   1.670   2.851  4.2238  1.3972  1.4408
  960MOL0     H29590   7.269   1.745   3.205 -1.0924 -1.8808  1.7270
  960MOL0     H29591   7.293   1.578   3.162 -0.6286 -0.0487  2.6264
  960MOL0     H29592   7.392   1.823   2.998 -2.6836  0.1354  1.7394
  960MOL0     H29593   7.452   1.662   2.960  1.0118 -0.1047  0.3698
  960MOL0     H29594   7.551   1.627   3.174  0.9569  1.9251  1.3241
  960MOL0     H29595   7.511   1.788   3.221 -1.3514  1.0695 -1.1914
  960MOL0     H29596   7.661   1.885   3.054 -2.4326 -0.7638 -1.5260
  960MOL0     H29597   7.664   1.731   2.967 -0.6315 -0.2147  0.0211
  960MOL0     H29598   7.967   1.677   3.250  0.3248 -0.3384  0.4800
  960MOL0     H29599   7.081   1.677   3.277 -0.8376  1.4654 -0.7748
  960MOL0     H29600   6.847   1.713   3.321  1.7882 -2.0099  1.5275
  961MOL0     O29601   9.056   2.655   6.724  0.1229  0.0994 -0.1031
  961MOL0     C29602   9.096   2.617   6.837  0.4706  0.3673  0.7095
  961MOL0     O29603   9.024   2.619   6.948 -0.9602  0.2130 -0.9422
  961MOL0     C29604   8.899   2.662   6.941 -0.8960  0.3095 -0.2305
  961MOL0     C29605   8.877   2.799   6.943  0.1268  0.4477  0.5015
  961MOL0     C29606   8.743   2.840   6.931 -0.1857 -0.3730 -0.9880
  961MOL0     C29607   8.633   2.754   6.910  0.1165 -0.2122 -0.1376
  961MOL0     O29608   8.502   2.805   6.893  1.0061  0.0316 -0.2214
  961MOL0     C29609   8.412   2.741   6.809  0.4002  0.2962 -0.3983
  961MOL0     C29610   8.303   2.844   6.764  0.4732 -0.2192  0.3043
  961MOL0     C29611   8.190   2.804   6.669  1.2233  0.9922 -0.5413
  961MOL0     C29612   8.096   2.704   6.735  0.2175 -0.7580  0.2543
  961MOL0     C29613   7.963   2.683   6.658  0.1458 -0.5897 -0.7007
  961MOL0     C29614   7.971   2.616   6.527 -0.5210 -0.5363  0.4584
  961MOL0     C29615   7.836   2.607   6.447  0.2840 -0.3573  0.5831
  961MOL0     C29616   7.868   2.525   6.330 -0.1784  0.3031  0.1057
  961MOL0     N29617   7.753   2.496   6.249  0.4837 -0.3162 -0.1625
  961MOL0     C29618   7.713   2.570   6.145 -0.0676 -0.3393 -0.6036
  961MOL0     C29619   7.614   2.503   6.084 -0.1642 -0.9890  0.0608
  961MOL0     C29620   7.561   2.555   5.952 -0.9987  0.0359 -0.0836
  961MOL0     C29621   7.408   2.567   5.943 -0.2814 -0.5126  0.1849
  961MOL0     C29622   7.347   2.433   5.914  0.1079  0.5348  0.2709
  961MOL0     C29623   7.196   2.424   5.889  0.0889 -0.2367  0.2285
  961MOL0     O29624   7.141   2.299   5.934 -0.1520  0.3463 -0.9061
  961MOL0     C29625   7.010   2.299   5.964  1.5075  0.9377  1.2664
  961MOL0     C29626   6.913   2.371   5.883  0.0459 -0.0979  0.1129
  961MOL0     C29627   6.772   2.359   5.896  0.2002  0.2189  0.2137
  961MOL0     C29628   6.691   2.429   5.800 -0.5358  0.2367  0.5843
  961MOL0     C29629   6.726   2.273   5.996  1.0334  0.0684 -0.0146
  961MOL0     C29630   6.588   2.243   6.019  0.7862  0.1138 -0.2389
  961MOL0     O29631   6.548   2.183   6.134 -0.3008 -0.3704 -0.9322
  961MOL0     C29632   6.421   2.137   6.160  0.3472 -0.4743 -0.5537
  961MOL0     C29633   6.304   2.218   6.145  0.2603 -0.6764 -0.1023
  961MOL0     C29634   6.180   2.169   6.174 -0.0726  0.6352  0.0682
  961MOL0     C29635   6.173   2.029   6.205  0.7291  0.7425 -0.1495
  961MOL0     O29636   6.052   1.962   6.205  0.1574 -0.2276  0.2838
  961MOL0     C29637   6.010   1.932   6.342  0.8086  0.1527 -0.1573
  961MOL0     C29638   5.864   1.882   6.351 -0.7414  0.0823  0.4401
  961MOL0     C29639   5.768   1.991   6.340 -0.3217  0.5710 -0.4106
  961MOL0     C29640   5.637   1.941   6.280  0.5964 -0.0465 -0.3857
  961MOL0     C29641   5.523   2.029   6.312  0.8220 -1.1258 -0.2568
  961MOL0     C29642   5.403   1.996   6.219  0.0020  0.4266  0.2401
  961MOL0     C29643   5.274   2.082   6.235  0.0997 -0.3449 -0.0421
  961MOL0     C29644   5.186   2.073   6.106  0.3060  0.1690  0.3196
  961MOL0    Cl29645   5.019   2.134   6.138 -0.2098  0.2178 -0.4000
  961MOL0     C29646   6.288   1.949   6.222 -0.2336 -0.2746 -0.2236
  961MOL0     C29647   6.412   2.005   6.192  0.6144  1.0113 -0.6065
  961MOL0     O29648   6.516   2.257   5.924  0.1839  0.4678 -0.4505
  961MOL0     C29649   6.817   2.208   6.084  0.0422  0.1839 -0.1666
  961MOL0     C29650   6.957   2.218   6.064 -0.3419 -0.1919  0.0886
  961MOL0     N29651   7.599   2.379   6.145  0.0723  0.2288 -0.4582
  961MOL0     N29652   7.688   2.378   6.248  0.5762  0.0997  0.0762
  961MOL0     C29653   8.665   2.617   6.896 -0.1022  0.0580 -0.0298
  961MOL0     C29654   8.798   2.569   6.922  0.0222  0.1474 -0.0648
  961MOL0     C29655   9.230   2.562   6.843 -0.6804 -0.3187 -0.2866
  961MOL0     C29656   9.312   2.590   6.734 -0.2498  0.2221  0.2494
  961MOL0     C29657   9.440   2.544   6.726 -0.2292  0.5746 -0.4756
  961MOL0     C29658   9.487   2.458   6.830  0.3346  0.3764  1.1007
  961MOL0     O29659   9.607   2.395   6.804 -0.6300  0.6960  0.7252
  961MOL0     C29660   9.712   2.472   6.754 -0.7970 -0.2741 -0.9234
  961MOL0     C29661   9.855   2.416   6.784  0.0927 -0.2955  0.3472
  961MOL0     C29662   9.876   2.260   6.779  0.5049  0.2434 -0.9696
  961MOL0     C29663  10.029   2.228   6.754  0.8982  0.4550 -0.1527
  961MOL0     C29664  10.113   2.301   6.850  0.1766  0.1410  0.3413
  961MOL0     C29665  10.181   2.369   6.927  0.2459  0.1301 -0.0238
  961MOL0     C29666   9.403   2.424   6.937  0.3250  0.4996 -0.4373
  961MOL0     C29667   9.273   2.477   6.944  0.2074 -0.2193 -0.1071
  961MOL0     H29668   8.962   2.865   6.935  2.1242 -2.1784 -2.6298
  961MOL0     H29669   8.739   2.948   6.933  0.1709 -0.3468  1.1474
  961MOL0     H29670   8.468   2.710   6.720  0.4636  1.9896 -0.9837
  961MOL0     H29671   8.357   2.660   6.859  1.9834 -0.8175 -0.4100
  961MOL0     H29672   8.255   2.887   6.852 -2.6374  0.4686 -1.5663
  961MOL0     H29673   8.347   2.932   6.715 -1.0707  1.6950  2.1395
  961MOL0     H29674   8.131   2.894   6.648  0.2675  0.8004  1.1441
  961MOL0     H29675   8.227   2.757   6.578  1.7953  0.0620  0.1523
  961MOL0     H29676   8.149   2.609   6.745  1.7651 -0.5229 -3.9974
  961MOL0     H29677   8.071   2.739   6.836  1.4116 -1.1251  0.6974
  961MOL0     H29678   7.905   2.613   6.718  1.4493 -3.4943 -2.5724
  961MOL0     H29679   7.921   2.783   6.669 -1.5259 -1.5480  3.2917
  961MOL0     H29680   8.042   2.677   6.471 -0.9596  0.6081  1.1183
  961MOL0     H29681   8.027   2.523   6.534  2.4200  1.0936  0.0291
  961MOL0     H29682   7.778   2.543   6.515  0.6283 -0.9027  0.3721
  961MOL0     H29683   7.789   2.704   6.427 -0.6170 -0.3054  2.6484
  961MOL0     H29684   7.924   2.436   6.359  1.7358  1.9729  1.8632
  961MOL0     H29685   7.939   2.571   6.261 -1.1045  1.0620 -0.3743
  961MOL0     H29686   7.749   2.666   6.109 -2.9487  1.4801  0.9644
  961MOL0     H29687   7.598   2.658   5.946  1.3283 -0.6148  1.5033
  961MOL0     H29688   7.594   2.487   5.872 -0.4031  0.5061 -0.2488
  961MOL0     H29689   7.380   2.631   5.859 -0.2606 -2.3859 -1.3064
  961MOL0     H29690   7.375   2.614   6.036  0.1400 -3.9694  2.2459
  961MOL0     H29691   7.373   2.367   5.997  2.9500 -0.8143 -1.4973
  961MOL0     H29692   7.395   2.379   5.831 -4.5178 -1.3225 -1.5003
  961MOL0     H29693   7.182   2.426   5.781  3.1817 -0.4375 -0.2648
  961MOL0     H29694   7.143   2.504   5.942  0.1827 -1.6202  2.5342
  961MOL0     H29695   6.943   2.434   5.800 -3.1048  0.5659 -0.6488
  961MOL0     H29696   6.646   2.363   5.725 -2.4315  0.8913  1.0740
  961MOL0     H29697   6.620   2.490   5.857  0.3123  0.5506  1.3192
  961MOL0     H29698   6.748   2.502   5.742  0.4310  1.1117  2.5343
  961MOL0     H29699   6.327   2.322   6.125 -1.7196 -0.7953 -3.9697
  961MOL0     H29700   6.085   2.217   6.154 -0.7726 -1.0236 -0.7700
  961MOL0     H29701   6.064   1.844   6.378 -1.3007 -1.4301 -0.6496
  961MOL0     H29702   6.031   2.011   6.414  0.0283 -1.2904  1.7838
  961MOL0     H29703   5.851   1.803   6.276  1.0116  0.2951 -0.1472
  961MOL0     H29704   5.857   1.840   6.452 -3.0252 -0.2928  0.1838
  961MOL0     H29705   5.806   2.071   6.276 -0.7801  1.7780  0.7734
  961MOL0     H29706   5.749   2.028   6.442 -2.8154  3.3593 -1.7328
  961MOL0     H29707   5.653   1.913   6.175 -0.9623 -1.0388 -0.3963
  961MOL0     H29708   5.609   1.854   6.341 -1.0741  2.1403  2.1925
  961MOL0     H29709   5.554   2.131   6.285  0.6857 -1.2223 -0.7840
  961MOL0     H29710   5.505   2.019   6.419  3.4265  0.0537  0.3833
  961MOL0     H29711   5.442   2.016   6.119 -2.3365  0.6591 -0.7034
  961MOL0     H29712   5.382   1.890   6.237 -0.9521  0.6472  0.4645
  961MOL0     H29713   5.307   2.185   6.251 -0.9746  0.3948 -2.2011
  961MOL0     H29714   5.222   2.048   6.325 -1.1616 -0.1954 -0.6881
  961MOL0     H29715   5.183   1.966   6.082  0.0457 -0.0528  1.2864
  961MOL0     H29716   5.231   2.127   6.022  0.9889 -1.2532 -0.2619
  961MOL0     H29717   6.286   1.841   6.233  6.3802 -0.7269  0.6434
  961MOL0     H29718   6.499   1.940   6.188  0.0839  0.1274  0.9811
  961MOL0     H29719   6.787   2.139   6.162  0.1190  0.1192 -0.1945
  961MOL0     H29720   7.026   2.159   6.122 -0.3489  1.1946  1.5986
  961MOL0     H29721   8.585   2.543   6.891 -1.2844  1.3516 -1.3619
  961MOL0     H29722   8.828   2.465   6.920  0.6399  0.2533  2.0672
  961MOL0     H29723   9.265   2.632   6.646 -2.0461 -1.8727  0.1131
  961MOL0     H29724   9.483   2.557   6.627  0.3635 -0.3173 -0.3472
  961MOL0     H29725   9.713   2.473   6.644 -0.7061 -1.3092 -0.9431
  961MOL0     H29726   9.702   2.576   6.786 -3.3001 -0.2298 -1.6399
  961MOL0     H29727   9.888   2.446   6.884  1.0847 -1.2020  0.3075
  961MOL0     H29728   9.925   2.461   6.713  1.6162 -0.2814  1.7951
  961MOL0     H29729   9.820   2.217   6.696  1.6782 -0.2527 -1.5251
  961MOL0     H29730   9.829   2.208   6.863 -1.8212  0.7641 -1.8579
  961MOL0     H29731  10.056   2.251   6.650 -0.1537 -1.1073 -0.8140
  961MOL0     H29732  10.048   2.120   6.756  1.2474  0.5087 -0.4578
  961MOL0     H29733  10.242   2.443   6.974 -0.3220 -0.5533  1.8461
  961MOL0     H29734   9.448   2.361   7.013  1.2950  0.2776 -1.1671
  961MOL0     H29735   9.205   2.449   7.024 -0.6253  0.2538 -0.6354
  962MOL0     O29736   3.387   4.134   9.339  0.5440 -0.3913  0.4301
  962MOL0     C29737   3.424   4.206   9.427 -0.1975 -0.1692  0.0656
  962MOL0     O29738   3.341   4.284   9.503 -0.5159 -0.0355  0.2400
  962MOL0     C29739   3.210   4.274   9.471  0.3363 -0.1223 -0.8879
  962MOL0     C29740   3.143   4.370   9.393 -0.5315  0.6510  0.4057
  962MOL0     C29741   3.001   4.365   9.373 -0.2772 -0.3660 -0.7785
  962MOL0     C29742   2.929   4.249   9.408 -0.2928  1.1286 -0.5692
  962MOL0     O29743   2.798   4.229   9.384 -0.1410  0.2341  1.2048
  962MOL0     C29744   2.719   4.337   9.334  0.4296 -0.1137 -0.2476
  962MOL0     C29745   2.584   4.269   9.297  0.0685  0.2961  0.0658
  962MOL0     C29746   2.490   4.353   9.215  0.1102  1.1395 -0.5856
  962MOL0     C29747   2.363   4.278   9.199 -0.5839 -0.0199 -0.3633
  962MOL0     C29748   2.252   4.359   9.125  0.2860  0.4763  0.0546
  962MOL0     C29749   2.135   4.259   9.102  0.2248  0.5970 -0.2094
  962MOL0     C29750   2.030   4.340   9.040 -0.3080  0.2851  0.6847
  962MOL0     C29751   1.904   4.248   9.007  0.6839 -0.6930 -0.3243
  962MOL0     N29752   1.828   4.334   8.919  0.0428 -0.1607  0.0404
  962MOL0     C29753   1.843   4.344   8.789  0.1713 -0.0872  0.3697
  962MOL0     C29754   1.732   4.400   8.739 -0.3300  0.1364 -0.4604
  962MOL0     C29755   1.697   4.434   8.603 -0.4428  1.0589  0.4060
  962MOL0     C29756   1.566   4.385   8.537 -0.2648 -0.3561 -0.9237
  962MOL0     C29757   1.558   4.443   8.395  0.0519 -0.6990 -1.0756
  962MOL0     C29758   1.421   4.495   8.354  0.4080  0.4309 -0.4579
  962MOL0     O29759   1.309   4.413   8.396  0.1342  0.5433 -0.8262
  962MOL0     C29760   1.180   4.458   8.371  0.1209 -1.4577  0.0623
  962MOL0     C29761   1.141   4.587   8.341  0.1441 -0.8947  0.7065
  962MOL0     C29762   1.015   4.629   8.343  0.5939 -0.4061 -0.5768
  962MOL0     C29763   0.997   4.767   8.282 -0.1666 -0.3344  0.4880
  962MOL0     C29764   0.917   4.550   8.397 -0.0584  1.4454  0.1580
  962MOL0     C29765   0.768   4.575   8.394 -0.1965 -0.0530  0.8151
  962MOL0     O29766   0.685   4.498   8.475 -0.4013  0.2220  0.2382
  962MOL0     C29767   0.551   4.519   8.484 -0.6896 -0.6651 -0.1204
  962MOL0     C29768   0.492   4.601   8.583  0.4211  0.0406  0.1553
  962MOL0     C29769   0.356   4.582   8.615 -0.5481  1.0349  0.1728
  962MOL0     C29770   0.265   4.507   8.528 -0.2111 -0.5368  0.3070
  962MOL0     O29771   0.124   4.516   8.553  0.0304  0.2997 -0.5372
  962MOL0     C29772   0.074   4.615   8.641  0.7758 -0.9293  0.6181
  962MOL0     C29773  -0.080   4.620   8.627 -0.4261  0.3362  0.3382
  962MOL0     C29774  -0.146   4.720   8.720 -0.3472 -0.3876 -0.2365
  962MOL0     C29775  -0.299   4.715   8.735 -0.4230 -0.1408 -0.2706
  962MOL0     C29776  -0.360   4.578   8.742  0.1336 -0.1215  0.2290
  962MOL0     C29777  -0.501   4.575   8.794  0.1107 -0.3460 -1.0166
  962MOL0     C29778  -0.561   4.433   8.801 -0.1383  0.1067 -0.1225
  962MOL0     C29779  -0.540   4.344   8.684 -0.4858 -1.1139  0.3223
  962MOL0    Cl29780  -0.633   4.188   8.718  0.1281  0.1400 -0.2724
  962MOL0     C29781   0.332   4.428   8.428  0.2215  0.4056  0.7816
  962MOL0     C29782   0.471   4.436   8.403  0.2384  0.0196 -0.2486
  962MOL0     O29783   0.735   4.675   8.329 -0.0777  0.0376  0.6256
  962MOL0     C29784   0.953   4.417   8.437  0.0030 -0.5194  0.2524
  962MOL0     C29785   1.081   4.375   8.414  0.2619  0.6462  0.1187
  962MOL0     N29786   1.654   4.428   8.847  0.6967 -0.0779  0.8212
  962MOL0     N29787   1.710   4.380   8.957  0.4399 -0.3657 -0.3023
  962MOL0     C29788   3.004   4.144   9.466  0.2366 -0.1221 -0.1161
  962MOL0     C29789   3.136   4.158   9.509 -0.0140 -0.8020 -0.5382
  962MOL0     C29790   3.569   4.227   9.439  0.4930  1.3749  0.0763
  962MOL0     C29791   3.657   4.141   9.373  0.2023  0.1929 -0.6259
  962MOL0     C29792   3.796   4.152   9.377  0.0543  1.0120 -0.6640
  962MOL0     C29793   3.848   4.241   9.473 -0.2799 -0.2874  0.1368
  962MOL0     O29794   3.984   4.268   9.492 -0.2359  0.1474 -0.2960
  962MOL0     C29795   4.078   4.204   9.406 -0.4302  0.1807  0.4360
  962MOL0     C29796   4.227   4.219   9.442  0.9503 -0.4764 -0.0856
  962MOL0     C29797   4.327   4.131   9.364  0.8363 -0.7384 -0.2278
  962MOL0     C29798   4.458   4.137   9.437 -0.1074  0.2859 -0.0345
  962MOL0     C29799   4.571   4.082   9.366 -0.4557  0.0005  0.4975
  962MOL0     C29800   4.661   4.034   9.294  0.1973  0.2372  0.2392
  962MOL0     C29801   3.766   4.331   9.544  0.1130  0.4446  0.1216
  962MOL0     C29802   3.628   4.316   9.534  0.2730 -0.0469  0.6712
  962MOL0     H29803   3.203   4.453   9.358 -0.1838  0.9602  1.6770
  962MOL0     H29804   2.958   4.444   9.313  0.5144  0.2038 -0.6111
  962MOL0     H29805   2.710   4.420   9.406  1.4278  0.3141 -0.5973
  962MOL0     H29806   2.759   4.376   9.240 -1.7955  1.5372 -0.6152
  962MOL0     H29807   2.610   4.186   9.232  1.7502  2.0069 -1.5426
  962MOL0     H29808   2.538   4.228   9.388  0.1027 -1.4585 -0.6734
  962MOL0     H29809   2.470   4.440   9.278  3.2258  1.9399 -0.5313
  962MOL0     H29810   2.534   4.395   9.125 -1.4451  3.9849 -0.1476
  962MOL0     H29811   2.375   4.193   9.131 -2.0898  0.7572 -1.6646
  962MOL0     H29812   2.328   4.228   9.290  4.4685 -0.4841  1.6691
  962MOL0     H29813   2.215   4.438   9.191 -2.9173 -2.1161  1.7298
  962MOL0     H29814   2.274   4.408   9.031 -0.3769 -4.2791 -2.9332
  962MOL0     H29815   2.167   4.172   9.045 -0.3316 -1.6174  2.6168
  962MOL0     H29816   2.095   4.219   9.196  1.3246 -2.2034 -0.8591
  962MOL0     H29817   2.008   4.431   9.096 -1.6745 -0.1913  0.9600
  962MOL0     H29818   2.068   4.372   8.943  0.9186 -0.8041  0.7849
  962MOL0     H29819   1.845   4.213   9.091 -2.8446  1.0974 -1.8389
  962MOL0     H29820   1.939   4.164   8.946  1.1692  0.5181 -1.7908
  962MOL0     H29821   1.920   4.295   8.732  0.6993 -1.1502  1.9500
  962MOL0     H29822   1.708   4.543   8.602  0.2878  0.9899  0.1027
  962MOL0     H29823   1.778   4.403   8.537 -1.1101  2.8191 -1.3437
  962MOL0     H29824   1.485   4.425   8.599  0.0141 -2.1249  0.6807
  962MOL0     H29825   1.558   4.275   8.537  1.1517 -0.5704  2.5253
  962MOL0     H29826   1.583   4.360   8.328 -0.4297 -0.2051 -1.8950
  962MOL0     H29827   1.627   4.527   8.380 -2.5150  1.3627 -2.1951
  962MOL0     H29828   1.417   4.504   8.245  0.2070 -1.9709 -0.7168
  962MOL0     H29829   1.413   4.591   8.405 -5.2950 -0.6934  1.4234
  962MOL0     H29830   1.218   4.659   8.312 -1.8231  0.5560 -1.2725
  962MOL0     H29831   0.914   4.769   8.211 -0.3970  1.5455  0.7677
  962MOL0     H29832   0.970   4.835   8.363 -2.5544 -2.4429  1.6196
  962MOL0     H29833   1.084   4.791   8.221 -0.5840 -0.4356 -0.1600
  962MOL0     H29834   0.554   4.667   8.642  1.3016  0.1059 -0.8129
  962MOL0     H29835   0.317   4.629   8.704 -2.9626  1.5416 -1.0667
  962MOL0     H29836   0.107   4.600   8.744  1.0756 -2.6786  0.2984
  962MOL0     H29837   0.115   4.714   8.616  0.2916 -0.2659  2.3033
  962MOL0     H29838  -0.096   4.654   8.524 -3.4568  0.0756  0.6189
  962MOL0     H29839  -0.122   4.519   8.631 -0.8449  0.5098  0.4691
  962MOL0     H29840  -0.119   4.816   8.676 -0.1313 -1.2222 -2.0097
  962MOL0     H29841  -0.101   4.705   8.818 -1.5879 -0.0330  0.4179
  962MOL0     H29842  -0.324   4.772   8.825  0.6329  2.0257 -1.2889
  962MOL0     H29843  -0.345   4.765   8.650  0.3429 -0.5353 -0.9312
  962MOL0     H29844  -0.297   4.508   8.798  0.7586 -0.0594 -0.3827
  962MOL0     H29845  -0.366   4.538   8.641 -3.5183  0.0700  0.2546
  962MOL0     H29846  -0.510   4.605   8.899 -3.0228  1.6257 -1.6904
  962MOL0     H29847  -0.557   4.652   8.740  0.8074  1.7348  1.0725
  962MOL0     H29848  -0.668   4.437   8.823  0.2398  0.4092  1.8295
  962MOL0     H29849  -0.524   4.382   8.890 -0.5596 -0.6354 -0.3523
  962MOL0     H29850  -0.434   4.324   8.671 -0.2025  1.1378 -1.7579
  962MOL0     H29851  -0.564   4.395   8.590  2.5420  1.2539  0.6906
  962MOL0     H29852   0.266   4.359   8.377  0.6253  1.5179 -1.3633
  962MOL0     H29853   0.515   4.360   8.339 -0.2854 -0.1046 -0.4648
  962MOL0     H29854   0.881   4.347   8.479 -1.7869  0.2447 -1.3609
  962MOL0     H29855   1.099   4.276   8.455 -1.6843 -0.2110 -0.9174
  962MOL0     H29856   2.951   4.051   9.481  0.1818  0.2803  2.8694
  962MOL0     H29857   3.185   4.083   9.571  0.1085  0.5959  1.1420
  962MOL0     H29858   3.615   4.077   9.297  1.0508  1.9415 -2.6966
  962MOL0     H29859   3.857   4.086   9.316 -2.4038 -0.2685 -1.8920
  962MOL0     H29860   4.049   4.098   9.402  0.0912  0.0769 -1.8810
  962MOL0     H29861   4.061   4.246   9.307 -3.4874  0.1133  0.8347
  962MOL0     H29862   4.223   4.192   9.548  1.9526 -3.0161 -0.6083
  962MOL0     H29863   4.256   4.324   9.436  1.2778 -0.6585 -3.3066
  962MOL0     H29864   4.329   4.166   9.261  2.2026 -3.3628 -1.2143
  962MOL0     H29865   4.290   4.030   9.385 -1.0394  0.0207  0.3418
  962MOL0     H29866   4.446   4.077   9.528 -1.0792 -2.8158 -2.0721
  962MOL0     H29867   4.491   4.238   9.463 -0.0958  0.0194  1.0556
  962MOL0     H29868   4.733   4.000   9.222 -0.0319  0.9435 -0.3277
  962MOL0     H29869   3.808   4.412   9.604 -1.2417  1.1715  0.1228
  962MOL0     H29870   3.561   4.381   9.589 -0.8842  1.8806 -2.6759
  963MOL0     O29871   4.929   4.550  11.033 -0.4054 -0.2173  0.3202
  963MOL0     C29872   4.970   4.461  11.108 -0.4542 -0.6800  0.4715
  963MOL0     O29873   4.890   4.376  11.188 -0.7647 -0.9176  0.1205
  963MOL0     C29874   4.747   4.387  11.197 -0.7440  1.2360  0.3385
  963MOL0     C29875   4.690   4.506  11.231  0.6882 -0.6714 -0.0356
  963MOL0     C29876   4.547   4.511  11.254 -0.4762  0.3179 -0.5615
  963MOL0     C29877   4.474   4.394  11.256  0.7987 -0.3324  0.4171
  963MOL0     O29878   4.337   4.389  11.290 -0.9452  0.1471  0.8504
  963MOL0     C29879   4.258   4.501  11.260 -0.5470  0.2838 -1.0616
  963MOL0     C29880   4.118   4.440  11.259  0.7366  0.5533  0.4566
  963MOL0     C29881   4.006   4.545  11.270 -0.8436 -0.6182  0.0071
  963MOL0     C29882   3.875   4.496  11.222  0.1524  0.9298 -0.0576
  963MOL0     C29883   3.787   4.613  11.172 -0.1939 -0.0232  0.2146
  963MOL0     C29884   3.638   4.586  11.197  0.2866  0.1671  0.0976
  963MOL0     C29885   3.576   4.470  11.115 -0.7514  0.4437 -1.1714
  963MOL0     C29886   3.515   4.352  11.194 -0.3931  0.8739  0.0958
  963MOL0     N29887   3.396   4.389  11.264  0.0341 -0.2670 -0.2722
  963MOL0     C29888   3.278   4.318  11.258  0.4308  0.2019  0.7432
  963MOL0     C29889   3.204   4.369  11.359 -0.2489 -0.1556 -0.5502
  963MOL0     C29890   3.063   4.319  11.391  0.2798 -0.0509  0.4945
  963MOL0     C29891   3.088   4.209  11.498  0.8467  1.1157  1.0289
  963MOL0     C29892   2.948   4.171  11.554  0.6503 -0.1972 -0.8138
  963MOL0     C29893   2.847   4.111  11.455 -0.1692  0.3610  0.1922
  963MOL0     O29894   2.737   4.048  11.519 -0.3286 -0.2935 -0.0146
  963MOL0     C29895   2.645   3.991  11.430 -0.0384  0.2198 -0.5483
  963MOL0     C29896   2.516   3.969  11.482  1.0300 -0.5805  1.0294
  963MOL0     C29897   2.401   3.924  11.415 -0.1261  0.4313 -0.1316
  963MOL0     C29898   2.275   3.906  11.504  0.1209 -0.0181  0.4133
  963MOL0     C29899   2.420   3.878  11.275 -0.7940 -0.3051  0.1112
  963MOL0     C29900   2.319   3.825  11.186  0.1935  0.1986 -0.1034
  963MOL0     O29901   2.359   3.792  11.060  0.4398  0.5758  0.1322
  963MOL0     C29902   2.276   3.745  10.961 -0.1542 -0.7256 -0.6728
  963MOL0     C29903   2.304   3.615  10.919 -0.5544  0.0196  0.8228
  963MOL0     C29904   2.225   3.558  10.819 -0.4171  0.0392  0.5609
  963MOL0     C29905   2.122   3.633  10.755 -0.4885  0.0358 -0.1380
  963MOL0     O29906   2.050   3.572  10.658  0.2552  0.0561  0.2524
  963MOL0     C29907   1.994   3.440  10.683  0.1844 -0.4542  0.1798
  963MOL0     C29908   1.890   3.429  10.578  0.1288 -0.1001  0.0534
  963MOL0     C29909   1.767   3.498  10.628  0.2877 -0.1151  0.9331
  963MOL0     C29910   1.645   3.443  10.550 -0.1718  1.1350  0.2207
  963MOL0     C29911   1.524   3.535  10.571 -0.3624 -0.4019  0.6616
  963MOL0     C29912   1.398   3.475  10.505 -0.8728 -0.2105 -0.1407
  963MOL0     C29913   1.277   3.536  10.553  1.1608  0.4010  0.2220
  963MOL0     C29914   1.145   3.473  10.499 -0.0989  0.0156  0.1573
  963MOL0    Cl29915   1.116   3.527  10.335  0.0773 -0.2175  0.4883
  963MOL0     C29916   2.084   3.758  10.813 -0.5186 -0.1752  0.9536
  963MOL0     C29917   2.160   3.818  10.911 -0.1435  0.5618 -0.2421
  963MOL0     O29918   2.204   3.810  11.222  0.1520  0.8814  0.1799
  963MOL0     C29919   2.551   3.897  11.224 -0.4662  0.0516  0.0654
  963MOL0     C29920   2.656   3.949  11.298 -0.1028  0.2211 -0.7226
  963MOL0     N29921   3.276   4.471  11.425  0.2962 -0.1627  0.7651
  963MOL0     N29922   3.386   4.481  11.366  0.1068 -0.2194  0.3951
  963MOL0     C29923   4.530   4.273  11.232 -0.7631  0.2352  0.2521
  963MOL0     C29924   4.669   4.268  11.212  0.3388 -0.0030  1.0368
  963MOL0     C29925   5.125   4.446  11.111 -0.0722  0.5268 -0.6829
  963MOL0     C29926   5.205   4.543  11.048  0.1873 -0.4171  0.3034
  963MOL0     C29927   5.344   4.534  11.047  1.0435 -0.0765  0.7172
  963MOL0     C29928   5.410   4.437  11.116 -0.7553  0.3683 -0.2454
  963MOL0     O29929   5.543   4.424  11.122  0.4835 -0.0816 -0.0754
  963MOL0     C29930   5.626   4.512  11.048 -0.5306 -0.4056 -0.4611
  963MOL0     C29931   5.745   4.435  10.997  0.1602  0.2420 -0.0089
  963MOL0     C29932   5.836   4.387  11.107  0.2607  0.7991  0.2891
  963MOL0     C29933   5.966   4.351  11.046 -0.2411  0.4154  0.2250
  963MOL0     C29934   6.077   4.453  11.028  0.6269  0.7465 -0.3673
  963MOL0     C29935   6.161   4.539  11.017 -0.2510 -0.4326  0.1675
  963MOL0     C29936   5.334   4.347  11.192  0.1574 -0.8209  0.2545
  963MOL0     C29937   5.194   4.344  11.187  0.4618 -0.3968 -0.5877
  963MOL0     H29938   4.754   4.594  11.239  1.5670 -1.4494  2.4369
  963MOL0     H29939   4.491   4.602  11.270 -1.1715 -0.1019 -0.5670
  963MOL0     H29940   4.254   4.574  11.342 -1.9912 -0.0662 -0.7906
  963MOL0     H29941   4.267   4.556  11.166 -1.8217  2.3295 -0.0629
  963MOL0     H29942   4.112   4.398  11.158 -0.7359 -3.6831  2.0837
  963MOL0     H29943   4.107   4.354  11.325  1.2731 -0.7636 -1.0898
  963MOL0     H29944   4.000   4.585  11.372  3.2130  0.0097  0.1746
  963MOL0     H29945   4.034   4.631  11.209  0.3689 -1.0347 -0.0558
  963MOL0     H29946   3.880   4.415  11.149  0.2073  2.9534 -2.4295
  963MOL0     H29947   3.826   4.447  11.306  0.1916  0.8358 -0.0886
  963MOL0     H29948   3.819   4.704  11.222  0.6650 -0.1115 -0.1421
  963MOL0     H29949   3.809   4.631  11.066  1.6967  0.2811  0.6125
  963MOL0     H29950   3.611   4.583  11.303  0.7063  0.3656  0.2133
  963MOL0     H29951   3.590   4.677  11.160 -1.4154 -1.3837 -1.7972
  963MOL0     H29952   3.497   4.506  11.049  0.4068 -0.4270 -3.1264
  963MOL0     H29953   3.654   4.432  11.048 -1.0082 -1.5007 -0.4241
  963MOL0     H29954   3.588   4.310  11.264 -0.5326  0.3645 -0.0557
  963MOL0     H29955   3.502   4.267  11.127 -2.3983 -1.0326  2.6689
  963MOL0     H29956   3.247   4.241  11.188  1.6286  1.4835 -1.3284
  963MOL0     H29957   3.002   4.400  11.433  0.6340  0.4817 -0.0087
  963MOL0     H29958   3.026   4.282  11.295  0.7307  1.3249 -0.2392
  963MOL0     H29959   3.144   4.256  11.579  1.8823  2.4976 -0.4131
  963MOL0     H29960   3.147   4.134  11.445  0.4147  0.9207  0.8157
  963MOL0     H29961   2.910   4.260  11.605  1.6609 -0.3066  0.1593
  963MOL0     H29962   2.958   4.102  11.638  1.3974  1.9010  0.9117
  963MOL0     H29963   2.909   4.036  11.403 -0.5171  1.9017 -2.6444
  963MOL0     H29964   2.812   4.189  11.387 -1.8730 -0.6116 -0.1044
  963MOL0     H29965   2.501   3.981  11.589 -0.2302 -2.4398  1.1224
  963MOL0     H29966   2.240   4.006  11.530  1.5704  0.0247  2.4341
  963MOL0     H29967   2.192   3.850  11.459  1.2139 -1.7753  0.4874
  963MOL0     H29968   2.294   3.849  11.595 -1.3855 -1.5223 -0.1457
  963MOL0     H29969   2.384   3.550  10.955 -0.9295 -0.1044  1.4484
  963MOL0     H29970   2.253   3.459  10.786 -0.5317 -0.3562  1.6112
  963MOL0     H29971   2.067   3.362  10.661  0.2158 -0.4663  0.3225
  963MOL0     H29972   1.949   3.427  10.782  1.2734  3.1568  1.3322
  963MOL0     H29973   1.916   3.470  10.480  0.6737  1.0287  0.6508
  963MOL0     H29974   1.864   3.322  10.575  1.5925 -0.4689 -1.5860
  963MOL0     H29975   1.770   3.606  10.608 -2.4451 -0.4071 -1.9228
  963MOL0     H29976   1.751   3.474  10.733  3.9062  0.0963  1.6345
  963MOL0     H29977   1.660   3.421  10.444  1.2573 -2.0588  0.9391
  963MOL0     H29978   1.628   3.343  10.593 -1.0456  1.5230  0.8087
  963MOL0     H29979   1.552   3.629  10.523 -0.2633 -0.1808  1.1426
  963MOL0     H29980   1.510   3.549  10.678  1.9056 -0.3650  1.0063
  963MOL0     H29981   1.419   3.500  10.401  1.0237  1.8378  0.6374
  963MOL0     H29982   1.392   3.367  10.519 -0.9769  0.0842  2.6154
  963MOL0     H29983   1.280   3.643  10.527 -4.9977  0.2792 -2.9778
  963MOL0     H29984   1.286   3.531  10.661  1.2325  1.3536  0.2740
  963MOL0     H29985   1.063   3.513  10.559 -1.0788  0.0814 -1.1785
  963MOL0     H29986   1.151   3.364  10.500 -2.1688 -0.2588 -2.8652
  963MOL0     H29987   1.994   3.810  10.780 -1.3253 -2.4271 -0.7009
  963MOL0     H29988   2.137   3.910  10.965  1.7779  0.4493  0.8582
  963MOL0     H29989   2.574   3.882  11.118 -0.0087  2.6523 -0.2596
  963MOL0     H29990   2.753   3.951  11.250  0.4574  0.3717  0.3819
  963MOL0     H29991   4.488   4.174  11.216 -0.1628  0.1025 -0.5517
  963MOL0     H29992   4.721   4.173  11.218  3.6007  1.5719  0.4353
  963MOL0     H29993   5.161   4.624  10.990  1.2208  1.0809  1.5470
  963MOL0     H29994   5.391   4.605  10.979 -0.3349  0.3535  0.1738
  963MOL0     H29995   5.579   4.556  10.960 -0.0219 -0.8704 -0.9701
  963MOL0     H29996   5.658   4.589  11.119  0.7224 -1.4334  0.1357
  963MOL0     H29997   5.807   4.497  10.932 -1.4012  1.9979  0.0821
  963MOL0     H29998   5.700   4.343  10.957 -0.2917 -0.1110  1.2625
  963MOL0     H29999   5.801   4.291  11.147  3.1373 -1.5414 -2.2785
  963MOL0     H30000   5.845   4.451  11.195 -2.3916  0.6200  0.7898
  963MOL0     H30001   5.949   4.307  10.947  0.5041  2.7342 -1.0198
  963MOL0     H30002   5.998   4.264  11.104  0.8575 -0.3302 -1.3948
  963MOL0     H30003   6.232   4.617  10.994  0.3893 -1.2877 -0.8207
  963MOL0     H30004   5.399   4.277  11.245 -0.9611 -1.8088  0.3586
  963MOL0     H30005   5.139   4.261  11.229  3.6175 -2.6488 -0.4995
  964MOL0     O30006   6.279   4.501   2.606 -0.4818 -0.6369 -0.4764
  964MOL0     C30007   6.354   4.481   2.708 -0.2314 -0.3054  0.1111
  964MOL0     O30008   6.310   4.448   2.834 -0.3630 -0.6157  0.1897
  964MOL0     C30009   6.169   4.436   2.839 -0.1775 -0.9704  0.7718
  964MOL0     C30010   6.083   4.355   2.764 -0.6601  0.1108  0.2841
  964MOL0     C30011   5.944   4.367   2.785 -0.4659  0.1227 -0.0992
  964MOL0     C30012   5.883   4.462   2.867  0.1065 -0.1712 -0.6662
  964MOL0     O30013   5.752   4.513   2.868  0.2850  0.4172 -1.1633
  964MOL0     C30014   5.670   4.475   2.755  0.1884 -0.2837 -0.0709
  964MOL0     C30015   5.582   4.592   2.726  0.8107 -0.4664 -1.3241
  964MOL0     C30016   5.472   4.556   2.621  0.4729  0.6076 -0.8182
  964MOL0     C30017   5.362   4.659   2.640  0.0306  0.3477 -0.5659
  964MOL0     C30018   5.250   4.652   2.537  0.0824  0.5568  0.3671
  964MOL0     C30019   5.153   4.764   2.562 -0.9873 -0.1849  0.4076
  964MOL0     C30020   5.014   4.753   2.478 -0.1539  0.1004 -0.1896
  964MOL0     C30021   4.927   4.632   2.527 -0.1419 -0.2140 -0.5443
  964MOL0     N30022   4.834   4.595   2.424 -0.3007  0.6656  0.0909
  964MOL0     C30023   4.717   4.660   2.392  0.1647 -0.2606  0.6198
  964MOL0     C30024   4.664   4.585   2.298 -0.1136  0.1592 -0.0104
  964MOL0     C30025   4.533   4.616   2.227 -0.3484 -0.1546 -0.2593
  964MOL0     C30026   4.414   4.552   2.309 -0.2275  0.3560 -0.0184
  964MOL0     C30027   4.280   4.550   2.233 -0.6827  0.1828  0.0450
  964MOL0     C30028   4.199   4.676   2.250  0.3637  0.1992 -0.0505
  964MOL0     O30029   4.134   4.728   2.133 -0.2602 -0.6698 -0.4540
  964MOL0     C30030   4.030   4.658   2.079 -0.3705 -0.4241 -0.0062
  964MOL0     C30031   3.981   4.717   1.965  0.7875 -0.1841 -0.0621
  964MOL0     C30032   3.889   4.654   1.875 -0.4794 -0.1131  0.4083
  964MOL0     C30033   3.833   4.722   1.758 -0.4144 -0.1621 -0.3822
  964MOL0     C30034   3.839   4.525   1.919  0.7194  0.1555  0.5400
  964MOL0     C30035   3.734   4.449   1.847  0.4443 -0.1499 -0.1336
  964MOL0     O30036   3.691   4.335   1.914 -0.0062  0.2738 -0.3707
  964MOL0     C30037   3.572   4.268   1.878 -0.7072 -0.2936 -0.5669
  964MOL0     C30038   3.565   4.134   1.918  0.0395 -0.3140 -0.1759
  964MOL0     C30039   3.450   4.061   1.889  0.2285 -0.2045 -0.2679
  964MOL0     C30040   3.336   4.126   1.836 -0.8114  0.7615  0.0425
  964MOL0     O30041   3.229   4.058   1.814  0.6308 -0.0526  0.2607
  964MOL0     C30042   3.115   4.140   1.853  0.6070  0.0576  0.3328
  964MOL0     C30043   2.987   4.068   1.882 -0.4075  0.7215 -0.0142
  964MOL0     C30044   2.873   4.162   1.895 -0.2580  0.1874  0.2570
  964MOL0     C30045   2.727   4.094   1.906 -0.3709 -0.3114  0.5412
  964MOL0     C30046   2.608   4.205   1.890 -0.8319  0.2165 -0.3139
  964MOL0     C30047   2.598   4.281   2.017  0.6373 -0.3381 -0.4745
  964MOL0     C30048   2.446   4.315   2.042  0.1449  0.5818 -0.2485
  964MOL0     C30049   2.400   4.410   1.925  0.6173  0.3394  0.2816
  964MOL0    Cl30050   2.222   4.442   1.963  0.1573 -0.2535 -0.1580
  964MOL0     C30051   3.351   4.261   1.783 -0.2568 -0.0950 -0.0296
  964MOL0     C30052   3.462   4.338   1.815 -0.2793 -0.0455 -0.3414
  964MOL0     O30053   3.708   4.465   1.731  0.2749 -0.2082  0.3762
  964MOL0     C30054   3.899   4.459   2.030 -0.1786 -0.3942 -0.0877
  964MOL0     C30055   3.997   4.523   2.107 -0.4714 -0.2807  0.1064
  964MOL0     N30056   4.753   4.488   2.260  0.2822 -0.5258  0.0252
  964MOL0     N30057   4.862   4.498   2.332  0.6128  0.3919  0.2091
  964MOL0     C30058   5.970   4.546   2.935  0.6421  0.3475 -0.1390
  964MOL0     C30059   6.109   4.538   2.925 -0.4790 -0.6473 -0.6264
  964MOL0     C30060   6.495   4.460   2.684  0.4098 -0.7788 -0.4427
  964MOL0     C30061   6.550   4.493   2.559  0.6668 -0.0482  0.0394
  964MOL0     C30062   6.687   4.484   2.541  0.3528 -0.7986  0.2208
  964MOL0     C30063   6.766   4.430   2.637  0.5689  0.0932 -0.2634
  964MOL0     O30064   6.900   4.427   2.609 -0.6195  0.2935 -0.6795
  964MOL0     C30065   6.986   4.375   2.708 -0.0317  0.2018  0.4321
  964MOL0     C30066   7.129   4.390   2.657  0.1309 -0.3600  0.2208
  964MOL0     C30067   7.149   4.545   2.612 -0.3226  0.2026  0.2935
  964MOL0     C30068   7.295   4.584   2.617 -0.6134  0.5989  0.0465
  964MOL0     C30069   7.380   4.535   2.510  0.0912 -0.7136 -0.7364
  964MOL0     C30070   7.441   4.497   2.418 -0.9192  0.4784 -0.4366
  964MOL0     C30071   6.713   4.397   2.766 -0.2437  0.2643  0.3827
  964MOL0     C30072   6.583   4.419   2.781 -0.1841  0.0475 -0.6608
  964MOL0     H30073   6.124   4.291   2.687  0.6342 -3.0340  3.3190
  964MOL0     H30074   5.886   4.316   2.708 -0.5843 -3.6332  2.2243
  964MOL0     H30075   5.728   4.462   2.663 -0.3673  2.2508 -0.8562
  964MOL0     H30076   5.607   4.389   2.781 -1.3953  0.5334 -0.9976
  964MOL0     H30077   5.536   4.624   2.820  1.0247  2.8849 -2.2442
  964MOL0     H30078   5.644   4.676   2.693  0.1379  0.8909  0.7214
  964MOL0     H30079   5.510   4.545   2.519  1.0458  1.5705 -0.7199
  964MOL0     H30080   5.425   4.463   2.653 -0.1378  1.5971  1.2589
  964MOL0     H30081   5.311   4.630   2.732 -0.4119 -2.8758 -1.6962
  964MOL0     H30082   5.402   4.761   2.634 -0.5055  0.4763 -3.1650
  964MOL0     H30083   5.282   4.649   2.432 -3.8331 -0.6826 -0.9597
  964MOL0     H30084   5.199   4.555   2.541 -0.2681  0.7407  0.3747
  964MOL0     H30085   5.135   4.770   2.670  0.6181  2.0187  0.6219
  964MOL0     H30086   5.207   4.855   2.535  1.4830 -1.9084 -0.7770
  964MOL0     H30087   4.963   4.850   2.484  0.3539  0.3209  0.9055
  964MOL0     H30088   5.038   4.747   2.372 -3.3861 -0.0484 -1.0292
  964MOL0     H30089   4.878   4.656   2.621  2.3613 -2.1132  1.3946
  964MOL0     H30090   4.989   4.546   2.553  0.1181 -0.4894 -1.9632
  964MOL0     H30091   4.669   4.747   2.435 -0.2697  0.5237 -1.3246
  964MOL0     H30092   4.524   4.725   2.219  1.0676 -0.1362 -3.3451
  964MOL0     H30093   4.533   4.583   2.123 -3.8383 -2.0362  0.2169
  964MOL0     H30094   4.402   4.606   2.403  1.0026 -0.4518  0.6200
  964MOL0     H30095   4.425   4.449   2.344  1.6648  1.2632  2.3165
  964MOL0     H30096   4.231   4.453   2.241  0.7970 -0.6599 -0.5504
  964MOL0     H30097   4.305   4.547   2.126  1.3297 -1.0312  0.4873
  964MOL0     H30098   4.267   4.751   2.292 -0.2495 -0.3018  1.9746
  964MOL0     H30099   4.129   4.656   2.333 -0.0583  1.6951 -0.0203
  964MOL0     H30100   4.028   4.808   1.929  1.2137 -0.6315 -0.6676
  964MOL0     H30101   3.890   4.813   1.734  0.3944 -0.6556 -0.3628
  964MOL0     H30102   3.841   4.665   1.665  0.3610 -2.2799  0.9098
  964MOL0     H30103   3.728   4.753   1.757 -0.0042  1.3501 -1.9973
  964MOL0     H30104   3.643   4.098   1.986  0.7451  0.4179 -0.5861
  964MOL0     H30105   3.444   3.961   1.931  2.5247 -0.4130 -0.2834
  964MOL0     H30106   3.148   4.190   1.944  0.5096  0.7170  0.0124
  964MOL0     H30107   3.089   4.218   1.780 -0.6964 -0.8396 -0.2199
  964MOL0     H30108   2.964   4.001   1.799 -0.7468  0.7036  0.0946
  964MOL0     H30109   3.006   4.005   1.970  1.0320 -0.9926 -1.4710
  964MOL0     H30110   2.881   4.230   1.810  0.4013 -1.0214 -0.6820
  964MOL0     H30111   2.890   4.218   1.988 -0.0103 -0.2912  0.5050
  964MOL0     H30112   2.723   4.017   1.829 -1.6873 -1.3903  1.6490
  964MOL0     H30113   2.710   4.038   1.999 -0.2345 -1.1958  0.0444
  964MOL0     H30114   2.516   4.147   1.880 -1.6521  1.3797  0.2785
  964MOL0     H30115   2.615   4.272   1.804 -0.5900  1.4858  0.6729
  964MOL0     H30116   2.635   4.219   2.098  3.1597  1.1667 -0.3860
  964MOL0     H30117   2.659   4.371   2.024 -1.9926  1.4190  3.6037
  964MOL0     H30118   2.425   4.361   2.138 -2.5372 -1.6437  0.3662
  964MOL0     H30119   2.397   4.217   2.044 -2.5912  1.8074 -1.6023
  964MOL0     H30120   2.403   4.358   1.829 -1.8517 -0.4313  0.5466
  964MOL0     H30121   2.452   4.505   1.917  0.1609  0.4155 -2.8014
  964MOL0     H30122   3.274   4.303   1.719  0.3536  2.9495  1.0567
  964MOL0     H30123   3.483   4.433   1.768  0.3218 -0.4549 -0.9116
  964MOL0     H30124   3.860   4.361   2.056 -2.4948 -0.3007 -2.7231
  964MOL0     H30125   4.047   4.458   2.178  0.3167 -0.8832 -0.9718
  964MOL0     H30126   5.932   4.618   3.006  1.0940  0.0232  0.4389
  964MOL0     H30127   6.177   4.612   2.966  3.1089 -2.1073 -3.3658
  964MOL0     H30128   6.494   4.527   2.472  0.4772 -1.2952 -0.3359
  964MOL0     H30129   6.733   4.528   2.453 -1.5774  3.0891  0.9062
  964MOL0     H30130   6.983   4.440   2.796 -0.4124  1.9567 -0.8133
  964MOL0     H30131   6.966   4.274   2.744 -1.8793  0.5285  0.3877
  964MOL0     H30132   7.158   4.329   2.571  5.0270 -1.2757  2.2131
  964MOL0     H30133   7.201   4.359   2.733  0.2978 -0.2686  0.1006
  964MOL0     H30134   7.088   4.614   2.671 -0.2850  1.7011 -1.3302
  964MOL0     H30135   7.127   4.567   2.508  2.3509  1.5533 -0.0880
  964MOL0     H30136   7.329   4.555   2.716 -2.2122  2.0400  1.0655
  964MOL0     H30137   7.299   4.693   2.608 -0.9651  0.4789 -2.3299
  964MOL0     H30138   7.482   4.458   2.327  1.1774  0.6776  0.3574
  964MOL0     H30139   6.781   4.359   2.842 -0.1008  0.9816  0.6232
  964MOL0     H30140   6.535   4.375   2.868  0.6029  1.4844  0.5445
  965MOL0     O30141   3.687   0.299   6.122  0.4300  0.4196 -0.4558
  965MOL0     C30142   3.754   0.196   6.096  0.9780 -0.3088 -0.4374
  965MOL0     O30143   3.708   0.084   6.035  0.4687  0.3619 -0.0738
  965MOL0     C30144   3.588   0.100   5.967  0.0762 -0.1560  0.3790
  965MOL0     C30145   3.575   0.189   5.856 -0.0134 -0.4059  0.1341
  965MOL0     C30146   3.454   0.210   5.784  0.9914  0.0161  1.0353
  965MOL0     C30147   3.338   0.141   5.825 -1.2447  0.4511  0.2219
  965MOL0     O30148   3.223   0.175   5.759  0.3577 -0.9324 -0.5104
  965MOL0     C30149   3.118   0.084   5.759  0.1034  0.5405 -0.4520
  965MOL0     C30150   2.988   0.167   5.732  0.2243 -0.0487  0.2820
  965MOL0     C30151   2.864   0.075   5.720  0.2255 -1.1010  0.2075
  965MOL0     C30152   2.744   0.172   5.714  0.7547  0.4092  0.0457
  965MOL0     C30153   2.616   0.102   5.669  0.6354 -0.0226 -0.0435
  965MOL0     C30154   2.499   0.191   5.625 -0.1455  0.7644 -0.5505
  965MOL0     C30155   2.369   0.116   5.645 -0.5688 -0.4689 -0.7644
  965MOL0     C30156   2.252   0.194   5.591 -0.0947 -0.5981 -0.0212
  965MOL0     N30157   2.147   0.099   5.562  0.8852  0.4407  0.1552
  965MOL0     C30158   2.069   0.031   5.661  0.1384 -0.1749 -1.3129
  965MOL0     C30159   1.991  -0.051   5.591 -0.3357 -0.3013 -0.0178
  965MOL0     C30160   1.886  -0.133   5.657  0.5432 -0.0186 -0.4561
  965MOL0     C30161   1.751  -0.064   5.633 -0.9585 -0.2253  0.7021
  965MOL0     C30162   1.642  -0.175   5.622 -0.3213 -0.8850 -0.7424
  965MOL0     C30163   1.501  -0.107   5.608  0.0298 -0.4065 -0.0589
  965MOL0     O30164   1.450  -0.055   5.731  0.3493 -0.4353 -0.0875
  965MOL0     C30165   1.326   0.010   5.721  0.2044  0.0033 -0.4020
  965MOL0     C30166   1.283   0.096   5.819  0.6483  0.7454  0.0019
  965MOL0     C30167   1.165   0.161   5.813  0.2226  0.3108 -0.4909
  965MOL0     C30168   1.144   0.248   5.936  0.3189 -0.6631 -0.4183
  965MOL0     C30169   1.072   0.142   5.703  0.5399  0.6751  0.7732
  965MOL0     C30170   0.948   0.229   5.691 -0.3458  0.0245  0.0744
  965MOL0     O30171   0.915   0.297   5.802 -0.0273  0.3484  0.5024
  965MOL0     C30172   0.829   0.401   5.794 -0.4151 -1.0380  1.4982
  965MOL0     C30173   0.868   0.526   5.740  0.0177 -0.2137  0.2232
  965MOL0     C30174   0.772   0.626   5.722 -0.4153  0.5738  0.1699
  965MOL0     C30175   0.635   0.613   5.759 -0.4255  0.1515  0.5441
  965MOL0     O30176   0.549   0.709   5.728  0.0587 -0.4258  0.0837
  965MOL0     C30177   0.438   0.664   5.648  0.7617 -0.3358 -0.1079
  965MOL0     C30178   0.302   0.649   5.724  0.8486 -0.0028  0.3162
  965MOL0     C30179   0.184   0.598   5.640 -0.0925 -0.6992 -0.3577
  965MOL0     C30180   0.167   0.453   5.609  0.3026  0.2580 -0.3326
  965MOL0     C30181   0.042   0.407   5.531 -0.2087 -0.5065  0.4183
  965MOL0     C30182   0.028   0.449   5.378 -0.2903  0.6314 -0.0884
  965MOL0     C30183   0.154   0.403   5.302 -0.1206  0.2488  0.5230
  965MOL0     C30184   0.146   0.399   5.149  0.0142  0.5361  0.0418
  965MOL0    Cl30185   0.136   0.568   5.072  0.1294  0.0452 -0.1842
  965MOL0     C30186   0.601   0.483   5.799 -0.2078  0.0379  0.2268
  965MOL0     C30187   0.694   0.385   5.818 -0.2737 -0.4136  0.3156
  965MOL0     O30188   0.886   0.225   5.585  0.6809 -0.3019  0.3339
  965MOL0     C30189   1.114   0.053   5.603 -0.5442  0.5545 -0.3803
  965MOL0     C30190   1.241  -0.007   5.604 -0.0260 -0.4369  0.6297
  965MOL0     N30191   2.012  -0.041   5.455  0.4146 -0.9632 -0.1008
  965MOL0     N30192   2.102   0.057   5.436  0.8293 -0.9931  0.3112
  965MOL0     C30193   3.351   0.040   5.926 -0.9427 -0.4499  0.2175
  965MOL0     C30194   3.468   0.029   5.997 -0.4615  0.2617  0.0920
  965MOL0     C30195   3.901   0.199   6.142  0.7520  0.2424 -0.2632
  965MOL0     C30196   3.948   0.320   6.193 -0.3952  0.1955 -0.2421
  965MOL0     C30197   4.084   0.335   6.219  1.0808  0.0339 -0.0139
  965MOL0     C30198   4.168   0.232   6.196  0.6761 -0.4471 -1.3824
  965MOL0     O30199   4.298   0.237   6.227 -0.9904 -0.3120 -0.2058
  965MOL0     C30200   4.368   0.364   6.234 -1.0758  0.2649  0.1929
  965MOL0     C30201   4.526   0.350   6.228 -0.3886  0.2799  0.6577
  965MOL0     C30202   4.588   0.270   6.333 -0.6155 -0.5903 -0.3081
  965MOL0     C30203   4.737   0.279   6.294 -0.3933 -0.2129 -0.1405
  965MOL0     C30204   4.809   0.196   6.390  0.2889 -0.6346 -0.0834
  965MOL0     C30205   4.862   0.116   6.461  0.0820  0.1305  0.3912
  965MOL0     C30206   4.118   0.113   6.152  0.0709  0.2714 -0.1088
  965MOL0     C30207   3.983   0.094   6.126  0.6891 -0.5258  0.5622
  965MOL0     H30208   3.644   0.264   5.819 -0.3954  0.0483  0.3416
  965MOL0     H30209   3.447   0.284   5.705 -0.8785  0.8105  1.8757
  965MOL0     H30210   3.135   0.009   5.681 -0.3302  0.3544 -0.3719
  965MOL0     H30211   3.108   0.025   5.851  1.5654 -0.2456 -0.7668
  965MOL0     H30212   2.974   0.244   5.808  0.3025  0.2031  0.0435
  965MOL0     H30213   3.005   0.220   5.638  0.1165 -1.7551 -0.7459
  965MOL0     H30214   2.860   0.007   5.635  0.0285 -0.4465 -0.3102
  965MOL0     H30215   2.865   0.008   5.807 -2.7006 -0.7536  0.6347
  965MOL0     H30216   2.717   0.225   5.806  2.3904  0.5973  0.4485
  965MOL0     H30217   2.762   0.253   5.644  0.0048 -0.7048 -1.4826
  965MOL0     H30218   2.638   0.035   5.585  2.4795 -1.3231  1.3949
  965MOL0     H30219   2.583   0.041   5.753 -1.9573  0.9399 -0.2669
  965MOL0     H30220   2.492   0.283   5.684 -1.1599 -0.7078  1.7954
  965MOL0     H30221   2.508   0.202   5.517  0.0690 -1.4770 -0.8199
  965MOL0     H30222   2.378   0.025   5.585  1.6874  1.4570 -3.6700
  965MOL0     H30223   2.357   0.102   5.752  0.2420  0.2458 -0.5654
  965MOL0     H30224   2.290   0.253   5.507  2.2287 -1.2393  0.5197
  965MOL0     H30225   2.223   0.263   5.671 -0.7143 -1.4366  0.4834
  965MOL0     H30226   2.084   0.063   5.764  3.4720  0.9258 -1.9902
  965MOL0     H30227   1.878  -0.232   5.613 -0.5783  0.9412 -2.5188
  965MOL0     H30228   1.917  -0.136   5.762 -1.5258  0.1959  0.2147
  965MOL0     H30229   1.739  -0.012   5.537 -2.0156 -1.2074  0.2807
  965MOL0     H30230   1.729   0.010   5.711  1.4661 -0.1330  1.3726
  965MOL0     H30231   1.657  -0.236   5.712  3.9978  0.1619 -0.5319
  965MOL0     H30232   1.658  -0.232   5.530  0.4487 -1.1733 -0.4356
  965MOL0     H30233   1.428  -0.181   5.576  0.4567  0.6120 -3.8359
  965MOL0     H30234   1.502  -0.031   5.529  0.5185 -1.1282 -0.7586
  965MOL0     H30235   1.358   0.102   5.897 -0.4384 -1.0289  1.2646
  965MOL0     H30236   1.053   0.240   5.996  0.5963 -2.0916 -0.1676
  965MOL0     H30237   1.233   0.236   5.997 -0.1165 -1.9682 -0.0183
  965MOL0     H30238   1.146   0.353   5.905 -2.7818 -0.2410  0.4217
  965MOL0     H30239   0.972   0.541   5.714 -0.0728  0.9587  0.4992
  965MOL0     H30240   0.800   0.716   5.667 -0.7639  0.4949 -0.1359
  965MOL0     H30241   0.416   0.744   5.577 -1.5523 -0.8953 -0.0796
  965MOL0     H30242   0.470   0.574   5.595  2.9035  0.1899  0.1849
  965MOL0     H30243   0.316   0.580   5.808  2.4359  0.4410  0.4340
  965MOL0     H30244   0.267   0.746   5.761 -4.1582 -0.0237 -3.3067
  965MOL0     H30245   0.180   0.656   5.547 -0.8208  2.3467  1.4428
  965MOL0     H30246   0.095   0.633   5.694 -1.4928 -0.2750 -2.7529
  965MOL0     H30247   0.258   0.435   5.551  2.3450  1.1192  2.4062
  965MOL0     H30248   0.178   0.385   5.694  0.2998 -1.3798 -1.5840
  965MOL0     H30249  -0.050   0.429   5.586  0.0535  2.3963 -0.1112
  965MOL0     H30250   0.054   0.299   5.530  0.1993 -0.4599 -0.1990
  965MOL0     H30251  -0.054   0.391   5.334  1.4474 -1.1482 -1.1437
  965MOL0     H30252   0.020   0.558   5.370  1.4883  0.7297 -1.2146
  965MOL0     H30253   0.177   0.300   5.332  0.5092  0.6197  1.3515
  965MOL0     H30254   0.240   0.469   5.319  0.4001 -0.5481  1.0912
  965MOL0     H30255   0.062   0.344   5.106  1.6985 -1.2881 -1.1088
  965MOL0     H30256   0.237   0.358   5.105 -1.4495  0.1596 -2.9274
  965MOL0     H30257   0.497   0.455   5.813 -0.4650  0.4537 -0.7385
  965MOL0     H30258   0.657   0.289   5.852 -1.8177  0.9354  2.7223
  965MOL0     H30259   1.050   0.023   5.521 -2.6470 -2.0206  2.0448
  965MOL0     H30260   1.253  -0.065   5.512 -1.2849 -0.4198  0.4268
  965MOL0     H30261   3.269  -0.021   5.964 -0.4842 -0.7516  0.7537
  965MOL0     H30262   3.478  -0.030   6.087 -1.2918  0.7501  0.5196
  965MOL0     H30263   3.885   0.400   6.230  0.0959  0.2343  0.5306
  965MOL0     H30264   4.124   0.426   6.263 -1.0577  1.3930 -0.7294
  965MOL0     H30265   4.348   0.419   6.141 -0.6340  0.5856  0.2828
  965MOL0     H30266   4.350   0.424   6.323  1.3009  0.5008  0.5804
  965MOL0     H30267   4.564   0.453   6.232  0.3037  0.1094 -0.9443
  965MOL0     H30268   4.552   0.306   6.131  1.0365  0.3528  0.9944
  965MOL0     H30269   4.549   0.168   6.336  0.9342 -1.2036 -0.6395
  965MOL0     H30270   4.560   0.322   6.425 -1.2455  0.7835 -1.2295
  965MOL0     H30271   4.779   0.379   6.302 -0.5699 -0.1537  0.0496
  965MOL0     H30272   4.759   0.228   6.200  0.2120  0.4755 -0.3863
  965MOL0     H30273   4.904   0.033   6.513  3.1697  2.0432  1.2539
  965MOL0     H30274   4.183   0.031   6.122 -0.2561 -0.1750  0.3804
  965MOL0     H30275   3.949   0.003   6.078  0.0228  1.2376 -2.6422
  966MOL0     O30276   6.661   9.713   0.939  0.4575  0.1703 -1.0726
  966MOL0     C30277   6.655   9.763   1.053 -0.2663  0.0629  0.0473
  966MOL0     O30278   6.563   9.849   1.112 -0.1893 -0.6531 -0.0447
  966MOL0     C30279   6.458   9.899   1.040 -0.1202 -0.5020 -0.7287
  966MOL0     C30280   6.459   9.933   0.901  1.0998 -1.1641  0.0569
  966MOL0     C30281   6.354  10.003   0.845  0.1203 -0.0075 -0.2051
  966MOL0     C30282   6.240  10.031   0.916  0.2723 -0.6658 -0.2287
  966MOL0     O30283   6.130  10.084   0.861  0.3010 -0.2620 -0.5549
  966MOL0     C30284   6.148  10.198   0.785 -0.3482 -0.8410 -0.6759
  966MOL0     C30285   6.010  10.260   0.771 -0.0862  0.2501 -0.3605
  966MOL0     C30286   6.031  10.410   0.727  0.1673 -0.8324  0.1511
  966MOL0     C30287   5.896  10.480   0.738  0.1263  0.4239 -0.2184
  966MOL0     C30288   5.801  10.435   0.625  0.4106  0.8194 -0.2865
  966MOL0     C30289   5.676  10.517   0.634 -0.0538 -0.8128  0.2253
  966MOL0     C30290   5.564  10.440   0.550  0.4046 -0.0575  0.1512
  966MOL0     C30291   5.421  10.499   0.584 -0.6774 -0.3175 -0.7499
  966MOL0     N30292   5.420  10.643   0.603 -0.3970  0.2656 -0.5607
  966MOL0     C30293   5.454  10.713   0.720 -0.2818  0.3364  0.0896
  966MOL0     C30294   5.416  10.838   0.693 -0.3104 -0.0383  0.5202
  966MOL0     C30295   5.420  10.951   0.801 -0.4897  0.1398  0.3062
  966MOL0     C30296   5.532  10.940   0.904  0.1198 -1.0797 -0.2361
  966MOL0     C30297   5.683  10.942   0.849  1.0406  0.1989  0.4468
  966MOL0     C30298   5.787  10.890   0.942  0.7284  0.2068 -0.3184
  966MOL0     O30299   5.915  10.904   0.893 -0.1745 -0.1077 -0.0621
  966MOL0     C30300   6.032  10.873   0.966 -0.3579 -1.3342 -0.4877
  966MOL0     C30301   6.040  10.855   1.102 -0.0735 -0.1670 -0.2071
  966MOL0     C30302   6.167  10.830   1.161  0.6446 -0.7366  0.0320
  966MOL0     C30303   6.163  10.817   1.314  0.2575  0.3552  0.1842
  966MOL0     C30304   6.290  10.831   1.086  0.5813  0.3405 -0.0809
  966MOL0     C30305   6.425  10.802   1.147  0.0368 -1.0681  0.3042
  966MOL0     O30306   6.449  10.771   1.275  0.0840 -0.1118 -0.4313
  966MOL0     C30307   6.575  10.752   1.308  0.1273  0.9693 -0.1192
  966MOL0     C30308   6.629  10.620   1.294  0.5913 -0.1968  0.2585
  966MOL0     C30309   6.763  10.602   1.329 -0.4014 -0.0218  0.1920
  966MOL0     C30310   6.843  10.712   1.373 -0.5004  0.4182  0.5812
  966MOL0     O30311   6.983  10.680   1.389  0.2302  0.5941  0.2155
  966MOL0     C30312   7.058  10.789   1.448 -0.3646 -0.4415  0.1666
  966MOL0     C30313   7.176  10.721   1.516  0.8288  0.1510 -0.5272
  966MOL0     C30314   7.143  10.636   1.644 -0.1459 -0.2422 -0.0597
  966MOL0     C30315   7.261  10.542   1.661 -0.4327 -0.8914 -0.0505
  966MOL0     C30316   7.275  10.465   1.787  0.4544  0.1384  0.2436
  966MOL0     C30317   7.419  10.405   1.817  0.1149 -0.5667 -0.2142
  966MOL0     C30318   7.508  10.502   1.890 -0.9662 -0.0474  0.0067
  966MOL0     C30319   7.653  10.469   1.904  0.0524  0.0929 -0.5272
  966MOL0    Cl30320   7.720  10.597   2.001 -0.6050  0.1962  0.2057
  966MOL0     C30321   6.790  10.844   1.374 -0.9515  0.5914 -0.6335
  966MOL0     C30322   6.658  10.856   1.345 -0.1311 -1.0014  0.5873
  966MOL0     O30323   6.517  10.828   1.070  0.2257 -0.4497 -0.1086
  966MOL0     C30324   6.279  10.870   0.946 -0.5624 -0.0840  0.0717
  966MOL0     C30325   6.154  10.892   0.892 -0.1334 -0.8029 -0.6791
  966MOL0     N30326   5.361  10.847   0.569 -0.1743  0.1142  0.4352
  966MOL0     N30327   5.368  10.732   0.516  0.5396 -0.5426 -0.1549
  966MOL0     C30328   6.230   9.988   1.051  0.0602 -0.2461 -0.1495
  966MOL0     C30329   6.342   9.918   1.105 -0.5963  0.5632  0.1917
  966MOL0     C30330   6.747   9.713   1.154 -0.3617  0.4779 -0.1318
  966MOL0     C30331   6.869   9.664   1.112 -0.2235 -0.1813 -0.7508
  966MOL0     C30332   6.975   9.655   1.205 -0.7266 -0.4138 -0.4266
  966MOL0     C30333   6.957   9.696   1.339  0.3686 -0.3013  0.0831
  966MOL0     O30334   7.052   9.701   1.438  0.4395 -0.4822 -0.1283
  966MOL0     C30335   7.186   9.643   1.420  0.9248  0.0700  0.2246
  966MOL0     C30336   7.205   9.506   1.493  0.4415 -0.1141  0.3404
  966MOL0     C30337   7.347   9.447   1.485 -0.7261  0.2211  0.5260
  966MOL0     C30338   7.368   9.356   1.605 -0.0065  0.9093 -0.0989
  966MOL0     C30339   7.493   9.282   1.580 -1.2513 -0.0057 -0.7368
  966MOL0     C30340   7.589   9.205   1.580  0.6083 -0.7173 -0.1352
  966MOL0     C30341   6.829   9.740   1.379 -0.3906  0.4199  0.6601
  966MOL0     C30342   6.727   9.749   1.292  1.3968 -0.2770  0.5433
  966MOL0     H30343   6.550   9.931   0.842  1.2180  1.5963 -0.0103
  966MOL0     H30344   6.353  10.028   0.740 -3.6270  0.9409 -0.1036
  966MOL0     H30345   6.206  10.268   0.847 -0.9365 -1.8984  1.1580
  966MOL0     H30346   6.201  10.185   0.690  1.7075  2.4711 -0.1659
  966MOL0     H30347   5.944  10.203   0.705 -0.8988 -1.0981  1.5330
  966MOL0     H30348   5.958  10.252   0.867 -2.6252 -3.2347 -1.8142
  966MOL0     H30349   6.105  10.460   0.791  1.5981 -2.5631 -0.0603
  966MOL0     H30350   6.075  10.421   0.628 -0.3928 -0.7306 -0.0894
  966MOL0     H30351   5.861  10.455   0.838 -0.2746  0.3936 -0.3632
  966MOL0     H30352   5.917  10.587   0.727  3.2568  0.2154  2.3422
  966MOL0     H30353   5.854  10.448   0.530  1.1340  0.4048  0.0508
  966MOL0     H30354   5.787  10.327   0.637  2.8145  0.5750  1.0555
  966MOL0     H30355   5.655  10.531   0.740 -1.7713  1.3813 -0.3265
  966MOL0     H30356   5.707  10.616   0.599  2.0363 -1.4233  0.2125
  966MOL0     H30357   5.583  10.459   0.444 -0.6851 -1.6434 -0.3834
  966MOL0     H30358   5.553  10.332   0.568  1.3224  0.2737  3.2102
  966MOL0     H30359   5.389  10.453   0.678 -2.1842  0.3769 -0.8974
  966MOL0     H30360   5.349  10.475   0.506 -2.5928 -1.1988  1.2026
  966MOL0     H30361   5.498  10.662   0.804  0.5293 -3.0797 -2.1816
  966MOL0     H30362   5.426  11.039   0.737 -1.6835 -0.3568 -0.5319
  966MOL0     H30363   5.325  10.955   0.855 -0.3533 -0.6687  0.6238
  966MOL0     H30364   5.523  10.847   0.960  2.3281 -0.3283  1.5282
  966MOL0     H30365   5.519  11.021   0.977 -1.0885 -1.6431  0.2056
  966MOL0     H30366   5.714  11.043   0.821  2.4684 -1.4294 -4.9191
  966MOL0     H30367   5.696  10.877   0.762  4.5286  1.3931 -0.0986
  966MOL0     H30368   5.763  10.787   0.970  0.9972  0.5994  1.4944
  966MOL0     H30369   5.790  10.949   1.034 -1.8581 -0.9834  0.6089
  966MOL0     H30370   5.946  10.851   1.157  1.5023 -3.2047  2.5974
  966MOL0     H30371   6.063  10.808   1.356  1.2581  2.6807  3.5085
  966MOL0     H30372   6.203  10.718   1.339  4.1409  1.5781 -0.4782
  966MOL0     H30373   6.217  10.902   1.356  0.7899 -0.0293  0.2956
  966MOL0     H30374   6.578  10.530   1.262 -1.9537  0.7427  1.3464
  966MOL0     H30375   6.820  10.511   1.312  3.8139  1.9492  2.1964
  966MOL0     H30376   7.105  10.857   1.377  0.9843 -1.4091  0.0788
  966MOL0     H30377   7.006  10.855   1.517  0.8289 -0.9553  1.6300
  966MOL0     H30378   7.221  10.646   1.449  1.1539 -0.3097  0.1978
  966MOL0     H30379   7.248  10.802   1.531  1.1432 -0.3354  0.7101
  966MOL0     H30380   7.052  10.577   1.627 -1.1007  0.4934  2.1975
  966MOL0     H30381   7.132  10.696   1.734 -1.0741 -1.1538  0.4492
  966MOL0     H30382   7.270  10.469   1.580  1.1027 -4.3686  2.9323
  966MOL0     H30383   7.353  10.600   1.663 -0.2133 -1.2342  1.3535
  966MOL0     H30384   7.211  10.376   1.785  0.4420  0.0357  2.5472
  966MOL0     H30385   7.237  10.522   1.873 -0.8726 -0.2763 -0.0310
  966MOL0     H30386   7.410  10.312   1.874  1.0647 -0.7100 -0.2701
  966MOL0     H30387   7.466  10.368   1.725  1.5063  0.5355  0.0214
  966MOL0     H30388   7.484  10.496   1.997  0.1209  2.1730  0.4424
  966MOL0     H30389   7.493  10.603   1.850 -1.0772 -0.1137 -0.1183
  966MOL0     H30390   7.706  10.480   1.808 -0.6792  0.4535 -0.8960
  966MOL0     H30391   7.678  10.369   1.940 -1.3645  0.3418  1.3037
  966MOL0     H30392   6.837  10.940   1.394 -2.1034  1.2269 -0.8402
  966MOL0     H30393   6.612  10.954   1.361 -0.1085  0.3523 -5.2326
  966MOL0     H30394   6.368  10.884   0.886  0.4356 -1.0629  1.2533
  966MOL0     H30395   6.142  10.916   0.787 -1.8985 -1.7270 -0.7417
  966MOL0     H30396   6.147  10.005   1.119 -0.4163 -1.4587 -0.4057
  966MOL0     H30397   6.354   9.878   1.205  2.5473 -0.2954 -0.4245
  966MOL0     H30398   6.888   9.640   1.008  0.1081  2.1716 -1.2916
  966MOL0     H30399   7.065   9.616   1.159 -0.1087 -0.2853  0.6481
  966MOL0     H30400   7.216   9.631   1.315 -0.6266  4.0384 -0.8641
  966MOL0     H30401   7.248   9.722   1.463 -0.0717  1.1298 -0.2109
  966MOL0     H30402   7.124   9.436   1.472  0.6407 -0.6181  1.1818
  966MOL0     H30403   7.185   9.531   1.598  0.6900 -0.1828  0.4059
  966MOL0     H30404   7.425   9.523   1.482  0.8465 -1.2337  2.2731
  966MOL0     H30405   7.345   9.380   1.399 -2.2406  0.8477  0.0392
  966MOL0     H30406   7.282   9.288   1.603 -1.5170  2.7590 -0.8837
  966MOL0     H30407   7.366   9.410   1.700 -0.8416  4.2419 -1.8429
  966MOL0     H30408   7.676   9.144   1.582  0.6555 -0.6297  1.9918
  966MOL0     H30409   6.808   9.753   1.485 -3.2776 -1.2999  0.4264
  966MOL0     H30410   6.630   9.784   1.325  0.0834 -2.1419 -1.1476
  967MOL0     O30411   0.712   7.087   8.307  0.0750  0.8607  0.1125
  967MOL0     C30412   0.739   7.036   8.199 -0.6745  0.0505 -0.3621
  967MOL0     O30413   0.651   7.022   8.098  0.0650 -0.1796 -0.7207
  967MOL0     C30414   0.518   7.052   8.098  0.5742 -0.3545 -0.6872
  967MOL0     C30415   0.441   7.004   7.996  1.4465 -0.5601  0.5102
  967MOL0     C30416   0.305   7.030   7.981  0.1085  0.4376  0.8148
  967MOL0     C30417   0.231   7.108   8.072 -0.6088 -0.1186 -0.0710
  967MOL0     O30418   0.094   7.117   8.086 -0.0283  0.2547  0.0523
  967MOL0     C30419   0.015   7.003   8.044  0.3646 -0.7769  0.4131
  967MOL0     C30420  -0.138   7.028   8.072 -0.5624 -0.5181  0.5408
  967MOL0     C30421  -0.234   6.944   7.985 -0.6334  0.5826 -0.7104
  967MOL0     C30422  -0.365   7.015   7.964 -0.1245  0.1071 -0.0131
  967MOL0     C30423  -0.441   6.958   7.849  0.3956 -0.9725 -0.1847
  967MOL0     C30424  -0.575   7.034   7.826  1.1771  0.4541 -0.2871
  967MOL0     C30425  -0.655   6.994   7.699 -0.0542  0.0495  0.2898
  967MOL0     C30426  -0.783   7.061   7.663  0.0058 -0.3048  0.2782
  967MOL0     N30427  -0.856   6.992   7.560 -0.0222 -0.4972 -0.2978
  967MOL0     C30428  -0.827   7.013   7.428 -0.8477  0.0739 -0.2868
  967MOL0     C30429  -0.923   6.948   7.357  0.5600  0.1657 -0.6242
  967MOL0     C30430  -0.917   6.935   7.211 -0.6626  0.3567 -0.0338
  967MOL0     C30431  -1.062   6.938   7.165  0.0708 -0.3630  0.0207
  967MOL0     C30432  -1.069   6.956   7.016  0.1362  0.9730 -0.2980
  967MOL0     C30433  -1.219   6.952   6.967 -0.2225 -0.1402 -0.7127
  967MOL0     O30434  -1.303   7.047   7.030  0.0914 -0.4985  0.1439
  967MOL0     C30435  -1.439   7.050   7.007 -0.0363 -0.1382  0.9766
  967MOL0     C30436  -1.518   7.129   7.094 -0.5607 -0.1779  0.7538
  967MOL0     C30437  -1.656   7.144   7.078 -0.2875 -0.2606 -0.2426
  967MOL0     C30438  -1.735   7.207   7.196 -0.9499  0.0996 -1.3128
  967MOL0     C30439  -1.718   7.083   6.974 -0.0361 -0.0439 -0.1382
  967MOL0     C30440  -1.860   7.114   6.930  0.0650 -0.1595 -0.1276
  967MOL0     O30441  -1.899   7.041   6.816  0.1714  0.2031 -0.8573
  967MOL0     C30442  -2.025   7.064   6.760 -0.5749 -0.3822  0.3654
  967MOL0     C30443  -2.072   7.195   6.746  0.4629  0.6044 -0.1354
  967MOL0     C30444  -2.206   7.221   6.697 -0.0064 -0.5186 -0.2656
  967MOL0     C30445  -2.278   7.112   6.651  0.7174  0.2153 -0.6719
  967MOL0     O30446  -2.409   7.132   6.604 -0.1192  0.3499 -0.2795
  967MOL0     C30447  -2.434   7.190   6.477  0.1557 -0.3229 -0.5176
  967MOL0     C30448  -2.448   7.339   6.475 -0.4982  0.0692 -0.2741
  967MOL0     C30449  -2.520   7.366   6.333 -0.2418  0.4324 -0.8195
  967MOL0     C30450  -2.539   7.519   6.311 -0.6574  0.3672  0.5558
  967MOL0     C30451  -2.594   7.570   6.177 -0.0047  0.9524  0.4243
  967MOL0     C30452  -2.501   7.560   6.062 -0.3786 -0.3420  0.1956
  967MOL0     C30453  -2.383   7.661   6.093 -1.1645  0.0810  0.0109
  967MOL0     C30454  -2.328   7.728   5.957  0.4819 -0.0246  0.2374
  967MOL0    Cl30455  -2.242   7.878   5.982 -0.6589 -0.0269 -0.4557
  967MOL0     C30456  -2.234   6.979   6.674  0.1837 -0.5142 -0.2708
  967MOL0     C30457  -2.108   6.958   6.728 -0.3109  0.7081  1.1254
  967MOL0     O30458  -1.934   7.189   7.001  0.2111  0.1994 -0.1168
  967MOL0     C30459  -1.645   6.999   6.882 -0.5205 -0.6906 -0.4163
  967MOL0     C30460  -1.511   6.983   6.900 -0.2265  0.4549  0.1316
  967MOL0     N30461  -1.010   6.895   7.451  0.6598  0.4317  0.0398
  967MOL0     N30462  -0.966   6.909   7.578  0.0488  0.1042  1.1079
  967MOL0     C30463   0.306   7.162   8.181 -1.1027 -0.8610 -0.5525
  967MOL0     C30464   0.444   7.128   8.194  0.5890 -0.7561  0.0519
  967MOL0     C30465   0.874   6.980   8.184 -0.6336  0.4449  1.2636
  967MOL0     C30466   0.909   6.920   8.062  0.7660 -0.7781 -0.3354
  967MOL0     C30467   1.033   6.868   8.047  0.1611  0.2422 -0.0627
  967MOL0     C30468   1.120   6.859   8.156 -0.7376 -0.1955 -0.2395
  967MOL0     O30469   1.233   6.797   8.115  0.7982 -0.1386 -0.4666
  967MOL0     C30470   1.313   6.754   8.221 -1.1334  0.2802 -0.0218
  967MOL0     C30471   1.429   6.676   8.169 -0.3047 -0.3647 -1.3828
  967MOL0     C30472   1.523   6.768   8.089  0.4211  0.2440  0.2969
  967MOL0     C30473   1.493   6.800   7.938 -0.0254 -0.2098 -0.2665
  967MOL0     C30474   1.598   6.889   7.884  0.3218 -1.3550  0.3557
  967MOL0     C30475   1.682   6.964   7.835 -0.5216 -0.4540 -0.1228
  967MOL0     C30476   1.096   6.914   8.278  0.2435 -0.3356  0.4309
  967MOL0     C30477   0.974   6.980   8.291 -0.3225 -0.2961 -0.6334
  967MOL0     H30478   0.490   6.944   7.919  0.6249  0.9145 -1.2320
  967MOL0     H30479   0.253   6.968   7.908  2.8398 -1.0604  0.0107
  967MOL0     H30480   0.022   6.971   7.939 -1.7018 -2.3629  0.6872
  967MOL0     H30481   0.049   6.922   8.110  1.2052 -1.3234 -0.6540
  967MOL0     H30482  -0.159   7.010   8.178  0.3359  2.5910  1.3412
  967MOL0     H30483  -0.163   7.133   8.059 -2.0469 -0.4446  3.3080
  967MOL0     H30484  -0.178   6.939   7.891  1.2521 -0.0383  0.3992
  967MOL0     H30485  -0.257   6.847   8.028 -2.4562  0.1781 -2.4493
  967MOL0     H30486  -0.424   6.990   8.052  0.3331 -0.2373  0.1974
  967MOL0     H30487  -0.343   7.121   7.948  0.4616 -0.0539 -0.3310
  967MOL0     H30488  -0.381   6.966   7.758  0.5984 -1.9398 -0.1450
  967MOL0     H30489  -0.454   6.851   7.865 -0.0476 -0.8485  0.2969
  967MOL0     H30490  -0.645   7.002   7.903  0.6040  4.4726  1.0863
  967MOL0     H30491  -0.568   7.143   7.832 -2.9211  0.9305 -1.5257
  967MOL0     H30492  -0.588   7.003   7.613  2.4198  2.2496  2.2479
  967MOL0     H30493  -0.678   6.888   7.711 -1.6198 -0.0014 -2.3709
  967MOL0     H30494  -0.769   7.166   7.636  1.8730 -0.8028 -0.8936
  967MOL0     H30495  -0.832   7.050   7.760  0.4079 -2.0605  0.3198
  967MOL0     H30496  -0.742   7.062   7.381 -0.3432  0.3130  0.8145
  967MOL0     H30497  -0.866   7.018   7.162 -0.9983 -0.6754 -2.2930
  967MOL0     H30498  -0.869   6.843   7.177  3.4580  2.2388  0.1763
  967MOL0     H30499  -1.108   7.019   7.221 -3.5418 -1.9046 -0.4463
  967MOL0     H30500  -1.108   6.847   7.205  0.1385  0.2935  1.6394
  967MOL0     H30501  -1.015   6.877   6.964 -3.2822 -1.3964 -0.6315
  967MOL0     H30502  -1.034   7.057   6.992  1.3141  0.1388 -2.3496
  967MOL0     H30503  -1.257   6.850   6.977  3.7890 -2.1505 -3.5443
  967MOL0     H30504  -1.218   6.969   6.859  0.3274  2.9383 -0.3036
  967MOL0     H30505  -1.463   7.186   7.168 -0.2307  0.4392  0.0419
  967MOL0     H30506  -1.810   7.146   7.246 -0.7403  2.3216  2.0423
  967MOL0     H30507  -1.674   7.232   7.283 -3.3060 -1.6736  0.9679
  967MOL0     H30508  -1.776   7.302   7.158 -1.4040  0.7480  0.7007
  967MOL0     H30509  -2.027   7.286   6.784 -1.1152  0.7464  1.5227
  967MOL0     H30510  -2.257   7.316   6.687 -5.3641 -3.1280 -1.5956
  967MOL0     H30511  -2.356   7.164   6.404  0.9516  0.0934  0.1657
  967MOL0     H30512  -2.529   7.148   6.442 -0.8766  0.1859  1.5464
  967MOL0     H30513  -2.515   7.355   6.560  0.9416 -0.1528  0.9358
  967MOL0     H30514  -2.345   7.374   6.488  0.1788 -2.2449  1.2407
  967MOL0     H30515  -2.623   7.329   6.320 -0.3632  1.4518 -3.2800
  967MOL0     H30516  -2.465   7.335   6.244 -0.3099  0.6062 -0.9208
  967MOL0     H30517  -2.620   7.536   6.382 -1.3548 -2.5076  0.5912
  967MOL0     H30518  -2.446   7.570   6.334  0.2481  0.0429 -1.9873
  967MOL0     H30519  -2.627   7.672   6.196  0.5342  1.2784 -0.3567
  967MOL0     H30520  -2.679   7.507   6.147  0.8387 -1.6404  3.0031
  967MOL0     H30521  -2.453   7.462   6.051 -1.0922 -0.6257 -0.4916
  967MOL0     H30522  -2.556   7.594   5.974 -1.6031  0.7101  1.3226
  967MOL0     H30523  -2.300   7.606   6.138 -0.1658  1.5140  0.0024
  967MOL0     H30524  -2.413   7.738   6.165  0.6603  1.0571 -0.2081
  967MOL0     H30525  -2.413   7.751   5.892  0.4155 -0.0607  0.3127
  967MOL0     H30526  -2.264   7.662   5.899 -0.9436 -0.3038 -1.0738
  967MOL0     H30527  -2.303   6.899   6.647  0.5087 -0.4468 -1.3481
  967MOL0     H30528  -2.085   6.853   6.744 -2.6721  0.4858  3.8182
  967MOL0     H30529  -1.686   6.950   6.794  0.6563 -0.7130 -0.9668
  967MOL0     H30530  -1.451   6.921   6.834  2.1882 -0.0121  2.5760
  967MOL0     H30531   0.264   7.213   8.267  0.2099 -2.1276  0.9045
  967MOL0     H30532   0.502   7.168   8.277  0.5790  1.5819 -0.9640
  967MOL0     H30533   0.847   6.920   7.973  1.7625 -0.9449 -1.0482
  967MOL0     H30534   1.057   6.818   7.954 -1.0261  0.0640 -0.2852
  967MOL0     H30535   1.355   6.835   8.280  0.7972  0.1922 -1.1811
  967MOL0     H30536   1.259   6.685   8.287 -2.9301 -1.5623 -3.1268
  967MOL0     H30537   1.396   6.587   8.114 -0.8872 -0.6966 -0.5176
  967MOL0     H30538   1.481   6.630   8.253 -1.7608 -3.1398 -1.8877
  967MOL0     H30539   1.620   6.719   8.097 -1.3971 -3.7135  0.5016
  967MOL0     H30540   1.527   6.860   8.147 -2.3811 -0.0290  1.0515
  967MOL0     H30541   1.393   6.846   7.935  0.8322  1.7374 -0.9999
  967MOL0     H30542   1.495   6.712   7.873  3.2752  0.5399 -1.3720
  967MOL0     H30543   1.764   7.021   7.797 -3.3882  2.5486 -2.3754
  967MOL0     H30544   1.169   6.916   8.359  1.0201  1.3417 -0.2540
  967MOL0     H30545   0.940   7.030   8.381 -0.0524 -0.2834 -0.5382
  968MOL0     O30546   7.760   5.489  10.295 -0.0029  0.0490  0.1338
  968MOL0     C30547   7.800   5.561  10.199 -0.6509 -0.4132  0.5732
  968MOL0     O30548   7.721   5.642  10.118 -0.4354  0.5044  0.4707
  968MOL0     C30549   7.580   5.639  10.133 -0.0571 -0.7260 -0.2651
  968MOL0     C30550   7.499   5.628  10.023  0.4629  0.7527 -0.2788
  968MOL0     C30551   7.360   5.614  10.028 -0.7583  1.0685  0.5740
  968MOL0     C30552   7.292   5.628  10.147 -1.2615 -0.0967 -0.2910
  968MOL0     O30553   7.156   5.634  10.171  0.1334 -0.5259  0.3266
  968MOL0     C30554   7.071   5.641  10.052 -0.0030 -0.4987  0.0911
  968MOL0     C30555   6.932   5.699  10.092 -0.1852  0.2011  0.1415
  968MOL0     C30556   6.848   5.753   9.971  0.2789 -1.0919 -0.2245
  968MOL0     C30557   6.700   5.775  10.015 -0.0031 -0.3922  0.8075
  968MOL0     C30558   6.606   5.833   9.902  0.3518 -0.0556  0.8642
  968MOL0     C30559   6.462   5.838   9.948  0.0668 -0.1351  0.0257
  968MOL0     C30560   6.378   5.872   9.822 -0.3318  0.9611 -0.2423
  968MOL0     C30561   6.222   5.850   9.835 -0.5731  0.3610 -1.0015
  968MOL0     N30562   6.168   5.941   9.938 -0.1834  0.2608 -0.3187
  968MOL0     C30563   6.132   5.918  10.070  0.2367 -0.2540  0.0554
  968MOL0     C30564   6.098   6.034  10.123  0.7898 -0.4933  0.0133
  968MOL0     C30565   6.032   6.062  10.262 -1.1467 -0.1026  0.7172
  968MOL0     C30566   5.882   6.015  10.264 -1.0701 -0.2751  0.7989
  968MOL0     C30567   5.803   6.016  10.393  0.2372 -0.1766  0.0124
  968MOL0     C30568   5.648   5.990  10.376 -0.8208  0.5092  0.0073
  968MOL0     O30569   5.603   5.849  10.353 -0.6693 -0.4572  0.9822
  968MOL0     C30570   5.472   5.836  10.328 -0.0276  0.9374  0.1524
  968MOL0     C30571   5.369   5.907  10.394  1.0359 -0.0750  0.5585
  968MOL0     C30572   5.231   5.881  10.361 -0.1329  0.6380 -0.3823
  968MOL0     C30573   5.127   5.971  10.431  0.7231 -0.4761  0.1062
  968MOL0     C30574   5.203   5.775  10.276 -0.5992  0.6431  0.0127
  968MOL0     C30575   5.059   5.740  10.248  0.4070 -0.1283  0.0111
  968MOL0     O30576   5.021   5.617  10.219 -0.3105 -0.2337  0.2766
  968MOL0     C30577   4.895   5.566  10.225  0.4619 -0.1322 -0.3456
  968MOL0     C30578   4.789   5.611  10.298 -0.6098 -0.4253 -0.5199
  968MOL0     C30579   4.675   5.541  10.304 -0.5509  0.4499  0.6759
  968MOL0     C30580   4.657   5.422  10.218 -0.1575  0.2491  0.0668
  968MOL0     O30581   4.549   5.343  10.216  0.6612 -0.2357 -0.0650
  968MOL0     C30582   4.423   5.412  10.243 -0.2508 -0.2020 -0.2143
  968MOL0     C30583   4.318   5.304  10.203 -0.0716  0.5780 -0.0947
  968MOL0     C30584   4.180   5.357  10.219 -0.1530 -0.4029  0.1979
  968MOL0     C30585   4.092   5.256  10.137  0.4977 -0.6123 -0.5235
  968MOL0     C30586   3.940   5.248  10.198  0.1142 -0.4624 -0.0854
  968MOL0     C30587   3.865   5.379  10.178  0.4701  0.7257  0.0232
  968MOL0     C30588   3.750   5.390  10.273 -0.1917  0.7886 -0.7622
  968MOL0     C30589   3.672   5.257  10.287 -0.1513 -0.2471 -0.3554
  968MOL0    Cl30590   3.517   5.276  10.364  0.1227 -0.0101 -0.0685
  968MOL0     C30591   4.766   5.388  10.138 -0.4468  0.5010 -0.5929
  968MOL0     C30592   4.881   5.458  10.141 -0.0782 -0.3396  0.4299
  968MOL0     O30593   4.974   5.834  10.249 -0.6936 -0.6480 -0.0607
  968MOL0     C30594   5.300   5.710  10.210 -0.6377 -0.0463 -0.1817
  968MOL0     C30595   5.437   5.739  10.233 -0.1704  0.2586  0.3207
  968MOL0     N30596   6.129   6.134  10.034 -0.4426  0.8228  0.2209
  968MOL0     N30597   6.182   6.077   9.929  0.7140 -0.0786  0.7024
  968MOL0     C30598   7.367   5.642  10.266  0.2633  0.2044  0.3307
  968MOL0     C30599   7.507   5.643  10.257 -0.2649  0.0819 -0.2403
  968MOL0     C30600   7.942   5.556  10.161 -0.5964 -0.2850  0.0071
  968MOL0     C30601   7.981   5.651  10.056 -0.2365  0.6261  0.3605
  968MOL0     C30602   8.111   5.636  10.011 -0.7140 -0.8026 -0.2113
  968MOL0     C30603   8.202   5.547  10.072 -0.4316  0.4843  0.0034
  968MOL0     O30604   8.331   5.530  10.041  0.2474  0.0436 -0.0245
  968MOL0     C30605   8.378   5.571   9.915  1.1734  0.0603 -0.4010
  968MOL0     C30606   8.511   5.496   9.881  0.3807 -0.6924  0.6971
  968MOL0     C30607   8.494   5.348   9.878  0.2866 -0.1965  0.1212
  968MOL0     C30608   8.422   5.302   9.749  0.0855 -0.5722  0.6922
  968MOL0     C30609   8.280   5.325   9.738  1.3621  0.1495  0.3761
  968MOL0     C30610   8.161   5.345   9.719 -0.4006 -0.0249 -0.0294
  968MOL0     C30611   8.158   5.465  10.183 -0.5537 -0.2312  0.7885
  968MOL0     C30612   8.027   5.474  10.231 -0.3435 -0.4253  0.2317
  968MOL0     H30613   7.552   5.630   9.928  0.8929 -2.1649 -0.1842
  968MOL0     H30614   7.304   5.611   9.935  0.9237 -1.5074 -0.4849
  968MOL0     H30615   7.117   5.719   9.991 -0.2750 -0.7687 -0.4682
  968MOL0     H30616   7.080   5.550   9.993  4.0356  0.4584 -1.1175
  968MOL0     H30617   6.879   5.610  10.130 -0.3273  0.3967  0.4120
  968MOL0     H30618   6.938   5.776  10.170 -1.1346 -0.7447  1.1862
  968MOL0     H30619   6.876   5.853   9.937  0.2200 -1.0212 -0.0655
  968MOL0     H30620   6.852   5.683   9.887 -1.5170 -1.2030 -0.2708
  968MOL0     H30621   6.660   5.679  10.049  0.8823 -0.8517  0.5930
  968MOL0     H30622   6.703   5.841  10.102 -1.9277 -1.3977  1.7049
  968MOL0     H30623   6.639   5.931   9.865 -1.6810  0.9025  1.4560
  968MOL0     H30624   6.607   5.763   9.817 -1.7875 -0.0073  0.7467
  968MOL0     H30625   6.438   5.734   9.971  1.0339 -0.6011 -0.9563
  968MOL0     H30626   6.448   5.907  10.032  0.9692 -0.5870  0.5630
  968MOL0     H30627   6.399   5.976   9.793  1.1965  0.7216 -0.0782
  968MOL0     H30628   6.412   5.816   9.734  1.5548  0.6224  0.6652
  968MOL0     H30629   6.204   5.744   9.850 -1.8485  0.1812 -3.3518
  968MOL0     H30630   6.170   5.876   9.742 -2.8923 -0.6012 -0.0468
  968MOL0     H30631   6.121   5.817  10.108 -0.7873 -1.3593 -2.8411
  968MOL0     H30632   6.084   6.017  10.346  1.5286  0.3898 -0.5726
  968MOL0     H30633   6.042   6.170  10.279 -1.7355 -0.0425  0.7215
  968MOL0     H30634   5.877   5.913  10.227 -1.1988 -0.3392  0.9899
  968MOL0     H30635   5.831   6.070  10.185  1.7898 -1.9820 -2.4732
  968MOL0     H30636   5.811   6.115  10.438 -1.5778  0.7381 -1.5262
  968MOL0     H30637   5.849   5.939  10.456 -0.6905 -0.6316  0.1488
  968MOL0     H30638   5.610   6.042  10.288 -0.6753  0.7497  0.0886
  968MOL0     H30639   5.599   6.014  10.471 -0.8890 -3.5418  1.1821
  968MOL0     H30640   5.390   5.989  10.461  0.8118  0.6838 -0.2736
  968MOL0     H30641   5.060   5.908  10.490 -0.9252 -1.0253 -2.2165
  968MOL0     H30642   5.172   6.050  10.493  1.5701  0.8461 -2.0687
  968MOL0     H30643   5.079   6.037  10.358  2.2107 -1.4791 -1.8785
  968MOL0     H30644   4.809   5.694  10.365 -1.0421  0.7965 -1.8777
  968MOL0     H30645   4.596   5.571  10.371 -0.6624 -1.0431  1.2559
  968MOL0     H30646   4.419   5.437  10.349  1.4851 -0.9429  0.0705
  968MOL0     H30647   4.408   5.505  10.188 -1.8133 -0.7988 -0.8586
  968MOL0     H30648   4.336   5.260  10.105  0.4286 -0.4370  0.4349
  968MOL0     H30649   4.325   5.223  10.277 -1.1444  1.6246  1.2032
  968MOL0     H30650   4.184   5.459  10.178  1.0125 -0.2248  0.7348
  968MOL0     H30651   4.141   5.362  10.321  2.4059  0.4108  1.2201
  968MOL0     H30652   4.083   5.286  10.033 -0.9212  0.9032 -0.0090
  968MOL0     H30653   4.131   5.154  10.138  0.3528 -0.7500  2.4760
  968MOL0     H30654   3.940   5.225  10.305 -3.3918 -0.9425 -0.0864
  968MOL0     H30655   3.891   5.165  10.147  0.9473 -0.5670 -0.7480
  968MOL0     H30656   3.925   5.468  10.194 -2.6003  2.7166  1.3681
  968MOL0     H30657   3.836   5.377  10.073 -1.0266  3.1094  0.3196
  968MOL0     H30658   3.697   5.472  10.224  2.5358  1.1465 -3.4043
  968MOL0     H30659   3.796   5.422  10.368  0.2616 -0.4541 -0.5507
  968MOL0     H30660   3.726   5.184  10.348 -0.2970 -1.7630 -1.9492
  968MOL0     H30661   3.662   5.208  10.189  0.4301 -1.2650  0.0781
  968MOL0     H30662   4.758   5.305  10.069 -2.6583  2.1660 -2.4814
  968MOL0     H30663   4.963   5.433  10.074 -1.3132  1.0525 -1.7408
  968MOL0     H30664   5.260   5.629  10.150 -0.7986  1.1122 -1.6895
  968MOL0     H30665   5.514   5.679  10.186  1.4185  0.7976  2.1321
  968MOL0     H30666   7.319   5.654  10.363  1.6722  2.0837  0.8544
  968MOL0     H30667   7.569   5.656  10.346 -1.6112 -1.4724  1.0041
  968MOL0     H30668   7.922   5.731  10.014 -0.8468  0.0848  0.1676
  968MOL0     H30669   8.142   5.702   9.930 -1.5022 -0.8859 -0.5880
  968MOL0     H30670   8.295   5.555   9.846 -0.8758  0.1404  1.9098
  968MOL0     H30671   8.395   5.679   9.918 -4.2667  1.1641  2.1947
  968MOL0     H30672   8.589   5.531   9.950  2.5226  0.3204 -2.0676
  968MOL0     H30673   8.547   5.524   9.782  1.0657 -1.6896  0.6410
  968MOL0     H30674   8.456   5.319   9.977 -0.7836 -0.0692 -0.2428
  968MOL0     H30675   8.593   5.302   9.876  0.2985 -0.2055  0.7036
  968MOL0     H30676   8.439   5.195   9.736  1.6355 -0.4310  1.3908
  968MOL0     H30677   8.479   5.335   9.661  1.1426  0.8778  1.8663
  968MOL0     H30678   8.056   5.363   9.707 -0.1607  3.5386  1.7803
  968MOL0     H30679   8.236   5.416  10.241  0.8888  0.4032 -0.5493
  968MOL0     H30680   7.995   5.432  10.326 -0.5069  1.1012  0.8866
  969MOL0     O30681   2.058   6.460   9.788 -0.7671  0.2834 -0.2731
  969MOL0     C30682   2.108   6.406   9.885 -0.4486  0.1167  0.4504
  969MOL0     O30683   2.044   6.335   9.982 -0.3912  0.1774 -1.4602
  969MOL0     C30684   1.906   6.336   9.980 -0.0690  0.2798  0.4705
  969MOL0     C30685   1.835   6.460   9.997  0.4263 -0.3718 -0.7807
  969MOL0     C30686   1.696   6.451  10.001 -0.2873  0.0908 -0.4540
  969MOL0     C30687   1.623   6.327   9.974  1.4298 -0.2455 -0.2523
  969MOL0     O30688   1.484   6.314   9.967 -0.1380  0.3237  0.5210
  969MOL0     C30689   1.402   6.427   9.999 -0.0836  0.2754  0.1986
  969MOL0     C30690   1.255   6.383   9.994  0.7216 -0.0832 -0.3995
  969MOL0     C30691   1.234   6.268  10.098 -0.4474  0.1526  0.0002
  969MOL0     C30692   1.088   6.244  10.104  0.0491 -0.3151 -0.7017
  969MOL0     C30693   1.047   6.158  10.227  0.6676  0.1878 -0.1012
  969MOL0     C30694   0.897   6.156  10.245 -0.5824 -0.2983  0.0466
  969MOL0     C30695   0.835   6.060  10.132  0.7564 -1.1123 -1.0084
  969MOL0     C30696   0.705   6.123  10.073  0.1319  0.4264  0.5839
  969MOL0     N30697   0.741   6.239   9.982 -0.4958  0.3156  0.0606
  969MOL0     C30698   0.806   6.223   9.865 -0.4704  0.1633  0.0996
  969MOL0     C30699   0.808   6.351   9.826 -0.5030 -1.0792  0.8346
  969MOL0     C30700   0.887   6.391   9.712 -1.2417  0.4965  0.2272
  969MOL0     C30701   1.011   6.307   9.688 -0.6750 -0.2482 -0.6454
  969MOL0     C30702   1.105   6.363   9.581  0.2809  0.9212 -0.2313
  969MOL0     C30703   1.240   6.302   9.560 -0.8110  0.4836 -0.4356
  969MOL0     O30704   1.208   6.182   9.482 -0.2422  0.4147 -0.7389
  969MOL0     C30705   1.311   6.146   9.402  0.7944  0.0119  0.8016
  969MOL0     C30706   1.296   6.154   9.258 -0.2130  0.4005  0.0659
  969MOL0     C30707   1.386   6.081   9.170  0.5946 -0.1417 -0.8629
  969MOL0     C30708   1.365   6.083   9.020 -0.1590 -0.5939 -0.1906
  969MOL0     C30709   1.504   6.016   9.231  0.6192 -0.1645 -0.0047
  969MOL0     C30710   1.606   5.940   9.152 -0.2007 -0.0268  0.0193
  969MOL0     O30711   1.738   5.948   9.189 -0.3469  0.0707 -0.7869
  969MOL0     C30712   1.828   5.872   9.117 -0.6555 -0.5425  0.1613
  969MOL0     C30713   1.861   5.746   9.173 -0.8205 -0.6447 -0.6608
  969MOL0     C30714   1.933   5.654   9.104 -1.4376 -0.0633  0.9986
  969MOL0     C30715   1.979   5.685   8.973 -0.3119  1.2015 -0.5068
  969MOL0     O30716   2.060   5.587   8.915  0.0258  0.4538  0.0131
  969MOL0     C30717   2.148   5.620   8.808  0.1252 -0.4180  0.6684
  969MOL0     C30718   2.258   5.512   8.778  0.6657  0.8751  0.4955
  969MOL0     C30719   2.210   5.382   8.719 -0.1466 -0.2986 -0.1728
  969MOL0     C30720   2.342   5.297   8.677 -0.0394  0.4612  0.0076
  969MOL0     C30721   2.297   5.157   8.632 -0.7973  0.8376 -0.3489
  969MOL0     C30722   2.432   5.082   8.607  0.2176 -0.3514  1.0271
  969MOL0     C30723   2.426   4.938   8.655  0.0419 -0.0100  0.5317
  969MOL0     C30724   2.552   4.852   8.657 -0.2432 -0.4309  0.8240
  969MOL0    Cl30725   2.665   4.913   8.774  0.4938  0.3844 -0.1994
  969MOL0     C30726   1.944   5.803   8.910  0.1632 -1.1881  0.3443
  969MOL0     C30727   1.872   5.901   8.991  0.4821  0.0485  0.1619
  969MOL0     O30728   1.573   5.889   9.052  0.2795  1.0197  0.3417
  969MOL0     C30729   1.528   6.030   9.369  0.3137 -0.7438 -0.4352
  969MOL0     C30730   1.428   6.084   9.451  0.1186  0.1796  0.6129
  969MOL0     N30731   0.738   6.431   9.914 -1.1171  0.3851 -0.5425
  969MOL0     N30732   0.710   6.365  10.015  0.3195  0.2207  0.4567
  969MOL0     C30733   1.695   6.210   9.980  0.5501 -0.6453  0.1248
  969MOL0     C30734   1.833   6.219   9.975 -0.3812  0.5083  0.3329
  969MOL0     C30735   2.261   6.397   9.894 -0.2657  0.1305  0.2018
  969MOL0     C30736   2.348   6.453   9.796  0.2936 -0.2360  0.0598
  969MOL0     C30737   2.485   6.433   9.790  0.4779  0.3391 -0.4202
  969MOL0     C30738   2.551   6.347   9.882  0.1426 -0.2681 -0.3912
  969MOL0     O30739   2.685   6.311   9.883  0.3929  1.1020  0.5219
  969MOL0     C30740   2.751   6.362   9.768 -0.4860 -0.3964  0.3594
  969MOL0     C30741   2.875   6.278   9.742  0.3538  0.9250  0.0336
  969MOL0     C30742   2.958   6.315   9.616  0.7611  0.2116 -0.0181
  969MOL0     C30743   3.079   6.222   9.598  0.1372 -1.5552  0.5999
  969MOL0     C30744   3.173   6.277   9.499 -0.1807  0.3214  0.1020
  969MOL0     C30745   3.253   6.328   9.430  0.5392 -0.1124  0.4970
  969MOL0     C30746   2.469   6.292   9.976 -0.1773  0.1185  0.4970
  969MOL0     C30747   2.332   6.318   9.989  0.3123  0.3244 -0.5448
  969MOL0     H30748   1.872   6.561  10.005  0.4271 -0.4904  1.1188
  969MOL0     H30749   1.652   6.548  10.023 -1.0061 -0.7249  2.0087
  969MOL0     H30750   1.431   6.464  10.098  0.7625 -1.9788  0.8570
  969MOL0     H30751   1.423   6.508   9.928 -2.8821 -1.8393 -3.4129
  969MOL0     H30752   1.182   6.464   9.997 -0.4112 -1.0215 -1.5152
  969MOL0     H30753   1.233   6.341   9.896  0.9148 -0.8565 -0.1188
  969MOL0     H30754   1.296   6.184  10.066  2.5610  2.3203 -0.2768
  969MOL0     H30755   1.283   6.299  10.191  2.3565  1.5894 -1.8031
  969MOL0     H30756   1.049   6.345  10.117  0.3265  0.0589 -2.4542
  969MOL0     H30757   1.056   6.205  10.007  2.2014 -1.4754 -1.0128
  969MOL0     H30758   1.086   6.056  10.223  2.7509  0.7904  2.2020
  969MOL0     H30759   1.104   6.192  10.314 -0.8533 -1.6089  1.7077
  969MOL0     H30760   0.860   6.116  10.340  0.0575 -1.4437 -0.1720
  969MOL0     H30761   0.863   6.258  10.223  0.2399 -0.8137 -4.6401
  969MOL0     H30762   0.906   6.037  10.053  0.3463 -0.2313 -1.6514
  969MOL0     H30763   0.805   5.964  10.177  2.3397 -2.1448 -2.0709
  969MOL0     H30764   0.636   6.153  10.152 -3.7405 -1.3265 -1.8316
  969MOL0     H30765   0.641   6.059  10.011  1.5360  0.7718 -1.3270
  969MOL0     H30766   0.855   6.133   9.829  1.3458  0.0200  2.6482
  969MOL0     H30767   0.829   6.394   9.619  1.3337  1.1147 -1.4713
  969MOL0     H30768   0.929   6.491   9.727  0.9205 -0.5586  1.7854
  969MOL0     H30769   0.987   6.202   9.666  2.2646 -0.8492 -1.3616
  969MOL0     H30770   1.069   6.310   9.781 -2.0802 -2.4915  0.4087
  969MOL0     H30771   1.129   6.467   9.604 -0.3127  1.4623 -1.8729
  969MOL0     H30772   1.048   6.369   9.488 -2.1353  0.8238  1.1676
  969MOL0     H30773   1.288   6.288   9.658 -1.0772 -1.5026 -0.5483
  969MOL0     H30774   1.309   6.364   9.503  1.2935 -1.8171 -0.5563
  969MOL0     H30775   1.216   6.209   9.209  0.0003 -0.4360 -1.2559
  969MOL0     H30776   1.453   6.081   8.956  0.3999 -0.2777  0.5630
  969MOL0     H30777   1.303   5.995   9.000 -2.0843 -0.5698  4.4179
  969MOL0     H30778   1.309   6.173   8.995 -1.0448 -0.2018  2.8147
  969MOL0     H30779   1.825   5.721   9.273 -1.0508 -3.0173 -1.2684
  969MOL0     H30780   1.970   5.564   9.153 -2.2109 -1.6336 -1.1298
  969MOL0     H30781   2.093   5.648   8.718  1.0296  0.2672  0.3133
  969MOL0     H30782   2.201   5.710   8.841 -0.9306  1.2337 -1.8715
  969MOL0     H30783   2.330   5.559   8.711 -0.3730 -0.1376 -1.4177
  969MOL0     H30784   2.304   5.495   8.876  4.2324 -1.8121 -1.3949
  969MOL0     H30785   2.155   5.421   8.633 -0.7049 -0.3882  0.1438
  969MOL0     H30786   2.151   5.326   8.792  1.5737  0.4100  1.8893
  969MOL0     H30787   2.392   5.342   8.590 -0.4229 -0.3437 -0.6428
  969MOL0     H30788   2.410   5.300   8.763 -0.1856  1.9537  0.1091
  969MOL0     H30789   2.233   5.151   8.544 -1.8732 -1.0080  0.4996
  969MOL0     H30790   2.225   5.119   8.705 -1.4630  1.4905 -0.6526
  969MOL0     H30791   2.456   5.094   8.501  0.0739  2.5405  1.2607
  969MOL0     H30792   2.519   5.128   8.654  0.3875 -0.7231  1.0805
  969MOL0     H30793   2.354   4.891   8.587  0.3668 -0.1561  0.2830
  969MOL0     H30794   2.379   4.941   8.754 -1.8893  0.6167 -0.3528
  969MOL0     H30795   2.599   4.861   8.559  2.8537 -0.4802  2.1811
  969MOL0     H30796   2.521   4.748   8.666 -0.3608 -0.8580 -2.9634
  969MOL0     H30797   1.990   5.827   8.814 -0.9061  0.3703  0.1712
  969MOL0     H30798   1.855   6.003   8.959 -2.1560  0.1228  1.4739
  969MOL0     H30799   1.610   5.970   9.408 -1.2281 -5.4676 -3.5877
  969MOL0     H30800   1.437   6.077   9.559 -0.3000  1.7828  0.7748
  969MOL0     H30801   1.649   6.121   9.939  1.8800 -1.1666 -0.2644
  969MOL0     H30802   1.889   6.134   9.938  1.1176  2.2150 -1.5531
  969MOL0     H30803   2.306   6.519   9.721  0.3899 -1.3908 -1.0432
  969MOL0     H30804   2.531   6.478   9.702 -2.1736  2.2166 -0.9527
  969MOL0     H30805   2.690   6.363   9.677 -2.1210 -1.1020  1.3844
  969MOL0     H30806   2.771   6.462   9.806 -0.7826 -0.6969  1.3489
  969MOL0     H30807   2.849   6.172   9.750  3.4648  0.2364  3.6648
  969MOL0     H30808   2.943   6.289   9.827  0.4569  0.8182 -0.0350
  969MOL0     H30809   2.987   6.421   9.613 -0.0267  0.4120 -0.9019
  969MOL0     H30810   2.894   6.313   9.528  0.0547 -1.0081  0.5039
  969MOL0     H30811   3.047   6.125   9.559 -0.6353 -0.5984 -1.2937
  969MOL0     H30812   3.123   6.211   9.698  0.6300  1.1604  0.7378
  969MOL0     H30813   3.324   6.386   9.375 -0.0909 -0.1688 -0.4016
  969MOL0     H30814   2.527   6.233  10.046  1.7172  1.2151 -0.0857
  969MOL0     H30815   2.271   6.275  10.068 -0.0560  1.2060 -0.3380
  970MOL0     O30816  10.788   5.834   6.190 -0.9199 -0.0214 -0.0676
  970MOL0     C30817  10.775   5.902   6.290  0.1456 -0.5696 -1.2217
  970MOL0     O30818  10.653   5.927   6.347  0.2689 -0.3791  0.1426
  970MOL0     C30819  10.549   5.851   6.314 -0.0417  0.5019 -0.6619
  970MOL0     C30820  10.546   5.715   6.336 -0.5704  0.6231 -0.3913
  970MOL0     C30821  10.439   5.638   6.286 -0.2479 -0.0457  0.0060
  970MOL0     C30822  10.329   5.696   6.224  0.4408  0.1463  0.2656
  970MOL0     O30823  10.215   5.638   6.173 -0.7918 -0.5214 -0.5187
  970MOL0     C30824  10.178   5.511   6.233  0.1852 -0.5575  0.3763
  970MOL0     C30825  10.043   5.453   6.174  0.1659  0.3848  0.5839
  970MOL0     C30826   9.926   5.549   6.178  0.0553 -0.5408 -0.1576
  970MOL0     C30827   9.908   5.606   6.319  0.3056  0.3019  0.0428
  970MOL0     C30828   9.805   5.718   6.329  0.2076  0.1354 -0.2272
  970MOL0     C30829   9.664   5.657   6.299  0.3735 -0.4703 -1.4028
  970MOL0     C30830   9.557   5.763   6.320  0.5847  0.6643 -0.2398
  970MOL0     C30831   9.419   5.714   6.263 -0.8362 -0.0841  0.8109
  970MOL0     N30832   9.299   5.799   6.287  0.2152  1.3577 -0.2194
  970MOL0     C30833   9.290   5.934   6.286 -0.0834 -0.8084 -0.8242
  970MOL0     C30834   9.173   5.970   6.352 -0.0346  0.3037 -0.1404
  970MOL0     C30835   9.134   6.117   6.377  0.0841  0.6290  0.7820
  970MOL0     C30836   8.993   6.168   6.334  0.1373  0.0980  0.2517
  970MOL0     C30837   8.876   6.074   6.330 -0.2364 -0.4945 -0.3006
  970MOL0     C30838   8.752   6.131   6.264  0.9791 -0.4356 -0.5397
  970MOL0     O30839   8.777   6.156   6.125  0.5365  0.0021 -0.3000
  970MOL0     C30840   8.657   6.190   6.053 -1.3349  0.1859  0.2477
  970MOL0     C30841   8.677   6.200   5.913  0.7677 -0.0675 -1.1014
  970MOL0     C30842   8.577   6.244   5.824  0.5434 -0.3843 -0.2675
  970MOL0     C30843   8.596   6.251   5.680  0.1493 -0.3840  0.6830
  970MOL0     C30844   8.449   6.280   5.882  0.2314  0.6364 -0.1431
  970MOL0     C30845   8.327   6.323   5.810  0.2593 -0.4996  0.3143
  970MOL0     O30846   8.230   6.392   5.879 -0.0394  0.0128  0.6397
  970MOL0     C30847   8.115   6.425   5.820  0.1942 -0.4955  0.2765
  970MOL0     C30848   8.104   6.544   5.750 -0.6986  0.2735 -0.8224
  970MOL0     C30849   7.979   6.577   5.693  0.2596 -0.3305 -0.2326
  970MOL0     C30850   7.869   6.496   5.708  0.4068  1.1657  0.3000
  970MOL0     O30851   7.749   6.509   5.642  0.6717 -0.2641 -0.2088
  970MOL0     C30852   7.717   6.632   5.570  0.0715  1.0262 -0.2585
  970MOL0     C30853   7.589   6.624   5.486  0.8513  0.2023 -0.2923
  970MOL0     C30854   7.454   6.632   5.569  1.0036  0.3533 -0.5233
  970MOL0     C30855   7.327   6.580   5.497  0.3631 -0.1873  0.5620
  970MOL0     C30856   7.196   6.597   5.574 -0.1736 -0.3505  0.3389
  970MOL0     C30857   7.081   6.538   5.504 -0.7931 -0.0173  0.1932
  970MOL0     C30858   6.956   6.543   5.585  0.9849  0.0936 -0.1769
  970MOL0     C30859   6.841   6.493   5.504  0.2708 -0.2385 -0.3233
  970MOL0    Cl30860   6.826   6.325   5.490 -0.1477  0.4515 -0.2485
  970MOL0     C30861   7.884   6.381   5.784  1.3142  0.7514  0.0884
  970MOL0     C30862   8.006   6.347   5.852 -0.5591  0.4513  0.7020
  970MOL0     O30863   8.309   6.283   5.696 -0.2451  0.4844  0.3101
  970MOL0     C30864   8.424   6.253   6.022 -0.6563  0.2824 -0.4204
  970MOL0     C30865   8.527   6.206   6.105  0.3154  0.6139  0.2114
  970MOL0     N30866   9.115   5.853   6.395 -0.4194 -0.0939  0.4970
  970MOL0     N30867   9.192   5.751   6.357  0.2470  0.6756 -0.3079
  970MOL0     C30868  10.333   5.835   6.210  0.1921  0.4720  0.1333
  970MOL0     C30869  10.445   5.910   6.262  0.6891  0.1295  0.4599
  970MOL0     C30870  10.886   5.983   6.337 -0.7768 -0.2910  0.0472
  970MOL0     C30871  10.868   6.071   6.444 -0.1920  0.7118 -0.8087
  970MOL0     C30872  10.980   6.127   6.507 -0.2479  0.2463 -0.3970
  970MOL0     C30873  11.110   6.100   6.460  0.7252 -0.6144  0.2856
  970MOL0     O30874  11.232   6.135   6.517  0.5644  0.3248 -0.0661
  970MOL0     C30875  11.233   6.243   6.606 -0.0601  0.0929 -0.5931
  970MOL0     C30876  11.361   6.323   6.571 -0.7649  0.2538 -0.2456
  970MOL0     C30877  11.497   6.243   6.545  0.1127 -0.4065  0.2386
  970MOL0     C30878  11.613   6.330   6.485  0.1688  0.2400  0.1386
  970MOL0     C30879  11.737   6.251   6.464  0.5905  0.5683 -0.2153
  970MOL0     C30880  11.846   6.200   6.442  0.4060 -0.0363  1.3924
  970MOL0     C30881  11.121   6.024   6.347 -0.0929 -0.6477  0.4504
  970MOL0     C30882  11.012   5.970   6.284 -0.3357 -0.6992  0.1104
  970MOL0     H30883  10.626   5.664   6.388 -1.7942 -1.8934 -0.7986
  970MOL0     H30884  10.427   5.531   6.304 -3.0160  0.1750 -0.1506
  970MOL0     H30885  10.251   5.435   6.201  1.0448 -0.1545  1.3155
  970MOL0     H30886  10.183   5.516   6.343 -3.5535  0.2880  0.6426
  970MOL0     H30887  10.052   5.414   6.073  1.7895 -1.0850  1.2489
  970MOL0     H30888  10.011   5.376   6.245  1.8589  0.1190  1.0910
  970MOL0     H30889   9.947   5.633   6.111 -0.9817  2.0614  2.5582
  970MOL0     H30890   9.836   5.499   6.141 -0.6282  0.1614  0.5321
  970MOL0     H30891   9.888   5.529   6.394 -1.2089  2.0864  1.5993
  970MOL0     H30892  10.002   5.648   6.357 -0.1781 -0.8407  2.6920
  970MOL0     H30893   9.795   5.764   6.428  0.2182  0.4812 -0.3848
  970MOL0     H30894   9.837   5.792   6.255 -1.6368 -1.2731 -2.5765
  970MOL0     H30895   9.663   5.620   6.196 -2.0174 -0.5408 -1.3994
  970MOL0     H30896   9.635   5.579   6.369 -3.8510  1.8624 -0.2113
  970MOL0     H30897   9.551   5.763   6.429  1.1599 -0.4505 -0.1960
  970MOL0     H30898   9.582   5.865   6.289  0.8681  0.9240  0.8046
  970MOL0     H30899   9.397   5.610   6.288 -1.4784 -0.1796 -0.0662
  970MOL0     H30900   9.430   5.693   6.156  2.1404  0.1297  1.0083
  970MOL0     H30901   9.367   6.007   6.262 -2.0028  2.1740  1.4091
  970MOL0     H30902   9.144   6.136   6.484 -1.4251  1.7731  0.7630
  970MOL0     H30903   9.207   6.190   6.340 -1.8707  1.8195 -0.9569
  970MOL0     H30904   9.007   6.213   6.235  0.8625 -3.4353 -1.4184
  970MOL0     H30905   8.972   6.251   6.402  1.1607  0.4012  0.2226
  970MOL0     H30906   8.858   6.060   6.437 -0.1886  3.4446  0.3819
  970MOL0     H30907   8.902   5.982   6.277  0.8811  0.5048 -1.5507
  970MOL0     H30908   8.731   6.231   6.304 -1.6254  0.0560 -2.8399
  970MOL0     H30909   8.661   6.072   6.279 -1.1031  1.8706 -3.1444
  970MOL0     H30910   8.775   6.175   5.875  2.2493  3.0554  0.2422
  970MOL0     H30911   8.544   6.166   5.635 -1.4440  2.0095 -2.3274
  970MOL0     H30912   8.558   6.339   5.627  2.0458 -0.8703 -1.6550
  970MOL0     H30913   8.700   6.242   5.648  0.7623  2.2684  1.6389
  970MOL0     H30914   8.181   6.618   5.730  0.2116 -0.5750 -0.5971
  970MOL0     H30915   7.970   6.670   5.638 -1.1677 -0.2021  0.1597
  970MOL0     H30916   7.703   6.711   5.645 -0.5191  1.1218 -0.4686
  970MOL0     H30917   7.796   6.654   5.497 -0.5297  0.1215 -1.1901
  970MOL0     H30918   7.596   6.705   5.413 -0.0086 -1.0901 -1.8808
  970MOL0     H30919   7.602   6.526   5.440 -0.7330  0.1241 -0.6357
  970MOL0     H30920   7.432   6.736   5.595  0.2934  0.2834 -0.8244
  970MOL0     H30921   7.466   6.579   5.664  2.0575 -0.9700 -1.3590
  970MOL0     H30922   7.313   6.643   5.408 -0.4631 -0.5741  0.4142
  970MOL0     H30923   7.337   6.474   5.473 -1.1228  0.0780 -1.5059
  970MOL0     H30924   7.174   6.704   5.582 -3.3348 -0.9527  0.8688
  970MOL0     H30925   7.208   6.552   5.673 -0.3851 -0.6666  0.2201
  970MOL0     H30926   7.059   6.596   5.413 -0.2304 -0.7000 -0.3969
  970MOL0     H30927   7.108   6.437   5.472  1.6168 -0.5207  3.3349
  970MOL0     H30928   6.934   6.645   5.619 -0.8168 -0.1536 -0.4989
  970MOL0     H30929   6.966   6.473   5.669  1.3319  1.1242  0.6578
  970MOL0     H30930   6.861   6.539   5.407  2.6206 -1.7948 -0.6543
  970MOL0     H30931   6.744   6.533   5.532 -0.2289 -1.1099 -0.7521
  970MOL0     H30932   7.807   6.304   5.792  2.3552 -0.5403 -1.6155
  970MOL0     H30933   8.012   6.260   5.916 -1.6383  1.8949  2.8963
  970MOL0     H30934   8.325   6.259   6.067 -0.3990  1.3841  0.0417
  970MOL0     H30935   8.504   6.186   6.209 -1.3372 -2.0603 -0.5709
  970MOL0     H30936  10.241   5.876   6.171  0.2992  0.8522  0.2721
  970MOL0     H30937  10.455   6.018   6.255  4.0013  0.0046  1.5321
  970MOL0     H30938  10.765   6.081   6.480 -0.6153  1.5087 -2.1870
  970MOL0     H30939  10.971   6.196   6.591 -2.2442  1.3960 -1.4927
  970MOL0     H30940  11.158   6.320   6.586  2.0965  2.4452 -0.2173
  970MOL0     H30941  11.219   6.213   6.710  2.5333  0.3020 -0.1239
  970MOL0     H30942  11.385   6.382   6.661  0.4145 -3.9278  2.5059
  970MOL0     H30943  11.342   6.381   6.481 -1.8645 -1.8935 -1.4685
  970MOL0     H30944  11.483   6.164   6.471 -0.6790  2.0034 -2.3652
  970MOL0     H30945  11.526   6.210   6.645 -1.5885  0.2013  0.9771
  970MOL0     H30946  11.631   6.410   6.558 -0.2874 -0.0576  0.5751
  970MOL0     H30947  11.600   6.388   6.393  0.6281  3.7515  2.0940
  970MOL0     H30948  11.947   6.171   6.421 -0.2669 -0.6470 -1.3611
  970MOL0     H30949  11.224   6.009   6.314 -0.0560 -0.3740  0.4349
  970MOL0     H30950  11.020   5.903   6.199  1.0838 -2.1539  1.3342
  971MOL0     O30951   4.320   2.639  10.947 -0.2768 -0.1032  0.4604
  971MOL0     C30952   4.377   2.565  11.029  0.1998 -0.5365 -1.0489
  971MOL0     O30953   4.313   2.465  11.097 -0.2222  0.5791 -0.1226
  971MOL0     C30954   4.183   2.427  11.075 -0.2023  0.6887 -0.7938
  971MOL0     C30955   4.073   2.505  11.027  0.0510  0.0155  0.2339
  971MOL0     C30956   3.950   2.444  11.015  0.3558  0.8977 -0.5449
  971MOL0     C30957   3.927   2.308  11.047 -0.4352  0.0925  1.3959
  971MOL0     O30958   3.807   2.245  11.056  0.4246  0.2362 -0.1093
  971MOL0     C30959   3.708   2.322  11.128  0.5602 -0.8607  0.5647
  971MOL0     C30960   3.583   2.330  11.038  0.3920  0.5520  0.3966
  971MOL0     C30961   3.474   2.352  11.134 -0.1291  0.3114 -0.3965
  971MOL0     C30962   3.347   2.360  11.055  0.3635 -0.8872 -0.4211
  971MOL0     C30963   3.226   2.430  11.132  0.6403 -0.0196 -0.3140
  971MOL0     C30964   3.106   2.441  11.034 -1.4751  0.6009  0.4271
  971MOL0     C30965   2.969   2.462  11.094  0.3626 -0.3106 -0.3812
  971MOL0     C30966   2.869   2.493  10.975  0.0818  1.1732  0.8404
  971MOL0     N30967   2.738   2.527  11.020 -0.4806 -0.4433  0.2617
  971MOL0     C30968   2.711   2.652  11.076  0.4286  0.2667  0.1045
  971MOL0     C30969   2.579   2.645  11.093 -0.5720  0.2793 -1.0334
  971MOL0     C30970   2.493   2.760  11.141  0.1292  1.0615 -0.2820
  971MOL0     C30971   2.358   2.765  11.055  0.0092 -0.3096 -0.7810
  971MOL0     C30972   2.368   2.792  10.908  0.3878 -0.0705  0.1088
  971MOL0     C30973   2.230   2.823  10.849  0.9873 -0.5910  0.0202
  971MOL0     O30974   2.142   2.714  10.847  0.1162 -0.5732  0.1693
  971MOL0     C30975   2.027   2.720  10.765 -0.4309 -0.5627  0.2120
  971MOL0     C30976   2.001   2.825  10.669  0.0283  0.7471 -0.4061
  971MOL0     C30977   1.879   2.839  10.599 -0.1757  0.7436 -0.3396
  971MOL0     C30978   1.868   2.950  10.505  0.6020 -0.5760 -0.4106
  971MOL0     C30979   1.767   2.753  10.634 -0.2503 -0.1748  0.5174
  971MOL0     C30980   1.627   2.764  10.580  0.7064  0.0446  0.4092
  971MOL0     O30981   1.559   2.643  10.569  0.9343 -0.8804  1.0095
  971MOL0     C30982   1.422   2.651  10.549  0.2782 -0.5200 -1.1445
  971MOL0     C30983   1.334   2.715  10.641 -0.1322  0.1182 -0.6027
  971MOL0     C30984   1.196   2.721  10.624 -0.2303 -0.3997 -0.3372
  971MOL0     C30985   1.142   2.668  10.509  0.0623  0.3143  0.3023
  971MOL0     O30986   1.007   2.679  10.486  0.0370 -0.2418 -0.9325
  971MOL0     C30987   0.948   2.594  10.385 -1.0164  0.2302  0.0167
  971MOL0     C30988   0.801   2.613  10.403  0.2470 -0.4103  1.3125
  971MOL0     C30989   0.714   2.483  10.415 -0.4078 -1.0030  0.1372
  971MOL0     C30990   0.689   2.410  10.284 -1.3186  0.2474 -0.2190
  971MOL0     C30991   0.612   2.493  10.181 -0.2187  0.4429  0.0519
  971MOL0     C30992   0.563   2.412  10.068 -0.4056 -0.4813 -1.0447
  971MOL0     C30993   0.654   2.411   9.940 -0.0572  0.2308 -0.7745
  971MOL0     C30994   0.605   2.302   9.848  0.1932  0.4397  0.3503
  971MOL0    Cl30995   0.448   2.347   9.797 -0.3360  0.3036 -0.0067
  971MOL0     C30996   1.229   2.619  10.412  0.7155 -0.0039  0.8137
  971MOL0     C30997   1.367   2.607  10.435  0.3479  0.4334  0.5514
  971MOL0     O30998   1.579   2.876  10.557 -0.4734  0.1804  0.1560
  971MOL0     C30999   1.789   2.660  10.735 -0.8315 -0.3726  0.7028
  971MOL0     C31000   1.915   2.634  10.786 -0.3952 -0.2216 -0.3460
  971MOL0     N31001   2.531   2.520  11.046 -0.6002  0.4223 -0.6482
  971MOL0     N31002   2.630   2.455  10.994  0.5479 -0.4815  0.2443
  971MOL0     C31003   4.031   2.237  11.084 -0.6313  0.1835 -0.0387
  971MOL0     C31004   4.160   2.290  11.096  0.6781 -0.5367 -0.5369
  971MOL0     C31005   4.523   2.577  11.051  0.6167  0.1530 -0.1078
  971MOL0     C31006   4.591   2.690  11.015  0.5578 -0.0711 -0.0346
  971MOL0     C31007   4.732   2.710  11.041  0.4842 -0.3839 -0.2786
  971MOL0     C31008   4.803   2.611  11.099  1.2025  0.2886 -0.0092
  971MOL0     O31009   4.936   2.628  11.093 -0.5190 -0.0127 -0.1047
  971MOL0     C31010   5.014   2.507  11.075  0.4559  0.9784 -0.2524
  971MOL0     C31011   5.149   2.525  11.013 -0.5297  0.3439  0.1533
  971MOL0     C31012   5.251   2.574  11.115  0.5776 -0.7544 -0.5061
  971MOL0     C31013   5.378   2.586  11.035 -0.1361  0.2396 -0.9722
  971MOL0     C31014   5.381   2.705  10.940  0.7331 -0.1202  0.0667
  971MOL0     C31015   5.388   2.804  10.870  0.1819 -0.3503 -0.0783
  971MOL0     C31016   4.728   2.503  11.146  0.4873 -0.4219 -0.0468
  971MOL0     C31017   4.599   2.479  11.115 -0.5331 -0.1991 -0.0141
  971MOL0     H31018   4.079   2.609  10.995  0.8286 -1.1357 -3.9493
  971MOL0     H31019   3.865   2.501  10.979 -1.5460 -2.1380 -1.2921
  971MOL0     H31020   3.691   2.274  11.224 -0.8098  1.3584  1.5089
  971MOL0     H31021   3.741   2.423  11.154 -2.2460 -0.0392  1.2821
  971MOL0     H31022   3.588   2.410  10.964 -1.6485 -1.5580 -2.2586
  971MOL0     H31023   3.571   2.236  10.983  0.4074  0.3701  0.7040
  971MOL0     H31024   3.467   2.279  11.216  2.4872 -0.8117 -1.0580
  971MOL0     H31025   3.486   2.453  11.174  1.7301 -0.0538  0.0616
  971MOL0     H31026   3.364   2.426  10.970  0.8079  0.8280  0.9343
  971MOL0     H31027   3.323   2.258  11.022 -0.5203 -0.8960  0.2019
  971MOL0     H31028   3.209   2.368  11.221  2.3717 -1.3740 -0.8541
  971MOL0     H31029   3.258   2.528  11.167  0.5427  0.0802 -0.5070
  971MOL0     H31030   3.128   2.517  10.959  1.1047 -2.2763 -2.0265
  971MOL0     H31031   3.098   2.344  10.983  1.1140 -0.3506  1.6412
  971MOL0     H31032   2.935   2.372  11.147  3.1396 -2.0217 -1.2934
  971MOL0     H31033   2.968   2.544  11.167 -2.5615 -1.9814  1.6697
  971MOL0     H31034   2.855   2.398  10.923 -3.7714  0.1799  3.2759
  971MOL0     H31035   2.910   2.567  10.905  0.0206 -0.3685 -0.9018
  971MOL0     H31036   2.769   2.739  11.102  0.2847  0.2214  0.5880
  971MOL0     H31037   2.472   2.738  11.246  0.4425  0.0662 -0.4247
  971MOL0     H31038   2.548   2.855  11.134  2.9767 -0.5948 -2.3911
  971MOL0     H31039   2.286   2.836  11.096  1.0567  1.0021 -1.1672
  971MOL0     H31040   2.318   2.664  11.072  0.8156 -1.2814 -3.8592
  971MOL0     H31041   2.425   2.708  10.868 -0.3912 -1.1588  1.2109
  971MOL0     H31042   2.431   2.879  10.889  0.4502 -0.1466 -0.0320
  971MOL0     H31043   2.249   2.856  10.746  1.7138 -1.1422 -0.0255
  971MOL0     H31044   2.184   2.903  10.908 -1.6543 -1.3329 -0.8765
  971MOL0     H31045   2.078   2.896  10.643  0.0821  0.7227 -0.3166
  971MOL0     H31046   1.964   2.967  10.455  1.6389 -0.9929  1.3656
  971MOL0     H31047   1.789   2.940  10.430  2.4649  0.5888 -2.6802
  971MOL0     H31048   1.848   3.046  10.553  1.4775  0.7786 -2.5679
  971MOL0     H31049   1.388   2.751  10.728  0.5821  0.5551 -1.2127
  971MOL0     H31050   1.133   2.777  10.692 -0.9931 -1.9950  0.3098
  971MOL0     H31051   0.977   2.629  10.285  0.0813 -0.4633  0.0760
  971MOL0     H31052   0.980   2.493  10.410  0.0858  0.9256  1.6413
  971MOL0     H31053   0.793   2.672  10.495  1.0913  0.2723  0.9680
  971MOL0     H31054   0.763   2.679  10.325  1.7629 -1.7138 -0.6551
  971MOL0     H31055   0.624   2.503  10.473  0.9866  1.8451  1.5172
  971MOL0     H31056   0.769   2.414  10.479 -0.2823 -0.7987  0.2497
  971MOL0     H31057   0.788   2.386  10.244 -0.0307  2.9810  1.0667
  971MOL0     H31058   0.639   2.315  10.302 -1.0165  0.3440  1.2380
  971MOL0     H31059   0.669   2.575  10.136  2.8988 -2.3311 -1.4678
  971MOL0     H31060   0.521   2.532  10.227  0.4628  0.6477  1.2572
  971MOL0     H31061   0.533   2.311  10.097 -1.8275 -0.0206 -0.8705
  971MOL0     H31062   0.467   2.456  10.041  0.4178  0.6624 -2.2173
  971MOL0     H31063   0.759   2.388   9.955 -0.3302 -0.0040  0.9224
  971MOL0     H31064   0.642   2.510   9.894  0.2379  0.0758 -1.1942
  971MOL0     H31065   0.598   2.208   9.903 -1.6121  2.0043  3.0773
  971MOL0     H31066   0.673   2.279   9.766 -0.8026 -0.9257 -0.1237
  971MOL0     H31067   1.197   2.587  10.314  0.7431  0.2594  0.7169
  971MOL0     H31068   1.427   2.564  10.355 -1.2818 -3.2312  1.0918
  971MOL0     H31069   1.708   2.593  10.767 -0.9450  0.6475  2.7340
  971MOL0     H31070   1.931   2.552  10.855  0.1774  1.3178  1.4434
  971MOL0     H31071   4.022   2.132  11.109  2.9074 -0.5834 -1.2892
  971MOL0     H31072   4.241   2.228  11.132 -0.0218 -1.4867 -0.5442
  971MOL0     H31073   4.535   2.774  10.974  1.0713 -0.2032 -1.0392
  971MOL0     H31074   4.785   2.795  11.001  0.9419 -1.7737 -2.8082
  971MOL0     H31075   5.032   2.448  11.166 -0.6496  0.5368 -0.3058
  971MOL0     H31076   4.959   2.434  11.015  0.7333  0.6466 -0.1089
  971MOL0     H31077   5.128   2.594  10.930 -0.5771  2.1554  1.6058
  971MOL0     H31078   5.182   2.431  10.967 -0.2617 -0.2801  1.5746
  971MOL0     H31079   5.266   2.500  11.195 -1.5221 -0.8001 -0.0930
  971MOL0     H31080   5.223   2.670  11.159 -0.4323 -2.0641  1.9168
  971MOL0     H31081   5.394   2.489  10.988  1.1588 -1.5145  2.6953
  971MOL0     H31082   5.460   2.598  11.106 -0.1609  0.7819 -1.0337
  971MOL0     H31083   5.394   2.889  10.805 -1.5324  1.9141  2.4894
  971MOL0     H31084   4.784   2.424  11.197 -0.3488  0.5962  2.5977
  971MOL0     H31085   4.571   2.382  11.154 -0.1915 -0.8248 -1.2505
  972MOL0     O31086   7.832   8.368   0.175  0.0119  0.0785 -0.5479
  972MOL0     C31087   7.953   8.358   0.152  0.5086 -0.4713 -0.4469
  972MOL0     O31088   8.005   8.276   0.069 -0.3985 -0.5072  0.1515
  972MOL0     C31089   7.920   8.195   0.002 -0.3168 -0.9363  0.0840
  972MOL0     C31090   7.889   8.069   0.040 -0.1848 -0.4365 -0.0600
  972MOL0     C31091   7.804   7.993  -0.034  0.4601  0.6919  0.5239
  972MOL0     C31092   7.743   8.049  -0.150 -0.3015  0.1735 -1.0541
  972MOL0     O31093   7.646   7.987  -0.214  0.6881  0.5105  0.0863
  972MOL0     C31094   7.622   7.847  -0.209  0.3865  0.3008 -0.4378
  972MOL0     C31095   7.500   7.802  -0.285 -0.0797 -0.0075 -0.4034
  972MOL0     C31096   7.541   7.781  -0.429 -0.4690 -0.8199 -0.4256
  972MOL0     C31097   7.427   7.712  -0.505  0.5768 -0.1509  0.5296
  972MOL0     C31098   7.488   7.669  -0.646 -1.0433  0.1845  0.3522
  972MOL0     C31099   7.396   7.565  -0.698 -0.1170  1.3515 -0.0227
  972MOL0     C31100   7.447   7.514  -0.835 -0.5729 -0.2356 -0.0125
  972MOL0     C31101   7.418   7.609  -0.953  0.3256 -0.5019 -0.3775
  972MOL0     N31102   7.276   7.631  -0.976 -0.2136 -0.3724  0.1127
  972MOL0     C31103   7.210   7.750  -0.963 -0.3489 -0.4363  0.4565
  972MOL0     C31104   7.084   7.721  -0.978  0.2320  0.4191 -0.2149
  972MOL0     C31105   6.978   7.826  -0.965  0.0532 -0.1853 -0.0930
  972MOL0     C31106   6.906   7.842  -1.097 -0.1689  0.9415  0.2303
  972MOL0     C31107   6.796   7.956  -1.094 -0.0933 -0.2731  0.3075
  972MOL0     C31108   6.684   7.930  -0.999  0.2142  0.0621 -0.1644
  972MOL0     O31109   6.584   8.027  -1.035  0.6635 -0.0457  1.3265
  972MOL0     C31110   6.451   7.988  -1.021 -0.0437 -0.0852  0.0308
  972MOL0     C31111   6.365   8.091  -1.035 -0.3006 -0.7361  0.0501
  972MOL0     C31112   6.229   8.078  -0.995 -0.1777  1.0922 -0.2289
  972MOL0     C31113   6.151   8.209  -1.015  0.9458  0.9043  0.6416
  972MOL0     C31114   6.184   7.951  -0.958  0.0503  0.3331 -0.1465
  972MOL0     C31115   6.044   7.927  -0.917 -0.2931 -0.4476 -0.2899
  972MOL0     O31116   5.999   7.794  -0.913  0.2283 -0.1427  0.3102
  972MOL0     C31117   5.868   7.772  -0.867  0.0459 -0.1141  0.3386
  972MOL0     C31118   5.753   7.850  -0.899  0.5001 -0.0678 -0.3653
  972MOL0     C31119   5.628   7.828  -0.835 -0.2924 -0.6730  0.2591
  972MOL0     C31120   5.609   7.716  -0.754  0.7138 -1.3556  0.3079
  972MOL0     O31121   5.496   7.705  -0.684  0.5170  0.5640  0.1775
  972MOL0     C31122   5.441   7.570  -0.684 -0.3241 -0.1561 -0.3004
  972MOL0     C31123   5.303   7.572  -0.618 -0.0789 -0.0364 -0.7894
  972MOL0     C31124   5.197   7.661  -0.675  0.2382  0.4292  0.6040
  972MOL0     C31125   5.069   7.649  -0.599 -0.6968 -0.6454  0.2839
  972MOL0     C31126   4.994   7.527  -0.633 -0.0475 -0.1794  1.2863
  972MOL0     C31127   4.869   7.491  -0.548  0.6264  0.3975 -0.2558
  972MOL0     C31128   4.740   7.555  -0.605 -0.2837  0.6218 -0.2741
  972MOL0     C31129   4.646   7.585  -0.489 -0.2218  0.1632 -0.5416
  972MOL0    Cl31130   4.512   7.684  -0.544 -0.4097  0.2843 -0.2278
  972MOL0     C31131   5.715   7.635  -0.723  0.2586  0.0735 -0.6099
  972MOL0     C31132   5.845   7.664  -0.780 -0.0829  0.3042  0.7906
  972MOL0     O31133   5.976   8.025  -0.883  0.7122 -0.1829  0.2381
  972MOL0     C31134   6.275   7.845  -0.964 -0.4550  0.2434 -0.1649
  972MOL0     C31135   6.409   7.861  -0.996  0.6698  0.3166 -0.0823
  972MOL0     N31136   7.067   7.587  -0.996 -0.6705  0.1959 -0.8119
  972MOL0     N31137   7.185   7.532  -0.990 -0.1473  0.1560  0.5738
  972MOL0     C31138   7.774   8.178  -0.194 -0.0707  0.6863  0.0124
  972MOL0     C31139   7.867   8.244  -0.119 -0.3275 -0.0843  0.4839
  972MOL0     C31140   8.031   8.450   0.229 -0.0955  0.1076  0.8463
  972MOL0     C31141   7.977   8.522   0.338  0.2274 -0.8232  0.7375
  972MOL0     C31142   8.070   8.596   0.426  0.6400  0.0663 -0.7831
  972MOL0     C31143   8.210   8.594   0.407 -0.4314  0.6476  0.4971
  972MOL0     O31144   8.294   8.667   0.485 -0.1843  0.5739  0.2349
  972MOL0     C31145   8.438   8.647   0.470 -0.0229 -0.5087 -0.0704
  972MOL0     C31146   8.483   8.738   0.582  0.1803  1.0193 -0.0451
  972MOL0     C31147   8.630   8.750   0.603 -0.1235  0.8999  0.8151
  972MOL0     C31148   8.661   8.806   0.741  0.1315  0.7194  0.1760
  972MOL0     C31149   8.613   8.940   0.752 -0.2047  0.2729 -0.7570
  972MOL0     C31150   8.574   9.055   0.777 -0.3804 -0.9309  0.7914
  972MOL0     C31151   8.257   8.530   0.297  0.3804  0.4757 -0.4680
  972MOL0     C31152   8.168   8.461   0.207 -0.1694  0.1075 -0.1742
  972MOL0     H31153   7.942   8.040   0.129 -1.1735  0.3958  0.8272
  972MOL0     H31154   7.794   7.890  -0.001 -2.6530  0.4907 -0.7022
  972MOL0     H31155   7.713   7.799  -0.247  0.6292 -1.2578  1.9324
  972MOL0     H31156   7.609   7.815  -0.105  4.6966  0.2702  0.2499
  972MOL0     H31157   7.456   7.712  -0.241 -2.4437  0.5904 -1.3812
  972MOL0     H31158   7.425   7.881  -0.290  1.8858  1.9367 -0.8338
  972MOL0     H31159   7.578   7.872  -0.476  1.3430 -1.5268 -0.4585
  972MOL0     H31160   7.620   7.705  -0.434  0.0773 -0.3218  0.5655
  972MOL0     H31161   7.390   7.623  -0.453  0.1303 -1.3069 -1.6468
  972MOL0     H31162   7.348   7.784  -0.529 -0.6314 -1.5866  0.0915
  972MOL0     H31163   7.504   7.742  -0.725 -0.2586 -2.2223 -1.8786
  972MOL0     H31164   7.581   7.616  -0.627 -0.2978  1.8187  1.3676
  972MOL0     H31165   7.385   7.485  -0.625 -0.7183  0.1737 -1.3415
  972MOL0     H31166   7.297   7.607  -0.717 -1.6154  0.1578  4.1566
  972MOL0     H31167   7.551   7.486  -0.852 -0.9585 -2.0527  0.3416
  972MOL0     H31168   7.390   7.423  -0.860 -1.7771  0.5087 -0.0723
  972MOL0     H31169   7.478   7.586  -1.042  0.7140  0.3834 -0.3501
  972MOL0     H31170   7.469   7.699  -0.919 -0.2267 -0.6752  0.9454
  972MOL0     H31171   7.258   7.844  -0.940  2.2527 -1.5076 -0.1716
  972MOL0     H31172   6.909   7.800  -0.883  1.2418  0.0654  1.0129
  972MOL0     H31173   7.019   7.918  -0.923  1.9149 -1.1868  0.4085
  972MOL0     H31174   6.857   7.750  -1.130  0.3875 -1.0321  4.3164
  972MOL0     H31175   6.981   7.874  -1.170 -0.9978  1.7588 -0.2793
  972MOL0     H31176   6.754   7.964  -1.194 -0.2584  0.4910  0.4363
  972MOL0     H31177   6.851   8.050  -1.083  2.1858 -1.2009 -2.0459
  972MOL0     H31178   6.722   7.949  -0.899  1.5708  2.5524 -1.0795
  972MOL0     H31179   6.663   7.824  -1.014  0.2908  0.0575 -0.2375
  972MOL0     H31180   6.409   8.183  -1.073  0.1246 -1.8377 -2.3053
  972MOL0     H31181   6.109   8.242  -0.919 -0.3906  1.8782 -0.2300
  972MOL0     H31182   6.207   8.290  -1.063 -2.7570  4.0369  1.1171
  972MOL0     H31183   6.065   8.185  -1.079  2.1609  1.0990 -1.1231
  972MOL0     H31184   5.768   7.943  -0.955 -1.7880  0.0932 -0.7996
  972MOL0     H31185   5.544   7.886  -0.872 -1.7885 -1.9843  1.4967
  972MOL0     H31186   5.439   7.529  -0.785 -1.0536 -0.4215 -0.1837
  972MOL0     H31187   5.507   7.503  -0.627  0.3024  0.4572 -0.2983
  972MOL0     H31188   5.274   7.467  -0.627  0.2218 -0.1717 -0.2556
  972MOL0     H31189   5.319   7.596  -0.512  1.3126  1.9706 -1.4002
  972MOL0     H31190   5.175   7.632  -0.778 -1.7788  0.3169  1.0340
  972MOL0     H31191   5.241   7.761  -0.687  0.8108  0.2341  1.0002
  972MOL0     H31192   5.101   7.654  -0.495  0.7822  1.7450 -0.1908
  972MOL0     H31193   5.007   7.737  -0.619 -1.1051 -1.0056 -0.0254
  972MOL0     H31194   5.065   7.446  -0.616 -1.2421 -2.0802 -1.9617
  972MOL0     H31195   4.966   7.544  -0.738  2.8013  0.2375  0.5116
  972MOL0     H31196   4.851   7.383  -0.547 -1.2345  0.6590  1.5227
  972MOL0     H31197   4.878   7.526  -0.445  2.6629  1.0547 -0.6219
  972MOL0     H31198   4.685   7.500  -0.682  0.3543  0.6819 -0.7851
  972MOL0     H31199   4.766   7.653  -0.647 -1.4190  1.1234  0.1545
  972MOL0     H31200   4.703   7.645  -0.417 -0.3592 -1.3633  0.9160
  972MOL0     H31201   4.619   7.493  -0.436  4.4510 -0.3497  1.4531
  972MOL0     H31202   5.715   7.546  -0.660 -0.3794  1.5207  1.5362
  972MOL0     H31203   5.922   7.588  -0.765  0.1746  0.4899  0.4323
  972MOL0     H31204   6.232   7.747  -0.943 -1.6256  0.5038 -1.2111
  972MOL0     H31205   6.474   7.775  -1.001 -0.5521 -0.7414  1.4449
  972MOL0     H31206   7.723   8.216  -0.282  0.2219 -0.8286 -0.8328
  972MOL0     H31207   7.887   8.347  -0.146  0.8521 -0.3568  0.2536
  972MOL0     H31208   7.870   8.535   0.348  0.1369  0.1698 -1.0910
  972MOL0     H31209   8.035   8.640   0.518  0.0392  0.8290 -1.3683
  972MOL0     H31210   8.471   8.544   0.489 -0.1151 -0.4335  0.5146
  972MOL0     H31211   8.478   8.679   0.373  2.2435 -2.0270  0.2966
  972MOL0     H31212   8.433   8.716   0.676 -0.0515 -1.3648 -0.6490
  972MOL0     H31213   8.446   8.838   0.559 -3.7190 -0.0619  0.7690
  972MOL0     H31214   8.684   8.807   0.527  0.6405  1.0725  1.4712
  972MOL0     H31215   8.670   8.648   0.592  1.0587  1.4314 -0.0248
  972MOL0     H31216   8.767   8.803   0.765  0.6020 -1.3533 -1.8900
  972MOL0     H31217   8.616   8.744   0.819  2.4785 -0.7202  0.4773
  972MOL0     H31218   8.530   9.150   0.798  3.6894  1.3044  0.3039
  972MOL0     H31219   8.360   8.525   0.264 -0.6000 -0.5221 -3.7852
  972MOL0     H31220   8.213   8.415   0.119 -2.8638 -0.4293 -1.3829
  973MOL0     O31221   1.757   0.570   2.897 -0.2667 -0.3985  0.2080
  973MOL0     C31222   1.785   0.664   2.972 -0.0349 -0.2010  0.6306
  973MOL0     O31223   1.703   0.757   3.026 -0.4335  0.4548 -0.5892
  973MOL0     C31224   1.583   0.746   2.966  0.4469  0.4208 -0.7130
  973MOL0     C31225   1.474   0.711   3.042 -0.3486  0.0103 -0.3448
  973MOL0     C31226   1.346   0.697   2.980 -1.4101  0.9569  0.1728
  973MOL0     C31227   1.326   0.733   2.853  0.5996 -0.0841 -0.4632
  973MOL0     O31228   1.207   0.741   2.784 -0.4166 -0.5684  0.9768
  973MOL0     C31229   1.088   0.722   2.852  0.1595  0.2355  0.1423
  973MOL0     C31230   0.965   0.784   2.777  0.6223 -0.0064  0.3344
  973MOL0     C31231   0.836   0.786   2.852 -0.3287  0.1448 -0.4981
  973MOL0     C31232   0.728   0.809   2.748  0.6531 -0.0798 -0.0185
  973MOL0     C31233   0.592   0.853   2.816  0.1642  0.2262 -0.2117
  973MOL0     C31234   0.523   0.749   2.891  0.8223  0.2037 -0.2824
  973MOL0     C31235   0.398   0.797   2.960 -0.3017  0.3321 -0.1564
  973MOL0     C31236   0.267   0.816   2.880  0.4422  0.4193  0.0217
  973MOL0     N31237   0.158   0.831   2.978 -0.6880 -0.0704  0.2229
  973MOL0     C31238   0.122   0.943   3.040 -0.0696 -0.3056  0.2462
  973MOL0     C31239   0.009   0.909   3.104  0.2899  0.1899  1.1999
  973MOL0     C31240  -0.076   1.000   3.194 -0.2395  0.6342 -0.5360
  973MOL0     C31241  -0.226   0.971   3.176  0.1018 -0.5023  0.0993
  973MOL0     C31242  -0.328   1.041   3.270 -0.1955  0.9560  0.4287
  973MOL0     C31243  -0.464   1.050   3.205  0.4677  0.0820  0.0511
  973MOL0     O31244  -0.551   1.137   3.273  0.2731 -0.5680  0.0356
  973MOL0     C31245  -0.639   1.088   3.375 -0.1525 -1.2684 -0.3350
  973MOL0     C31246  -0.622   0.964   3.454  0.8242  0.1058  0.4525
  973MOL0     C31247  -0.720   0.932   3.547 -0.5751 -0.4207 -0.4770
  973MOL0     C31248  -0.695   0.806   3.619 -0.8601  0.4456 -0.1408
  973MOL0     C31249  -0.830   1.022   3.585 -0.3399  0.4236 -0.4710
  973MOL0     C31250  -0.931   0.994   3.695 -0.3843  0.1214  0.5468
  973MOL0     O31251  -0.925   0.881   3.763 -0.1841  0.1549  0.4407
  973MOL0     C31252  -1.002   0.862   3.873  0.1463 -0.1134 -0.5980
  973MOL0     C31253  -1.039   0.729   3.914 -0.8056  0.3675 -0.2203
  973MOL0     C31254  -1.125   0.697   4.017  0.0053 -0.0569 -0.1830
  973MOL0     C31255  -1.182   0.799   4.094  0.2128 -0.4427 -0.7651
  973MOL0     O31256  -1.268   0.777   4.203  0.7402  0.1469  0.3129
  973MOL0     C31257  -1.304   0.644   4.229 -0.8372  0.2528  0.1208
  973MOL0     C31258  -1.400   0.630   4.347  0.5080 -0.2849  0.0673
  973MOL0     C31259  -1.426   0.484   4.389  0.4371  0.4553 -0.4452
  973MOL0     C31260  -1.470   0.478   4.542  0.9109 -0.1401  0.0301
  973MOL0     C31261  -1.468   0.339   4.606  0.4964  0.8021 -0.6410
  973MOL0     C31262  -1.332   0.266   4.591  0.2421 -0.0470  0.3057
  973MOL0     C31263  -1.222   0.344   4.655 -0.4056 -1.0209 -0.0250
  973MOL0     C31264  -1.071   0.299   4.621 -0.1523  0.3662 -0.1465
  973MOL0    Cl31265  -1.027   0.311   4.446  0.2706  0.4885 -0.5464
  973MOL0     C31266  -1.151   0.928   4.060 -0.0487  0.4418  0.3798
  973MOL0     C31267  -1.059   0.961   3.957 -0.8482  0.5933 -0.4435
  973MOL0     O31268  -1.024   1.073   3.700  0.3963 -0.2909  0.7671
  973MOL0     C31269  -0.827   1.154   3.524  0.1790  0.5985  0.0759
  973MOL0     C31270  -0.740   1.180   3.413 -0.0333  1.0284 -0.2292
  973MOL0     N31271  -0.019   0.775   3.072 -0.4055 -0.4712 -0.3032
  973MOL0     N31272   0.073   0.732   3.003  0.1302 -0.0734  0.4370
  973MOL0     C31273   1.438   0.781   2.773 -0.3553 -1.1823  0.5245
  973MOL0     C31274   1.561   0.777   2.831  0.1374 -0.7014 -0.2016
  973MOL0     C31275   1.922   0.673   3.019 -0.2695 -0.4605  0.1380
  973MOL0     C31276   1.953   0.793   3.089 -0.6431 -0.3683  0.6375
  973MOL0     C31277   2.085   0.805   3.132 -0.6280  0.1586 -0.0990
  973MOL0     C31278   2.184   0.713   3.117  0.2139  0.4528 -0.4864
  973MOL0     O31279   2.314   0.750   3.132 -0.0983 -0.3032  0.6749
  973MOL0     C31280   2.410   0.665   3.057  0.8911 -1.6048 -0.9018
  973MOL0     C31281   2.543   0.731   3.052 -0.2987 -0.8550  0.0105
  973MOL0     C31282   2.603   0.778   3.178  0.2999  0.1435 -0.0366
  973MOL0     C31283   2.745   0.814   3.173 -0.5528 -0.1261  0.6698
  973MOL0     C31284   2.789   0.843   3.311 -0.4098  0.3063  0.5257
  973MOL0     C31285   2.838   0.872   3.415 -0.2135 -0.6652 -0.6268
  973MOL0     C31286   2.151   0.598   3.049  0.1311  0.0579 -0.0711
  973MOL0     C31287   2.017   0.580   3.003 -0.4034  0.0129  0.9435
  973MOL0     H31288   1.485   0.693   3.149  2.9930 -1.0268 -0.7544
  973MOL0     H31289   1.267   0.661   3.047 -2.5985  2.8362 -0.1471
  973MOL0     H31290   1.073   0.614   2.861 -0.9184  0.3694  0.1047
  973MOL0     H31291   1.091   0.769   2.951  0.7258  0.4722  0.0179
  973MOL0     H31292   0.990   0.887   2.749  1.6180 -0.2496  0.2823
  973MOL0     H31293   0.954   0.736   2.679 -0.4924  4.0994 -1.7899
  973MOL0     H31294   0.829   0.684   2.892  2.0998 -0.8903 -2.4685
  973MOL0     H31295   0.823   0.863   2.929  0.3459 -0.0529 -0.1794
  973MOL0     H31296   0.752   0.899   2.691 -2.9158  0.6563 -0.5692
  973MOL0     H31297   0.709   0.722   2.685 -0.9290 -2.1739  3.0932
  973MOL0     H31298   0.598   0.941   2.880  1.6432 -0.0337  0.0482
  973MOL0     H31299   0.525   0.879   2.733  1.1870 -1.2163 -1.5651
  973MOL0     H31300   0.488   0.676   2.817  0.3671 -1.4532  1.4603
  973MOL0     H31301   0.590   0.704   2.965  0.6032  1.2104  0.5401
  973MOL0     H31302   0.374   0.724   3.038  1.4112 -1.4803 -1.2332
  973MOL0     H31303   0.415   0.895   3.004  1.0071  0.6057 -1.2250
  973MOL0     H31304   0.246   0.725   2.823 -0.3550 -0.6483  1.9170
  973MOL0     H31305   0.281   0.908   2.822  0.0451 -0.0696 -0.8754
  973MOL0     H31306   0.171   1.040   3.040  0.0068 -0.3394  0.8589
  973MOL0     H31307  -0.042   0.992   3.297 -0.1725  3.2787 -0.2991
  973MOL0     H31308  -0.044   1.102   3.173  1.7006 -0.3071 -2.7664
  973MOL0     H31309  -0.243   0.863   3.178  2.1644 -0.8654  0.3630
  973MOL0     H31310  -0.255   0.999   3.075  1.4176 -1.8429 -0.6907
  973MOL0     H31311  -0.287   1.141   3.285  0.6026  0.6900  0.0605
  973MOL0     H31312  -0.329   0.985   3.364 -0.6387 -0.7650 -0.5642
  973MOL0     H31313  -0.513   0.952   3.195 -0.2547  0.4401  0.0213
  973MOL0     H31314  -0.465   1.080   3.100 -2.4474 -2.1052 -0.6791
  973MOL0     H31315  -0.539   0.895   3.442  2.3025  1.5077  2.0506
  973MOL0     H31316  -0.608   0.749   3.584  2.3702  3.3796  2.3309
  973MOL0     H31317  -0.667   0.832   3.722 -0.2031 -3.4877  0.8228
  973MOL0     H31318  -0.781   0.739   3.627 -0.1096 -0.3328  2.7955
  973MOL0     H31319  -0.992   0.645   3.864  1.6461  1.3779  0.2483
  973MOL0     H31320  -1.133   0.591   4.038 -1.6847 -0.3533 -2.0906
  973MOL0     H31321  -1.348   0.604   4.137 -0.6378  0.1398  0.0754
  973MOL0     H31322  -1.213   0.589   4.253  0.0429  0.9422 -1.4557
  973MOL0     H31323  -1.364   0.692   4.430 -1.2053  1.7643 -0.6063
  973MOL0     H31324  -1.492   0.679   4.313  1.1151  1.6040  0.9531
  973MOL0     H31325  -1.337   0.422   4.370 -0.8857 -1.7037  0.0606
  973MOL0     H31326  -1.514   0.446   4.337  0.2056  2.7667 -1.9055
  973MOL0     H31327  -1.413   0.556   4.592  0.2093 -0.6564  1.7088
  973MOL0     H31328  -1.573   0.514   4.548  0.8235 -0.6238  2.1201
  973MOL0     H31329  -1.538   0.276   4.550  1.5239  0.8227 -2.0155
  973MOL0     H31330  -1.491   0.342   4.713  0.4724  0.1111 -0.6220
  973MOL0     H31331  -1.338   0.168   4.639 -2.3588  1.4213  3.3949
  973MOL0     H31332  -1.301   0.254   4.487  3.1581  0.7592  0.9943
  973MOL0     H31333  -1.232   0.343   4.764  1.2342 -2.8834  0.1682
  973MOL0     H31334  -1.230   0.451   4.633 -0.9835 -0.3332  3.0461
  973MOL0     H31335  -1.049   0.195   4.647 -0.3966  0.0903 -1.0138
  973MOL0     H31336  -1.022   0.370   4.689  2.2866  2.0956 -3.4034
  973MOL0     H31337  -1.196   1.014   4.110 -0.2963  0.6667 -0.2153
  973MOL0     H31338  -1.051   1.068   3.940 -0.8931  0.3052 -2.6193
  973MOL0     H31339  -0.902   1.230   3.547 -1.0213  0.0954 -1.9093
  973MOL0     H31340  -0.761   1.272   3.361 -1.9522  0.0017 -1.3837
  973MOL0     H31341   1.436   0.814   2.670  2.3411 -3.0521 -0.2192
  973MOL0     H31342   1.646   0.815   2.776  1.6334 -1.6446  1.3813
  973MOL0     H31343   1.879   0.870   3.105  0.6745  1.6478 -2.0999
  973MOL0     H31344   2.103   0.899   3.182 -1.8025 -0.3610  1.3660
  973MOL0     H31345   2.411   0.571   3.112 -0.9678  0.7439  3.7209
  973MOL0     H31346   2.374   0.653   2.954  1.4625  1.2115 -1.5292
  973MOL0     H31347   2.522   0.816   2.987 -1.4950  0.0878  1.5706
  973MOL0     H31348   2.612   0.663   3.000  2.1737  0.2224  1.6648
  973MOL0     H31349   2.599   0.688   3.241  0.3657  0.6951  0.7695
  973MOL0     H31350   2.533   0.854   3.214 -2.3836 -2.3470  0.4058
  973MOL0     H31351   2.778   0.894   3.105  0.8110  1.0255  2.5893
  973MOL0     H31352   2.795   0.728   3.126  0.9298  0.2679  1.4623
  973MOL0     H31353   2.875   0.887   3.515  0.3141 -1.3369 -0.7160
  973MOL0     H31354   2.215   0.516   3.019  1.1249  1.1328 -0.9595
  973MOL0     H31355   1.986   0.485   2.960  2.2212 -1.5257  2.2392
  974MOL0     O31356   7.695   2.951  10.801  0.8550 -0.1556 -0.2056
  974MOL0     C31357   7.792   3.019  10.757  0.1367  0.7762  0.4863
  974MOL0     O31358   7.800   3.154  10.758 -0.4198 -0.0589  0.8048
  974MOL0     C31359   7.688   3.226  10.761  0.1469 -0.1776 -0.8329
  974MOL0     C31360   7.697   3.353  10.819 -0.4877 -0.1673 -0.5984
  974MOL0     C31361   7.587   3.440  10.799 -1.0228 -0.4752 -0.1077
  974MOL0     C31362   7.476   3.409  10.724 -0.5126  0.4752  1.0512
  974MOL0     O31363   7.390   3.511  10.704  0.0146  0.7786 -0.2394
  974MOL0     C31364   7.263   3.482  10.639 -0.2405 -0.7392 -0.1726
  974MOL0     C31365   7.183   3.610  10.622 -0.5062 -1.0560 -0.4789
  974MOL0     C31366   7.079   3.609  10.516 -0.4199  0.0392 -0.6993
  974MOL0     C31367   7.018   3.746  10.505  0.1902  0.4622 -0.0050
  974MOL0     C31368   6.945   3.759  10.375 -0.2482  0.1622 -0.3805
  974MOL0     C31369   6.904   3.896  10.340 -0.3864 -0.5323 -0.0934
  974MOL0     C31370   6.828   3.881  10.207 -0.9080  0.1877 -1.3299
  974MOL0     C31371   6.787   4.020  10.169  0.4013  0.1598 -0.0574
  974MOL0     N31372   6.663   4.045  10.236 -0.4966 -0.1836 -0.2326
  974MOL0     C31373   6.650   4.123  10.350  0.3287 -0.3499  0.3967
  974MOL0     C31374   6.518   4.133  10.374 -0.6263  0.7947 -0.5617
  974MOL0     C31375   6.451   4.203  10.494 -0.1385  0.4934  0.6410
  974MOL0     C31376   6.321   4.136  10.527 -0.2104 -0.3961 -0.2605
  974MOL0     C31377   6.292   4.142  10.676 -0.0188 -0.5169  0.1216
  974MOL0     C31378   6.149   4.089  10.703 -0.1976 -0.0323 -0.6314
  974MOL0     O31379   6.063   4.199  10.691 -0.4475  0.1748  0.3933
  974MOL0     C31380   5.934   4.175  10.706  0.0437 -0.2917  0.6275
  974MOL0     C31381   5.850   4.280  10.675  0.4561 -0.4154 -1.3639
  974MOL0     C31382   5.707   4.275  10.683  0.0477  0.3892 -0.0056
  974MOL0     C31383   5.628   4.390  10.637  0.8871 -0.1712 -0.1684
  974MOL0     C31384   5.657   4.141  10.721  0.5578 -0.2109 -0.2789
  974MOL0     C31385   5.513   4.109  10.735  0.6977 -0.0320 -0.5680
  974MOL0     O31386   5.423   4.209  10.744  0.5631 -0.7529  0.3054
  974MOL0     C31387   5.289   4.174  10.750 -0.1644 -0.2376  1.0709
  974MOL0     C31388   5.209   4.230  10.859 -0.2630  0.5858 -1.2230
  974MOL0     C31389   5.075   4.199  10.873  0.0490 -0.4879 -1.2304
  974MOL0     C31390   5.006   4.129  10.774 -0.2861  0.3070  0.3311
  974MOL0     O31391   4.870   4.094  10.772  0.0281 -0.1396 -1.2659
  974MOL0     C31392   4.801   4.172  10.871  0.4524  0.9263  0.2218
  974MOL0     C31393   4.649   4.117  10.868 -1.1948  0.6341 -0.5983
  974MOL0     C31394   4.565   4.173  10.752 -0.1970 -0.9872  0.3922
  974MOL0     C31395   4.414   4.176  10.789  0.3607  0.1991  0.0896
  974MOL0     C31396   4.319   4.207  10.670  0.8150 -0.7031  0.1771
  974MOL0     C31397   4.161   4.199  10.701 -0.2451  0.2538  0.1653
  974MOL0     C31398   4.123   4.296  10.821 -0.5195  0.4150  0.0086
  974MOL0     C31399   3.970   4.275  10.850 -0.3697 -0.0600 -0.2229
  974MOL0    Cl31400   3.883   4.395  10.765 -0.4393  0.2652  0.4866
  974MOL0     C31401   5.079   4.075  10.666  0.8871 -0.6461 -0.2214
  974MOL0     C31402   5.215   4.094  10.654 -0.0542  0.3776 -0.5502
  974MOL0     O31403   5.480   3.990  10.727 -0.4671 -0.1306 -0.9576
  974MOL0     C31404   5.745   4.041  10.759 -0.2146 -0.0226 -0.3423
  974MOL0     C31405   5.882   4.055  10.746  0.1549  0.2093 -0.5436
  974MOL0     N31406   6.456   4.052  10.280  0.9363 -0.0980 -0.7190
  974MOL0     N31407   6.542   4.006  10.195  0.2428 -0.6606  0.5586
  974MOL0     C31408   7.462   3.276  10.677  0.4359  0.3311  0.2810
  974MOL0     C31409   7.573   3.187  10.695 -0.0162 -0.1293  0.5040
  974MOL0     C31410   7.899   2.937  10.720  0.1371  0.8317  0.3573
  974MOL0     C31411   7.931   2.814  10.782  0.2353 -0.3467  0.3671
  974MOL0     C31412   8.038   2.739  10.756 -0.3086  0.2936  1.0970
  974MOL0     C31413   8.105   2.764  10.635 -0.1190 -0.3703 -0.2520
  974MOL0     O31414   8.212   2.680  10.609  0.0712 -0.6096  0.2157
  974MOL0     C31415   8.282   2.693  10.479  0.3400 -0.2039  0.3560
  974MOL0     C31416   8.374   2.571  10.451  0.1665 -0.5181  0.1275
  974MOL0     C31417   8.308   2.441  10.450  0.0390 -0.1799 -0.6048
  974MOL0     C31418   8.249   2.391  10.581 -0.9127 -0.0518 -1.2467
  974MOL0     C31419   8.363   2.366  10.678  0.9626  0.5215  0.2277
  974MOL0     C31420   8.453   2.339  10.756 -0.3421  0.6829  0.1488
  974MOL0     C31421   8.080   2.881  10.560  0.4300  0.2275 -0.7932
  974MOL0     C31422   7.977   2.967  10.604 -0.4328 -0.2370  0.4412
  974MOL0     H31423   7.788   3.380  10.873  0.8836  0.9907 -3.2577
  974MOL0     H31424   7.585   3.541  10.840 -0.1859 -0.2669 -0.5632
  974MOL0     H31425   7.289   3.458  10.535 -0.6369  1.1450 -0.7680
  974MOL0     H31426   7.192   3.421  10.694 -1.8324  0.2543 -1.0348
  974MOL0     H31427   7.145   3.636  10.721  0.0350 -1.7452 -0.0810
  974MOL0     H31428   7.259   3.683  10.592  0.7150 -1.0944  2.2391
  974MOL0     H31429   7.128   3.584  10.422  0.1402 -2.8440  0.2382
  974MOL0     H31430   7.010   3.526  10.537  0.6786 -0.7165  0.0438
  974MOL0     H31431   6.951   3.762  10.590  2.1473  5.7800  0.9464
  974MOL0     H31432   7.102   3.814  10.524  2.0499 -2.3011  2.4650
  974MOL0     H31433   6.996   3.707  10.293 -2.8561 -1.8341 -0.8801
  974MOL0     H31434   6.853   3.708  10.405  1.0446 -0.7803  2.2791
  974MOL0     H31435   6.840   3.940  10.416 -0.5966  0.4744 -0.8266
  974MOL0     H31436   6.983   3.966  10.310 -0.3896 -0.6789 -0.4569
  974MOL0     H31437   6.897   3.846  10.130 -1.2008 -3.4682 -0.1343
  974MOL0     H31438   6.745   3.809  10.212 -0.6714 -0.0747 -1.0903
  974MOL0     H31439   6.757   4.019  10.064 -0.4064  1.7211  0.1314
  974MOL0     H31440   6.865   4.095  10.187  2.6341 -1.7969 -0.9155
  974MOL0     H31441   6.733   4.169  10.404  4.7443 -5.6914 -0.9313
  974MOL0     H31442   6.512   4.194  10.585 -2.7684  0.0399  2.4826
  974MOL0     H31443   6.430   4.308  10.476  1.8191  0.8545  0.2563
  974MOL0     H31444   6.331   4.032  10.495  0.2822 -0.1493 -0.9302
  974MOL0     H31445   6.242   4.197  10.482 -0.2983 -0.2822  0.0394
  974MOL0     H31446   6.300   4.242  10.721  0.5608 -0.7730  0.5981
  974MOL0     H31447   6.356   4.066  10.721  5.1132  1.0831 -3.5374
  974MOL0     H31448   6.146   4.059  10.809  0.1214  1.5305 -0.1523
  974MOL0     H31449   6.123   3.999  10.647  0.7647 -0.9788  0.3959
  974MOL0     H31450   5.887   4.374  10.635  1.0583  0.3930  0.9430
  974MOL0     H31451   5.572   4.351  10.552  1.7683  2.0322 -1.8508
  974MOL0     H31452   5.558   4.419  10.715  0.5757 -0.8717 -0.1797
  974MOL0     H31453   5.685   4.479  10.609 -0.6116  1.9486  2.9835
  974MOL0     H31454   5.268   4.284  10.931  0.1647  0.0072 -1.1372
  974MOL0     H31455   5.022   4.231  10.962  0.2983 -0.7029 -1.0035
  974MOL0     H31456   4.836   4.155  10.973  0.2997 -0.5792  0.0410
  974MOL0     H31457   4.784   4.274  10.836 -0.0475  0.8248  0.1513
  974MOL0     H31458   4.651   4.008  10.874 -1.6873  0.6566  0.0519
  974MOL0     H31459   4.600   4.149  10.960 -1.1087  0.2940 -0.4306
  974MOL0     H31460   4.566   4.114  10.661 -1.7907 -1.5699  0.7185
  974MOL0     H31461   4.586   4.279  10.734 -2.2796 -0.7571 -1.0209
  974MOL0     H31462   4.386   4.077  10.828 -1.5894  1.3033  1.6516
  974MOL0     H31463   4.387   4.238  10.874 -1.6952 -0.6694  0.1207
  974MOL0     H31464   4.332   4.142  10.584  1.1813  1.6200 -1.6356
  974MOL0     H31465   4.330   4.311  10.636 -0.4030 -0.8937 -0.8652
  974MOL0     H31466   4.107   4.221  10.608 -0.8267  0.5063  0.5567
  974MOL0     H31467   4.124   4.098  10.720 -0.3270 -0.1317 -1.8215
  974MOL0     H31468   4.147   4.402  10.822 -2.8625  1.0107 -0.0541
  974MOL0     H31469   4.170   4.250  10.909  0.3841 -1.7543 -1.5388
  974MOL0     H31470   3.956   4.309  10.953  1.1259  1.4731 -0.4723
  974MOL0     H31471   3.933   4.173  10.838  0.7367 -0.3201 -1.7454
  974MOL0     H31472   5.018   4.018  10.597  0.2858 -0.4602  0.1461
  974MOL0     H31473   5.281   4.047  10.582 -0.8491  1.5664 -2.1203
  974MOL0     H31474   5.716   3.945  10.800  0.6101 -0.3460 -0.5030
  974MOL0     H31475   5.947   3.972  10.775  0.4761  0.3763 -0.7730
  974MOL0     H31476   7.384   3.243  10.610 -1.5060  3.1002  0.9952
  974MOL0     H31477   7.567   3.094  10.639  0.5370 -0.9002  1.6758
  974MOL0     H31478   7.880   2.776  10.870  0.1758  0.6049  0.7598
  974MOL0     H31479   8.073   2.654  10.814 -0.6484  0.9423  2.2655
  974MOL0     H31480   8.212   2.701  10.395  0.4902 -1.2906  0.1042
  974MOL0     H31481   8.340   2.785  10.474  0.4999 -0.3013  0.4317
  974MOL0     H31482   8.458   2.554  10.518 -1.6224 -0.2960  2.5404
  974MOL0     H31483   8.406   2.591  10.348 -1.6285 -2.1228 -0.8254
  974MOL0     H31484   8.378   2.361  10.424  3.8163  2.7452 -0.3083
  974MOL0     H31485   8.236   2.459  10.369  0.3131  4.2564 -0.1288
  974MOL0     H31486   8.199   2.294  10.578  3.3555 -2.6437  1.2463
  974MOL0     H31487   8.168   2.454  10.620 -1.2985  0.3846 -2.6742
  974MOL0     H31488   8.527   2.307  10.826 -1.6110  0.3364  1.3895
  974MOL0     H31489   8.139   2.898  10.471  1.0598 -1.2222 -0.6777
  974MOL0     H31490   7.947   3.048  10.537  1.2913  0.1490  0.0804
  975MOL0     O31491   7.123   1.251   7.884  0.1357  0.1044 -0.5506
  975MOL0     C31492   7.065   1.357   7.864  0.5498  0.0099 -1.0290
  975MOL0     O31493   6.926   1.383   7.897  0.3720  0.1322  0.2066
  975MOL0     C31494   6.858   1.298   7.986  0.5145  0.2288  1.1799
  975MOL0     C31495   6.729   1.267   7.947  0.0235  0.0331  0.3462
  975MOL0     C31496   6.646   1.178   8.015 -0.5357 -0.8042  0.7629
  975MOL0     C31497   6.700   1.108   8.121  0.3530 -0.6742 -0.6571
  975MOL0     O31498   6.614   1.012   8.173  0.0726 -0.7530  0.9667
  975MOL0     C31499   6.666   0.936   8.281  0.1467  0.3828  0.1165
  975MOL0     C31500   6.557   0.847   8.339  0.9029 -0.4906  0.5509
  975MOL0     C31501   6.410   0.915   8.370 -0.3778  0.0304  0.0583
  975MOL0     C31502   6.412   1.053   8.439 -0.0771  0.6301 -0.0960
  975MOL0     C31503   6.282   1.056   8.519 -1.1885 -0.5187 -0.0022
  975MOL0     C31504   6.225   1.194   8.557 -1.1093 -0.3958  0.7697
  975MOL0     C31505   6.077   1.176   8.619 -0.0227  0.0221 -0.4371
  975MOL0     C31506   6.021   1.299   8.687  1.4148 -0.1075  0.0377
  975MOL0     N31507   5.877   1.283   8.715  0.4018 -0.2515  0.8216
  975MOL0     C31508   5.796   1.172   8.683 -0.0993  0.3654 -0.0727
  975MOL0     C31509   5.672   1.189   8.735 -0.2521 -0.9107  0.4289
  975MOL0     C31510   5.569   1.081   8.717  0.5958  0.1799  0.1421
  975MOL0     C31511   5.483   1.105   8.602  0.7723 -0.1144  0.1131
  975MOL0     C31512   5.349   1.021   8.609  0.1627 -0.1763  0.1529
  975MOL0     C31513   5.269   1.009   8.477  0.7635  0.4001  0.2283
  975MOL0     O31514   5.147   0.928   8.495  0.9798 -0.2577 -0.1598
  975MOL0     C31515   5.026   0.995   8.521  0.5509 -0.4500  0.1672
  975MOL0     C31516   4.995   1.124   8.467  0.1706 -0.2230 -0.1956
  975MOL0     C31517   4.867   1.181   8.506  0.0765 -0.3301 -0.9719
  975MOL0     C31518   4.827   1.303   8.426 -0.6776 -0.5073  0.6656
  975MOL0     C31519   4.774   1.118   8.594 -0.5186  0.3371  0.3279
  975MOL0     C31520   4.651   1.192   8.650 -0.3447  0.6669  0.2476
  975MOL0     O31521   4.548   1.113   8.673  0.2096 -0.4785  0.8162
  975MOL0     C31522   4.423   1.174   8.695  0.0602  0.3060  0.2463
  975MOL0     C31523   4.404   1.249   8.815  0.2338  0.3506  0.8018
  975MOL0     C31524   4.282   1.307   8.832  0.3408  0.5326 -0.1291
  975MOL0     C31525   4.181   1.301   8.732  0.7168  0.4483  0.3141
  975MOL0     O31526   4.059   1.365   8.747  0.5014 -0.5760  0.3230
  975MOL0     C31527   3.985   1.367   8.874 -0.5186  0.3280  0.3978
  975MOL0     C31528   3.962   1.227   8.928  0.4139 -0.7943 -0.8382
  975MOL0     C31529   4.002   1.197   9.074 -0.5987 -0.7011  0.8901
  975MOL0     C31530   3.957   1.061   9.128  0.0084 -0.7402  0.2168
  975MOL0     C31531   3.955   1.063   9.282 -0.4491 -0.3932 -0.2052
  975MOL0     C31532   3.898   0.940   9.341 -0.4199  0.5947  0.5398
  975MOL0     C31533   3.970   0.809   9.312 -0.3533  0.6797 -0.0902
  975MOL0     C31534   3.940   0.698   9.405  0.7200 -0.2431  0.7204
  975MOL0    Cl31535   4.017   0.713   9.566 -0.7983  0.0851 -0.3222
  975MOL0     C31536   4.214   1.237   8.609  0.5684  0.3628  0.0882
  975MOL0     C31537   4.336   1.178   8.595  0.2678  1.0852 -0.0756
  975MOL0     O31538   4.663   1.309   8.683  0.4600  0.6528  0.1422
  975MOL0     C31539   4.806   0.986   8.623  0.5091 -1.0183  0.4957
  975MOL0     C31540   4.930   0.927   8.599  0.7070 -0.8093  0.3519
  975MOL0     N31541   5.672   1.310   8.802  0.1147 -0.1087 -0.2112
  975MOL0     N31542   5.791   1.364   8.788 -0.5019 -0.5745 -0.0416
  975MOL0     C31543   6.833   1.141   8.163  0.4631  0.5121  1.3816
  975MOL0     C31544   6.908   1.244   8.099 -0.3084  0.5311 -0.1640
  975MOL0     C31545   7.133   1.464   7.801 -0.4845  0.0703  1.1550
  975MOL0     C31546   7.272   1.474   7.801 -0.1153 -0.4370  0.1608
  975MOL0     C31547   7.330   1.581   7.751 -0.8068  0.1402  0.1045
  975MOL0     C31548   7.256   1.688   7.697  0.2038  0.3563 -0.3149
  975MOL0     O31549   7.323   1.799   7.672  0.1439  0.4859 -0.2668
  975MOL0     C31550   7.289   1.862   7.552  0.0882  0.2023  0.4717
  975MOL0     C31551   7.356   1.794   7.435  0.6813 -0.2996 -0.2276
  975MOL0     C31552   7.504   1.785   7.438 -0.1772  0.4366  0.5891
  975MOL0     C31553   7.571   1.922   7.426 -0.3825 -1.4003  0.2154
  975MOL0     C31554   7.722   1.918   7.426 -0.0470 -0.7487 -0.4540
  975MOL0     C31555   7.846   1.924   7.435 -0.7561  0.7156  0.1287
  975MOL0     C31556   7.120   1.676   7.693 -0.3649 -0.2452  0.4419
  975MOL0     C31557   7.060   1.560   7.731  0.0012  0.6205  0.3650
  975MOL0     H31558   6.695   1.326   7.863 -0.1888  0.7623  0.9374
  975MOL0     H31559   6.545   1.155   7.984 -0.4587  1.1693 -1.2008
  975MOL0     H31560   6.757   0.881   8.254 -0.4029 -0.8475  0.6589
  975MOL0     H31561   6.702   1.004   8.359 -1.2279  1.1968  0.0756
  975MOL0     H31562   6.532   0.771   8.265  1.8081  1.1425 -1.5548
  975MOL0     H31563   6.600   0.804   8.431 -2.6040  1.5914  3.4224
  975MOL0     H31564   6.361   0.918   8.272 -1.6381  0.4531  0.6801
  975MOL0     H31565   6.366   0.834   8.429  0.8931  0.6994  2.0255
  975MOL0     H31566   6.492   1.075   8.509 -0.5474 -0.6291  0.8894
  975MOL0     H31567   6.413   1.139   8.371 -1.0686  1.2894  0.6865
  975MOL0     H31568   6.204   1.005   8.462 -2.2762 -0.6402  1.5024
  975MOL0     H31569   6.299   1.006   8.615  1.8737 -0.8022 -0.6179
  975MOL0     H31570   6.285   1.248   8.631 -0.4272 -2.4993  1.8384
  975MOL0     H31571   6.213   1.257   8.468  4.3205 -0.1998 -0.1214
  975MOL0     H31572   6.018   1.140   8.534  2.1440 -0.1161 -1.9965
  975MOL0     H31573   6.073   1.097   8.694 -0.0553 -0.7969 -1.2871
  975MOL0     H31574   6.045   1.384   8.623  2.5929 -1.7618 -1.8256
  975MOL0     H31575   6.066   1.310   8.786  0.7292 -0.1723  0.3675
  975MOL0     H31576   5.828   1.075   8.649  0.5617  0.4975  0.1642
  975MOL0     H31577   5.618   0.985   8.707  0.1066 -0.1187  0.5253
  975MOL0     H31578   5.513   1.079   8.811  0.4912 -0.3873  0.0662
  975MOL0     H31579   5.527   1.094   8.503 -0.8655  1.3607 -0.8330
  975MOL0     H31580   5.454   1.211   8.602 -2.8417 -0.9584  0.0555
  975MOL0     H31581   5.286   1.069   8.684  0.0414  1.7080 -1.0834
  975MOL0     H31582   5.376   0.921   8.642 -2.1147 -0.5876  0.9249
  975MOL0     H31583   5.325   0.943   8.411  0.2394 -0.6102  0.7674
  975MOL0     H31584   5.249   1.107   8.433 -0.0619  1.2017  2.2465
  975MOL0     H31585   5.045   1.165   8.379 -1.0912 -0.7970 -1.2229
  975MOL0     H31586   4.885   1.394   8.444 -1.4206  0.1990 -0.3352
  975MOL0     H31587   4.850   1.266   8.325  1.9534 -0.8322  1.3194
  975MOL0     H31588   4.718   1.319   8.426 -0.5903  0.3585 -1.0182
  975MOL0     H31589   4.485   1.253   8.888  1.3082  1.7414 -0.4243
  975MOL0     H31590   4.269   1.355   8.929 -2.2507 -1.1136  0.4215
  975MOL0     H31591   4.044   1.431   8.941  0.0984 -2.6063  2.8948
  975MOL0     H31592   3.885   1.408   8.857 -1.5166 -1.6643  1.1453
  975MOL0     H31593   3.854   1.217   8.935  0.3635 -0.3807 -0.9773
  975MOL0     H31594   4.009   1.156   8.859  2.1542 -1.9512  1.4004
  975MOL0     H31595   3.971   1.274   9.145  1.5805  1.4655 -0.3690
  975MOL0     H31596   4.111   1.192   9.074 -0.6370 -3.0446  2.0299
  975MOL0     H31597   3.856   1.035   9.094 -0.7366  1.9037  0.1427
  975MOL0     H31598   4.022   0.981   9.091  1.0043 -0.1031  0.5513
  975MOL0     H31599   3.902   1.148   9.326 -0.9568 -0.5299 -0.5462
  975MOL0     H31600   4.059   1.070   9.315 -0.7526 -3.6830  1.8468
  975MOL0     H31601   3.904   0.950   9.450  0.6626  0.9790  0.4564
  975MOL0     H31602   3.792   0.948   9.316 -0.2628  2.3335  0.3363
  975MOL0     H31603   4.079   0.814   9.310  0.1882 -4.3630  1.3825
  975MOL0     H31604   3.938   0.763   9.217 -0.3221 -0.4867  0.4465
  975MOL0     H31605   3.977   0.603   9.365 -0.8513 -1.1723  1.3588
  975MOL0     H31606   3.832   0.682   9.417  0.1902  1.7029 -0.9144
  975MOL0     H31607   4.130   1.234   8.540 -1.1305  1.5638  1.9859
  975MOL0     H31608   4.362   1.118   8.508 -0.8591 -0.2799  0.4832
  975MOL0     H31609   4.719   0.933   8.662 -0.5372 -0.8188 -1.4153
  975MOL0     H31610   4.933   0.827   8.640 -1.6781 -1.6722 -1.3981
  975MOL0     H31611   6.881   1.080   8.239  0.5889 -0.0039  0.8971
  975MOL0     H31612   7.007   1.257   8.141  0.3206 -3.3477 -0.0997
  975MOL0     H31613   7.336   1.395   7.840 -1.3592 -1.5008  0.0911
  975MOL0     H31614   7.438   1.589   7.743 -0.5162 -3.2370 -1.4536
  975MOL0     H31615   7.182   1.863   7.531  0.6024  0.3748 -2.5683
  975MOL0     H31616   7.309   1.969   7.556  1.2287  0.0314 -0.1303
  975MOL0     H31617   7.321   1.849   7.347  1.4324  2.7602  1.2529
  975MOL0     H31618   7.318   1.691   7.431  1.2107 -0.4714 -1.3253
  975MOL0     H31619   7.524   1.731   7.345  0.8145 -1.0491  1.6246
  975MOL0     H31620   7.541   1.725   7.522 -3.1312 -1.0589  0.9474
  975MOL0     H31621   7.537   2.000   7.495 -1.2276 -2.0093  0.5112
  975MOL0     H31622   7.532   1.965   7.332 -0.5273 -0.7431  0.5727
  975MOL0     H31623   7.951   1.943   7.423 -0.8845  0.4495 -1.7568
  975MOL0     H31624   7.061   1.763   7.667 -1.2133 -1.1206 -0.6217
  975MOL0     H31625   6.954   1.556   7.708  0.6842  0.5672 -3.4202
  976MOL0     O31626   1.673   3.916   9.139 -0.1480 -0.5171 -0.0930
  976MOL0     C31627   1.744   3.833   9.081 -0.2610 -0.4241 -0.2233
  976MOL0     O31628   1.698   3.742   8.991 -0.0352  0.5893  0.1836
  976MOL0     C31629   1.564   3.723   8.975  0.3208 -0.5230  0.7346
  976MOL0     C31630   1.501   3.736   8.844  0.1927  0.1787 -0.3049
  976MOL0     C31631   1.373   3.704   8.838 -0.8844 -0.3712  0.8690
  976MOL0     C31632   1.303   3.658   8.949  1.4033 -0.2317 -0.1723
  976MOL0     O31633   1.176   3.617   8.933 -0.0624  0.2918  0.6494
  976MOL0     C31634   1.131   3.558   8.810 -0.0742 -0.0201  0.2100
  976MOL0     C31635   1.018   3.447   8.828 -1.0084 -0.3822 -0.1025
  976MOL0     C31636   0.906   3.511   8.910  0.3371  0.1444 -0.0150
  976MOL0     C31637   0.831   3.628   8.841 -0.6755 -0.5183 -0.0907
  976MOL0     C31638   0.709   3.677   8.913  0.5256 -0.2060  0.3940
  976MOL0     C31639   0.589   3.584   8.917 -0.1974  0.5981  0.1302
  976MOL0     C31640   0.553   3.524   8.778 -0.0902 -0.1913  0.4730
  976MOL0     C31641   0.437   3.429   8.786 -0.3103  0.6756 -0.6427
  976MOL0     N31642   0.314   3.497   8.817  0.1588 -0.9573  0.4006
  976MOL0     C31643   0.273   3.618   8.760  0.0234  0.2559 -0.2587
  976MOL0     C31644   0.143   3.629   8.787  1.4676  0.0830  0.4336
  976MOL0     C31645   0.047   3.728   8.736 -0.0154 -0.2572 -0.2725
  976MOL0     C31646  -0.019   3.814   8.842  0.9687 -0.3092 -0.5485
  976MOL0     C31647  -0.076   3.745   8.969 -0.4638  0.8591  0.8801
  976MOL0     C31648  -0.202   3.658   8.939  0.9413  0.2852 -0.0274
  976MOL0     O31649  -0.299   3.738   8.879  0.2621 -0.0494  1.0915
  976MOL0     C31650  -0.433   3.721   8.888  0.0502  0.3336 -0.0703
  976MOL0     C31651  -0.492   3.612   8.956  0.4778  0.1039  0.1068
  976MOL0     C31652  -0.628   3.597   8.977  0.3609  0.8892 -0.3874
  976MOL0     C31653  -0.671   3.460   9.022  0.9020 -0.1835 -0.6944
  976MOL0     C31654  -0.717   3.703   8.955  0.1781  0.6838  0.4896
  976MOL0     C31655  -0.864   3.695   8.971 -0.1948 -0.3895 -0.8809
  976MOL0     O31656  -0.913   3.823   8.997  0.4970 -0.7032  0.4134
  976MOL0     C31657  -1.052   3.825   9.010  0.3666  0.3274 -0.0149
  976MOL0     C31658  -1.142   3.829   8.901  0.6623 -1.0570 -0.3837
  976MOL0     C31659  -1.282   3.820   8.914  0.6851  1.0664 -0.3537
  976MOL0     C31660  -1.335   3.784   9.040  0.9062 -0.3128  0.1550
  976MOL0     O31661  -1.468   3.762   9.070 -1.0513  0.8098  0.5200
  976MOL0     C31662  -1.560   3.828   8.983 -0.2153  0.0603  0.2671
  976MOL0     C31663  -1.705   3.826   9.026  0.3621 -0.4192  0.2057
  976MOL0     C31664  -1.711   3.851   9.171 -0.0936  0.4507 -1.0176
  976MOL0     C31665  -1.845   3.901   9.215  1.0930  0.4907 -0.7812
  976MOL0     C31666  -1.871   3.923   9.364 -0.1942 -0.7840  0.3166
  976MOL0     C31667  -2.029   3.959   9.383 -0.3781 -0.4357 -0.0930
  976MOL0     C31668  -2.067   4.029   9.507 -0.4816 -0.2907 -0.1904
  976MOL0     C31669  -2.210   4.057   9.528 -0.5353 -0.1293 -0.0821
  976MOL0    Cl31670  -2.264   4.200   9.429  0.0482 -0.1172  0.0404
  976MOL0     C31671  -1.249   3.774   9.148 -0.7386 -0.6962  0.0442
  976MOL0     C31672  -1.108   3.801   9.139  0.5483 -0.1545 -0.3138
  976MOL0     O31673  -0.922   3.590   8.984  0.6195  0.0760 -0.3554
  976MOL0     C31674  -0.664   3.810   8.876 -0.6574  0.8609 -0.3053
  976MOL0     C31675  -0.520   3.817   8.837  0.2560 -0.0118  0.1864
  976MOL0     N31676   0.109   3.519   8.871  0.4730  0.0096  0.0747
  976MOL0     N31677   0.211   3.448   8.891 -0.5493 -0.3716  0.8679
  976MOL0     C31678   1.352   3.659   9.078 -0.0200  0.6955 -0.3524
  976MOL0     C31679   1.490   3.684   9.088  0.3550 -0.2255 -0.3836
  976MOL0     C31680   1.887   3.837   9.089 -0.8600 -1.0434 -0.7732
  976MOL0     C31681   1.949   3.912   9.189 -0.3648  0.6588  0.1538
  976MOL0     C31682   2.092   3.924   9.180  0.3250 -0.8461 -0.1614
  976MOL0     C31683   2.167   3.853   9.082 -1.1957 -0.3333 -0.1854
  976MOL0     O31684   2.301   3.876   9.068 -0.5126 -0.3971  0.0060
  976MOL0     C31685   2.372   3.756   9.102 -0.7137 -0.4840 -0.0357
  976MOL0     C31686   2.448   3.783   9.242 -0.3311  0.5098 -0.4718
  976MOL0     C31687   2.521   3.918   9.250 -0.2961 -0.4767 -0.1141
  976MOL0     C31688   2.674   3.914   9.298  0.9405  0.0390 -0.4474
  976MOL0     C31689   2.752   3.847   9.193  0.4305  0.7045 -0.8365
  976MOL0     C31690   2.817   3.788   9.114 -0.6090 -0.3307  0.7665
  976MOL0     C31691   2.108   3.779   8.986 -0.1203 -0.4688  0.2911
  976MOL0     C31692   1.966   3.775   8.988 -0.1254 -1.2309 -0.5925
  976MOL0     H31693   1.557   3.766   8.756  0.9431  1.1070  0.4638
  976MOL0     H31694   1.336   3.708   8.736  2.4708  1.2282 -0.4380
  976MOL0     H31695   1.095   3.635   8.741 -2.2347 -1.1907 -0.0560
  976MOL0     H31696   1.210   3.500   8.762 -0.7525 -1.3406  0.6554
  976MOL0     H31697   0.982   3.405   8.733 -1.9670  0.0536  0.0624
  976MOL0     H31698   1.067   3.367   8.884  1.7813  0.8539 -0.6012
  976MOL0     H31699   0.825   3.445   8.944  0.4745  0.1453  0.3104
  976MOL0     H31700   0.952   3.556   8.998 -1.0153  0.9315  0.3243
  976MOL0     H31701   0.905   3.705   8.816 -0.5957 -0.0612  1.4822
  976MOL0     H31702   0.800   3.595   8.741 -2.1142 -0.4042  0.2966
  976MOL0     H31703   0.741   3.704   9.014  1.8128 -0.3255  0.0285
  976MOL0     H31704   0.677   3.765   8.856 -0.5327  0.8084  2.4147
  976MOL0     H31705   0.611   3.512   8.997 -0.2454 -1.5183 -1.6877
  976MOL0     H31706   0.506   3.652   8.941 -3.1484 -0.9942 -4.3658
  976MOL0     H31707   0.522   3.606   8.713 -0.3091  0.8461  1.8465
  976MOL0     H31708   0.631   3.476   8.717  0.9053 -0.0685  1.6205
  976MOL0     H31709   0.463   3.350   8.858  1.2329  2.3897  0.7833
  976MOL0     H31710   0.430   3.392   8.683 -0.1479 -0.2253 -0.3450
  976MOL0     H31711   0.334   3.672   8.688  0.0870  1.9579  1.0342
  976MOL0     H31712   0.109   3.799   8.679  0.8319 -0.1117  0.8011
  976MOL0     H31713  -0.029   3.694   8.665  0.4018  1.3764 -1.5685
  976MOL0     H31714  -0.106   3.871   8.808  0.2501 -0.8965  0.2689
  976MOL0     H31715   0.055   3.891   8.867  1.1695  0.0847 -2.1997
  976MOL0     H31716  -0.100   3.815   9.049 -0.8235  2.1940 -0.3507
  976MOL0     H31717   0.006   3.681   9.001 -0.3203 -0.3529 -1.6176
  976MOL0     H31718  -0.242   3.613   9.031  2.5294  0.6481  0.8865
  976MOL0     H31719  -0.169   3.583   8.867  2.2878 -0.7558  1.5770
  976MOL0     H31720  -0.435   3.527   8.992  0.4000  0.6308  1.5356
  976MOL0     H31721  -0.584   3.396   9.040 -0.1889 -2.3942 -2.6994
  976MOL0     H31722  -0.731   3.470   9.113  1.7068 -0.1452 -0.1596
  976MOL0     H31723  -0.737   3.413   8.949 -2.1509  1.3173  0.9092
  976MOL0     H31724  -1.108   3.857   8.802  0.7231 -3.3926 -1.0643
  976MOL0     H31725  -1.339   3.835   8.823  0.8843 -2.9435 -1.2927
  976MOL0     H31726  -1.534   3.934   8.983 -0.2409  0.0732  1.0831
  976MOL0     H31727  -1.545   3.783   8.884  1.7101 -2.3312  1.5509
  976MOL0     H31728  -1.765   3.903   8.976  0.3031 -0.7158 -0.1888
  976MOL0     H31729  -1.748   3.725   9.019 -0.7508 -0.1367  2.3066
  976MOL0     H31730  -1.648   3.937   9.196 -0.7981  1.0465 -1.2334
  976MOL0     H31731  -1.677   3.771   9.237  1.9985  2.8331  0.9933
  976MOL0     H31732  -1.863   3.999   9.170 -0.9105  1.2667  1.4837
  976MOL0     H31733  -1.922   3.833   9.178  0.8589 -0.3075  1.0630
  976MOL0     H31734  -1.828   4.021   9.388 -1.1353 -0.4342  0.6449
  976MOL0     H31735  -1.831   3.853   9.437 -0.0336 -2.6217 -1.4526
  976MOL0     H31736  -2.062   4.028   9.305 -1.4624 -1.3088 -0.4355
  976MOL0     H31737  -2.079   3.862   9.382 -0.1263 -0.5626 -0.2965
  976MOL0     H31738  -2.001   4.115   9.511 -0.1228 -0.5327 -0.7957
  976MOL0     H31739  -2.031   3.972   9.593  1.5065  1.4680  0.2252
  976MOL0     H31740  -2.222   4.086   9.633 -0.8976 -0.0659 -0.1403
  976MOL0     H31741  -2.273   3.971   9.502  0.8950 -1.8725  1.8819
  976MOL0     H31742  -1.290   3.748   9.245 -1.1696 -3.0219 -0.7015
  976MOL0     H31743  -1.035   3.810   9.218  0.7291  3.4631 -0.7326
  976MOL0     H31744  -0.725   3.898   8.862  2.1066  3.0404  0.3223
  976MOL0     H31745  -0.475   3.901   8.785  3.2323 -0.0431  2.4788
  976MOL0     H31746   1.293   3.627   9.163 -2.2613  1.2970 -1.6218
  976MOL0     H31747   1.541   3.688   9.183  2.3317  2.4352 -1.4181
  976MOL0     H31748   1.884   3.958   9.262 -2.1388  1.0243 -1.5805
  976MOL0     H31749   2.143   3.983   9.255 -0.4368  1.0942 -1.1081
  976MOL0     H31750   2.315   3.663   9.116 -0.4418 -0.6519 -0.0361
  976MOL0     H31751   2.451   3.742   9.027  0.0754  0.9920  0.4860
  976MOL0     H31752   2.516   3.698   9.254 -0.1283  0.7687  0.2347
  976MOL0     H31753   2.381   3.793   9.327  1.9443 -0.1940  1.5189
  976MOL0     H31754   2.471   3.992   9.314  0.9880 -0.5880  1.0794
  976MOL0     H31755   2.531   3.953   9.146 -0.9996 -2.9783 -1.0763
  976MOL0     H31756   2.676   3.856   9.391 -3.6103 -0.8794 -0.6561
  976MOL0     H31757   2.712   4.013   9.322  1.0813  0.0235 -0.6062
  976MOL0     H31758   2.887   3.731   9.055 -0.6573 -0.2919  0.6717
  976MOL0     H31759   2.162   3.732   8.904  2.0171 -0.3253  1.5453
  976MOL0     H31760   1.915   3.704   8.923 -1.5485  0.6573 -1.6174
  977MOL0     O31761   9.090   1.262  10.560 -0.2866  0.4586 -0.4194
  977MOL0     C31762   9.097   1.361  10.630  1.0201 -0.9657 -0.7165
  977MOL0     O31763   8.993   1.409  10.707 -0.1574 -0.2433  0.7912
  977MOL0     C31764   8.886   1.332  10.739  1.1331  0.2148  0.0771
  977MOL0     C31765   8.759   1.397  10.751 -0.4406  0.1610  0.4059
  977MOL0     C31766   8.647   1.323  10.780 -0.1073  0.7542  0.4743
  977MOL0     C31767   8.639   1.186  10.796  0.1886 -0.1305 -0.7267
  977MOL0     O31768   8.518   1.132  10.827  0.1150  0.3097 -0.0899
  977MOL0     C31769   8.508   0.989  10.828 -0.0433  0.4066 -0.1723
  977MOL0     C31770   8.369   0.942  10.835 -0.0700  0.0625 -0.7641
  977MOL0     C31771   8.299   1.029  10.947 -0.5713 -0.8548  0.4485
  977MOL0     C31772   8.169   0.962  11.001 -0.0193  0.2631  0.4176
  977MOL0     C31773   8.107   1.047  11.115  0.1923 -0.1418 -0.5471
  977MOL0     C31774   8.032   1.170  11.072 -0.0150 -0.2076  0.7761
  977MOL0     C31775   7.941   1.230  11.182 -1.4075  0.4658  0.3832
  977MOL0     C31776   7.841   1.326  11.124  0.4918 -0.5269 -0.3566
  977MOL0     N31777   7.745   1.268  11.027 -0.3586  0.5625 -0.5609
  977MOL0     C31778   7.715   1.318  10.900 -0.4740  0.1758  0.5433
  977MOL0     C31779   7.593   1.273  10.876  0.5250 -0.3174  0.5444
  977MOL0     C31780   7.510   1.306  10.755  0.4151  0.2583 -0.0509
  977MOL0     C31781   7.406   1.421  10.770 -0.1037 -0.0629  0.3587
  977MOL0     C31782   7.277   1.382  10.835 -0.1351 -0.3797 -0.5382
  977MOL0     C31783   7.202   1.511  10.878  0.9179  0.6957  0.6776
  977MOL0     O31784   7.140   1.569  10.767 -0.2054  0.1337 -0.1992
  977MOL0     C31785   7.050   1.674  10.776  0.6170  0.1020 -0.3507
  977MOL0     C31786   7.027   1.753  10.888  0.0300 -1.0304  0.4181
  977MOL0     C31787   6.942   1.865  10.887 -0.5689 -0.2445  0.8399
  977MOL0     C31788   6.919   1.944  11.010 -0.0451  0.2226 -0.2421
  977MOL0     C31789   6.872   1.902  10.761 -0.2614  0.5558 -0.6716
  977MOL0     C31790   6.764   2.014  10.748  0.4065  0.5242 -0.4440
  977MOL0     O31791   6.738   2.103  10.850  0.4134 -0.6933 -0.0529
  977MOL0     C31792   6.627   2.188  10.831  0.7011  0.1594  0.2952
  977MOL0     C31793   6.614   2.270  10.720 -0.5192  0.0038 -0.0905
  977MOL0     C31794   6.507   2.356  10.704 -0.2968  0.3253 -0.8550
  977MOL0     C31795   6.403   2.355  10.800  0.0428 -0.0209 -0.0648
  977MOL0     O31796   6.289   2.423  10.782  0.1472 -0.6028 -0.8434
  977MOL0     C31797   6.256   2.485  10.666 -0.8455  0.4888 -0.4982
  977MOL0     C31798   6.121   2.554  10.646  0.3659  0.5575 -0.3044
  977MOL0     C31799   6.003   2.506  10.722 -0.4424 -0.0512 -0.2604
  977MOL0     C31800   5.874   2.553  10.661  0.0269 -0.0403 -0.6046
  977MOL0     C31801   5.759   2.470  10.728  0.6209 -0.7630 -0.7459
  977MOL0     C31802   5.620   2.487  10.668  0.1283 -0.4248  0.2293
  977MOL0     C31803   5.520   2.380  10.724  1.0821 -0.3854  0.0209
  977MOL0     C31804   5.377   2.412  10.667 -0.7451  0.6364 -0.6366
  977MOL0    Cl31805   5.380   2.377  10.499  0.3124 -0.1348 -0.2764
  977MOL0     C31806   6.418   2.279  10.918 -0.3305  0.5183  0.8157
  977MOL0     C31807   6.527   2.198  10.933  0.0266 -0.4450 -0.1381
  977MOL0     O31808   6.688   1.992  10.653  0.2061  0.3197 -0.2280
  977MOL0     C31809   6.885   1.814  10.651 -0.1110 -0.1064 -0.3125
  977MOL0     C31810   6.971   1.700  10.667 -0.8343  0.4215 -0.2546
  977MOL0     N31811   7.549   1.197  10.984  0.8522 -0.2073 -0.0721
  977MOL0     N31812   7.636   1.195  11.073 -0.5247 -0.4032  0.5555
  977MOL0     C31813   8.763   1.120  10.780 -0.2653 -0.0993  0.5451
  977MOL0     C31814   8.880   1.195  10.759 -0.0944  0.3525 -0.4238
  977MOL0     C31815   9.216   1.446  10.629  0.0809 -0.1021  0.4921
  977MOL0     C31816   9.231   1.545  10.729 -0.5402  0.4948 -0.5792
  977MOL0     C31817   9.356   1.619  10.738  1.0791  0.7251  0.2282
  977MOL0     C31818   9.455   1.595  10.653 -0.8387 -0.4153 -0.0579
  977MOL0     O31819   9.574   1.666  10.664  0.0312 -0.2077  0.4955
  977MOL0     C31820   9.672   1.614  10.755  0.0737  0.0596  0.8368
  977MOL0     C31821   9.805   1.589  10.687 -0.0472  0.4262 -0.3568
  977MOL0     C31822   9.888   1.717  10.643 -0.3424 -0.1466 -0.1392
  977MOL0     C31823   9.967   1.780  10.759  0.1640  0.2284  0.0788
  977MOL0     C31824   9.883   1.854  10.851  0.5804  0.2855 -0.4715
  977MOL0     C31825   9.807   1.919  10.922  0.5111  0.7629 -0.2076
  977MOL0     C31826   9.436   1.506  10.542 -0.2188  1.0887 -0.4829
  977MOL0     C31827   9.317   1.436  10.536 -0.0450  0.0900  1.3252
  977MOL0     H31828   8.746   1.504  10.741 -2.5385 -0.1560 -0.8872
  977MOL0     H31829   8.562   1.389  10.795 -0.5424  0.4809 -0.7017
  977MOL0     H31830   8.557   0.930  10.751  5.3044  2.5351  1.1399
  977MOL0     H31831   8.562   0.958  10.918  1.6667  2.0724 -0.5593
  977MOL0     H31832   8.321   0.952  10.737 -0.2631  0.2875 -0.6474
  977MOL0     H31833   8.376   0.836  10.860  0.7762  0.3688  0.4073
  977MOL0     H31834   8.367   1.039  11.032  3.0844  1.6875 -2.4374
  977MOL0     H31835   8.281   1.126  10.899 -1.0641 -1.0005  0.3266
  977MOL0     H31836   8.090   0.946  10.927 -1.7661  0.4848  2.1558
  977MOL0     H31837   8.199   0.864  11.040 -0.3218  0.0433  0.1039
  977MOL0     H31838   8.032   0.978  11.155  1.1980 -0.2473  1.2884
  977MOL0     H31839   8.181   1.070  11.192 -0.9558 -0.3433  0.6546
  977MOL0     H31840   8.101   1.249  11.043 -0.8563  0.4464  0.5005
  977MOL0     H31841   7.978   1.145  10.980 -2.6363 -2.4924  2.7177
  977MOL0     H31842   7.887   1.156  11.242  0.6848 -3.0977 -1.7755
  977MOL0     H31843   8.008   1.288  11.245 -1.9294 -0.0377  1.4302
  977MOL0     H31844   7.883   1.418  11.083 -0.7637  1.4250  2.4396
  977MOL0     H31845   7.789   1.377  11.206  1.0953  1.4372 -1.1485
  977MOL0     H31846   7.771   1.382  10.832 -1.8737  1.7591  0.8229
  977MOL0     H31847   7.568   1.315  10.662 -0.5045 -1.2695 -0.8073
  977MOL0     H31848   7.441   1.221  10.748 -2.5138  2.4813 -0.0814
  977MOL0     H31849   7.387   1.468  10.673 -0.1325 -0.1457  0.3235
  977MOL0     H31850   7.463   1.499  10.822 -1.0017  1.3484 -0.7086
  977MOL0     H31851   7.303   1.323  10.923 -0.6795  1.1967  0.7237
  977MOL0     H31852   7.212   1.326  10.767 -0.2494 -0.8624 -0.0368
  977MOL0     H31853   7.279   1.570  10.928  1.5150  0.4807  0.0391
  977MOL0     H31854   7.119   1.476  10.940 -0.1486  0.2383 -0.9564
  977MOL0     H31855   7.058   1.714  10.985 -0.0035 -1.2301  0.3499
  977MOL0     H31856   6.815   1.964  11.039  0.3393  0.3107  1.1331
  977MOL0     H31857   6.970   1.901  11.097  2.9214  0.0236 -1.9658
  977MOL0     H31858   6.956   2.047  11.007 -1.1237  0.8229  2.9032
  977MOL0     H31859   6.688   2.285  10.642  0.2395 -3.3423 -0.1622
  977MOL0     H31860   6.512   2.429  10.625  2.5854 -0.4712 -1.5451
  977MOL0     H31861   6.326   2.568  10.650 -0.4863  0.1755 -0.5672
  977MOL0     H31862   6.261   2.418  10.579  0.5512  1.9492 -1.6187
  977MOL0     H31863   6.131   2.658  10.676  1.0561  0.8615 -1.5140
  977MOL0     H31864   6.102   2.547  10.538 -0.3140 -2.3993 -0.0801
  977MOL0     H31865   6.020   2.540  10.825  2.2452 -0.9028 -0.3651
  977MOL0     H31866   6.009   2.397  10.736  3.4848  0.1558  0.6509
  977MOL0     H31867   5.860   2.661  10.673  0.2204 -0.2184  1.8772
  977MOL0     H31868   5.873   2.524  10.556  1.3344 -1.9696 -0.1337
  977MOL0     H31869   5.748   2.498  10.834  0.0352  0.4677 -1.1120
  977MOL0     H31870   5.783   2.364  10.723 -2.0099 -1.5360  0.7541
  977MOL0     H31871   5.589   2.588  10.697  0.2439 -0.6947  1.3489
  977MOL0     H31872   5.614   2.485  10.559 -0.1402  1.0685  0.1909
  977MOL0     H31873   5.521   2.392  10.833  1.6658  0.6638 -0.0915
  977MOL0     H31874   5.551   2.277  10.701  1.6596 -0.4953  1.2201
  977MOL0     H31875   5.364   2.520  10.676  1.2459  0.8984 -0.3908
  977MOL0     H31876   5.302   2.351  10.719  0.7275 -0.0631  0.7974
  977MOL0     H31877   6.340   2.266  10.992 -1.8520 -1.0552 -0.9415
  977MOL0     H31878   6.543   2.130  11.017 -1.1455  1.2272  1.5193
  977MOL0     H31879   6.838   1.834  10.556  1.1851 -2.4119 -1.5322
  977MOL0     H31880   6.986   1.634  10.582 -0.4766  0.7841 -0.4741
  977MOL0     H31881   8.770   1.012  10.788 -0.4324 -0.1820 -0.3723
  977MOL0     H31882   8.971   1.139  10.739 -0.9672 -1.2275 -0.1626
  977MOL0     H31883   9.146   1.560  10.794 -1.6131 -0.7947 -1.6196
  977MOL0     H31884   9.367   1.686  10.823 -1.4822  1.3285  0.1493
  977MOL0     H31885   9.687   1.678  10.843  0.7863 -1.8046  2.1299
  977MOL0     H31886   9.634   1.520  10.796  0.3762  0.9637  3.4041
  977MOL0     H31887   9.775   1.533  10.598 -1.9345 -0.2521  0.6595
  977MOL0     H31888   9.864   1.521  10.748 -0.2863  1.0747  0.6139
  977MOL0     H31889   9.821   1.795  10.606 -0.6797 -0.4203 -0.1063
  977MOL0     H31890   9.952   1.688  10.560 -1.2566 -0.4544 -0.7516
  977MOL0     H31891  10.047   1.845  10.723 -1.3477  0.8075 -2.5121
  977MOL0     H31892  10.012   1.690  10.802  2.2115  0.7104 -0.9332
  977MOL0     H31893   9.734   1.980  10.972  1.4361  0.3020  1.7872
  977MOL0     H31894   9.516   1.499  10.468  0.9094  1.2820  0.6814
  977MOL0     H31895   9.310   1.370  10.451 -2.2714  1.4396  0.3859
  978MOL0     O31896   0.900   1.911  10.878 -0.3315 -0.0165  0.6250
  978MOL0     C31897   0.885   1.886  10.998 -0.6613  0.1936 -0.9892
  978MOL0     O31898   0.810   1.782  11.057 -0.3682 -0.0650 -0.7038
  978MOL0     C31899   0.739   1.682  10.993  0.2957  0.3719 -0.3937
  978MOL0     C31900   0.782   1.611  10.879 -0.0263 -0.3364 -0.0558
  978MOL0     C31901   0.702   1.513  10.817  0.7363  0.0817  0.2265
  978MOL0     C31902   0.578   1.471  10.878  1.3703  0.1189 -0.0254
  978MOL0     O31903   0.503   1.371  10.824 -0.1870  0.4524 -1.3042
  978MOL0     C31904   0.540   1.242  10.876  0.0981 -0.6764 -0.5090
  978MOL0     C31905   0.445   1.134  10.814  0.1553 -0.6303  0.7320
  978MOL0     C31906   0.438   1.152  10.663 -0.2370  0.0885  0.3134
  978MOL0     C31907   0.349   1.043  10.599  0.7152 -1.2257 -0.3220
  978MOL0     C31908   0.333   1.054  10.447 -0.4369 -0.8990 -0.2131
  978MOL0     C31909   0.444   0.988  10.366 -0.0118  0.0249 -1.2991
  978MOL0     C31910   0.417   0.839  10.336  0.1474  0.4411  0.6740
  978MOL0     C31911   0.556   0.773  10.287  1.3121 -0.0173 -0.4257
  978MOL0     N31912   0.599   0.822  10.155  0.4031 -0.1762 -0.7629
  978MOL0     C31913   0.600   0.740  10.047  0.1500 -0.4239  0.3873
  978MOL0     C31914   0.701   0.794   9.969  0.8156 -0.2467 -0.0848
  978MOL0     C31915   0.753   0.729   9.844 -0.4237  0.0679  0.5071
  978MOL0     C31916   0.779   0.826   9.728  0.0028  0.3569 -0.2334
  978MOL0     C31917   0.783   0.762   9.588 -0.5552 -0.0744 -0.6366
  978MOL0     C31918   0.763   0.869   9.479 -0.1441 -0.2179  0.3733
  978MOL0     O31919   0.680   0.975   9.501  0.1788 -0.9134  0.8689
  978MOL0     C31920   0.547   0.954   9.512 -0.3176  0.4223  0.3453
  978MOL0     C31921   0.489   0.836   9.459  0.1367  0.5192 -0.6535
  978MOL0     C31922   0.346   0.823   9.453 -0.4485  0.3573  0.1356
  978MOL0     C31923   0.290   0.687   9.401 -0.7266 -0.0396 -0.0785
  978MOL0     C31924   0.265   0.924   9.509 -0.6362 -0.0200 -0.2113
  978MOL0     C31925   0.119   0.916   9.537 -0.7692 -0.2746 -0.0744
  978MOL0     O31926   0.062   1.033   9.582  0.0710 -0.4332 -0.1476
  978MOL0     C31927  -0.069   1.036   9.632  0.2292  0.2634 -0.1226
  978MOL0     C31928  -0.093   0.997   9.766  1.2315  0.8294 -0.1693
  978MOL0     C31929  -0.227   1.017   9.822 -0.5828  0.5201 -0.5793
  978MOL0     C31930  -0.322   1.080   9.746 -0.6478 -0.1786  0.5618
  978MOL0     O31931  -0.442   1.120   9.789  0.4354 -0.1003 -0.2092
  978MOL0     C31932  -0.526   1.042   9.874  0.7098  0.0016 -0.8112
  978MOL0     C31933  -0.587   1.148   9.965 -0.4675  0.3288  0.6771
  978MOL0     C31934  -0.712   1.103  10.036  0.9230  0.9933  0.0607
  978MOL0     C31935  -0.713   0.968  10.110  0.2423 -0.1122 -0.5283
  978MOL0     C31936  -0.619   0.952  10.219 -0.0792  0.3849 -0.9131
  978MOL0     C31937  -0.643   1.027  10.359  0.7944 -0.6932 -0.5857
  978MOL0     C31938  -0.562   0.956  10.476 -0.1078 -0.6798 -0.2724
  978MOL0     C31939  -0.561   1.036  10.605  0.4447 -0.7360 -0.1938
  978MOL0    Cl31940  -0.463   0.969  10.737  0.3464 -0.2770 -0.4777
  978MOL0     C31941  -0.295   1.117   9.620  0.0712  0.2510  0.1353
  978MOL0     C31942  -0.174   1.095   9.563 -0.5630 -0.2080 -0.3418
  978MOL0     O31943   0.059   0.820   9.495  0.0610  0.1416 -0.1917
  978MOL0     C31944   0.327   1.037   9.568  0.1688  0.6776  0.2331
  978MOL0     C31945   0.466   1.057   9.558 -0.2930 -0.2914  0.4217
  978MOL0     N31946   0.761   0.901  10.040  1.0422 -0.1497  0.4204
  978MOL0     N31947   0.700   0.913  10.150  0.2658  0.1289 -0.5130
  978MOL0     C31948   0.527   1.545  10.988  0.7252 -0.3806  0.6763
  978MOL0     C31949   0.610   1.645  11.041  0.8715 -0.1078  0.8880
  978MOL0     C31950   0.980   1.959  11.086 -0.0477  0.7201  0.4322
  978MOL0     C31951   1.075   2.056  11.047  0.0489  0.8609 -0.8002
  978MOL0     C31952   1.160   2.119  11.139  0.0254  0.2537 -0.0728
  978MOL0     C31953   1.139   2.104  11.276  0.1711  0.3190  0.7572
  978MOL0     O31954   1.207   2.171  11.375  0.2992  0.2547 -0.0962
  978MOL0     C31955   1.343   2.186  11.350  0.8257  0.5792  0.8350
  978MOL0     C31956   1.424   2.204  11.476 -0.0523  0.7408 -0.9268
  978MOL0     C31957   1.448   2.068  11.544  0.0720  0.5802  0.2253
  978MOL0     C31958   1.542   2.073  11.670  0.6301 -0.3908  0.4666
  978MOL0     C31959   1.681   2.100  11.613  0.4160 -0.9334 -0.0474
  978MOL0     C31960   1.777   2.140  11.557 -0.0039  0.1782  0.1386
  978MOL0     C31961   1.057   1.993  11.316  0.8406 -0.1113  0.3991
  978MOL0     C31962   0.974   1.930  11.221  0.4928  0.6571 -0.8037
  978MOL0     H31963   0.885   1.628  10.849  1.2213 -2.3881  2.6104
  978MOL0     H31964   0.749   1.451  10.742  1.6164  1.0446 -0.0589
  978MOL0     H31965   0.641   1.218  10.841  1.7617 -1.5862  4.1745
  978MOL0     H31966   0.526   1.235  10.984 -2.9709  0.5020 -0.7314
  978MOL0     H31967   0.487   1.035  10.834 -0.6112 -1.1874 -0.3519
  978MOL0     H31968   0.344   1.142  10.855 -0.0253 -1.7086  0.5315
  978MOL0     H31969   0.385   1.239  10.625 -1.8354 -1.3378 -0.8809
  978MOL0     H31970   0.536   1.150  10.614  0.1917  1.0306  1.0990
  978MOL0     H31971   0.381   0.942  10.626  0.6701 -1.0440  0.4376
  978MOL0     H31972   0.245   1.052  10.633  0.7211  0.4069 -0.6807
  978MOL0     H31973   0.232   1.025  10.416 -0.3303  1.0329 -2.7686
  978MOL0     H31974   0.337   1.161  10.421 -0.3129 -0.9267 -0.3067
  978MOL0     H31975   0.449   1.055  10.280  0.6107 -0.1135 -1.3685
  978MOL0     H31976   0.538   1.004  10.419  0.0825  0.9098 -1.7248
  978MOL0     H31977   0.375   0.789  10.423 -1.2508  1.0270  0.3602
  978MOL0     H31978   0.342   0.836  10.256  1.0380  0.1673 -0.1729
  978MOL0     H31979   0.533   0.667  10.277 -2.2662  0.5698  0.3168
  978MOL0     H31980   0.642   0.799  10.348  0.0813 -0.3034  1.5156
  978MOL0     H31981   0.528   0.662  10.027 -2.0594  2.1530 -2.7015
  978MOL0     H31982   0.852   0.689   9.864  1.1908  3.7496  0.6643
  978MOL0     H31983   0.681   0.649   9.820  0.0890 -1.0350  2.4339
  978MOL0     H31984   0.866   0.888   9.749  0.8733 -0.9882  0.2474
  978MOL0     H31985   0.693   0.894   9.737  0.0750  0.2040  3.0617
  978MOL0     H31986   0.708   0.683   9.578  1.3212 -2.1549  0.8885
  978MOL0     H31987   0.881   0.716   9.580 -0.6763 -0.2605 -1.1302
  978MOL0     H31988   0.740   0.815   9.387 -2.0423  2.6117 -0.9666
  978MOL0     H31989   0.859   0.911   9.449 -1.0490  2.0159  0.3496
  978MOL0     H31990   0.561   0.761   9.426 -1.1302  0.9234 -4.8714
  978MOL0     H31991   0.231   0.643   9.482 -1.0791  2.6325  1.2440
  978MOL0     H31992   0.230   0.707   9.311  0.0095  1.9027 -0.1852
  978MOL0     H31993   0.371   0.626   9.361 -0.8986 -0.3198  0.0025
  978MOL0     H31994  -0.015   0.937   9.812 -0.0284 -2.4670 -1.9616
  978MOL0     H31995  -0.244   0.989   9.926  2.6133  0.6139  0.0658
  978MOL0     H31996  -0.613   1.004   9.820 -0.5335  1.4387  0.1301
  978MOL0     H31997  -0.478   0.960   9.928  1.5037  1.5320  0.9056
  978MOL0     H31998  -0.518   1.187  10.040  0.9618 -0.2281 -0.3042
  978MOL0     H31999  -0.612   1.232   9.899 -1.5604  0.6435  1.4617
  978MOL0     H32000  -0.802   1.116   9.976  0.5684 -0.6745  0.1811
  978MOL0     H32001  -0.730   1.163  10.126  1.4402 -0.8282  1.4297
  978MOL0     H32002  -0.812   0.959  10.156 -0.1839 -0.7793 -1.5610
  978MOL0     H32003  -0.709   0.888  10.036  1.4027  1.0859 -1.8243
  978MOL0     H32004  -0.519   0.976  10.181  0.6002  1.6489  1.5296
  978MOL0     H32005  -0.608   0.848  10.250  0.1482  0.8426  0.5882
  978MOL0     H32006  -0.604   1.128  10.347  4.9693 -2.0188 -0.0907
  978MOL0     H32007  -0.747   1.017  10.388  1.0956 -1.4139  0.2943
  978MOL0     H32008  -0.457   0.945  10.450  1.0851  1.0662  3.2232
  978MOL0     H32009  -0.599   0.857  10.502  0.5354 -0.9317 -0.3089
  978MOL0     H32010  -0.659   1.063  10.645  0.3270 -0.3367 -0.7374
  978MOL0     H32011  -0.513   1.131  10.581 -1.4050  0.1796 -0.4325
  978MOL0     H32012  -0.375   1.171   9.570  1.2083  2.3350  0.4270
  978MOL0     H32013  -0.152   1.125   9.461 -2.2805 -1.2898 -1.0840
  978MOL0     H32014   0.266   1.117   9.609  2.6514  3.3397 -0.8790
  978MOL0     H32015   0.514   1.143   9.605 -1.7978 -0.0250  1.5488
  978MOL0     H32016   0.436   1.503  11.029  0.6089 -3.7349 -2.4615
  978MOL0     H32017   0.587   1.692  11.136  1.4822  3.2703 -0.5067
  978MOL0     H32018   1.091   2.079  10.942  0.5130  2.8828 -0.3217
  978MOL0     H32019   1.233   2.193  11.108  0.0715 -0.0578 -0.7198
  978MOL0     H32020   1.381   2.096  11.301 -0.5035 -0.0884  0.9974
  978MOL0     H32021   1.367   2.260  11.272  3.3144 -1.7472 -0.7825
  978MOL0     H32022   1.381   2.280  11.542 -0.0522 -0.5032  0.5660
  978MOL0     H32023   1.522   2.247  11.454  0.1687  1.7261  1.6071
  978MOL0     H32024   1.492   2.003  11.468 -1.1419 -1.2864  1.0564
  978MOL0     H32025   1.350   2.025  11.567  0.3598 -0.2354 -0.0504
  978MOL0     H32026   1.540   1.976  11.721 -1.6221 -0.6773 -0.0487
  978MOL0     H32027   1.512   2.145  11.746  2.6285 -2.0353  2.9674
  978MOL0     H32028   1.851   2.177  11.489 -0.8161  0.6225 -0.5194
  978MOL0     H32029   1.042   1.961  11.418 -0.3021 -0.5557  0.1068
  978MOL0     H32030   0.921   1.846  11.266  0.7337 -1.3005 -3.8606
  979MOL0     O32031   5.481   7.957   8.937  0.4568 -0.2586 -0.3709
  979MOL0     C32032   5.596   7.947   8.983  0.4460 -0.6722 -0.2124
  979MOL0     O32033   5.642   7.994   9.107  0.5444 -0.2546  0.2802
  979MOL0     C32034   5.551   8.079   9.177 -0.0108 -0.8067  0.0018
  979MOL0     C32035   5.534   8.070   9.316 -0.1177  1.0017 -1.4603
  979MOL0     C32036   5.432   8.135   9.383  0.0522 -0.0431 -0.3350
  979MOL0     C32037   5.358   8.236   9.320 -0.2991  0.2146 -0.2905
  979MOL0     O32038   5.257   8.295   9.389 -0.3490 -0.7681  0.0472
  979MOL0     C32039   5.263   8.300   9.535 -0.7982  0.1657 -0.3124
  979MOL0     C32040   5.158   8.405   9.582 -0.5298  0.3995  0.3694
  979MOL0     C32041   5.017   8.346   9.594 -0.5782 -0.0824 -0.0044
  979MOL0     C32042   4.910   8.465   9.597  0.2170 -0.1659  0.8748
  979MOL0     C32043   4.770   8.417   9.618 -0.4454 -0.0708 -0.0766
  979MOL0     C32044   4.727   8.336   9.501 -1.0256  0.4832  0.4147
  979MOL0     C32045   4.579   8.336   9.504 -0.2756 -1.2500 -0.0818
  979MOL0     C32046   4.513   8.261   9.383 -1.0885  0.8981  0.2566
  979MOL0     N32047   4.367   8.254   9.398  0.4747  0.3046 -0.3974
  979MOL0     C32048   4.322   8.138   9.461 -0.0298 -0.9912  0.3555
  979MOL0     C32049   4.189   8.148   9.470 -0.6812  0.5795  0.7931
  979MOL0     C32050   4.089   8.046   9.521  0.3464 -0.7809 -1.5669
  979MOL0     C32051   4.005   8.085   9.649  0.7754  0.1155 -0.5387
  979MOL0     C32052   3.903   8.197   9.622  0.0442  1.1267 -0.9066
  979MOL0     C32053   3.838   8.232   9.756 -0.8980  0.6971 -0.3207
  979MOL0     O32054   3.748   8.339   9.729  0.4728 -0.3898  0.5812
  979MOL0     C32055   3.616   8.304   9.708 -0.2189 -0.2992 -0.2741
  979MOL0     C32056   3.514   8.398   9.748 -0.1014 -0.3087 -1.4241
  979MOL0     C32057   3.378   8.351   9.756 -0.4502 -0.2119  0.0817
  979MOL0     C32058   3.279   8.448   9.813  1.1838 -1.1805 -0.7898
  979MOL0     C32059   3.335   8.221   9.713  0.1469 -0.8830  0.7273
  979MOL0     C32060   3.199   8.162   9.712  0.1634  0.4390 -0.9052
  979MOL0     O32061   3.189   8.024   9.680  0.3351  0.4903 -0.5661
  979MOL0     C32062   3.068   7.964   9.723  0.4887 -0.4047  0.6920
  979MOL0     C32063   3.078   7.870   9.825  0.4542  0.0476 -0.6610
  979MOL0     C32064   2.963   7.806   9.867  0.3123  0.2242 -0.7086
  979MOL0     C32065   2.832   7.832   9.812  0.3256  0.8505  0.6100
  979MOL0     O32066   2.711   7.774   9.858 -0.1774  0.6193  0.3147
  979MOL0     C32067   2.685   7.653   9.777 -0.5185 -0.0257 -0.2316
  979MOL0     C32068   2.614   7.549   9.863 -0.1393 -0.1713  0.0224
  979MOL0     C32069   2.569   7.416   9.789 -0.3208  0.4019 -0.0824
  979MOL0     C32070   2.693   7.328   9.743  0.1492 -0.0523  0.4648
  979MOL0     C32071   2.751   7.230   9.854 -0.0952 -0.2535  0.8795
  979MOL0     C32072   2.871   7.148   9.797 -0.7102  0.0379  1.1769
  979MOL0     C32073   2.993   7.230   9.742  0.1489 -0.1891  0.6062
  979MOL0     C32074   3.065   7.321   9.846  0.6272 -0.3483 -0.0398
  979MOL0    Cl32075   3.146   7.450   9.753  0.0740 -0.0699 -0.2103
  979MOL0     C32076   2.831   7.922   9.705  0.0146 -0.1121  0.3345
  979MOL0     C32077   2.949   7.988   9.654 -0.9185 -0.0940 -0.4650
  979MOL0     O32078   3.106   8.237   9.741  0.7426 -0.6477 -0.3379
  979MOL0     C32079   3.437   8.141   9.656  0.3227  0.9051 -0.8413
  979MOL0     C32080   3.575   8.172   9.663  0.1234  0.1937  0.2309
  979MOL0     N32081   4.158   8.264   9.403 -0.0944 -0.6502  0.1372
  979MOL0     N32082   4.258   8.327   9.354 -0.5598  0.2542  0.1369
  979MOL0     C32083   5.387   8.260   9.182 -0.4594  0.3060 -0.7889
  979MOL0     C32084   5.478   8.183   9.111  0.6044 -0.6223 -0.5013
  979MOL0     C32085   5.692   7.863   8.901 -0.1964  0.1259 -0.0799
  979MOL0     C32086   5.650   7.805   8.784 -0.7408 -0.3932 -0.7817
  979MOL0     C32087   5.733   7.714   8.707  0.1846 -0.2627 -0.4781
  979MOL0     C32088   5.867   7.692   8.751  0.2415 -0.0860  0.6662
  979MOL0     O32089   5.934   7.600   8.685  0.0375  0.0819 -0.4231
  979MOL0     C32090   6.025   7.646   8.586 -0.1080  0.1297 -0.0440
  979MOL0     C32091   6.038   7.540   8.474  0.5057 -0.2308 -0.2515
  979MOL0     C32092   5.905   7.531   8.401  0.6919 -0.3741 -0.6883
  979MOL0     C32093   5.944   7.479   8.266  0.6785  0.8422  0.6816
  979MOL0     C32094   5.816   7.458   8.208 -0.3377 -0.8895 -0.0564
  979MOL0     C32095   5.707   7.433   8.169  0.3431 -1.0798  0.1219
  979MOL0     C32096   5.906   7.745   8.874 -0.0341 -0.4840 -0.2667
  979MOL0     C32097   5.821   7.836   8.945  0.7514  0.3518  0.4670
  979MOL0     H32098   5.595   7.998   9.368 -0.3527  0.6636 -1.6482
  979MOL0     H32099   5.401   8.102   9.482 -2.6280  2.5657 -0.1728
  979MOL0     H32100   5.241   8.204   9.583 -0.9759 -0.6223 -1.8898
  979MOL0     H32101   5.358   8.344   9.566  0.1836  0.4512 -3.3940
  979MOL0     H32102   5.184   8.437   9.684 -0.6591 -1.1705  0.9182
  979MOL0     H32103   5.167   8.489   9.512 -1.4363 -0.6931 -1.1103
  979MOL0     H32104   4.983   8.277   9.516 -0.2834  1.6807 -1.7485
  979MOL0     H32105   5.016   8.281   9.683  0.5380  1.0495  0.8667
  979MOL0     H32106   4.940   8.520   9.686  1.4886 -1.4580  1.2859
  979MOL0     H32107   4.930   8.529   9.511  1.4480  2.2224  2.8134
  979MOL0     H32108   4.760   8.368   9.715 -0.2372  1.9393  1.0260
  979MOL0     H32109   4.704   8.502   9.639 -0.1870 -0.3244  1.9023
  979MOL0     H32110   4.748   8.369   9.399 -0.6277 -0.7004  0.0903
  979MOL0     H32111   4.761   8.234   9.522 -3.8153 -0.7068 -0.4920
  979MOL0     H32112   4.546   8.291   9.598  0.5928 -0.9881  0.3569
  979MOL0     H32113   4.551   8.442   9.497  3.3382 -0.1529  0.0303
  979MOL0     H32114   4.544   8.157   9.368 -0.9971  0.6860  1.7737
  979MOL0     H32115   4.541   8.313   9.291  2.5615 -0.1624  0.6099
  979MOL0     H32116   4.379   8.052   9.495 -1.1131 -2.0037 -0.3086
  979MOL0     H32117   4.017   8.014   9.445  1.7437 -0.2574 -3.1811
  979MOL0     H32118   4.132   7.949   9.548 -0.0740 -0.3242  0.9859
  979MOL0     H32119   4.075   8.093   9.733  0.0974 -1.5870  0.2477
  979MOL0     H32120   3.946   8.001   9.687 -0.7903  0.9612 -1.0122
  979MOL0     H32121   3.837   8.172   9.538  1.0577  1.6709 -1.8973
  979MOL0     H32122   3.967   8.279   9.588  0.4941  1.5756  0.8954
  979MOL0     H32123   3.906   8.264   9.836  0.9469  1.7982 -2.2256
  979MOL0     H32124   3.793   8.136   9.783 -1.9146  0.4900 -2.5671
  979MOL0     H32125   3.527   8.505   9.765 -0.8348 -0.6725  2.0302
  979MOL0     H32126   3.234   8.403   9.902  0.7333  3.2281  1.4884
  979MOL0     H32127   3.326   8.541   9.846 -2.7764  0.2125  1.6219
  979MOL0     H32128   3.202   8.478   9.742  1.4644  1.1590 -0.2122
  979MOL0     H32129   3.165   7.838   9.880 -1.9618  1.1388  4.4108
  979MOL0     H32130   2.976   7.731   9.945  0.9956  0.1746 -0.8627
  979MOL0     H32131   2.625   7.676   9.688 -2.5676 -1.5175  0.6874
  979MOL0     H32132   2.781   7.609   9.747  0.2360  0.4145  1.4419
  979MOL0     H32133   2.672   7.516   9.950  0.2755  2.8063  0.9591
  979MOL0     H32134   2.523   7.600   9.897 -1.4815 -0.5438 -2.7441
  979MOL0     H32135   2.522   7.456   9.698 -1.7365  2.5351  1.5072
  979MOL0     H32136   2.506   7.345   9.843  0.5690  0.3131  0.8701
  979MOL0     H32137   2.664   7.284   9.646 -0.5918 -0.8342  1.0261
  979MOL0     H32138   2.768   7.398   9.706 -2.5078  2.3612 -0.7879
  979MOL0     H32139   2.663   7.168   9.876 -1.4899  1.8330  1.5599
  979MOL0     H32140   2.768   7.288   9.946 -3.1015  3.9744 -0.8760
  979MOL0     H32141   2.917   7.082   9.872  2.8445  2.3533  1.3020
  979MOL0     H32142   2.836   7.081   9.719  0.6537 -0.7353  1.1859
  979MOL0     H32143   2.949   7.280   9.655  0.2769 -0.1752  0.5480
  979MOL0     H32144   3.066   7.156   9.707 -0.4669 -0.1991 -0.7144
  979MOL0     H32145   3.130   7.261   9.911 -0.7943 -1.4290  0.4675
  979MOL0     H32146   3.002   7.378   9.915  1.1413 -0.6847  0.7189
  979MOL0     H32147   2.735   7.943   9.658 -1.0646 -0.1258  2.4119
  979MOL0     H32148   2.939   8.067   9.579  0.2306  0.6048  0.0783
  979MOL0     H32149   3.420   8.045   9.609  2.8334  0.2258 -0.4919
  979MOL0     H32150   3.647   8.104   9.620 -0.9504 -0.0677 -1.2342
  979MOL0     H32151   5.348   8.340   9.119  2.3003  1.2179 -1.4814
  979MOL0     H32152   5.498   8.198   9.005  0.9485 -0.6040 -0.4327
  979MOL0     H32153   5.549   7.828   8.754 -1.2613 -1.9479 -0.3227
  979MOL0     H32154   5.685   7.662   8.625 -1.1255 -0.9646  0.6917
  979MOL0     H32155   5.984   7.738   8.543  2.1084  0.6453 -1.2251
  979MOL0     H32156   6.118   7.677   8.634 -0.0567 -0.8594  0.5288
  979MOL0     H32157   6.074   7.445   8.514  1.4580  0.2027 -0.0689
  979MOL0     H32158   6.114   7.577   8.404  1.2544 -1.6983 -0.2587
  979MOL0     H32159   5.854   7.628   8.403  1.8583  0.2424  1.2730
  979MOL0     H32160   5.840   7.463   8.456  1.2481 -1.4471 -1.3115
  979MOL0     H32161   6.004   7.387   8.271  0.9647  0.7856 -2.1218
  979MOL0     H32162   6.004   7.549   8.208  2.0158  1.0298  2.2062
  979MOL0     H32163   5.609   7.415   8.129 -1.3880  1.5294  2.8276
  979MOL0     H32164   5.996   7.707   8.922 -0.5306 -1.0663  0.2192
  979MOL0     H32165   5.857   7.873   9.040  2.1739 -2.4813  1.1237
  980MOL0     O32166   5.330   6.848  10.971  0.8005  0.5233  0.4598
  980MOL0     C32167   5.403   6.862  10.874  0.6184  0.2952  0.9910
  980MOL0     O32168   5.355   6.912  10.752  0.1945  0.6430 -0.1899
  980MOL0     C32169   5.218   6.943  10.751  0.6189  0.0131  0.6224
  980MOL0     C32170   5.143   6.908  10.639 -0.2477  0.3370 -0.2647
  980MOL0     C32171   5.012   6.953  10.626 -0.5234 -0.5544 -0.3198
  980MOL0     C32172   4.950   7.039  10.718 -0.0781 -0.3361 -0.8682
  980MOL0     O32173   4.814   7.063  10.707  0.2704  0.0659 -0.5153
  980MOL0     C32174   4.734   7.096  10.821 -0.0262  0.5575 -0.0937
  980MOL0     C32175   4.586   7.069  10.785  0.4219 -0.2727  0.0825
  980MOL0     C32176   4.548   6.920  10.808  0.1881 -0.8525  0.3829
  980MOL0     C32177   4.399   6.893  10.777  0.3473  0.0901  0.4029
  980MOL0     C32178   4.302   6.996  10.844  0.1215 -0.4966 -1.0417
  980MOL0     C32179   4.311   6.976  11.001  0.1495  0.2957  0.3623
  980MOL0     C32180   4.209   7.063  11.068 -0.4877 -0.4809  0.4466
  980MOL0     C32181   4.202   7.037  11.220  0.4699  0.9221  0.5294
  980MOL0     N32182   4.130   7.143  11.300  0.4877 -0.1728  0.4479
  980MOL0     C32183   3.999   7.160  11.281  0.7161  0.1826  0.9143
  980MOL0     C32184   3.945   7.223  11.391  0.8919  0.0004  0.1468
  980MOL0     C32185   3.800   7.248  11.415  0.8984  0.6064 -0.4203
  980MOL0     C32186   3.709   7.123  11.411 -0.8365  0.2701  0.1608
  980MOL0     C32187   3.719   7.027  11.533  0.9571  0.8859  0.7900
  980MOL0     C32188   3.694   7.109  11.666 -0.7205  0.3255  0.7246
  980MOL0     O32189   3.674   7.022  11.773 -0.2356 -0.8667  0.0812
  980MOL0     C32190   3.545   6.984  11.793  0.1944  0.6437 -0.7150
  980MOL0     C32191   3.510   6.850  11.764  0.0547 -0.5736  1.1260
  980MOL0     C32192   3.378   6.811  11.784  1.2528 -0.7290 -0.4505
  980MOL0     C32193   3.344   6.676  11.738  1.2067  0.3229  0.3850
  980MOL0     C32194   3.289   6.893  11.854 -0.5025  0.8028  0.2624
  980MOL0     C32195   3.142   6.861  11.875  0.6911 -0.1674 -0.5864
  980MOL0     O32196   3.093   6.917  11.989  0.2623 -0.3927 -0.6019
  980MOL0     C32197   2.956   6.924  12.004  0.9891 -0.4782 -0.4891
  980MOL0     C32198   2.862   6.977  11.904  0.0956  0.9679  0.3931
  980MOL0     C32199   2.728   6.990  11.928 -0.0870  0.0977 -0.3723
  980MOL0     C32200   2.678   6.956  12.057  0.4448  0.7413  0.6541
  980MOL0     O32201   2.539   6.977  12.058 -0.4220  0.6610  0.0679
  980MOL0     C32202   2.460   6.908  12.159  0.6433  0.4823  0.3284
  980MOL0     C32203   2.315   6.924  12.122  0.2476  0.3397  0.1344
  980MOL0     C32204   2.224   6.896  12.245 -0.8126 -1.0511  0.0052
  980MOL0     C32205   2.081   6.897  12.204 -0.0111 -0.5703  0.6455
  980MOL0     C32206   1.990   6.838  12.318 -0.5910 -0.0896 -0.1554
  980MOL0     C32207   1.840   6.869  12.288 -0.3820  0.2517  0.2653
  980MOL0     C32208   1.738   6.813  12.392  0.6599  0.2786  0.1800
  980MOL0     C32209   1.756   6.866  12.530  0.3155 -0.3019  0.3810
  980MOL0    Cl32210   1.625   6.809  12.633  0.5467 -0.0238 -0.0844
  980MOL0     C32211   2.769   6.920  12.155 -0.2633 -0.6000 -0.3043
  980MOL0     C32212   2.904   6.901  12.129  0.1605  0.3473  0.6313
  980MOL0     O32213   3.084   6.797  11.792  0.4249 -1.0280  0.0691
  980MOL0     C32214   3.330   7.019  11.890 -0.8933  0.4594  0.2818
  980MOL0     C32215   3.451   7.059  11.861 -0.5194 -0.7803  0.0025
  980MOL0     N32216   4.051   7.264  11.466  0.3021 -0.1677  0.2398
  980MOL0     N32217   4.162   7.222  11.413 -0.3906  0.0332 -1.5729
  980MOL0     C32218   5.032   7.077  10.831 -0.0061 -0.0060  0.2959
  980MOL0     C32219   5.162   7.032  10.841  0.1420 -1.2890  0.4392
  980MOL0     C32220   5.543   6.825  10.892  0.1935  0.2175 -1.0351
  980MOL0     C32221   5.626   6.792  10.782  0.3053  0.4427 -0.6232
  980MOL0     C32222   5.766   6.769  10.794 -0.4524  0.6829  0.7798
  980MOL0     C32223   5.825   6.791  10.921  1.2679  0.2758 -0.4514
  980MOL0     O32224   5.963   6.776  10.928  0.1561 -0.2270  0.2902
  980MOL0     C32225   6.019   6.711  11.038 -0.4459 -0.2216  0.2790
  980MOL0     C32226   6.167   6.705  11.032 -0.5632  0.1839  0.1105
  980MOL0     C32227   6.212   6.627  10.910  0.3716  0.7174 -0.0772
  980MOL0     C32228   6.365   6.613  10.908  0.2690  0.0923  0.7045
  980MOL0     C32229   6.414   6.531  11.015 -0.2393  0.2842  0.0221
  980MOL0     C32230   6.433   6.470  11.115  0.4906  1.0806 -0.0049
  980MOL0     C32231   5.742   6.832  11.032 -0.3331  0.6667  0.4242
  980MOL0     C32232   5.607   6.846  11.017  0.3351  0.1947 -0.0964
  980MOL0     H32233   5.186   6.847  10.560  0.1134  0.5739 -0.2551
  980MOL0     H32234   4.960   6.920  10.536  1.9655  2.2938 -3.0245
  980MOL0     H32235   4.777   7.028  10.895 -0.2056  0.8657  0.3013
  980MOL0     H32236   4.750   7.195  10.864  1.6125  0.2707 -0.0112
  980MOL0     H32237   4.530   7.136  10.852  0.7237 -0.0528  0.1193
  980MOL0     H32238   4.558   7.098  10.683 -1.3049  2.4154  1.1967
  980MOL0     H32239   4.609   6.860  10.740  1.1231  0.6514 -0.1552
  980MOL0     H32240   4.565   6.885  10.910 -2.2733 -1.6392  0.5882
  980MOL0     H32241   4.376   6.884  10.671  0.5984 -0.8729  0.4200
  980MOL0     H32242   4.381   6.793  10.817  1.1787 -0.3526 -0.3183
  980MOL0     H32243   4.332   7.099  10.822 -1.4246  0.9083  2.6192
  980MOL0     H32244   4.199   6.978  10.812 -0.6333 -0.7900  1.3840
  980MOL0     H32245   4.284   6.872  11.021  1.5135 -0.4242 -1.3532
  980MOL0     H32246   4.415   7.007  11.014  1.5261 -0.2110 -6.1618
  980MOL0     H32247   4.229   7.170  11.063  0.8611 -0.7800 -2.6784
  980MOL0     H32248   4.110   7.054  11.020  0.7235  1.0359 -2.6131
  980MOL0     H32249   4.302   7.044  11.262  0.6302  1.8924  0.0334
  980MOL0     H32250   4.166   6.935  11.231  0.9996  0.4140 -1.7999
  980MOL0     H32251   3.941   7.121  11.198 -0.7279  0.4657  1.7481
  980MOL0     H32252   3.799   7.312  11.504  1.2099  0.4035 -0.2723
  980MOL0     H32253   3.778   7.306  11.325  0.4980 -0.5219 -1.0692
  980MOL0     H32254   3.722   7.079  11.311 -0.3737  2.8524 -0.9963
  980MOL0     H32255   3.604   7.154  11.414 -1.3496 -1.1831 -1.4035
  980MOL0     H32256   3.819   6.983  11.533  2.4339  4.0000 -0.5673
  980MOL0     H32257   3.656   6.938  11.527  2.5058 -0.3051  1.5271
  980MOL0     H32258   3.611   7.176  11.641 -1.3020  0.1511  2.0949
  980MOL0     H32259   3.787   7.164  11.675 -0.1612 -0.3174 -0.7950
  980MOL0     H32260   3.581   6.791  11.706  0.1216 -0.0879  0.6949
  980MOL0     H32261   3.428   6.612  11.708  0.7822  0.8553 -2.2230
  980MOL0     H32262   3.290   6.616  11.812  0.4215 -0.8629 -1.0852
  980MOL0     H32263   3.281   6.690  11.649  0.7009 -0.4463  0.6171
  980MOL0     H32264   2.899   6.997  11.805  2.2472  1.4474  1.2392
  980MOL0     H32265   2.647   7.029  11.867 -2.7514 -1.3783  1.9517
  980MOL0     H32266   2.486   6.802  12.157 -1.3687 -0.0949  1.9763
  980MOL0     H32267   2.480   6.958  12.254  0.4231  0.0850  0.5825
  980MOL0     H32268   2.312   7.026  12.082  0.4277  0.3034  0.0287
  980MOL0     H32269   2.296   6.853  12.041 -2.0055  1.7492 -0.6529
  980MOL0     H32270   2.232   6.965  12.329  0.5706  0.3675 -1.2302
  980MOL0     H32271   2.249   6.799  12.289 -0.8399 -0.3387  1.6565
  980MOL0     H32272   2.060   7.001  12.180  1.2294 -0.9913 -2.9370
  980MOL0     H32273   2.071   6.828  12.119  2.6143 -0.3285  0.0482
  980MOL0     H32274   2.013   6.896  12.408 -0.8533  1.5974 -1.1314
  980MOL0     H32275   1.997   6.729  12.323  0.2194 -0.3004 -3.3845
  980MOL0     H32276   1.818   6.976  12.289 -0.7684  0.1982 -0.8634
  980MOL0     H32277   1.828   6.832  12.186 -0.0714 -3.8222  1.5142
  980MOL0     H32278   1.745   6.704  12.400  3.4791  0.4776  2.0009
  980MOL0     H32279   1.638   6.836  12.353  0.7971 -1.9084 -1.6314
  980MOL0     H32280   1.774   6.974  12.540  0.0787 -0.3460  1.3515
  980MOL0     H32281   1.850   6.820  12.559  1.3782  1.1303 -0.6425
  980MOL0     H32282   2.732   6.919  12.257 -0.3490 -0.6663 -0.3351
  980MOL0     H32283   2.966   6.861  12.209 -0.6599 -0.1526  1.0279
  980MOL0     H32284   3.271   7.090  11.948  0.1824  1.3248  0.3406
  980MOL0     H32285   3.484   7.158  11.889  0.6593  0.2502 -4.2965
  980MOL0     H32286   4.988   7.138  10.909 -0.7502  2.6009 -2.0074
  980MOL0     H32287   5.222   7.064  10.925 -1.1377 -1.1468  1.3386
  980MOL0     H32288   5.581   6.769  10.686  0.6846 -3.0511 -0.1012
  980MOL0     H32289   5.832   6.728  10.719 -1.3802 -0.2505  0.4532
  980MOL0     H32290   5.992   6.771  11.126  1.5124  0.8392  0.2055
  980MOL0     H32291   5.977   6.611  11.051  1.2839 -1.1503 -0.8925
  980MOL0     H32292   6.213   6.656  11.119  0.8274  0.2778 -0.5455
  980MOL0     H32293   6.204   6.805  11.009  0.5927 -0.3532 -0.4116
  980MOL0     H32294   6.182   6.688  10.824  0.9128  1.2578  0.1121
  980MOL0     H32295   6.154   6.534  10.914 -3.1675  2.7300  0.1390
  980MOL0     H32296   6.414   6.710  10.899  0.2607 -0.0082 -0.5564
  980MOL0     H32297   6.391   6.562  10.814  2.8034  0.6404  1.0314
  980MOL0     H32298   6.437   6.402  11.198 -2.5898  0.8604  0.0854
  980MOL0     H32299   5.789   6.829  11.130  3.5706  0.4252 -1.2693
  980MOL0     H32300   5.549   6.878  11.103  1.5354  0.1941  0.7378
  981MOL0     O32301   6.112   8.023   6.165  0.2876 -0.0142  0.1380
  981MOL0     C32302   6.201   8.102   6.133 -1.0450  1.0189 -0.3060
  981MOL0     O32303   6.184   8.217   6.076  0.2724 -0.0270  0.2636
  981MOL0     C32304   6.062   8.274   6.046  0.9114  0.1618  0.1963
  981MOL0     C32305   6.059   8.415   6.045 -0.1463 -0.0984  0.3589
  981MOL0     C32306   5.959   8.483   5.981 -0.8039  0.2438 -0.1836
  981MOL0     C32307   5.849   8.417   5.922 -0.6010  0.5633  0.7004
  981MOL0     O32308   5.740   8.473   5.853 -0.2281  0.0862  0.6032
  981MOL0     C32309   5.747   8.617   5.851 -0.6074 -0.4764 -0.8046
  981MOL0     C32310   5.652   8.663   5.735  0.2775  0.4561 -0.0235
  981MOL0     C32311   5.511   8.596   5.731  0.8408  0.4646 -0.4608
  981MOL0     C32312   5.417   8.646   5.831  0.6688 -0.5018  0.1730
  981MOL0     C32313   5.279   8.582   5.825  0.8038  0.9897  0.3055
  981MOL0     C32314   5.201   8.616   5.699  0.0215 -0.7238 -0.2797
  981MOL0     C32315   5.055   8.585   5.705 -0.2609  0.4753  0.0245
  981MOL0     C32316   5.010   8.580   5.558  0.7807 -0.2933  0.8432
  981MOL0     N32317   4.879   8.520   5.541 -0.1362  0.1120 -0.1960
  981MOL0     C32318   4.833   8.437   5.439 -0.6623 -0.0690 -0.9722
  981MOL0     C32319   4.694   8.426   5.458  0.2753 -0.1445  0.4546
  981MOL0     C32320   4.606   8.339   5.369 -0.8086  0.7770 -0.4831
  981MOL0     C32321   4.536   8.224   5.438  0.0459  0.4607  0.4119
  981MOL0     C32322   4.403   8.252   5.510 -0.3451  0.5339 -0.1022
  981MOL0     C32323   4.304   8.313   5.414 -0.2359  0.3338 -0.1796
  981MOL0     O32324   4.163   8.288   5.435  0.0290 -0.6316  0.2895
  981MOL0     C32325   4.110   8.168   5.406 -0.6201 -0.0030 -0.4385
  981MOL0     C32326   3.969   8.158   5.406  0.9639  0.3308  0.7175
  981MOL0     C32327   3.902   8.044   5.367  0.4111  0.4384  0.6869
  981MOL0     C32328   3.753   8.042   5.367  1.1494  0.2357 -0.1973
  981MOL0     C32329   3.977   7.924   5.326  0.5323 -0.5050 -0.0165
  981MOL0     C32330   3.922   7.785   5.281  1.0375  0.5877 -0.6051
  981MOL0     O32331   3.971   7.729   5.174 -0.2049  0.5241  0.3220
  981MOL0     C32332   4.001   7.804   5.059 -1.0884 -0.2869 -0.6455
  981MOL0     C32333   4.118   7.774   4.990 -0.5732  0.4911 -0.7954
  981MOL0     C32334   4.145   7.848   4.878 -0.2383  0.1664  0.1921
  981MOL0     C32335   4.048   7.932   4.820 -0.0126 -0.3246 -1.2211
  981MOL0     O32336   4.058   8.011   4.715 -0.0784 -0.8908  1.1289
  981MOL0     C32337   4.127   7.961   4.603 -0.7163 -0.9204  0.8857
  981MOL0     C32338   4.033   7.902   4.505  0.1196  0.2255  0.4279
  981MOL0     C32339   3.959   8.012   4.427 -0.3350  0.5126  0.3083
  981MOL0     C32340   3.817   7.979   4.382  0.8693 -0.0142 -0.7718
  981MOL0     C32341   3.817   7.876   4.264  0.2771  0.0849  0.3673
  981MOL0     C32342   3.680   7.838   4.227 -0.1193 -0.1749 -0.3700
  981MOL0     C32343   3.665   7.760   4.100  0.5918  0.0083  0.0537
  981MOL0     C32344   3.545   7.655   4.100 -0.4427  0.4373 -0.7522
  981MOL0    Cl32345   3.569   7.536   4.231  0.3426  0.2670 -0.0283
  981MOL0     C32346   3.923   7.943   4.885 -0.5340 -0.5227 -0.6270
  981MOL0     C32347   3.898   7.872   5.001 -0.6346  1.1003 -0.1477
  981MOL0     O32348   3.831   7.732   5.351 -1.3886  0.8674 -0.5351
  981MOL0     C32349   4.116   7.938   5.328  0.6315  1.0126  0.3553
  981MOL0     C32350   4.186   8.055   5.359 -0.3763 -0.0373 -0.3610
  981MOL0     N32351   4.655   8.502   5.563 -0.0437 -0.3586  0.3353
  981MOL0     N32352   4.760   8.563   5.606 -0.3413 -0.0866  0.3587
  981MOL0     C32353   5.846   8.276   5.936 -0.3008 -0.4988 -0.3177
  981MOL0     C32354   5.952   8.208   5.987  0.4261  0.0475 -0.7233
  981MOL0     C32355   6.344   8.052   6.156  0.3893  0.1511  0.2732
  981MOL0     C32356   6.449   8.098   6.076 -0.5167  0.2067 -0.1844
  981MOL0     C32357   6.588   8.058   6.095  0.5805  0.3295 -0.6735
  981MOL0     C32358   6.620   7.979   6.197  0.7421  0.6221 -0.3029
  981MOL0     O32359   6.752   7.943   6.224 -0.6820 -0.0231 -0.6789
  981MOL0     C32360   6.849   8.042   6.266  0.2702  0.0318 -0.7179
  981MOL0     C32361   6.797   8.118   6.382  0.0633 -0.0329 -0.4545
  981MOL0     C32362   6.788   8.042   6.510 -0.7109  0.1225 -0.0991
  981MOL0     C32363   6.750   8.123   6.638 -0.2826  0.2825  0.4827
  981MOL0     C32364   6.861   8.212   6.676  0.5594 -0.3590 -0.3634
  981MOL0     C32365   6.949   8.282   6.706 -0.6406 -0.3803 -0.2492
  981MOL0     C32366   6.517   7.934   6.286  0.9425  0.8703  0.1358
  981MOL0     C32367   6.380   7.967   6.262  0.8029  0.0391 -0.0783
  981MOL0     H32368   6.150   8.464   6.079 -0.6460  0.7085  0.5762
  981MOL0     H32369   5.966   8.590   5.991 -1.2338  0.1364  1.5371
  981MOL0     H32370   5.719   8.664   5.946 -1.7175  0.3563 -1.5100
  981MOL0     H32371   5.847   8.653   5.824 -1.2753  1.5236 -0.7582
  981MOL0     H32372   5.655   8.772   5.731 -0.7884  0.5378  0.8762
  981MOL0     H32373   5.708   8.624   5.650  2.0792 -1.8052  2.0598
  981MOL0     H32374   5.465   8.626   5.637 -1.9051  0.8298  0.9016
  981MOL0     H32375   5.520   8.487   5.736  0.7513  0.4999  1.2605
  981MOL0     H32376   5.460   8.630   5.930  1.2235 -0.9177 -0.1317
  981MOL0     H32377   5.409   8.754   5.810  0.7390 -0.5461 -0.0861
  981MOL0     H32378   5.287   8.473   5.830 -2.1231  0.6956  0.6793
  981MOL0     H32379   5.220   8.609   5.914 -1.0264 -4.1034  0.9567
  981MOL0     H32380   5.219   8.722   5.678  1.5648 -0.1237  3.3535
  981MOL0     H32381   5.244   8.557   5.618  0.2722 -0.0081 -0.6770
  981MOL0     H32382   5.040   8.493   5.761 -0.1779 -0.3788 -1.3217
  981MOL0     H32383   4.987   8.662   5.743  0.7430 -0.0526  3.1802
  981MOL0     H32384   5.081   8.533   5.489  1.2722 -0.2474  1.3102
  981MOL0     H32385   5.001   8.684   5.524  1.8651 -0.7350 -0.8959
  981MOL0     H32386   4.900   8.382   5.374  0.7292  0.9061 -0.4028
  981MOL0     H32387   4.533   8.410   5.329 -0.4788 -0.2244 -3.0507
  981MOL0     H32388   4.674   8.302   5.291  1.8087 -2.1904  2.8673
  981MOL0     H32389   4.599   8.176   5.514 -1.6254 -2.5172  0.0711
  981MOL0     H32390   4.519   8.147   5.362 -0.5350  0.3404  0.6600
  981MOL0     H32391   4.429   8.321   5.591  0.8988 -0.1920  0.1346
  981MOL0     H32392   4.363   8.158   5.548  0.9628  0.4414  1.1089
  981MOL0     H32393   4.324   8.287   5.310 -0.1689 -0.8935  0.1213
  981MOL0     H32394   4.307   8.422   5.407 -1.5345  0.3998  0.0418
  981MOL0     H32395   3.899   8.239   5.424 -0.7387 -0.9805  0.2384
  981MOL0     H32396   3.719   7.981   5.282  2.2883 -0.1583 -0.3974
  981MOL0     H32397   3.705   8.005   5.458 -2.0943  2.1136 -0.9696
  981MOL0     H32398   3.703   8.137   5.344 -1.0195 -1.1930 -1.8160
  981MOL0     H32399   4.184   7.702   5.037 -2.7779 -1.3648 -0.3885
  981MOL0     H32400   4.243   7.832   4.834 -0.0370 -0.6131  0.8997
  981MOL0     H32401   4.180   8.044   4.556 -1.7782 -1.2571 -0.9933
  981MOL0     H32402   4.199   7.883   4.630  0.7654  1.0842  3.1097
  981MOL0     H32403   4.100   7.849   4.436  0.4837  1.3445 -0.0930
  981MOL0     H32404   3.964   7.839   4.561  1.0999 -0.1568  1.2451
  981MOL0     H32405   4.021   8.041   4.342 -0.3166 -0.2005  0.0723
  981MOL0     H32406   3.951   8.098   4.494  1.4228  0.0415  1.1939
  981MOL0     H32407   3.758   7.941   4.466  0.3564 -0.0562 -1.1484
  981MOL0     H32408   3.778   8.075   4.348  2.9199  2.0572  2.2067
  981MOL0     H32409   3.874   7.793   4.306  2.5611  1.9018  1.0539
  981MOL0     H32410   3.877   7.905   4.177  2.2252  0.8303  1.8958
  981MOL0     H32411   3.628   7.789   4.310 -4.6285  1.6123 -1.8643
  981MOL0     H32412   3.622   7.930   4.213 -1.6921 -0.1890  4.2563
  981MOL0     H32413   3.760   7.711   4.076  1.1263  1.6557 -1.3324
  981MOL0     H32414   3.649   7.837   4.024  2.4643  0.4573  0.0662
  981MOL0     H32415   3.526   7.607   4.003  2.1994  2.4807 -2.4626
  981MOL0     H32416   3.454   7.710   4.124 -1.0559 -1.8985  3.0241
  981MOL0     H32417   3.845   8.007   4.845 -2.7055 -2.1882  0.7435
  981MOL0     H32418   3.806   7.886   5.057  0.3948  4.3977  0.9041
  981MOL0     H32419   4.179   7.854   5.303  1.5654  1.6763  0.4180
  981MOL0     H32420   4.295   8.059   5.352 -0.4985  1.6910 -3.0492
  981MOL0     H32421   5.756   8.226   5.901 -1.4656  0.5219  1.0671
  981MOL0     H32422   5.934   8.101   5.983 -0.8732  0.0039  2.8390
  981MOL0     H32423   6.433   8.151   5.983  0.3896 -0.1828 -0.5699
  981MOL0     H32424   6.667   8.107   6.040 -0.1272 -0.5955 -2.5978
  981MOL0     H32425   6.941   7.987   6.289  0.6691  0.1550 -1.9130
  981MOL0     H32426   6.870   8.107   6.180 -1.6586  0.2844 -1.0300
  981MOL0     H32427   6.712   8.179   6.351  0.1814 -0.6352 -2.0499
  981MOL0     H32428   6.875   8.193   6.398 -1.9833  1.9132  0.9470
  981MOL0     H32429   6.873   7.974   6.525 -1.9113 -1.6501 -1.0419
  981MOL0     H32430   6.711   7.966   6.496 -0.3425 -0.2819  0.0311
  981MOL0     H32431   6.731   8.048   6.716 -1.1851  0.0132  0.0237
  981MOL0     H32432   6.659   8.178   6.614  0.1686  0.9987  0.4117
  981MOL0     H32433   7.018   8.352   6.750 -1.6635 -0.1177  0.9845
  981MOL0     H32434   6.547   7.866   6.365  1.9690 -0.6814 -1.4956
  981MOL0     H32435   6.306   7.926   6.330 -0.6765 -1.5407 -2.4570
  982MOL0     O32436   0.877   4.346   7.801  0.3294  0.3010 -0.7300
  982MOL0     C32437   0.921   4.321   7.915  0.6920 -0.1154 -0.9717
  982MOL0     O32438   0.847   4.318   8.027  0.7987 -0.3907  0.1797
  982MOL0     C32439   0.709   4.332   8.011  0.1060  0.0796  0.0803
  982MOL0     C32440   0.622   4.252   7.942  0.4960  0.0547 -0.0785
  982MOL0     C32441   0.485   4.274   7.927 -0.4565 -0.5065  0.6371
  982MOL0     C32442   0.433   4.385   7.985  0.3277  0.0807  1.0107
  982MOL0     O32443   0.298   4.413   7.954 -0.3666  0.1250  0.4920
  982MOL0     C32444   0.224   4.447   8.069 -0.1633 -0.5297  0.0127
  982MOL0     C32445   0.073   4.448   8.039  1.0046  0.8436  0.0408
  982MOL0     C32446   0.018   4.313   8.081 -0.3612  0.5083  0.0689
  982MOL0     C32447  -0.128   4.296   8.045 -0.5028  0.0918  0.1687
  982MOL0     C32448  -0.158   4.150   8.065  0.6236  0.9708 -0.0999
  982MOL0     C32449  -0.311   4.124   8.048  0.0051 -0.0459 -0.0857
  982MOL0     C32450  -0.312   3.973   8.068  1.2450 -0.2151  0.7614
  982MOL0     C32451  -0.461   3.909   8.060 -0.5756 -0.2740  0.4116
  982MOL0     N32452  -0.541   3.938   7.938 -0.1307 -0.4041  1.4213
  982MOL0     C32453  -0.547   3.856   7.830 -0.8997 -0.2675 -0.1698
  982MOL0     C32454  -0.643   3.919   7.750  0.3727  0.9391  0.4476
  982MOL0     C32455  -0.671   3.890   7.608 -0.1597  0.5119 -1.1274
  982MOL0     C32456  -0.809   3.817   7.607 -0.5305  0.3201 -0.7881
  982MOL0     C32457  -0.853   3.788   7.463 -0.5093 -0.3761  0.1001
  982MOL0     C32458  -0.996   3.727   7.448  0.6271  0.3090  0.1968
  982MOL0     O32459  -1.094   3.828   7.450  0.3639 -0.1414  0.0620
  982MOL0     C32460  -1.224   3.781   7.451 -0.8605 -0.6975 -0.7768
  982MOL0     C32461  -1.265   3.658   7.427 -0.6839 -0.1435  0.3991
  982MOL0     C32462  -1.397   3.616   7.415 -0.4778 -0.8053  0.1943
  982MOL0     C32463  -1.428   3.477   7.371 -0.3109  0.4333 -0.6381
  982MOL0     C32464  -1.493   3.705   7.439  1.2018  0.3254 -0.6272
  982MOL0     C32465  -1.644   3.669   7.438 -0.0572  0.2382 -0.2766
  982MOL0     O32466  -1.697   3.593   7.337  0.7585 -0.3057 -0.3888
  982MOL0     C32467  -1.828   3.556   7.336  0.4564 -0.3946 -1.1714
  982MOL0     C32468  -1.842   3.431   7.261  0.3272 -0.3602  0.3474
  982MOL0     C32469  -1.966   3.370   7.257  1.1069 -0.1573  1.0362
  982MOL0     C32470  -2.079   3.439   7.321 -0.0119  0.8997  0.4396
  982MOL0     O32471  -2.201   3.380   7.328  0.4427 -0.0096  0.2810
  982MOL0     C32472  -2.206   3.243   7.372  0.1447 -0.0033  0.1223
  982MOL0     C32473  -2.292   3.176   7.265  0.3333 -0.4597 -0.2270
  982MOL0     C32474  -2.435   3.193   7.299 -0.1597 -0.4478  0.1450
  982MOL0     C32475  -2.511   3.133   7.178  0.3799 -0.7241  0.1647
  982MOL0     C32476  -2.664   3.153   7.189  0.3447  0.1060 -0.2478
  982MOL0     C32477  -2.743   3.078   7.297  0.0779 -0.1895  0.2043
  982MOL0     C32478  -2.895   3.076   7.295 -0.4927  0.5125 -0.2824
  982MOL0     C32479  -2.964   3.203   7.333  0.2746 -0.4980  0.7199
  982MOL0    Cl32480  -2.942   3.239   7.505  0.1998  0.0874  0.0713
  982MOL0     C32481  -2.067   3.567   7.372  0.4736 -0.3697 -0.0677
  982MOL0     C32482  -1.938   3.630   7.376  0.2264  0.7196 -0.1360
  982MOL0     O32483  -1.716   3.720   7.527 -0.2223 -0.1661  0.4216
  982MOL0     C32484  -1.464   3.830   7.496 -0.7431  0.1524 -0.2453
  982MOL0     C32485  -1.323   3.868   7.492  0.2799 -0.2433 -0.2727
  982MOL0     N32486  -0.695   4.029   7.818 -0.6537 -0.0261 -0.2916
  982MOL0     N32487  -0.630   4.049   7.927 -0.1507 -0.6869 -0.5229
  982MOL0     C32488   0.521   4.474   8.050  0.0344 -0.2952 -0.1399
  982MOL0     C32489   0.654   4.449   8.068 -0.3414  0.4425 -0.4571
  982MOL0     C32490   1.062   4.300   7.937  0.6214 -0.5477 -0.6181
  982MOL0     C32491   1.146   4.286   7.824 -0.4109 -0.5467  0.2764
  982MOL0     C32492   1.283   4.275   7.845 -0.8151 -0.0671  0.3774
  982MOL0     C32493   1.339   4.283   7.973 -0.9349  0.0307 -0.3541
  982MOL0     O32494   1.476   4.290   7.993  0.5654 -0.0543 -0.0094
  982MOL0     C32495   1.533   4.170   8.045 -0.6923  1.1121 -0.4037
  982MOL0     C32496   1.662   4.151   7.977 -0.1697 -0.8106 -0.7658
  982MOL0     C32497   1.725   4.026   8.035 -0.1195  0.1411 -0.1248
  982MOL0     C32498   1.864   3.996   7.986  0.1827 -0.1192 -0.4745
  982MOL0     C32499   1.976   4.079   8.037  0.0499 -0.3479  0.3597
  982MOL0     C32500   2.080   4.133   8.089 -0.3837 -0.5678 -0.2484
  982MOL0     C32501   1.258   4.292   8.083 -0.6917 -1.8083  0.2248
  982MOL0     C32502   1.120   4.301   8.068  0.6249  0.3936  0.0506
  982MOL0     H32503   0.652   4.159   7.895 -0.1285 -0.6892  0.9613
  982MOL0     H32504   0.422   4.211   7.865  0.4253 -1.1227  0.3412
  982MOL0     H32505   0.243   4.380   8.153 -0.2534  1.9261  2.0990
  982MOL0     H32506   0.251   4.547   8.105 -0.3749  0.5490 -2.5822
  982MOL0     H32507   0.027   4.529   8.097 -0.2708 -1.2333  2.0831
  982MOL0     H32508   0.053   4.469   7.934  0.6149 -3.0624 -0.8115
  982MOL0     H32509   0.073   4.233   8.031  0.1462 -0.2524  1.7679
  982MOL0     H32510   0.034   4.301   8.189 -2.2691  0.2508  0.3559
  982MOL0     H32511  -0.190   4.368   8.100 -0.6884  0.0164  0.0594
  982MOL0     H32512  -0.152   4.340   7.947  0.0282  0.4744  0.2068
  982MOL0     H32513  -0.096   4.092   7.995  2.5167 -0.7836  2.7789
  982MOL0     H32514  -0.135   4.125   8.169 -0.1545 -2.7151 -0.6590
  982MOL0     H32515  -0.373   4.173   8.123  0.9105 -1.4605  1.6454
  982MOL0     H32516  -0.355   4.142   7.949  0.4587 -1.2458 -0.5243
  982MOL0     H32517  -0.259   3.924   7.985 -1.5052 -2.8406  0.3720
  982MOL0     H32518  -0.266   3.933   8.159 -1.9522 -0.6722  2.3152
  982MOL0     H32519  -0.515   3.945   8.148  0.7547 -0.1389  1.1804
  982MOL0     H32520  -0.451   3.800   8.062  0.8970 -0.1770 -0.3913
  982MOL0     H32521  -0.486   3.767   7.815 -0.5183 -0.7192  3.3584
  982MOL0     H32522  -0.681   3.986   7.557  0.6027  1.2661  0.1214
  982MOL0     H32523  -0.591   3.828   7.567  0.6257  1.6137 -1.3083
  982MOL0     H32524  -0.898   3.867   7.647 -2.1876 -2.7320 -0.3571
  982MOL0     H32525  -0.800   3.717   7.650 -2.1165 -0.2363 -1.6450
  982MOL0     H32526  -0.790   3.707   7.424 -1.5023 -0.2478 -1.9351
  982MOL0     H32527  -0.845   3.866   7.387  0.4873 -1.3012 -0.7814
  982MOL0     H32528  -1.012   3.653   7.527  0.6203  2.1612  2.0189
  982MOL0     H32529  -1.006   3.678   7.351 -0.6292 -1.1348  1.0140
  982MOL0     H32530  -1.195   3.579   7.402  0.2122  0.7645  0.0041
  982MOL0     H32531  -1.493   3.477   7.282  1.0380  0.3381 -1.6511
  982MOL0     H32532  -1.340   3.419   7.343 -1.2502 -1.3651 -0.0183
  982MOL0     H32533  -1.481   3.421   7.449  3.1022 -2.7528 -0.3723
  982MOL0     H32534  -1.748   3.381   7.240  0.3667 -0.1740  0.0854
  982MOL0     H32535  -1.975   3.276   7.203  0.7967  0.1385  0.5701
  982MOL0     H32536  -2.116   3.181   7.365 -0.0613 -0.2500 -0.3523
  982MOL0     H32537  -2.246   3.242   7.474 -0.9530 -1.0392 -0.2978
  982MOL0     H32538  -2.275   3.226   7.170  2.1375  1.1085  0.8554
  982MOL0     H32539  -2.265   3.070   7.257  2.4722  0.1426 -2.0416
  982MOL0     H32540  -2.451   3.301   7.306  2.6182 -0.0596  2.2311
  982MOL0     H32541  -2.469   3.155   7.396  1.5873  0.6998  1.2696
  982MOL0     H32542  -2.473   3.171   7.083  1.3564 -0.9488  0.4570
  982MOL0     H32543  -2.483   3.028   7.173  2.3731 -0.1726 -1.8371
  982MOL0     H32544  -2.708   3.117   7.096 -4.1681  2.8840  0.4744
  982MOL0     H32545  -2.686   3.260   7.194 -3.2288 -0.5629  1.3081
  982MOL0     H32546  -2.705   2.975   7.301  2.3236  0.5411 -0.9861
  982MOL0     H32547  -2.720   3.126   7.393 -2.6850  0.6558  0.5331
  982MOL0     H32548  -2.924   2.997   7.365  1.3016 -2.3003 -2.5261
  982MOL0     H32549  -2.937   3.045   7.199 -1.0758 -0.4573  0.2652
  982MOL0     H32550  -3.066   3.197   7.294  1.3656  0.0161 -2.5253
  982MOL0     H32551  -2.919   3.290   7.285 -1.3164 -1.0471 -1.9944
  982MOL0     H32552  -2.150   3.621   7.416  1.8177 -0.3311  2.6249
  982MOL0     H32553  -1.940   3.726   7.425 -0.3375  1.7918 -2.1445
  982MOL0     H32554  -1.535   3.907   7.522  2.1071  3.4921 -1.4933
  982MOL0     H32555  -1.304   3.972   7.516 -1.3981 -0.4494  2.4094
  982MOL0     H32556   0.480   4.564   8.096  1.4135  0.1887  0.2123
  982MOL0     H32557   0.727   4.513   8.116  1.2724 -1.7934  0.2498
  982MOL0     H32558   1.110   4.297   7.722  0.5122 -0.2837 -0.0262
  982MOL0     H32559   1.341   4.261   7.754  1.4361  0.8215  1.6061
  982MOL0     H32560   1.546   4.185   8.153 -1.5848  2.1419 -0.4178
  982MOL0     H32561   1.469   4.082   8.034  0.7133  0.0690 -0.5342
  982MOL0     H32562   1.722   4.240   7.998  1.1839 -1.7804 -0.4013
  982MOL0     H32563   1.656   4.150   7.868  1.4302 -2.0531 -0.8732
  982MOL0     H32564   1.663   3.940   8.005 -0.9925  0.8586 -0.4139
  982MOL0     H32565   1.728   4.028   8.145 -2.5286 -2.0205  0.1080
  982MOL0     H32566   1.862   4.020   7.879 -1.2236  1.5351 -0.1230
  982MOL0     H32567   1.882   3.889   7.999 -2.4975 -0.5012  0.7892
  982MOL0     H32568   2.163   4.172   8.144 -3.4115  0.5532  4.0851
  982MOL0     H32569   1.309   4.298   8.179 -1.0157 -0.6303  0.3351
  982MOL0     H32570   1.057   4.305   8.156  1.4851 -0.8470  0.7606
  983MOL0     O32571   2.546   6.498   3.946  0.1732 -0.3336 -0.7181
  983MOL0     C32572   2.597   6.602   3.908 -0.6116  0.3985 -0.8236
  983MOL0     O32573   2.531   6.723   3.877 -0.3120 -0.0803 -0.0950
  983MOL0     C32574   2.394   6.740   3.874  0.5388 -0.0977  0.9233
  983MOL0     C32575   2.310   6.632   3.845  0.5012 -0.2134  0.0008
  983MOL0     C32576   2.169   6.643   3.841  0.2006  0.0331  0.0596
  983MOL0     C32577   2.118   6.777   3.852 -0.1507  0.3988  0.3471
  983MOL0     O32578   1.981   6.780   3.828 -0.5212  0.2799  0.1430
  983MOL0     C32579   1.927   6.911   3.800  0.6089  0.2229  0.1968
  983MOL0     C32580   1.775   6.900   3.811 -0.4329  0.3866  0.0958
  983MOL0     C32581   1.717   7.032   3.778 -0.4502 -0.3733  0.0274
  983MOL0     C32582   1.575   7.064   3.836 -0.9455  0.0196  0.0243
  983MOL0     C32583   1.512   7.189   3.771 -0.2293 -0.1606  0.4296
  983MOL0     C32584   1.501   7.182   3.610  0.6351  0.3365 -0.1587
  983MOL0     C32585   1.398   7.086   3.546 -0.0408  1.1941 -0.6575
  983MOL0     C32586   1.270   7.074   3.627 -0.0059 -0.4541 -0.4431
  983MOL0     N32587   1.156   7.026   3.555  0.4275  0.0561 -0.9643
  983MOL0     C32588   1.142   6.901   3.499 -0.0928 -0.1357  0.5408
  983MOL0     C32589   1.009   6.886   3.468 -0.2828  0.4757 -0.1844
  983MOL0     C32590   0.943   6.759   3.419 -0.1937  0.0462  0.2316
  983MOL0     C32591   0.931   6.763   3.267 -0.9215 -0.2540  0.3298
  983MOL0     C32592   0.863   6.889   3.206  0.1872  0.3303  0.2136
  983MOL0     C32593   0.711   6.885   3.231 -0.3105 -0.2444 -0.5249
  983MOL0     O32594   0.656   6.997   3.162 -0.3676 -0.1539 -0.5640
  983MOL0     C32595   0.531   6.968   3.113 -0.3757 -1.0155 -0.1869
  983MOL0     C32596   0.515   6.933   2.983 -0.9086  0.7657 -0.0985
  983MOL0     C32597   0.393   6.887   2.925  0.3049 -0.7895 -0.3192
  983MOL0     C32598   0.379   6.867   2.775  0.0863 -0.1688  0.4362
  983MOL0     C32599   0.273   6.903   3.005 -0.2693 -0.9369 -0.9089
  983MOL0     C32600   0.135   6.871   2.955 -0.0662  0.1364  0.3598
  983MOL0     O32601   0.032   6.958   2.992  0.1923 -0.2752 -0.5715
  983MOL0     C32602  -0.088   6.940   2.929  1.2193  0.4101  0.0689
  983MOL0     C32603  -0.108   6.886   2.799 -0.2859 -0.5483 -0.0704
  983MOL0     C32604  -0.230   6.843   2.741  0.1706 -0.3608 -0.0299
  983MOL0     C32605  -0.345   6.859   2.825  0.0880 -0.7970  1.2956
  983MOL0     O32606  -0.456   6.807   2.768  0.5115  0.4029  0.1282
  983MOL0     C32607  -0.581   6.846   2.816 -0.5560  0.4359 -1.0223
  983MOL0     C32608  -0.671   6.742   2.776 -0.6650 -0.0259  0.7112
  983MOL0     C32609  -0.816   6.766   2.825 -0.8427  0.4779  0.9258
  983MOL0     C32610  -0.921   6.662   2.766  0.3114  0.0015 -0.5223
  983MOL0     C32611  -1.068   6.699   2.793 -0.1676 -0.1860  0.5351
  983MOL0     C32612  -1.161   6.595   2.715 -0.1302  0.3865  0.1382
  983MOL0     C32613  -1.317   6.599   2.749 -0.3229  0.3957  0.0786
  983MOL0     C32614  -1.381   6.742   2.751 -0.5285  0.2926  0.7369
  983MOL0    Cl32615  -1.479   6.776   2.896  0.1824  0.1170 -0.5810
  983MOL0     C32616  -0.329   6.920   2.947 -0.3184  0.4370 -0.3318
  983MOL0     C32617  -0.207   6.953   3.002 -0.3026  0.5416  0.1074
  983MOL0     O32618   0.125   6.767   2.896  0.4340 -0.1027  0.4038
  983MOL0     C32619   0.291   6.943   3.140 -0.6040 -0.2152  0.5195
  983MOL0     C32620   0.413   6.975   3.192 -0.5217  0.0613 -0.0083
  983MOL0     N32621   0.945   7.004   3.505 -0.4451  0.2420 -0.0185
  983MOL0     N32622   1.033   7.082   3.555  0.3261 -0.0099  0.8012
  983MOL0     C32623   2.204   6.889   3.860  0.5767 -0.0468 -0.1337
  983MOL0     C32624   2.341   6.871   3.872 -0.6725 -0.1007  0.3618
  983MOL0     C32625   2.744   6.603   3.896 -0.5520 -0.3631 -0.2754
  983MOL0     C32626   2.830   6.487   3.918 -0.1248 -0.0801  0.3159
  983MOL0     C32627   2.964   6.499   3.892  0.0733  0.6287  0.3191
  983MOL0     C32628   3.029   6.619   3.860 -0.0029 -0.2250  0.0833
  983MOL0     O32629   3.161   6.611   3.840  0.0644  0.2687  0.0275
  983MOL0     C32630   3.223   6.731   3.793 -0.1048 -0.2522  0.4378
  983MOL0     C32631   3.376   6.732   3.809 -0.3788  0.7022  0.1392
  983MOL0     C32632   3.414   6.729   3.958  0.1018 -0.3267 -0.0800
  983MOL0     C32633   3.571   6.732   3.982 -0.3322  0.0464  0.4771
  983MOL0     C32634   3.630   6.865   3.982 -0.8297  0.6082  0.1120
  983MOL0     C32635   3.664   6.981   3.980  1.0147  0.1656  0.6585
  983MOL0     C32636   2.946   6.731   3.854  0.3540  0.5899 -0.2278
  983MOL0     C32637   2.808   6.723   3.868 -0.6130 -0.3205  0.5454
  983MOL0     H32638   2.352   6.535   3.820  1.0852  0.9380 -4.2629
  983MOL0     H32639   2.095   6.568   3.817  0.9399 -0.0674 -2.1906
  983MOL0     H32640   1.950   6.986   3.876 -2.0544  1.3630 -0.0134
  983MOL0     H32641   1.962   6.943   3.702  0.3603 -2.3780 -0.8213
  983MOL0     H32642   1.739   6.826   3.738 -0.2999  1.0079 -0.6092
  983MOL0     H32643   1.744   6.872   3.912  0.3320 -0.1592  0.1844
  983MOL0     H32644   1.771   7.115   3.823 -0.4465 -1.1552  1.5032
  983MOL0     H32645   1.729   7.047   3.670  1.1034  0.5072  0.2955
  983MOL0     H32646   1.510   6.979   3.813 -1.3717  0.9349 -2.4876
  983MOL0     H32647   1.578   7.079   3.944 -0.9618 -0.7578  0.1398
  983MOL0     H32648   1.410   7.199   3.809  1.1711  1.9993  4.1077
  983MOL0     H32649   1.556   7.283   3.805 -2.4260 -0.0812  3.4426
  983MOL0     H32650   1.468   7.284   3.589 -3.6739 -0.2449  2.6467
  983MOL0     H32651   1.597   7.171   3.559  1.1157  3.6787 -0.1943
  983MOL0     H32652   1.376   7.110   3.441 -4.4610  2.6079  0.3620
  983MOL0     H32653   1.446   6.988   3.557 -3.0762 -0.4813 -1.0675
  983MOL0     H32654   1.256   7.178   3.659  3.1337  0.2231 -0.8727
  983MOL0     H32655   1.287   7.013   3.716  0.3705 -0.6310 -0.6319
  983MOL0     H32656   1.216   6.823   3.483 -1.9803 -1.3430 -3.6232
  983MOL0     H32657   1.008   6.679   3.455  3.2070  2.4077 -0.1897
  983MOL0     H32658   0.847   6.741   3.469 -1.8561  0.4926 -2.5441
  983MOL0     H32659   0.880   6.672   3.235  0.2241 -0.2478 -1.6724
  983MOL0     H32660   1.030   6.759   3.221 -0.8673 -0.2956  0.4517
  983MOL0     H32661   0.872   6.889   3.097  0.4625  0.9769  0.2352
  983MOL0     H32662   0.908   6.978   3.250 -0.8971  1.7933 -1.5376
  983MOL0     H32663   0.680   6.897   3.335 -0.9871 -3.0883 -0.3093
  983MOL0     H32664   0.680   6.786   3.197  2.2666 -1.3213  0.0169
  983MOL0     H32665   0.596   6.921   2.913 -1.6863 -0.1863 -0.8608
  983MOL0     H32666   0.320   6.776   2.759  1.2347 -1.0990  1.2207
  983MOL0     H32667   0.333   6.954   2.727  2.4268  0.0883 -1.5368
  983MOL0     H32668   0.478   6.855   2.729  0.1331  2.2906 -0.2197
  983MOL0     H32669  -0.016   6.874   2.743 -0.4098 -0.7055 -0.2407
  983MOL0     H32670  -0.241   6.800   2.642 -3.3048  0.9642 -0.3268
  983MOL0     H32671  -0.584   6.863   2.924 -0.0886  1.9246 -1.2248
  983MOL0     H32672  -0.611   6.938   2.765  0.0041  0.5320 -1.1837
  983MOL0     H32673  -0.661   6.734   2.667  1.0210 -0.2977  0.8628
  983MOL0     H32674  -0.626   6.649   2.813  0.9479  0.4021 -0.0606
  983MOL0     H32675  -0.847   6.865   2.790 -1.7985 -0.4798 -1.1034
  983MOL0     H32676  -0.815   6.764   2.935  0.9710  1.8909  0.9900
  983MOL0     H32677  -0.915   6.663   2.657 -0.9624  0.5242 -0.6017
  983MOL0     H32678  -0.906   6.558   2.797  0.3676 -0.0303 -0.6544
  983MOL0     H32679  -1.090   6.803   2.769  0.6285 -0.0705  0.2919
  983MOL0     H32680  -1.088   6.691   2.900 -1.5503 -1.2652  0.2239
  983MOL0     H32681  -1.156   6.606   2.606  2.1650 -0.5531  0.0965
  983MOL0     H32682  -1.122   6.496   2.740  0.4035  0.0209 -1.9369
  983MOL0     H32683  -1.320   6.538   2.840  0.0633 -2.7098 -1.8523
  983MOL0     H32684  -1.376   6.538   2.681  0.7835 -1.8624  1.0573
  983MOL0     H32685  -1.444   6.748   2.661  0.2572 -1.7188 -0.0099
  983MOL0     H32686  -1.303   6.819   2.747 -0.4859  0.2306 -3.0175
  983MOL0     H32687  -0.419   6.921   3.009  0.9060 -0.0444  1.5395
  983MOL0     H32688  -0.201   6.973   3.108  1.8356  1.3716 -0.1144
  983MOL0     H32689   0.209   6.953   3.210 -0.5328  1.4494  0.4113
  983MOL0     H32690   0.408   6.999   3.298  2.6967 -3.0073  1.0260
  983MOL0     H32691   2.178   6.994   3.866 -2.0660 -0.4192 -2.6379
  983MOL0     H32692   2.400   6.962   3.881 -0.6880 -0.1547  1.1057
  983MOL0     H32693   2.790   6.392   3.953 -2.1422 -0.0058 -1.5873
  983MOL0     H32694   3.029   6.412   3.887  2.8049  2.5614  0.0412
  983MOL0     H32695   3.199   6.745   3.687  0.2212 -1.4279  0.1946
  983MOL0     H32696   3.186   6.819   3.847  1.1051 -0.3325  1.4353
  983MOL0     H32697   3.399   6.831   3.769  2.3784 -0.0326 -0.2641
  983MOL0     H32698   3.420   6.652   3.749 -1.9064  0.4618 -0.7191
  983MOL0     H32699   3.371   6.635   3.995  0.4198 -1.9885 -3.5642
  983MOL0     H32700   3.366   6.817   4.002 -1.3201 -1.8744  1.6176
  983MOL0     H32701   3.609   6.666   3.903 -0.9113 -0.9532  1.0147
  983MOL0     H32702   3.598   6.692   4.080  0.2586  1.7396  1.0347
  983MOL0     H32703   3.696   7.083   3.988 -3.1095  1.8592 -1.3042
  983MOL0     H32704   2.968   6.836   3.833  3.3303  0.3004  0.9690
  983MOL0     H32705   2.752   6.809   3.831  0.0914 -0.1594 -0.1702
  984MOL0     O32706   1.265   5.127   3.873  0.5228  0.0844 -0.2995
  984MOL0     C32707   1.310   5.104   3.986  0.3043  0.3585  0.2385
  984MOL0     O32708   1.255   5.142   4.106 -0.0599  0.1325  0.0277
  984MOL0     C32709   1.135   5.215   4.111 -0.7547  0.8328 -0.8076
  984MOL0     C32710   1.095   5.304   4.003  0.3088 -0.3834 -0.0241
  984MOL0     C32711   0.969   5.371   4.009  0.0806 -0.0807 -0.7034
  984MOL0     C32712   0.881   5.339   4.114  0.1725 -0.1319 -0.5869
  984MOL0     O32713   0.747   5.387   4.136 -0.4761  0.1888  0.1893
  984MOL0     C32714   0.688   5.472   4.031 -0.9516  0.3098 -0.1082
  984MOL0     C32715   0.539   5.458   4.027  0.3048  0.7500 -0.4784
  984MOL0     C32716   0.470   5.313   4.029  0.0034 -0.2231  0.6084
  984MOL0     C32717   0.382   5.285   3.904  0.0476 -0.0273  0.0644
  984MOL0     C32718   0.292   5.154   3.897 -0.0501  0.0330  0.1336
  984MOL0     C32719   0.244   5.117   3.763 -1.5349  0.3418 -0.7185
  984MOL0     C32720   0.141   5.001   3.762 -0.1163 -0.3978 -1.0240
  984MOL0     C32721   0.011   5.039   3.839 -0.4276  0.4935  0.3329
  984MOL0     N32722  -0.080   4.928   3.832  0.2878  0.4921 -0.0667
  984MOL0     C32723  -0.172   4.908   3.733 -0.5448 -0.7555 -0.7841
  984MOL0     C32724  -0.250   4.810   3.779  0.4502  0.9553  0.1685
  984MOL0     C32725  -0.358   4.746   3.690  0.3224 -0.5663 -0.1238
  984MOL0     C32726  -0.468   4.835   3.642 -0.8499 -0.7786  0.0334
  984MOL0     C32727  -0.595   4.771   3.613 -0.2351  0.3158  0.5543
  984MOL0     C32728  -0.675   4.844   3.512  0.3480  0.0879  0.2003
  984MOL0     O32729  -0.802   4.779   3.497  0.5690  0.7793 -0.2581
  984MOL0     C32730  -0.890   4.858   3.428  0.0621  0.6660  0.4693
  984MOL0     C32731  -0.859   4.968   3.347  0.1006  0.1855  0.3283
  984MOL0     C32732  -0.959   5.019   3.273  1.2649 -0.1745 -0.0498
  984MOL0     C32733  -0.922   5.131   3.170 -0.5827  0.4857  0.6620
  984MOL0     C32734  -1.103   4.978   3.285 -0.4460 -0.7631 -0.2254
  984MOL0     C32735  -1.225   5.040   3.213 -0.4386  0.6785  0.3759
  984MOL0     O32736  -1.341   4.991   3.261  0.3192 -0.0994 -1.2004
  984MOL0     C32737  -1.465   5.015   3.205 -0.0073 -0.5432 -0.7482
  984MOL0     C32738  -1.509   5.127   3.132 -0.0661 -0.8775  0.1147
  984MOL0     C32739  -1.640   5.133   3.093  1.5895  0.5180 -0.8612
  984MOL0     C32740  -1.735   5.036   3.134  0.1487 -0.1878  0.0454
  984MOL0     O32741  -1.872   5.048   3.113  0.3660 -0.5094  0.0012
  984MOL0     C32742  -1.925   5.174   3.165  0.2017 -0.5388 -0.1254
  984MOL0     C32743  -2.031   5.245   3.081  0.8149  0.7298  0.1801
  984MOL0     C32744  -2.140   5.148   3.025  0.2118 -0.1605  0.4018
  984MOL0     C32745  -2.287   5.202   3.017 -0.0459 -0.1316  0.1746
  984MOL0     C32746  -2.402   5.098   3.041  0.8658  0.0499  0.0539
  984MOL0     C32747  -2.420   5.015   2.909  0.0867 -0.4977 -0.3070
  984MOL0     C32748  -2.544   4.923   2.905 -0.1485 -0.1459 -0.0756
  984MOL0     C32749  -2.525   4.810   2.797  0.1128 -0.0492  0.3434
  984MOL0    Cl32750  -2.486   4.880   2.634 -0.8622  0.0682 -0.0264
  984MOL0     C32751  -1.692   4.928   3.204 -0.7356  0.4424 -0.7156
  984MOL0     C32752  -1.558   4.920   3.245 -0.6815  0.0575 -0.4775
  984MOL0     O32753  -1.214   5.119   3.120  0.4737  0.4810  0.0190
  984MOL0     C32754  -1.125   4.875   3.379 -0.5215 -0.8011 -0.0685
  984MOL0     C32755  -1.025   4.813   3.445 -0.4341 -0.9751  0.8246
  984MOL0     N32756  -0.200   4.765   3.898  0.0570 -0.3570 -0.0283
  984MOL0     N32757  -0.102   4.847   3.929  1.3132 -0.0238 -1.6347
  984MOL0     C32758   0.921   5.250   4.213 -0.2826 -0.4981 -0.4382
  984MOL0     C32759   1.045   5.191   4.217 -0.4818 -1.2099 -0.0641
  984MOL0     C32760   1.431   5.020   4.010 -0.3014 -0.3435 -0.5102
  984MOL0     C32761   1.463   4.965   4.136  0.3056  0.3213 -0.0196
  984MOL0     C32762   1.586   4.906   4.161  1.1728 -0.1684  0.3523
  984MOL0     C32763   1.673   4.881   4.050 -0.3001  0.1835 -0.3183
  984MOL0     O32764   1.798   4.825   4.063 -0.3752 -0.4827 -0.2692
  984MOL0     C32765   1.846   4.782   4.194 -0.1980 -0.1863  0.6157
  984MOL0     C32766   1.994   4.766   4.206 -0.1791  0.6417  0.1844
  984MOL0     C32767   2.044   4.640   4.135 -0.1047  0.6355 -0.0334
  984MOL0     C32768   2.000   4.507   4.211 -0.6256 -0.3225  0.4377
  984MOL0     C32769   1.940   4.409   4.120  0.5619  0.3593  0.2206
  984MOL0     C32770   1.897   4.308   4.065  0.4988  0.4297 -0.0147
  984MOL0     C32771   1.635   4.922   3.927 -0.6042 -0.5181 -0.2837
  984MOL0     C32772   1.516   4.996   3.904 -0.3511  0.0794 -0.1533
  984MOL0     H32773   1.149   5.340   3.916  0.2366 -3.6966 -1.5859
  984MOL0     H32774   0.948   5.447   3.934  0.8817  0.1640 -0.6903
  984MOL0     H32775   0.717   5.576   4.049  0.2468 -0.3485  2.1532
  984MOL0     H32776   0.728   5.440   3.934 -0.1070  2.2514 -0.4476
  984MOL0     H32777   0.506   5.503   4.121 -1.8621 -1.0309 -0.3071
  984MOL0     H32778   0.496   5.519   3.947 -0.4449 -0.0479 -0.7065
  984MOL0     H32779   0.548   5.237   4.035 -2.4491 -2.8616  1.2037
  984MOL0     H32780   0.405   5.317   4.116 -1.0194 -0.1312 -0.1433
  984MOL0     H32781   0.317   5.372   3.890 -0.9706  0.0854  4.1250
  984MOL0     H32782   0.459   5.278   3.827 -0.8684 -3.1188 -0.7321
  984MOL0     H32783   0.358   5.074   3.933 -0.7124 -0.7840 -0.4239
  984MOL0     H32784   0.207   5.178   3.961 -0.8091 -2.0862  0.0142
  984MOL0     H32785   0.186   5.199   3.718 -0.3076  1.8665  0.3567
  984MOL0     H32786   0.331   5.105   3.699 -2.2270  1.1971 -1.8602
  984MOL0     H32787   0.096   4.990   3.663 -2.7078  0.3215 -0.0265
  984MOL0     H32788   0.184   4.906   3.795 -1.0739 -0.8669 -1.0900
  984MOL0     H32789  -0.026   5.131   3.793  1.0122  0.6769 -0.5042
  984MOL0     H32790   0.028   5.068   3.943  2.0154  1.1144 -0.1867
  984MOL0     H32791  -0.164   4.949   3.633  1.4854 -2.1373 -1.2539
  984MOL0     H32792  -0.313   4.701   3.601 -0.4183  0.8994 -1.2902
  984MOL0     H32793  -0.397   4.662   3.748  1.5502 -0.9532  0.1774
  984MOL0     H32794  -0.440   4.895   3.555 -1.3261  0.2773  0.5883
  984MOL0     H32795  -0.489   4.896   3.731  0.9674 -1.7495  1.2032
  984MOL0     H32796  -0.658   4.758   3.701 -2.0234  1.4596 -0.4965
  984MOL0     H32797  -0.577   4.670   3.576  1.5097  1.4276 -1.8592
  984MOL0     H32798  -0.617   4.835   3.420  3.4203  0.2228  2.0100
  984MOL0     H32799  -0.680   4.950   3.537  1.8953  0.1139  0.4767
  984MOL0     H32800  -0.763   5.017   3.331 -0.3714  0.3225 -2.6876
  984MOL0     H32801  -0.948   5.223   3.224 -0.3416  0.4978  0.7608
  984MOL0     H32802  -0.817   5.133   3.140 -0.5983 -5.0441 -0.8885
  984MOL0     H32803  -0.972   5.131   3.073  1.1547  1.3815 -0.2923
  984MOL0     H32804  -1.458   5.220   3.108 -0.0149 -0.9720 -0.1543
  984MOL0     H32805  -1.667   5.228   3.047 -0.1235  0.8044  0.6231
  984MOL0     H32806  -1.978   5.159   3.260 -1.4078 -3.5100 -1.3289
  984MOL0     H32807  -1.839   5.235   3.191  0.2561 -1.6962  2.7749
  984MOL0     H32808  -2.083   5.326   3.133 -2.1387  0.5821 -2.2617
  984MOL0     H32809  -1.975   5.299   3.005  2.3393  3.6204  3.1034
  984MOL0     H32810  -2.143   5.059   3.088  0.7730 -1.5352 -1.4539
  984MOL0     H32811  -2.122   5.121   2.921 -3.0871 -2.1542  0.2238
  984MOL0     H32812  -2.290   5.267   3.105 -1.2712 -2.8545  2.3055
  984MOL0     H32813  -2.308   5.261   2.927 -1.0671 -0.1355  0.4028
  984MOL0     H32814  -2.498   5.145   3.065  0.2428 -1.2989  0.2828
  984MOL0     H32815  -2.376   5.039   3.129 -2.5018  0.3687  1.4443
  984MOL0     H32816  -2.441   5.086   2.829 -4.2025  0.2866  1.2798
  984MOL0     H32817  -2.328   4.959   2.888  1.0625  1.3493 -1.2032
  984MOL0     H32818  -2.623   4.992   2.874  0.7800  0.7160 -0.6014
  984MOL0     H32819  -2.584   4.887   3.000  0.8265 -2.7728 -0.5703
  984MOL0     H32820  -2.621   4.758   2.790  0.3533 -0.2408 -3.5598
  984MOL0     H32821  -2.456   4.730   2.826 -3.0948 -2.3866  2.1865
  984MOL0     H32822  -1.753   4.842   3.232  1.3177 -0.2129  2.3113
  984MOL0     H32823  -1.518   4.831   3.293  0.6383  1.0156  0.2919
  984MOL0     H32824  -1.225   4.844   3.408 -0.0479 -0.0357  2.6128
  984MOL0     H32825  -1.032   4.724   3.507  1.1851 -1.3901  0.4464
  984MOL0     H32826   0.851   5.225   4.292  0.3534 -2.5534 -0.4513
  984MOL0     H32827   1.080   5.133   4.301  1.4120 -0.0643 -0.0033
  984MOL0     H32828   1.390   4.980   4.215 -0.9093  2.4262 -1.4426
  984MOL0     H32829   1.608   4.860   4.257 -4.1648 -2.5265  0.7718
  984MOL0     H32830   1.820   4.860   4.267  0.1774  1.9155 -1.3781
  984MOL0     H32831   1.793   4.691   4.224 -0.7253 -0.3373 -0.7104
  984MOL0     H32832   2.006   4.748   4.313 -3.2618 -0.0752  0.5163
  984MOL0     H32833   2.045   4.857   4.173  1.3706 -0.0459  0.6004
  984MOL0     H32834   2.153   4.642   4.129 -0.0954  1.6368  0.1695
  984MOL0     H32835   2.012   4.646   4.030  0.5325 -2.2201 -0.4664
  984MOL0     H32836   1.945   4.530   4.303 -2.4013  0.4437 -0.7458
  984MOL0     H32837   2.087   4.451   4.245 -2.3808 -1.7982  2.7681
  984MOL0     H32838   1.850   4.223   4.020 -0.4935  0.8083  0.2933
  984MOL0     H32839   1.707   4.890   3.852 -0.4445  1.1503 -0.8757
  984MOL0     H32840   1.512   5.042   3.806  3.6797 -1.9022 -1.4917
  985MOL0     O32841   0.631   2.318   5.840  0.6698 -0.0869 -0.5585
  985MOL0     C32842   0.649   2.203   5.887  0.3190 -0.3392  0.0445
  985MOL0     O32843   0.746   2.114   5.852  0.5167 -0.3564  0.3210
  985MOL0     C32844   0.842   2.163   5.759  0.0730 -0.1540 -0.2236
  985MOL0     C32845   0.860   2.101   5.638 -0.0417  0.1399 -0.3687
  985MOL0     C32846   0.962   2.142   5.559  0.8627  0.5395  0.1146
  985MOL0     C32847   1.046   2.246   5.592  0.2671  0.9135 -0.0648
  985MOL0     O32848   1.149   2.306   5.526 -0.2289 -0.6051  0.2223
  985MOL0     C32849   1.173   2.257   5.391 -0.2486  0.0620 -0.2021
  985MOL0     C32850   1.249   2.131   5.388 -0.1925 -0.3451  0.2146
  985MOL0     C32851   1.399   2.138   5.437  1.0085 -0.4861 -0.2704
  985MOL0     C32852   1.476   2.012   5.398 -0.1245  0.2664  0.1486
  985MOL0     C32853   1.624   2.025   5.421 -0.0100 -0.0492 -1.1306
  985MOL0     C32854   1.685   1.885   5.427 -0.3336  0.1239 -0.3053
  985MOL0     C32855   1.841   1.897   5.457 -0.3587  0.1497 -1.5056
  985MOL0     C32856   1.920   1.956   5.339 -0.4072  0.4389  0.7939
  985MOL0     N32857   2.065   1.938   5.353  0.7186 -0.6454  1.0041
  985MOL0     C32858   2.132   1.825   5.320 -0.1349 -0.2257  0.2797
  985MOL0     C32859   2.258   1.862   5.308 -1.0034 -0.5084 -0.9459
  985MOL0     C32860   2.378   1.773   5.288 -0.0846  0.2401 -0.1725
  985MOL0     C32861   2.384   1.708   5.150  0.0352 -0.6630  0.2390
  985MOL0     C32862   2.378   1.549   5.151 -0.2514  0.5827 -0.7717
  985MOL0     C32863   2.257   1.477   5.218  0.7978 -0.4539 -0.5589
  985MOL0     O32864   2.142   1.521   5.138  0.1086 -0.8248  0.4551
  985MOL0     C32865   2.019   1.510   5.200 -0.6776 -0.8976  0.6797
  985MOL0     C32866   1.993   1.431   5.304  0.4370  0.6908 -0.2884
  985MOL0     C32867   1.868   1.413   5.359 -0.5600  0.1939  1.1605
  985MOL0     C32868   1.858   1.296   5.453 -0.0575 -0.1631  0.9561
  985MOL0     C32869   1.755   1.493   5.309 -0.5566 -1.3187  0.4148
  985MOL0     C32870   1.619   1.482   5.374 -0.8046  0.2897  0.5541
  985MOL0     O32871   1.583   1.389   5.469 -0.0010  0.5289 -0.5249
  985MOL0     C32872   1.454   1.406   5.514 -0.4409 -0.1402  0.3817
  985MOL0     C32873   1.408   1.519   5.590 -0.0010  0.7295  1.0278
  985MOL0     C32874   1.268   1.530   5.607 -0.1979 -0.0170  0.0682
  985MOL0     C32875   1.181   1.446   5.545  0.4638  0.6965 -0.4407
  985MOL0     O32876   1.041   1.475   5.550 -0.1035  0.8753 -0.2720
  985MOL0     C32877   0.944   1.371   5.593 -0.7682 -0.1476 -0.5270
  985MOL0     C32878   0.800   1.394   5.549 -0.5143  0.0395 -0.1725
  985MOL0     C32879   0.775   1.373   5.396  0.0725 -0.1760  0.0106
  985MOL0     C32880   0.632   1.421   5.373  0.3841  0.5973  0.0732
  985MOL0     C32881   0.593   1.378   5.230 -0.3516  0.6912 -0.3320
  985MOL0     C32882   0.447   1.389   5.208 -0.8039  0.2225  0.2455
  985MOL0     C32883   0.395   1.353   5.068  0.3890  0.4948 -0.2940
  985MOL0     C32884   0.236   1.383   5.064 -0.6999 -0.0934 -0.0979
  985MOL0    Cl32885   0.131   1.269   5.158  0.0019 -0.0340 -0.0111
  985MOL0     C32886   1.221   1.335   5.471  0.4314 -0.3277 -0.9443
  985MOL0     C32887   1.359   1.316   5.467 -1.1704 -0.1923 -0.3259
  985MOL0     O32888   1.545   1.568   5.321  1.0875  0.1188 -0.4759
  985MOL0     C32889   1.785   1.567   5.187  0.3444  0.0180 -0.8643
  985MOL0     C32890   1.916   1.578   5.143  0.1408 -0.2203 -0.0303
  985MOL0     N32891   2.269   1.995   5.341  0.6660  0.4678  0.4321
  985MOL0     N32892   2.150   2.040   5.377  0.8675  0.9136  0.2669
  985MOL0     C32893   1.016   2.318   5.710  0.9643  0.3859 -1.0992
  985MOL0     C32894   0.921   2.270   5.794  1.4669 -0.3222 -0.3639
  985MOL0     C32895   0.549   2.162   5.992  0.1377 -0.9880 -0.4942
  985MOL0     C32896   0.516   2.028   6.018 -0.0121  0.4681 -0.1446
  985MOL0     C32897   0.396   1.994   6.094  0.8886 -0.0515  0.3419
  985MOL0     C32898   0.319   2.099   6.146  0.3846  0.0587  0.1729
  985MOL0     O32899   0.194   2.057   6.207  0.1398 -0.3851  0.0861
  985MOL0     C32900   0.115   2.153   6.269 -0.0735 -0.3111 -1.2479
  985MOL0     C32901   0.174   2.186   6.405  0.8594 -0.7697 -0.1928
  985MOL0     C32902   0.076   2.284   6.468  0.1411 -0.8892 -0.1875
  985MOL0     C32903   0.113   2.330   6.612  0.3978 -0.2082  0.2397
  985MOL0     C32904   0.015   2.426   6.673  0.0710 -0.0200 -0.2295
  985MOL0     C32905  -0.076   2.493   6.716 -0.1808 -0.0718  0.2460
  985MOL0     C32906   0.364   2.229   6.145 -0.3344  0.1401  0.1122
  985MOL0     C32907   0.468   2.264   6.061 -0.4160  0.6952 -0.1180
  985MOL0     H32908   0.797   2.017   5.609 -0.8277 -0.6866  3.2867
  985MOL0     H32909   0.984   2.078   5.474  5.6605  1.3277  0.5013
  985MOL0     H32910   1.073   2.254   5.346 -0.7863  2.2258  0.7153
  985MOL0     H32911   1.235   2.335   5.346  1.7399 -0.6367  1.2164
  985MOL0     H32912   1.186   2.056   5.437 -0.1527  1.5064  3.3042
  985MOL0     H32913   1.267   2.112   5.281  0.6818  0.9233  0.1202
  985MOL0     H32914   1.462   2.213   5.389  1.0900 -0.7685 -0.6073
  985MOL0     H32915   1.394   2.150   5.546  1.1835  0.9086 -0.4059
  985MOL0     H32916   1.442   1.928   5.460  1.2340 -0.5723 -0.2028
  985MOL0     H32917   1.445   1.994   5.295 -0.4380 -0.0771  0.3018
  985MOL0     H32918   1.668   2.090   5.345 -1.9385  1.7399 -0.7998
  985MOL0     H32919   1.642   2.073   5.518 -2.5911  0.4029 -0.8172
  985MOL0     H32920   1.637   1.837   5.513 -0.3958  2.8291  1.2976
  985MOL0     H32921   1.675   1.837   5.329 -0.0082  1.6150 -1.1032
  985MOL0     H32922   1.864   1.959   5.543  0.0175 -1.3538 -0.4822
  985MOL0     H32923   1.874   1.799   5.493 -0.4166  0.8570  0.5603
  985MOL0     H32924   1.893   2.061   5.326 -1.5354  0.0021 -0.7872
  985MOL0     H32925   1.889   1.908   5.245  0.6991  2.8125 -0.9120
  985MOL0     H32926   2.087   1.727   5.312  0.2215 -0.2736 -1.5074
  985MOL0     H32927   2.468   1.833   5.306  0.4781 -0.3684 -0.8813
  985MOL0     H32928   2.384   1.695   5.364 -2.2692 -0.0394 -0.2138
  985MOL0     H32929   2.485   1.727   5.112 -0.2928 -2.4114 -1.7599
  985MOL0     H32930   2.320   1.761   5.078  1.1492  2.2084  1.2103
  985MOL0     H32931   2.464   1.512   5.206 -0.6447  0.9150  0.0896
  985MOL0     H32932   2.394   1.514   5.049 -2.4972  0.2417 -1.0650
  985MOL0     H32933   2.252   1.501   5.324 -0.6020  0.5722 -0.8348
  985MOL0     H32934   2.268   1.368   5.218 -0.8173 -0.7194  2.3314
  985MOL0     H32935   2.074   1.384   5.359  1.5253  3.1007  0.3414
  985MOL0     H32936   1.936   1.219   5.457 -0.9267 -1.1063  0.2026
  985MOL0     H32937   1.854   1.336   5.554  1.0160  0.6686  0.6933
  985MOL0     H32938   1.773   1.231   5.430  2.5710 -2.9703 -1.8909
  985MOL0     H32939   1.478   1.593   5.628 -1.2535  1.4845  1.9712
  985MOL0     H32940   1.220   1.607   5.667 -0.8065 -1.9826  2.2898
  985MOL0     H32941   0.982   1.280   5.546  0.5280  0.5901 -0.9461
  985MOL0     H32942   0.952   1.360   5.702 -1.4735 -1.2401 -0.5698
  985MOL0     H32943   0.742   1.327   5.613  1.6637  0.1107  2.0120
  985MOL0     H32944   0.770   1.493   5.587 -2.1510 -0.6326  0.3906
  985MOL0     H32945   0.782   1.265   5.378 -1.6830 -0.8764  2.9235
  985MOL0     H32946   0.852   1.425   5.338 -0.6542 -1.0646 -1.8362
  985MOL0     H32947   0.565   1.367   5.441  2.4842 -2.4824 -0.1017
  985MOL0     H32948   0.618   1.526   5.398  0.3716  0.3981  0.9423
  985MOL0     H32949   0.625   1.277   5.205  0.6456  0.4983  1.5703
  985MOL0     H32950   0.651   1.439   5.160  0.9071 -1.5639 -1.3659
  985MOL0     H32951   0.395   1.338   5.288  1.7839 -1.2436  1.1033
  985MOL0     H32952   0.430   1.496   5.223 -1.5084  0.4668 -1.9257
  985MOL0     H32953   0.399   1.248   5.041  0.6287  0.0702  1.2756
  985MOL0     H32954   0.442   1.413   4.990  0.3016  1.8875  0.6751
  985MOL0     H32955   0.191   1.372   4.965  3.6506  1.5027 -2.5329
  985MOL0     H32956   0.215   1.488   5.087 -2.1335  0.0703 -1.8831
  985MOL0     H32957   1.159   1.272   5.408  2.0333 -3.0952  0.1001
  985MOL0     H32958   1.398   1.236   5.405  0.6069  0.3096  0.0926
  985MOL0     H32959   1.706   1.624   5.138 -1.6994 -0.9683  1.0905
  985MOL0     H32960   1.939   1.634   5.053 -1.7684  1.4660  0.4654
  985MOL0     H32961   1.060   2.413   5.736 -2.1775  1.7820 -0.3685
  985MOL0     H32962   0.905   2.313   5.893  0.4721  0.1042 -0.7025
  985MOL0     H32963   0.580   1.946   5.987 -1.3674 -0.5390 -0.3560
  985MOL0     H32964   0.356   1.895   6.112 -0.6732  0.2317 -1.3479
  985MOL0     H32965   0.108   2.247   6.213 -0.2591 -0.0133 -0.7336
  985MOL0     H32966   0.018   2.102   6.275  0.6384 -2.1340 -3.7481
  985MOL0     H32967   0.275   2.224   6.387 -0.1098  1.5479 -1.0688
  985MOL0     H32968   0.186   2.096   6.467 -1.4070 -0.6087  0.5567
  985MOL0     H32969  -0.021   2.235   6.477  0.8130 -1.9472  2.2584
  985MOL0     H32970   0.064   2.374   6.406 -2.5676 -1.4116 -0.5519
  985MOL0     H32971   0.210   2.377   6.592  0.5838 -1.0051 -0.8192
  985MOL0     H32972   0.127   2.243   6.675 -0.4711  0.0043  0.7542
  985MOL0     H32973  -0.150   2.568   6.734 -0.2198  1.2104 -4.1210
  985MOL0     H32974   0.309   2.311   6.190  0.0072  0.1670  0.4840
  985MOL0     H32975   0.484   2.370   6.045  1.2483  0.4268 -0.3861
  986MOL0     O32976   4.985   8.488   6.029 -0.0341  0.5664 -1.0822
  986MOL0     C32977   4.955   8.381   6.076 -0.3324 -0.6549 -0.2648
  986MOL0     O32978   4.829   8.340   6.097 -0.4803  0.4764 -0.4111
  986MOL0     C32979   4.727   8.419   6.049  0.4959  0.3442 -0.5694
  986MOL0     C32980   4.615   8.405   6.129 -0.2773 -0.6906 -0.2114
  986MOL0     C32981   4.489   8.442   6.075  0.7433 -0.5963 -0.2854
  986MOL0     C32982   4.479   8.514   5.959 -0.6093  0.5730 -0.3855
  986MOL0     O32983   4.358   8.557   5.907  1.2725 -0.4974  1.0300
  986MOL0     C32984   4.330   8.484   5.787 -0.5702  0.7237 -0.2249
  986MOL0     C32985   4.180   8.443   5.796 -0.9417 -0.7886 -0.0066
  986MOL0     C32986   4.141   8.346   5.901  0.8350  0.4708 -0.2179
  986MOL0     C32987   4.206   8.205   5.921  0.1833 -0.3671  0.4386
  986MOL0     C32988   4.164   8.105   5.813  0.8587  0.2542  0.0519
  986MOL0     C32989   4.020   8.054   5.836 -0.1099 -0.1039  0.9553
  986MOL0     C32990   3.977   7.939   5.754 -0.4831 -0.4435 -0.8199
  986MOL0     C32991   3.825   7.898   5.752 -0.9207 -0.3848 -0.2598
  986MOL0     N32992   3.761   7.865   5.880  0.1754 -0.6842  0.8937
  986MOL0     C32993   3.799   7.754   5.951 -0.5024 -0.6426  0.2614
  986MOL0     C32994   3.739   7.774   6.076 -0.0126  0.7259  0.1959
  986MOL0     C32995   3.758   7.670   6.180 -0.1969  0.6006 -0.2047
  986MOL0     C32996   3.849   7.715   6.289 -0.8743 -0.4175  0.7090
  986MOL0     C32997   3.920   7.609   6.381  0.4406 -0.2728 -0.2033
  986MOL0     C32998   3.824   7.514   6.464  0.3978 -1.0622  0.1078
  986MOL0     O32999   3.749   7.601   6.547  0.4103  0.1778 -0.2806
  986MOL0     C33000   3.638   7.565   6.618  0.0634 -0.0452 -0.5117
  986MOL0     C33001   3.611   7.432   6.648  0.4013 -0.8105 -0.3874
  986MOL0     C33002   3.497   7.401   6.722  0.0181 -0.4832  0.0541
  986MOL0     C33003   3.476   7.251   6.748  0.4396  0.7785 -0.3769
  986MOL0     C33004   3.410   7.493   6.759 -0.3364 -0.4301  0.9449
  986MOL0     C33005   3.293   7.463   6.839 -0.0163 -0.3696 -0.4224
  986MOL0     O33006   3.208   7.364   6.808 -0.1687 -0.3356  0.5792
  986MOL0     C33007   3.109   7.325   6.887 -1.0256  0.3873 -1.2533
  986MOL0     C33008   3.076   7.189   6.894 -0.5292  0.4223  1.0975
  986MOL0     C33009   2.987   7.131   6.984 -0.1125 -0.2240 -0.2208
  986MOL0     C33010   2.909   7.212   7.060  0.2321  0.1034 -0.1246
  986MOL0     O33011   2.800   7.154   7.123 -0.1820  0.1905 -0.0860
  986MOL0     C33012   2.676   7.213   7.152 -0.6511 -0.5878  0.7308
  986MOL0     C33013   2.553   7.123   7.186 -0.0831 -0.9967 -0.1709
  986MOL0     C33014   2.434   7.219   7.214  0.4692 -0.4378  0.0186
  986MOL0     C33015   2.299   7.146   7.188  0.5564 -0.3938  0.0270
  986MOL0     C33016   2.172   7.232   7.233 -0.8202 -0.5696  0.4261
  986MOL0     C33017   2.032   7.178   7.172 -0.7394  0.0234 -0.6856
  986MOL0     C33018   2.016   7.193   7.020  0.2930 -0.0419 -0.1184
  986MOL0     C33019   2.042   7.337   6.968 -0.0466  0.3999  0.6691
  986MOL0    Cl33020   1.937   7.449   7.059 -0.1481 -0.1830 -0.4110
  986MOL0     C33021   2.932   7.352   7.056 -0.2337  0.1005  0.3211
  986MOL0     C33022   3.039   7.408   6.983 -0.0903 -0.0222  0.9764
  986MOL0     O33023   3.279   7.532   6.933 -0.2965 -0.4519 -0.3239
  986MOL0     C33024   3.438   7.632   6.741 -0.2313  0.1718 -0.5766
  986MOL0     C33025   3.552   7.665   6.671 -0.1955 -0.6477 -0.2316
  986MOL0     N33026   3.662   7.892   6.073  0.1317  0.6416  0.8310
  986MOL0     N33027   3.675   7.940   5.952  0.3195  1.0062  0.5069
  986MOL0     C33028   4.593   8.531   5.881  0.8411 -0.3692  0.0928
  986MOL0     C33029   4.713   8.482   5.924  0.0092  0.1428  0.3896
  986MOL0     C33030   5.064   8.286   6.121 -0.9737 -0.5572  0.0103
  986MOL0     C33031   5.027   8.151   6.135 -1.0602 -0.0169  0.4748
  986MOL0     C33032   5.124   8.058   6.158 -0.3944 -0.1703 -0.2665
  986MOL0     C33033   5.258   8.102   6.185 -0.1949  0.6344  0.5132
  986MOL0     O33034   5.349   8.005   6.221  0.3255 -0.1638  0.3210
  986MOL0     C33035   5.486   8.026   6.187  1.0012 -0.7145 -0.0645
  986MOL0     C33036   5.561   7.898   6.208 -0.4902 -0.1712 -0.5071
  986MOL0     C33037   5.710   7.931   6.209 -1.4896 -0.3491 -0.6593
  986MOL0     C33038   5.806   7.804   6.203  0.2871  0.1101  0.2603
  986MOL0     C33039   5.766   7.692   6.122 -0.5461 -0.1708 -0.2049
  986MOL0     C33040   5.737   7.615   6.035 -0.0846  0.1057  0.2699
  986MOL0     C33041   5.291   8.235   6.168 -0.2231 -0.1285  0.3454
  986MOL0     C33042   5.204   8.327   6.133  0.1005 -0.5454  0.3943
  986MOL0     H33043   4.623   8.346   6.220  0.7551 -0.2064  0.0176
  986MOL0     H33044   4.402   8.427   6.138 -0.0562  4.7308  0.3779
  986MOL0     H33045   4.342   8.546   5.697 -2.4483 -0.8031 -1.6214
  986MOL0     H33046   4.389   8.393   5.772 -0.8280  0.7130 -1.3350
  986MOL0     H33047   4.124   8.537   5.800  0.4607  0.0753 -0.3444
  986MOL0     H33048   4.162   8.402   5.696  1.2980 -0.9797 -0.3805
  986MOL0     H33049   4.153   8.390   6.000 -0.8656  2.9796 -1.0523
  986MOL0     H33050   4.033   8.326   5.901  1.0860 -1.9054  3.2581
  986MOL0     H33051   4.314   8.219   5.911 -0.1163  1.9132 -0.4005
  986MOL0     H33052   4.189   8.163   6.020 -0.1234  2.2467  1.5778
  986MOL0     H33053   4.178   8.131   5.708  0.7857 -3.5791 -1.0617
  986MOL0     H33054   4.233   8.020   5.823  0.3348 -0.1063  0.6816
  986MOL0     H33055   4.000   8.025   5.940 -0.0048 -2.1144  0.4460
  986MOL0     H33056   3.954   8.136   5.806  0.4235 -0.0104  0.0148
  986MOL0     H33057   4.015   7.954   5.652  1.4492 -1.6601 -0.3214
  986MOL0     H33058   4.029   7.850   5.788  0.6125  0.5691  0.2408
  986MOL0     H33059   3.809   7.802   5.701 -1.2403 -3.1681  4.5121
  986MOL0     H33060   3.777   7.989   5.716  0.2636  1.2584  2.0866
  986MOL0     H33061   3.867   7.671   5.936 -1.1975 -1.1398 -0.1936
  986MOL0     H33062   3.663   7.659   6.233 -0.5732 -1.2020 -1.1719
  986MOL0     H33063   3.795   7.573   6.145 -2.5752 -0.0513 -1.0692
  986MOL0     H33064   3.797   7.779   6.360 -0.6010 -0.9004  1.3611
  986MOL0     H33065   3.934   7.774   6.252 -1.3155 -1.0266 -1.3921
  986MOL0     H33066   3.986   7.659   6.453 -0.6243 -2.1600  2.2520
  986MOL0     H33067   3.985   7.546   6.319 -0.3633 -3.4201  1.9158
  986MOL0     H33068   3.889   7.448   6.523 -0.2692 -2.8022 -1.0236
  986MOL0     H33069   3.763   7.459   6.392 -0.2602  0.4887 -0.5617
  986MOL0     H33070   3.671   7.347   6.620  0.6511 -0.6900 -0.2261
  986MOL0     H33071   3.477   7.229   6.855 -2.8919  1.9362 -0.0184
  986MOL0     H33072   3.383   7.216   6.702  1.1110  1.8474 -2.6979
  986MOL0     H33073   3.557   7.191   6.704  0.4577 -0.6839  1.4960
  986MOL0     H33074   3.130   7.122   6.828 -0.0851  0.8483  1.0196
  986MOL0     H33075   2.984   7.022   6.986 -0.8273 -0.2081 -0.2672
  986MOL0     H33076   2.688   7.291   7.228  0.8498  0.4226 -0.4636
  986MOL0     H33077   2.660   7.255   7.052 -0.2735  2.0807  1.6984
  986MOL0     H33078   2.533   7.057   7.101  2.4508  0.0927 -1.7363
  986MOL0     H33079   2.560   7.061   7.276 -0.3866 -0.7687  0.0158
  986MOL0     H33080   2.445   7.309   7.153 -2.7427 -0.8975 -1.4323
  986MOL0     H33081   2.432   7.239   7.322  0.8524  3.0863 -0.5197
  986MOL0     H33082   2.287   7.140   7.079 -0.4057  2.6044 -0.1185
  986MOL0     H33083   2.298   7.047   7.234  2.0051 -0.8213 -0.7905
  986MOL0     H33084   2.183   7.339   7.213 -0.2440 -0.1105  2.8411
  986MOL0     H33085   2.171   7.217   7.342 -1.4442 -4.4825  0.0583
  986MOL0     H33086   2.020   7.072   7.197 -2.3762 -0.1885 -2.1812
  986MOL0     H33087   1.950   7.233   7.219 -0.5481  0.6935 -1.1258
  986MOL0     H33088   1.915   7.159   6.996  0.0495  1.5845 -1.6501
  986MOL0     H33089   2.083   7.116   6.981  0.1903 -0.1910  0.0015
  986MOL0     H33090   2.005   7.329   6.865  0.9828 -3.3180  0.4306
  986MOL0     H33091   2.147   7.368   6.968 -0.0067  0.2661  0.9988
  986MOL0     H33092   2.879   7.435   7.101 -0.9309  1.7722 -3.2375
  986MOL0     H33093   3.049   7.516   6.986  0.1858 -0.0269  0.3336
  986MOL0     H33094   3.372   7.707   6.784  3.6074  4.2001 -1.0269
  986MOL0     H33095   3.574   7.771   6.668 -3.5258  0.1327 -0.8161
  986MOL0     H33096   4.570   8.590   5.793  0.0895  0.3170  0.7348
  986MOL0     H33097   4.790   8.476   5.848 -1.9331 -1.4010 -1.5949
  986MOL0     H33098   4.929   8.113   6.107 -0.6675 -2.1934  1.8419
  986MOL0     H33099   5.108   7.953   6.140 -1.9185 -0.0841  0.4118
  986MOL0     H33100   5.503   8.055   6.083 -1.7222  0.5674 -0.2395
  986MOL0     H33101   5.533   8.105   6.246  1.1531  0.7063 -2.0090
  986MOL0     H33102   5.520   7.838   6.126 -2.7289 -1.0477  1.1398
  986MOL0     H33103   5.534   7.845   6.300  0.9835 -2.9152 -1.5174
  986MOL0     H33104   5.738   7.989   6.297  0.2198  2.5575 -2.9215
  986MOL0     H33105   5.731   8.000   6.127  0.4238  0.5949  0.5493
  986MOL0     H33106   5.820   7.769   6.306  1.2457  1.1358  0.5074
  986MOL0     H33107   5.895   7.855   6.165 -0.3967  1.7711  0.7759
  986MOL0     H33108   5.725   7.540   5.960  1.0372 -1.5747  1.6923
  986MOL0     H33109   5.391   8.274   6.184  0.7445 -2.3936  0.1415
  986MOL0     H33110   5.235   8.428   6.111  0.0677 -0.8137 -0.9598
  987MOL0     O33111  10.003  10.215   1.008 -0.0843 -0.1158 -0.1080
  987MOL0     C33112  10.042  10.331   1.034  0.4298  0.1818 -0.2657
  987MOL0     O33113   9.963  10.427   1.095  0.5651  0.2633  0.3465
  987MOL0     C33114   9.831  10.402   1.118  0.3294 -0.4968 -0.0608
  987MOL0     C33115   9.793  10.413   1.249  0.0655 -0.8768 -0.6248
  987MOL0     C33116   9.662  10.370   1.277  0.6089  0.1843  0.0341
  987MOL0     C33117   9.572  10.334   1.183 -0.4915 -0.0802  0.6714
  987MOL0     O33118   9.451  10.293   1.236  0.1998 -0.1583 -0.3689
  987MOL0     C33119   9.345  10.244   1.158 -1.0289 -0.8520 -0.3986
  987MOL0     C33120   9.224  10.216   1.251  0.9618  0.5116 -0.1055
  987MOL0     C33121   9.189  10.329   1.351  0.1280 -0.0705 -0.1883
  987MOL0     C33122   9.124  10.452   1.276  0.4954  0.0441 -0.4398
  987MOL0     C33123   9.051  10.558   1.361  0.0360 -0.0376 -0.2501
  987MOL0     C33124   9.150  10.644   1.424  0.1334  0.2805 -0.4882
  987MOL0     C33125   9.101  10.759   1.520 -0.3157 -0.3433  0.0436
  987MOL0     C33126   9.067  10.879   1.429  0.1055  0.0929  0.9168
  987MOL0     N33127   8.923  10.869   1.393 -0.2549 -0.0869  0.2276
  987MOL0     C33128   8.816  10.874   1.486 -0.1143  0.5821  0.2084
  987MOL0     C33129   8.700  10.859   1.414 -0.4048 -0.3278  0.5576
  987MOL0     C33130   8.559  10.887   1.457 -0.8950  0.2104  0.1969
  987MOL0     C33131   8.469  10.925   1.346  1.0749 -0.2883 -0.2884
  987MOL0     C33132   8.326  10.958   1.401 -0.1429  1.0873 -0.1070
  987MOL0     C33133   8.215  10.954   1.290 -0.2186  0.2355  0.3321
  987MOL0     O33134   8.101  10.987   1.369  0.0241  0.0605  0.5538
  987MOL0     C33135   7.977  10.965   1.317 -0.0133 -1.1809  0.1711
  987MOL0     C33136   7.946  10.933   1.186  0.0965 -0.0830 -0.0441
  987MOL0     C33137   7.823  10.889   1.147 -0.2336  1.0264 -0.0683
  987MOL0     C33138   7.801  10.846   1.001  0.3772 -0.5614  0.1435
  987MOL0     C33139   7.716  10.875   1.240  0.5513 -0.3847  1.2256
  987MOL0     C33140   7.582  10.831   1.206 -0.0338  0.1254 -0.1787
  987MOL0     O33141   7.531  10.824   1.073  0.3833  1.0287 -0.0136
  987MOL0     C33142   7.405  10.807   1.035 -0.0388 -0.6866 -0.2304
  987MOL0     C33143   7.380  10.816   0.899 -0.2448 -0.7394 -0.3999
  987MOL0     C33144   7.251  10.809   0.841 -0.9817  0.5957  0.4270
  987MOL0     C33145   7.143  10.784   0.935 -0.8173  0.6595 -0.1480
  987MOL0     O33146   7.021  10.750   0.882 -0.0884 -1.0531 -0.4216
  987MOL0     C33147   6.910  10.733   0.965  0.5708 -0.3969 -0.6250
  987MOL0     C33148   6.788  10.743   0.879 -0.7151 -0.0120 -0.4306
  987MOL0     C33149   6.771  10.879   0.807 -0.4849 -0.1252 -0.3917
  987MOL0     C33150   6.757  10.849   0.649 -0.2733 -0.7186 -0.4495
  987MOL0     C33151   6.743  10.987   0.568 -0.1891  0.2078  0.8412
  987MOL0     C33152   6.637  11.094   0.599  0.4620  1.2418 -0.0374
  987MOL0     C33153   6.498  11.028   0.589  0.3381  0.0349 -0.0832
  987MOL0     C33154   6.440  11.031   0.454 -0.9626  0.6723 -0.2345
  987MOL0    Cl33155   6.273  10.960   0.450  0.3317  0.1001 -0.3231
  987MOL0     C33156   7.170  10.774   1.067  0.0394 -0.0119 -1.0538
  987MOL0     C33157   7.294  10.800   1.120 -0.7841  0.3129  0.0238
  987MOL0     O33158   7.524  10.795   1.304 -0.0956 -0.3347  0.2659
  987MOL0     C33159   7.749  10.924   1.365  0.3142  1.1001 -0.9948
  987MOL0     C33160   7.872  10.969   1.410  0.2633  0.3360 -0.8223
  987MOL0     N33161   8.735  10.836   1.278 -0.6772  0.8592  0.2854
  987MOL0     N33162   8.864  10.840   1.271 -0.5980 -0.8130 -1.1840
  987MOL0     C33163   9.615  10.329   1.048 -0.8546  0.2324 -0.3201
  987MOL0     C33164   9.747  10.370   1.012 -0.4421  0.6367  0.3759
  987MOL0     C33165  10.180  10.368   0.986  0.3040 -0.2093  0.1303
  987MOL0     C33166  10.256  10.283   0.908 -0.8375 -0.4729 -0.2890
  987MOL0     C33167  10.385  10.320   0.864  0.1972  0.4076 -0.2237
  987MOL0     C33168  10.433  10.450   0.881  0.1074 -0.3749 -0.2125
  987MOL0     O33169  10.551  10.481   0.813 -0.1813  0.2828 -0.2228
  987MOL0     C33170  10.654  10.557   0.884 -0.2687  0.7755  0.1235
  987MOL0     C33171  10.788  10.534   0.836  0.9024  0.8675 -0.4819
  987MOL0     C33172  10.884  10.604   0.929  0.3365 -0.4842 -0.1816
  987MOL0     C33173  11.034  10.585   0.900  0.8096 -0.3201 -0.1994
  987MOL0     C33174  11.075  10.445   0.890  0.2489  0.1071  0.2055
  987MOL0     C33175  11.089  10.329   0.899  0.6585 -0.1536 -0.6568
  987MOL0     C33176  10.352  10.541   0.953  0.1050  0.5467 -0.3062
  987MOL0     C33177  10.228  10.500   1.004 -0.7649 -0.2322 -0.1665
  987MOL0     H33178   9.864  10.445   1.324 -0.0775  0.1035 -0.8981
  987MOL0     H33179   9.628  10.383   1.379 -2.0620  0.1066 -0.7799
  987MOL0     H33180   9.310  10.309   1.077  0.3616 -3.8723 -3.6876
  987MOL0     H33181   9.375  10.149   1.113  0.6050 -0.3263 -0.4857
  987MOL0     H33182   9.134  10.198   1.191  0.3857  1.6179  0.3963
  987MOL0     H33183   9.238  10.130   1.317  0.5779  0.5240 -0.0045
  987MOL0     H33184   9.115  10.285   1.419  0.8619 -2.1389 -0.6379
  987MOL0     H33185   9.275  10.354   1.413 -0.7083  2.9177 -0.1077
  987MOL0     H33186   9.206  10.504   1.225  1.9286 -0.6439  1.0855
  987MOL0     H33187   9.047  10.415   1.207 -2.9728  1.2231  2.4531
  987MOL0     H33188   8.971  10.611   1.307 -0.4504  1.4078  1.7889
  987MOL0     H33189   8.995  10.505   1.439 -1.7603  2.5046  0.2917
  987MOL0     H33190   9.202  10.576   1.491 -1.1229 -3.5065 -2.9763
  987MOL0     H33191   9.208  10.694   1.345 -1.6080 -0.5659 -2.3913
  987MOL0     H33192   9.015  10.726   1.580 -1.6648 -0.2540 -1.7623
  987MOL0     H33193   9.177  10.779   1.596 -2.8413  0.0710  2.6389
  987MOL0     H33194   9.125  10.891   1.337 -0.4791  0.5229  0.6016
  987MOL0     H33195   9.083  10.968   1.491  0.8814  0.8704 -0.3467
  987MOL0     H33196   8.823  10.902   1.591 -1.2462 -0.0580  0.4644
  987MOL0     H33197   8.508  10.800   1.499 -1.4641 -0.5555 -1.9257
  987MOL0     H33198   8.545  10.948   1.546 -2.3422 -0.4933  0.4754
  987MOL0     H33199   8.455  10.849   1.268  0.5953 -0.7451  0.2382
  987MOL0     H33200   8.510  11.015   1.300 -0.7480  0.1289 -1.2226
  987MOL0     H33201   8.323  11.059   1.443  0.4481  1.4928 -0.9916
  987MOL0     H33202   8.305  10.879   1.473  2.6403 -1.5190 -1.8953
  987MOL0     H33203   8.206  10.861   1.233  0.9729  0.5608 -0.4205
  987MOL0     H33204   8.238  11.034   1.220 -0.3153  2.1419  2.3573
  987MOL0     H33205   8.031  10.934   1.118  0.9486 -0.7561  0.9803
  987MOL0     H33206   7.748  10.751   0.998  1.2966 -1.1882  1.9752
  987MOL0     H33207   7.736  10.919   0.952  1.4995 -0.1193 -0.7354
  987MOL0     H33208   7.899  10.853   0.952 -0.0197  2.7794 -0.4606
  987MOL0     H33209   7.467  10.835   0.837 -0.1661  0.3241  0.0112
  987MOL0     H33210   7.236  10.803   0.734 -1.1983 -3.5876  0.5289
  987MOL0     H33211   6.913  10.635   1.014  0.4872  0.2396  0.7016
  987MOL0     H33212   6.902  10.806   1.046  1.9156 -1.4908  0.5481
  987MOL0     H33213   6.795  10.664   0.804  0.4358 -0.3170 -0.0191
  987MOL0     H33214   6.710  10.722   0.953 -0.2634 -2.4266 -0.5641
  987MOL0     H33215   6.863  10.934   0.829  1.7123 -3.1025 -1.4693
  987MOL0     H33216   6.683  10.934   0.840  1.2472  2.8325 -0.2997
  987MOL0     H33217   6.850  10.794   0.626  1.5815  0.4996  3.2891
  987MOL0     H33218   6.668  10.788   0.632 -1.9397  1.8001 -1.3324
  987MOL0     H33219   6.721  10.957   0.465 -0.3869 -2.8306  1.6735
  987MOL0     H33220   6.839  11.036   0.583  0.6510 -0.5094 -1.7125
  987MOL0     H33221   6.648  11.129   0.702  1.9765 -1.4073  0.7972
  987MOL0     H33222   6.641  11.173   0.523 -3.4804  1.5620 -0.1265
  987MOL0     H33223   6.430  11.083   0.655  0.5989 -0.1983  0.3877
  987MOL0     H33224   6.486  10.927   0.630  1.9448 -0.4171 -0.6695
  987MOL0     H33225   6.507  10.977   0.386 -2.2725 -0.0870 -0.9701
  987MOL0     H33226   6.439  11.137   0.426  1.5697  1.2259  1.4933
  987MOL0     H33227   7.093  10.738   1.134 -0.9924 -0.2648 -2.3203
  987MOL0     H33228   7.290  10.778   1.226 -2.8206  1.9022  0.3394
  987MOL0     H33229   7.681  10.938   1.449  2.5723 -0.4128  1.2598
  987MOL0     H33230   7.880  11.002   1.513 -0.4097 -0.4937 -0.4816
  987MOL0     H33231   9.548  10.290   0.972  1.7442 -3.3938 -1.0519
  987MOL0     H33232   9.781  10.368   0.909  0.9586 -2.5517  0.7861
  987MOL0     H33233  10.222  10.183   0.885  0.7052 -0.6066 -2.2773
  987MOL0     H33234  10.439  10.250   0.801  0.8620  1.0793 -0.4191
  987MOL0     H33235  10.630  10.662   0.868 -3.3444  0.0493 -0.6472
  987MOL0     H33236  10.642  10.542   0.991 -0.3371 -1.2698 -0.1225
  987MOL0     H33237  10.803  10.566   0.732 -0.2977  1.4784 -0.4767
  987MOL0     H33238  10.818  10.429   0.845  3.8039  1.7420  1.4186
  987MOL0     H33239  10.869  10.573   1.033  0.8568  1.0584  0.3751
  987MOL0     H33240  10.871  10.713   0.928 -0.1526 -0.3242 -5.8306
  987MOL0     H33241  11.101  10.630   0.974  1.0539 -1.1645  0.1032
  987MOL0     H33242  11.050  10.636   0.805  2.7174  1.1029  0.7968
  987MOL0     H33243  11.097  10.224   0.921 -1.6187  0.0652  1.7560
  987MOL0     H33244  10.385  10.642   0.974  1.4035 -0.1026  0.9873
  987MOL0     H33245  10.168  10.569   1.063 -0.9035 -1.7719  1.5936
  988MOL0     O33246   9.795   3.260   6.500 -0.1702 -0.1545 -0.0632
  988MOL0     C33247   9.842   3.375   6.509 -0.8350  0.4556 -0.7008
  988MOL0     O33248   9.783   3.496   6.483 -0.8980  0.0336  0.3097
  988MOL0     C33249   9.658   3.506   6.424 -0.0154 -0.4814 -0.3556
  988MOL0     C33250   9.649   3.585   6.310  0.7108 -0.3337 -0.6370
  988MOL0     C33251   9.532   3.599   6.240 -0.5005 -0.6331 -0.1601
  988MOL0     C33252   9.414   3.533   6.270  0.0192 -0.2556 -0.0798
  988MOL0     O33253   9.291   3.563   6.215  0.1470 -0.0797  0.3300
  988MOL0     C33254   9.293   3.644   6.097  0.8558  0.4320  0.0264
  988MOL0     C33255   9.148   3.682   6.059 -1.0986 -0.1014  0.4213
  988MOL0     C33256   9.113   3.804   6.146  0.0444  0.1444  0.7042
  988MOL0     C33257   8.967   3.828   6.126  0.5927 -0.2533  0.8999
  988MOL0     C33258   8.926   3.944   6.218 -0.0945  0.2667 -0.0524
  988MOL0     C33259   8.775   3.947   6.212 -0.2878 -0.1659  0.3377
  988MOL0     C33260   8.716   4.072   6.276 -0.7015  0.3467  0.5777
  988MOL0     C33261   8.577   4.039   6.335  0.7262  0.2694  0.5064
  988MOL0     N33262   8.486   4.017   6.215 -0.2221 -0.6552 -0.1859
  988MOL0     C33263   8.442   4.110   6.132  0.5907 -0.5755  0.5280
  988MOL0     C33264   8.378   4.050   6.030  0.1639 -0.1020  0.6786
  988MOL0     C33265   8.290   4.117   5.926 -0.7153 -0.5145 -0.9236
  988MOL0     C33266   8.217   4.245   5.976 -0.8017  0.1046  0.2120
  988MOL0     C33267   8.137   4.219   6.099  0.0673 -0.2623  1.1665
  988MOL0     C33268   8.034   4.109   6.081 -0.0222  0.2380 -0.4365
  988MOL0     O33269   7.940   4.152   5.981  0.0771  0.3543  0.5306
  988MOL0     C33270   7.827   4.223   6.003  0.4351  0.8913 -0.5474
  988MOL0     C33271   7.753   4.260   5.893  0.2189 -0.4320 -0.8480
  988MOL0     C33272   7.630   4.324   5.904  0.0526 -0.0108 -0.1131
  988MOL0     C33273   7.558   4.339   5.779 -0.7536 -0.3117  0.3627
  988MOL0     C33274   7.580   4.362   6.034  0.0115 -0.5268 -0.2422
  988MOL0     C33275   7.446   4.418   6.057  0.7580 -0.9629 -0.2862
  988MOL0     O33276   7.348   4.363   5.980 -0.6342 -1.2748 -0.3784
  988MOL0     C33277   7.222   4.419   5.980 -0.6531  0.6276  0.2012
  988MOL0     C33278   7.163   4.513   6.063 -0.2622 -0.1603 -1.3146
  988MOL0     C33279   7.030   4.559   6.041 -0.6385  0.1986  0.3290
  988MOL0     C33280   6.959   4.507   5.933 -0.4315 -0.6055 -0.0706
  988MOL0     O33281   6.832   4.562   5.927 -0.7967  0.4796  0.8335
  988MOL0     C33282   6.733   4.508   5.825 -0.6753  0.0381  0.6631
  988MOL0     C33283   6.610   4.597   5.837 -0.3856  0.1740  0.5351
  988MOL0     C33284   6.549   4.549   5.965  0.0015 -0.3457  0.3405
  988MOL0     C33285   6.409   4.604   5.977 -1.0394 -0.9868 -0.8932
  988MOL0     C33286   6.354   4.568   6.123  0.6945 -0.9684  0.4996
  988MOL0     C33287   6.204   4.591   6.117  0.0034  0.0668  1.3278
  988MOL0     C33288   6.137   4.565   6.247 -0.1781  0.3674 -0.4165
  988MOL0     C33289   5.990   4.579   6.250  0.0830 -0.1826 -0.7486
  988MOL0    Cl33290   5.903   4.446   6.163  0.5044  0.0522  0.2461
  988MOL0     C33291   7.012   4.414   5.849  0.1113  1.1844 -0.0461
  988MOL0     C33292   7.148   4.373   5.874  0.3749  0.1892 -0.7990
  988MOL0     O33293   7.430   4.481   6.156 -0.6895 -0.1336 -0.3124
  988MOL0     C33294   7.653   4.325   6.147 -0.1701 -0.1165  0.2267
  988MOL0     C33295   7.776   4.252   6.132 -0.4034 -0.4440  0.7295
  988MOL0     N33296   8.395   3.914   6.053 -0.8617 -0.8850  0.0724
  988MOL0     N33297   8.459   3.892   6.163  0.3219 -0.2048  0.4365
  988MOL0     C33298   9.428   3.454   6.388  0.6450 -1.0320  0.3950
  988MOL0     C33299   9.544   3.433   6.463  0.0574 -0.4437  0.6350
  988MOL0     C33300   9.975   3.393   6.567  0.3577  0.3297 -0.0905
  988MOL0     C33301  10.045   3.282   6.616  0.1078 -0.6828 -0.4255
  988MOL0     C33302  10.167   3.294   6.671  0.6216 -0.1175  0.8191
  988MOL0     C33303  10.241   3.409   6.679 -0.6824 -1.0666  0.7067
  988MOL0     O33304  10.362   3.402   6.739  0.2805 -0.0026  0.4984
  988MOL0     C33305  10.453   3.514   6.744  0.1703  0.2018 -0.6773
  988MOL0     C33306  10.593   3.468   6.793 -0.3485  0.0177 -0.4383
  988MOL0     C33307  10.707   3.548   6.735  0.2572  0.5711 -0.6842
  988MOL0     C33308  10.851   3.506   6.785 -0.5169 -0.7498  0.0681
  988MOL0     C33309  10.953   3.580   6.711  0.2793  0.0842  0.1515
  988MOL0     C33310  11.038   3.642   6.654  0.1316 -0.6404  0.1851
  988MOL0     C33311  10.171   3.526   6.631 -0.3749 -0.5482 -0.4439
  988MOL0     C33312  10.040   3.518   6.585 -0.1135 -0.4787 -0.1348
  988MOL0     H33313   9.736   3.643   6.282  1.2737 -0.0705  1.4918
  988MOL0     H33314   9.539   3.663   6.153  0.3861  0.1904  0.4982
  988MOL0     H33315   9.339   3.741   6.117 -0.2447  1.2636 -1.3062
  988MOL0     H33316   9.342   3.599   6.011 -1.9128  0.5049 -1.6965
  988MOL0     H33317   9.134   3.693   5.951 -1.1218  1.8611  0.6026
  988MOL0     H33318   9.079   3.598   6.073 -1.5127  0.0158 -0.7873
  988MOL0     H33319   9.130   3.783   6.252  0.0109 -0.1248  0.6571
  988MOL0     H33320   9.179   3.885   6.114  0.6704 -0.0356  1.5151
  988MOL0     H33321   8.942   3.860   6.025 -3.3687  1.8859  2.3354
  988MOL0     H33322   8.897   3.749   6.153 -2.2217  1.7776  0.0438
  988MOL0     H33323   8.964   3.922   6.318 -0.0183 -1.9000 -0.5062
  988MOL0     H33324   8.971   4.033   6.174  0.0974 -0.9529 -2.4577
  988MOL0     H33325   8.736   3.930   6.111 -0.5807 -1.0305  0.5859
  988MOL0     H33326   8.740   3.862   6.271  4.5198 -0.5202  3.2057
  988MOL0     H33327   8.792   4.102   6.348 -0.6692  0.7359  0.3813
  988MOL0     H33328   8.716   4.142   6.193 -0.1511 -0.5813 -0.2228
  988MOL0     H33329   8.545   4.123   6.397 -2.3735  2.2089 -3.2555
  988MOL0     H33330   8.567   3.948   6.395 -2.8946 -0.0242 -0.3006
  988MOL0     H33331   8.428   4.215   6.158 -4.2135 -0.6475 -0.6889
  988MOL0     H33332   8.352   4.145   5.840  0.5434  0.1400  0.1680
  988MOL0     H33333   8.218   4.047   5.883 -0.1605 -1.1320 -0.8557
  988MOL0     H33334   8.152   4.267   5.891 -2.1988 -1.6293  0.7773
  988MOL0     H33335   8.294   4.322   5.988  2.3972 -2.5455 -1.5437
  988MOL0     H33336   8.085   4.312   6.123 -2.4659 -1.1989 -0.3273
  988MOL0     H33337   8.204   4.198   6.183  2.2355 -2.1768 -0.8855
  988MOL0     H33338   7.991   4.092   6.181  0.0715  0.3699 -0.3739
  988MOL0     H33339   8.087   4.025   6.035  2.6116  0.9858  1.0301
  988MOL0     H33340   7.794   4.212   5.805 -2.6632 -2.8480 -1.0444
  988MOL0     H33341   7.497   4.429   5.773  2.9619  2.4600  0.2676
  988MOL0     H33342   7.623   4.339   5.690  1.9918  1.3830  2.2122
  988MOL0     H33343   7.494   4.250   5.770  0.2871 -1.0517  0.0244
  988MOL0     H33344   7.221   4.565   6.139  1.9181 -1.7063 -1.8410
  988MOL0     H33345   6.992   4.638   6.104  3.0636  1.8160  0.8217
  988MOL0     H33346   6.782   4.526   5.729 -0.8537 -0.3095  0.5025
  988MOL0     H33347   6.727   4.398   5.824  1.0075 -0.1470 -2.3567
  988MOL0     H33348   6.647   4.699   5.844  1.9499 -0.7168  5.6191
  988MOL0     H33349   6.554   4.599   5.743  3.2964  3.0388 -1.8899
  988MOL0     H33350   6.606   4.586   6.050  2.9850 -1.1936 -1.1649
  988MOL0     H33351   6.549   4.440   5.962  1.1284 -0.3389 -0.6671
  988MOL0     H33352   6.408   4.712   5.963 -0.5895 -1.0462 -1.4276
  988MOL0     H33353   6.346   4.565   5.896 -3.1046  2.1035 -0.9263
  988MOL0     H33354   6.386   4.638   6.200 -1.9074  0.0387  0.7592
  988MOL0     H33355   6.383   4.469   6.160  0.1300 -1.9970 -1.6073
  988MOL0     H33356   6.183   4.696   6.097  0.0647 -0.1836 -0.1515
  988MOL0     H33357   6.165   4.528   6.037  1.1816  0.0782  0.7211
  988MOL0     H33358   6.185   4.637   6.315 -1.5422  0.5067  0.4384
  988MOL0     H33359   6.151   4.465   6.289  0.5015  1.0702  1.1279
  988MOL0     H33360   5.965   4.677   6.208 -0.6204 -0.2962 -0.6027
  988MOL0     H33361   5.957   4.582   6.354  3.3827  0.6607  0.4051
  988MOL0     H33362   6.953   4.372   5.768 -0.6297  2.8735 -0.4375
  988MOL0     H33363   7.193   4.294   5.814  0.9859  1.5907 -2.2288
  988MOL0     H33364   7.621   4.360   6.245 -0.5268  2.5002 -0.7472
  988MOL0     H33365   7.827   4.226   6.224  3.1581 -1.1041 -1.2525
  988MOL0     H33366   9.336   3.407   6.420  0.0482  1.1089  2.0598
  988MOL0     H33367   9.540   3.366   6.548 -2.1161 -3.5173 -1.6724
  988MOL0     H33368   9.998   3.184   6.615 -1.1314 -0.1356  0.7598
  988MOL0     H33369  10.212   3.206   6.717 -0.4905 -1.2366 -0.1635
  988MOL0     H33370  10.456   3.562   6.646 -0.0857  0.4823 -0.5481
  988MOL0     H33371  10.429   3.593   6.815  1.8968  0.2631 -0.1004
  988MOL0     H33372  10.616   3.362   6.774  2.1201 -0.0266  2.0644
  988MOL0     H33373  10.608   3.486   6.900  0.9777  0.1091 -0.6228
  988MOL0     H33374  10.695   3.650   6.772 -0.9011 -1.1489  4.4660
  988MOL0     H33375  10.714   3.545   6.626 -0.1069  0.0866 -0.6960
  988MOL0     H33376  10.875   3.400   6.776 -0.4256 -0.9118  1.8725
  988MOL0     H33377  10.852   3.532   6.891 -0.6557 -3.1940  0.7237
  988MOL0     H33378  11.096   3.708   6.593 -1.0472  1.0621  0.8102
  988MOL0     H33379  10.206   3.626   6.656 -0.5688 -0.6824  0.4204
  988MOL0     H33380   9.989   3.613   6.571 -0.1764 -0.0526  2.4406
  989MOL0     O33381   9.361   5.288   9.796  0.7886 -0.1947 -0.1869
  989MOL0     C33382   9.462   5.285   9.855 -0.1709 -0.2486 -0.6572
  989MOL0     O33383   9.512   5.181   9.924  0.4512  0.8670  0.3316
  989MOL0     C33384   9.459   5.060   9.920 -0.1514 -0.4929  0.7705
  989MOL0     C33385   9.374   5.022  10.026 -0.0147  0.5320 -0.4786
  989MOL0     C33386   9.341   4.892  10.029  0.6115  0.1341  0.0024
  989MOL0     C33387   9.380   4.800   9.933 -0.6049  0.0478  0.9188
  989MOL0     O33388   9.354   4.667   9.953  0.1891 -0.2068 -0.6607
  989MOL0     C33389   9.217   4.633   9.965 -0.1303  0.6968  1.0935
  989MOL0     C33390   9.211   4.490   9.913  0.9105 -1.0989 -0.4148
  989MOL0     C33391   9.271   4.387  10.011 -0.4077  0.6623 -0.3663
  989MOL0     C33392   9.206   4.248  10.013 -0.1554  0.0500 -0.5368
  989MOL0     C33393   9.299   4.142  10.087 -0.0408  0.4208 -0.7657
  989MOL0     C33394   9.241   4.006  10.127 -0.4515 -0.0445  0.0082
  989MOL0     C33395   9.175   3.939  10.007  0.4845  0.1497  0.5806
  989MOL0     C33396   9.099   3.809  10.040  0.7883 -0.4459 -0.4452
  989MOL0     N33397   9.014   3.770   9.922  0.3748 -0.2734 -0.2917
  989MOL0     C33398   9.056   3.730   9.798 -0.4061  0.3772  0.6762
  989MOL0     C33399   8.950   3.727   9.718 -0.8409  0.6509 -0.0668
  989MOL0     C33400   8.951   3.700   9.571 -0.1252  0.6250 -0.1160
  989MOL0     C33401   8.958   3.542   9.551  0.1316 -0.0862  0.0754
  989MOL0     C33402   8.820   3.482   9.563 -0.4815  1.0165 -0.0214
  989MOL0     C33403   8.722   3.513   9.446 -0.2010  0.1663 -0.5855
  989MOL0     O33404   8.598   3.446   9.473  1.2631  0.1558  0.1073
  989MOL0     C33405   8.480   3.514   9.442 -0.2820  0.1993 -0.6876
  989MOL0     C33406   8.456   3.587   9.329  0.1925  0.0047 -0.2652
  989MOL0     C33407   8.338   3.653   9.292  0.5814  0.3621 -0.4799
  989MOL0     C33408   8.333   3.742   9.165  0.3730  0.5219 -0.2181
  989MOL0     C33409   8.230   3.649   9.391 -0.7151  0.2015  0.4040
  989MOL0     C33410   8.112   3.724   9.356 -0.0687  0.3395 -0.9998
  989MOL0     O33411   8.079   3.813   9.454  0.0349  0.8111  0.1866
  989MOL0     C33412   7.968   3.892   9.422  0.1425 -0.0657  0.5764
  989MOL0     C33413   7.848   3.892   9.487 -0.0940  0.5959 -0.6229
  989MOL0     C33414   7.740   3.980   9.451  0.4622  0.3053 -0.5775
  989MOL0     C33415   7.764   4.072   9.356  0.0069  0.2288 -0.1085
  989MOL0     O33416   7.659   4.162   9.346 -0.0626  1.5199 -0.7334
  989MOL0     C33417   7.694   4.295   9.327 -0.8150 -0.1760  0.3903
  989MOL0     C33418   7.571   4.376   9.294 -0.0694  0.4265  0.3657
  989MOL0     C33419   7.489   4.333   9.173 -0.3464 -0.5271 -0.5830
  989MOL0     C33420   7.356   4.413   9.138  0.9817 -0.8769 -1.1054
  989MOL0     C33421   7.283   4.381   9.015 -0.3723 -0.0199  0.6375
  989MOL0     C33422   7.158   4.459   8.992 -0.1060  0.1454  0.0958
  989MOL0     C33423   7.112   4.434   8.853  0.0870 -0.0892  0.4097
  989MOL0     C33424   6.981   4.501   8.812 -0.4621  0.8026 -0.9957
  989MOL0    Cl33425   6.980   4.682   8.827 -0.5034  0.1438 -0.6964
  989MOL0     C33426   7.888   4.080   9.274 -0.8138 -0.1686 -0.0405
  989MOL0     C33427   7.988   3.986   9.316  0.3678 -0.9735  0.1252
  989MOL0     O33428   8.051   3.707   9.252 -0.2081 -0.1317 -0.3878
  989MOL0     C33429   8.250   3.569   9.511 -0.0035  0.4619 -0.2486
  989MOL0     C33430   8.367   3.498   9.531 -0.9547  0.3503  0.2084
  989MOL0     N33431   8.849   3.781   9.793  1.0292  0.0123 -0.2868
  989MOL0     N33432   8.882   3.799   9.915 -0.0518  0.9828 -1.0538
  989MOL0     C33433   9.452   4.844   9.824  0.3481  0.6682  0.1830
  989MOL0     C33434   9.489   4.970   9.819 -0.4898 -0.2675 -0.0333
  989MOL0     C33435   9.553   5.402   9.859  0.2569  0.4991 -0.6068
  989MOL0     C33436   9.530   5.514   9.773  0.0550 -0.3314  0.0910
  989MOL0     C33437   9.607   5.629   9.775  0.4722 -0.4938  0.9013
  989MOL0     C33438   9.712   5.632   9.871 -0.6121  1.2590  0.4200
  989MOL0     O33439   9.808   5.727   9.880 -0.2670 -0.9000  0.5781
  989MOL0     C33440   9.826   5.810   9.766 -0.2020  0.3764  0.1732
  989MOL0     C33441   9.962   5.883   9.775  0.7305 -0.0631  0.5037
  989MOL0     C33442   9.988   5.949   9.905  0.0890  1.1615 -0.1343
  989MOL0     C33443   9.876   6.023   9.983  0.7665 -0.2591  0.0035
  989MOL0     C33444   9.809   6.137   9.910  1.3608  0.0675 -0.4004
  989MOL0     C33445   9.755   6.238   9.871  0.2834 -0.2503 -0.4496
  989MOL0     C33446   9.728   5.536   9.968 -0.6574 -0.0062 -0.0292
  989MOL0     C33447   9.658   5.412   9.961  1.0108  0.8860 -0.1385
  989MOL0     H33448   9.333   5.084  10.105  3.1368  2.2763 -0.0242
  989MOL0     H33449   9.303   4.847  10.120  2.0923 -1.8098 -0.2815
  989MOL0     H33450   9.187   4.619  10.070 -0.0279 -0.0886  1.0256
  989MOL0     H33451   9.148   4.695   9.907  1.5334  1.9587  0.3943
  989MOL0     H33452   9.104   4.469   9.906  0.8617 -1.3341  0.8061
  989MOL0     H33453   9.246   4.471   9.811 -0.4851 -2.8834 -0.6043
  989MOL0     H33454   9.375   4.375   9.980  0.4237  1.5111  1.8800
  989MOL0     H33455   9.281   4.426  10.113  0.2547 -1.2447  0.3564
  989MOL0     H33456   9.113   4.263  10.067  0.4330  1.8912  0.0320
  989MOL0     H33457   9.173   4.211   9.916  1.0102  1.6411 -1.5861
  989MOL0     H33458   9.389   4.120  10.029 -0.2408  0.2208 -1.0034
  989MOL0     H33459   9.324   4.175  10.188 -0.3713 -1.8235  0.1070
  989MOL0     H33460   9.315   3.938  10.168  1.8472  2.0587 -0.3644
  989MOL0     H33461   9.166   4.023  10.205  0.1765 -1.3807  0.9301
  989MOL0     H33462   9.098   4.004   9.966  1.5687  0.7444 -0.5603
  989MOL0     H33463   9.239   3.934   9.919 -3.1804  2.3010 -2.5458
  989MOL0     H33464   9.032   3.823  10.125  1.7145 -0.1811  0.2706
  989MOL0     H33465   9.172   3.738  10.080 -0.0865 -1.0975  0.0219
  989MOL0     H33466   9.156   3.701   9.770 -1.2985 -1.5058 -0.8007
  989MOL0     H33467   8.863   3.745   9.524 -3.0328 -2.0042  2.4269
  989MOL0     H33468   9.038   3.751   9.527 -0.5278  0.6645 -0.8950
  989MOL0     H33469   9.031   3.502   9.621 -1.3459  0.3485  1.9322
  989MOL0     H33470   9.000   3.512   9.454  2.6940 -1.3012  1.4677
  989MOL0     H33471   8.763   3.508   9.653 -4.9503  0.3078 -2.3487
  989MOL0     H33472   8.839   3.375   9.571  2.6829  1.5713  1.3364
  989MOL0     H33473   8.751   3.493   9.343 -0.0273  1.4676 -0.8008
  989MOL0     H33474   8.704   3.621   9.442  0.9520  0.4801  1.3029
  989MOL0     H33475   8.536   3.605   9.258  0.4815  1.9188  0.4922
  989MOL0     H33476   8.253   3.708   9.098  1.1671  4.1890 -3.4334
  989MOL0     H33477   8.306   3.846   9.187 -1.8138  0.2139 -1.1931
  989MOL0     H33478   8.424   3.734   9.105  1.3578  0.4426  1.2446
  989MOL0     H33479   7.839   3.827   9.574  2.4040 -1.2775 -1.6623
  989MOL0     H33480   7.644   3.975   9.502  0.9198  2.3156  0.5840
  989MOL0     H33481   7.740   4.334   9.418  1.1968  1.2305 -1.1539
  989MOL0     H33482   7.770   4.295   9.248 -1.2324 -0.1811 -0.0135
  989MOL0     H33483   7.510   4.381   9.384 -0.1078  0.6612  0.3264
  989MOL0     H33484   7.612   4.475   9.272  2.7333 -0.5278  0.8654
  989MOL0     H33485   7.465   4.226   9.176  3.8121 -1.6816 -1.0726
  989MOL0     H33486   7.564   4.345   9.095  0.8608  3.5568  0.9364
  989MOL0     H33487   7.294   4.392   9.226  3.7547  2.5240  1.9488
  989MOL0     H33488   7.376   4.520   9.131 -3.4186  0.0678 -1.8240
  989MOL0     H33489   7.257   4.276   9.002 -1.3396  0.1575  1.0165
  989MOL0     H33490   7.340   4.394   8.923 -2.2917 -1.6491 -0.8692
  989MOL0     H33491   7.076   4.438   9.062 -1.3672  3.5115 -0.1433
  989MOL0     H33492   7.189   4.563   9.008  1.8182 -0.4310  0.3742
  989MOL0     H33493   7.109   4.325   8.847  0.1665  0.0071 -2.0048
  989MOL0     H33494   7.189   4.467   8.783 -1.5727  0.2259 -1.3374
  989MOL0     H33495   6.902   4.473   8.882 -1.2033  1.2548 -1.6379
  989MOL0     H33496   6.959   4.467   8.710 -1.6212  3.7640 -1.8414
  989MOL0     H33497   7.895   4.149   9.191 -3.2070 -1.8859 -1.8467
  989MOL0     H33498   8.079   3.992   9.256  0.8754 -0.0152  0.9690
  989MOL0     H33499   8.163   3.556   9.575 -0.5722  1.0336 -0.8848
  989MOL0     H33500   8.377   3.427   9.613 -3.0788 -1.6894 -1.1852
  989MOL0     H33501   9.464   4.785   9.733 -1.0331  1.3822 -0.4921
  989MOL0     H33502   9.548   5.008   9.736 -1.4699  2.0927  0.2937
  989MOL0     H33503   9.452   5.514   9.698 -0.6728 -0.2369  0.8362
  989MOL0     H33504   9.581   5.701   9.698 -1.0443 -0.1622  1.6822
  989MOL0     H33505   9.825   5.759   9.669 -2.7564  1.9209 -0.7209
  989MOL0     H33506   9.743   5.878   9.748 -1.5530 -1.0235  0.9700
  989MOL0     H33507   9.966   5.959   9.696 -0.7380  0.4434  0.8728
  989MOL0     H33508  10.034   5.804   9.750 -1.2496 -1.2003 -2.0886
  989MOL0     H33509  10.063   6.028   9.896  0.4726  0.6608 -1.5796
  989MOL0     H33510  10.026   5.867   9.967  0.0670  1.0470 -0.2728
  989MOL0     H33511   9.915   6.070  10.074 -2.5032  2.7031  0.1335
  989MOL0     H33512   9.800   5.954  10.020  2.2752 -1.5296  0.7983
  989MOL0     H33513   9.692   6.318   9.837 -3.2296 -2.5989 -0.0650
  989MOL0     H33514   9.801   5.544  10.048  2.4288 -0.6509 -2.5655
  989MOL0     H33515   9.667   5.329  10.030 -1.7536 -0.1436 -0.8952
  990MOL0     O33516   9.180   2.809   0.640  0.1511 -0.5007 -0.0922
  990MOL0     C33517   9.238   2.909   0.679  0.3692 -0.4005 -0.2338
  990MOL0     O33518   9.185   3.033   0.709  1.0441 -0.0228  0.8598
  990MOL0     C33519   9.048   3.048   0.713  0.3245 -1.0337  0.3709
  990MOL0     C33520   8.960   2.952   0.765 -0.1188  1.1075 -0.7935
  990MOL0     C33521   8.821   2.962   0.750 -0.4146 -0.4023  0.0987
  990MOL0     C33522   8.763   3.080   0.693 -0.0408 -1.0718 -0.3370
  990MOL0     O33523   8.629   3.084   0.680 -0.6636 -0.0998 -0.4503
  990MOL0     C33524   8.559   3.211   0.642 -0.3879  1.5979  0.1375
  990MOL0     C33525   8.425   3.199   0.709 -0.1785 -0.6661 -0.3506
  990MOL0     C33526   8.305   3.239   0.619  0.3874 -0.0875  0.1742
  990MOL0     C33527   8.180   3.264   0.710  0.2726 -0.0744  0.4098
  990MOL0     C33528   8.192   3.398   0.786 -0.4880 -0.6570 -0.2431
  990MOL0     C33529   8.086   3.488   0.727  0.4729 -0.4372  0.1953
  990MOL0     C33530   8.108   3.637   0.764 -0.3869  0.1565 -0.2287
  990MOL0     C33531   8.037   3.731   0.659 -0.1060 -0.3585 -0.5311
  990MOL0     N33532   7.893   3.713   0.665  0.1580 -0.8685 -0.0879
  990MOL0     C33533   7.816   3.756   0.772 -0.4375  0.2157  0.5284
  990MOL0     C33534   7.685   3.740   0.738  0.0368 -0.0502 -0.6749
  990MOL0     C33535   7.574   3.766   0.833  0.3776 -0.5227  0.2786
  990MOL0     C33536   7.453   3.837   0.775 -0.4654  0.1847 -0.6471
  990MOL0     C33537   7.378   3.743   0.686 -0.4131 -0.8683 -0.0194
  990MOL0     C33538   7.258   3.831   0.646 -0.5445  0.5387 -0.8983
  990MOL0     O33539   7.172   3.868   0.755 -0.0567  0.8457 -0.8456
  990MOL0     C33540   7.071   3.948   0.739  0.5233 -0.6775 -0.3798
  990MOL0     C33541   7.016   3.979   0.617  0.3064  0.6954 -0.1560
  990MOL0     C33542   6.913   4.069   0.611  0.1538  0.4293  0.4098
  990MOL0     C33543   6.855   4.079   0.475 -0.0909 -0.6273  0.3090
  990MOL0     C33544   6.856   4.140   0.724  0.2665  0.1387 -0.3490
  990MOL0     C33545   6.732   4.222   0.738 -1.0327  0.8465  0.4734
  990MOL0     O33546   6.709   4.267   0.864  0.8505 -0.4952  0.5070
  990MOL0     C33547   6.615   4.366   0.882 -0.4144  0.5416  0.4054
  990MOL0     C33548   6.491   4.323   0.917  0.5462  1.0682 -0.3050
  990MOL0     C33549   6.388   4.411   0.942  0.1463 -0.6415 -0.3302
  990MOL0     C33550   6.408   4.548   0.935  0.4003  0.1112  0.3945
  990MOL0     O33551   6.299   4.639   0.952 -0.4459  0.0220  0.2672
  990MOL0     C33552   6.225   4.612   1.070  0.2102  0.7004 -0.6253
  990MOL0     C33553   6.094   4.680   1.084 -0.1262 -0.1043 -0.2563
  990MOL0     C33554   6.101   4.837   1.073 -0.1870 -0.2484 -0.4294
  990MOL0     C33555   6.195   4.908   1.177  0.3925  0.3131  0.0244
  990MOL0     C33556   6.155   5.064   1.189  0.3765 -0.2997 -0.6231
  990MOL0     C33557   6.045   5.091   1.288 -0.6278 -0.1821  0.1327
  990MOL0     C33558   6.014   5.238   1.306  0.0994  0.2347  0.1864
  990MOL0     C33559   6.124   5.308   1.380 -0.2277 -0.2716 -0.3349
  990MOL0    Cl33560   6.179   5.251   1.546  0.0662  0.1187 -0.1590
  990MOL0     C33561   6.531   4.596   0.889 -0.3369  0.5906 -0.4441
  990MOL0     C33562   6.638   4.502   0.878 -0.0190  0.1737 -0.4087
  990MOL0     O33563   6.670   4.257   0.635 -0.3394 -0.3648 -0.7545
  990MOL0     C33564   6.923   4.107   0.840  0.8256 -0.2264 -0.6865
  990MOL0     C33565   7.019   4.010   0.854  0.0303  0.4352  0.8939
  990MOL0     N33566   7.685   3.697   0.603 -0.0858  0.1880 -0.3354
  990MOL0     N33567   7.811   3.685   0.560  0.7706  0.7647  0.7252
  990MOL0     C33568   8.848   3.182   0.644  0.5943 -0.1100 -0.4663
  990MOL0     C33569   8.985   3.168   0.650  0.4650  0.8522 -0.2659
  990MOL0     C33570   9.383   2.903   0.688 -0.6381  0.8387  0.9545
  990MOL0     C33571   9.464   3.020   0.686 -0.0829  0.5955  0.4017
  990MOL0     C33572   9.604   3.020   0.691 -0.2253  0.1188  0.7407
  990MOL0     C33573   9.668   2.896   0.687 -0.1908  0.6767  0.9483
  990MOL0     O33574   9.806   2.916   0.694 -0.3263 -0.1339 -0.3567
  990MOL0     C33575   9.891   2.808   0.707 -0.2082  1.1646  0.1167
  990MOL0     C33576  10.031   2.851   0.753  0.2146 -0.1922  0.7790
  990MOL0     C33577  10.047   2.882   0.901 -0.8623 -0.3520  0.3204
  990MOL0     C33578   9.955   3.000   0.949 -0.4968  0.0116  0.1507
  990MOL0     C33579   9.969   3.018   1.098  0.0316  0.6219  1.1639
  990MOL0     C33580   9.975   3.043   1.214 -0.3790  0.5035  0.6600
  990MOL0     C33581   9.591   2.773   0.684 -0.3115 -0.2267 -0.6723
  990MOL0     C33582   9.449   2.777   0.692  0.6290 -0.9789 -0.3117
  990MOL0     H33583   8.999   2.868   0.821 -1.0059  1.1086 -0.1616
  990MOL0     H33584   8.762   2.874   0.773 -1.3784 -0.2001 -1.5019
  990MOL0     H33585   8.601   3.306   0.677  0.8574  0.9937  0.3244
  990MOL0     H33586   8.547   3.211   0.534 -5.0416 -0.9923  0.4067
  990MOL0     H33587   8.405   3.096   0.737 -1.1388 -0.3990 -0.0051
  990MOL0     H33588   8.425   3.262   0.798 -0.4178 -1.8037  0.4645
  990MOL0     H33589   8.325   3.330   0.561 -0.7280  0.7318  1.0259
  990MOL0     H33590   8.284   3.160   0.547 -1.0705  0.3423  0.0958
  990MOL0     H33591   8.089   3.257   0.650  0.3261  0.7583  0.2200
  990MOL0     H33592   8.176   3.184   0.784  0.4307 -1.5885 -1.1721
  990MOL0     H33593   8.175   3.392   0.894 -1.7686  1.8245 -0.2282
  990MOL0     H33594   8.292   3.441   0.775 -0.5704  0.3392  2.1926
  990MOL0     H33595   8.085   3.468   0.619  1.1514 -3.2533  0.6426
  990MOL0     H33596   7.987   3.461   0.766  0.6507 -2.4030 -0.5904
  990MOL0     H33597   8.062   3.648   0.863 -0.6446  1.6723 -0.4819
  990MOL0     H33598   8.213   3.662   0.781  0.1456 -1.8789 -0.3216
  990MOL0     H33599   8.069   3.698   0.560  2.3004  2.3264 -0.7889
  990MOL0     H33600   8.058   3.837   0.676  1.3000 -0.6720 -0.2051
  990MOL0     H33601   7.863   3.783   0.866 -1.1015 -1.5010  1.3934
  990MOL0     H33602   7.539   3.672   0.876 -4.4033  0.9987  0.3881
  990MOL0     H33603   7.603   3.839   0.909 -1.6898 -0.1985  0.8277
  990MOL0     H33604   7.471   3.927   0.716 -2.1753 -0.7399 -2.7285
  990MOL0     H33605   7.383   3.864   0.855 -2.7879 -1.8831 -1.8250
  990MOL0     H33606   7.351   3.650   0.736 -0.6092 -0.7698  0.0562
  990MOL0     H33607   7.431   3.738   0.590 -1.2274 -0.8463 -0.4765
  990MOL0     H33608   7.190   3.772   0.583  0.7232 -0.5895 -1.2655
  990MOL0     H33609   7.287   3.921   0.592  5.7166 -1.2161 -1.2445
  990MOL0     H33610   7.047   3.930   0.526  0.9841  1.3657 -0.2948
  990MOL0     H33611   6.810   3.985   0.441 -4.2838  1.1160  0.3661
  990MOL0     H33612   6.783   4.160   0.464  0.6633  0.0591  0.3831
  990MOL0     H33613   6.934   4.101   0.403 -0.6293  2.3653  0.5156
  990MOL0     H33614   6.473   4.216   0.926  4.3250  0.2429 -0.7543
  990MOL0     H33615   6.289   4.367   0.950  0.2930 -0.8488  0.3467
  990MOL0     H33616   6.191   4.508   1.071 -3.5751  1.7917  0.1485
  990MOL0     H33617   6.287   4.627   1.158 -0.4643  1.5015 -0.2746
  990MOL0     H33618   6.022   4.651   1.008 -0.5105 -0.9579  0.4060
  990MOL0     H33619   6.067   4.650   1.186  2.5785 -0.7787  0.3684
  990MOL0     H33620   6.001   4.878   1.081 -0.8395 -1.8717  0.2034
  990MOL0     H33621   6.132   4.862   0.971 -0.3003  0.3880 -0.3080
  990MOL0     H33622   6.184   4.872   1.280 -1.2974 -2.5600 -1.0639
  990MOL0     H33623   6.301   4.896   1.151  0.5963  1.7955  0.0848
  990MOL0     H33624   6.131   5.096   1.088 -1.5740 -0.2993 -0.1874
  990MOL0     H33625   6.242   5.119   1.228  0.4855  0.7099 -2.2034
  990MOL0     H33626   5.955   5.042   1.249  0.1831 -1.8641  0.2751
  990MOL0     H33627   6.064   5.036   1.381 -2.1674 -0.8333  0.0981
  990MOL0     H33628   5.922   5.251   1.364  0.8656 -1.4779  1.8844
  990MOL0     H33629   5.995   5.292   1.213 -1.5619  1.0950  0.9631
  990MOL0     H33630   6.096   5.413   1.387 -1.9012 -0.7887  2.2440
  990MOL0     H33631   6.214   5.304   1.319 -0.9791  3.2260 -1.8799
  990MOL0     H33632   6.553   4.698   0.859 -0.3448  0.2478 -1.6956
  990MOL0     H33633   6.742   4.521   0.857  0.3328 -0.1883  0.9460
  990MOL0     H33634   6.895   4.146   0.938 -1.6904  0.3611 -1.5524
  990MOL0     H33635   7.051   3.962   0.946  1.5432 -0.4789 -0.0607
  990MOL0     H33636   8.808   3.273   0.601 -2.9809  0.0142  2.5487
  990MOL0     H33637   9.046   3.242   0.598 -1.4138  1.1206 -2.2171
  990MOL0     H33638   9.411   3.113   0.669 -0.0876  0.0203 -3.5183
  990MOL0     H33639   9.657   3.113   0.677  3.7421 -2.3254 -3.4208
  990MOL0     H33640   9.850   2.762   0.798  0.1249 -0.0387 -0.3122
  990MOL0     H33641   9.900   2.745   0.618 -0.3573 -0.1014  0.9640
  990MOL0     H33642  10.066   2.930   0.686 -0.7183 -2.6707 -2.9949
  990MOL0     H33643  10.104   2.772   0.734  0.1023  0.0978 -1.0357
  990MOL0     H33644  10.153   2.887   0.930 -0.9191 -4.0868  1.6098
  990MOL0     H33645  10.029   2.790   0.956  0.8826  0.9872  3.3760
  990MOL0     H33646   9.855   2.959   0.932  0.4531 -4.1717  2.9511
  990MOL0     H33647   9.973   3.092   0.893 -0.7959 -0.0894 -0.1110
  990MOL0     H33648   9.958   3.068   1.317  0.5229 -0.1272  0.9717
  990MOL0     H33649   9.641   2.676   0.690  0.8754  0.4589  1.6953
  990MOL0     H33650   9.396   2.683   0.702  0.4384 -0.8984 -0.5627
  991MOL0     O33651   5.096   4.745   3.396  0.8474  0.3416 -0.1981
  991MOL0     C33652   5.061   4.857   3.346 -0.4444  1.2266 -0.4347
  991MOL0     O33653   5.140   4.970   3.330 -0.5495 -0.3354 -0.1059
  991MOL0     C33654   5.275   4.975   3.372  0.1430  0.1753 -0.1547
  991MOL0     C33655   5.341   4.899   3.472  0.0860  0.4263  0.0727
  991MOL0     C33656   5.474   4.929   3.511  1.9920  0.4663 -0.4775
  991MOL0     C33657   5.547   5.032   3.445 -0.2713 -0.4768 -0.6450
  991MOL0     O33658   5.683   5.032   3.481  0.4011 -0.3651  0.5055
  991MOL0     C33659   5.760   5.083   3.373 -0.1928  0.0011 -0.4130
  991MOL0     C33660   5.911   5.066   3.411  0.2188  0.5831 -0.0853
  991MOL0     C33661   5.940   4.927   3.467 -0.2150  0.4570  0.7599
  991MOL0     C33662   6.085   4.901   3.466 -1.1036  0.1265  0.1306
  991MOL0     C33663   6.134   4.759   3.508 -0.6325  0.1745 -0.2927
  991MOL0     C33664   6.279   4.763   3.560  0.5284 -0.1723 -0.2602
  991MOL0     C33665   6.326   4.629   3.623 -0.1789 -0.7738  0.3607
  991MOL0     C33666   6.336   4.625   3.778 -0.7838 -0.5677 -0.2191
  991MOL0     N33667   6.204   4.616   3.832 -0.3164 -0.6267  0.4763
  991MOL0     C33668   6.134   4.725   3.866  0.0433 -0.1576 -0.3299
  991MOL0     C33669   6.009   4.677   3.888 -0.7533 -0.5069  0.1359
  991MOL0     C33670   5.890   4.766   3.904  0.7831  0.9843 -0.2385
  991MOL0     C33671   5.759   4.707   3.858  0.4424 -0.4703  0.4222
  991MOL0     C33672   5.709   4.582   3.929 -0.3979  0.4292  0.1867
  991MOL0     C33673   5.556   4.555   3.926  0.4908  1.0377  0.4202
  991MOL0     O33674   5.503   4.547   3.787  0.4733 -0.4051  0.4485
  991MOL0     C33675   5.366   4.540   3.775 -0.4268 -1.2238  0.1484
  991MOL0     C33676   5.269   4.520   3.882 -0.0783 -0.9475  0.6191
  991MOL0     C33677   5.132   4.506   3.855  0.1662  0.2520 -1.3997
  991MOL0     C33678   5.049   4.484   3.980 -0.7283 -0.4445 -0.2013
  991MOL0     C33679   5.087   4.502   3.716  0.0139  0.3376 -0.1125
  991MOL0     C33680   4.941   4.479   3.679 -0.8271  0.1290 -0.0251
  991MOL0     O33681   4.919   4.426   3.558 -0.1702  0.5629  0.3750
  991MOL0     C33682   4.788   4.385   3.516  0.0228 -0.4440  0.4313
  991MOL0     C33683   4.774   4.280   3.431 -0.2995  0.1832  1.0631
  991MOL0     C33684   4.650   4.235   3.383 -0.8041 -0.1640 -0.5715
  991MOL0     C33685   4.536   4.305   3.435  0.8067  0.8688  1.4975
  991MOL0     O33686   4.403   4.284   3.393  0.3991  0.6017  0.5023
  991MOL0     C33687   4.364   4.165   3.328  0.0281  0.2167 -0.2105
  991MOL0     C33688   4.219   4.132   3.343 -0.7253 -0.2578  0.3552
  991MOL0     C33689   4.133   4.252   3.289  0.0923 -0.1424  0.2483
  991MOL0     C33690   3.987   4.232   3.319  0.7210 -1.3595 -0.0742
  991MOL0     C33691   3.911   4.361   3.277  0.0393  0.6547 -0.7868
  991MOL0     C33692   3.760   4.353   3.303  0.2524  0.4033  0.3767
  991MOL0     C33693   3.701   4.478   3.249 -0.5791  0.7349 -0.0794
  991MOL0     C33694   3.550   4.500   3.278  0.4062 -0.2474 -0.0471
  991MOL0    Cl33695   3.494   4.653   3.213 -0.1346  0.1055 -0.2192
  991MOL0     C33696   4.548   4.409   3.522  0.1069 -0.3966  0.4352
  991MOL0     C33697   4.675   4.448   3.553  0.1021 -0.7360  0.3373
  991MOL0     O33698   4.860   4.509   3.766 -0.1609 -0.4344  0.7352
  991MOL0     C33699   5.181   4.512   3.612 -0.1483  0.8441 -0.2876
  991MOL0     C33700   5.316   4.530   3.645  0.4027 -0.3601 -0.4435
  991MOL0     N33701   6.014   4.544   3.883  0.1548 -0.3118  0.3357
  991MOL0     N33702   6.130   4.501   3.830 -0.0804  0.0651 -1.8447
  991MOL0     C33703   5.479   5.111   3.348 -0.7956  0.2796 -0.0840
  991MOL0     C33704   5.345   5.083   3.318  0.1933  0.1543  0.3777
  991MOL0     C33705   4.929   4.861   3.293  0.8862 -0.4927 -0.2964
  991MOL0     C33706   4.842   4.752   3.307  0.4126 -0.0885 -0.3721
  991MOL0     C33707   4.699   4.768   3.291 -0.3340 -0.1923 -0.6657
  991MOL0     C33708   4.657   4.896   3.262 -0.2440  1.2261  0.1123
  991MOL0     O33709   4.521   4.903   3.266 -0.4902 -0.5966  0.6356
  991MOL0     C33710   4.447   5.019   3.225 -0.5755  0.2657  0.2296
  991MOL0     C33711   4.335   4.981   3.138  0.4909 -0.1636 -0.2516
  991MOL0     C33712   4.252   5.104   3.120 -0.1946  0.2965 -0.1758
  991MOL0     C33713   4.138   5.060   3.030  0.1593 -0.5541  0.1552
  991MOL0     C33714   4.078   5.183   2.980  0.1583  0.1107  1.0083
  991MOL0     C33715   4.030   5.285   2.950  0.4939 -0.3916 -0.3789
  991MOL0     C33716   4.749   4.996   3.235 -0.2389  0.2191 -0.2415
  991MOL0     C33717   4.881   4.984   3.245  0.1326  0.4331 -0.2183
  991MOL0     H33718   5.294   4.808   3.508 -1.4971  1.5546  0.9980
  991MOL0     H33719   5.512   4.853   3.578 -0.0325  0.3522  0.5828
  991MOL0     H33720   5.742   5.027   3.281 -2.4317  1.0340 -0.6662
  991MOL0     H33721   5.731   5.188   3.366 -3.5620 -0.7923  0.0843
  991MOL0     H33722   5.981   5.098   3.334  0.8329  0.5689  0.4590
  991MOL0     H33723   5.945   5.129   3.494  0.7356 -1.1331  1.0694
  991MOL0     H33724   5.907   4.917   3.571 -2.9910 -0.9181 -0.1323
  991MOL0     H33725   5.892   4.845   3.412 -0.0013  0.9334 -0.1656
  991MOL0     H33726   6.114   4.918   3.362 -2.9650  1.8704 -0.1819
  991MOL0     H33727   6.132   4.976   3.530 -1.4061 -0.2775  0.8355
  991MOL0     H33728   6.066   4.723   3.586  0.3324  0.4165  0.7003
  991MOL0     H33729   6.136   4.687   3.426  2.0190 -0.9454  0.6331
  991MOL0     H33730   6.343   4.788   3.475  1.3301 -0.2217  0.3128
  991MOL0     H33731   6.286   4.844   3.634 -1.3283 -0.0461 -0.1761
  991MOL0     H33732   6.267   4.546   3.584  1.3447 -1.4863 -0.5453
  991MOL0     H33733   6.426   4.605   3.586  0.1867 -1.7640  1.9298
  991MOL0     H33734   6.391   4.705   3.827 -3.0275 -1.0348  3.4327
  991MOL0     H33735   6.394   4.538   3.808  3.8179  1.2043 -2.9951
  991MOL0     H33736   6.161   4.830   3.858  2.1021 -0.5159  1.2678
  991MOL0     H33737   5.879   4.784   4.011 -1.1976  2.2415 -0.5988
  991MOL0     H33738   5.906   4.864   3.857 -1.6097  0.9227 -1.3001
  991MOL0     H33739   5.770   4.687   3.751  1.3872  2.9681 -0.2352
  991MOL0     H33740   5.679   4.779   3.877  1.7605  0.8138  1.2906
  991MOL0     H33741   5.744   4.590   4.032 -0.7003  2.9564  0.1686
  991MOL0     H33742   5.751   4.495   3.879 -2.9294 -0.7819  0.0161
  991MOL0     H33743   5.503   4.625   3.990 -1.8214 -0.7041  0.5506
  991MOL0     H33744   5.532   4.457   3.968  0.7142 -0.3167 -2.3500
  991MOL0     H33745   5.301   4.529   3.985  0.5589  0.3771  0.3285
  991MOL0     H33746   4.993   4.571   4.014 -1.6425 -1.6520  1.5934
  991MOL0     H33747   4.975   4.405   3.964  1.0773 -2.1102 -0.7177
  991MOL0     H33748   5.109   4.436   4.058 -0.2793 -1.1401 -0.9540
  991MOL0     H33749   4.868   4.233   3.402 -1.3132 -1.1591 -0.1987
  991MOL0     H33750   4.636   4.153   3.313  0.1250 -1.3626  0.6000
  991MOL0     H33751   4.387   4.178   3.222  2.6973 -0.8721  0.1674
  991MOL0     H33752   4.430   4.084   3.360  0.0010 -0.3086 -1.4222
  991MOL0     H33753   4.188   4.045   3.284 -0.6381  1.4744 -2.4168
  991MOL0     H33754   4.194   4.107   3.447  0.6524 -1.2095  0.4924
  991MOL0     H33755   4.134   4.259   3.180 -2.6662 -1.5639  0.0354
  991MOL0     H33756   4.180   4.341   3.332 -0.1944  0.9226 -1.5526
  991MOL0     H33757   3.943   4.140   3.278 -0.7993 -0.5587 -0.3075
  991MOL0     H33758   3.976   4.222   3.427  1.8342 -3.6503 -0.1167
  991MOL0     H33759   3.931   4.376   3.170 -1.8717 -3.5957 -1.9472
  991MOL0     H33760   3.950   4.440   3.342  0.7359 -3.7984  5.0926
  991MOL0     H33761   3.724   4.262   3.255 -0.5927  0.3288  1.1294
  991MOL0     H33762   3.734   4.346   3.409 -1.4670  4.5092  0.4181
  991MOL0     H33763   3.695   4.469   3.140 -0.0166  0.1642 -0.0659
  991MOL0     H33764   3.754   4.565   3.289  0.8603 -0.5035  0.7518
  991MOL0     H33765   3.525   4.505   3.384  0.4460  0.8628 -0.0781
  991MOL0     H33766   3.493   4.412   3.244  0.1289  0.1320 -0.5802
  991MOL0     H33767   4.466   4.467   3.562  0.6216  0.4549  0.2832
  991MOL0     H33768   4.683   4.543   3.606  0.4105  1.0224 -2.6633
  991MOL0     H33769   5.151   4.501   3.508 -0.6240 -0.9847 -0.0007
  991MOL0     H33770   5.394   4.523   3.569  0.8476 -0.1366 -0.0121
  991MOL0     H33771   5.521   5.203   3.308 -4.1288  2.1086  0.3069
  991MOL0     H33772   5.287   5.152   3.258  0.2663  1.3395  1.6028
  991MOL0     H33773   4.887   4.655   3.330  0.7847  0.5194  1.6959
  991MOL0     H33774   4.631   4.685   3.311  0.4161 -0.1343  2.6871
  991MOL0     H33775   4.402   5.070   3.311 -1.7755 -1.2653  0.5481
  991MOL0     H33776   4.506   5.092   3.169 -0.5122 -0.1349 -0.2324
  991MOL0     H33777   4.291   4.901   3.198 -0.2491  1.5461  1.6063
  991MOL0     H33778   4.374   4.942   3.044 -1.6867 -1.3773 -0.7107
  991MOL0     H33779   4.302   5.187   3.070 -3.1145  0.3920 -3.2419
  991MOL0     H33780   4.203   5.136   3.212 -1.7915 -2.7975  0.1617
  991MOL0     H33781   4.070   4.993   3.083 -1.1041 -0.3825 -1.1860
  991MOL0     H33782   4.170   4.998   2.945  0.3495  1.2642 -1.1527
  991MOL0     H33783   3.992   5.379   2.916  0.4152 -0.2047  0.2302
  991MOL0     H33784   4.708   5.090   3.199 -3.0057 -1.8065 -2.9344
  991MOL0     H33785   4.955   5.060   3.221  0.4607 -0.1865 -1.2132
  992MOL0     O33786  11.236   4.601   4.896 -0.2063 -0.2328  0.4344
  992MOL0     C33787  11.254   4.535   4.993 -0.1724 -0.3477  0.4012
  992MOL0     O33788  11.175   4.438   5.040 -0.6450  0.1786 -0.0899
  992MOL0     C33789  11.069   4.401   4.964  0.3924  0.1184 -0.2690
  992MOL0     C33790  10.957   4.483   4.934 -0.2472 -0.2745  0.0409
  992MOL0     C33791  10.857   4.427   4.845 -0.1344 -0.6807 -0.4993
  992MOL0     C33792  10.859   4.300   4.795 -1.2995 -0.4414 -0.1416
  992MOL0     O33793  10.760   4.255   4.713  0.3182 -0.4618  0.5869
  992MOL0     C33794  10.784   4.144   4.623 -0.2077  0.0868  0.0887
  992MOL0     C33795  10.670   4.140   4.517 -0.1102  0.3822  0.5139
  992MOL0     C33796  10.531   4.135   4.584 -0.5831  0.4595  0.2103
  992MOL0     C33797  10.427   4.074   4.497 -0.1537  0.2578  1.0307
  992MOL0     C33798  10.302   4.068   4.580 -0.1554  0.5525  0.0613
  992MOL0     C33799  10.197   3.983   4.512 -0.1863  0.6968 -0.5627
  992MOL0     C33800  10.054   3.964   4.565 -0.2546 -0.0480  0.5771
  992MOL0     C33801   9.990   3.833   4.508  0.1598 -0.1690  0.7309
  992MOL0     N33802   9.843   3.843   4.504 -0.0518 -0.8275 -0.6033
  992MOL0     C33803   9.754   3.789   4.591 -0.4919 -0.7376 -0.7660
  992MOL0     C33804   9.634   3.830   4.545  0.0909 -0.5180 -0.0141
  992MOL0     C33805   9.500   3.812   4.615 -0.1422  0.1569 -0.5713
  992MOL0     C33806   9.419   3.703   4.544  0.2670 -0.3429 -0.1130
  992MOL0     C33807   9.279   3.677   4.598 -0.2970  0.6499  0.2195
  992MOL0     C33808   9.208   3.574   4.506 -0.2455 -0.0732  0.0141
  992MOL0     O33809   9.251   3.440   4.550  0.3517 -0.4592  0.4199
  992MOL0     C33810   9.269   3.336   4.460 -0.3167 -0.9152 -0.0570
  992MOL0     C33811   9.336   3.219   4.512 -1.0332 -0.2533 -0.0327
  992MOL0     C33812   9.383   3.122   4.429 -0.4977  0.5477  0.4980
  992MOL0     C33813   9.466   3.015   4.495  0.0382  0.3718 -0.0506
  992MOL0     C33814   9.361   3.132   4.288  0.0607 -0.2584 -0.3151
  992MOL0     C33815   9.407   3.035   4.185  0.3755  0.1588 -0.1061
  992MOL0     O33816   9.395   3.077   4.054 -0.1997  0.2094 -0.8511
  992MOL0     C33817   9.421   2.996   3.942  0.0529  0.6071  0.1856
  992MOL0     C33818   9.399   2.854   3.942 -0.4635  0.1178  0.1759
  992MOL0     C33819   9.448   2.780   3.832  0.1092 -0.3066  0.3210
  992MOL0     C33820   9.505   2.842   3.712  0.2520 -0.0039 -0.0626
  992MOL0     O33821   9.547   2.772   3.601  0.2172 -0.7984  0.4858
  992MOL0     C33822   9.507   2.643   3.574 -0.3398 -0.0688  0.6477
  992MOL0     C33823   9.528   2.619   3.421 -0.1464  0.1498  0.0942
  992MOL0     C33824   9.676   2.614   3.379  0.0563  0.2714 -0.1213
  992MOL0     C33825   9.703   2.733   3.285  0.1823 -0.9399  0.1325
  992MOL0     C33826   9.842   2.718   3.223 -0.0353 -0.1739  0.2952
  992MOL0     C33827   9.869   2.839   3.140  0.3011  0.8390 -0.0813
  992MOL0     C33828   9.979   2.836   3.027  0.4112 -0.2289  0.2124
  992MOL0     C33829  10.118   2.789   3.074 -0.6336 -0.1565 -0.1271
  992MOL0    Cl33830  10.184   2.907   3.173 -0.2079  0.2725  0.2136
  992MOL0     C33831   9.504   2.985   3.709 -0.1001  0.2795  0.5824
  992MOL0     C33832   9.464   3.057   3.819 -0.0676  0.2424 -0.4142
  992MOL0     O33833   9.457   2.928   4.221  0.2728  0.0705 -0.4920
  992MOL0     C33834   9.280   3.240   4.245 -0.1285  0.5899  0.7174
  992MOL0     C33835   9.241   3.340   4.327 -0.1160 -0.6255 -0.8859
  992MOL0     N33836   9.652   3.897   4.424 -0.3423  0.1918 -0.2470
  992MOL0     N33837   9.776   3.907   4.403 -0.5547 -0.1288  0.9132
  992MOL0     C33838  10.967   4.222   4.838 -0.2633  0.5282  0.0452
  992MOL0     C33839  11.070   4.273   4.919 -0.6114  0.0961  0.4213
  992MOL0     C33840  11.371   4.572   5.078  0.2913  0.1047  0.3360
  992MOL0     C33841  11.466   4.653   5.041 -0.3864  0.2079  0.0219
  992MOL0     C33842  11.570   4.683   5.124 -0.8464  0.1089 -0.5018
  992MOL0     C33843  11.584   4.620   5.245 -1.1342 -0.0762  0.3188
  992MOL0     O33844  11.699   4.654   5.314  0.0741  0.4437 -0.3329
  992MOL0     C33845  11.710   4.613   5.453 -0.1976  0.3302 -0.0838
  992MOL0     C33846  11.851   4.664   5.493 -0.4475 -1.1596  0.6653
  992MOL0     C33847  11.951   4.572   5.430 -0.8911 -0.6031 -0.5319
  992MOL0     C33848  12.090   4.619   5.456 -0.9476 -0.0550 -0.1098
  992MOL0     C33849  12.195   4.532   5.391 -0.3464 -0.8000  0.5227
  992MOL0     C33850  12.282   4.476   5.339  0.2316 -0.3982 -0.5517
  992MOL0     C33851  11.486   4.529   5.295 -0.2704  0.8398 -0.1460
  992MOL0     C33852  11.383   4.508   5.208 -0.7750  0.0691 -0.2955
  992MOL0     H33853  10.956   4.584   4.974 -3.3311 -0.5480  0.9267
  992MOL0     H33854  10.767   4.485   4.822  0.1165  0.1766  0.6048
  992MOL0     H33855  10.884   4.160   4.581 -0.3038  1.2438  0.2628
  992MOL0     H33856  10.772   4.054   4.683  0.8865 -1.0689 -1.3445
  992MOL0     H33857  10.676   4.233   4.459  0.6261  0.5869  0.9058
  992MOL0     H33858  10.682   4.052   4.453 -0.5601 -0.2438  1.2602
  992MOL0     H33859  10.539   4.074   4.674 -1.0617 -1.8016 -1.1923
  992MOL0     H33860  10.494   4.233   4.614 -2.1863 -0.5290  1.6133
  992MOL0     H33861  10.410   4.138   4.410  0.0341 -0.1506  0.6867
  992MOL0     H33862  10.450   3.974   4.459  1.9092  1.1285 -0.1428
  992MOL0     H33863  10.328   4.017   4.673 -0.2748 -0.0741 -0.2431
  992MOL0     H33864  10.258   4.167   4.597 -2.5579 -0.1785 -1.3814
  992MOL0     H33865  10.186   4.020   4.409 -0.3788  1.2663 -0.3386
  992MOL0     H33866  10.247   3.888   4.489  0.5362  1.1035 -0.6863
  992MOL0     H33867  10.051   3.965   4.674  2.8148 -0.7443  0.7622
  992MOL0     H33868   9.991   4.051   4.545  1.3573  1.3746  1.5176
  992MOL0     H33869  10.026   3.742   4.556  0.4631 -0.7186 -0.4819
  992MOL0     H33870  10.025   3.832   4.404  1.0072 -0.5293  1.0149
  992MOL0     H33871   9.782   3.726   4.675 -0.3575  2.1061  1.4592
  992MOL0     H33872   9.513   3.789   4.721 -0.6863 -0.7090 -0.6765
  992MOL0     H33873   9.446   3.907   4.623  0.4541  0.3868  1.1441
  992MOL0     H33874   9.477   3.610   4.554  0.7161 -0.4711 -3.0136
  992MOL0     H33875   9.408   3.724   4.438  4.4002  1.1164 -0.4378
  992MOL0     H33876   9.232   3.776   4.604 -1.2031  0.3669 -1.4193
  992MOL0     H33877   9.292   3.642   4.701  0.3400  2.7459  0.8968
  992MOL0     H33878   9.217   3.610   4.403 -2.6372  2.7208  0.6521
  992MOL0     H33879   9.104   3.594   4.531 -1.0163 -2.8747 -0.6862
  992MOL0     H33880   9.353   3.215   4.619 -0.3095 -0.7825 -0.1571
  992MOL0     H33881   9.409   2.922   4.484 -2.9661  2.0929 -0.1768
  992MOL0     H33882   9.563   3.009   4.446  0.7309  3.6944  0.6780
  992MOL0     H33883   9.488   3.032   4.600  1.3019 -0.1832 -0.2099
  992MOL0     H33884   9.348   2.804   4.024  1.7008 -0.8385  0.9978
  992MOL0     H33885   9.450   2.672   3.842 -1.5294 -0.7785 -2.9547
  992MOL0     H33886   9.568   2.566   3.621  0.4787 -0.6381 -1.2300
  992MOL0     H33887   9.403   2.622   3.600 -0.8944 -0.6122 -1.7081
  992MOL0     H33888   9.494   2.516   3.412  2.2237 -0.7861  1.1128
  992MOL0     H33889   9.473   2.693   3.363 -1.3404 -1.1818 -0.5256
  992MOL0     H33890   9.686   2.526   3.314  2.1266 -0.1897  0.7410
  992MOL0     H33891   9.747   2.587   3.457 -2.3531 -0.9366  1.7808
  992MOL0     H33892   9.619   2.743   3.217 -0.2732 -2.1481  0.4964
  992MOL0     H33893   9.698   2.826   3.342 -0.3073 -0.1939 -1.0800
  992MOL0     H33894   9.837   2.627   3.163 -2.1924 -0.5220  0.8941
  992MOL0     H33895   9.921   2.700   3.297  0.9580 -0.9532 -0.9063
  992MOL0     H33896   9.777   2.867   3.089  0.5790 -0.0344 -1.0925
  992MOL0     H33897   9.909   2.920   3.203  0.5191  0.5173  0.1989
  992MOL0     H33898   9.982   2.936   2.984  0.8644  0.1553  1.1165
  992MOL0     H33899   9.944   2.769   2.948  1.3312  0.0918 -0.4835
  992MOL0     H33900  10.188   2.777   2.990 -0.7542 -2.5449  0.0675
  992MOL0     H33901  10.116   2.696   3.131 -1.4602  0.1069  0.2806
  992MOL0     H33902   9.548   3.034   3.622  0.0373  0.3268  0.6783
  992MOL0     H33903   9.469   3.165   3.820 -4.2601  0.6363 -1.5227
  992MOL0     H33904   9.251   3.237   4.140 -3.7504 -0.4485  1.6170
  992MOL0     H33905   9.196   3.431   4.287 -0.3725 -0.8830 -1.1867
  992MOL0     H33906  10.969   4.117   4.812 -2.1542  0.3392  0.5063
  992MOL0     H33907  11.135   4.193   4.953 -0.3451 -2.1641 -4.5839
  992MOL0     H33908  11.462   4.715   4.952 -1.1753  0.4747  0.2402
  992MOL0     H33909  11.641   4.753   5.081 -1.6215  0.3911 -1.3693
  992MOL0     H33910  11.633   4.661   5.515  1.5595  3.6629 -0.2061
  992MOL0     H33911  11.716   4.504   5.458 -1.2442 -0.0211 -3.9772
  992MOL0     H33912  11.868   4.659   5.601 -0.4083 -0.5405  0.6905
  992MOL0     H33913  11.862   4.771   5.474  2.4400 -0.9494  2.9512
  992MOL0     H33914  11.938   4.564   5.321  0.7451 -1.2576 -0.7205
  992MOL0     H33915  11.942   4.469   5.465 -0.7760 -0.8652 -1.2437
  992MOL0     H33916  12.106   4.619   5.564  0.6161 -0.4533 -0.3067
  992MOL0     H33917  12.097   4.721   5.418  0.9695 -0.3199 -0.5698
  992MOL0     H33918  12.353   4.407   5.297 -0.0625 -1.5171  0.7174
  992MOL0     H33919  11.496   4.461   5.379 -1.9536 -3.6402 -3.1862
  992MOL0     H33920  11.306   4.436   5.234 -0.2456 -0.9976 -1.6281
  993MOL0     O33921   5.698  10.565   1.062  0.4890 -0.4889  0.2832
  993MOL0     C33922   5.700  10.465   1.135  0.7477 -0.2400 -0.0096
  993MOL0     O33923   5.584  10.388   1.160 -0.9265 -0.4962  0.5042
  993MOL0     C33924   5.465  10.427   1.101  0.3977 -0.5951 -0.1505
  993MOL0     C33925   5.416  10.560   1.100 -0.6033 -0.4560 -0.1361
  993MOL0     C33926   5.301  10.598   1.031 -0.3375 -0.4896 -0.3898
  993MOL0     C33927   5.223  10.501   0.964  0.1065  0.1370 -0.8309
  993MOL0     O33928   5.112  10.536   0.895 -0.0237 -0.6436  0.0546
  993MOL0     C33929   5.131  10.639   0.794  0.2209  0.0591 -0.2896
  993MOL0     C33930   4.992  10.645   0.715 -0.2107  0.1949 -0.8107
  993MOL0     C33931   4.974  10.521   0.630  0.2468 -0.1580  0.1028
  993MOL0     C33932   4.957  10.386   0.695 -0.2059 -0.1855 -0.3015
  993MOL0     C33933   4.913  10.286   0.591 -0.0038  0.3827 -0.1883
  993MOL0     C33934   4.862  10.152   0.651 -0.2987  0.0275  0.4109
  993MOL0     C33935   4.717  10.148   0.702 -0.0633  0.0769 -0.5975
  993MOL0     C33936   4.647  10.017   0.735 -0.2227 -0.2050  0.7497
  993MOL0     N33937   4.498  10.035   0.772 -0.2048 -0.5312  0.0806
  993MOL0     C33938   4.449  10.120   0.866 -0.1458 -0.3923  0.7042
  993MOL0     C33939   4.320  10.143   0.841 -0.5232 -0.5049  0.1930
  993MOL0     C33940   4.237  10.239   0.917 -0.2403  0.0816 -0.0783
  993MOL0     C33941   4.175  10.341   0.817 -0.9378 -0.1947  0.2220
  993MOL0     C33942   4.083  10.444   0.891  0.0022 -0.0109  0.4180
  993MOL0     C33943   4.041  10.564   0.810 -0.1171  0.1428  0.8685
  993MOL0     O33944   4.005  10.523   0.679  0.0437  0.0995  0.5270
  993MOL0     C33945   3.876  10.480   0.649  0.1578 -0.0228 -0.5348
  993MOL0     C33946   3.852  10.445   0.521  0.7023  0.2537  0.4915
  993MOL0     C33947   3.721  10.400   0.479 -0.5827 -0.5885  0.2478
  993MOL0     C33948   3.701  10.364   0.331 -0.6088  0.1676  0.2707
  993MOL0     C33949   3.618  10.414   0.569  0.4233  1.1580 -0.2819
  993MOL0     C33950   3.478  10.397   0.528  0.3325 -0.2023  1.3254
  993MOL0     O33951   3.420  10.457   0.430  0.1461 -0.1374 -0.3569
  993MOL0     C33952   3.293  10.420   0.394  0.6858  0.1032 -0.6615
  993MOL0     C33953   3.210  10.529   0.356  0.0497 -0.2920 -0.2348
  993MOL0     C33954   3.075  10.498   0.313 -0.3288 -0.0756  0.3005
  993MOL0     C33955   3.029  10.370   0.287 -0.7973 -0.0386 -0.1836
  993MOL0     O33956   2.903  10.358   0.250 -0.7715 -0.1603  0.4118
  993MOL0     C33957   2.896  10.288   0.130 -0.3287 -0.3282  1.0010
  993MOL0     C33958   2.749  10.296   0.074  0.0910 -0.0084  0.4885
  993MOL0     C33959   2.708  10.440   0.039  0.0967  0.4177  0.4208
  993MOL0     C33960   2.554  10.455  -0.001  0.4722  0.4825  0.3090
  993MOL0     C33961   2.521  10.398  -0.139  0.2977 -0.4917 -0.6640
  993MOL0     C33962   2.451  10.261  -0.127 -0.9086  0.3680 -0.1881
  993MOL0     C33963   2.415  10.203  -0.261  0.6941 -0.4929  0.0768
  993MOL0     C33964   2.360  10.060  -0.256  0.0315 -0.3640 -0.3000
  993MOL0    Cl33965   2.216  10.056  -0.149  0.1246 -0.3974 -0.1873
  993MOL0     C33966   3.121  10.267   0.316  0.5627  0.2049 -0.4192
  993MOL0     C33967   3.247  10.283   0.381 -0.2387  0.4819 -0.6070
  993MOL0     O33968   3.420  10.315   0.604  0.7823  0.0943 -0.4257
  993MOL0     C33969   3.643  10.449   0.704  0.1622  0.5588  0.1588
  993MOL0     C33970   3.772  10.480   0.740  0.0177  0.1890 -0.2544
  993MOL0     N33971   4.284  10.060   0.733  0.5308 -0.3810 -0.8229
  993MOL0     N33972   4.392   9.999   0.696 -0.1336  0.4579  0.2007
  993MOL0     C33973   5.270  10.369   0.972 -1.1978  0.4130  0.6290
  993MOL0     C33974   5.384  10.325   1.044  0.5738  0.1713 -0.0543
  993MOL0     C33975   5.827  10.428   1.197 -0.3509 -0.8364  0.5146
  993MOL0     C33976   5.951  10.484   1.150 -0.7522  0.3200 -0.1265
  993MOL0     C33977   6.075  10.429   1.196 -0.1634  0.1800 -0.3899
  993MOL0     C33978   6.082  10.318   1.278  1.0194 -0.0532 -0.2850
  993MOL0     O33979   6.209  10.279   1.318  0.0160  0.2633 -0.5761
  993MOL0     C33980   6.217  10.177   1.422 -0.4413  0.2127 -0.1514
  993MOL0     C33981   6.368  10.128   1.413  0.1872 -0.2896 -0.3596
  993MOL0     C33982   6.469  10.241   1.408  0.7473 -0.0892  0.4398
  993MOL0     C33983   6.617  10.188   1.427 -0.5290 -0.1464 -0.7956
  993MOL0     C33984   6.647  10.115   1.548 -0.7838 -0.0295 -0.7147
  993MOL0     C33985   6.664  10.050   1.652 -0.2090  0.5485  0.0654
  993MOL0     C33986   5.956  10.264   1.313 -0.2423 -0.6919 -0.4424
  993MOL0     C33987   5.831  10.323   1.287  0.2067  0.5206  0.1714
  993MOL0     H33988   5.471  10.647   1.135  0.4983 -1.4266  0.6492
  993MOL0     H33989   5.262  10.699   1.024 -0.2193 -0.4202 -0.0408
  993MOL0     H33990   5.169  10.737   0.825  1.2255 -0.3932 -0.0785
  993MOL0     H33991   5.199  10.608   0.714 -2.5384  0.6510 -3.0783
  993MOL0     H33992   4.917  10.645   0.795  0.9345  1.3141  0.3052
  993MOL0     H33993   4.983  10.740   0.662  2.1577  0.6093 -0.5874
  993MOL0     H33994   4.879  10.542   0.581 -0.4816  0.4297  1.7139
  993MOL0     H33995   5.048  10.510   0.550  0.1585 -1.7092  0.2066
  993MOL0     H33996   5.054  10.346   0.728 -0.3657 -1.3740 -1.1970
  993MOL0     H33997   4.889  10.389   0.781 -0.9202 -0.9197 -0.8279
  993MOL0     H33998   4.845  10.337   0.523  0.7844  1.5282 -0.1391
  993MOL0     H33999   4.995  10.261   0.524 -1.0300 -2.8934 -0.4149
  993MOL0     H34000   4.864  10.075   0.573 -3.2713  1.1927 -0.9647
  993MOL0     H34001   4.929  10.124   0.733  1.7104 -0.1715 -1.2298
  993MOL0     H34002   4.711  10.210   0.792 -0.0215 -0.1099 -0.4660
  993MOL0     H34003   4.669  10.197   0.617 -1.5629  2.0062  1.2420
  993MOL0     H34004   4.706   9.975   0.817  1.4637  2.7444  1.1653
  993MOL0     H34005   4.653   9.950   0.648 -1.9300  0.6529 -0.0685
  993MOL0     H34006   4.507  10.170   0.944  2.0085 -0.6769 -0.6204
  993MOL0     H34007   4.160  10.184   0.972 -1.1234 -0.2450 -1.5815
  993MOL0     H34008   4.299  10.290   0.990  0.1091  1.4783 -1.3014
  993MOL0     H34009   4.123  10.280   0.743 -1.5306  0.5232  0.0242
  993MOL0     H34010   4.256  10.398   0.772 -0.6669  0.9502  2.0358
  993MOL0     H34011   4.121  10.477   0.988 -0.6434 -1.7903  1.3272
  993MOL0     H34012   3.990  10.389   0.907  0.5568 -0.9400  0.5484
  993MOL0     H34013   4.130  10.628   0.810  1.3724 -1.8315  0.3539
  993MOL0     H34014   3.959  10.619   0.856 -2.4448 -1.7804 -0.7104
  993MOL0     H34015   3.927  10.435   0.444  0.2804 -1.4526  0.2530
  993MOL0     H34016   3.654  10.447   0.278  2.6724  1.2198 -1.2758
  993MOL0     H34017   3.798  10.347   0.285 -0.6533 -0.4479  0.3942
  993MOL0     H34018   3.647  10.270   0.313  0.8178 -0.5299 -0.5153
  993MOL0     H34019   3.242  10.632   0.367  0.9652 -0.4796 -1.0048
  993MOL0     H34020   3.000  10.576   0.322 -0.8254 -0.3291 -1.2788
  993MOL0     H34021   2.956  10.338   0.054 -1.6863  1.0458  0.7729
  993MOL0     H34022   2.927  10.184   0.142 -0.7015 -0.6829 -0.7487
  993MOL0     H34023   2.733  10.234  -0.015  0.4445 -1.2671  1.2852
  993MOL0     H34024   2.686  10.259   0.155 -2.2376 -0.7380 -1.5195
  993MOL0     H34025   2.776  10.474  -0.040  0.6520 -0.9654  0.2821
  993MOL0     H34026   2.721  10.508   0.123 -0.5706 -1.9230  2.5316
  993MOL0     H34027   2.496  10.402   0.076  1.6160  0.7859  1.4170
  993MOL0     H34028   2.523  10.559   0.007 -1.5713 -0.1084  0.8267
  993MOL0     H34029   2.612  10.394  -0.200 -1.2879  1.4160 -3.3772
  993MOL0     H34030   2.454  10.470  -0.187  2.0123 -0.6035 -3.4093
  993MOL0     H34031   2.520  10.193  -0.077 -0.4683 -0.0540 -1.3595
  993MOL0     H34032   2.355  10.271  -0.074 -1.6991 -0.6711 -1.3852
  993MOL0     H34033   2.499  10.216  -0.330 -0.6702  0.2775 -1.5463
  993MOL0     H34034   2.344  10.278  -0.298  1.6584  2.0283  2.9240
  993MOL0     H34035   2.441   9.995  -0.221  0.1526 -0.0126  0.0767
  993MOL0     H34036   2.327  10.022  -0.353  0.7365  0.6242 -0.9564
  993MOL0     H34037   3.077  10.168   0.311 -2.2234  1.2981  0.6289
  993MOL0     H34038   3.302  10.194   0.411 -1.6787  0.1089  1.1196
  993MOL0     H34039   3.562  10.458   0.776  0.2498  0.5665  0.2572
  993MOL0     H34040   3.797  10.514   0.840  4.2479  1.7064 -1.6149
  993MOL0     H34041   5.208  10.288   0.934  0.9641 -1.1146  0.1325
  993MOL0     H34042   5.438  10.232   1.058  2.0250  1.2320  1.8662
  993MOL0     H34043   5.947  10.576   1.092 -3.8832 -0.9432 -2.1858
  993MOL0     H34044   6.165  10.479   1.161 -1.3373  0.7398 -2.8277
  993MOL0     H34045   6.187  10.232   1.512 -0.0680  1.6394 -0.8773
  993MOL0     H34046   6.147  10.094   1.410  0.0157  0.0829 -2.4207
  993MOL0     H34047   6.379  10.079   1.315  2.2518 -1.0007  0.1733
  993MOL0     H34048   6.378  10.056   1.495  0.1677 -0.3801 -0.4353
  993MOL0     H34049   6.444  10.312   1.487  1.3535 -0.8062  1.3075
  993MOL0     H34050   6.466  10.290   1.311  2.1371  1.1435  0.9719
  993MOL0     H34051   6.681  10.274   1.402 -0.3460 -0.8749 -2.9986
  993MOL0     H34052   6.634  10.121   1.343 -1.0549 -1.2151 -0.0706
  993MOL0     H34053   6.680   9.988   1.738 -0.5667 -2.0364 -1.6337
  993MOL0     H34054   5.957  10.176   1.377 -0.7143 -2.3644 -2.6176
  993MOL0     H34055   5.735  10.292   1.326  1.2042 -1.9689  0.7942
  994MOL0     O34056   9.580   3.460   2.227  0.5185  0.8650  0.7196
  994MOL0     C34057   9.686   3.401   2.194  0.4418 -0.9264 -0.2935
  994MOL0     O34058   9.775   3.352   2.275  0.3037 -0.0313 -0.4581
  994MOL0     C34059   9.794   3.409   2.394  0.3928 -0.2912 -0.0690
  994MOL0     C34060   9.816   3.549   2.401 -0.0692 -0.6821 -0.7659
  994MOL0     C34061   9.848   3.597   2.532 -0.7731  0.2628  0.3947
  994MOL0     C34062   9.851   3.513   2.646 -0.7430 -0.5652  0.2678
  994MOL0     O34063   9.862   3.585   2.763  0.6279  1.2190 -0.1550
  994MOL0     C34064   9.912   3.524   2.881 -0.5717 -0.4936  0.3331
  994MOL0     C34065   9.913   3.627   2.989  0.2482 -0.2616  0.8620
  994MOL0     C34066   9.918   3.561   3.131  0.1386 -0.1085 -0.1623
  994MOL0     C34067   9.879   3.658   3.245  0.5538 -0.2874  0.8020
  994MOL0     C34068   9.853   3.580   3.375  0.4131  0.4158  0.1721
  994MOL0     C34069   9.989   3.538   3.448  0.4879  0.3579  0.0511
  994MOL0     C34070  10.072   3.660   3.493 -0.2638  0.7412 -0.6283
  994MOL0     C34071  10.003   3.754   3.592 -1.1639 -0.1965  0.8327
  994MOL0     N34072   9.915   3.849   3.523  0.3642 -0.3250  0.0923
  994MOL0     C34073   9.786   3.878   3.563 -0.7370  0.5433  0.3807
  994MOL0     C34074   9.751   3.987   3.494 -0.2971  0.2231 -0.3697
  994MOL0     C34075   9.618   4.067   3.502  0.4100 -0.0452  0.6321
  994MOL0     C34076   9.523   4.006   3.599  0.0695 -0.2957 -0.0167
  994MOL0     C34077   9.380   4.059   3.570 -0.8412 -1.1073  0.3482
  994MOL0     C34078   9.303   4.079   3.691 -0.3429  0.0167  0.3563
  994MOL0     O34079   9.163   4.114   3.656  0.4033 -0.1379 -1.0425
  994MOL0     C34080   9.096   4.149   3.768  0.3079 -0.2443 -0.2024
  994MOL0     C34081   9.090   4.089   3.892 -0.7665 -0.2250  0.7823
  994MOL0     C34082   9.005   4.133   3.989 -0.3438  0.4344 -0.1573
  994MOL0     C34083   9.006   4.070   4.126 -0.5340  0.0636 -0.2865
  994MOL0     C34084   8.920   4.244   3.961 -0.5206  0.3043 -0.2878
  994MOL0     C34085   8.824   4.296   4.055  0.1368 -0.2548 -0.6706
  994MOL0     O34086   8.708   4.331   3.991 -0.3381  0.8661  0.5155
  994MOL0     C34087   8.592   4.337   4.061 -0.8715  0.5387  0.0301
  994MOL0     C34088   8.544   4.251   4.163 -0.4891 -0.2048 -0.3122
  994MOL0     C34089   8.409   4.259   4.215  0.5345  0.2083 -0.0689
  994MOL0     C34090   8.314   4.340   4.150  0.1673 -0.1135 -0.2968
  994MOL0     O34091   8.178   4.340   4.165 -0.4998 -0.4509  0.3696
  994MOL0     C34092   8.109   4.253   4.254 -0.5857  0.6738 -0.8180
  994MOL0     C34093   7.957   4.241   4.214 -0.5771  0.1776 -0.1101
  994MOL0     C34094   7.935   4.199   4.068 -0.5135 -0.4141  0.5587
  994MOL0     C34095   8.002   4.065   4.015 -0.9705 -0.1050  0.6137
  994MOL0     C34096   8.138   4.086   3.943  0.4116 -0.4698 -0.2286
  994MOL0     C34097   8.183   3.955   3.880 -0.1432  0.0268 -0.2917
  994MOL0     C34098   8.313   3.985   3.791 -0.8314  0.3515  0.7797
  994MOL0     C34099   8.431   4.051   3.855 -0.1264 -0.9643  0.2374
  994MOL0    Cl34100   8.515   3.929   3.957 -0.4248  0.0835 -0.1088
  994MOL0     C34101   8.366   4.427   4.050  0.2777  1.0541  0.4117
  994MOL0     C34102   8.494   4.412   4.000  0.4968 -0.5365 -0.7116
  994MOL0     O34103   8.835   4.296   4.174 -0.4555 -0.3618  0.2876
  994MOL0     C34104   8.922   4.295   3.836 -0.9431 -0.4717  0.5886
  994MOL0     C34105   9.012   4.252   3.736 -0.1114  0.4250 -0.9911
  994MOL0     N34106   9.858   4.029   3.424 -0.5126 -0.7990 -0.4074
  994MOL0     N34107   9.962   3.950   3.446  0.3396  0.1178 -1.0304
  994MOL0     C34108   9.850   3.377   2.624  0.3321  0.7745 -0.4121
  994MOL0     C34109   9.816   3.325   2.497  0.3220  0.0164  0.3054
  994MOL0     C34110   9.701   3.379   2.045  0.1975 -0.0952  0.1485
  994MOL0     C34111   9.602   3.418   1.947 -1.0283 -0.5242  0.4177
  994MOL0     C34112   9.642   3.406   1.813  0.2320 -0.1936 -1.2506
  994MOL0     C34113   9.761   3.350   1.764 -0.3076  0.1413  0.4921
  994MOL0     O34114   9.780   3.347   1.627  0.3885 -0.2576 -0.2149
  994MOL0     C34115   9.792   3.213   1.562  0.0258 -0.6943 -0.3228
  994MOL0     C34116   9.668   3.127   1.592  0.3713  0.1380 -0.5065
  994MOL0     C34117   9.529   3.164   1.527  0.9695 -0.0228  0.4226
  994MOL0     C34118   9.413   3.094   1.593 -0.5198  0.2738 -0.4212
  994MOL0     C34119   9.375   3.173   1.713  0.6245 -0.6838  0.3661
  994MOL0     C34120   9.330   3.221   1.815  0.2357 -0.2041  0.9488
  994MOL0     C34121   9.849   3.301   1.859  0.0887  0.9827  0.1936
  994MOL0     C34122   9.821   3.316   1.994 -0.0779  0.2220  0.0811
  994MOL0     H34123   9.808   3.607   2.309 -0.2580 -0.1635 -0.4262
  994MOL0     H34124   9.854   3.705   2.528  0.9432  0.1573 -2.7044
  994MOL0     H34125   9.844   3.444   2.912  2.1798 -2.7358  1.0586
  994MOL0     H34126  10.014   3.486   2.871  0.4859  2.5038 -1.3503
  994MOL0     H34127  10.003   3.688   2.976 -1.6772  3.7447  4.1239
  994MOL0     H34128   9.824   3.690   2.979  0.3442  0.2442  2.7681
  994MOL0     H34129   9.863   3.467   3.143  1.1364 -1.0315 -2.2864
  994MOL0     H34130  10.022   3.534   3.151 -0.1222 -0.3024  0.9963
  994MOL0     H34131   9.952   3.737   3.263 -0.1534  0.0030  2.5506
  994MOL0     H34132   9.782   3.706   3.226  1.1212  1.0883  1.2471
  994MOL0     H34133   9.800   3.644   3.446  0.9843  2.9893 -1.5835
  994MOL0     H34134   9.792   3.493   3.351 -1.5360  1.6760  0.2893
  994MOL0     H34135   9.964   3.482   3.539  0.4175  0.9155  0.3755
  994MOL0     H34136  10.055   3.471   3.391  0.2380  0.3913 -0.2778
  994MOL0     H34137  10.158   3.608   3.538 -0.6550 -1.4281 -2.2235
  994MOL0     H34138  10.102   3.723   3.409 -0.8911 -1.9118 -3.0048
  994MOL0     H34139  10.083   3.815   3.635  0.5789 -1.4387 -0.5061
  994MOL0     H34140   9.957   3.705   3.678  0.2122 -2.8615  0.1561
  994MOL0     H34141   9.728   3.815   3.630 -0.8638 -1.2807 -1.3453
  994MOL0     H34142   9.633   4.168   3.543 -0.7271 -0.8381  3.2323
  994MOL0     H34143   9.577   4.078   3.401  1.4634  0.2937  0.2223
  994MOL0     H34144   9.563   4.028   3.698  0.8913  3.1767 -0.9872
  994MOL0     H34145   9.511   3.900   3.575  1.7798 -0.6346  0.4906
  994MOL0     H34146   9.330   3.986   3.506 -1.0071 -2.3806  1.8560
  994MOL0     H34147   9.391   4.156   3.522  1.7579 -1.3698  0.3012
  994MOL0     H34148   9.358   4.154   3.750 -0.8302  0.4763  0.2362
  994MOL0     H34149   9.304   3.986   3.749 -1.5496 -3.1815 -4.1906
  994MOL0     H34150   9.151   3.999   3.897 -0.7633 -0.2318  0.6042
  994MOL0     H34151   9.074   3.985   4.139 -1.7678 -1.0070 -0.6242
  994MOL0     H34152   9.022   4.152   4.195 -3.1211 -0.4296  1.0022
  994MOL0     H34153   8.903   4.041   4.147 -0.4311 -1.0119 -1.1304
  994MOL0     H34154   8.626   4.196   4.209  2.0910  2.4432 -1.4682
  994MOL0     H34155   8.382   4.195   4.299 -2.9052 -0.2566 -1.3679
  994MOL0     H34156   8.164   4.159   4.267 -2.0531 -0.2005 -0.6652
  994MOL0     H34157   8.096   4.297   4.353  0.6881 -2.0834  0.6793
  994MOL0     H34158   7.908   4.172   4.284 -1.2178 -1.0293 -1.6892
  994MOL0     H34159   7.902   4.335   4.227 -0.3159  0.0996  1.9258
  994MOL0     H34160   7.985   4.279   4.012 -1.2718 -0.3003  0.0375
  994MOL0     H34161   7.829   4.199   4.040 -0.8279 -1.5788  1.6415
  994MOL0     H34162   8.021   3.996   4.099  3.5662  1.0653  0.7955
  994MOL0     H34163   7.938   4.015   3.942  0.4589 -0.2091 -0.6168
  994MOL0     H34164   8.211   4.127   4.014  2.5763 -0.8619 -2.0914
  994MOL0     H34165   8.113   4.153   3.860 -0.6027  1.0323  1.2207
  994MOL0     H34166   8.203   3.889   3.965 -0.0901 -0.8389 -0.9596
  994MOL0     H34167   8.096   3.926   3.822 -1.7010  0.6293  1.6272
  994MOL0     H34168   8.276   4.050   3.711  0.5891  0.7579  0.4342
  994MOL0     H34169   8.354   3.892   3.752  2.3369  1.3264  1.5626
  994MOL0     H34170   8.395   4.133   3.918 -0.6846 -0.7886 -0.3022
  994MOL0     H34171   8.491   4.092   3.772 -0.0805  0.1069  0.7734
  994MOL0     H34172   8.296   4.488   3.995 -1.5554 -1.3007 -0.0518
  994MOL0     H34173   8.519   4.461   3.906  0.0732 -1.8497 -1.5279
  994MOL0     H34174   8.859   4.381   3.819  0.8983  1.7704  4.0170
  994MOL0     H34175   9.010   4.298   3.638 -1.3444 -0.5576 -1.4569
  994MOL0     H34176   9.874   3.311   2.706  0.0182  0.5846 -0.4716
  994MOL0     H34177   9.797   3.220   2.478 -2.0746  0.4535  0.0293
  994MOL0     H34178   9.501   3.457   1.956 -0.9523 -0.1402 -0.3225
  994MOL0     H34179   9.576   3.453   1.741 -1.4189 -1.2480 -0.4919
  994MOL0     H34180   9.811   3.225   1.455 -2.6003  0.1734 -0.7669
  994MOL0     H34181   9.878   3.168   1.613  1.2100  1.8939  0.1240
  994MOL0     H34182   9.647   3.112   1.698  0.4291  0.8311 -0.3923
  994MOL0     H34183   9.689   3.025   1.558  2.8709  0.7249 -0.9857
  994MOL0     H34184   9.529   3.126   1.425  0.9999 -1.9053  1.0804
  994MOL0     H34185   9.515   3.273   1.529 -1.8538 -0.3158  1.0853
  994MOL0     H34186   9.439   2.998   1.638 -0.7254  1.1098  1.5950
  994MOL0     H34187   9.331   3.084   1.520 -0.6097 -1.2173 -0.1464
  994MOL0     H34188   9.294   3.272   1.903  0.4755 -1.4496  1.8003
  994MOL0     H34189   9.933   3.240   1.828  0.5196  1.3926  0.5467
  994MOL0     H34190   9.898   3.284   2.063  0.7430  0.7101 -0.5856
  995MOL0     O34191   8.450   2.349   3.894  0.2681  0.5405  0.6411
  995MOL0     C34192   8.450   2.413   3.790 -0.3569 -0.4424 -0.2880
  995MOL0     O34193   8.343   2.459   3.722  0.3543  0.6803 -0.2332
  995MOL0     C34194   8.220   2.440   3.771 -0.6150  0.1634  0.5637
  995MOL0     C34195   8.130   2.405   3.668 -0.3028 -0.5782 -0.3019
  995MOL0     C34196   7.994   2.385   3.703 -0.5048 -0.4798  0.4211
  995MOL0     C34197   7.950   2.390   3.840 -0.1199  0.0633  0.8316
  995MOL0     O34198   7.821   2.354   3.878 -0.4754 -0.1529 -0.4548
  995MOL0     C34199   7.727   2.313   3.787 -0.0448 -0.1735  0.2828
  995MOL0     C34200   7.592   2.279   3.853  0.2505 -0.0449 -0.2052
  995MOL0     C34201   7.459   2.294   3.762 -0.0093 -0.3799 -0.3638
  995MOL0     C34202   7.336   2.271   3.857 -0.1833 -0.2373 -0.3315
  995MOL0     C34203   7.199   2.272   3.792  0.6893 -0.2970  0.4161
  995MOL0     C34204   7.131   2.409   3.813 -0.2763  0.1421  0.0421
  995MOL0     C34205   6.986   2.399   3.757 -0.4657 -0.3746 -0.0506
  995MOL0     C34206   6.994   2.410   3.604 -0.4183 -0.4504  0.0004
  995MOL0     N34207   6.857   2.434   3.546  0.4463 -0.1726  0.3608
  995MOL0     C34208   6.751   2.359   3.586  0.2687 -0.4768  0.6986
  995MOL0     C34209   6.656   2.429   3.532 -0.2394 -0.0655 -0.1509
  995MOL0     C34210   6.518   2.382   3.534 -0.3127 -0.5046  0.2361
  995MOL0     C34211   6.430   2.466   3.625 -0.3200  0.2382  0.6839
  995MOL0     C34212   6.293   2.401   3.660  0.4943  0.3301  0.6567
  995MOL0     C34213   6.211   2.361   3.539  0.1642  0.3066 -0.5026
  995MOL0     O34214   6.137   2.241   3.567 -0.0379  0.2586 -0.8407
  995MOL0     C34215   5.996   2.246   3.581 -1.0613 -0.5714  0.3011
  995MOL0     C34216   5.935   2.233   3.707 -0.6620  0.5475  0.8028
  995MOL0     C34217   5.795   2.247   3.722  0.1484  0.1522  0.3840
  995MOL0     C34218   5.746   2.223   3.863 -0.2857 -1.1080  0.0581
  995MOL0     C34219   5.713   2.264   3.610 -0.4104 -0.3499 -0.8610
  995MOL0     C34220   5.561   2.270   3.617  0.4532  0.0882 -0.2547
  995MOL0     O34221   5.502   2.337   3.519 -0.0317  0.3651  0.5560
  995MOL0     C34222   5.365   2.349   3.525 -0.2484  0.5261  0.2369
  995MOL0     C34223   5.282   2.263   3.453  0.1764  0.2275 -0.8502
  995MOL0     C34224   5.149   2.282   3.456  0.3363  0.6555  0.7325
  995MOL0     C34225   5.091   2.383   3.530 -0.3089  1.1370  0.5355
  995MOL0     O34226   4.954   2.403   3.515 -0.1812  0.2914  0.1641
  995MOL0     C34227   4.917   2.525   3.450  0.1509 -0.5076 -0.0660
  995MOL0     C34228   4.769   2.527   3.398 -0.4764  0.7403  0.0445
  995MOL0     C34229   4.753   2.415   3.287  0.0165 -0.3498 -0.3510
  995MOL0     C34230   4.611   2.361   3.286 -1.0111  0.4320  0.0805
  995MOL0     C34231   4.605   2.235   3.207  0.0625  0.1568 -0.1716
  995MOL0     C34232   4.480   2.146   3.254 -0.1150 -0.2971 -0.2432
  995MOL0     C34233   4.355   2.164   3.165 -0.2839  0.9520  0.4877
  995MOL0     C34234   4.341   2.047   3.059 -0.4618  0.2771  0.2889
  995MOL0    Cl34235   4.211   2.080   2.943 -0.1573 -0.1816  0.0406
  995MOL0     C34236   5.170   2.452   3.624 -0.1179  0.7590 -0.1353
  995MOL0     C34237   5.308   2.440   3.611  0.6782  0.6788  0.2936
  995MOL0     O34238   5.503   2.203   3.697  0.0665  0.3423 -0.2780
  995MOL0     C34239   5.776   2.284   3.481 -0.0558 -0.3658  0.8489
  995MOL0     C34240   5.918   2.274   3.476 -0.3446  0.0387  0.4892
  995MOL0     N34241   6.696   2.539   3.463  0.3657 -0.3008  0.0675
  995MOL0     N34242   6.823   2.549   3.481  0.6238 -0.8702 -0.0443
  995MOL0     C34243   8.044   2.424   3.935 -1.2793 -0.1377 -0.7045
  995MOL0     C34244   8.175   2.451   3.901 -0.5925  0.7428 -0.3243
  995MOL0     C34245   8.585   2.450   3.745 -0.0553  0.1719  0.1661
  995MOL0     C34246   8.693   2.437   3.833  0.2035 -0.4646  0.6046
  995MOL0     C34247   8.823   2.477   3.802  0.1103 -0.4563 -0.2353
  995MOL0     C34248   8.841   2.530   3.673 -0.3184 -0.2406 -0.2426
  995MOL0     O34249   8.974   2.556   3.645  0.2335  0.0828 -0.2949
  995MOL0     C34250   8.997   2.669   3.563  0.3703  0.4192 -0.1544
  995MOL0     C34251   9.096   2.762   3.622  0.2676 -0.0505 -0.3842
  995MOL0     C34252   9.070   2.798   3.765 -0.0090 -0.9797  0.0079
  995MOL0     C34253   9.106   2.939   3.810  1.1510 -0.9458  0.9128
  995MOL0     C34254   9.001   3.042   3.787  0.7127  0.3573 -0.2547
  995MOL0     C34255   8.920   3.127   3.760 -0.2826 -0.4847  0.5137
  995MOL0     C34256   8.727   2.557   3.588  0.7700  0.0584  0.5481
  995MOL0     C34257   8.601   2.507   3.622 -0.0736 -0.3897  0.7217
  995MOL0     H34258   8.165   2.393   3.566  2.7762 -1.7605  0.7864
  995MOL0     H34259   7.924   2.357   3.625 -0.0400 -4.0282  1.0952
  995MOL0     H34260   7.719   2.389   3.710 -0.9325  0.4388  0.9634
  995MOL0     H34261   7.765   2.228   3.729 -0.5829  0.1261 -0.5187
  995MOL0     H34262   7.597   2.177   3.892  1.3739 -1.2364 -3.1849
  995MOL0     H34263   7.579   2.346   3.938  0.9419  3.8487 -2.8768
  995MOL0     H34264   7.458   2.395   3.722  1.0489  0.2035  1.0159
  995MOL0     H34265   7.469   2.213   3.689  2.1125 -0.8274  0.3668
  995MOL0     H34266   7.345   2.172   3.904  1.0667  0.2954  0.6381
  995MOL0     H34267   7.339   2.353   3.929 -2.8398  2.2164 -2.7959
  995MOL0     H34268   7.190   2.233   3.690  0.5245 -0.1805  0.3850
  995MOL0     H34269   7.148   2.195   3.851  0.1746  1.4520  2.3794
  995MOL0     H34270   7.121   2.445   3.916  1.3621 -0.3645  0.4135
  995MOL0     H34271   7.190   2.483   3.758 -1.0636  1.2991  0.7177
  995MOL0     H34272   6.938   2.301   3.764 -0.6568 -0.6828 -3.6586
  995MOL0     H34273   6.923   2.479   3.798 -0.1250  0.3264 -0.8536
  995MOL0     H34274   7.042   2.329   3.548 -0.8440  1.2593 -3.1048
  995MOL0     H34275   7.051   2.497   3.572 -1.0836 -0.1525 -0.4048
  995MOL0     H34276   6.755   2.271   3.649  2.3456 -0.5353  0.5690
  995MOL0     H34277   6.493   2.384   3.427  3.1595  0.5440 -0.6967
  995MOL0     H34278   6.527   2.280   3.570  3.2047 -0.5572 -0.4890
  995MOL0     H34279   6.404   2.559   3.574 -0.5192  0.1907  0.6954
  995MOL0     H34280   6.484   2.499   3.713  0.6413  0.6382 -0.0354
  995MOL0     H34281   6.232   2.469   3.721  1.6737  3.7075 -1.6803
  995MOL0     H34282   6.319   2.307   3.709 -0.4984 -0.5358 -0.4063
  995MOL0     H34283   6.264   2.347   3.444 -0.4343  1.4090 -1.0230
  995MOL0     H34284   6.137   2.440   3.521 -1.8605 -2.0729 -3.5563
  995MOL0     H34285   6.001   2.226   3.793  1.1785 -1.0823 -0.6311
  995MOL0     H34286   5.662   2.293   3.873  1.7937  1.4424  0.6670
  995MOL0     H34287   5.712   2.119   3.871 -0.1913 -1.0207  1.7984
  995MOL0     H34288   5.815   2.228   3.947 -3.4441  0.7205  2.7781
  995MOL0     H34289   5.322   2.185   3.390  1.9020 -0.2441  0.7249
  995MOL0     H34290   5.081   2.224   3.394  0.4164  1.7230 -0.3896
  995MOL0     H34291   4.946   2.608   3.514 -0.0918  0.2331 -0.9022
  995MOL0     H34292   4.970   2.531   3.354  1.8169  1.3793  0.9015
  995MOL0     H34293   4.700   2.515   3.481 -1.9446 -1.7898 -1.4129
  995MOL0     H34294   4.747   2.627   3.359  1.0962  1.3265  0.5798
  995MOL0     H34295   4.812   2.330   3.322 -0.9405  0.2942  3.2709
  995MOL0     H34296   4.778   2.450   3.186  1.0171 -1.3873 -0.4827
  995MOL0     H34297   4.585   2.345   3.391  0.6343 -1.6922  0.2187
  995MOL0     H34298   4.532   2.423   3.242 -1.1969 -0.1923 -0.4626
  995MOL0     H34299   4.695   2.177   3.232  0.3817  0.6245 -0.2274
  995MOL0     H34300   4.600   2.253   3.099  0.0083 -2.1809 -0.6236
  995MOL0     H34301   4.497   2.038   3.261 -2.3408 -0.8235 -1.7150
  995MOL0     H34302   4.444   2.178   3.352  3.2374  2.3590  0.2898
  995MOL0     H34303   4.361   2.255   3.103  1.2842 -0.1553 -1.0872
  995MOL0     H34304   4.265   2.163   3.227 -0.7569  0.8674 -0.1838
  995MOL0     H34305   4.320   1.949   3.102 -3.7887  0.6526 -0.1512
  995MOL0     H34306   4.436   2.040   3.006 -2.4968 -0.4581 -3.6702
  995MOL0     H34307   5.128   2.527   3.691  3.1245  2.4869  0.1557
  995MOL0     H34308   5.365   2.508   3.673  0.7113  2.5354 -1.6564
  995MOL0     H34309   5.720   2.304   3.391  1.1253  1.7644  0.5177
  995MOL0     H34310   5.977   2.293   3.386  2.8648 -1.6005  2.0633
  995MOL0     H34311   8.015   2.417   4.040 -5.0580 -0.1910 -1.6070
  995MOL0     H34312   8.253   2.461   3.976 -1.9458  1.1636  1.0725
  995MOL0     H34313   8.686   2.395   3.933  0.5175 -1.1254  0.3539
  995MOL0     H34314   8.908   2.472   3.870  0.3538  0.0240 -0.5006
  995MOL0     H34315   9.042   2.631   3.471 -0.3233  2.5845 -1.4726
  995MOL0     H34316   8.903   2.717   3.534 -0.0359  0.3051  0.9467
  995MOL0     H34317   9.082   2.856   3.568 -1.0903  1.8445  3.0073
  995MOL0     H34318   9.194   2.717   3.601  1.1612  1.4028  0.4616
  995MOL0     H34319   9.132   2.723   3.816  0.0434 -1.3396 -0.5635
  995MOL0     H34320   8.965   2.777   3.786  0.3342 -1.7662  0.9963
  995MOL0     H34321   9.194   2.968   3.751  0.7129 -2.8757 -0.7795
  995MOL0     H34322   9.125   2.940   3.918 -2.0183  1.2627  1.6034
  995MOL0     H34323   8.851   3.198   3.721 -1.0146 -2.4259 -1.9976
  995MOL0     H34324   8.739   2.602   3.490 -1.8426  0.3498  0.3054
  995MOL0     H34325   8.516   2.531   3.560  0.7336 -0.0543 -0.2808
  996MOL0     O34326   9.845  11.041   5.446  0.0578  0.1945  0.7182
  996MOL0     C34327   9.880  10.923   5.436 -0.2042  0.1795  1.0592
  996MOL0     O34328   9.797  10.813   5.444 -0.6125  0.1765 -0.2522
  996MOL0     C34329   9.657  10.816   5.467 -0.4955  0.5938 -0.4985
  996MOL0     C34330   9.598  10.685   5.477 -0.4222  0.2448  0.2219
  996MOL0     C34331   9.465  10.679   5.524 -0.0075 -0.2822  0.4412
  996MOL0     C34332   9.388  10.788   5.544  0.0064 -0.3963  0.3045
  996MOL0     O34333   9.260  10.801   5.599  0.3512  0.1541 -0.5406
  996MOL0     C34334   9.219  10.695   5.683  0.0563  0.6557 -0.6353
  996MOL0     C34335   9.102  10.739   5.783 -1.0056  0.0122 -0.0988
  996MOL0     C34336   8.965  10.717   5.710  0.5239 -0.2330 -0.0459
  996MOL0     C34337   8.851  10.752   5.811  0.8298  0.2320 -0.1809
  996MOL0     C34338   8.714  10.737   5.748  0.4297 -0.2595 -0.8592
  996MOL0     C34339   8.606  10.775   5.860  0.1803  0.8314 -0.0016
  996MOL0     C34340   8.464  10.777   5.804 -1.1069 -0.4697  0.5696
  996MOL0     C34341   8.384  10.859   5.898  0.4888 -0.5299  0.2149
  996MOL0     N34342   8.244  10.866   5.863  0.1412  0.4215 -0.3347
  996MOL0     C34343   8.171  10.757   5.823 -0.5941  0.5305 -0.2915
  996MOL0     C34344   8.046  10.807   5.813 -0.1560  0.2159  0.5806
  996MOL0     C34345   7.914  10.745   5.784  0.6133  0.1354  0.0126
  996MOL0     C34346   7.897  10.704   5.643 -0.1343 -0.3744  0.0265
  996MOL0     C34347   7.888  10.820   5.540  0.3136  0.5746 -0.3377
  996MOL0     C34348   7.756  10.913   5.531  0.1360  0.3599 -0.1195
  996MOL0     O34349   7.648  10.820   5.511 -0.1334 -0.0763  0.2589
  996MOL0     C34350   7.523  10.876   5.499 -0.7190 -0.0612 -0.0446
  996MOL0     C34351   7.420  10.788   5.485 -0.1022 -0.0260 -0.0673
  996MOL0     C34352   7.291  10.819   5.476  0.3284  0.4375  0.4468
  996MOL0     C34353   7.194  10.717   5.459  1.1704  0.1832 -0.4742
  996MOL0     C34354   7.257  10.955   5.499  0.0148  0.2128 -0.0465
  996MOL0     C34355   7.116  11.004   5.498  0.5322  0.7207  0.7130
  996MOL0     O34356   7.098  11.116   5.571 -0.6058 -0.5835  0.7622
  996MOL0     C34357   6.969  11.163   5.583 -0.0980 -0.0554 -0.5568
  996MOL0     C34358   6.968  11.303   5.577 -0.3311 -0.5360 -0.1012
  996MOL0     C34359   6.853  11.376   5.601  0.1258 -0.7398  0.1998
  996MOL0     C34360   6.735  11.310   5.629 -0.0366 -0.1171  0.1194
  996MOL0     O34361   6.617  11.364   5.666  0.0801 -1.0637  0.7617
  996MOL0     C34362   6.603  11.510   5.664 -0.3171 -0.6051  0.7744
  996MOL0     C34363   6.455  11.542   5.667  0.5711  0.2549 -0.0800
  996MOL0     C34364   6.363  11.499   5.551  1.4432  0.6295 -0.7433
  996MOL0     C34365   6.277  11.377   5.583  0.0055  0.2703  0.5691
  996MOL0     C34366   6.228  11.318   5.457  0.2949  0.2205  0.0579
  996MOL0     C34367   6.124  11.420   5.401 -0.0589  0.1953  0.0613
  996MOL0     C34368   6.065  11.357   5.278 -1.1463 -0.0628  0.8985
  996MOL0     C34369   6.012  11.461   5.165 -0.3968  0.2805  0.2111
  996MOL0    Cl34370   5.867  11.542   5.240  0.6171  0.2745  0.1805
  996MOL0     C34371   6.728  11.170   5.628 -1.1396  1.0585  0.2338
  996MOL0     C34372   6.848  11.094   5.608  0.0627 -0.2152 -0.0946
  996MOL0     O34373   7.030  10.940   5.432  0.5362 -0.7512  0.0494
  996MOL0     C34374   7.358  11.048   5.516 -0.8561 -0.8761  0.4266
  996MOL0     C34375   7.494  11.019   5.506  0.0002 -0.3250  0.7313
  996MOL0     N34376   8.054  10.943   5.828  1.0627  0.7982  0.2196
  996MOL0     N34377   8.166  10.977   5.860  0.2179 -0.3030  0.0537
  996MOL0     C34378   9.441  10.917   5.509  0.6345  0.4673  0.6483
  996MOL0     C34379   9.581  10.935   5.481 -0.1558 -0.1728 -0.0078
  996MOL0     C34380  10.024  10.900   5.403  1.0259  0.4132  0.4751
  996MOL0     C34381  10.071  10.767   5.379  0.4405  0.7665  0.0726
  996MOL0     C34382  10.207  10.750   5.342  0.2928 -0.7376 -0.8145
  996MOL0     C34383  10.290  10.869   5.340 -0.1198  0.0406 -0.0995
  996MOL0     O34384  10.421  10.841   5.310 -0.7515 -0.1357 -0.5677
  996MOL0     C34385  10.499  10.954   5.270  0.1857 -0.2679  1.1975
  996MOL0     C34386  10.621  10.898   5.191 -0.5525 -0.6989 -0.2179
  996MOL0     C34387  10.695  11.013   5.112 -0.9380 -0.3373 -0.2539
  996MOL0     C34388  10.758  11.114   5.210  0.0420  0.2911  0.1028
  996MOL0     C34389  10.879  11.076   5.300  0.0892 -0.9128  0.6302
  996MOL0     C34390  10.982  11.049   5.356  1.0897  0.1509  0.2506
  996MOL0     C34391  10.242  10.992   5.379 -0.0650 -0.1157  0.2320
  996MOL0     C34392  10.108  11.010   5.403  0.1586 -0.8567  0.0474
  996MOL0     H34393   9.668  10.604   5.460 -2.8252 -1.6394 -1.3398
  996MOL0     H34394   9.430  10.577   5.541 -1.7753  0.2355  0.0632
  996MOL0     H34395   9.178  10.610   5.627  0.5018  0.9167 -1.3674
  996MOL0     H34396   9.299  10.661   5.749  0.3615  2.1563 -0.1924
  996MOL0     H34397   9.100  10.687   5.880 -3.0492  2.7714  1.4665
  996MOL0     H34398   9.126  10.840   5.815  0.9692 -1.4229  3.6274
  996MOL0     H34399   8.958  10.791   5.630  0.4935 -1.1031 -0.8636
  996MOL0     H34400   8.973  10.613   5.678  2.4839 -0.5415  1.2376
  996MOL0     H34401   8.862  10.685   5.897 -2.2347 -1.6569 -1.1181
  996MOL0     H34402   8.864  10.856   5.844  0.8104  0.4849 -0.9486
  996MOL0     H34403   8.688  10.819   5.681 -1.5124  1.7108  2.0151
  996MOL0     H34404   8.698  10.643   5.695 -3.5838 -0.0612 -0.3719
  996MOL0     H34405   8.606  10.706   5.945 -1.0116  2.1356  1.1114
  996MOL0     H34406   8.637  10.868   5.908  1.6582  0.9042 -1.0194
  996MOL0     H34407   8.460  10.821   5.704  0.6838 -2.6255 -0.5358
  996MOL0     H34408   8.422  10.677   5.795 -0.5163 -0.6909  0.1920
  996MOL0     H34409   8.424  10.961   5.893  0.6045 -0.4945  1.3982
  996MOL0     H34410   8.396  10.821   6.000 -0.1388 -0.4935  0.3096
  996MOL0     H34411   8.195  10.651   5.820  0.4568  0.7599 -0.3502
  996MOL0     H34412   7.898  10.659   5.849  2.1561  0.9832  1.5884
  996MOL0     H34413   7.830  10.813   5.805  0.9612  1.9004 -3.5421
  996MOL0     H34414   7.798  10.657   5.635 -0.2450 -0.6308  2.2991
  996MOL0     H34415   7.976  10.633   5.618 -0.3353 -0.8415  0.6964
  996MOL0     H34416   7.891  10.767   5.444 -4.3517 -0.0788 -0.3903
  996MOL0     H34417   7.967  10.896   5.545 -0.9722  2.2435 -2.9229
  996MOL0     H34418   7.765  10.989   5.453  1.8929 -0.9251 -1.2383
  996MOL0     H34419   7.734  10.949   5.632 -0.4255  0.6081 -0.3229
  996MOL0     H34420   7.443  10.685   5.458 -0.2656  0.3110 -1.5904
  996MOL0     H34421   7.225  10.613   5.448 -2.2551 -1.1856  1.2604
  996MOL0     H34422   7.132  10.714   5.549 -0.3337  1.2883 -1.4164
  996MOL0     H34423   7.124  10.734   5.376  0.2258 -0.0079  0.2713
  996MOL0     H34424   7.064  11.353   5.569 -0.1354 -0.9596 -0.5005
  996MOL0     H34425   6.858  11.484   5.595 -2.4764 -0.5653  0.2197
  996MOL0     H34426   6.662  11.557   5.744 -0.1132 -1.4205  1.1179
  996MOL0     H34427   6.645  11.546   5.570 -0.5494  3.0799  1.9381
  996MOL0     H34428   6.409  11.509   5.760 -1.0970  0.8148 -0.6667
  996MOL0     H34429   6.450  11.651   5.665 -0.7181  0.2128 -2.2177
  996MOL0     H34430   6.425  11.485   5.463 -0.3808  3.4627 -2.6675
  996MOL0     H34431   6.291  11.581   5.538 -0.4451 -0.6756  0.8164
  996MOL0     H34432   6.337  11.308   5.644 -2.7609 -1.3106  1.6752
  996MOL0     H34433   6.199  11.389   5.659  1.0226 -2.7972  2.2728
  996MOL0     H34434   6.167  11.228   5.465 -1.6189  1.2200 -1.8735
  996MOL0     H34435   6.305  11.294   5.383 -1.1847 -0.0819 -1.4704
  996MOL0     H34436   6.047  11.446   5.474 -2.8945 -1.8630 -1.9625
  996MOL0     H34437   6.174  11.511   5.367 -0.7830  0.7636  0.5021
  996MOL0     H34438   5.984  11.297   5.320  0.3944 -1.0487  2.6061
  996MOL0     H34439   6.136  11.295   5.221 -1.6797  0.1792 -0.0441
  996MOL0     H34440   5.984  11.408   5.074  1.0698  2.0401 -1.3463
  996MOL0     H34441   6.097  11.522   5.134 -0.2930 -0.8279 -1.8860
  996MOL0     H34442   6.630  11.127   5.642  0.3550 -3.2761 -1.0874
  996MOL0     H34443   6.850  10.986   5.607  0.9190 -0.2284  1.2263
  996MOL0     H34444   7.334  11.152   5.536  2.2041  0.1340 -0.5610
  996MOL0     H34445   7.572  11.095   5.501  2.2201 -2.5148 -2.9101
  996MOL0     H34446   9.370  10.998   5.504 -1.1782 -1.0261  0.9468
  996MOL0     H34447   9.616  11.037   5.473 -1.0380  0.2731  1.4620
  996MOL0     H34448  10.014  10.675   5.374  2.4780 -0.5693  0.0508
  996MOL0     H34449  10.240  10.655   5.301 -2.0910 -2.0891  0.1764
  996MOL0     H34450  10.441  11.025   5.210  1.5419  1.5951  1.9891
  996MOL0     H34451  10.534  11.009   5.358  0.0883 -0.7503  1.5444
  996MOL0     H34452  10.582  10.821   5.124 -2.6311  0.0942  0.0199
  996MOL0     H34453  10.694  10.851   5.258  3.2401  1.7808 -2.2468
  996MOL0     H34454  10.630  11.064   5.039  0.5529  0.6153 -0.9726
  996MOL0     H34455  10.780  10.972   5.058 -0.0576  0.2427  0.6600
  996MOL0     H34456  10.675  11.146   5.273 -0.0041 -0.0723  0.2250
  996MOL0     H34457  10.788  11.206   5.158 -2.0843  0.4700 -0.9294
  996MOL0     H34458  11.070  11.035   5.416  1.3305 -0.2368 -0.1859
  996MOL0     H34459  10.313  11.075   5.385  2.0175 -1.8895  1.8524
  996MOL0     H34460  10.062  11.108   5.408  1.5320 -0.1481 -0.4896
  997MOL0     O34461   7.895  10.859   6.730  0.4470 -0.1186  0.8955
  997MOL0     C34462   7.935  10.926   6.824  0.1037 -1.0112  0.2169
  997MOL0     O34463   7.850  10.981   6.920  0.2344 -0.0319 -0.5906
  997MOL0     C34464   7.719  10.926   6.925  0.3958  0.3314 -0.5649
  997MOL0     C34465   7.700  10.795   6.981  0.5496 -0.5423  0.1579
  997MOL0     C34466   7.561  10.753   7.003  0.0481 -0.0909  1.0422
  997MOL0     C34467   7.451  10.833   6.972  0.0319 -0.9439  0.0416
  997MOL0     O34468   7.321  10.794   7.005  0.2192 -0.1044 -0.6078
  997MOL0     C34469   7.233  10.893   7.059 -0.5008 -0.2219 -0.0027
  997MOL0     C34470   7.263  10.918   7.207  0.2061 -0.0863 -1.2569
  997MOL0     C34471   7.246  10.818   7.324  0.2812 -0.2658  0.0731
  997MOL0     C34472   7.124  10.723   7.297  0.3522  0.0193  0.4085
  997MOL0     C34473   6.992  10.791   7.312 -0.4885  0.9831  0.5893
  997MOL0     C34474   6.882  10.691   7.320 -0.2846  0.3457  0.2579
  997MOL0     C34475   6.748  10.743   7.328 -0.5773  0.2069 -0.5233
  997MOL0     C34476   6.651  10.623   7.353 -0.5894  0.0377 -0.4254
  997MOL0     N34477   6.520  10.675   7.333 -0.4278  0.3713  0.3254
  997MOL0     C34478   6.458  10.709   7.208 -0.1980  0.7480 -1.1917
  997MOL0     C34479   6.325  10.707   7.231  0.4986 -0.2055 -0.2985
  997MOL0     C34480   6.225  10.753   7.135 -0.1788  0.2614  0.2263
  997MOL0     C34481   6.093  10.787   7.216  0.1446  0.2092 -0.0587
  997MOL0     C34482   5.977  10.867   7.152  0.0848 -0.4598 -0.1923
  997MOL0     C34483   5.873  10.902   7.263 -0.1115  0.6202 -0.0089
  997MOL0     O34484   5.791  10.784   7.314 -0.7789 -0.3255 -0.2915
  997MOL0     C34485   5.673  10.823   7.377 -0.8224 -1.2168  0.0931
  997MOL0     C34486   5.586  10.718   7.400 -1.1623 -0.2519 -0.5564
  997MOL0     C34487   5.464  10.743   7.463 -0.3412 -0.2127 -0.0634
  997MOL0     C34488   5.368  10.631   7.479 -0.0829  0.4497 -0.0942
  997MOL0     C34489   5.439  10.869   7.517 -0.1081  0.4293 -0.4637
  997MOL0     C34490   5.318  10.905   7.601 -0.2222 -0.9294  0.8266
  997MOL0     O34491   5.199  10.866   7.561 -0.4711 -0.2955 -0.7245
  997MOL0     C34492   5.090  10.885   7.647 -0.2164  0.3122  0.4467
  997MOL0     C34493   5.025  10.768   7.686  0.2220 -0.1697  0.4634
  997MOL0     C34494   4.895  10.780   7.737 -0.7601 -0.6951 -1.0181
  997MOL0     C34495   4.848  10.909   7.763 -0.1596 -0.7072  0.0576
  997MOL0     O34496   4.720  10.929   7.808  0.2395 -0.3084 -0.8162
  997MOL0     C34497   4.693  10.885   7.939  0.1861 -0.3409  0.5751
  997MOL0     C34498   4.558  10.948   7.991  0.5393  0.4293  0.5149
  997MOL0     C34499   4.445  10.898   7.906 -0.0126 -0.2243  0.0875
  997MOL0     C34500   4.310  10.945   7.954 -0.6823 -0.1061 -0.8894
  997MOL0     C34501   4.203  10.927   7.846 -0.2499  0.1923 -0.2790
  997MOL0     C34502   4.064  10.988   7.872  0.2213  0.3454  0.4656
  997MOL0     C34503   3.986  11.024   7.748 -0.4210  0.2678  0.5774
  997MOL0     C34504   3.848  11.077   7.775  0.7958  0.9313 -0.5292
  997MOL0    Cl34505   3.738  10.939   7.798 -0.2229 -0.2813  0.1803
  997MOL0     C34506   4.906  11.025   7.719  1.0633 -0.6881 -0.0488
  997MOL0     C34507   5.034  11.012   7.665 -0.3889  0.4281  1.1544
  997MOL0     O34508   5.345  10.970   7.700  0.1174  0.1053 -0.1576
  997MOL0     C34509   5.533  10.975   7.497 -0.1282  0.3966 -0.7809
  997MOL0     C34510   5.645  10.953   7.421  0.4229 -0.0912 -0.4751
  997MOL0     N34511   6.304  10.673   7.358 -0.0905 -0.1145  0.6219
  997MOL0     N34512   6.417  10.653   7.417 -0.3525  0.4335  0.3286
  997MOL0     C34513   7.483  10.955   6.916 -0.0144 -0.8249  0.2538
  997MOL0     C34514   7.609  11.007   6.890 -0.7756 -0.2642 -0.3357
  997MOL0     C34515   8.075  10.970   6.814  1.6945 -0.3960 -0.7708
  997MOL0     C34516   8.124  11.065   6.902  0.3820 -0.5677  0.0491
  997MOL0     C34517   8.262  11.093   6.906  0.1934 -0.6561 -0.0485
  997MOL0     C34518   8.356  11.028   6.822  0.3179  0.2697 -0.0106
  997MOL0     O34519   8.493  11.045   6.822  0.2476 -0.9940  0.1880
  997MOL0     C34520   8.557  11.003   6.936 -0.0608 -0.2028 -0.6148
  997MOL0     C34521   8.706  11.023   6.931 -0.0350  0.8124 -0.1618
  997MOL0     C34522   8.764  10.965   6.797 -0.5655 -0.4391 -0.1183
  997MOL0     C34523   8.915  11.004   6.801  0.1388 -0.6676 -0.2266
  997MOL0     C34524   8.966  10.953   6.671 -0.2166  0.6512 -0.6748
  997MOL0     C34525   9.023  10.910   6.572 -0.0872  0.1087 -0.3675
  997MOL0     C34526   8.305  10.930   6.738  0.2353  0.0003  0.1482
  997MOL0     C34527   8.169  10.908   6.729  0.2884 -1.1376  0.0766
  997MOL0     H34528   7.790  10.743   7.014  1.5317  0.4177 -0.9186
  997MOL0     H34529   7.534  10.659   7.049  1.3839 -0.5111  1.0112
  997MOL0     H34530   7.245  10.990   7.010 -2.3620 -0.2616 -0.6210
  997MOL0     H34531   7.132  10.856   7.036  0.6948 -3.1872 -0.9213
  997MOL0     H34532   7.369  10.943   7.219 -0.4336  1.9153  1.4225
  997MOL0     H34533   7.216  11.016   7.221  3.7556  1.9309 -2.2111
  997MOL0     H34534   7.339  10.762   7.340  0.2469 -0.8502 -1.6083
  997MOL0     H34535   7.239  10.872   7.419  2.5760 -2.3704  1.5682
  997MOL0     H34536   7.136  10.676   7.198  2.9127  2.2844 -0.5082
  997MOL0     H34537   7.132  10.651   7.379 -1.1293  1.9047  2.3087
  997MOL0     H34538   6.992  10.847   7.406  1.0638 -1.8488  2.4308
  997MOL0     H34539   6.983  10.859   7.227  1.6686  0.8737  0.2081
  997MOL0     H34540   6.903  10.627   7.233 -0.4799  0.1142  0.3779
  997MOL0     H34541   6.899  10.621   7.403  0.3696 -0.7314 -0.7413
  997MOL0     H34542   6.746  10.809   7.416 -1.7944  1.5620 -1.5307
  997MOL0     H34543   6.726  10.797   7.236  2.4647  2.5001 -0.1056
  997MOL0     H34544   6.665  10.583   7.453 -2.4877 -0.8533 -0.4744
  997MOL0     H34545   6.662  10.534   7.290 -3.4334 -0.6709 -0.0168
  997MOL0     H34546   6.502  10.714   7.109  0.2178  1.1035 -0.9915
  997MOL0     H34547   6.264  10.840   7.081  0.0857 -1.2096 -2.0634
  997MOL0     H34548   6.210  10.679   7.056 -2.0021  2.0250 -1.2013
  997MOL0     H34549   6.123  10.840   7.307 -2.5890 -1.0495  1.7180
  997MOL0     H34550   6.050  10.693   7.252 -0.1879  0.5487  0.4455
  997MOL0     H34551   5.937  10.812   7.067 -1.8908  1.1738 -0.3806
  997MOL0     H34552   6.021  10.960   7.116  1.8409 -1.5277 -0.9609
  997MOL0     H34553   5.805  10.978   7.224 -1.8195  0.1448  1.8352
  997MOL0     H34554   5.918  10.961   7.344  1.6341  2.5975 -2.2897
  997MOL0     H34555   5.623  10.628   7.354  0.4972  1.0543 -1.9301
  997MOL0     H34556   5.394  10.544   7.418 -2.2353 -0.9109  0.8385
  997MOL0     H34557   5.360  10.592   7.580 -1.3897 -0.0552 -0.3728
  997MOL0     H34558   5.269  10.672   7.456  0.0301  2.3578  2.3605
  997MOL0     H34559   5.070  10.670   7.670 -0.0194 -0.5427  1.9338
  997MOL0     H34560   4.828  10.699   7.766 -2.3907  1.3679  1.4433
  997MOL0     H34561   4.691  10.776   7.948 -0.5612 -0.4124 -0.2951
  997MOL0     H34562   4.769  10.917   8.011 -1.8654  2.6278  1.6118
  997MOL0     H34563   4.549  10.913   8.095  0.9587 -0.8713  0.1318
  997MOL0     H34564   4.555  11.057   7.984  0.6949  0.3107 -2.6886
  997MOL0     H34565   4.438  10.789   7.900 -3.2397 -0.0537 -1.1326
  997MOL0     H34566   4.462  10.934   7.804 -2.4998  1.6219  0.2366
  997MOL0     H34567   4.276  10.900   8.048  0.3341 -1.2658 -1.0398
  997MOL0     H34568   4.332  11.048   7.982  0.9641  0.0730 -2.6597
  997MOL0     H34569   4.188  10.821   7.824 -0.9902  0.3328 -0.4927
  997MOL0     H34570   4.234  10.990   7.762  1.5743  0.4731  0.5671
  997MOL0     H34571   4.003  10.925   7.937 -1.3740  0.7723 -0.5524
  997MOL0     H34572   4.081  11.086   7.918  0.7552  0.8615 -0.7879
  997MOL0     H34573   3.986  10.940   7.678 -1.1791  2.5281 -2.3403
  997MOL0     H34574   4.039  11.108   7.702 -0.1082  0.8698  1.9814
  997MOL0     H34575   3.816  11.147   7.698  1.7331  3.0960  0.9508
  997MOL0     H34576   3.841  11.127   7.872 -0.3727 -2.1067  1.0788
  997MOL0     H34577   4.871  11.128   7.723 -0.3353 -1.1786  0.9889
  997MOL0     H34578   5.089  11.092   7.615 -0.3352 -0.4700 -0.2856
  997MOL0     H34579   5.512  11.078   7.526  1.6172  0.4331  0.4782
  997MOL0     H34580   5.712  11.038   7.415 -0.3651  0.8567  2.6107
  997MOL0     H34581   7.401  11.015   6.878  2.2801  1.2862 -1.6798
  997MOL0     H34582   7.636  11.102   6.844 -0.0858 -0.4199 -0.2649
  997MOL0     H34583   8.067  11.122   6.975  3.3664  1.6542  0.8287
  997MOL0     H34584   8.299  11.159   6.985  0.5814 -0.8800 -0.0456
  997MOL0     H34585   8.528  11.052   7.029 -2.4140  0.8530 -1.8091
  997MOL0     H34586   8.533  10.898   6.956 -2.4269  0.0710 -1.6777
  997MOL0     H34587   8.761  10.972   7.010 -0.8299  0.5646  0.2397
  997MOL0     H34588   8.735  11.127   6.946 -0.3745  0.8475  0.2606
  997MOL0     H34589   8.711  11.013   6.714 -0.5756 -0.5849 -0.1955
  997MOL0     H34590   8.750  10.857   6.787 -2.7730 -0.1224 -0.9857
  997MOL0     H34591   8.960  10.956   6.889  4.4248  0.4944 -1.5637
  997MOL0     H34592   8.933  11.112   6.805  1.2952 -0.8425  3.3527
  997MOL0     H34593   9.078  10.864   6.492  1.8898  2.7224 -0.6884
  997MOL0     H34594   8.371  10.882   6.667 -0.1670 -0.4962  0.0963
  997MOL0     H34595   8.134  10.825   6.668 -1.4961 -0.2004 -0.2598
  998MOL0     O34596   3.225   5.739   2.973  0.8241  0.1433 -0.3227
  998MOL0     C34597   3.305   5.737   2.879 -1.1017 -0.3184  0.1189
  998MOL0     O34598   3.272   5.714   2.748  0.1697  0.1601  0.8507
  998MOL0     C34599   3.159   5.643   2.717 -0.8687  0.2762  0.0813
  998MOL0     C34600   3.098   5.671   2.589 -0.8418 -0.3647  0.0331
  998MOL0     C34601   2.975   5.611   2.557  0.1714  0.0494 -0.3063
  998MOL0     C34602   2.910   5.525   2.641  1.1452 -0.3828 -0.6068
  998MOL0     O34603   2.800   5.471   2.594 -0.0064 -0.5445  0.7357
  998MOL0     C34604   2.672   5.460   2.673  1.2257  0.7390 -0.4730
  998MOL0     C34605   2.562   5.439   2.563 -0.6205 -0.1174 -1.2276
  998MOL0     C34606   2.557   5.292   2.512 -0.6802 -0.0176  0.2309
  998MOL0     C34607   2.442   5.272   2.409  0.3329 -0.2740 -0.4614
  998MOL0     C34608   2.427   5.133   2.344 -0.8646 -0.1176  1.2100
  998MOL0     C34609   2.367   5.044   2.446  0.4216  0.4515 -0.0009
  998MOL0     C34610   2.341   4.903   2.374  0.1130  0.1089 -0.4742
  998MOL0     C34611   2.251   4.794   2.449 -0.0806  0.2226 -0.0273
  998MOL0     N34612   2.128   4.843   2.497  0.1031  0.4295 -0.9394
  998MOL0     C34613   2.025   4.895   2.425  0.2002  0.1769 -0.7796
  998MOL0     C34614   1.934   4.944   2.515  0.6613 -0.0945  0.0247
  998MOL0     C34615   1.806   5.018   2.482 -0.4542 -0.1568 -0.0296
  998MOL0     C34616   1.690   4.961   2.556  0.4837 -0.0254 -0.2733
  998MOL0     C34617   1.563   5.033   2.502  0.8770  0.4873 -0.2741
  998MOL0     C34618   1.431   4.967   2.554 -0.9718 -0.8228 -0.1856
  998MOL0     O34619   1.332   5.062   2.581 -0.3049  0.0769  0.2149
  998MOL0     C34620   1.216   5.046   2.505  0.6822 -0.4174  0.4291
  998MOL0     C34621   1.088   5.046   2.562 -0.6044  0.5927 -0.3551
  998MOL0     C34622   0.968   5.037   2.484 -0.6374  0.5244  0.2453
  998MOL0     C34623   0.836   5.073   2.549  0.0189  0.3647 -0.4533
  998MOL0     C34624   0.980   5.014   2.344  0.1458  0.0491  0.6520
  998MOL0     C34625   0.865   4.991   2.244 -0.0466 -0.4791  0.4116
  998MOL0     O34626   0.736   4.979   2.295  0.7593  0.6993  0.7200
  998MOL0     C34627   0.621   4.986   2.218  0.1029  0.6298 -1.4093
  998MOL0     C34628   0.503   5.005   2.290  0.5491 -0.1363 -0.4392
  998MOL0     C34629   0.388   5.013   2.214  0.0954 -0.1284 -0.1829
  998MOL0     C34630   0.375   5.030   2.076 -0.6701  0.1159 -0.3136
  998MOL0     O34631   0.252   5.058   2.029  0.7893  0.2542 -0.3570
  998MOL0     C34632   0.227   5.106   1.894 -0.5803 -0.5078  0.6082
  998MOL0     C34633   0.257   5.256   1.889 -0.5757 -0.2567  0.3195
  998MOL0     C34634   0.176   5.353   1.978 -0.1098  1.0522  0.5237
  998MOL0     C34635   0.021   5.338   1.939 -0.0826  0.0932  0.6464
  998MOL0     C34636  -0.062   5.457   1.985  0.1072 -0.7384  0.9764
  998MOL0     C34637  -0.060   5.474   2.136 -0.4536 -0.1008  1.1114
  998MOL0     C34638  -0.166   5.569   2.177  0.0895 -0.3912  0.1147
  998MOL0     C34639  -0.124   5.640   2.311 -0.3166  0.0714  0.4097
  998MOL0    Cl34640  -0.004   5.758   2.273 -0.0592  0.1111 -0.0849
  998MOL0     C34641   0.497   5.010   2.012 -0.1532  0.1488 -0.4966
  998MOL0     C34642   0.612   4.971   2.076  0.4170 -1.4047 -0.4860
  998MOL0     O34643   0.894   4.999   2.129 -0.2925  0.1092  0.6073
  998MOL0     C34644   1.111   5.016   2.288 -0.4826  0.2465 -0.2853
  998MOL0     C34645   1.232   5.035   2.369  1.0162 -0.4790  0.5827
  998MOL0     N34646   1.982   4.909   2.639  0.0930  0.4031  0.0749
  998MOL0     N34647   2.099   4.847   2.629  0.9561 -0.0933  0.4860
  998MOL0     C34648   2.956   5.500   2.761 -0.9100 -0.2289 -1.0062
  998MOL0     C34649   3.083   5.562   2.801  0.3693  0.3474  0.2958
  998MOL0     C34650   3.443   5.780   2.909 -0.1289 -0.1777 -0.0206
  998MOL0     C34651   3.491   5.808   3.037 -0.4215  0.5658  0.5196
  998MOL0     C34652   3.634   5.828   3.053 -1.1131  0.5133  0.5896
  998MOL0     C34653   3.725   5.841   2.939  0.5123 -0.5656 -0.6357
  998MOL0     O34654   3.849   5.874   2.949 -0.0806 -0.1113 -0.3009
  998MOL0     C34655   3.898   5.942   3.075  0.2048  0.2611  1.1846
  998MOL0     C34656   4.037   5.995   3.039 -0.5520  0.4159  0.2489
  998MOL0     C34657   4.087   6.107   3.141  0.1404 -0.6524  0.3939
  998MOL0     C34658   4.129   6.058   3.272  0.6058 -1.1548 -0.0823
  998MOL0     C34659   4.256   5.987   3.260 -0.8573 -0.8421  0.4084
  998MOL0     C34660   4.367   5.941   3.237  0.1100 -0.8481 -1.0350
  998MOL0     C34661   3.663   5.830   2.820  0.5617  0.7817 -0.6035
  998MOL0     C34662   3.532   5.792   2.806 -0.2002 -0.8999  0.1654
  998MOL0     H34663   3.146   5.747   2.527 -0.3444 -0.5783  0.1514
  998MOL0     H34664   2.941   5.641   2.459 -0.0654 -1.4023 -0.7040
  998MOL0     H34665   2.671   5.374   2.740 -1.2063  0.7934 -0.3683
  998MOL0     H34666   2.652   5.553   2.727 -2.4365  0.9933 -2.0177
  998MOL0     H34667   2.466   5.454   2.613 -1.1356 -5.0296 -0.1995
  998MOL0     H34668   2.578   5.510   2.482 -2.7122  1.0007 -0.7270
  998MOL0     H34669   2.653   5.269   2.464 -0.1736  0.0179  1.2018
  998MOL0     H34670   2.547   5.230   2.601 -1.5052  0.7006  0.6540
  998MOL0     H34671   2.351   5.311   2.455  0.8757  0.7762 -0.2511
  998MOL0     H34672   2.474   5.342   2.331 -2.5636  2.1269  0.3092
  998MOL0     H34673   2.379   5.151   2.247  4.3548  0.4146 -1.6514
  998MOL0     H34674   2.529   5.101   2.321 -0.4096  3.7666 -4.1660
  998MOL0     H34675   2.435   5.026   2.531  1.7958  0.3063 -1.0891
  998MOL0     H34676   2.275   5.083   2.491 -0.6463 -0.2121 -1.5403
  998MOL0     H34677   2.297   4.950   2.285 -0.9262 -0.1287 -0.1003
  998MOL0     H34678   2.436   4.854   2.352 -1.7418 -3.6825 -0.8879
  998MOL0     H34679   2.297   4.751   2.539  2.5666  3.4187  0.3279
  998MOL0     H34680   2.222   4.717   2.376 -0.4428  0.4849 -0.1623
  998MOL0     H34681   2.017   4.893   2.317  0.3582 -0.9125 -0.7898
  998MOL0     H34682   1.815   5.121   2.520 -0.0441  0.8100 -2.5932
  998MOL0     H34683   1.787   5.016   2.375 -1.3483  1.5903  0.0526
  998MOL0     H34684   1.705   4.987   2.661  0.2158 -1.6695  0.1955
  998MOL0     H34685   1.680   4.852   2.550 -3.7525  0.1238  0.7988
  998MOL0     H34686   1.559   5.038   2.393 -0.5588  0.6292 -0.2258
  998MOL0     H34687   1.569   5.135   2.541  1.9867  0.5860 -0.6639
  998MOL0     H34688   1.447   4.931   2.656  0.2790  2.8367  1.0512
  998MOL0     H34689   1.397   4.886   2.488 -1.2206 -1.7540  1.0456
  998MOL0     H34690   1.074   5.064   2.668 -1.8983 -0.6770 -0.2798
  998MOL0     H34691   0.858   5.150   2.624 -1.2404  2.9860 -2.5840
  998MOL0     H34692   0.757   5.118   2.487  0.3548  1.8094  0.1147
  998MOL0     H34693   0.799   4.982   2.595  1.6866  0.2206  0.7109
  998MOL0     H34694   0.494   5.022   2.397 -0.5464 -1.6894 -0.2482
  998MOL0     H34695   0.294   5.025   2.267  0.4073 -2.1327  0.9329
  998MOL0     H34696   0.291   5.047   1.828 -3.4524 -1.0151 -1.9755
  998MOL0     H34697   0.127   5.085   1.856  0.0437 -1.1230 -0.7774
  998MOL0     H34698   0.363   5.267   1.915 -0.2700 -2.3404  0.1430
  998MOL0     H34699   0.247   5.299   1.788 -0.2638  0.8917  0.7592
  998MOL0     H34700   0.220   5.450   1.955  2.3927  0.1319  1.0083
  998MOL0     H34701   0.188   5.332   2.085 -2.5647 -1.1519  0.4605
  998MOL0     H34702   0.007   5.326   1.831 -0.6570 -1.7400  0.8892
  998MOL0     H34703  -0.016   5.241   1.971  3.3953 -1.5684  0.1387
  998MOL0     H34704  -0.163   5.452   1.944 -0.0177  1.5861  0.8323
  998MOL0     H34705  -0.017   5.545   1.937 -0.1474 -0.6086  0.9705
  998MOL0     H34706  -0.070   5.379   2.188  0.9649 -0.8705  0.0281
  998MOL0     H34707   0.038   5.512   2.165 -0.8540  0.0084  2.3825
  998MOL0     H34708  -0.261   5.518   2.194  0.6576 -1.3378  0.5643
  998MOL0     H34709  -0.175   5.650   2.104  1.9948  0.7184  1.0354
  998MOL0     H34710  -0.086   5.571   2.386  1.4139  2.1278  1.5248
  998MOL0     H34711  -0.218   5.680   2.349 -1.3635 -0.6226 -1.2824
  998MOL0     H34712   0.494   5.030   1.906 -0.6241  1.3817 -0.2698
  998MOL0     H34713   0.701   4.951   2.017  1.5828 -1.1374  1.0834
  998MOL0     H34714   1.125   5.018   2.181 -0.6773  2.4084 -0.3157
  998MOL0     H34715   1.328   5.041   2.319  0.3224 -2.2412 -1.0540
  998MOL0     H34716   2.911   5.432   2.833  2.0088 -0.0852  1.1351
  998MOL0     H34717   3.111   5.551   2.905  0.9433  1.3527  0.2552
  998MOL0     H34718   3.426   5.811   3.123 -1.1710  2.4734 -0.0805
  998MOL0     H34719   3.669   5.830   3.156 -2.2989 -0.0224  1.0322
  998MOL0     H34720   3.841   6.028   3.111  0.5625 -0.2492  3.1076
  998MOL0     H34721   3.910   5.868   3.155 -0.2961 -2.6976 -1.2698
  998MOL0     H34722   4.025   6.046   2.943  1.7464  3.0403  1.2462
  998MOL0     H34723   4.114   5.918   3.028 -0.0353  1.0206 -0.4543
  998MOL0     H34724   4.008   6.182   3.151  2.0714  1.9770 -2.0626
  998MOL0     H34725   4.170   6.159   3.091 -0.5280  0.8248  0.7724
  998MOL0     H34726   4.053   5.994   3.319  1.8439  0.1493  4.1433
  998MOL0     H34727   4.138   6.141   3.342 -2.0530 -1.0102  0.2048
  998MOL0     H34728   4.462   5.896   3.219 -0.5615 -1.9188 -2.0351
  998MOL0     H34729   3.721   5.859   2.733 -1.0159  1.7778 -1.3789
  998MOL0     H34730   3.505   5.785   2.702 -1.8473  0.1884  0.4825
  999MOL0     O34731   7.378   4.035   6.380 -0.3505 -0.4691  0.3783
  999MOL0     C34732   7.364   3.933   6.316  0.4650 -0.0980  0.7555
  999MOL0     O34733   7.242   3.888   6.274 -0.2387 -0.0254  0.1066
  999MOL0     C34734   7.125   3.963   6.283 -0.1245 -0.0531  0.7925
  999MOL0     C34735   7.011   3.909   6.331  0.5007  0.7966  0.3376
  999MOL0     C34736   6.883   3.968   6.314  0.2892 -0.2538 -1.0318
  999MOL0     C34737   6.873   4.098   6.267  0.5572 -0.1880 -0.0457
  999MOL0     O34738   6.756   4.173   6.268 -0.0552 -0.3794  0.0469
  999MOL0     C34739   6.636   4.104   6.233  0.3531 -0.0977 -0.4542
  999MOL0     C34740   6.533   4.197   6.170  0.7991  0.2785 -0.2031
  999MOL0     C34741   6.402   4.109   6.148 -0.4151 -0.1953  1.5021
  999MOL0     C34742   6.288   4.195   6.101  0.5022  0.8466  0.0019
  999MOL0     C34743   6.305   4.245   5.963  1.3084 -0.0944  0.3820
  999MOL0     C34744   6.314   4.146   5.848  0.1585 -0.7718  0.5074
  999MOL0     C34745   6.180   4.085   5.817  0.2079  1.1868  0.5115
  999MOL0     C34746   6.090   4.186   5.744  0.0919  0.0307  0.1328
  999MOL0     N34747   5.981   4.114   5.676  0.7734 -0.3703  0.4419
  999MOL0     C34748   5.868   4.077   5.742 -0.6840 -0.6147 -0.0699
  999MOL0     C34749   5.783   4.028   5.645 -0.6770  0.4085 -0.0605
  999MOL0     C34750   5.650   3.963   5.658  0.5522 -0.1884 -0.1369
  999MOL0     C34751   5.554   4.093   5.650 -0.0455  0.2800 -0.5234
  999MOL0     C34752   5.399   4.066   5.636  0.5554  0.2325  0.3986
  999MOL0     C34753   5.378   3.990   5.503 -0.4341 -0.5800  0.9457
  999MOL0     O34754   5.242   3.991   5.453 -0.0246  0.6053  0.5220
  999MOL0     C34755   5.154   3.913   5.518  0.4540  0.7152  0.3159
  999MOL0     C34756   5.176   3.820   5.614 -0.6462  0.2923  0.9043
  999MOL0     C34757   5.075   3.739   5.668  0.4361  1.3802  0.4801
  999MOL0     C34758   5.117   3.639   5.770 -0.0007 -0.0053 -0.3796
  999MOL0     C34759   4.937   3.761   5.638  0.3434 -0.0410  0.1693
  999MOL0     C34760   4.825   3.680   5.679  0.4264  0.2600 -0.4299
  999MOL0     O34761   4.738   3.660   5.585  0.2149  0.2828  0.5141
  999MOL0     C34762   4.604   3.634   5.623  0.2813  0.1475  0.3727
  999MOL0     C34763   4.573   3.540   5.722 -0.7813  0.4772  0.3661
  999MOL0     C34764   4.436   3.509   5.750  0.2231 -0.1377 -0.6906
  999MOL0     C34765   4.336   3.550   5.681  0.5263 -0.5040  0.1460
  999MOL0     O34766   4.208   3.516   5.717  0.2448  0.0834  0.0071
  999MOL0     C34767   4.102   3.552   5.624 -0.4179 -0.5812  0.1423
  999MOL0     C34768   3.970   3.475   5.651  0.4641 -0.3032 -0.3007
  999MOL0     C34769   3.865   3.528   5.554  0.2183 -0.2930  0.0630
  999MOL0     C34770   3.744   3.434   5.538 -0.7791  0.2027 -0.5155
  999MOL0     C34771   3.628   3.523   5.497  1.0049 -0.1458 -0.3748
  999MOL0     C34772   3.514   3.443   5.434  0.1504  0.0355 -0.0452
  999MOL0     C34773   3.405   3.532   5.402 -0.8391 -0.0519 -0.2400
  999MOL0     C34774   3.287   3.445   5.364  0.2846 -0.3921 -0.1204
  999MOL0    Cl34775   3.213   3.351   5.505 -0.0491  0.1953  0.9314
  999MOL0     C34776   4.366   3.639   5.570 -0.3905  0.3380 -1.1283
  999MOL0     C34777   4.495   3.682   5.548 -0.1880  0.1340 -0.5302
  999MOL0     O34778   4.809   3.661   5.796  0.0792  0.3307 -0.6522
  999MOL0     C34779   4.919   3.866   5.537  0.0708  0.4343  0.3426
  999MOL0     C34780   5.024   3.932   5.478  1.1674 -0.2299 -0.0223
  999MOL0     N34781   5.855   4.033   5.525 -0.1698 -0.0822  0.6883
  999MOL0     N34782   5.968   4.097   5.545 -0.5867  0.0645 -0.2909
  999MOL0     C34783   6.992   4.159   6.225 -0.2557  0.1695 -0.2068
  999MOL0     C34784   7.111   4.088   6.223 -0.1627  0.0111  0.6785
  999MOL0     C34785   7.477   3.842   6.278  0.2956 -0.1732  0.0796
  999MOL0     C34786   7.466   3.724   6.215  0.0093 -0.5699  0.2196
  999MOL0     C34787   7.574   3.640   6.200 -0.4433 -0.4198 -1.4158
  999MOL0     C34788   7.701   3.676   6.254  0.6133  0.4765 -0.1141
  999MOL0     O34789   7.819   3.607   6.257 -0.2156  0.9670  0.4117
  999MOL0     C34790   7.807   3.470   6.253  0.3173  1.3578 -0.3073
  999MOL0     C34791   7.950   3.405   6.278 -0.6342 -0.0331 -0.4276
  999MOL0     C34792   8.057   3.464   6.181 -0.2652 -0.1721  0.3867
  999MOL0     C34793   8.194   3.399   6.219 -0.4464  0.3295  0.5064
  999MOL0     C34794   8.310   3.445   6.140  0.3861 -0.2959  0.6055
  999MOL0     C34795   8.407   3.487   6.082 -0.6361  1.1785  0.5294
  999MOL0     C34796   7.719   3.804   6.317  0.4553 -0.5798  0.3394
  999MOL0     C34797   7.600   3.881   6.325  0.0375 -0.2940  1.2287
  999MOL0     H34798   7.013   3.812   6.380 -1.8549  1.3861  1.7674
  999MOL0     H34799   6.790   3.928   6.352  0.0130  1.2453 -0.0536
  999MOL0     H34800   6.657   4.020   6.166  2.4754 -0.2417  0.3182
  999MOL0     H34801   6.590   4.065   6.324  1.6739 -0.2948  0.1399
  999MOL0     H34802   6.510   4.272   6.246  4.7962 -0.4593  2.0107
  999MOL0     H34803   6.573   4.245   6.080  0.2037  0.6545 -0.2732
  999MOL0     H34804   6.418   4.029   6.075  0.6644  2.4583 -1.4344
  999MOL0     H34805   6.379   4.058   6.242 -0.4744  0.8407  2.0658
  999MOL0     H34806   6.196   4.136   6.096  2.4402 -2.2478 -1.6126
  999MOL0     H34807   6.270   4.277   6.172 -0.4242 -0.1186  0.9242
  999MOL0     H34808   6.216   4.308   5.949 -0.2947 -1.8980  1.9066
  999MOL0     H34809   6.389   4.315   5.970 -1.2297  3.1524  1.0050
  999MOL0     H34810   6.357   4.191   5.758  0.1111 -2.9203 -0.6644
  999MOL0     H34811   6.396   4.076   5.867  2.0454  0.5895 -1.9415
  999MOL0     H34812   6.175   3.996   5.753 -1.0250  0.3819  1.6658
  999MOL0     H34813   6.127   4.062   5.910 -1.6073  1.4170 -0.4050
  999MOL0     H34814   6.151   4.229   5.665 -1.1647  0.1132 -0.8340
  999MOL0     H34815   6.055   4.268   5.808  1.8262  1.9171 -1.2483
  999MOL0     H34816   5.852   4.092   5.848  0.8352 -2.1057  0.4127
  999MOL0     H34817   5.641   3.892   5.575  2.3306  1.2599 -1.6776
  999MOL0     H34818   5.633   3.909   5.752 -1.1300 -0.9248 -0.8295
  999MOL0     H34819   5.598   4.169   5.585  0.3294 -0.9826 -1.8073
  999MOL0     H34820   5.565   4.145   5.746  1.1535  2.4533 -1.7638
  999MOL0     H34821   5.352   4.164   5.630 -0.3893 -0.2715 -0.8328
  999MOL0     H34822   5.349   4.008   5.714  1.7777  0.4925  1.4168
  999MOL0     H34823   5.415   3.888   5.515  3.6634  0.6347  0.2673
  999MOL0     H34824   5.442   4.042   5.431  0.5365 -2.6971  0.1924
  999MOL0     H34825   5.273   3.816   5.662 -0.8228 -1.5062  1.1926
  999MOL0     H34826   5.042   3.607   5.843  2.3324 -1.1138  1.6469
  999MOL0     H34827   5.150   3.548   5.720  1.8826 -0.9766  2.4027
  999MOL0     H34828   5.196   3.670   5.838 -0.8449 -2.4058  1.8773
  999MOL0     H34829   4.650   3.482   5.771 -1.4607 -0.3238  0.5088
  999MOL0     H34830   4.420   3.429   5.822 -0.9144 -1.1630 -2.0148
  999MOL0     H34831   4.070   3.656   5.633 -3.3524 -1.3248 -0.6150
  999MOL0     H34832   4.140   3.529   5.524  0.5031  1.4954 -0.0369
  999MOL0     H34833   3.984   3.369   5.630 -1.3174 -0.7652  0.6276
  999MOL0     H34834   3.944   3.489   5.757 -1.0948 -0.5355 -0.6403
  999MOL0     H34835   3.897   3.544   5.451 -3.1791  2.3765 -0.7893
  999MOL0     H34836   3.835   3.630   5.581  0.0444 -0.0110 -1.1501
  999MOL0     H34837   3.758   3.359   5.459 -2.5157 -1.0109  0.2811
  999MOL0     H34838   3.726   3.377   5.629  0.6729 -1.8297 -1.4132
  999MOL0     H34839   3.666   3.587   5.417  0.7705  1.6075  0.8513
  999MOL0     H34840   3.595   3.584   5.582  0.6390 -1.0474  0.1473
  999MOL0     H34841   3.542   3.409   5.334  2.3962 -3.0111  1.4273
  999MOL0     H34842   3.487   3.362   5.503  0.8901  0.0851  0.3189
  999MOL0     H34843   3.430   3.611   5.330  0.8404  1.2767  1.6793
  999MOL0     H34844   3.382   3.582   5.497 -0.5000  1.2362 -0.8116
  999MOL0     H34845   3.310   3.380   5.279 -0.8476 -2.2537  0.9004
  999MOL0     H34846   3.202   3.505   5.328 -2.1079 -2.9351  0.9162
  999MOL0     H34847   4.283   3.682   5.516 -1.2769  0.4233  0.2528
  999MOL0     H34848   4.507   3.742   5.458 -0.9231 -0.9373 -1.3737
  999MOL0     H34849   4.815   3.878   5.509  0.1927  2.6576  0.6775
  999MOL0     H34850   4.996   4.003   5.401  0.0742  0.5596  1.0711
  999MOL0     H34851   6.974   4.256   6.180 -4.6652  0.5231  1.7966
  999MOL0     H34852   7.190   4.141   6.170 -0.8300  0.4012  0.0472
  999MOL0     H34853   7.369   3.698   6.175 -0.2648  1.1690 -0.3396
  999MOL0     H34854   7.562   3.554   6.134  0.5587 -3.9022  2.4971
  999MOL0     H34855   7.743   3.436   6.334  0.5271 -0.7998 -0.9803
  999MOL0     H34856   7.772   3.445   6.152 -2.2029  0.0797  0.7998
  999MOL0     H34857   7.952   3.296   6.284  1.6685  0.0121  0.8752
  999MOL0     H34858   7.976   3.445   6.376 -2.2009  0.6561 -0.2519
  999MOL0     H34859   8.062   3.573   6.193  2.2077 -0.2885  1.0939
  999MOL0     H34860   8.030   3.442   6.077  0.5294 -0.8978  0.3250
  999MOL0     H34861   8.179   3.292   6.203 -1.5107  0.1203  2.5117
  999MOL0     H34862   8.222   3.411   6.324  3.4554 -2.2921 -0.0172
  999MOL0     H34863   8.495   3.514   6.028 -0.7373 -0.1736 -0.3661
  999MOL0     H34864   7.819   3.827   6.353  0.2263 -0.8768  1.1845
  999MOL0     H34865   7.614   3.979   6.371 -0.8439  0.5194 -0.1726
 1000MOL0     O34866  10.365   2.565   0.349  0.3995  0.1759  0.5591
 1000MOL0     C34867  10.338   2.653   0.433 -0.5256 -0.0846 -0.4524
 1000MOL0     O34868  10.218   2.685   0.481  0.7758 -0.5758 -0.2776
 1000MOL0     C34869  10.116   2.645   0.403 -0.6456 -0.5200  0.5600
 1000MOL0     C34870  10.070   2.518   0.403 -0.0180  0.4905  0.1577
 1000MOL0     C34871   9.942   2.483   0.360 -0.2343 -0.2228 -0.6897
 1000MOL0     C34872   9.859   2.581   0.311  0.5379 -0.0194  0.6375
 1000MOL0     O34873   9.735   2.554   0.256  0.2275 -0.8966 -0.8786
 1000MOL0     C34874   9.637   2.514   0.353 -0.3446  0.1569  0.4465
 1000MOL0     C34875   9.490   2.545   0.311 -0.3849 -0.3795 -0.3873
 1000MOL0     C34876   9.403   2.482   0.415 -0.1002 -0.8920 -0.8867
 1000MOL0     C34877   9.258   2.532   0.429 -0.5112 -1.0544  0.7287
 1000MOL0     C34878   9.170   2.457   0.529  0.0067 -0.3271 -1.3317
 1000MOL0     C34879   9.014   2.470   0.500 -0.4417 -0.8053 -0.4501
 1000MOL0     C34880   8.933   2.489   0.642  0.6948 -0.1508  0.0153
 1000MOL0     C34881   8.789   2.514   0.592  0.9342  0.0479  0.3916
 1000MOL0     N34882   8.680   2.476   0.685 -0.4259  0.0300  0.1662
 1000MOL0     C34883   8.658   2.511   0.809 -0.4900  0.0360 -0.0248
 1000MOL0     C34884   8.555   2.439   0.850 -0.5194 -0.2639  0.8316
 1000MOL0     C34885   8.482   2.455   0.978 -0.2299  0.5549 -0.5707
 1000MOL0     C34886   8.331   2.482   0.952  0.1378  0.6290 -0.2685
 1000MOL0     C34887   8.254   2.486   1.082 -0.7497  0.0222 -0.8205
 1000MOL0     C34888   8.130   2.569   1.053 -0.5937  0.5491  0.6172
 1000MOL0     O34889   8.050   2.574   1.168  0.4305 -1.0455  1.0111
 1000MOL0     C34890   7.917   2.544   1.152 -0.4721  0.0460 -0.4114
 1000MOL0     C34891   7.833   2.599   1.049 -0.0946  0.6562  0.0579
 1000MOL0     C34892   7.692   2.565   1.053  0.8509  0.3101  0.0592
 1000MOL0     C34893   7.609   2.623   0.938 -1.1017 -0.3985  0.6061
 1000MOL0     C34894   7.639   2.488   1.161 -0.0709 -0.2057  0.3099
 1000MOL0     C34895   7.496   2.446   1.187 -0.9193 -0.4223 -0.1106
 1000MOL0     O34896   7.467   2.321   1.245  0.3768  0.8066  0.9198
 1000MOL0     C34897   7.338   2.294   1.282  0.7438  1.2404 -0.1654
 1000MOL0     C34898   7.245   2.227   1.200  0.5173  0.5364  0.5932
 1000MOL0     C34899   7.109   2.212   1.245  0.3037 -0.0387 -0.2903
 1000MOL0     C34900   7.076   2.239   1.382 -0.6968 -0.3843 -0.4159
 1000MOL0     O34901   6.960   2.213   1.454 -0.9467  0.6515 -0.3648
 1000MOL0     C34902   6.834   2.206   1.378  0.4062 -0.5640 -0.0958
 1000MOL0     C34903   6.722   2.140   1.457  0.2473 -0.4740  0.4232
 1000MOL0     C34904   6.585   2.150   1.382 -0.3678  0.5592  0.7161
 1000MOL0     C34905   6.473   2.080   1.451 -0.5093 -1.1418 -0.3285
 1000MOL0     C34906   6.348   2.082   1.362  0.5361 -0.4718  0.1969
 1000MOL0     C34907   6.237   2.020   1.437  0.2945  0.0311 -0.0644
 1000MOL0     C34908   6.126   1.974   1.342  0.0053  0.0791 -0.8537
 1000MOL0     C34909   6.030   1.880   1.414 -0.7482 -0.4336  0.4116
 1000MOL0    Cl34910   5.931   1.786   1.301  0.0745 -0.1420  0.0544
 1000MOL0     C34911   7.178   2.283   1.467  0.7000  0.7541 -0.0845
 1000MOL0     C34912   7.301   2.319   1.411  0.3950 -1.3215 -0.2152
 1000MOL0     O34913   7.413   2.535   1.168 -0.0341 -0.0694 -0.1978
 1000MOL0     C34914   7.732   2.439   1.253  0.2791  0.4192  0.4688
 1000MOL0     C34915   7.866   2.466   1.248  0.1211  0.9039 -0.6128
 1000MOL0     N34916   8.526   2.352   0.753  0.1492  0.3166  0.2571
 1000MOL0     N34917   8.595   2.378   0.649  0.5200 -0.1962  0.2749
 1000MOL0     C34918   9.906   2.710   0.299 -0.0900 -0.1204  1.0886
 1000MOL0     C34919  10.038   2.748   0.344  0.0380  0.8261 -1.5354
 1000MOL0     C34920  10.450   2.721   0.493 -0.1106 -0.0302  0.6103
 1000MOL0     C34921  10.433   2.812   0.599 -0.6892 -0.3830 -0.6019
 1000MOL0     C34922  10.523   2.900   0.650 -0.5012  0.4407  0.1791
 1000MOL0     C34923  10.652   2.884   0.600 -0.2047  0.2788 -0.2435
 1000MOL0     O34924  10.740   2.977   0.651 -0.2055 -0.2109  0.1028
 1000MOL0     C34925  10.875   2.991   0.598  0.5733  0.0930  0.2400
 1000MOL0     C34926  10.973   2.895   0.664 -0.2132 -0.0353 -0.0520
 1000MOL0     C34927  11.119   2.936   0.619  0.5354  0.2583  0.0580
 1000MOL0     C34928  11.235   2.842   0.664 -0.2174  0.2395  0.1719
 1000MOL0     C34929  11.356   2.892   0.615 -0.5792 -0.4085 -0.1339
 1000MOL0     C34930  11.468   2.927   0.571  0.4202  0.2155 -0.4354
 1000MOL0     C34931  10.684   2.789   0.502 -0.3668 -0.6839 -0.7901
 1000MOL0     C34932  10.582   2.711   0.452 -0.0030  0.1155  0.4177
 1000MOL0     H34933  10.137   2.445   0.448  0.6599  0.0065 -1.5780
 1000MOL0     H34934   9.907   2.381   0.358 -0.1560 -0.3230  1.2793
 1000MOL0     H34935   9.633   2.405   0.356  1.8586 -0.0751 -1.9304
 1000MOL0     H34936   9.667   2.549   0.452  2.8810 -1.3668  0.1383
 1000MOL0     H34937   9.475   2.652   0.301 -0.3022 -0.3708 -0.4205
 1000MOL0     H34938   9.463   2.498   0.216 -3.5376 -0.6254  0.5160
 1000MOL0     H34939   9.396   2.376   0.391  1.7594 -1.3539  0.4513
 1000MOL0     H34940   9.439   2.514   0.513 -1.8427  0.2196 -0.5555
 1000MOL0     H34941   9.273   2.634   0.466  2.9463 -1.9629  2.1787
 1000MOL0     H34942   9.213   2.523   0.330  3.1551 -3.2192 -0.8987
 1000MOL0     H34943   9.198   2.352   0.541 -0.7977 -0.3373  1.1045
 1000MOL0     H34944   9.191   2.485   0.633  0.4023 -1.0801 -1.2001
 1000MOL0     H34945   9.016   2.557   0.434 -0.9692  0.4981  1.1593
 1000MOL0     H34946   8.971   2.395   0.434 -1.1330  0.5385 -1.5803
 1000MOL0     H34947   8.946   2.401   0.705  0.6276 -0.1004  0.1009
 1000MOL0     H34948   8.967   2.576   0.701 -4.8394  2.6897 -0.2819
 1000MOL0     H34949   8.771   2.453   0.503 -0.8664  2.0368 -0.7156
 1000MOL0     H34950   8.779   2.619   0.563  1.4547  0.1090  0.4287
 1000MOL0     H34951   8.722   2.584   0.858 -0.1707 -0.1056 -0.2277
 1000MOL0     H34952   8.491   2.360   1.031 -2.6161  0.4100 -0.3096
 1000MOL0     H34953   8.528   2.527   1.046  0.2273 -1.0577  0.8998
 1000MOL0     H34954   8.298   2.405   0.882  0.8004  1.7558 -1.8830
 1000MOL0     H34955   8.342   2.576   0.898  3.9189 -1.4950 -3.7219
 1000MOL0     H34956   8.312   2.530   1.164  0.6472 -1.7513 -0.7995
 1000MOL0     H34957   8.222   2.388   1.117 -4.4365  0.6571 -1.9618
 1000MOL0     H34958   8.083   2.539   0.959 -0.6807  2.8823 -0.1291
 1000MOL0     H34959   8.154   2.674   1.035 -3.1089  1.1748  0.4768
 1000MOL0     H34960   7.881   2.668   0.981 -1.3515 -0.2712 -1.8684
 1000MOL0     H34961   7.616   2.731   0.923 -2.5363 -0.3920 -0.2325
 1000MOL0     H34962   7.657   2.589   0.845 -2.7764  1.6398 -1.1156
 1000MOL0     H34963   7.504   2.593   0.945 -0.9842 -0.4171  2.9812
 1000MOL0     H34964   7.262   2.202   1.096 -2.5790 -0.7276  0.2877
 1000MOL0     H34965   7.033   2.174   1.178 -1.8525 -0.2154  2.1261
 1000MOL0     H34966   6.801   2.308   1.357  1.6405 -0.1277 -0.0224
 1000MOL0     H34967   6.849   2.155   1.282  2.4515  0.7268 -0.5261
 1000MOL0     H34968   6.746   2.039   1.492  0.8753 -0.3020  0.4971
 1000MOL0     H34969   6.716   2.192   1.553  2.4673  0.5641  0.0559
 1000MOL0     H34970   6.599   2.115   1.279 -3.1953 -0.6719  0.6419
 1000MOL0     H34971   6.567   2.257   1.369  1.9827  0.6639 -3.8768
 1000MOL0     H34972   6.516   1.983   1.477  1.2091 -0.5961 -0.9707
 1000MOL0     H34973   6.455   2.147   1.536  0.8550  1.3883 -1.9023
 1000MOL0     H34974   6.360   2.025   1.270 -0.5464  0.1753 -0.3699
 1000MOL0     H34975   6.322   2.185   1.335 -0.6772 -1.1003 -1.1748
 1000MOL0     H34976   6.265   1.941   1.508 -1.3204 -0.8321 -0.3472
 1000MOL0     H34977   6.202   2.104   1.498  1.6282 -1.4562  3.0122
 1000MOL0     H34978   6.174   1.912   1.267  2.6490  0.5233  0.3401
 1000MOL0     H34979   6.081   2.068   1.308  0.0577  1.1749  1.8184
 1000MOL0     H34980   5.967   1.948   1.472 -0.1475  0.5399 -0.0456
 1000MOL0     H34981   6.077   1.809   1.482  1.5785  0.4285 -0.1874
 1000MOL0     H34982   7.149   2.285   1.572 -2.6490  1.0417 -0.9296
 1000MOL0     H34983   7.361   2.375   1.482  1.0231 -2.4080  0.1389
 1000MOL0     H34984   7.689   2.379   1.333  0.3889  0.4957  0.5861
 1000MOL0     H34985   7.939   2.411   1.307 -0.4219 -1.5329 -2.0804
 1000MOL0     H34986   9.841   2.777   0.243  1.2016  0.5933  0.3952
 1000MOL0     H34987  10.066   2.852   0.350  1.3167  0.4131  0.7906
 1000MOL0     H34988  10.335   2.820   0.645 -1.1927 -0.8182 -1.5758
 1000MOL0     H34989  10.494   2.975   0.723 -2.1769  2.4734 -2.3952
 1000MOL0     H34990  10.878   2.966   0.492  1.0282 -0.5869  0.4081
 1000MOL0     H34991  10.905   3.096   0.594 -0.6074  0.4293 -3.8684
 1000MOL0     H34992  10.947   2.792   0.641 -1.3608  0.2995 -0.3372
 1000MOL0     H34993  10.966   2.906   0.772  0.4887  1.0946 -0.1025
 1000MOL0     H34994  11.150   3.033   0.660 -0.8111  1.0545 -0.7588
 1000MOL0     H34995  11.128   2.932   0.510 -0.2768  1.1397 -0.0477
 1000MOL0     H34996  11.208   2.742   0.628 -0.3986  0.1929  0.4413
 1000MOL0     H34997  11.238   2.834   0.773 -0.8104 -1.4257  0.0881
 1000MOL0     H34998  11.563   2.947   0.525  0.1065  0.6549 -0.9048
 1000MOL0     H34999  10.783   2.785   0.456 -0.2448  0.8023 -0.6841
 1000MOL0     H35000  10.605   2.645   0.369 -3.1622  1.1635 -1.4235
 1001MOL0     O35001   3.422  10.782   0.303  0.5472 -0.0561 -0.1437
 1001MOL0     C35002   3.430  10.904   0.277  0.1513  0.7026 -0.3119
 1001MOL0     O35003   3.543  10.978   0.259 -0.3041  0.6110 -0.5214
 1001MOL0     C35004   3.670  10.925   0.277  0.3391 -0.5049  0.3816
 1001MOL0     C35005   3.702  10.790   0.265  1.0160 -0.6867  0.9551
 1001MOL0     C35006   3.829  10.744   0.289  0.2032  0.3440 -0.1862
 1001MOL0     C35007   3.930  10.829   0.324  0.5394 -0.5408  0.7509
 1001MOL0     O35008   4.057  10.791   0.326  0.3002  0.3232 -0.1474
 1001MOL0     C35009   4.096  10.718   0.447  0.8041  0.2047  0.0377
 1001MOL0     C35010   4.242  10.674   0.426  0.7501 -0.9036  0.7151
 1001MOL0     C35011   4.300  10.622   0.554  0.4296 -0.2835  0.7553
 1001MOL0     C35012   4.453  10.618   0.545  0.5097  0.2819 -0.8035
 1001MOL0     C35013   4.523  10.540   0.654 -0.5360  0.2481 -0.0793
 1001MOL0     C35014   4.547  10.612   0.789 -0.6945 -0.3450  0.4406
 1001MOL0     C35015   4.586  10.519   0.895  0.2221  0.0656 -0.4242
 1001MOL0     C35016   4.629  10.588   1.024  0.5144 -0.7851  0.0555
 1001MOL0     N35017   4.520  10.672   1.080  0.6579  1.2945 -0.5555
 1001MOL0     C35018   4.418  10.627   1.165 -0.3970 -0.4888  0.8480
 1001MOL0     C35019   4.343  10.733   1.176 -0.9720  0.5405 -0.5898
 1001MOL0     C35020   4.233  10.741   1.282 -0.0039 -0.3689 -0.3190
 1001MOL0     C35021   4.099  10.695   1.218  0.4697 -0.2119 -0.1666
 1001MOL0     C35022   3.985  10.691   1.309 -0.3111  0.8063 -0.7239
 1001MOL0     C35023   3.873  10.599   1.255  0.3653 -0.4865 -0.4945
 1001MOL0     O35024   3.802  10.659   1.147  0.3386 -0.9064  0.1998
 1001MOL0     C35025   3.684  10.596   1.117 -0.7028  0.1933 -0.8397
 1001MOL0     C35026   3.665  10.459   1.134  0.5575 -0.1701 -0.3653
 1001MOL0     C35027   3.538  10.407   1.096  0.3084  0.4861 -0.2159
 1001MOL0     C35028   3.523  10.262   1.119  0.8529  0.2446  0.5643
 1001MOL0     C35029   3.434  10.487   1.037 -0.5758 -0.7874 -0.3304
 1001MOL0     C35030   3.304  10.430   0.997  0.0937 -0.4078 -0.5125
 1001MOL0     O35031   3.254  10.488   0.894 -0.3432 -0.1468  0.3924
 1001MOL0     C35032   3.129  10.460   0.847 -0.4653 -0.2511  0.4515
 1001MOL0     C35033   3.017  10.505   0.920  0.1246  0.1534  0.5672
 1001MOL0     C35034   2.889  10.478   0.879  0.4067  0.0618 -0.0740
 1001MOL0     C35035   2.868  10.415   0.750 -0.5857 -0.1494  0.3373
 1001MOL0     O35036   2.741  10.391   0.704 -0.6042  0.0949  0.3879
 1001MOL0     C35037   2.635  10.481   0.739  0.5056 -0.2279 -0.1980
 1001MOL0     C35038   2.502  10.459   0.671  0.2209  0.0983 -0.2718
 1001MOL0     C35039   2.484  10.514   0.531 -0.2575  0.5497  1.1847
 1001MOL0     C35040   2.336  10.496   0.499 -0.9762 -0.3154 -0.2412
 1001MOL0     C35041   2.307  10.584   0.380 -0.4419  0.5408 -0.4312
 1001MOL0     C35042   2.169  10.559   0.320  0.3077 -0.1172 -0.3948
 1001MOL0     C35043   2.144  10.624   0.186  0.2315  0.1241 -0.8601
 1001MOL0     C35044   2.211  10.542   0.075 -0.5868 -0.1877 -0.1370
 1001MOL0    Cl35045   2.188  10.635  -0.078 -0.2276  0.4470 -0.2891
 1001MOL0     C35046   2.979  10.399   0.663  0.4515 -1.0694  0.4125
 1001MOL0     C35047   3.112  10.417   0.716  0.6955 -1.0472 -0.1540
 1001MOL0     O35048   3.246  10.351   1.061  0.3224  0.2703  0.2883
 1001MOL0     C35049   3.465  10.618   1.008 -0.4008  0.0659 -0.1913
 1001MOL0     C35050   3.586  10.673   1.051 -0.8029 -0.0833  0.6463
 1001MOL0     N35051   4.388  10.844   1.104  0.3794  0.3557  1.0359
 1001MOL0     N35052   4.494  10.804   1.045  0.1769 -0.2655 -0.2001
 1001MOL0     C35053   3.901  10.970   0.320  0.4728  0.7452  0.4157
 1001MOL0     C35054   3.772  11.015   0.304 -0.3869 -0.1113  0.3838
 1001MOL0     C35055   3.308  10.981   0.266  0.9409  0.2779 -0.3042
 1001MOL0     C35056   3.180  10.921   0.246 -0.7909  0.0954  0.7506
 1001MOL0     C35057   3.061  11.001   0.245 -0.7613  0.3410 -0.3143
 1001MOL0     C35058   3.057  11.141   0.265 -0.4474 -0.3826  0.4453
 1001MOL0     O35059   2.949  11.223   0.288 -0.0558  0.3568  0.1066
 1001MOL0     C35060   2.845  11.213   0.184 -0.5299  0.3836 -0.6975
 1001MOL0     C35061   2.744  11.326   0.203 -0.0853 -0.5308  0.6819
 1001MOL0     C35062   2.674  11.326   0.345 -0.2213  0.3314  1.2402
 1001MOL0     C35063   2.555  11.426   0.337  0.0339  0.6900 -0.5224
 1001MOL0     C35064   2.612  11.559   0.322  0.2009 -0.4825  0.7704
 1001MOL0     C35065   2.659  11.673   0.308  0.3264 -0.5055  0.3081
 1001MOL0     C35066   3.189  11.199   0.294  0.7740 -0.7557 -0.8735
 1001MOL0     C35067   3.310  11.122   0.284 -0.5459  0.3982 -0.0897
 1001MOL0     H35068   3.633  10.715   0.228 -0.5740  1.0470  0.2425
 1001MOL0     H35069   3.842  10.638   0.270  1.0028 -0.8066  5.3259
 1001MOL0     H35070   4.084  10.769   0.543  4.5691 -0.9360  1.2769
 1001MOL0     H35071   4.038  10.625   0.453 -0.4018  0.8457 -0.9937
 1001MOL0     H35072   4.243  10.590   0.357  0.0588  1.0478 -1.8425
 1001MOL0     H35073   4.303  10.758   0.390 -3.5080  2.4255  0.4729
 1001MOL0     H35074   4.284  10.682   0.644 -0.1570 -0.7908  0.9939
 1001MOL0     H35075   4.266  10.520   0.571  2.3948 -1.0698  0.2760
 1001MOL0     H35076   4.462  10.564   0.450  0.2347  2.2742 -2.0109
 1001MOL0     H35077   4.491  10.720   0.543  1.4191 -0.0410 -0.6139
 1001MOL0     H35078   4.477  10.440   0.661 -0.1471 -0.1110 -1.9958
 1001MOL0     H35079   4.623  10.525   0.613  0.1776 -1.2542  2.0407
 1001MOL0     H35080   4.618  10.694   0.783  1.3471 -1.6949  3.5189
 1001MOL0     H35081   4.454  10.658   0.824 -0.0583  2.1904 -0.9706
 1001MOL0     H35082   4.506  10.446   0.904 -0.8561  0.9983 -1.9581
 1001MOL0     H35083   4.674  10.461   0.865 -0.7068 -1.8859  0.4940
 1001MOL0     H35084   4.718  10.646   0.999 -0.0788 -0.1955 -0.7243
 1001MOL0     H35085   4.671  10.531   1.108  2.8689  1.8748  0.8357
 1001MOL0     H35086   4.409  10.526   1.206  3.1453 -0.1888  2.7699
 1001MOL0     H35087   4.258  10.686   1.373 -1.2607  0.2442  0.4234
 1001MOL0     H35088   4.218  10.844   1.315  0.3898 -0.2253 -0.5791
 1001MOL0     H35089   4.123  10.594   1.183  0.6839  0.0292 -0.7210
 1001MOL0     H35090   4.075  10.755   1.130  1.0164  1.9623  1.0842
 1001MOL0     H35091   3.942  10.785   1.344 -2.8876  0.1863 -2.0213
 1001MOL0     H35092   4.023  10.642   1.400  0.8889  2.0287 -0.5295
 1001MOL0     H35093   3.813  10.571   1.342  1.4649 -1.0840  0.0974
 1001MOL0     H35094   3.908  10.505   1.212 -0.3007 -1.4224  0.9179
 1001MOL0     H35095   3.738  10.383   1.162 -0.5558 -1.6413 -1.2524
 1001MOL0     H35096   3.618  10.208   1.113  0.7413 -0.1421  1.9681
 1001MOL0     H35097   3.476  10.243   1.216 -0.6380  1.7099  0.1632
 1001MOL0     H35098   3.469  10.218   1.034 -2.2061  2.2522  1.3261
 1001MOL0     H35099   3.038  10.547   1.018  0.9837  1.4288 -0.1296
 1001MOL0     H35100   2.802  10.479   0.945  0.4868 -2.8963  0.1793
 1001MOL0     H35101   2.603  10.455   0.841 -0.0134 -0.6421 -0.4627
 1001MOL0     H35102   2.649  10.589   0.742  2.4460 -0.2427 -3.6597
 1001MOL0     H35103   2.485  10.351   0.665  1.3056 -0.0256 -4.9157
 1001MOL0     H35104   2.421  10.498   0.732 -1.0723 -1.8683 -0.6352
 1001MOL0     H35105   2.545  10.456   0.461  0.0129 -1.5292  3.0538
 1001MOL0     H35106   2.519  10.618   0.528 -0.1976  0.5174  0.7519
 1001MOL0     H35107   2.307  10.391   0.491 -0.1264 -0.8195  2.2997
 1001MOL0     H35108   2.270  10.527   0.581  1.8003 -1.4592  2.6288
 1001MOL0     H35109   2.382  10.559   0.304 -1.1410  1.3799 -1.4367
 1001MOL0     H35110   2.312  10.689   0.411 -0.5506  0.0771  1.2594
 1001MOL0     H35111   2.135  10.456   0.313 -1.7889  0.5887 -1.7248
 1001MOL0     H35112   2.101  10.603   0.394  0.0079 -0.9413 -0.1715
 1001MOL0     H35113   2.181  10.727   0.193 -1.6200  0.7317  0.9419
 1001MOL0     H35114   2.036  10.624   0.168  0.2639 -1.5908 -1.2259
 1001MOL0     H35115   2.166  10.443   0.067  1.3429 -1.0485 -1.0441
 1001MOL0     H35116   2.318  10.531   0.096 -1.1234 -0.7490  2.8435
 1001MOL0     H35117   2.959  10.368   0.561 -2.5367  0.2253  0.5113
 1001MOL0     H35118   3.190  10.382   0.650  1.0527  0.3998 -0.5378
 1001MOL0     H35119   3.394  10.684   0.959  0.2472  1.8453  1.1488
 1001MOL0     H35120   3.597  10.779   1.032  2.5739 -0.0753  1.8782
 1001MOL0     H35121   3.984  11.037   0.334 -1.4622  3.4139 -0.1689
 1001MOL0     H35122   3.756  11.121   0.324 -0.0688 -0.4016  2.3696
 1001MOL0     H35123   3.178  10.813   0.239 -1.5429  0.0692  1.2719
 1001MOL0     H35124   2.967  10.947   0.234  0.2470 -1.6913  0.4824
 1001MOL0     H35125   2.872  11.221   0.079  0.7733  0.9609 -0.3367
 1001MOL0     H35126   2.801  11.114   0.196 -0.1490  0.2794 -0.1360
 1001MOL0     H35127   2.674  11.310   0.121  1.6006 -4.0006 -0.2803
 1001MOL0     H35128   2.796  11.422   0.195 -0.5973 -0.0075  2.9772
 1001MOL0     H35129   2.745  11.347   0.425  0.1407  1.9740  0.5199
 1001MOL0     H35130   2.641  11.223   0.363 -0.8040  0.2936  0.0675
 1001MOL0     H35131   2.499  11.420   0.431  1.5688  0.1804  0.4097
 1001MOL0     H35132   2.482  11.398   0.261 -1.1831 -1.0381  1.1908
 1001MOL0     H35133   2.699  11.771   0.294  2.9608 -1.5672 -0.2467
 1001MOL0     H35134   3.186  11.306   0.313 -0.9986 -0.9622  0.3233
 1001MOL0     H35135   3.409  11.164   0.291  0.1416 -1.4191  2.2260
 1002MOL0     O35136   4.161   8.929   2.420 -0.5155 -0.3085 -0.7570
 1002MOL0     C35137   4.192   8.921   2.538 -0.3411 -0.1871  0.0280
 1002MOL0     O35138   4.108   8.889   2.638 -1.1316 -0.7003 -0.9059
 1002MOL0     C35139   3.975   8.890   2.641  0.3952 -0.7384  0.2752
 1002MOL0     C35140   3.916   8.862   2.762 -0.4512 -0.1897 -0.1720
 1002MOL0     C35141   3.776   8.858   2.778 -0.1474 -0.3684  0.5713
 1002MOL0     C35142   3.697   8.910   2.669 -0.0566  0.6170 -0.3543
 1002MOL0     O35143   3.560   8.906   2.687  0.2060 -0.2007 -1.0817
 1002MOL0     C35144   3.475   8.903   2.579 -0.1397 -0.2329  1.6558
 1002MOL0     C35145   3.331   8.835   2.607  0.1764 -0.2960  0.8777
 1002MOL0     C35146   3.234   8.929   2.665 -0.0229 -0.8914 -0.2739
 1002MOL0     C35147   3.094   8.912   2.621  0.2461  0.7276  0.5197
 1002MOL0     C35148   3.007   9.040   2.631  0.1056 -0.2061 -0.8585
 1002MOL0     C35149   3.049   9.164   2.551  0.4668 -0.0871 -0.9855
 1002MOL0     C35150   3.024   9.146   2.399 -0.0821 -0.0047 -0.0503
 1002MOL0     C35151   3.066   9.275   2.324 -0.0400 -0.0065 -0.7956
 1002MOL0     N35152   3.077   9.234   2.181  0.6909  0.2282 -0.0951
 1002MOL0     C35153   3.180   9.174   2.113  0.1939 -0.2693  0.2600
 1002MOL0     C35154   3.148   9.179   1.981  0.4684 -0.1370 -0.6159
 1002MOL0     C35155   3.250   9.134   1.878 -0.6398 -0.1333  0.5419
 1002MOL0     C35156   3.361   9.241   1.868  0.0426  0.0105 -0.3279
 1002MOL0     C35157   3.467   9.228   1.761 -0.6859 -0.1209  0.3260
 1002MOL0     C35158   3.422   9.241   1.614 -0.8252  0.1792  0.5115
 1002MOL0     O35159   3.325   9.142   1.581 -0.2502  0.3571 -0.1492
 1002MOL0     C35160   3.234   9.182   1.483 -0.3135 -0.5175  0.1667
 1002MOL0     C35161   3.100   9.172   1.511  0.1883 -0.8930 -0.1821
 1002MOL0     C35162   3.002   9.226   1.424  0.3345 -0.0974  0.2987
 1002MOL0     C35163   2.861   9.213   1.480  1.1885 -0.3927  0.2742
 1002MOL0     C35164   3.039   9.272   1.297  1.0876  0.5972 -0.6053
 1002MOL0     C35165   2.948   9.305   1.189  0.6944 -0.0313  0.0051
 1002MOL0     O35166   2.988   9.404   1.105  0.3888 -0.0280 -0.5014
 1002MOL0     C35167   2.908   9.434   0.998  0.1428 -0.5469 -0.2263
 1002MOL0     C35168   2.832   9.345   0.916  0.1879 -0.4292 -0.1552
 1002MOL0     C35169   2.760   9.389   0.807  0.2659  0.0620  0.3307
 1002MOL0     C35170   2.768   9.516   0.758 -0.1894 -0.1404 -0.0983
 1002MOL0     O35171   2.687   9.588   0.667  0.0200  0.4229  0.2708
 1002MOL0     C35172   2.576   9.516   0.601  0.2276 -0.2298 -0.2631
 1002MOL0     C35173   2.503   9.622   0.523 -0.6485 -0.2633 -0.5603
 1002MOL0     C35174   2.361   9.584   0.474  0.3520 -0.0888 -0.3783
 1002MOL0     C35175   2.243   9.591   0.574  0.2582 -0.5735  0.3456
 1002MOL0     C35176   2.108   9.584   0.500 -0.1660  0.2475 -0.3767
 1002MOL0     C35177   1.993   9.574   0.599 -0.1985  0.4530 -0.3405
 1002MOL0     C35178   1.868   9.540   0.529 -0.3030  0.5813 -0.6347
 1002MOL0     C35179   1.746   9.541   0.623  0.0850 -0.3091  0.9657
 1002MOL0    Cl35180   1.594   9.509   0.538  0.0453  0.3090 -0.4199
 1002MOL0     C35181   2.857   9.603   0.825  0.5604 -0.1177  0.4740
 1002MOL0     C35182   2.920   9.569   0.948 -0.1655  0.0835  0.0121
 1002MOL0     O35183   2.836   9.246   1.183 -0.2217  0.6823 -0.1584
 1002MOL0     C35184   3.173   9.267   1.255  0.3101 -0.6495 -0.4927
 1002MOL0     C35185   3.269   9.229   1.356 -0.6295  0.3935 -0.1563
 1002MOL0     N35186   3.033   9.259   1.963 -0.7247  0.1948  0.3626
 1002MOL0     N35187   2.997   9.292   2.082 -0.0514 -0.2462  0.3757
 1002MOL0     C35188   3.758   8.945   2.558  0.1491 -0.3625  1.0645
 1002MOL0     C35189   3.893   8.933   2.531 -0.7096  0.0573 -0.9030
 1002MOL0     C35190   4.344   8.942   2.568 -0.6398 -0.3484  0.0741
 1002MOL0     C35191   4.386   8.901   2.695  0.2785 -0.3026 -0.2155
 1002MOL0     C35192   4.515   8.918   2.738  0.1267 -0.5029  0.0110
 1002MOL0     C35193   4.612   8.974   2.644  0.8240  0.3141 -0.6252
 1002MOL0     O35194   4.744   8.973   2.676  0.3007 -0.4456 -0.6302
 1002MOL0     C35195   4.835   9.036   2.595  0.9677  0.6103 -0.3838
 1002MOL0     C35196   4.979   9.024   2.670 -0.0065  0.0904 -0.0519
 1002MOL0     C35197   5.070   9.139   2.632 -0.1591  0.0423 -0.0297
 1002MOL0     C35198   5.215   9.137   2.683 -0.5292 -0.4166  0.2979
 1002MOL0     C35199   5.227   9.122   2.832 -0.2475 -0.0277 -0.9161
 1002MOL0     C35200   5.208   9.121   2.957 -0.3464  0.6669  0.7137
 1002MOL0     C35201   4.566   9.016   2.519  0.8144 -0.2875  1.2577
 1002MOL0     C35202   4.429   9.002   2.480 -0.7530 -0.2179  0.0458
 1002MOL0     H35203   3.976   8.837   2.849 -0.3956  2.7246  0.7352
 1002MOL0     H35204   3.748   8.825   2.878  2.2581 -0.9297  1.1471
 1002MOL0     H35205   3.463   9.008   2.548  3.7948  1.2117  4.2482
 1002MOL0     H35206   3.523   8.858   2.492 -1.1831 -0.0318  0.9519
 1002MOL0     H35207   3.295   8.800   2.510  2.2524 -0.6887  0.2023
 1002MOL0     H35208   3.330   8.755   2.682 -0.8384 -3.6088 -2.3861
 1002MOL0     H35209   3.243   8.925   2.774 -1.2614 -4.0052 -0.1713
 1002MOL0     H35210   3.271   9.025   2.629  3.1305 -1.1286  1.9719
 1002MOL0     H35211   3.091   8.886   2.515  1.5601 -0.5628  0.7686
 1002MOL0     H35212   3.051   8.826   2.673  1.8856 -0.1614  0.4708
 1002MOL0     H35213   2.904   9.017   2.602 -0.9918  0.3889  2.1410
 1002MOL0     H35214   2.991   9.058   2.738 -0.2927 -1.3286 -0.7150
 1002MOL0     H35215   2.995   9.255   2.582 -0.4468 -1.1752  0.7997
 1002MOL0     H35216   3.150   9.199   2.574  0.2045 -1.4533  3.1155
 1002MOL0     H35217   3.092   9.065   2.373 -0.8515 -0.6654 -0.0416
 1002MOL0     H35218   2.920   9.121   2.379 -0.0800 -0.4605  0.4939
 1002MOL0     H35219   3.159   9.329   2.347  0.5320 -0.0361 -2.8917
 1002MOL0     H35220   2.989   9.351   2.338 -3.1060 -1.7315 -5.7534
 1002MOL0     H35221   3.258   9.120   2.165  0.0449 -2.8409 -1.9860
 1002MOL0     H35222   3.307   9.046   1.910 -0.0197 -0.2917 -0.9237
 1002MOL0     H35223   3.192   9.110   1.789 -0.6657 -0.0589  0.5384
 1002MOL0     H35224   3.407   9.244   1.968 -0.8140  0.6446  0.0611
 1002MOL0     H35225   3.301   9.331   1.857  1.5279  1.1975  0.7839
 1002MOL0     H35226   3.500   9.125   1.775  1.3449  0.6433  1.5117
 1002MOL0     H35227   3.555   9.286   1.792 -0.4434 -0.9852  1.2783
 1002MOL0     H35228   3.500   9.242   1.538 -1.2286 -1.4286  0.0387
 1002MOL0     H35229   3.376   9.340   1.617 -2.6572 -0.6223  0.2210
 1002MOL0     H35230   3.083   9.120   1.605  2.3561  0.9275  1.3452
 1002MOL0     H35231   2.801   9.141   1.426 -0.7789  0.3171  1.4001
 1002MOL0     H35232   2.862   9.192   1.588  2.2072 -1.7044  0.0297
 1002MOL0     H35233   2.819   9.313   1.464  0.8662 -0.6371 -0.4562
 1002MOL0     H35234   2.844   9.238   0.930  2.0260  0.0034  2.1535
 1002MOL0     H35235   2.689   9.316   0.770 -2.1264  1.3687  2.0707
 1002MOL0     H35236   2.609   9.431   0.541  2.5393  0.5188 -0.1773
 1002MOL0     H35237   2.508   9.471   0.674 -1.1203  1.2308 -0.5658
 1002MOL0     H35238   2.489   9.713   0.582 -0.6806 -1.0024  0.5998
 1002MOL0     H35239   2.561   9.635   0.431 -2.1615 -0.5251 -1.5905
 1002MOL0     H35240   2.364   9.482   0.435  0.3713 -0.2825  0.1240
 1002MOL0     H35241   2.336   9.649   0.389  2.2276  1.0082 -0.1464
 1002MOL0     H35242   2.243   9.501   0.636  3.2652 -1.7918 -1.2269
 1002MOL0     H35243   2.243   9.682   0.635  0.0289 -0.3536  0.0211
 1002MOL0     H35244   2.118   9.493   0.440  1.5081 -0.5008  0.9533
 1002MOL0     H35245   2.096   9.669   0.431  2.0307 -0.9070 -2.3435
 1002MOL0     H35246   2.021   9.505   0.679 -3.3089  1.5932  1.9331
 1002MOL0     H35247   1.985   9.670   0.651 -2.5712 -0.4645  1.1493
 1002MOL0     H35248   1.882   9.442   0.483 -0.2329 -0.1387  0.8700
 1002MOL0     H35249   1.850   9.617   0.453  0.3331  1.3486 -0.0220
 1002MOL0     H35250   1.737   9.635   0.678  0.5894 -0.2369  0.9361
 1002MOL0     H35251   1.768   9.463   0.697 -0.0669  0.1075  1.4517
 1002MOL0     H35252   2.847   9.704   0.786  1.0229  0.2954  1.3794
 1002MOL0     H35253   2.979   9.643   1.002  3.7464 -1.9152 -1.1193
 1002MOL0     H35254   3.205   9.295   1.155  2.2200 -1.1767 -0.0663
 1002MOL0     H35255   3.376   9.212   1.346 -0.7163 -0.5594  0.4101
 1002MOL0     H35256   3.704   8.995   2.478  1.3873  1.1283  1.1288
 1002MOL0     H35257   3.922   8.959   2.429  1.4148 -0.6577 -0.5266
 1002MOL0     H35258   4.318   8.836   2.749  0.6218  0.3778  1.0867
 1002MOL0     H35259   4.560   8.877   2.828  3.6496  3.6859  0.5431
 1002MOL0     H35260   4.834   9.001   2.491 -0.6212  3.1617 -1.3278
 1002MOL0     H35261   4.812   9.143   2.589  0.2041  0.6182  1.8520
 1002MOL0     H35262   5.032   8.933   2.643 -0.8781 -0.5001  0.1983
 1002MOL0     H35263   4.965   9.036   2.778  1.3956  2.4887 -0.0617
 1002MOL0     H35264   5.025   9.218   2.692 -0.6300 -0.0971 -0.1927
 1002MOL0     H35265   5.054   9.162   2.526 -1.8060 -0.5096  0.0690
 1002MOL0     H35266   5.265   9.228   2.648 -1.8814  0.3572  0.3380
 1002MOL0     H35267   5.280   9.065   2.631 -2.6177 -2.4330  0.3065
 1002MOL0     H35268   5.188   9.126   3.062  2.2684  0.4665  1.2903
 1002MOL0     H35269   4.623   9.070   2.443 -2.1470  2.1424  0.5639
 1002MOL0     H35270   4.390   9.031   2.383 -0.2889 -0.1653 -0.1285
 1003MOL0     O35271   4.381  10.500   0.040  0.3710  0.0827  0.2088
 1003MOL0     C35272   4.350  10.537  -0.072 -0.5706 -0.7173  0.3018
 1003MOL0     O35273   4.426  10.516  -0.178 -0.4284 -0.0836  0.7418
 1003MOL0     C35274   4.475  10.387  -0.187 -0.4075  1.0303 -0.3499
 1003MOL0     C35275   4.419  10.263  -0.131 -0.5082 -0.6207  0.7494
 1003MOL0     C35276   4.470  10.138  -0.156 -0.3666 -0.3338  0.7811
 1003MOL0     C35277   4.597  10.137  -0.226 -0.0765  0.3255  0.0951
 1003MOL0     O35278   4.666  10.025  -0.251 -0.4035  0.0757 -0.4393
 1003MOL0     C35279   4.627   9.907  -0.186  0.3893 -0.4213 -0.2615
 1003MOL0     C35280   4.715   9.788  -0.223  0.1795  0.1120  0.2003
 1003MOL0     C35281   4.662   9.661  -0.173  0.1377 -0.4360  0.3675
 1003MOL0     C35282   4.768   9.545  -0.157  0.1505  0.7833  0.3878
 1003MOL0     C35283   4.728   9.439  -0.056 -0.1078  0.6221 -0.3936
 1003MOL0     C35284   4.598   9.355  -0.098  0.4362  0.6230  0.4748
 1003MOL0     C35285   4.530   9.321   0.032  0.6434  0.5237  0.3668
 1003MOL0     C35286   4.373   9.318   0.007  0.1265 -0.2932 -1.2074
 1003MOL0     N35287   4.304   9.272   0.139 -0.0521  0.0208  0.2983
 1003MOL0     C35288   4.247   9.150   0.158 -0.0624  0.1656  0.1807
 1003MOL0     C35289   4.164   9.158   0.272 -0.9820  0.6541  0.8403
 1003MOL0     C35290   4.068   9.058   0.326 -0.6164  0.1290  0.4194
 1003MOL0     C35291   3.925   9.100   0.328 -0.4138  0.5790  0.4775
 1003MOL0     C35292   3.835   8.986   0.379  0.3592  0.7505 -0.8635
 1003MOL0     C35293   3.685   9.031   0.397  0.2642  0.1939 -0.0953
 1003MOL0     O35294   3.675   9.071   0.534  0.8385  0.0502 -0.3339
 1003MOL0     C35295   3.552   9.087   0.598  0.4148 -0.5286  0.5242
 1003MOL0     C35296   3.557   9.125   0.729  0.2137 -0.7109  0.7575
 1003MOL0     C35297   3.444   9.137   0.812 -0.4329  0.4812 -0.2929
 1003MOL0     C35298   3.464   9.164   0.964 -0.1706 -0.8384 -0.5608
 1003MOL0     C35299   3.313   9.106   0.755 -0.1938  0.8461  0.7005
 1003MOL0     C35300   3.193   9.096   0.836  0.1242 -0.2427  0.4766
 1003MOL0     O35301   3.099   9.008   0.792 -0.0698 -0.5789  0.0615
 1003MOL0     C35302   2.985   8.978   0.869 -0.2970 -0.5214 -0.6754
 1003MOL0     C35303   2.996   8.989   1.011 -0.4228 -0.1131 -0.4065
 1003MOL0     C35304   2.893   8.946   1.097 -1.1194  0.0743  0.1380
 1003MOL0     C35305   2.771   8.902   1.037  0.4057 -0.6158 -0.4076
 1003MOL0     O35306   2.656   8.888   1.111 -0.3558 -0.5455 -0.6660
 1003MOL0     C35307   2.541   8.819   1.062  0.5606 -0.5004  0.7868
 1003MOL0     C35308   2.444   8.791   1.167  0.9487  0.1624 -0.0712
 1003MOL0     C35309   2.479   8.708   1.291 -0.8169  1.1970 -0.3498
 1003MOL0     C35310   2.360   8.649   1.360  0.7795 -0.2953  0.1568
 1003MOL0     C35311   2.388   8.575   1.485 -0.1309 -0.0235 -0.5002
 1003MOL0     C35312   2.435   8.652   1.604 -0.5589 -0.2397  0.4030
 1003MOL0     C35313   2.503   8.557   1.698 -0.4172 -0.4896  0.2464
 1003MOL0     C35314   2.462   8.592   1.843  0.0437  0.1077  1.0071
 1003MOL0    Cl35315   2.529   8.748   1.906 -0.2206 -0.0295 -0.1035
 1003MOL0     C35316   2.761   8.890   0.901 -0.8454 -0.4193  0.7268
 1003MOL0     C35317   2.868   8.922   0.816 -0.5450 -0.1322  0.4235
 1003MOL0     O35318   3.182   9.191   0.917  0.6887  0.6675  0.3579
 1003MOL0     C35319   3.317   9.056   0.626 -0.0016 -0.0005 -0.0462
 1003MOL0     C35320   3.426   9.057   0.538 -0.2559  0.6858 -0.0139
 1003MOL0     N35321   4.181   9.286   0.319 -0.4603  0.2246  0.4078
 1003MOL0     N35322   4.266   9.353   0.243 -0.3059 -0.0128 -0.2453
 1003MOL0     C35323   4.648  10.256  -0.288 -0.3219  0.6563 -0.1547
 1003MOL0     C35324   4.586  10.375  -0.266  0.3344 -0.6978 -0.5665
 1003MOL0     C35325   4.217  10.597  -0.099 -1.0590 -0.6906 -0.1785
 1003MOL0     C35326   4.170  10.616  -0.227  0.8280 -0.5315  0.3458
 1003MOL0     C35327   4.046  10.688  -0.255 -0.4656 -0.5200 -0.2073
 1003MOL0     C35328   3.976  10.742  -0.143 -0.7086 -0.6282  0.3576
 1003MOL0     O35329   3.864  10.818  -0.161  0.1713  0.0556 -0.2504
 1003MOL0     C35330   3.850  10.934  -0.075 -0.3215  0.0121  0.7998
 1003MOL0     C35331   3.777  11.046  -0.149 -0.0240 -0.0508  0.3932
 1003MOL0     C35332   3.691  11.146  -0.070  0.0542 -0.0031  0.0967
 1003MOL0     C35333   3.785  11.241   0.005  0.6050  0.2327 -0.0826
 1003MOL0     C35334   3.720  11.365   0.036 -0.1119 -0.0601  0.5234
 1003MOL0     C35335   3.672  11.471   0.059  0.5600  0.2631 -0.7968
 1003MOL0     C35336   4.022  10.709  -0.020 -0.4394 -0.2840  0.4788
 1003MOL0     C35337   4.136  10.635   0.005 -0.3037 -0.4435 -0.1146
 1003MOL0     H35338   4.326  10.255  -0.077  1.1120 -1.3729  3.6494
 1003MOL0     H35339   4.417  10.054  -0.113 -0.5802 -0.5351  0.1300
 1003MOL0     H35340   4.648   9.929  -0.081  1.7211  1.0959 -0.8012
 1003MOL0     H35341   4.522   9.884  -0.204 -0.2202  1.9527  0.0348
 1003MOL0     H35342   4.734   9.792  -0.331 -1.3598  3.1395 -0.0667
 1003MOL0     H35343   4.813   9.803  -0.176 -0.2814 -0.6778  1.4657
 1003MOL0     H35344   4.608   9.687  -0.082 -0.3917 -1.8586  0.4905
 1003MOL0     H35345   4.576   9.625  -0.231 -1.6358  3.9283 -0.0532
 1003MOL0     H35346   4.804   9.502  -0.251  1.4309  4.2366 -0.8928
 1003MOL0     H35347   4.854   9.596  -0.113  0.7053  1.3415 -1.2417
 1003MOL0     H35348   4.814   9.374  -0.040 -0.0460  1.1515  1.6170
 1003MOL0     H35349   4.717   9.497   0.036 -0.1023  1.2134 -0.7595
 1003MOL0     H35350   4.538   9.423  -0.159  0.0385 -1.8379 -2.0515
 1003MOL0     H35351   4.620   9.273  -0.167 -2.0740  2.7417 -3.1568
 1003MOL0     H35352   4.555   9.229   0.084 -1.0218  0.0573  0.4125
 1003MOL0     H35353   4.544   9.409   0.096  3.8657  2.6621 -2.8787
 1003MOL0     H35354   4.345   9.245  -0.069 -0.2974 -0.7932 -0.5723
 1003MOL0     H35355   4.341   9.418  -0.024  0.1606 -0.5798 -2.2105
 1003MOL0     H35356   4.244   9.057   0.101  1.4451  0.1462  0.0924
 1003MOL0     H35357   4.092   8.967   0.271  2.0965  0.9946 -0.0231
 1003MOL0     H35358   4.112   9.039   0.424 -2.2756  3.1818  1.9233
 1003MOL0     H35359   3.888   9.133   0.230  2.9949 -2.4248 -2.1287
 1003MOL0     H35360   3.926   9.193   0.386  0.5309 -0.7693  2.7594
 1003MOL0     H35361   3.874   8.953   0.475  0.6382  2.9747 -0.1516
 1003MOL0     H35362   3.844   8.895   0.320 -1.9189 -0.0986  0.0075
 1003MOL0     H35363   3.634   8.936   0.380  2.6165 -0.9852 -0.9382
 1003MOL0     H35364   3.669   9.110   0.323 -2.2201  0.2817  0.4237
 1003MOL0     H35365   3.657   9.147   0.764  0.0387 -2.2867  2.3683
 1003MOL0     H35366   3.446   9.270   0.981 -1.0198 -1.0750  0.1056
 1003MOL0     H35367   3.395   9.099   1.019  2.3435 -2.0378  1.3333
 1003MOL0     H35368   3.568   9.137   0.986  0.7084  1.5453 -1.4730
 1003MOL0     H35369   3.076   9.034   1.069 -1.0524  2.8201 -1.6500
 1003MOL0     H35370   2.900   8.959   1.205  0.4060  2.2050 -0.1587
 1003MOL0     H35371   2.492   8.878   0.984  0.4617 -0.5101  0.8405
 1003MOL0     H35372   2.577   8.726   1.017  0.3874  0.2446 -0.9473
 1003MOL0     H35373   2.403   8.890   1.191 -1.9210 -0.6101 -1.3505
 1003MOL0     H35374   2.362   8.746   1.110  0.9982 -0.6894  0.5104
 1003MOL0     H35375   2.538   8.782   1.345 -0.6201  0.9626 -0.2443
 1003MOL0     H35376   2.541   8.624   1.260 -0.9605  1.7550 -2.2673
 1003MOL0     H35377   2.298   8.735   1.388  0.1027 -0.3795 -0.9951
 1003MOL0     H35378   2.292   8.592   1.295 -1.1764  1.7355  0.2926
 1003MOL0     H35379   2.450   8.489   1.459 -1.1310 -1.5903  1.9620
 1003MOL0     H35380   2.296   8.527   1.521  0.9508  0.2586  2.9684
 1003MOL0     H35381   2.507   8.730   1.581 -0.1509 -1.2870 -2.2407
 1003MOL0     H35382   2.352   8.705   1.651 -0.7431  0.0914 -0.2778
 1003MOL0     H35383   2.608   8.584   1.682 -1.2593  1.6991 -2.5301
 1003MOL0     H35384   2.481   8.454   1.670 -1.7287  0.1508 -1.2324
 1003MOL0     H35385   2.511   8.521   1.910  1.1079 -1.1669 -1.0026
 1003MOL0     H35386   2.353   8.592   1.854 -0.2233  2.4644 -0.7911
 1003MOL0     H35387   2.669   8.855   0.855 -0.0909 -1.4611 -0.0389
 1003MOL0     H35388   2.858   8.899   0.710  0.9545 -0.4317  0.3303
 1003MOL0     H35389   3.230   9.012   0.579 -0.5039  0.9072  0.0026
 1003MOL0     H35390   3.420   9.037   0.432  2.1542  2.8770 -0.6804
 1003MOL0     H35391   4.741  10.244  -0.342  1.4758 -0.2976  2.9457
 1003MOL0     H35392   4.624  10.465  -0.312  1.5445 -0.7881  0.2279
 1003MOL0     H35393   4.226  10.583  -0.313  0.6458 -1.8868  0.7326
 1003MOL0     H35394   4.007  10.699  -0.356 -1.8318  0.6541  0.4095
 1003MOL0     H35395   3.783  10.916   0.009 -2.6415  2.1508 -0.4574
 1003MOL0     H35396   3.947  10.967  -0.037  0.2121  0.2712 -0.7129
 1003MOL0     H35397   3.705  10.996  -0.215  0.8504 -0.7289 -0.0694
 1003MOL0     H35398   3.853  11.094  -0.212  0.7106  0.6252  1.7518
 1003MOL0     H35399   3.623  11.089  -0.006  1.2166 -2.2346 -0.5171
 1003MOL0     H35400   3.635  11.210  -0.138 -1.5362  2.0684  3.1206
 1003MOL0     H35401   3.868  11.264  -0.062  0.6773 -2.4631 -1.0687
 1003MOL0     H35402   3.824  11.186   0.091 -0.0002 -1.6936 -0.9703
 1003MOL0     H35403   3.639  11.565   0.098  0.7773 -0.9480  2.7032
 1003MOL0     H35404   3.963  10.727   0.070 -1.4386  1.8356 -0.5245
 1003MOL0     H35405   4.156  10.606   0.108 -1.9382 -2.8433 -0.3917
 1004MOL0     O35406   9.036   8.962   5.523 -0.3221 -0.4559  0.2953
 1004MOL0     C35407   9.096   9.014   5.424  0.3852  0.0436  0.7323
 1004MOL0     O35408   9.045   9.078   5.324 -0.1269  0.0692 -0.5205
 1004MOL0     C35409   8.907   9.087   5.297  0.3367 -0.1964 -0.4774
 1004MOL0     C35410   8.865   9.192   5.214 -0.1488 -0.2785  0.0784
 1004MOL0     C35411   8.730   9.208   5.183 -0.4035 -0.0705  0.2145
 1004MOL0     C35412   8.638   9.116   5.222  0.0818  0.0370  0.3240
 1004MOL0     O35413   8.506   9.129   5.191 -0.4090  0.0590 -0.8373
 1004MOL0     C35414   8.433   9.255   5.201 -0.3118 -0.0262 -0.2282
 1004MOL0     C35415   8.289   9.215   5.184 -0.0728 -0.0463 -0.4496
 1004MOL0     C35416   8.179   9.319   5.225  0.2785  0.3776  0.6126
 1004MOL0     C35417   8.046   9.275   5.162  0.0244  1.2531 -0.3466
 1004MOL0     C35418   7.937   9.393   5.183 -0.8180  0.1154  0.6984
 1004MOL0     C35419   7.795   9.362   5.134 -0.8354  0.3353  0.3267
 1004MOL0     C35420   7.698   9.470   5.179  0.2188  0.6382  0.2373
 1004MOL0     C35421   7.714   9.601   5.104  0.7068  0.0285  0.6919
 1004MOL0     N35422   7.640   9.607   4.976 -0.4109  0.0229  0.0503
 1004MOL0     C35423   7.687   9.556   4.853  0.0855 -0.1687  0.2392
 1004MOL0     C35424   7.582   9.583   4.773 -0.1819 -0.7654  0.0464
 1004MOL0     C35425   7.589   9.544   4.627 -0.3133 -0.2604  0.3012
 1004MOL0     C35426   7.538   9.405   4.595 -0.3157  0.9717  0.2624
 1004MOL0     C35427   7.387   9.390   4.602  1.1497 -0.1151  0.1231
 1004MOL0     C35428   7.320   9.459   4.479 -0.4970  0.0637  0.1950
 1004MOL0     O35429   7.182   9.429   4.467 -0.0984 -0.3709  0.8421
 1004MOL0     C35430   7.104   9.447   4.573 -0.4504 -0.7624 -0.1805
 1004MOL0     C35431   6.988   9.370   4.581  0.1746  0.1182 -0.5187
 1004MOL0     C35432   6.899   9.389   4.682 -0.2295 -0.9565 -0.1825
 1004MOL0     C35433   6.790   9.287   4.688 -0.0806  0.9777 -0.3929
 1004MOL0     C35434   6.927   9.485   4.789 -0.6197 -0.2701  0.4967
 1004MOL0     C35435   6.845   9.505   4.906 -0.5201  0.4609 -0.3917
 1004MOL0     O35436   6.873   9.615   4.974  0.2958 -0.0410 -0.9296
 1004MOL0     C35437   6.839   9.630   5.105  0.2768 -1.4294  0.4823
 1004MOL0     C35438   6.926   9.666   5.208  0.0088  0.0022  0.8138
 1004MOL0     C35439   6.889   9.686   5.341 -0.3314 -0.6257 -0.2746
 1004MOL0     C35440   6.752   9.680   5.373 -0.8345  0.5749 -0.0419
 1004MOL0     O35441   6.720   9.711   5.505 -0.3108  0.0132  0.8302
 1004MOL0     C35442   6.580   9.714   5.527  0.1162 -0.2506 -0.5745
 1004MOL0     C35443   6.547   9.733   5.678  0.1470  0.6838  0.2391
 1004MOL0     C35444   6.399   9.746   5.711  0.2980  0.5199  0.6812
 1004MOL0     C35445   6.379   9.746   5.859  1.2577 -0.6063 -0.4048
 1004MOL0     C35446   6.229   9.725   5.897 -0.3179  0.4837 -0.6480
 1004MOL0     C35447   6.206   9.722   6.047 -0.4113  0.6627  0.1376
 1004MOL0     C35448   6.058   9.706   6.089  0.5372 -0.7564 -0.4338
 1004MOL0     C35449   5.986   9.588   6.029  0.0645  0.3462 -0.2030
 1004MOL0    Cl35450   5.827   9.582   6.114 -0.5468 -0.1643  0.2058
 1004MOL0     C35451   6.661   9.650   5.276  0.6389 -0.1654  0.4537
 1004MOL0     C35452   6.702   9.623   5.145  0.3234  0.2725 -0.1067
 1004MOL0     O35453   6.752   9.424   4.927 -0.4017 -0.5426  0.2561
 1004MOL0     C35454   7.040   9.560   4.768  0.8748  0.7301 -0.6359
 1004MOL0     C35455   7.123   9.548   4.663 -0.4763  0.1301 -0.1459
 1004MOL0     N35456   7.482   9.647   4.835 -0.1848 -0.6290 -0.0087
 1004MOL0     N35457   7.510   9.648   4.962  0.8699 -0.6231  0.5037
 1004MOL0     C35458   8.682   9.001   5.289 -0.0181 -0.2904  0.0633
 1004MOL0     C35459   8.809   8.992   5.340 -0.6712  0.7284 -0.4313
 1004MOL0     C35460   9.237   8.987   5.425 -0.0388  0.5210 -0.4523
 1004MOL0     C35461   9.290   8.871   5.492 -0.4692 -1.0695  0.1897
 1004MOL0     C35462   9.430   8.831   5.473 -0.4037  0.2091  0.0482
 1004MOL0     C35463   9.516   8.904   5.392  0.3967 -0.9855  1.1859
 1004MOL0     O35464   9.647   8.884   5.356 -0.3937 -0.3793  0.8340
 1004MOL0     C35465   9.702   8.756   5.386  0.1059  0.3511 -0.5299
 1004MOL0     C35466   9.850   8.733   5.338  0.8141  0.8518  0.4621
 1004MOL0     C35467   9.870   8.783   5.190 -0.1347  0.7395 -0.1116
 1004MOL0     C35468  10.010   8.748   5.137 -0.2720  0.0181  0.1782
 1004MOL0     C35469  10.050   8.846   5.037 -0.1276  0.3148  0.1296
 1004MOL0     C35470  10.111   8.901   4.936  1.1618 -0.4444 -0.1179
 1004MOL0     C35471   9.465   9.029   5.345 -0.5523  0.6214  0.5512
 1004MOL0     C35472   9.330   9.064   5.356  0.4223 -0.0175  0.2054
 1004MOL0     H35473   8.939   9.263   5.179 -1.3731  0.1847 -1.7055
 1004MOL0     H35474   8.708   9.297   5.125 -0.2701 -0.3326 -0.2392
 1004MOL0     H35475   8.452   9.301   5.298  0.2495 -1.5089  0.3945
 1004MOL0     H35476   8.454   9.337   5.132 -2.5345  1.7106  1.0077
 1004MOL0     H35477   8.272   9.185   5.080 -0.8058  1.2458 -0.7313
 1004MOL0     H35478   8.269   9.126   5.244  0.1912  1.5508  2.1913
 1004MOL0     H35479   8.178   9.314   5.335  2.2999 -3.0548  0.6233
 1004MOL0     H35480   8.214   9.415   5.188  4.0494 -0.8275  0.6372
 1004MOL0     H35481   8.060   9.258   5.055  2.0967 -0.5408  0.1344
 1004MOL0     H35482   8.009   9.177   5.196  2.0926  1.5879  3.4647
 1004MOL0     H35483   7.930   9.411   5.290 -0.6631  0.1272  0.7076
 1004MOL0     H35484   7.977   9.486   5.140  0.0671 -0.1162  1.0064
 1004MOL0     H35485   7.791   9.350   5.026  0.4921  0.7844  0.2130
 1004MOL0     H35486   7.768   9.268   5.183  1.7842  0.3960  2.0696
 1004MOL0     H35487   7.598   9.432   5.157  0.9083 -1.4794  0.6060
 1004MOL0     H35488   7.699   9.482   5.288 -1.2783 -3.9375  0.9459
 1004MOL0     H35489   7.819   9.609   5.074  0.0870  1.1640 -1.2799
 1004MOL0     H35490   7.684   9.686   5.166  0.3173  0.3737  0.0377
 1004MOL0     H35491   7.783   9.513   4.827  1.2295  2.4540 -0.1986
 1004MOL0     H35492   7.528   9.610   4.565 -0.7076 -0.5885  0.3341
 1004MOL0     H35493   7.692   9.548   4.590 -0.0708  1.0422  1.0791
 1004MOL0     H35494   7.590   9.332   4.658  1.0724 -0.1774 -2.0702
 1004MOL0     H35495   7.573   9.388   4.492  0.4043  5.9088 -0.5497
 1004MOL0     H35496   7.347   9.420   4.699 -0.5200  1.4552 -0.9938
 1004MOL0     H35497   7.354   9.287   4.585 -3.6125  0.8896  1.7535
 1004MOL0     H35498   7.373   9.421   4.390 -0.4260  1.1148 -0.2378
 1004MOL0     H35499   7.343   9.566   4.475  0.9845 -0.2209  0.5059
 1004MOL0     H35500   6.968   9.297   4.503  0.2078 -0.4874  0.0307
 1004MOL0     H35501   6.804   9.207   4.615  0.3888  0.5466  0.1579
 1004MOL0     H35502   6.792   9.244   4.788  4.7955  2.8541  0.5916
 1004MOL0     H35503   6.691   9.332   4.675 -1.1544 -0.7671  1.2628
 1004MOL0     H35504   7.033   9.673   5.188  0.9395 -2.9120  3.8921
 1004MOL0     H35505   6.957   9.726   5.414 -0.4412 -2.2584  0.7805
 1004MOL0     H35506   6.546   9.799   5.467 -1.4292 -0.0897  0.4742
 1004MOL0     H35507   6.534   9.620   5.496 -1.2229  0.2777 -0.2443
 1004MOL0     H35508   6.580   9.642   5.728 -0.5097  1.2119  1.6917
 1004MOL0     H35509   6.593   9.822   5.722 -2.2205  1.7459  0.7149
 1004MOL0     H35510   6.348   9.657   5.673  0.6060  0.4571  0.4099
 1004MOL0     H35511   6.349   9.836   5.673  1.1134  1.2289  1.2437
 1004MOL0     H35512   6.448   9.672   5.902 -0.2838 -2.1775 -0.5030
 1004MOL0     H35513   6.402   9.847   5.895  1.6344 -1.4071  1.7636
 1004MOL0     H35514   6.195   9.628   5.860 -0.4393 -0.1871  1.1406
 1004MOL0     H35515   6.172   9.806   5.849 -1.1516  0.4567  0.2693
 1004MOL0     H35516   6.257   9.634   6.089 -1.3540 -0.9733 -1.9448
 1004MOL0     H35517   6.249   9.812   6.092 -2.8402  1.9820 -0.0350
 1004MOL0     H35518   6.014   9.800   6.054 -0.8190 -0.4024  1.9840
 1004MOL0     H35519   6.045   9.722   6.197 -0.9784 -0.5299 -0.6252
 1004MOL0     H35520   6.040   9.497   6.054 -0.3506  0.1430 -0.0357
 1004MOL0     H35521   5.976   9.581   5.920  0.3817 -3.7346 -0.1371
 1004MOL0     H35522   6.555   9.636   5.293  0.7651 -1.3916  0.3627
 1004MOL0     H35523   6.633   9.587   5.069  2.0533 -1.9078 -0.7307
 1004MOL0     H35524   7.077   9.626   4.846  1.7157 -0.4372 -0.0149
 1004MOL0     H35525   7.208   9.616   4.657  0.3992 -0.8883  0.3189
 1004MOL0     H35526   8.609   8.922   5.308 -0.6555 -0.3821 -2.4082
 1004MOL0     H35527   8.844   8.899   5.384  1.7224  0.0839 -3.3515
 1004MOL0     H35528   9.226   8.808   5.553 -3.0425 -0.3649 -1.5950
 1004MOL0     H35529   9.469   8.736   5.507 -1.6295 -0.7086 -0.9776
 1004MOL0     H35530   9.697   8.751   5.495  2.1139 -0.1192 -0.4351
 1004MOL0     H35531   9.627   8.682   5.353 -1.5812  0.8741  1.8122
 1004MOL0     H35532   9.879   8.628   5.346  1.5383  1.0782  0.9037
 1004MOL0     H35533   9.918   8.773   5.414 -1.5303  0.8342  2.7305
 1004MOL0     H35534   9.881   8.892   5.187  2.3695  0.5297 -1.8746
 1004MOL0     H35535   9.784   8.756   5.129  0.7294 -3.3481  0.1828
 1004MOL0     H35536  10.023   8.649   5.091  2.0334 -0.2174  1.1980
 1004MOL0     H35537  10.081   8.748   5.220 -0.1520  1.3144  0.0860
 1004MOL0     H35538  10.160   8.963   4.864 -1.3778 -1.0482 -2.5460
 1004MOL0     H35539   9.529   9.097   5.290  0.0319  1.4807  2.2399
 1004MOL0     H35540   9.289   9.148   5.301 -2.3399 -1.1132  0.4607
 1005MOL0     O35541   3.584   2.045   5.724 -0.2393  0.0015 -0.2726
 1005MOL0     C35542   3.655   2.090   5.636  0.7188 -0.7334 -0.1842
 1005MOL0     O35543   3.616   2.111   5.502 -0.4155 -0.6313  0.1660
 1005MOL0     C35544   3.495   2.056   5.456 -0.7810  0.5255 -0.0166
 1005MOL0     C35545   3.447   2.110   5.340  0.2264 -0.5141  0.3734
 1005MOL0     C35546   3.315   2.076   5.295  0.7032 -0.3336 -1.0448
 1005MOL0     C35547   3.234   1.979   5.358  0.3991 -0.5496  0.2643
 1005MOL0     O35548   3.110   1.949   5.304  0.1341  0.2236 -0.3908
 1005MOL0     C35549   3.040   1.832   5.349 -0.6360  0.2142 -0.1100
 1005MOL0     C35550   2.900   1.837   5.288  0.3036  0.3607  0.0232
 1005MOL0     C35551   2.810   1.711   5.310 -0.5942 -0.7328  0.3510
 1005MOL0     C35552   2.804   1.667   5.454 -0.0801  0.4287 -0.4158
 1005MOL0     C35553   2.698   1.559   5.476 -0.0802  0.6257 -0.2420
 1005MOL0     C35554   2.697   1.494   5.617 -0.1142  0.0838 -1.1437
 1005MOL0     C35555   2.579   1.402   5.641  0.0292  0.2877 -0.3481
 1005MOL0     C35556   2.436   1.473   5.646 -0.5132  0.3214  0.4435
 1005MOL0     N35557   2.323   1.389   5.644  0.8192  0.3488 -0.0369
 1005MOL0     C35558   2.270   1.314   5.740 -0.7102  0.9084 -0.5462
 1005MOL0     C35559   2.182   1.223   5.692 -0.6210  0.5593  0.1429
 1005MOL0     C35560   2.102   1.138   5.778  0.7686  0.1746 -0.5798
 1005MOL0     C35561   2.128   0.985   5.775 -0.5284  0.1160  0.0919
 1005MOL0     C35562   2.020   0.904   5.846 -0.2038 -0.0033  0.2570
 1005MOL0     C35563   1.920   0.825   5.754  0.1443 -0.6031  0.5035
 1005MOL0     O35564   1.853   0.912   5.662 -0.6268  0.0029 -0.0640
 1005MOL0     C35565   1.722   0.898   5.637  0.7452  0.0468 -0.9260
 1005MOL0     C35566   1.665   0.766   5.640 -0.4221  0.6510  1.3613
 1005MOL0     C35567   1.529   0.749   5.627  0.3070  0.3259  0.4784
 1005MOL0     C35568   1.464   0.603   5.638  0.0119 -0.2979  0.2884
 1005MOL0     C35569   1.442   0.865   5.605 -0.0135 -0.5978  0.1929
 1005MOL0     C35570   1.293   0.861   5.599  0.3746  0.1116 -0.4218
 1005MOL0     O35571   1.227   0.981   5.617 -0.1417  0.1220 -0.1547
 1005MOL0     C35572   1.097   0.985   5.590  0.3520 -0.4262 -0.1147
 1005MOL0     C35573   1.058   0.969   5.455 -0.7296 -0.3757 -0.3671
 1005MOL0     C35574   0.924   0.982   5.416 -0.5327 -0.0899 -0.2978
 1005MOL0     C35575   0.830   1.001   5.512 -0.2271 -0.9916 -0.0135
 1005MOL0     O35576   0.699   1.027   5.490  0.2825 -0.0766 -0.5700
 1005MOL0     C35577   0.639   0.974   5.367  0.9358 -0.5715 -0.4540
 1005MOL0     C35578   0.485   0.981   5.395 -0.6767 -0.3814  0.4274
 1005MOL0     C35579   0.384   0.921   5.292  0.0396  1.2507  0.5809
 1005MOL0     C35580   0.242   0.934   5.348 -0.7942  0.5398 -0.9697
 1005MOL0     C35581   0.130   0.923   5.243 -0.0890 -0.1546 -0.0239
 1005MOL0     C35582  -0.011   0.957   5.294  0.3810 -0.9751 -0.4753
 1005MOL0     C35583  -0.112   0.981   5.180  0.9934 -0.2885  0.1972
 1005MOL0     C35584  -0.117   0.870   5.075 -0.0967  0.2606  0.3170
 1005MOL0    Cl35585  -0.162   0.706   5.140 -0.0097 -0.4065 -0.5115
 1005MOL0     C35586   0.865   1.016   5.647 -0.1369  0.5240 -0.7155
 1005MOL0     C35587   1.003   1.008   5.690  0.1630  0.4863 -0.4547
 1005MOL0     O35588   1.241   0.753   5.584 -0.1173  0.9110 -0.3609
 1005MOL0     C35589   1.503   0.989   5.599  0.0347  0.8815 -0.4043
 1005MOL0     C35590   1.640   1.000   5.609 -0.3654 -0.2063 -0.4827
 1005MOL0     N35591   2.161   1.258   5.561  0.2006 -0.1290 -0.3089
 1005MOL0     N35592   2.248   1.357   5.530  0.0543 -0.2673  0.2487
 1005MOL0     C35593   3.286   1.917   5.470  0.4595 -0.6532  0.2068
 1005MOL0     C35594   3.413   1.953   5.509  0.1281  0.3871 -0.6222
 1005MOL0     C35595   3.789   2.147   5.668  0.0618  0.3150 -0.7329
 1005MOL0     C35596   3.836   2.169   5.810  0.5041 -0.7025 -0.0753
 1005MOL0     C35597   3.954   2.236   5.840 -0.1174  0.1970  0.2338
 1005MOL0     C35598   4.039   2.288   5.736  0.3241 -0.5548  0.0409
 1005MOL0     O35599   4.154   2.363   5.755  0.1932  0.1850  0.2768
 1005MOL0     C35600   4.203   2.392   5.887  0.4388  0.2130 -0.1423
 1005MOL0     C35601   4.284   2.270   5.945 -0.4861 -0.3479 -0.2793
 1005MOL0     C35602   4.356   2.304   6.077 -0.0261 -0.5222  0.2769
 1005MOL0     C35603   4.451   2.199   6.126 -0.4139  0.2977  0.4099
 1005MOL0     C35604   4.577   2.218   6.049 -0.1693  0.1309 -0.0984
 1005MOL0     C35605   4.676   2.230   5.978 -0.2493 -0.4451 -0.2823
 1005MOL0     C35606   4.004   2.256   5.604  0.8130  0.5626  0.1725
 1005MOL0     C35607   3.878   2.193   5.563 -0.4041 -0.5411 -0.4398
 1005MOL0     H35608   3.508   2.182   5.288  0.0509 -0.5204  0.1608
 1005MOL0     H35609   3.273   2.112   5.202  0.7185 -2.0046 -1.7289
 1005MOL0     H35610   3.095   1.744   5.315 -1.2851  0.2065 -1.1748
 1005MOL0     H35611   3.026   1.836   5.458 -1.6763  0.6623 -0.2466
 1005MOL0     H35612   2.857   1.924   5.339 -1.4995 -0.4294 -0.1017
 1005MOL0     H35613   2.920   1.842   5.180  2.9237 -1.1466  0.3391
 1005MOL0     H35614   2.707   1.732   5.278 -1.4491 -3.3100  1.1658
 1005MOL0     H35615   2.844   1.631   5.244  2.3992  1.2254 -0.6806
 1005MOL0     H35616   2.892   1.617   5.495 -0.0363  1.7515  1.2193
 1005MOL0     H35617   2.792   1.758   5.515  2.3910  0.6250 -0.1040
 1005MOL0     H35618   2.600   1.607   5.471 -0.0656  0.9106  1.5445
 1005MOL0     H35619   2.684   1.480   5.402 -2.4761  1.9875 -1.3308
 1005MOL0     H35620   2.783   1.429   5.630 -0.5308 -0.1649  0.5134
 1005MOL0     H35621   2.701   1.581   5.683  0.1433  0.1737 -1.2798
 1005MOL0     H35622   2.576   1.324   5.564 -0.4963 -0.3267  0.2826
 1005MOL0     H35623   2.584   1.341   5.732 -2.1839 -0.6247 -0.7695
 1005MOL0     H35624   2.434   1.541   5.561  2.2708  0.1476  0.1345
 1005MOL0     H35625   2.438   1.521   5.745  2.0150 -3.9883  2.7924
 1005MOL0     H35626   2.281   1.321   5.848 -1.3348  1.9791 -0.5302
 1005MOL0     H35627   2.121   1.168   5.881  1.9979  1.9069 -1.2601
 1005MOL0     H35628   1.996   1.156   5.756  1.3458  1.6657 -2.4769
 1005MOL0     H35629   2.226   0.971   5.820 -0.0336  1.1491 -0.6259
 1005MOL0     H35630   2.141   0.956   5.670  1.0340  1.7491 -0.2052
 1005MOL0     H35631   1.966   0.965   5.919  0.6286 -0.2471  1.0971
 1005MOL0     H35632   2.086   0.842   5.907  1.0120 -0.4829 -1.4363
 1005MOL0     H35633   1.847   0.781   5.822 -1.1482  0.3243 -0.2265
 1005MOL0     H35634   1.968   0.751   5.689  0.7406  0.9724 -0.9175
 1005MOL0     H35635   1.717   0.672   5.651  0.0750  0.8452  0.7381
 1005MOL0     H35636   1.390   0.606   5.718  0.1074  0.8029  0.3521
 1005MOL0     H35637   1.419   0.580   5.541  1.4410 -2.5675  0.0874
 1005MOL0     H35638   1.524   0.523   5.683  0.7075  1.1033  1.9829
 1005MOL0     H35639   1.125   0.965   5.369 -1.7468  0.5238 -1.2328
 1005MOL0     H35640   0.894   0.949   5.316  2.8295 -0.0768 -1.4170
 1005MOL0     H35641   0.666   1.029   5.277 -0.5211 -2.0492 -1.8625
 1005MOL0     H35642   0.678   0.873   5.351 -0.6604 -1.6780  2.0220
 1005MOL0     H35643   0.469   0.941   5.496  1.8498 -0.9692  0.6760
 1005MOL0     H35644   0.456   1.086   5.402 -1.5245 -0.6042  0.4180
 1005MOL0     H35645   0.416   0.825   5.249 -1.9264  0.8914 -0.1908
 1005MOL0     H35646   0.398   0.984   5.203  2.1480 -1.3547 -1.0768
 1005MOL0     H35647   0.220   0.864   5.429  0.4939  0.8577 -0.3257
 1005MOL0     H35648   0.234   1.033   5.394 -0.2438 -0.5222  1.5520
 1005MOL0     H35649   0.120   0.821   5.204 -1.3754 -0.7096  1.6264
 1005MOL0     H35650   0.156   0.994   5.165 -1.4317  0.3400 -0.0525
 1005MOL0     H35651  -0.056   0.882   5.360  0.5626 -1.5770 -1.0188
 1005MOL0     H35652   0.006   1.043   5.359 -0.4967  0.4748 -2.0686
 1005MOL0     H35653  -0.085   1.081   5.145 -0.0643  1.3184  3.5275
 1005MOL0     H35654  -0.207   0.994   5.233  1.7682  2.7506  1.0064
 1005MOL0     H35655  -0.014   0.864   5.040 -1.0297  1.3999 -3.1053
 1005MOL0     H35656  -0.183   0.896   4.991  2.0006 -0.6650 -1.7183
 1005MOL0     H35657   0.782   1.053   5.706  0.5993  2.8548 -1.0396
 1005MOL0     H35658   1.030   1.018   5.795  2.2690  4.1918 -1.1523
 1005MOL0     H35659   1.449   1.083   5.594 -0.5917  0.5754  0.3021
 1005MOL0     H35660   1.685   1.098   5.598 -0.3518 -0.0538  0.8172
 1005MOL0     H35661   3.238   1.839   5.529  0.1168 -0.5699  0.0398
 1005MOL0     H35662   3.447   1.877   5.579 -0.0944 -0.7059 -1.6646
 1005MOL0     H35663   3.781   2.149   5.901  2.8246 -0.0002  1.5585
 1005MOL0     H35664   3.977   2.262   5.943  1.1917  0.9361 -0.2202
 1005MOL0     H35665   4.265   2.481   5.880  1.8465 -0.8417 -1.7500
 1005MOL0     H35666   4.124   2.409   5.961 -0.4768 -2.7325 -0.3181
 1005MOL0     H35667   4.360   2.236   5.875  1.0661 -2.6110  2.3328
 1005MOL0     H35668   4.213   2.187   5.955 -1.6052  0.6322  0.0868
 1005MOL0     H35669   4.281   2.322   6.155 -0.3898 -1.0971  0.0689
 1005MOL0     H35670   4.423   2.389   6.062  0.0327 -0.4550  0.8993
 1005MOL0     H35671   4.406   2.105   6.091  1.2781 -0.0374 -1.0223
 1005MOL0     H35672   4.473   2.205   6.233 -0.9709  2.7199  0.4503
 1005MOL0     H35673   4.752   2.239   5.904 -0.5546 -2.2887 -0.8520
 1005MOL0     H35674   4.071   2.279   5.522  1.8440 -1.4463  0.3914
 1005MOL0     H35675   3.844   2.187   5.460  1.1883  0.6143 -1.0632
 1006MOL0     O35676   7.360   4.976   4.057  0.0186  0.1799 -0.4831
 1006MOL0     C35677   7.443   5.068   4.059  0.0381 -0.0287 -0.0407
 1006MOL0     O35678   7.430   5.196   4.012 -0.4469  0.7530 -0.3540
 1006MOL0     C35679   7.332   5.225   3.917  0.3550  0.9259  0.0380
 1006MOL0     C35680   7.290   5.142   3.808  0.9546  0.2488 -0.0658
 1006MOL0     C35681   7.192   5.171   3.710  0.4588  0.0290  0.1864
 1006MOL0     C35682   7.130   5.286   3.721  0.5816 -0.5604 -0.3619
 1006MOL0     O35683   7.025   5.335   3.638 -0.7071 -0.1900  0.4687
 1006MOL0     C35684   6.968   5.243   3.546 -0.2465  0.4806  0.6299
 1006MOL0     C35685   6.854   5.313   3.465 -0.1463  0.3994 -0.5382
 1006MOL0     C35686   6.722   5.333   3.551 -0.0512  0.0856  0.0836
 1006MOL0     C35687   6.615   5.410   3.469  0.2553 -0.0684  0.0546
 1006MOL0     C35688   6.488   5.440   3.556  0.3998  0.0847 -0.4751
 1006MOL0     C35689   6.373   5.488   3.463 -1.0714  1.0111  0.0122
 1006MOL0     C35690   6.245   5.520   3.530 -0.0534  0.2502  0.3026
 1006MOL0     C35691   6.134   5.529   3.426  0.1080 -0.1525 -0.1793
 1006MOL0     N35692   5.997   5.524   3.477 -0.4810 -0.5953 -0.3392
 1006MOL0     C35693   5.954   5.577   3.601  0.2086 -0.1554 -0.1517
 1006MOL0     C35694   5.820   5.584   3.585 -0.4956 -0.1115 -0.5091
 1006MOL0     C35695   5.729   5.639   3.685  0.7081 -0.6475 -0.2539
 1006MOL0     C35696   5.655   5.772   3.668 -0.6146 -0.3428  0.8602
 1006MOL0     C35697   5.522   5.740   3.584  0.0220  0.1437  0.1807
 1006MOL0     C35698   5.445   5.873   3.550  0.0334 -0.1253 -0.5571
 1006MOL0     O35699   5.325   5.845   3.472 -0.0060 -0.1414 -0.2153
 1006MOL0     C35700   5.203   5.822   3.526 -0.8332 -0.6019 -0.4326
 1006MOL0     C35701   5.099   5.793   3.442 -0.2503  0.8278  0.6659
 1006MOL0     C35702   4.965   5.773   3.481 -0.3526  0.0504 -0.2698
 1006MOL0     C35703   4.858   5.760   3.373 -0.5133  0.2508  0.4948
 1006MOL0     C35704   4.933   5.786   3.621 -0.1889  0.2291 -0.3024
 1006MOL0     C35705   4.802   5.747   3.684  0.4844 -1.2779  0.3590
 1006MOL0     O35706   4.789   5.772   3.816  0.5622 -0.2352 -1.1139
 1006MOL0     C35707   4.716   5.690   3.887  0.4172  0.5168 -0.1513
 1006MOL0     C35708   4.589   5.729   3.932 -0.7472  0.2347  0.0157
 1006MOL0     C35709   4.513   5.646   4.011  0.2196 -0.1738  1.3410
 1006MOL0     C35710   4.554   5.516   4.051 -0.0470  0.2079  0.1537
 1006MOL0     O35711   4.471   5.463   4.139  0.1710  0.1578 -0.0969
 1006MOL0     C35712   4.473   5.321   4.158 -0.5410 -0.0311  0.2693
 1006MOL0     C35713   4.383   5.252   4.265 -0.3415  0.1272 -0.4147
 1006MOL0     C35714   4.242   5.265   4.216  0.7258 -0.7358 -0.6960
 1006MOL0     C35715   4.144   5.201   4.322 -0.5910 -0.2276 -0.0227
 1006MOL0     C35716   3.999   5.177   4.277 -0.0217 -0.2278  0.6208
 1006MOL0     C35717   3.937   5.302   4.212 -0.1902 -0.5855  0.3325
 1006MOL0     C35718   3.788   5.309   4.239  0.1149  0.3742 -0.3116
 1006MOL0     C35719   3.724   5.412   4.153  1.0053 -0.3609  0.3849
 1006MOL0    Cl35720   3.548   5.410   4.209 -0.3521  0.1280  0.2495
 1006MOL0     C35721   4.683   5.478   4.014  0.1409  0.2582 -0.0772
 1006MOL0     C35722   4.768   5.565   3.932  0.5975  1.5680 -0.7315
 1006MOL0     O35723   4.722   5.677   3.618 -0.1096 -0.2746 -0.3075
 1006MOL0     C35724   5.044   5.816   3.710 -0.0122  0.3632 -0.0805
 1006MOL0     C35725   5.168   5.845   3.667  0.4481  0.7466  1.0274
 1006MOL0     N35726   5.792   5.536   3.461  0.5194 -0.7442 -0.2779
 1006MOL0     N35727   5.890   5.488   3.403  0.8232 -0.2100 -0.3990
 1006MOL0     C35728   7.171   5.385   3.819 -0.4806  0.3011  0.2981
 1006MOL0     C35729   7.268   5.349   3.909 -0.5290 -0.4207 -1.0038
 1006MOL0     C35730   7.572   5.032   4.118 -0.5593 -0.4346  0.2682
 1006MOL0     C35731   7.583   4.921   4.201 -0.1694  0.1717  0.1044
 1006MOL0     C35732   7.716   4.876   4.236  0.6372  0.2421 -0.3190
 1006MOL0     C35733   7.831   4.954   4.208  0.1252  1.1658  0.0623
 1006MOL0     O35734   7.953   4.894   4.221 -0.5554  0.5409 -0.5383
 1006MOL0     C35735   8.070   4.974   4.198  0.8369 -0.0309 -0.0279
 1006MOL0     C35736   8.185   4.921   4.280 -1.0530  0.1671 -0.6050
 1006MOL0     C35737   8.245   4.800   4.215 -0.4115 -0.0389 -1.3085
 1006MOL0     C35738   8.370   4.747   4.287 -0.2240 -0.1725 -0.1158
 1006MOL0     C35739   8.496   4.764   4.214  0.3387  0.0831 -0.5872
 1006MOL0     C35740   8.601   4.784   4.154 -0.4683 -0.0811 -0.5738
 1006MOL0     C35741   7.815   5.068   4.131  0.0982 -0.4447  0.5343
 1006MOL0     C35742   7.688   5.099   4.072  0.3836  1.4035 -1.1412
 1006MOL0     H35743   7.339   5.046   3.804  1.7593  0.6738 -0.6671
 1006MOL0     H35744   7.149   5.092   3.649  1.2145  0.2274 -0.6144
 1006MOL0     H35745   7.039   5.195   3.478  1.6718  2.4573  1.1005
 1006MOL0     H35746   6.920   5.170   3.611  2.3230 -2.6783 -0.7363
 1006MOL0     H35747   6.888   5.415   3.447  1.3083  0.4042  1.7246
 1006MOL0     H35748   6.842   5.264   3.368 -1.2323 -0.2967 -0.0688
 1006MOL0     H35749   6.686   5.239   3.591  1.4294 -0.5934 -0.0970
 1006MOL0     H35750   6.751   5.384   3.643  0.3931 -0.7081  0.3917
 1006MOL0     H35751   6.667   5.493   3.419 -2.3963  1.5414 -0.2447
 1006MOL0     H35752   6.577   5.345   3.390 -0.7327  0.3399  0.1805
 1006MOL0     H35753   6.463   5.349   3.611  2.2499  0.7935  1.7186
 1006MOL0     H35754   6.504   5.525   3.624  1.1317 -1.7444  1.7721
 1006MOL0     H35755   6.405   5.574   3.403  1.2673  1.6313  2.0193
 1006MOL0     H35756   6.358   5.403   3.395 -0.1984  2.0098 -1.4917
 1006MOL0     H35757   6.214   5.437   3.594 -0.1837 -1.7596 -2.2371
 1006MOL0     H35758   6.251   5.613   3.588  0.4793 -0.1070  0.8293
 1006MOL0     H35759   6.143   5.445   3.356  0.4272 -1.4445  1.3470
 1006MOL0     H35760   6.153   5.612   3.358  2.3641  0.7988  1.4675
 1006MOL0     H35761   6.011   5.606   3.688  1.0948  0.1064 -0.8026
 1006MOL0     H35762   5.659   5.557   3.702 -0.0774 -0.4504 -2.2454
 1006MOL0     H35763   5.792   5.656   3.773 -1.0368  2.5715  0.5082
 1006MOL0     H35764   5.720   5.843   3.617 -1.7657  0.3122  0.2756
 1006MOL0     H35765   5.637   5.814   3.768 -1.1468  2.3630 -0.2935
 1006MOL0     H35766   5.450   5.683   3.644  0.6044  1.7186  2.5100
 1006MOL0     H35767   5.548   5.697   3.487 -0.2298 -1.0008  0.6098
 1006MOL0     H35768   5.507   5.937   3.487 -3.0801  3.6231 -0.1891
 1006MOL0     H35769   5.421   5.929   3.640 -1.3306 -1.7235  0.1141
 1006MOL0     H35770   5.114   5.790   3.335 -1.5790  1.9597  0.4107
 1006MOL0     H35771   4.900   5.767   3.272 -2.8952 -5.5163 -1.3699
 1006MOL0     H35772   4.819   5.660   3.398 -1.1389  0.8131  1.8526
 1006MOL0     H35773   4.783   5.838   3.389 -0.6710 -0.2997  2.6760
 1006MOL0     H35774   4.554   5.829   3.912  3.8198  2.5166  2.0597
 1006MOL0     H35775   4.415   5.678   4.044  0.1745  0.5103  0.5822
 1006MOL0     H35776   4.466   5.270   4.061 -0.1059 -0.6999  0.5851
 1006MOL0     H35777   4.570   5.309   4.207 -0.3745 -1.8873 -0.4393
 1006MOL0     H35778   4.414   5.149   4.286  3.2151  1.7575  4.1298
 1006MOL0     H35779   4.409   5.297   4.361  3.0629 -1.2939 -0.5037
 1006MOL0     H35780   4.231   5.219   4.117 -0.8059  1.7615 -1.7696
 1006MOL0     H35781   4.224   5.371   4.201  2.3856 -0.3882 -0.4719
 1006MOL0     H35782   4.190   5.105   4.347 -0.2493  0.1410  0.8111
 1006MOL0     H35783   4.144   5.261   4.413 -1.8606  2.7898 -1.8708
 1006MOL0     H35784   3.937   5.136   4.358 -2.6025 -0.5979 -1.4002
 1006MOL0     H35785   3.998   5.096   4.203  4.0622 -0.5219  0.6659
 1006MOL0     H35786   3.980   5.394   4.252  0.7582  0.5450 -3.0063
 1006MOL0     H35787   3.967   5.306   4.107  1.4286 -0.7777  0.7555
 1006MOL0     H35788   3.771   5.328   4.346  1.1486  2.2755 -0.4441
 1006MOL0     H35789   3.750   5.212   4.207 -1.3678  1.3841 -1.7688
 1006MOL0     H35790   3.732   5.387   4.047  0.2467 -0.8502  0.4331
 1006MOL0     H35791   3.762   5.513   4.167 -0.5795  0.0055  2.6100
 1006MOL0     H35792   4.729   5.386   4.049 -1.0700 -0.0577  0.7160
 1006MOL0     H35793   4.867   5.535   3.900  0.2255  0.9395 -1.3063
 1006MOL0     H35794   5.024   5.832   3.815 -0.6775 -0.9929  0.0272
 1006MOL0     H35795   5.243   5.879   3.737 -0.8661  1.5411  2.1067
 1006MOL0     H35796   7.132   5.486   3.825 -1.0684  0.0247  1.9910
 1006MOL0     H35797   7.306   5.419   3.983  0.4439 -2.0067  0.0705
 1006MOL0     H35798   7.501   4.865   4.246 -0.3952 -1.0507 -1.7214
 1006MOL0     H35799   7.725   4.791   4.302 -0.1887  2.9011  3.5836
 1006MOL0     H35800   8.109   4.981   4.096  1.9377 -3.3592  0.0671
 1006MOL0     H35801   8.050   5.078   4.225  1.5678  0.2073 -0.3590
 1006MOL0     H35802   8.157   4.916   4.385 -1.2270 -1.4478 -0.6936
 1006MOL0     H35803   8.265   4.994   4.271 -2.1082  1.6507  1.3871
 1006MOL0     H35804   8.258   4.823   4.109 -1.1014  0.9079 -1.1978
 1006MOL0     H35805   8.176   4.716   4.232  1.0396 -0.8610  0.9503
 1006MOL0     H35806   8.363   4.639   4.300 -0.1397 -0.2120 -0.3831
 1006MOL0     H35807   8.387   4.794   4.384  0.4978 -0.6218 -0.0202
 1006MOL0     H35808   8.698   4.798   4.110 -0.2632 -0.3058 -0.1965
 1006MOL0     H35809   7.901   5.106   4.076 -0.7157 -2.2829 -2.2559
 1006MOL0     H35810   7.690   5.187   4.009 -2.0693  0.6257 -2.4354
 1007MOL0     O35811   7.877   3.902   4.405 -0.6638 -0.9583 -1.1850
 1007MOL0     C35812   7.954   3.848   4.327  0.4337  0.2062  0.1638
 1007MOL0     O35813   7.923   3.773   4.215  0.0041  0.0065 -0.1957
 1007MOL0     C35814   7.786   3.754   4.192  0.1344 -0.0673 -0.1312
 1007MOL0     C35815   7.741   3.754   4.065  0.3395  0.3572  0.6793
 1007MOL0     C35816   7.609   3.729   4.027 -1.0052 -0.3021 -1.0761
 1007MOL0     C35817   7.511   3.704   4.127 -0.5232  0.3749  0.2550
 1007MOL0     O35818   7.378   3.673   4.101 -0.1359 -0.1019  0.6122
 1007MOL0     C35819   7.326   3.715   3.976 -0.2993 -0.5759  0.3664
 1007MOL0     C35820   7.170   3.688   3.976 -0.1722 -0.7590 -0.0563
 1007MOL0     C35821   7.149   3.536   4.008 -0.9055 -0.4971 -0.1313
 1007MOL0     C35822   6.997   3.498   4.001  1.3074 -0.8052 -0.2940
 1007MOL0     C35823   6.968   3.358   4.042 -0.1119  0.2908 -0.3968
 1007MOL0     C35824   6.819   3.336   4.081  0.5707  0.0075 -0.8163
 1007MOL0     C35825   6.784   3.187   4.097  0.3709  0.6801  0.2735
 1007MOL0     C35826   6.846   3.124   4.212 -0.1849  0.1157  0.1555
 1007MOL0     N35827   6.780   2.997   4.263  0.2015  0.1524  0.5914
 1007MOL0     C35828   6.665   2.992   4.336  0.3741  0.4221  0.7035
 1007MOL0     C35829   6.635   2.861   4.347 -0.7333  0.1836 -0.1077
 1007MOL0     C35830   6.516   2.817   4.420  0.3654  0.3196 -0.7602
 1007MOL0     C35831   6.426   2.750   4.311 -0.6611 -0.2651  0.3438
 1007MOL0     C35832   6.292   2.694   4.382  0.1800  0.1729 -0.2288
 1007MOL0     C35833   6.195   2.673   4.267 -0.5547  0.1690  0.5031
 1007MOL0     O35834   6.097   2.580   4.320 -0.6067 -0.2672  0.3837
 1007MOL0     C35835   5.969   2.570   4.264  0.2087 -0.3454 -0.3284
 1007MOL0     C35836   5.921   2.628   4.148 -0.3388  0.2255  0.3136
 1007MOL0     C35837   5.793   2.607   4.092  0.2094 -0.6512  0.3926
 1007MOL0     C35838   5.768   2.649   3.952  0.7681 -0.9715  0.3370
 1007MOL0     C35839   5.701   2.525   4.163 -0.3492  0.1772 -0.5929
 1007MOL0     C35840   5.576   2.468   4.114 -0.2901  1.0224  0.5342
 1007MOL0     O35841   5.557   2.332   4.127 -0.4817 -0.0319 -0.8247
 1007MOL0     C35842   5.436   2.285   4.095 -0.3765  0.5610 -0.2884
 1007MOL0     C35843   5.377   2.304   3.967  0.1735  0.4366  0.4803
 1007MOL0     C35844   5.250   2.253   3.935  0.8067  1.1176  1.2697
 1007MOL0     C35845   5.172   2.212   4.037 -0.4581 -0.7263 -0.5738
 1007MOL0     O35846   5.047   2.171   4.004 -0.2849 -0.7288  0.6123
 1007MOL0     C35847   4.953   2.162   4.113  0.6782  0.3784  0.5258
 1007MOL0     C35848   4.820   2.140   4.054  0.5666  0.3679 -0.3655
 1007MOL0     C35849   4.708   2.189   4.151 -0.5023  0.2082  0.2854
 1007MOL0     C35850   4.569   2.172   4.094 -0.3337  0.1761  0.7642
 1007MOL0     C35851   4.450   2.185   4.190  0.1267 -0.1151 -0.4267
 1007MOL0     C35852   4.324   2.143   4.122 -0.3673 -0.0162 -0.1650
 1007MOL0     C35853   4.279   2.259   4.029 -0.3945 -1.1110 -0.4094
 1007MOL0     C35854   4.151   2.226   3.947  0.2462 -0.0195 -0.6349
 1007MOL0    Cl35855   4.121   2.059   3.883  0.1392 -0.0903  0.2404
 1007MOL0     C35856   5.228   2.202   4.171 -0.1517 -0.0450 -0.1885
 1007MOL0     C35857   5.362   2.233   4.198  0.1525 -1.0257 -0.0033
 1007MOL0     O35858   5.489   2.544   4.070 -0.5978  0.6685 -0.4306
 1007MOL0     C35859   5.748   2.462   4.287  0.1075 -0.7125  0.1392
 1007MOL0     C35860   5.877   2.482   4.331 -0.2968 -0.4303 -0.1395
 1007MOL0     N35861   6.723   2.785   4.277 -0.5689  0.3170  0.1611
 1007MOL0     N35862   6.805   2.871   4.223  0.3147  0.4772 -0.7822
 1007MOL0     C35863   7.559   3.697   4.262  0.0135  0.4457 -0.8402
 1007MOL0     C35864   7.696   3.716   4.290 -0.9605 -0.2665 -0.3915
 1007MOL0     C35865   8.100   3.859   4.350  0.4136  0.3685  0.3947
 1007MOL0     C35866   8.191   3.817   4.255 -0.6331 -0.5470 -0.1587
 1007MOL0     C35867   8.324   3.824   4.285  0.4948  0.2655 -0.4614
 1007MOL0     C35868   8.369   3.889   4.401 -0.5780  0.3758  0.0517
 1007MOL0     O35869   8.498   3.896   4.442 -0.2776  0.6327  0.2278
 1007MOL0     C35870   8.603   3.850   4.350  0.3633 -0.2222 -0.0931
 1007MOL0     C35871   8.730   3.925   4.394 -0.6370  0.2386  0.2738
 1007MOL0     C35872   8.799   3.840   4.498  0.3237  0.6371 -0.4301
 1007MOL0     C35873   8.941   3.888   4.535 -0.0713 -0.2350 -0.1239
 1007MOL0     C35874   9.027   3.863   4.423 -0.2539 -0.2970  0.2866
 1007MOL0     C35875   9.105   3.832   4.342  0.9510  0.0919 -0.5000
 1007MOL0     C35876   8.279   3.939   4.485 -0.5090  0.4272  0.0318
 1007MOL0     C35877   8.141   3.923   4.465 -0.0800  0.0178 -0.5926
 1007MOL0     H35878   7.813   3.778   3.987  2.6658 -0.9114  2.2942
 1007MOL0     H35879   7.580   3.746   3.924 -0.9388  0.2201 -1.0148
 1007MOL0     H35880   7.330   3.824   3.979 -0.1880 -0.5999  2.8208
 1007MOL0     H35881   7.390   3.671   3.899 -0.0603 -0.3241  0.4219
 1007MOL0     H35882   7.134   3.753   4.056  1.5240  0.6740 -0.4027
 1007MOL0     H35883   7.124   3.720   3.882 -2.6062 -1.4155  0.8349
 1007MOL0     H35884   7.196   3.482   3.925 -1.0478  0.7526 -1.0704
 1007MOL0     H35885   7.185   3.509   4.107  0.8083  2.2044  0.0735
 1007MOL0     H35886   6.941   3.558   4.073  0.4622  0.2374 -1.7583
 1007MOL0     H35887   6.949   3.510   3.903 -0.4149  2.2807  0.8174
 1007MOL0     H35888   6.993   3.284   3.966 -1.2728 -1.2853  0.6633
 1007MOL0     H35889   7.025   3.333   4.133 -0.4665  0.1917 -0.1989
 1007MOL0     H35890   6.795   3.386   4.175 -0.3516 -2.1776  0.1615
 1007MOL0     H35891   6.752   3.368   4.000  2.1656  1.3093 -1.7008
 1007MOL0     H35892   6.677   3.180   4.118 -0.5546  2.3838 -3.1470
 1007MOL0     H35893   6.800   3.123   4.010 -1.0464 -1.8567  1.7709
 1007MOL0     H35894   6.837   3.197   4.293 -0.3760  0.4146 -0.1340
 1007MOL0     H35895   6.951   3.102   4.191  0.2440 -0.4099  2.5478
 1007MOL0     H35896   6.612   3.074   4.384  1.1869  0.2063  2.0339
 1007MOL0     H35897   6.552   2.755   4.503  0.8386  2.4313  0.6970
 1007MOL0     H35898   6.472   2.904   4.468 -0.5585 -0.1680 -0.7072
 1007MOL0     H35899   6.466   2.664   4.256 -2.3213 -0.5078 -0.5437
 1007MOL0     H35900   6.408   2.833   4.243 -0.3061 -0.3388  0.1593
 1007MOL0     H35901   6.244   2.762   4.453 -1.8596 -1.2529 -0.1429
 1007MOL0     H35902   6.306   2.603   4.441 -1.9770 -0.6694 -0.8932
 1007MOL0     H35903   6.244   2.645   4.173  0.2300  0.6690  0.7505
 1007MOL0     H35904   6.141   2.768   4.255 -0.6673  0.1117  0.5533
 1007MOL0     H35905   5.994   2.692   4.099  1.5152 -0.7699  1.6339
 1007MOL0     H35906   5.851   2.713   3.920 -0.4770  2.6935  3.6364
 1007MOL0     H35907   5.758   2.559   3.892  1.5992 -1.8478  1.4775
 1007MOL0     H35908   5.678   2.711   3.960  0.4555 -1.5482  1.4766
 1007MOL0     H35909   5.437   2.357   3.893  1.1916  1.0769  1.7179
 1007MOL0     H35910   5.210   2.251   3.834 -1.4486 -2.0868  2.0694
 1007MOL0     H35911   4.989   2.085   4.182  1.7132 -0.8300 -1.2735
 1007MOL0     H35912   4.942   2.258   4.164 -0.5071  0.1167  0.8009
 1007MOL0     H35913   4.806   2.188   3.956 -2.4540 -1.6322 -1.0602
 1007MOL0     H35914   4.832   2.034   4.029  1.5164 -0.0209  1.6018
 1007MOL0     H35915   4.720   2.296   4.170  0.0266  0.0632  0.7846
 1007MOL0     H35916   4.714   2.123   4.237  3.5190 -0.2348 -0.1832
 1007MOL0     H35917   4.560   2.234   4.004 -0.0845 -1.8764 -0.7439
 1007MOL0     H35918   4.576   2.073   4.048  1.4936 -0.5699  2.5072
 1007MOL0     H35919   4.438   2.280   4.243  0.0111 -0.7700  0.7579
 1007MOL0     H35920   4.462   2.112   4.271  0.0513 -0.4374 -0.7051
 1007MOL0     H35921   4.331   2.052   4.063 -1.0185 -0.8284  0.9613
 1007MOL0     H35922   4.247   2.120   4.197  1.3825 -0.6359  1.5187
 1007MOL0     H35923   4.357   2.297   3.962 -0.4174  0.6187  0.4640
 1007MOL0     H35924   4.254   2.334   4.105 -3.3631 -4.1537  1.9015
 1007MOL0     H35925   4.153   2.293   3.860  0.7780  0.1558 -0.4880
 1007MOL0     H35926   4.060   2.253   4.002 -0.3543  1.6004 -2.3144
 1007MOL0     H35927   5.176   2.172   4.262  3.0750 -2.0549  1.1464
 1007MOL0     H35928   5.400   2.224   4.300  0.9705  1.7530  0.0080
 1007MOL0     H35929   5.673   2.406   4.343 -0.1665  1.3491  1.9861
 1007MOL0     H35930   5.901   2.434   4.426 -0.8122 -1.5538 -0.5685
 1007MOL0     H35931   7.499   3.664   4.346  0.6383 -1.4296 -1.0869
 1007MOL0     H35932   7.730   3.695   4.390  0.5530 -0.6703 -0.9688
 1007MOL0     H35933   8.177   3.773   4.157  3.6032 -0.2634 -1.1091
 1007MOL0     H35934   8.392   3.774   4.217  0.7779  0.3625 -0.2499
 1007MOL0     H35935   8.612   3.741   4.357  1.4640 -0.0647  1.3744
 1007MOL0     H35936   8.584   3.878   4.246 -0.1599 -0.2589 -0.0081
 1007MOL0     H35937   8.712   4.028   4.424 -3.2590  0.6109 -2.1333
 1007MOL0     H35938   8.794   3.921   4.305 -0.7582 -0.7720  0.2181
 1007MOL0     H35939   8.809   3.733   4.477 -0.3769  0.1200  1.6533
 1007MOL0     H35940   8.738   3.848   4.588  1.4388 -2.7035  0.7973
 1007MOL0     H35941   8.982   3.846   4.627  0.8196  0.4148 -0.2131
 1007MOL0     H35942   8.932   3.995   4.558 -0.6875 -0.1061 -0.9158
 1007MOL0     H35943   9.170   3.794   4.266  0.2059 -3.1029  0.3262
 1007MOL0     H35944   8.311   4.000   4.569  2.6234 -0.2842 -0.5060
 1007MOL0     H35945   8.069   3.961   4.536  0.7912 -0.1215  0.3884
 1008MOL0     O35946   5.797   2.883   2.748 -0.9521  0.6298 -0.3589
 1008MOL0     C35947   5.864   2.987   2.736 -0.3251 -0.1722 -0.4705
 1008MOL0     O35948   5.814   3.115   2.705  0.6281  0.0261 -0.7777
 1008MOL0     C35949   5.676   3.127   2.697 -0.3117 -0.2804  0.4517
 1008MOL0     C35950   5.590   3.109   2.806 -0.0946 -1.1047  1.1651
 1008MOL0     C35951   5.459   3.151   2.794 -0.4094  0.2404  0.4564
 1008MOL0     C35952   5.403   3.205   2.675 -0.2261 -0.9491 -0.0454
 1008MOL0     O35953   5.269   3.232   2.684 -0.2643  0.1403 -0.0069
 1008MOL0     C35954   5.229   3.347   2.605  0.1347  1.1493  0.0474
 1008MOL0     C35955   5.092   3.384   2.636 -0.3743 -0.4170  0.9840
 1008MOL0     C35956   4.980   3.329   2.542 -0.7272 -0.1940 -0.3987
 1008MOL0     C35957   4.853   3.319   2.634  0.2355 -1.0253 -0.0210
 1008MOL0     C35958   4.745   3.226   2.563  0.2923  0.2240  0.4119
 1008MOL0     C35959   4.704   3.291   2.431  0.3305  0.3066  0.7069
 1008MOL0     C35960   4.585   3.219   2.368  0.5168  0.2835  0.4627
 1008MOL0     C35961   4.522   3.316   2.259  0.0271  0.5648 -0.0973
 1008MOL0     N35962   4.377   3.294   2.253  0.1349 -0.6924  0.0161
 1008MOL0     C35963   4.304   3.196   2.190 -0.2399 -0.3900  0.9101
 1008MOL0     C35964   4.177   3.230   2.206 -0.5394  1.0891  0.5843
 1008MOL0     C35965   4.063   3.156   2.144  0.1182  0.5942 -0.8759
 1008MOL0     C35966   3.943   3.146   2.242 -0.1424 -0.7131  0.3902
 1008MOL0     C35967   3.818   3.102   2.166 -0.2422  0.2360  1.4823
 1008MOL0     C35968   3.690   3.100   2.250  0.5844 -1.1269 -0.5310
 1008MOL0     O35969   3.580   3.064   2.161 -0.1640 -0.2243  0.7266
 1008MOL0     C35970   3.458   3.111   2.177 -0.6089  0.4148 -0.3772
 1008MOL0     C35971   3.365   3.057   2.085 -0.2875  0.2026  0.1024
 1008MOL0     C35972   3.237   3.109   2.073  0.3028  0.0415 -0.4656
 1008MOL0     C35973   3.160   3.035   1.957  0.1547  0.2246  0.0160
 1008MOL0     C35974   3.175   3.201   2.165 -0.0753 -1.1396  0.2362
 1008MOL0     C35975   3.034   3.254   2.168 -0.1324 -0.2191  0.1767
 1008MOL0     O35976   2.997   3.321   2.285 -0.0710 -0.2528 -0.6511
 1008MOL0     C35977   2.876   3.380   2.306 -0.9163  0.2782  0.2948
 1008MOL0     C35978   2.808   3.343   2.420  0.1987  0.3468 -0.5014
 1008MOL0     C35979   2.673   3.390   2.434 -0.1521  0.9678 -0.5053
 1008MOL0     C35980   2.614   3.492   2.350 -0.5056  0.2652 -0.6148
 1008MOL0     O35981   2.494   3.543   2.387 -0.5612 -0.7538  0.0933
 1008MOL0     C35982   2.443   3.642   2.294 -0.0237 -0.6664 -0.1137
 1008MOL0     C35983   2.354   3.735   2.374 -0.4168 -0.5531 -0.1113
 1008MOL0     C35984   2.260   3.816   2.287 -0.7355 -0.3430  0.3419
 1008MOL0     C35985   2.199   3.941   2.356 -0.4223  0.1010 -1.4102
 1008MOL0     C35986   2.054   3.953   2.318  0.1794  0.0616 -0.2521
 1008MOL0     C35987   1.976   4.028   2.423  0.2602  0.8227  0.6312
 1008MOL0     C35988   1.839   4.058   2.359  1.1090  0.0893 -0.0531
 1008MOL0     C35989   1.740   4.119   2.459  0.1715  0.4987 -0.5816
 1008MOL0    Cl35990   1.812   4.239   2.565  0.0932 -0.0254 -0.2144
 1008MOL0     C35991   2.691   3.527   2.235  0.2121  0.0980 -0.5160
 1008MOL0     C35992   2.817   3.467   2.215  0.3825 -0.6955  0.1812
 1008MOL0     O35993   2.958   3.224   2.078 -0.4203  0.5612  1.1346
 1008MOL0     C35994   3.270   3.249   2.265  0.2322 -0.3141 -0.2397
 1008MOL0     C35995   3.405   3.205   2.272 -0.2420 -0.6016 -0.2918
 1008MOL0     N35996   4.171   3.346   2.281 -0.9010  0.0406  0.2107
 1008MOL0     N35997   4.292   3.377   2.307  0.3448 -0.4872  0.0147
 1008MOL0     C35998   5.491   3.221   2.568  0.1534 -0.0801  0.8823
 1008MOL0     C35999   5.622   3.188   2.580 -0.8032  0.0293 -0.3228
 1008MOL0     C36000   6.014   2.976   2.756 -0.2325 -0.7113 -0.4783
 1008MOL0     C36001   6.082   2.854   2.780 -0.0127 -0.5679 -0.4856
 1008MOL0     C36002   6.214   2.859   2.808 -0.0180  1.5815 -0.6606
 1008MOL0     C36003   6.298   2.968   2.809 -0.0971 -0.0040 -0.2796
 1008MOL0     O36004   6.437   2.961   2.845  0.5217 -0.8502 -0.3357
 1008MOL0     C36005   6.479   2.883   2.956 -0.3650 -0.4429 -0.5939
 1008MOL0     C36006   6.635   2.884   2.955 -0.1006 -0.5952  0.1961
 1008MOL0     C36007   6.693   3.021   2.899  0.2397 -0.3504 -0.2232
 1008MOL0     C36008   6.843   3.039   2.924  0.7621  0.2848 -0.7386
 1008MOL0     C36009   6.911   2.924   2.878 -0.3750 -0.3019 -0.0056
 1008MOL0     C36010   6.963   2.832   2.828 -0.4172 -0.0839  0.3162
 1008MOL0     C36011   6.234   3.086   2.791 -0.5251  0.1842  0.0225
 1008MOL0     C36012   6.094   3.093   2.762 -0.3595 -0.1798  0.3502
 1008MOL0     H36013   5.626   3.066   2.899  0.1494 -2.3839  0.5080
 1008MOL0     H36014   5.402   3.147   2.886 -0.3013  0.2343  0.5238
 1008MOL0     H36015   5.297   3.428   2.632 -0.2964  1.8501 -0.9141
 1008MOL0     H36016   5.233   3.319   2.500 -0.4922 -1.2685  0.6100
 1008MOL0     H36017   5.073   3.355   2.739 -2.0221 -1.9308  0.3205
 1008MOL0     H36018   5.075   3.492   2.638 -3.1495 -0.7578  3.9970
 1008MOL0     H36019   4.971   3.408   2.467  3.3962  0.9124  0.0292
 1008MOL0     H36020   5.000   3.233   2.493  0.3011 -0.5563  0.6881
 1008MOL0     H36021   4.878   3.283   2.734  1.6229  3.0479  1.2975
 1008MOL0     H36022   4.815   3.419   2.658 -1.6046 -1.3944 -1.1755
 1008MOL0     H36023   4.775   3.123   2.541 -1.9643 -0.1819 -1.0611
 1008MOL0     H36024   4.657   3.222   2.628 -0.7752  0.2078 -0.9998
 1008MOL0     H36025   4.679   3.392   2.464 -1.3234 -0.1502  0.9342
 1008MOL0     H36026   4.786   3.287   2.359 -0.1087  1.9686  0.0695
 1008MOL0     H36027   4.608   3.126   2.315 -1.2733  1.4412 -2.6269
 1008MOL0     H36028   4.507   3.193   2.440 -2.9357 -2.3994 -3.7856
 1008MOL0     H36029   4.574   3.304   2.163  2.0375  1.2334  0.8470
 1008MOL0     H36030   4.555   3.414   2.296 -1.2536  1.4728 -1.2734
 1008MOL0     H36031   4.333   3.110   2.131 -3.4652 -1.2598  0.4366
 1008MOL0     H36032   4.029   3.210   2.055 -0.2740  0.3045 -0.9014
 1008MOL0     H36033   4.097   3.059   2.108 -1.5253  0.3624 -1.9080
 1008MOL0     H36034   3.924   3.244   2.288  2.5008  0.4184 -0.6717
 1008MOL0     H36035   3.969   3.075   2.320  2.9774  0.5004  0.6256
 1008MOL0     H36036   3.832   2.998   2.135 -2.3723  0.4578 -0.4705
 1008MOL0     H36037   3.804   3.156   2.072  0.9020  0.1145  1.2348
 1008MOL0     H36038   3.665   3.192   2.304 -2.1089 -0.4284 -2.7268
 1008MOL0     H36039   3.700   3.021   2.325  2.4750  0.5425  1.1113
 1008MOL0     H36040   3.402   2.983   2.015 -1.0784 -1.9512  1.8542
 1008MOL0     H36041   3.083   2.973   2.002  2.3862 -1.4804  1.7269
 1008MOL0     H36042   3.122   3.101   1.878  0.2109  1.0251  0.6462
 1008MOL0     H36043   3.219   2.961   1.902 -2.1868 -0.2910 -1.9622
 1008MOL0     H36044   2.855   3.284   2.498  1.4063  0.2804 -1.2555
 1008MOL0     H36045   2.631   3.368   2.532 -0.7284  1.2897 -0.6764
 1008MOL0     H36046   2.527   3.698   2.253 -0.8899 -1.1239 -2.7579
 1008MOL0     H36047   2.391   3.607   2.204  0.3591 -0.3850 -0.4466
 1008MOL0     H36048   2.296   3.678   2.448  1.8731 -2.0646  0.6512
 1008MOL0     H36049   2.418   3.803   2.432 -1.0571  0.2197 -0.2972
 1008MOL0     H36050   2.187   3.744   2.250 -1.0003 -0.3250  0.8291
 1008MOL0     H36051   2.329   3.859   2.213 -2.5424 -0.9980 -1.8097
 1008MOL0     H36052   2.196   3.926   2.464  1.1882  0.4080 -1.3121
 1008MOL0     H36053   2.261   4.030   2.344  0.8364 -0.5794 -0.1829
 1008MOL0     H36054   2.006   3.855   2.311  0.1243 -0.0095  0.9225
 1008MOL0     H36055   2.051   4.014   2.227 -1.0463  0.1024 -0.2056
 1008MOL0     H36056   1.973   3.962   2.510  0.7396 -0.6106 -0.3922
 1008MOL0     H36057   2.020   4.124   2.451  0.8875  1.2440 -1.6249
 1008MOL0     H36058   1.786   3.970   2.322  1.7400 -0.1182 -0.4858
 1008MOL0     H36059   1.856   4.126   2.275  2.4362  0.6900  0.6699
 1008MOL0     H36060   1.705   4.037   2.523  0.0247  0.8341 -0.2310
 1008MOL0     H36061   1.653   4.169   2.415  0.3296  0.1079 -1.3675
 1008MOL0     H36062   2.679   3.598   2.154  3.0694  0.5428 -0.6285
 1008MOL0     H36063   2.869   3.505   2.127 -1.1492 -0.4065 -0.6306
 1008MOL0     H36064   3.251   3.317   2.347  1.6108 -0.6828  0.4284
 1008MOL0     H36065   3.477   3.255   2.336 -1.4550 -1.4036  1.7682
 1008MOL0     H36066   5.458   3.270   2.478  2.0209  2.4418  1.4723
 1008MOL0     H36067   5.694   3.200   2.500 -1.0014 -2.6474 -0.9948
 1008MOL0     H36068   6.032   2.758   2.780  1.7569 -1.7314  3.8776
 1008MOL0     H36069   6.262   2.764   2.829 -0.1967  1.3943 -1.0867
 1008MOL0     H36070   6.445   2.934   3.046  2.9530  3.5499 -1.3224
 1008MOL0     H36071   6.445   2.779   2.946 -2.3254  0.3511 -3.3033
 1008MOL0     H36072   6.660   2.804   2.885 -1.7852  0.1336 -1.3089
 1008MOL0     H36073   6.681   2.856   3.050  2.1222  0.3037 -0.5469
 1008MOL0     H36074   6.641   3.110   2.936  0.7215  0.2110 -0.8643
 1008MOL0     H36075   6.685   3.020   2.790  4.8214 -1.5645 -0.7418
 1008MOL0     H36076   6.865   3.066   3.028 -0.6261 -0.5610 -0.2052
 1008MOL0     H36077   6.878   3.119   2.859 -0.8548  1.2102 -0.5361
 1008MOL0     H36078   7.004   2.749   2.774  1.3753 -0.2464  1.8308
 1008MOL0     H36079   6.303   3.169   2.810  0.5983 -1.2311  2.7484
 1008MOL0     H36080   6.056   3.194   2.757 -0.5292 -0.2390  0.4174
 1009MOL0     O36081   2.155   1.856   0.122 -0.5930  0.4094  0.0373
 1009MOL0     C36082   2.182   1.781   0.023  0.6335 -0.2199 -0.2947
 1009MOL0     O36083   2.093   1.716  -0.058  0.7896  0.0793 -0.2466
 1009MOL0     C36084   1.956   1.737  -0.040 -1.0286  0.2193  0.8433
 1009MOL0     C36085   1.911   1.870  -0.061 -0.0778  0.5265  0.4220
 1009MOL0     C36086   1.771   1.884  -0.064 -0.2452 -0.7111 -0.0195
 1009MOL0     C36087   1.684   1.778  -0.064 -0.0432  0.8005 -1.0623
 1009MOL0     O36088   1.548   1.807  -0.071 -0.4493 -0.0008 -0.0934
 1009MOL0     C36089   1.460   1.701  -0.118  0.3184 -0.1189 -0.3844
 1009MOL0     C36090   1.321   1.764  -0.126 -0.2666 -0.3091  0.5757
 1009MOL0     C36091   1.230   1.675  -0.210 -0.5163 -0.3625  0.0066
 1009MOL0     C36092   1.234   1.525  -0.167  0.4764  0.0848  0.4900
 1009MOL0     C36093   1.099   1.461  -0.209 -0.1042  0.5289 -0.2701
 1009MOL0     C36094   0.979   1.474  -0.111  0.3711 -0.3626  0.0522
 1009MOL0     C36095   0.872   1.377  -0.146 -0.3493 -0.2947  0.2262
 1009MOL0     C36096   0.919   1.237  -0.090  0.3927 -0.4477 -0.3986
 1009MOL0     N36097   0.814   1.142  -0.116 -0.2311 -0.0312  0.3849
 1009MOL0     C36098   0.731   1.090  -0.015 -0.3391 -0.3220  0.2816
 1009MOL0     C36099   0.643   1.013  -0.085  0.6555 -0.1472 -0.0407
 1009MOL0     C36100   0.533   0.935  -0.022  0.3587 -0.4907  0.2489
 1009MOL0     C36101   0.425   1.038   0.022  0.0873  0.0913  0.2659
 1009MOL0     C36102   0.328   0.965   0.112  0.8220 -0.2379  0.0839
 1009MOL0     C36103   0.230   1.063   0.179  0.5662 -0.0608 -0.1572
 1009MOL0     O36104   0.159   0.989   0.274 -0.3152 -0.1312 -0.2136
 1009MOL0     C36105   0.047   1.053   0.326  0.0093  0.0765  0.5033
 1009MOL0     C36106  -0.041   0.972   0.389  1.0654 -0.4312 -0.2615
 1009MOL0     C36107  -0.168   1.023   0.434 -0.4303  0.0342  0.5952
 1009MOL0     C36108  -0.267   0.926   0.494  1.0052  0.2588 -0.3442
 1009MOL0     C36109  -0.196   1.160   0.412 -0.3020  0.3807 -0.0549
 1009MOL0     C36110  -0.311   1.224   0.471 -0.1191  0.1472 -0.5853
 1009MOL0     O36111  -0.360   1.332   0.404  0.6031 -0.0264  0.3093
 1009MOL0     C36112  -0.479   1.390   0.435  0.0244 -0.3876 -0.3321
 1009MOL0     C36113  -0.494   1.533   0.415 -0.0089 -0.6145 -0.1069
 1009MOL0     C36114  -0.615   1.596   0.429  0.1022  0.8696 -0.1304
 1009MOL0     C36115  -0.732   1.528   0.468 -0.6368 -0.0239 -0.0690
 1009MOL0     O36116  -0.830   1.611   0.508  0.5358  0.3385  0.1598
 1009MOL0     C36117  -0.911   1.574   0.617  0.1011  0.5422  0.4975
 1009MOL0     C36118  -1.002   1.693   0.656  0.3315 -0.3835 -0.0914
 1009MOL0     C36119  -1.099   1.747   0.548 -0.5548  0.3002 -0.1944
 1009MOL0     C36120  -1.143   1.885   0.599  0.1629  0.3562 -0.4472
 1009MOL0     C36121  -1.253   1.941   0.511 -0.8422 -1.1835  0.0875
 1009MOL0     C36122  -1.194   2.004   0.382  0.1036  0.2289 -0.0229
 1009MOL0     C36123  -1.294   2.100   0.315  0.6275  0.4475  0.4519
 1009MOL0     C36124  -1.422   2.048   0.246 -0.1915  0.5014 -0.2590
 1009MOL0    Cl36125  -1.368   1.960   0.098  0.1736  0.2457 -0.6333
 1009MOL0     C36126  -0.719   1.389   0.481 -0.6517  0.1757 -0.1747
 1009MOL0     C36127  -0.593   1.325   0.470  1.3761 -0.1530 -0.7728
 1009MOL0     O36128  -0.337   1.203   0.587  0.8654 -0.1784  0.5713
 1009MOL0     C36129  -0.113   1.245   0.341 -0.2564 -0.3490  1.0797
 1009MOL0     C36130   0.017   1.194   0.309 -0.1201 -0.0164  0.0884
 1009MOL0     N36131   0.669   1.018  -0.220 -0.0937 -0.4233 -0.2509
 1009MOL0     N36132   0.772   1.098  -0.234 -0.7645  0.4162  0.3612
 1009MOL0     C36133   1.735   1.652  -0.067 -0.5716  0.1672 -0.0260
 1009MOL0     C36134   1.873   1.625  -0.049 -0.1323 -0.0297 -0.0710
 1009MOL0     C36135   2.321   1.770  -0.029 -0.7727  0.6630 -0.3994
 1009MOL0     C36136   2.360   1.685  -0.137  0.6984  0.9440 -0.4336
 1009MOL0     C36137   2.497   1.666  -0.154  0.3074  0.8522 -0.3013
 1009MOL0     C36138   2.599   1.731  -0.087  0.0302  0.4908 -0.0429
 1009MOL0     O36139   2.731   1.722  -0.122 -0.2175  1.1078 -0.9401
 1009MOL0     C36140   2.784   1.589  -0.130  0.3749  0.4177  0.0436
 1009MOL0     C36141   2.821   1.519   0.006  0.2727 -0.7290 -0.7133
 1009MOL0     C36142   2.923   1.612   0.072 -0.9872 -1.0510  0.0487
 1009MOL0     C36143   2.946   1.582   0.217  0.7204  0.2376  0.2115
 1009MOL0     C36144   2.996   1.442   0.237  0.5938 -0.5783  0.6955
 1009MOL0     C36145   3.055   1.349   0.265 -0.8538  0.4172 -0.6639
 1009MOL0     C36146   2.558   1.818   0.013 -0.4170 -0.5217  1.4034
 1009MOL0     C36147   2.425   1.839   0.040  0.5991  0.2990 -0.3545
 1009MOL0     H36148   1.980   1.953  -0.073  2.2123 -0.7900  3.3917
 1009MOL0     H36149   1.727   1.983  -0.055 -0.5263 -0.8909  0.6104
 1009MOL0     H36150   1.491   1.661  -0.215 -1.0876  0.7821 -1.2442
 1009MOL0     H36151   1.453   1.613  -0.053 -2.6315 -0.2050 -0.6953
 1009MOL0     H36152   1.265   1.775  -0.033 -2.7452  1.4986 -0.9916
 1009MOL0     H36153   1.330   1.859  -0.179 -2.5984 -0.5101 -0.2875
 1009MOL0     H36154   1.127   1.710  -0.204 -1.3277 -2.5757  0.0251
 1009MOL0     H36155   1.255   1.679  -0.317 -4.7033 -0.2799 -1.1434
 1009MOL0     H36156   1.314   1.470  -0.219  0.5528  0.5729  0.0760
 1009MOL0     H36157   1.246   1.536  -0.059 -3.4421 -0.7911  1.1755
 1009MOL0     H36158   1.065   1.485  -0.310  0.0015 -1.4128 -0.8186
 1009MOL0     H36159   1.130   1.356  -0.210  3.7020  1.4828 -0.2237
 1009MOL0     H36160   1.013   1.473  -0.008 -0.4832  0.6502  0.3682
 1009MOL0     H36161   0.928   1.571  -0.122 -1.3540 -0.6447  4.0334
 1009MOL0     H36162   0.782   1.410  -0.094  0.9268 -0.6921  2.8851
 1009MOL0     H36163   0.845   1.365  -0.251 -1.1180 -1.8412  0.5732
 1009MOL0     H36164   0.956   1.235   0.013  0.0324  0.0840 -0.2527
 1009MOL0     H36165   1.004   1.201  -0.150 -1.1101  0.1193 -3.0218
 1009MOL0     H36166   0.748   1.098   0.091  0.7496  1.3110  0.0182
 1009MOL0     H36167   0.488   0.862  -0.090 -1.8643  1.6709 -0.7720
 1009MOL0     H36168   0.579   0.882   0.061  2.6419  1.6365  0.4713
 1009MOL0     H36169   0.375   1.070  -0.069  0.7163  1.1891  0.2951
 1009MOL0     H36170   0.467   1.125   0.073  0.9607 -0.8042  1.1231
 1009MOL0     H36171   0.376   0.925   0.202 -0.7926  1.1184  1.6353
 1009MOL0     H36172   0.283   0.880   0.061  1.1026 -0.0633 -0.4584
 1009MOL0     H36173   0.169   1.105   0.098  1.8875  2.7638  0.1972
 1009MOL0     H36174   0.291   1.145   0.217 -0.6446  1.8509 -2.1412
 1009MOL0     H36175  -0.004   0.874   0.415 -0.1499 -0.3097  2.2123
 1009MOL0     H36176  -0.253   0.822   0.461  0.1792 -0.9462  2.6677
 1009MOL0     H36177  -0.271   0.924   0.604  0.6321 -1.3095 -0.3510
 1009MOL0     H36178  -0.363   0.963   0.459  1.3308 -0.1672 -1.7266
 1009MOL0     H36179  -0.410   1.594   0.381  0.4383  0.9350  3.3277
 1009MOL0     H36180  -0.624   1.698   0.393  3.7328  1.2216 -0.3223
 1009MOL0     H36181  -0.976   1.496   0.578 -1.7549  2.4094 -0.3379
 1009MOL0     H36182  -0.844   1.545   0.699  0.3380  0.4395  0.2700
 1009MOL0     H36183  -1.062   1.676   0.745  0.9571  1.5096  0.7399
 1009MOL0     H36184  -0.933   1.774   0.680  0.6060  0.1028 -2.2563
 1009MOL0     H36185  -1.189   1.688   0.532  1.1119 -2.4571 -0.0712
 1009MOL0     H36186  -1.045   1.757   0.453  1.5908 -1.7726  0.6926
 1009MOL0     H36187  -1.169   1.889   0.705 -0.1736  0.4483 -0.5297
 1009MOL0     H36188  -1.063   1.960   0.598 -0.8724  1.7431  3.2430
 1009MOL0     H36189  -1.305   2.023   0.562 -0.5663 -1.0009  0.0792
 1009MOL0     H36190  -1.332   1.873   0.478  0.5080 -1.0555 -3.9969
 1009MOL0     H36191  -1.107   2.064   0.413  0.3996 -0.1744 -0.0630
 1009MOL0     H36192  -1.162   1.939   0.300 -1.5439  0.4064 -0.8540
 1009MOL0     H36193  -1.236   2.162   0.246  0.6398 -0.2399 -0.1680
 1009MOL0     H36194  -1.334   2.162   0.396  1.1175 -1.9117  2.6488
 1009MOL0     H36195  -1.491   2.130   0.225 -1.4426  0.0677  1.8590
 1009MOL0     H36196  -1.473   1.986   0.320  0.1445 -2.0773 -2.0643
 1009MOL0     H36197  -0.812   1.338   0.507 -1.8098  0.8794 -2.6381
 1009MOL0     H36198  -0.583   1.217   0.477  2.9873 -0.0083 -0.3607
 1009MOL0     H36199  -0.135   1.350   0.321  0.1171 -0.5144 -0.2932
 1009MOL0     H36200   0.092   1.262   0.271  0.5002 -0.2939  0.7848
 1009MOL0     H36201   1.676   1.564  -0.089  0.0922 -0.1256 -0.6913
 1009MOL0     H36202   1.910   1.524  -0.060  1.4076  0.5939 -0.9577
 1009MOL0     H36203   2.287   1.630  -0.195  1.3374 -1.7234  1.1042
 1009MOL0     H36204   2.514   1.597  -0.236 -2.1540  0.2729 -0.3935
 1009MOL0     H36205   2.709   1.524  -0.177 -1.0011 -0.3798  3.1201
 1009MOL0     H36206   2.880   1.584  -0.184  0.7688 -1.0253  0.8275
 1009MOL0     H36207   2.863   1.419  -0.008  1.4933 -0.3376 -0.0426
 1009MOL0     H36208   2.735   1.523   0.073  0.0290 -1.6175 -0.9605
 1009MOL0     H36209   2.893   1.717   0.072 -1.8852 -1.2142  2.9312
 1009MOL0     H36210   3.019   1.601   0.020 -1.1082  1.6173 -0.9305
 1009MOL0     H36211   2.856   1.605   0.274  1.0871  1.9161  0.1666
 1009MOL0     H36212   3.023   1.639   0.269 -1.9889  3.3933  1.0715
 1009MOL0     H36213   3.087   1.258   0.312 -3.1407  0.2859  0.7621
 1009MOL0     H36214   2.629   1.877   0.069  0.0216  1.3552 -0.9620
 1009MOL0     H36215   2.401   1.906   0.122  1.6601  2.0215 -1.3858
 1010MOL0     O36216   2.920   1.201  11.259  0.5267 -0.4930 -0.7449
 1010MOL0     C36217   2.998   1.145  11.193  0.0414 -0.2444  0.0860
 1010MOL0     O36218   2.960   1.040  11.113 -0.0718 -0.1102 -0.5025
 1010MOL0     C36219   2.831   0.994  11.095 -1.1392  0.2261  1.1831
 1010MOL0     C36220   2.821   0.862  11.039  0.2796  0.6416 -0.3005
 1010MOL0     C36221   2.696   0.811  11.010 -0.5693 -0.1398 -0.6499
 1010MOL0     C36222   2.576   0.877  11.012 -0.7016  0.1680 -0.0133
 1010MOL0     O36223   2.455   0.819  10.997 -0.5395 -0.0308 -0.6260
 1010MOL0     C36224   2.459   0.678  10.976 -0.2288 -0.3998  0.2212
 1010MOL0     C36225   2.323   0.614  10.969 -0.3453  0.3775 -0.6485
 1010MOL0     C36226   2.315   0.457  10.996  0.1103 -0.3286  0.3834
 1010MOL0     C36227   2.179   0.409  11.030 -0.0315 -0.3800  0.3429
 1010MOL0     C36228   2.134   0.411  11.175  0.1574 -0.0977  0.2384
 1010MOL0     C36229   2.199   0.311  11.265 -0.2666 -0.3578 -0.0593
 1010MOL0     C36230   2.155   0.341  11.409  0.0403 -0.9450  0.6166
 1010MOL0     C36231   2.270   0.300  11.498  0.6894 -0.3987 -0.6191
 1010MOL0     N36232   2.234   0.333  11.637  0.8182  0.6463 -0.4349
 1010MOL0     C36233   2.237   0.461  11.687 -0.4336  0.4325  0.2369
 1010MOL0     C36234   2.204   0.453  11.819 -0.6870  0.7283  0.2108
 1010MOL0     C36235   2.191   0.559  11.915  0.1573 -0.3930  0.2036
 1010MOL0     C36236   2.054   0.555  11.983  0.2970 -0.1377  0.7200
 1010MOL0     C36237   1.945   0.590  11.876 -0.4266  0.0264  0.0874
 1010MOL0     C36238   1.809   0.519  11.905 -0.0438 -0.4499  0.0734
 1010MOL0     O36239   1.761   0.578  12.025  0.3876 -0.1620  0.1949
 1010MOL0     C36240   1.650   0.525  12.084 -0.6760  0.7134 -0.0593
 1010MOL0     C36241   1.593   0.397  12.059 -0.0283 -0.1731  0.3904
 1010MOL0     C36242   1.483   0.353  12.136  0.2020  0.3821  0.7985
 1010MOL0     C36243   1.432   0.219  12.097  0.0383  0.0394  0.9161
 1010MOL0     C36244   1.425   0.432  12.233  0.1305 -0.2268  0.3028
 1010MOL0     C36245   1.302   0.392  12.299 -0.1967  0.4623  0.0894
 1010MOL0     O36246   1.222   0.500  12.335 -0.8790  0.2932  0.2960
 1010MOL0     C36247   1.107   0.458  12.397 -0.0669 -1.1179  0.7826
 1010MOL0     C36248   1.115   0.442  12.534  0.0415  0.4757  0.2000
 1010MOL0     C36249   0.998   0.402  12.600  0.2936  0.2189  0.4588
 1010MOL0     C36250   0.885   0.366  12.526  0.3173  0.0198 -0.4497
 1010MOL0     O36251   0.781   0.336  12.607  0.2809  0.0915 -1.0392
 1010MOL0     C36252   0.649   0.335  12.550 -0.0066  0.3575 -0.1481
 1010MOL0     C36253   0.550   0.296  12.659  0.5894  0.0642  0.5653
 1010MOL0     C36254   0.406   0.305  12.602 -0.0275 -0.6726  0.5193
 1010MOL0     C36255   0.316   0.246  12.704 -0.3484  0.4297  0.2209
 1010MOL0     C36256   0.167   0.293  12.682  0.3226 -0.1510 -0.8227
 1010MOL0     C36257   0.067   0.237  12.795 -0.3942 -0.3368  0.1064
 1010MOL0     C36258  -0.073   0.294  12.779  0.1992  0.3371 -0.8427
 1010MOL0     C36259  -0.158   0.274  12.905 -0.4036  1.3979  0.3218
 1010MOL0    Cl36260  -0.319   0.325  12.869 -0.5821  0.2301  0.0416
 1010MOL0     C36261   0.885   0.377  12.387 -0.4012 -1.0343  0.0759
 1010MOL0     C36262   0.994   0.425  12.313  0.3210 -0.1623 -0.6027
 1010MOL0     O36263   1.282   0.272  12.338  0.1332 -0.4817 -0.0955
 1010MOL0     C36264   1.487   0.553  12.265  0.1402 -0.2192 -0.6379
 1010MOL0     C36265   1.596   0.600  12.190  0.4600  0.1952 -0.0198
 1010MOL0     N36266   2.174   0.317  11.836 -0.2567  0.2385 -0.4285
 1010MOL0     N36267   2.202   0.244  11.733 -0.5611  0.2562 -0.6634
 1010MOL0     C36268   2.590   1.013  11.049  0.6017  0.3354 -1.0825
 1010MOL0     C36269   2.715   1.074  11.092  0.2273 -0.2050  0.6702
 1010MOL0     C36270   3.138   1.188  11.173  0.6123  0.4493 -0.2501
 1010MOL0     C36271   3.190   1.306  11.238 -0.2540 -0.2721 -0.2275
 1010MOL0     C36272   3.320   1.349  11.214 -0.0296 -0.6224 -0.2266
 1010MOL0     C36273   3.406   1.284  11.128 -0.7082  0.1764  1.1472
 1010MOL0     O36274   3.530   1.349  11.109 -0.0253 -0.2933  0.5463
 1010MOL0     C36275   3.629   1.305  11.011  0.7435 -0.1286 -0.3260
 1010MOL0     C36276   3.737   1.214  11.075  0.0283  0.1345 -0.5846
 1010MOL0     C36277   3.806   1.261  11.198  0.1802 -0.8475 -0.2806
 1010MOL0     C36278   3.907   1.371  11.200 -0.3425  0.3424 -0.0225
 1010MOL0     C36279   4.033   1.326  11.254  0.3918  0.0842 -0.6093
 1010MOL0     C36280   4.145   1.291  11.287 -0.5413  0.6034 -0.4734
 1010MOL0     C36281   3.361   1.163  11.071 -0.1774  1.5397 -0.8801
 1010MOL0     C36282   3.229   1.119  11.093  0.1783  0.5912  0.0968
 1010MOL0     H36283   2.912   0.803  11.031 -1.5052 -2.6646  1.3453
 1010MOL0     H36284   2.697   0.707  10.980  2.2910 -1.4195  3.0583
 1010MOL0     H36285   2.514   0.664  10.882  1.0740  2.2818  0.5069
 1010MOL0     H36286   2.516   0.628  11.055 -0.2657 -1.1072 -0.1864
 1010MOL0     H36287   2.242   0.667  11.020 -1.6694 -0.9416 -1.2937
 1010MOL0     H36288   2.292   0.612  10.864 -1.8333 -0.1336 -0.2400
 1010MOL0     H36289   2.343   0.415  10.899  1.5511 -0.0787  0.6789
 1010MOL0     H36290   2.385   0.430  11.075  1.0518  0.4254 -0.1715
 1010MOL0     H36291   2.100   0.460  10.974 -1.5387 -0.2390  2.5051
 1010MOL0     H36292   2.177   0.306  10.992  0.4536 -0.6694  1.0744
 1010MOL0     H36293   2.179   0.506  11.208 -0.6964 -0.3455  2.2629
 1010MOL0     H36294   2.025   0.405  11.182  0.0137  1.0356 -0.6390
 1010MOL0     H36295   2.182   0.208  11.234 -0.9027 -0.6005  1.0658
 1010MOL0     H36296   2.305   0.338  11.252 -1.0432  1.6230 -3.9310
 1010MOL0     H36297   2.138   0.448  11.423 -1.2356 -1.4158  3.3560
 1010MOL0     H36298   2.062   0.292  11.440  0.0330 -1.4190 -0.1086
 1010MOL0     H36299   2.364   0.349  11.472 -0.4545  1.9026 -0.6562
 1010MOL0     H36300   2.274   0.191  11.491  0.2495 -0.4303 -0.4527
 1010MOL0     H36301   2.252   0.549  11.625  0.8922  0.1724  0.1564
 1010MOL0     H36302   2.273   0.548  11.986  0.1156  0.3084  0.3665
 1010MOL0     H36303   2.205   0.655  11.865 -2.3193 -0.7306 -1.2919
 1010MOL0     H36304   2.050   0.640  12.052 -0.1077  1.2155 -0.9077
 1010MOL0     H36305   2.033   0.466  12.043 -0.5878 -0.2666  0.2277
 1010MOL0     H36306   1.964   0.555  11.774 -0.4485 -2.4446  0.8653
 1010MOL0     H36307   1.933   0.699  11.870 -1.7984 -0.1685 -1.7334
 1010MOL0     H36308   1.831   0.412  11.899 -0.0790 -0.6993  3.0211
 1010MOL0     H36309   1.736   0.544  11.827 -0.9898 -3.4885 -0.1631
 1010MOL0     H36310   1.626   0.346  11.970 -0.2813  2.1010 -1.1005
 1010MOL0     H36311   1.461   0.144  12.171  2.0077  1.4645  1.6665
 1010MOL0     H36312   1.323   0.208  12.092 -0.0260  0.1753  1.9296
 1010MOL0     H36313   1.466   0.188  11.997 -1.2373  0.2054  0.4067
 1010MOL0     H36314   1.207   0.461  12.589  0.5772 -1.1980 -0.0458
 1010MOL0     H36315   0.999   0.382  12.707  0.5843 -1.6901  0.1335
 1010MOL0     H36316   0.615   0.426  12.500  0.4979 -1.3823 -4.0266
 1010MOL0     H36317   0.652   0.255  12.475 -2.8266  0.7064 -0.7447
 1010MOL0     H36318   0.572   0.191  12.684  2.8571 -0.2149 -2.0713
 1010MOL0     H36319   0.566   0.359  12.746 -2.9772  0.2947  1.2131
 1010MOL0     H36320   0.410   0.245  12.510 -0.1200 -0.0022  0.0684
 1010MOL0     H36321   0.391   0.411  12.581  2.4462 -0.3537 -0.0342
 1010MOL0     H36322   0.320   0.139  12.680  1.8819  0.9009 -1.9794
 1010MOL0     H36323   0.338   0.268  12.809  0.1774  2.4589 -0.2687
 1010MOL0     H36324   0.128   0.260  12.585 -1.3958 -2.9911  0.6850
 1010MOL0     H36325   0.166   0.402  12.675 -0.9427 -0.1691 -1.3029
 1010MOL0     H36326   0.062   0.128  12.791 -0.4898 -0.3862  1.3175
 1010MOL0     H36327   0.118   0.265  12.888  1.6037 -0.1180 -0.9931
 1010MOL0     H36328  -0.125   0.247  12.694 -1.1538 -1.0080  0.6539
 1010MOL0     H36329  -0.087   0.399  12.754 -2.8672 -0.0809 -1.3012
 1010MOL0     H36330  -0.127   0.338  12.988  2.4204  0.4301  0.1356
 1010MOL0     H36331  -0.168   0.169  12.935 -2.5451  0.4351 -3.1844
 1010MOL0     H36332   0.798   0.364  12.323 -0.8155  1.3971  0.0407
 1010MOL0     H36333   0.988   0.435  12.205  3.0364 -0.9643 -0.8931
 1010MOL0     H36334   1.453   0.625  12.338  0.3649  0.9251 -1.6345
 1010MOL0     H36335   1.642   0.695  12.213 -0.1125  1.1399 -2.4397
 1010MOL0     H36336   2.502   1.075  11.061 -0.5248 -1.4034  0.1516
 1010MOL0     H36337   2.721   1.179  11.119  2.3148  0.4124 -1.7620
 1010MOL0     H36338   3.131   1.374  11.297  1.7154  0.9270  0.4525
 1010MOL0     H36339   3.340   1.449  11.251  3.5348 -1.7016  1.2655
 1010MOL0     H36340   3.580   1.264  10.922  0.5331 -0.6001  0.0028
 1010MOL0     H36341   3.674   1.392  10.964 -1.2843  3.3160  3.4481
 1010MOL0     H36342   3.814   1.204  10.999 -0.8971  2.4425 -1.9343
 1010MOL0     H36343   3.688   1.117  11.085  1.6865 -0.7528 -0.6993
 1010MOL0     H36344   3.847   1.164  11.228  1.8331 -0.2987 -0.6862
 1010MOL0     H36345   3.732   1.295  11.272  0.6177  0.4315 -0.3989
 1010MOL0     H36346   3.869   1.448  11.268 -1.6461 -0.1144 -0.2019
 1010MOL0     H36347   3.923   1.412  11.100  2.3192  2.2171  1.0362
 1010MOL0     H36348   4.238   1.240  11.303  0.8329  2.0580 -3.0768
 1010MOL0     H36349   3.419   1.096  11.009 -1.4490  0.2122 -0.7025
 1010MOL0     H36350   3.205   1.028  11.039  2.3666  1.1449 -1.9642
 1011MOL0     O36351   7.181   8.865   9.617 -0.0808 -0.3213 -0.1605
 1011MOL0     C36352   7.157   8.968   9.551 -0.0853  0.1978 -0.7783
 1011MOL0     O36353   7.068   9.058   9.582  0.0191 -0.4065  0.6600
 1011MOL0     C36354   6.983   9.048   9.687 -0.8493 -0.4053  0.1159
 1011MOL0     C36355   6.853   9.098   9.677  1.2105  0.1113  0.6644
 1011MOL0     C36356   6.765   9.087   9.788  0.9135  0.0962  0.6863
 1011MOL0     C36357   6.807   9.031   9.912  0.0373  0.2344  0.1873
 1011MOL0     O36358   6.712   9.051  10.020  0.1144  0.3004  0.3971
 1011MOL0     C36359   6.688   8.926  10.088  0.0192  0.3762 -0.3718
 1011MOL0     C36360   6.584   8.966  10.193 -1.1252  0.1012 -1.3618
 1011MOL0     C36361   6.459   9.047  10.141 -0.1400 -0.2530  0.0667
 1011MOL0     C36362   6.352   8.982  10.045 -0.3915  0.3823 -0.3374
 1011MOL0     C36363   6.252   8.878  10.115 -0.7461 -0.7930 -0.2628
 1011MOL0     C36364   6.156   8.827  10.009 -0.4070  0.5005  0.7669
 1011MOL0     C36365   6.077   8.708  10.061 -0.0132  0.2108 -0.1182
 1011MOL0     C36366   5.953   8.676   9.976  0.0659 -0.1345 -0.7767
 1011MOL0     N36367   5.853   8.762  10.033  0.3365  0.3124  0.1623
 1011MOL0     C36368   5.773   8.744  10.143  0.1030 -0.1126 -0.1111
 1011MOL0     C36369   5.689   8.851  10.154  0.1010  0.6537  0.0829
 1011MOL0     C36370   5.580   8.872  10.264  0.6961  0.0690  0.0505
 1011MOL0     C36371   5.435   8.823  10.231  0.6434  0.2805 -0.2468
 1011MOL0     C36372   5.363   8.907  10.117  0.1319 -0.2980 -0.4023
 1011MOL0     C36373   5.239   8.842  10.061  0.0200 -0.1894  0.0356
 1011MOL0     O36374   5.137   8.826  10.161  0.0661  0.1709  0.0031
 1011MOL0     C36375   5.023   8.758  10.135 -1.1739  0.1466 -0.2189
 1011MOL0     C36376   4.927   8.751  10.227  0.2932 -0.8949 -0.2602
 1011MOL0     C36377   4.806   8.685  10.210 -0.2464  0.2244  0.7491
 1011MOL0     C36378   4.709   8.690  10.326  0.0292 -1.1436  0.1754
 1011MOL0     C36379   4.767   8.645  10.082  0.1137 -0.3858 -0.4323
 1011MOL0     C36380   4.629   8.590  10.050 -0.2363 -0.4882  0.2927
 1011MOL0     O36381   4.587   8.601   9.923 -0.0588 -0.8124  0.1479
 1011MOL0     C36382   4.449   8.586   9.898 -0.1536 -0.0862 -0.9845
 1011MOL0     C36383   4.396   8.474   9.826  0.2657 -0.0663  0.2543
 1011MOL0     C36384   4.255   8.458   9.814 -0.7469  0.7476  0.6096
 1011MOL0     C36385   4.169   8.560   9.857 -1.2428 -0.4157  0.1581
 1011MOL0     O36386   4.041   8.559   9.823 -0.2985 -0.7250 -0.6731
 1011MOL0     C36387   3.972   8.687   9.802  0.2308 -0.5708 -0.0400
 1011MOL0     C36388   3.840   8.649   9.723 -0.3807  0.7647  0.3937
 1011MOL0     C36389   3.758   8.775   9.690  1.0860 -0.7843 -0.2862
 1011MOL0     C36390   3.661   8.756   9.578  0.4387 -0.3164 -0.1477
 1011MOL0     C36391   3.556   8.867   9.560 -0.5990  0.3528 -0.3297
 1011MOL0     C36392   3.602   9.012   9.543  0.6350  0.3553  0.9809
 1011MOL0     C36393   3.694   9.032   9.425  0.5835 -0.4331 -0.4678
 1011MOL0     C36394   3.770   9.168   9.436  0.6617 -0.6600 -0.2196
 1011MOL0    Cl36395   3.861   9.173   9.587 -0.0306  0.1998 -0.2008
 1011MOL0     C36396   4.224   8.673   9.919  0.3599 -0.7290 -0.2088
 1011MOL0     C36397   4.360   8.677   9.950  0.3425 -0.3892  0.2768
 1011MOL0     O36398   4.557   8.542  10.137 -0.8582 -0.8253 -0.2551
 1011MOL0     C36399   4.863   8.651   9.985  0.1195 -0.1657 -0.0576
 1011MOL0     C36400   4.993   8.709  10.004 -0.1001  0.0942 -0.4604
 1011MOL0     N36401   5.722   8.934  10.054 -0.4082 -0.5430  0.2997
 1011MOL0     N36402   5.815   8.874   9.978 -0.2609  0.4732  0.2271
 1011MOL0     C36403   6.946   8.994   9.922 -0.2175 -0.5350 -0.1970
 1011MOL0     C36404   7.032   9.009   9.814  0.1182 -0.1253 -0.1859
 1011MOL0     C36405   7.247   9.004   9.438  0.7289  0.2977  0.8885
 1011MOL0     C36406   7.358   8.922   9.416  0.3302 -0.9982  0.1483
 1011MOL0     C36407   7.447   8.953   9.308 -0.6233  0.1294  0.1892
 1011MOL0     C36408   7.421   9.068   9.229 -0.1606  0.4776  0.6408
 1011MOL0     O36409   7.487   9.084   9.113 -0.4556  0.6707 -0.3885
 1011MOL0     C36410   7.564   9.197   9.091  0.3825  0.3725 -0.2464
 1011MOL0     C36411   7.673   9.218   9.193  0.8935  0.4508  0.5132
 1011MOL0     C36412   7.747   9.349   9.165  0.9948  0.0688 -0.0700
 1011MOL0     C36413   7.844   9.381   9.274 -0.0285 -0.6076 -0.4712
 1011MOL0     C36414   7.950   9.467   9.214 -0.4544 -0.3552  0.0341
 1011MOL0     C36415   8.039   9.532   9.168  0.1313 -0.0021 -1.4218
 1011MOL0     C36416   7.311   9.150   9.266  0.0009 -0.3472  0.1413
 1011MOL0     C36417   7.222   9.116   9.367 -0.7675 -0.2886 -0.5462
 1011MOL0     H36418   6.823   9.128   9.578  0.7221 -1.3772  0.3439
 1011MOL0     H36419   6.664   9.127   9.775  0.6962 -0.6065  0.1780
 1011MOL0     H36420   6.640   8.848  10.028 -0.9134  0.8326 -0.2357
 1011MOL0     H36421   6.775   8.884  10.139 -1.1496 -0.3695  1.0915
 1011MOL0     H36422   6.546   8.882  10.251  1.3117  1.0764  2.0021
 1011MOL0     H36423   6.634   9.033  10.264 -0.0837 -0.3469 -1.6420
 1011MOL0     H36424   6.397   9.082  10.224 -1.9682 -1.4044 -0.7468
 1011MOL0     H36425   6.503   9.140  10.102  0.7198 -0.2346  1.0335
 1011MOL0     H36426   6.285   9.057  10.000 -2.6830 -2.1411 -1.4135
 1011MOL0     H36427   6.398   8.927   9.963  0.9363  1.8163 -0.5956
 1011MOL0     H36428   6.314   8.800  10.162  0.1924 -0.2553 -0.5748
 1011MOL0     H36429   6.188   8.926  10.189  0.6372 -0.1290  0.5437
 1011MOL0     H36430   6.085   8.906   9.982 -1.3687 -1.4956 -3.3605
 1011MOL0     H36431   6.218   8.801   9.923 -0.2891  1.0779  0.6727
 1011MOL0     H36432   6.140   8.618  10.063  2.0065  1.5198  3.4068
 1011MOL0     H36433   6.049   8.718  10.166  0.1630  2.3997 -0.2347
 1011MOL0     H36434   5.924   8.573   9.997 -0.5686 -0.0913 -1.3956
 1011MOL0     H36435   5.969   8.678   9.868  2.2823  1.0544 -0.4852
 1011MOL0     H36436   5.772   8.666  10.218 -1.2453 -1.7035 -1.6785
 1011MOL0     H36437   5.596   8.805  10.348 -0.3760 -0.7102 -0.3496
 1011MOL0     H36438   5.568   8.972  10.307 -2.8246  0.0939 -0.7136
 1011MOL0     H36439   5.374   8.838  10.321  0.6979  2.4750 -0.5284
 1011MOL0     H36440   5.436   8.718  10.202 -0.0030  0.0186  0.6191
 1011MOL0     H36441   5.433   8.930  10.036  0.0691 -0.4404 -0.4977
 1011MOL0     H36442   5.337   9.006  10.155  0.9987 -0.5731  0.9856
 1011MOL0     H36443   5.264   8.742  10.024  0.3158  0.0022 -0.2910
 1011MOL0     H36444   5.195   8.905   9.983  0.2207  0.1219  0.1706
 1011MOL0     H36445   4.942   8.811  10.316  2.5076 -3.0856  0.9789
 1011MOL0     H36446   4.738   8.773  10.391 -0.4956 -0.7968 -0.0261
 1011MOL0     H36447   4.613   8.731  10.293  1.4621  2.8235  0.4397
 1011MOL0     H36448   4.703   8.597  10.383 -0.9474 -1.9654 -1.1949
 1011MOL0     H36449   4.464   8.399   9.788  0.6841  0.0340  0.7882
 1011MOL0     H36450   4.222   8.372   9.757  0.6694 -0.4735  1.5505
 1011MOL0     H36451   3.942   8.727   9.899  2.2128  0.1324  0.3344
 1011MOL0     H36452   4.030   8.757   9.742  1.3997  0.2258  1.9590
 1011MOL0     H36453   3.880   8.597   9.635 -0.7223 -0.2522  0.8149
 1011MOL0     H36454   3.782   8.576   9.781 -0.0988  0.2710  0.0651
 1011MOL0     H36455   3.818   8.864   9.670  1.3645 -1.0595 -0.6995
 1011MOL0     H36456   3.709   8.798   9.785 -0.0345  1.5880 -1.3420
 1011MOL0     H36457   3.721   8.745   9.487 -1.2213 -0.5072 -1.2538
 1011MOL0     H36458   3.606   8.663   9.592  2.1817 -1.3373  0.2560
 1011MOL0     H36459   3.502   8.864   9.655  1.2562  1.5577  0.8352
 1011MOL0     H36460   3.493   8.840   9.475 -0.3208  0.1158 -0.4653
 1011MOL0     H36461   3.516   9.080   9.533  1.8558  1.6673 -1.9201
 1011MOL0     H36462   3.657   9.034   9.634  3.2945 -0.3995 -0.3569
 1011MOL0     H36463   3.631   9.030   9.335  0.2258 -0.6269 -0.2179
 1011MOL0     H36464   3.762   8.949   9.403  1.2403  0.0024 -0.0959
 1011MOL0     H36465   3.691   9.243   9.423 -1.5855 -3.0118 -1.2913
 1011MOL0     H36466   3.838   9.181   9.352  1.0569  0.2003  0.2213
 1011MOL0     H36467   4.157   8.751   9.954 -0.6424 -0.7105 -2.0530
 1011MOL0     H36468   4.404   8.759  10.006  1.7407 -0.6829 -0.3532
 1011MOL0     H36469   4.848   8.627   9.880 -0.0615 -0.5823  0.0638
 1011MOL0     H36470   5.063   8.707   9.922 -0.8753  0.2368 -1.1359
 1011MOL0     H36471   6.998   8.950  10.007  0.0589 -4.0795 -1.9891
 1011MOL0     H36472   7.135   8.981   9.834  0.2244 -0.7324 -1.4856
 1011MOL0     H36473   7.363   8.834   9.479 -3.2417  0.3053  2.5195
 1011MOL0     H36474   7.523   8.886   9.269 -2.0653 -1.9599  0.8000
 1011MOL0     H36475   7.611   9.178   8.994 -1.6433 -0.2182 -1.1701
 1011MOL0     H36476   7.498   9.284   9.086 -0.4366  0.0636  2.9357
 1011MOL0     H36477   7.743   9.133   9.188  0.5884  0.2785 -1.5670
 1011MOL0     H36478   7.639   9.221   9.297  1.0169  0.3631  0.5575
 1011MOL0     H36479   7.672   9.427   9.156  1.8948  1.3319  2.3440
 1011MOL0     H36480   7.804   9.330   9.074  0.5797 -0.1189 -0.2942
 1011MOL0     H36481   7.897   9.297   9.320  0.1829 -0.8657 -1.1648
 1011MOL0     H36482   7.790   9.435   9.352 -0.4916 -0.0927 -1.1360
 1011MOL0     H36483   8.138   9.564   9.141  0.2674  0.8353  0.0067
 1011MOL0     H36484   7.288   9.240   9.211 -1.8122 -0.9729 -0.2142
 1011MOL0     H36485   7.137   9.180   9.386  1.6741  2.7347  1.2546
 1012MOL0     O36486   5.961  10.593  10.495 -0.0539  0.2075 -1.0359
 1012MOL0     C36487   5.934  10.684  10.582  0.3449 -0.1174  0.4353
 1012MOL0     O36488   5.817  10.729  10.605  0.3809 -0.5641  0.2262
 1012MOL0     C36489   5.706  10.654  10.583  0.2025 -0.3760 -1.0087
 1012MOL0     C36490   5.589  10.727  10.555 -0.4885 -0.0417  0.2331
 1012MOL0     C36491   5.462  10.676  10.576  0.2812  0.1914 -0.7308
 1012MOL0     C36492   5.443  10.546  10.633  0.1194  0.3317 -0.5856
 1012MOL0     O36493   5.315  10.510  10.628  0.1137  0.3795 -0.7841
 1012MOL0     C36494   5.277  10.375  10.664  0.3571  0.2996  0.2051
 1012MOL0     C36495   5.129  10.346  10.606 -0.1997 -0.3240  0.1555
 1012MOL0     C36496   5.020  10.422  10.681  0.0217  0.1528 -0.0801
 1012MOL0     C36497   4.888  10.430  10.599  0.1064  0.0654 -0.4225
 1012MOL0     C36498   4.759  10.431  10.680  0.5206  0.4742  0.7184
 1012MOL0     C36499   4.650  10.430  10.582 -0.9562 -0.0207 -0.3314
 1012MOL0     C36500   4.509  10.465  10.652 -0.2465  0.1112 -0.1835
 1012MOL0     C36501   4.402  10.410  10.555 -0.3402  0.2269  0.2513
 1012MOL0     N36502   4.261  10.405  10.596  0.0178  0.1629  0.6457
 1012MOL0     C36503   4.184  10.295  10.581 -1.1809 -0.7070 -0.5787
 1012MOL0     C36504   4.063  10.340  10.610  0.3629 -0.4127  0.4500
 1012MOL0     C36505   3.951  10.249  10.616  0.1170  0.0719 -0.3206
 1012MOL0     C36506   3.818  10.318  10.653 -0.9642  0.3861 -0.4676
 1012MOL0     C36507   3.716  10.213  10.678  0.8135  0.1374 -0.5400
 1012MOL0     C36508   3.572  10.267  10.706  0.1572  0.0216  0.0335
 1012MOL0     O36509   3.579  10.363  10.814  0.9159  0.1223 -0.3270
 1012MOL0     C36510   3.458  10.417  10.851  0.7670 -0.2587  0.2117
 1012MOL0     C36511   3.331  10.388  10.812  0.8162  0.7363  0.0148
 1012MOL0     C36512   3.213  10.429  10.867 -0.1610  0.3155  0.2569
 1012MOL0     C36513   3.086  10.355  10.832 -0.7144  0.2358  0.0191
 1012MOL0     C36514   3.221  10.531  10.966  0.0294 -0.8931  0.6546
 1012MOL0     C36515   3.115  10.578  11.057 -0.5273 -0.5158 -0.0044
 1012MOL0     O36516   3.157  10.685  11.140  0.4506  0.5820 -0.3966
 1012MOL0     C36517   3.049  10.723  11.220 -0.6276 -0.6973 -0.1310
 1012MOL0     C36518   2.963  10.835  11.192  0.5838 -0.0053  0.2525
 1012MOL0     C36519   2.853  10.875  11.272 -0.6502  0.0833  0.3760
 1012MOL0     C36520   2.829  10.815  11.391  0.4222  0.5389  0.4387
 1012MOL0     O36521   2.714  10.869  11.464 -0.2671  0.1720 -0.7734
 1012MOL0     C36522   2.667  10.803  11.586  0.0747 -0.6147  0.2731
 1012MOL0     C36523   2.578  10.907  11.669  0.3907  0.2792  0.1561
 1012MOL0     C36524   2.440  10.928  11.592 -0.0188  0.3096 -0.8226
 1012MOL0     C36525   2.434  11.032  11.486 -0.3997 -0.6286 -0.9800
 1012MOL0     C36526   2.305  11.036  11.396 -0.2312 -0.7215  1.0215
 1012MOL0     C36527   2.179  11.083  11.480  0.1435  0.3309 -0.3414
 1012MOL0     C36528   2.190  11.228  11.537 -0.4195 -0.1922  0.0749
 1012MOL0     C36529   2.061  11.285  11.587  0.2975 -0.2075 -0.9767
 1012MOL0    Cl36530   1.952  11.327  11.452  0.0261 -0.0840 -0.2036
 1012MOL0     C36531   2.903  10.706  11.426  0.0776 -0.2509  0.3992
 1012MOL0     C36532   3.012  10.654  11.339 -0.7319 -0.7035  0.0372
 1012MOL0     O36533   3.003  10.527  11.065 -0.0481  0.0008  0.2888
 1012MOL0     C36534   3.356  10.580  11.000  0.1017  0.7268 -0.6829
 1012MOL0     C36535   3.464  10.511  10.952  0.5078 -0.4012 -0.1384
 1012MOL0     N36536   4.060  10.483  10.625  0.2305 -0.2709 -0.2820
 1012MOL0     N36537   4.189  10.515  10.615  0.6470 -0.3953 -0.2507
 1012MOL0     C36538   5.559  10.469  10.653  0.2812  0.2712 -0.3527
 1012MOL0     C36539   5.682  10.522  10.622 -0.3415  0.4659  0.5273
 1012MOL0     C36540   6.044  10.755  10.656  0.1805  0.0986 -0.1868
 1012MOL0     C36541   6.177  10.709  10.650  0.3301 -0.2966 -0.0460
 1012MOL0     C36542   6.278  10.771  10.728  0.1473 -0.1265 -0.0702
 1012MOL0     C36543   6.249  10.869  10.810 -0.0204 -0.4033  0.9439
 1012MOL0     O36544   6.357  10.925  10.869 -0.5933  0.6942  0.1308
 1012MOL0     C36545   6.356  11.038  10.959 -0.0705  0.1411  0.3126
 1012MOL0     C36546   6.463  11.013  11.062 -0.4270 -0.5518  0.4905
 1012MOL0     C36547   6.603  11.017  11.004  1.0261  0.9296  0.0561
 1012MOL0     C36548   6.713  11.022  11.112 -0.7081 -0.0281  0.3908
 1012MOL0     C36549   6.702  10.910  11.202 -0.1927 -0.4400 -0.9280
 1012MOL0     C36550   6.705  10.824  11.287  0.6006  0.4351 -0.3120
 1012MOL0     C36551   6.121  10.914  10.816 -0.7618 -0.7991  0.5313
 1012MOL0     C36552   6.015  10.863  10.741 -1.4150  0.1836 -0.6185
 1012MOL0     H36553   5.605  10.828  10.519 -1.9933 -0.5055 -1.8993
 1012MOL0     H36554   5.378  10.742  10.559  1.2752  1.2621 -1.5921
 1012MOL0     H36555   5.346  10.312  10.608  0.2486  2.4043 -2.5635
 1012MOL0     H36556   5.274  10.346  10.769  0.1081 -1.0207 -0.1523
 1012MOL0     H36557   5.125  10.380  10.502 -0.4795 -2.2073 -0.4860
 1012MOL0     H36558   5.101  10.240  10.607 -0.2776 -0.3062 -0.0273
 1012MOL0     H36559   4.999  10.365  10.773  2.1238 -3.0743 -1.4351
 1012MOL0     H36560   5.050  10.519  10.721  0.4109 -0.2157  0.5439
 1012MOL0     H36561   4.908  10.524  10.547  1.0328  0.6584  0.9579
 1012MOL0     H36562   4.887  10.347  10.528 -1.1532  0.4739 -0.9113
 1012MOL0     H36563   4.759  10.338  10.738 -0.7424  0.8849  1.4176
 1012MOL0     H36564   4.751  10.515  10.750  0.8856  3.7477 -2.8576
 1012MOL0     H36565   4.671  10.510  10.511 -2.6390 -1.0926 -2.1526
 1012MOL0     H36566   4.649  10.332  10.534 -1.7650  1.1260 -2.8066
 1012MOL0     H36567   4.509  10.413  10.747  2.2988  1.1533  0.4879
 1012MOL0     H36568   4.491  10.571  10.672 -0.3345 -0.1217  1.0450
 1012MOL0     H36569   4.441  10.312  10.524  1.8178  0.8815  0.7635
 1012MOL0     H36570   4.409  10.472  10.466 -1.6227 -0.3654 -0.3012
 1012MOL0     H36571   4.207  10.191  10.558 -0.8427 -0.6250 -0.6141
 1012MOL0     H36572   3.940  10.197  10.520 -0.2823  1.0422 -0.8123
 1012MOL0     H36573   3.976  10.170  10.688  0.3339  0.8562  0.4700
 1012MOL0     H36574   3.776  10.396  10.588 -1.0058  1.9193  1.3258
 1012MOL0     H36575   3.834  10.357  10.754 -1.4280 -0.3232 -0.1162
 1012MOL0     H36576   3.741  10.157  10.769 -1.8405 -1.8050 -0.8938
 1012MOL0     H36577   3.709  10.151  10.588  2.2158 -2.7956  1.2201
 1012MOL0     H36578   3.502  10.186  10.727 -0.3284  0.7229  1.1836
 1012MOL0     H36579   3.541  10.316  10.613 -2.6609 -1.1938  0.2181
 1012MOL0     H36580   3.312  10.316  10.734 -3.5328 -0.3854  1.8128
 1012MOL0     H36581   3.004  10.425  10.814  0.2031  1.4278  0.3496
 1012MOL0     H36582   3.112  10.290  10.748  0.2851 -0.4211  0.8150
 1012MOL0     H36583   3.048  10.296  10.916  1.6175 -0.3332  0.7527
 1012MOL0     H36584   2.976  10.881  11.094  0.0253 -0.5374 -0.0841
 1012MOL0     H36585   2.790  10.955  11.236  0.2089  0.8523  0.5659
 1012MOL0     H36586   2.620  10.705  11.571  0.4488 -0.6651 -0.6840
 1012MOL0     H36587   2.750  10.777  11.651 -0.4519 -0.7950  0.8865
 1012MOL0     H36588   2.560  10.886  11.775 -0.9695  1.8374  0.2803
 1012MOL0     H36589   2.627  11.005  11.667  3.0631 -0.9101  2.1936
 1012MOL0     H36590   2.358  10.929  11.663  0.4720  2.0168 -0.2461
 1012MOL0     H36591   2.412  10.839  11.534  0.3163 -1.7212  1.9453
 1012MOL0     H36592   2.448  11.131  11.529  1.8701 -1.1246 -0.4037
 1012MOL0     H36593   2.522  11.011  11.424  0.6904 -0.0147  0.2932
 1012MOL0     H36594   2.294  10.934  11.358  3.5573 -1.7825  2.3082
 1012MOL0     H36595   2.312  11.104  11.311 -2.1298 -0.1496  1.2733
 1012MOL0     H36596   2.095  11.094  11.410 -2.7612  2.4040  3.1270
 1012MOL0     H36597   2.163  11.002  11.552  0.4323  0.1890 -0.4358
 1012MOL0     H36598   2.237  11.297  11.465 -0.3957 -1.6024 -1.3082
 1012MOL0     H36599   2.251  11.216  11.627 -1.2110 -0.2897  0.5963
 1012MOL0     H36600   2.088  11.372  11.649 -1.3955 -0.6774  0.5271
 1012MOL0     H36601   2.008  11.214  11.651 -3.2385  1.6477 -1.5319
 1012MOL0     H36602   2.863  10.669  11.520 -0.9190 -0.9909 -0.2897
 1012MOL0     H36603   3.072  10.576  11.384  1.0167  0.3309 -0.4234
 1012MOL0     H36604   3.376  10.649  11.081 -0.2214 -1.9018  1.7768
 1012MOL0     H36605   3.562  10.531  10.995 -0.5385  1.6561  1.4558
 1012MOL0     H36606   5.544  10.368  10.690  2.5833  0.3856  1.0804
 1012MOL0     H36607   5.775  10.470  10.642 -0.6329 -0.3735 -0.2363
 1012MOL0     H36608   6.206  10.624  10.590 -2.6561 -2.1098  0.8972
 1012MOL0     H36609   6.376  10.725  10.731  0.3571  0.3382  0.1436
 1012MOL0     H36610   6.384  11.131  10.910  1.4194 -0.2068  0.4426
 1012MOL0     H36611   6.259  11.053  11.006  0.7456  2.5658  1.3315
 1012MOL0     H36612   6.439  10.923  11.120 -3.6164 -0.8809 -1.0874
 1012MOL0     H36613   6.459  11.091  11.139 -0.4480 -0.5760  0.5132
 1012MOL0     H36614   6.605  11.109  10.946 -2.3968 -0.0440 -1.8819
 1012MOL0     H36615   6.616  10.929  10.940 -3.7310  1.2019 -1.6830
 1012MOL0     H36616   6.705  11.114  11.171  1.1722  1.1294 -1.0335
 1012MOL0     H36617   6.810  11.039  11.064 -0.2206 -0.5132  1.1854
 1012MOL0     H36618   6.703  10.748  11.364  0.3720  1.1808  0.4336
 1012MOL0     H36619   6.093  11.000  10.877  3.3964 -1.5601  3.9709
 1012MOL0     H36620   5.916  10.908  10.749 -0.7449  1.6297 -0.1893
 1013MOL0     O36621   8.806   3.287   3.404  0.1640 -0.5594 -0.1135
 1013MOL0     C36622   8.886   3.339   3.482 -0.0326  0.3158 -0.1012
 1013MOL0     O36623   8.858   3.445   3.572 -0.1313  0.4861  0.9017
 1013MOL0     C36624   8.747   3.523   3.547  0.4295 -0.7027 -0.2477
 1013MOL0     C36625   8.675   3.570   3.659 -0.8067 -0.1702  0.4977
 1013MOL0     C36626   8.565   3.647   3.634 -1.0028  0.1691 -0.0326
 1013MOL0     C36627   8.511   3.673   3.508  0.1216  0.2624  0.1984
 1013MOL0     O36628   8.389   3.737   3.502 -0.2135  0.3755 -0.6394
 1013MOL0     C36629   8.325   3.781   3.385  0.7272  0.4665  0.2178
 1013MOL0     C36630   8.179   3.800   3.395  0.7696  0.1986  0.2545
 1013MOL0     C36631   8.094   3.791   3.265  0.6960  0.3920  0.2572
 1013MOL0     C36632   8.167   3.802   3.132 -0.1110 -0.9564  0.2773
 1013MOL0     C36633   8.186   3.958   3.088  0.8721  0.5781 -0.7878
 1013MOL0     C36634   8.313   3.978   2.995 -0.1649 -0.1373  0.0165
 1013MOL0     C36635   8.319   4.112   2.930  0.0425  0.3828 -0.1731
 1013MOL0     C36636   8.373   4.234   3.008  0.8051  0.4574 -0.2951
 1013MOL0     N36637   8.329   4.366   2.960 -0.6512  0.3557  0.0295
 1013MOL0     C36638   8.417   4.473   2.930 -0.0987  0.4719 -0.2698
 1013MOL0     C36639   8.336   4.584   2.922  0.0707  0.6677  0.0088
 1013MOL0     C36640   8.372   4.724   2.889  0.1643 -0.4768  0.2764
 1013MOL0     C36641   8.363   4.765   2.741 -0.3514 -0.6290  0.1107
 1013MOL0     C36642   8.418   4.912   2.724  0.4442 -0.2743  0.9502
 1013MOL0     C36643   8.338   5.022   2.793 -0.9151 -1.3415  0.6129
 1013MOL0     O36644   8.193   5.004   2.795  0.1266  0.6701 -0.6396
 1013MOL0     C36645   8.107   5.100   2.831  0.0796 -0.2408 -1.0695
 1013MOL0     C36646   8.153   5.231   2.874 -0.2490  0.2258  0.4129
 1013MOL0     C36647   8.063   5.337   2.882 -0.4792  0.6400  0.3926
 1013MOL0     C36648   8.124   5.476   2.892  1.0113  0.6196  0.1982
 1013MOL0     C36649   7.922   5.316   2.880  0.6960  0.6923  0.1438
 1013MOL0     C36650   7.814   5.413   2.896  0.5115  0.6321  0.3649
 1013MOL0     O36651   7.680   5.363   2.870 -0.3399 -0.3132 -0.4560
 1013MOL0     C36652   7.576   5.448   2.872  0.2253 -0.6048 -0.8281
 1013MOL0     C36653   7.455   5.387   2.916  0.8022 -0.2021  0.2122
 1013MOL0     C36654   7.334   5.461   2.911  0.7876  0.4589  0.2969
 1013MOL0     C36655   7.339   5.596   2.877  0.2858 -0.2764  0.3970
 1013MOL0     O36656   7.221   5.657   2.863  0.7140 -0.0812 -0.1649
 1013MOL0     C36657   7.227   5.801   2.843  0.4984  1.2193 -0.6505
 1013MOL0     C36658   7.085   5.849   2.862  0.3272 -0.6786 -0.1163
 1013MOL0     C36659   6.986   5.827   2.752  0.0746  0.3390  0.2349
 1013MOL0     C36660   6.855   5.883   2.795  0.1318 -0.6194 -0.5133
 1013MOL0     C36661   6.744   5.854   2.689 -0.0079 -0.3486  0.2774
 1013MOL0     C36662   6.610   5.883   2.752 -0.1916  0.1639 -0.9563
 1013MOL0     C36663   6.493   5.846   2.648 -0.4009 -0.3065 -0.1756
 1013MOL0     C36664   6.356   5.894   2.692 -0.2127  0.2316  0.4377
 1013MOL0    Cl36665   6.225   5.860   2.576 -0.1446 -0.1748  0.3016
 1013MOL0     C36666   7.458   5.652   2.824  0.5770 -0.8441  0.1420
 1013MOL0     C36667   7.575   5.577   2.819 -0.2542 -1.2922 -0.1653
 1013MOL0     O36668   7.844   5.532   2.924 -0.2529  0.0618 -0.6645
 1013MOL0     C36669   7.888   5.184   2.863 -0.7098 -0.0963  0.4383
 1013MOL0     C36670   7.977   5.083   2.835 -0.0196 -0.2953 -0.1871
 1013MOL0     N36671   8.210   4.535   2.941 -0.2724 -0.1384 -0.1356
 1013MOL0     N36672   8.204   4.406   2.958  0.6618 -0.0561 -0.9494
 1013MOL0     C36673   8.588   3.639   3.394  0.2648  0.1521 -0.4861
 1013MOL0     C36674   8.704   3.562   3.416 -0.5271  0.4885  0.8401
 1013MOL0     C36675   9.029   3.279   3.470  0.3472  0.6088  0.0826
 1013MOL0     C36676   9.075   3.203   3.360 -0.8103 -1.1293 -0.4921
 1013MOL0     C36677   9.204   3.165   3.346 -0.0830  0.1776 -0.0866
 1013MOL0     C36678   9.307   3.191   3.443  0.4853  0.3224  0.2591
 1013MOL0     O36679   9.433   3.129   3.442 -0.1024 -0.3131  0.4950
 1013MOL0     C36680   9.463   3.024   3.346  0.1934 -1.1227 -0.1870
 1013MOL0     C36681   9.562   3.076   3.239 -1.3700 -0.1197 -0.2727
 1013MOL0     C36682   9.515   3.190   3.164  0.2640  1.1397  0.6621
 1013MOL0     C36683   9.617   3.288   3.108 -0.0151 -0.3327  0.3774
 1013MOL0     C36684   9.702   3.205   3.014 -0.3566  0.0405  0.3626
 1013MOL0     C36685   9.782   3.132   2.952  0.0206 -0.2576 -0.3635
 1013MOL0     C36686   9.258   3.261   3.557 -0.2083 -0.0130  0.2658
 1013MOL0     C36687   9.125   3.310   3.569 -0.5958  0.2049 -0.0487
 1013MOL0     H36688   8.707   3.562   3.762 -0.2832 -1.4589  0.2601
 1013MOL0     H36689   8.519   3.690   3.722  1.0419 -0.8480  1.6165
 1013MOL0     H36690   8.372   3.871   3.344  2.6638 -2.2685 -4.2862
 1013MOL0     H36691   8.335   3.694   3.320 -2.5921 -1.0748  1.5075
 1013MOL0     H36692   8.124   3.724   3.452 -1.1332 -0.4273 -2.2363
 1013MOL0     H36693   8.158   3.894   3.447  0.0961 -0.1761  0.6781
 1013MOL0     H36694   8.044   3.694   3.259 -1.2201  1.3356  0.0795
 1013MOL0     H36695   8.008   3.857   3.284 -0.0602 -0.9529  1.7103
 1013MOL0     H36696   8.264   3.754   3.117  0.5722  0.6859 -0.9022
 1013MOL0     H36697   8.111   3.756   3.049  1.8409 -0.9438 -1.1026
 1013MOL0     H36698   8.093   4.005   3.056 -0.3398  0.1633  1.8193
 1013MOL0     H36699   8.213   4.019   3.175 -0.8007  3.6357 -2.2310
 1013MOL0     H36700   8.403   3.969   3.057 -0.4177 -1.2151  0.2594
 1013MOL0     H36701   8.317   3.889   2.932 -2.6378 -0.9462  0.8477
 1013MOL0     H36702   8.373   4.105   2.835 -1.9519  2.6864 -1.5881
 1013MOL0     H36703   8.216   4.135   2.900 -0.3436 -1.6419 -0.5862
 1013MOL0     H36704   8.482   4.229   2.996  0.7215 -0.4242 -0.7888
 1013MOL0     H36705   8.348   4.223   3.114  0.8367  0.6873 -0.2652
 1013MOL0     H36706   8.524   4.491   2.928  0.2611 -1.5602 -2.0417
 1013MOL0     H36707   8.296   4.791   2.931  1.0013  1.3921 -1.0516
 1013MOL0     H36708   8.475   4.742   2.920 -0.1580  0.3303  0.9105
 1013MOL0     H36709   8.259   4.766   2.707  0.0829 -1.9162 -1.3534
 1013MOL0     H36710   8.422   4.699   2.678 -0.9128 -0.1411 -0.9457
 1013MOL0     H36711   8.448   4.941   2.623  1.7953 -2.4923  0.6559
 1013MOL0     H36712   8.519   4.918   2.766  0.2555 -0.0418  1.3788
 1013MOL0     H36713   8.358   5.119   2.745 -0.0320 -1.0390  1.5586
 1013MOL0     H36714   8.388   5.023   2.890  2.8087 -2.0006 -1.1157
 1013MOL0     H36715   8.259   5.251   2.887  0.4612 -3.9424  2.6794
 1013MOL0     H36716   8.230   5.476   2.866  0.9449  0.0892 -0.0940
 1013MOL0     H36717   8.075   5.549   2.827  0.3326  0.5935  0.6676
 1013MOL0     H36718   8.105   5.504   2.996 -2.5094  2.7651 -0.8580
 1013MOL0     H36719   7.456   5.282   2.942 -1.8231  0.0493  1.5923
 1013MOL0     H36720   7.237   5.415   2.924 -1.9770  5.6472  0.4310
 1013MOL0     H36721   7.297   5.844   2.914 -0.8174  2.2246  0.0795
 1013MOL0     H36722   7.263   5.825   2.742  0.1257 -0.3578 -1.2085
 1013MOL0     H36723   7.054   5.798   2.954  2.2802 -0.7813  0.5403
 1013MOL0     H36724   7.085   5.955   2.886  0.1049 -0.1878 -2.1574
 1013MOL0     H36725   6.976   5.718   2.745 -1.6685  0.5967 -3.2440
 1013MOL0     H36726   7.024   5.872   2.660  3.8463  1.2150  1.9869
 1013MOL0     H36727   6.828   5.835   2.890  0.7023 -1.1289 -0.6034
 1013MOL0     H36728   6.862   5.991   2.809 -0.6320 -0.6100 -0.1686
 1013MOL0     H36729   6.758   5.748   2.668  2.6056 -0.0837  0.3274
 1013MOL0     H36730   6.750   5.917   2.600  0.3548 -2.8219 -1.5441
 1013MOL0     H36731   6.588   5.815   2.835  1.5741 -1.6448 -1.8980
 1013MOL0     H36732   6.608   5.983   2.796  0.1269 -0.1934 -0.0997
 1013MOL0     H36733   6.487   5.737   2.638  0.4168 -0.5981  1.9485
 1013MOL0     H36734   6.517   5.898   2.555 -2.1648 -0.2385 -0.6311
 1013MOL0     H36735   6.364   5.998   2.725  0.8225  0.2842  0.0619
 1013MOL0     H36736   6.331   5.836   2.782 -0.6498  0.0865  0.2229
 1013MOL0     H36737   7.465   5.754   2.789 -1.5239 -0.7136 -0.0269
 1013MOL0     H36738   7.663   5.611   2.764  1.3801 -2.0256  1.8639
 1013MOL0     H36739   7.788   5.145   2.850 -0.9441  1.2022 -2.5559
 1013MOL0     H36740   7.938   4.988   2.799 -1.3969  1.1389 -2.8002
 1013MOL0     H36741   8.550   3.663   3.295  0.0439  1.7256 -0.0433
 1013MOL0     H36742   8.755   3.536   3.323 -0.7734  0.9631  0.5674
 1013MOL0     H36743   9.023   3.177   3.269  1.5995 -0.0595 -2.2934
 1013MOL0     H36744   9.227   3.117   3.251  2.4744 -3.2608  2.0460
 1013MOL0     H36745   9.507   2.941   3.401  4.8033 -0.1731 -2.0160
 1013MOL0     H36746   9.376   2.986   3.292 -0.0527 -0.4384 -0.2868
 1013MOL0     H36747   9.576   2.990   3.173 -1.7682 -0.5922  0.2496
 1013MOL0     H36748   9.662   3.100   3.277 -1.9775  0.3957  1.0730
 1013MOL0     H36749   9.441   3.244   3.223 -2.1648 -2.4884  1.2653
 1013MOL0     H36750   9.457   3.149   3.081  2.1937 -0.3653 -0.0256
 1013MOL0     H36751   9.677   3.332   3.189  1.2603 -2.2610  0.5484
 1013MOL0     H36752   9.569   3.366   3.049  1.9621 -0.6698 -1.8187
 1013MOL0     H36753   9.855   3.083   2.890 -1.9450  0.3983 -3.3723
 1013MOL0     H36754   9.314   3.289   3.646 -0.6265  0.9385  0.2415
 1013MOL0     H36755   9.095   3.378   3.649  0.4808  0.8119 -0.1426
 1014MOL0     O36756  10.001   0.714  11.176  0.0096  0.1482 -0.3683
 1014MOL0     C36757  10.049   0.827  11.151 -0.2149  1.2871  0.2211
 1014MOL0     O36758  10.001   0.952  11.184  0.4074  0.7733  0.3503
 1014MOL0     C36759   9.883   0.978  11.248 -0.4242 -0.5221  0.9802
 1014MOL0     C36760   9.790   0.887  11.302  0.9957  0.6152  0.0698
 1014MOL0     C36761   9.676   0.924  11.376 -1.3207  0.4180  1.2582
 1014MOL0     C36762   9.662   1.062  11.389 -0.3318  0.1972  0.4252
 1014MOL0     O36763   9.549   1.112  11.452 -0.2413  0.2752  0.4704
 1014MOL0     C36764   9.474   1.020  11.539 -0.3126  0.1152  0.4960
 1014MOL0     C36765   9.357   1.094  11.610  0.3773 -0.0130  0.1943
 1014MOL0     C36766   9.254   1.148  11.509  0.8106 -0.1758  0.3328
 1014MOL0     C36767   9.132   1.201  11.580 -0.2109  1.2384  0.7055
 1014MOL0     C36768   9.057   1.087  11.661  0.1491 -0.6712 -0.1905
 1014MOL0     C36769   8.934   1.135  11.737 -0.1194 -0.1176 -0.0169
 1014MOL0     C36770   8.820   1.166  11.642 -0.4726  0.0462 -0.5954
 1014MOL0     C36771   8.696   1.199  11.722  0.3103 -0.6504  0.1860
 1014MOL0     N36772   8.710   1.309  11.825  0.3192  0.4673 -0.2593
 1014MOL0     C36773   8.741   1.293  11.956 -0.5023 -0.3373 -0.7331
 1014MOL0     C36774   8.749   1.420  12.007 -0.8085 -0.0834  0.6639
 1014MOL0     C36775   8.790   1.448  12.149  0.1342  0.7959  0.9206
 1014MOL0     C36776   8.701   1.386  12.254 -0.5441 -0.3053  0.2287
 1014MOL0     C36777   8.559   1.435  12.252 -0.8772  0.5734 -0.2665
 1014MOL0     C36778   8.557   1.586  12.283  0.8433  0.2820  0.4654
 1014MOL0     O36779   8.423   1.639  12.243 -0.3917 -0.7129  0.0825
 1014MOL0     C36780   8.322   1.634  12.334  1.0535  0.6956 -0.0972
 1014MOL0     C36781   8.213   1.708  12.285  0.2194  0.7575 -0.5591
 1014MOL0     C36782   8.086   1.704  12.343  0.5576  0.0274  0.0332
 1014MOL0     C36783   7.977   1.781  12.268 -0.5110 -0.2677  0.5847
 1014MOL0     C36784   8.073   1.649  12.472  0.4287  0.4545  0.8032
 1014MOL0     C36785   7.946   1.625  12.541 -0.0458 -1.0672 -0.2507
 1014MOL0     O36786   7.953   1.603  12.672  0.3715 -0.2494  1.0089
 1014MOL0     C36787   7.841   1.587  12.750 -0.0613 -0.3633 -0.1057
 1014MOL0     C36788   7.711   1.648  12.733 -0.7762  0.0553  0.0604
 1014MOL0     C36789   7.616   1.608  12.829 -0.5244 -0.7191  0.5125
 1014MOL0     C36790   7.643   1.529  12.944  0.9128 -0.0523 -0.1901
 1014MOL0     O36791   7.550   1.500  13.041  0.5017 -0.9300  0.8563
 1014MOL0     C36792   7.428   1.434  12.988  0.4309 -0.7540  1.0085
 1014MOL0     C36793   7.350   1.384  13.106  0.4264  0.4307  0.2204
 1014MOL0     C36794   7.234   1.299  13.071 -0.0431  0.7236  0.0408
 1014MOL0     C36795   7.126   1.364  12.984 -0.0476  0.2441 -0.1984
 1014MOL0     C36796   7.001   1.266  12.957 -0.3511  0.7611 -0.2677
 1014MOL0     C36797   7.050   1.138  12.883  0.5324 -0.7315  0.0573
 1014MOL0     C36798   6.923   1.054  12.843 -0.7655 -0.4971 -0.0167
 1014MOL0     C36799   6.855   0.981  12.960 -0.2922  0.2629 -0.3227
 1014MOL0    Cl36800   6.964   0.858  13.021 -0.1348 -0.3726 -0.0849
 1014MOL0     C36801   7.767   1.484  12.957  0.2314 -0.2866 -0.3783
 1014MOL0     C36802   7.867   1.509  12.859 -0.4522 -0.1640 -0.2571
 1014MOL0     O36803   7.845   1.621  12.471 -0.0919 -0.4178 -0.0201
 1014MOL0     C36804   8.191   1.577  12.522  1.3480 -0.2504 -0.2224
 1014MOL0     C36805   8.310   1.568  12.452 -0.4097  0.1655 -0.3523
 1014MOL0     N36806   8.730   1.510  11.901 -0.1771 -0.3194 -0.0105
 1014MOL0     N36807   8.707   1.443  11.797 -0.2426  0.3305  0.3438
 1014MOL0     C36808   9.752   1.163  11.331 -0.5853  0.3505  0.7407
 1014MOL0     C36809   9.858   1.112  11.257  1.1106  0.0116  0.1174
 1014MOL0     C36810  10.176   0.818  11.073 -0.2970 -0.6999 -0.0297
 1014MOL0     C36811  10.240   0.942  11.039  0.7896 -0.4335  0.5586
 1014MOL0     C36812  10.354   0.943  10.963  0.6373  0.1756  1.3033
 1014MOL0     C36813  10.415   0.828  10.916 -0.0117  0.1867  0.7884
 1014MOL0     O36814  10.517   0.845  10.831 -0.0591 -0.7185 -0.9559
 1014MOL0     C36815  10.571   0.727  10.763 -0.1837 -0.6437  0.5676
 1014MOL0     C36816  10.684   0.658  10.843  0.1476  0.0782  0.1516
 1014MOL0     C36817  10.783   0.587  10.755 -0.4223 -0.8885 -0.3457
 1014MOL0     C36818  10.907   0.530  10.847  1.1257 -0.4109 -0.6667
 1014MOL0     C36819  11.005   0.635  10.885  0.9911 -0.1313  0.0926
 1014MOL0     C36820  11.073   0.724  10.925  0.0662 -0.9038  0.6251
 1014MOL0     C36821  10.353   0.702  10.954  0.2598 -1.4207 -0.3343
 1014MOL0     C36822  10.233   0.696  11.022  0.2051  0.0194 -0.5342
 1014MOL0     H36823   9.806   0.780  11.301  0.6915  0.5238  1.9261
 1014MOL0     H36824   9.597   0.856  11.408 -2.7352  2.4823  2.3651
 1014MOL0     H36825   9.431   0.935  11.485 -1.8975  1.3481 -0.2580
 1014MOL0     H36826   9.540   0.960  11.603 -0.1634 -1.5046 -1.0923
 1014MOL0     H36827   9.315   1.019  11.679  0.9991 -1.0379 -0.5061
 1014MOL0     H36828   9.394   1.179  11.667 -0.4512 -0.6565  1.7725
 1014MOL0     H36829   9.300   1.222  11.443 -0.3850  0.1376 -0.1729
 1014MOL0     H36830   9.227   1.062  11.447  0.8791  1.1046 -1.5479
 1014MOL0     H36831   9.166   1.289  11.635  2.1354 -0.2151  1.7698
 1014MOL0     H36832   9.064   1.239  11.503 -1.0904 -0.7198  0.4439
 1014MOL0     H36833   9.035   0.996  11.606 -1.3866 -2.3522  2.9782
 1014MOL0     H36834   9.128   1.049  11.735  1.3022 -1.5810 -1.7038
 1014MOL0     H36835   8.900   1.060  11.810 -0.7507  0.2696  0.0911
 1014MOL0     H36836   8.962   1.221  11.799 -0.8466 -1.5889  2.5160
 1014MOL0     H36837   8.841   1.258  11.586 -1.2960  0.6554  0.0533
 1014MOL0     H36838   8.804   1.083  11.572 -1.6432  0.0974 -0.4132
 1014MOL0     H36839   8.641   1.113  11.761 -0.7339  0.0042  0.2182
 1014MOL0     H36840   8.638   1.247  11.642 -0.1792 -0.7643  0.4660
 1014MOL0     H36841   8.757   1.197  12.004 -0.8191  0.4395  0.9791
 1014MOL0     H36842   8.886   1.399  12.170  0.2488  0.3258 -0.5427
 1014MOL0     H36843   8.816   1.551  12.172 -0.5032  0.6448  2.4093
 1014MOL0     H36844   8.737   1.420  12.351 -2.2535  0.5294  0.6084
 1014MOL0     H36845   8.709   1.277  12.250  0.8204 -0.2039 -0.1783
 1014MOL0     H36846   8.503   1.378  12.327  3.0922 -3.1273  0.2770
 1014MOL0     H36847   8.507   1.410  12.159 -2.6508  0.8353  0.6196
 1014MOL0     H36848   8.639   1.636  12.232 -0.6525  1.1184 -1.2189
 1014MOL0     H36849   8.582   1.599  12.389  0.4236  1.8073  0.4031
 1014MOL0     H36850   8.224   1.764  12.193 -0.6636 -0.4779 -1.4399
 1014MOL0     H36851   7.907   1.711  12.220 -0.6379 -1.3044  2.2133
 1014MOL0     H36852   7.922   1.839  12.342 -1.0832 -2.6692  2.1625
 1014MOL0     H36853   8.019   1.850  12.195  1.8594  0.9569  2.9428
 1014MOL0     H36854   7.684   1.715  12.653 -2.0460 -1.6436 -0.9904
 1014MOL0     H36855   7.516   1.645  12.807  0.5494  0.9786 -1.9653
 1014MOL0     H36856   7.370   1.514  12.941 -0.3003 -1.3683  0.8429
 1014MOL0     H36857   7.444   1.353  12.916  0.1501 -1.1908  1.4334
 1014MOL0     H36858   7.408   1.325  13.178 -2.7000 -1.2753  1.5457
 1014MOL0     H36859   7.311   1.464  13.168  1.0389  0.8261  0.1046
 1014MOL0     H36860   7.201   1.268  13.170  0.7732  1.7722  0.6700
 1014MOL0     H36861   7.280   1.217  13.015 -0.6064 -0.4236  1.2170
 1014MOL0     H36862   7.086   1.448  13.041  0.7457  2.1203 -2.2803
 1014MOL0     H36863   7.174   1.402  12.893 -3.0585  0.1804 -1.9405
 1014MOL0     H36864   6.924   1.319  12.902 -0.7796  2.1949  1.5929
 1014MOL0     H36865   6.967   1.229  13.055  0.9279 -2.1811 -0.8191
 1014MOL0     H36866   7.124   1.147  12.803  1.7536 -1.3073  1.0998
 1014MOL0     H36867   7.102   1.084  12.962 -3.0677 -1.2739  2.3095
 1014MOL0     H36868   6.948   0.982  12.765  0.7451 -1.5500  1.3619
 1014MOL0     H36869   6.842   1.118  12.807 -0.3739  0.9085  1.4685
 1014MOL0     H36870   6.760   0.933  12.935  0.9156 -2.5517  0.1087
 1014MOL0     H36871   6.826   1.057  13.033  0.0691  2.8302 -2.6939
 1014MOL0     H36872   7.792   1.418  13.040  1.9668 -0.9105 -1.3280
 1014MOL0     H36873   7.968   1.473  12.875  1.0288  3.4098 -0.6432
 1014MOL0     H36874   8.182   1.532  12.620 -0.1817  1.0883  0.3054
 1014MOL0     H36875   8.397   1.515  12.488  0.5891  0.5882 -2.0306
 1014MOL0     H36876   9.728   1.269  11.330  0.6265  0.6938 -2.1688
 1014MOL0     H36877   9.933   1.173  11.207  0.7188  1.0641  0.7777
 1014MOL0     H36878  10.203   1.037  11.074  0.8129 -0.7844  1.5611
 1014MOL0     H36879  10.399   1.032  10.920  1.2175 -0.7394 -0.0315
 1014MOL0     H36880  10.489   0.666  10.725 -1.1433  0.6857  0.4426
 1014MOL0     H36881  10.614   0.773  10.673 -3.4182 -1.3782 -1.5332
 1014MOL0     H36882  10.639   0.588  10.914 -1.5456  1.9227  1.0141
 1014MOL0     H36883  10.731   0.745  10.890  0.5491  0.0623 -0.2158
 1014MOL0     H36884  10.827   0.656  10.683  0.1286  0.9041  1.6139
 1014MOL0     H36885  10.744   0.505  10.694 -0.6123  0.2858 -1.8589
 1014MOL0     H36886  10.956   0.464  10.776 -1.1842 -0.4800 -2.3225
 1014MOL0     H36887  10.871   0.477  10.936  1.0256 -0.0803 -0.5064
 1014MOL0     H36888  11.121   0.813  10.964  0.8822 -0.9987 -0.1237
 1014MOL0     H36889  10.383   0.607  10.911 -0.9781 -1.5044 -1.0541
 1014MOL0     H36890  10.188   0.598  11.033  0.8361 -0.3134 -0.8403
 1015MOL0     O36891   5.818  10.274   8.283  0.4875 -0.5300 -0.1073
 1015MOL0     C36892   5.863  10.331   8.381  0.4909  0.1937 -0.3671
 1015MOL0     O36893   5.790  10.392   8.477 -0.9173  0.4721  0.2440
 1015MOL0     C36894   5.657  10.374   8.478  0.4798 -0.4713 -0.1141
 1015MOL0     C36895   5.575  10.385   8.371  0.1397  0.2322 -0.2973
 1015MOL0     C36896   5.435  10.366   8.393  0.8321 -0.1341 -0.0355
 1015MOL0     C36897   5.380  10.353   8.517 -0.0158  0.3858 -0.3204
 1015MOL0     O36898   5.244  10.340   8.513 -0.4097 -0.1961 -0.2966
 1015MOL0     C36899   5.175  10.323   8.638 -0.0918 -0.1681 -0.3340
 1015MOL0     C36900   5.028  10.357   8.598 -0.3421  0.0485  1.0462
 1015MOL0     C36901   4.926  10.361   8.710  0.0466 -0.5720  0.5066
 1015MOL0     C36902   4.785  10.366   8.653  0.1926  0.1601  0.0043
 1015MOL0     C36903   4.725  10.491   8.593  0.0252  0.1162  0.4534
 1015MOL0     C36904   4.721  10.620   8.679  0.3249 -1.1698 -0.2218
 1015MOL0     C36905   4.604  10.620   8.776  0.5049 -0.8528 -0.5195
 1015MOL0     C36906   4.613  10.726   8.884  0.2558 -0.4301  0.6843
 1015MOL0     N36907   4.585  10.854   8.818  0.0291 -0.5529  0.1437
 1015MOL0     C36908   4.470  10.911   8.777  0.4779 -0.3301 -0.9994
 1015MOL0     C36909   4.501  11.030   8.721  0.0773  0.9210 -0.0536
 1015MOL0     C36910   4.394  11.135   8.693  0.0449  0.2510  0.4823
 1015MOL0     C36911   4.325  11.188   8.821  0.2733 -0.5819 -0.1681
 1015MOL0     C36912   4.186  11.252   8.783 -0.7533 -0.4706 -0.3934
 1015MOL0     C36913   4.212  11.393   8.711  0.1357  0.7073  0.4864
 1015MOL0     O36914   4.111  11.480   8.748  0.3505 -0.3695  0.5282
 1015MOL0     C36915   3.980  11.455   8.715 -0.9036 -0.1976  1.1172
 1015MOL0     C36916   3.885  11.497   8.806 -0.1147 -0.4090  0.0504
 1015MOL0     C36917   3.746  11.465   8.790 -0.1760  0.3125 -0.5218
 1015MOL0     C36918   3.653  11.502   8.907 -0.6008 -0.1051  0.7810
 1015MOL0     C36919   3.706  11.390   8.671 -0.5596  0.5557 -0.2203
 1015MOL0     C36920   3.575  11.336   8.648 -0.9032  0.8128 -0.6215
 1015MOL0     O36921   3.479  11.408   8.704  0.5634  0.0378 -0.3440
 1015MOL0     C36922   3.356  11.352   8.695 -0.8699  0.0341 -0.5737
 1015MOL0     C36923   3.285  11.343   8.575  0.7145  0.5005  0.1095
 1015MOL0     C36924   3.167  11.267   8.574 -0.7100 -0.6169 -0.0981
 1015MOL0     C36925   3.118  11.205   8.687  0.6897  0.0631 -0.7859
 1015MOL0     O36926   2.996  11.141   8.675 -0.7692 -0.0762  0.0600
 1015MOL0     C36927   2.915  11.132   8.794  0.5008  0.2309 -0.4491
 1015MOL0     C36928   2.776  11.081   8.758 -0.5422  0.3316 -0.3245
 1015MOL0     C36929   2.675  11.070   8.878  1.4152  1.0477 -0.7175
 1015MOL0     C36930   2.544  11.001   8.839  0.7842 -0.2845 -0.0859
 1015MOL0     C36931   2.439  11.011   8.963 -0.4986  0.2133  0.1810
 1015MOL0     C36932   2.306  10.947   8.937  0.5291 -0.6537  0.4308
 1015MOL0     C36933   2.229  10.919   9.061 -0.3382  0.4607 -0.6092
 1015MOL0     C36934   2.139  11.030   9.109  0.3467 -1.0170  0.8294
 1015MOL0    Cl36935   2.230  11.165   9.189 -0.0655 -0.4960  0.0424
 1015MOL0     C36936   3.183  11.212   8.808 -0.2846 -0.6590 -0.0629
 1015MOL0     C36937   3.302  11.286   8.807  0.1063 -0.4183  0.3128
 1015MOL0     O36938   3.563  11.240   8.572  0.7017 -0.1602 -0.6193
 1015MOL0     C36939   3.804  11.367   8.570  0.6948  0.0314 -0.4933
 1015MOL0     C36940   3.939  11.388   8.601  0.0990  0.0171 -0.2141
 1015MOL0     N36941   4.637  11.047   8.726 -0.5585 -0.9036 -0.6149
 1015MOL0     N36942   4.688  10.937   8.786  0.0056  0.9069  0.1158
 1015MOL0     C36943   5.465  10.342   8.629 -0.6178 -0.2765 -0.1503
 1015MOL0     C36944   5.605  10.363   8.611  0.3159 -0.4127 -0.3611
 1015MOL0     C36945   6.009  10.317   8.407  1.2169 -0.5735  0.4854
 1015MOL0     C36946   6.085  10.216   8.347 -0.0447 -0.4773  0.2733
 1015MOL0     C36947   6.215  10.189   8.385 -0.1752 -0.6566 -0.3770
 1015MOL0     C36948   6.281  10.280   8.479  0.0939 -0.2304 -0.2309
 1015MOL0     O36949   6.419  10.280   8.513  0.0314 -0.0985 -0.6021
 1015MOL0     C36950   6.494  10.179   8.448  0.5911 -0.3758 -0.0830
 1015MOL0     C36951   6.635  10.175   8.502 -0.0237  0.1763 -0.3236
 1015MOL0     C36952   6.723  10.099   8.401  0.0315  0.0477 -0.4614
 1015MOL0     C36953   6.874  10.103   8.440  0.5620  0.0947  0.5634
 1015MOL0     C36954   6.950   9.985   8.386  0.6770 -0.6390  0.0684
 1015MOL0     C36955   7.021   9.901   8.334  0.0375  0.2717  0.3102
 1015MOL0     C36956   6.204  10.381   8.539  0.7594 -0.9710  0.6961
 1015MOL0     C36957   6.068  10.399   8.512 -0.2744 -0.1135 -0.3118
 1015MOL0     H36958   5.625  10.410   8.277  2.9389 -0.2065  0.9571
 1015MOL0     H36959   5.368  10.366   8.307 -0.7424  1.6467  1.1088
 1015MOL0     H36960   5.195  10.227   8.686  0.6460  0.6581  1.0917
 1015MOL0     H36961   5.209  10.401   8.707  0.9976 -0.5586 -0.4264
 1015MOL0     H36962   5.027  10.447   8.536 -0.1381  0.0889  1.0995
 1015MOL0     H36963   4.998  10.285   8.521 -0.4915 -1.9738  2.8824
 1015MOL0     H36964   4.933  10.270   8.769 -1.9787  0.0956  1.9057
 1015MOL0     H36965   4.938  10.443   8.782 -0.3591 -0.6728  0.6930
 1015MOL0     H36966   4.782  10.291   8.574 -2.2585 -2.1047  2.0496
 1015MOL0     H36967   4.713  10.327   8.726  1.5363 -0.6738  0.9510
 1015MOL0     H36968   4.793  10.520   8.512  3.1110  0.3173  2.9029
 1015MOL0     H36969   4.629  10.464   8.549  1.6521 -4.3097 -0.9159
 1015MOL0     H36970   4.810  10.634   8.741 -0.0508  1.1269 -0.1061
 1015MOL0     H36971   4.710  10.708   8.615 -0.2765  0.6494  2.2421
 1015MOL0     H36972   4.511  10.632   8.720  0.0516  1.5478  0.5907
 1015MOL0     H36973   4.608  10.529   8.836  1.0214  0.8118  2.1711
 1015MOL0     H36974   4.712  10.731   8.930 -0.6774  0.8923  2.6933
 1015MOL0     H36975   4.529  10.716   8.954 -0.2664  1.3641  0.3609
 1015MOL0     H36976   4.373  10.870   8.804  0.8139 -1.2096 -1.0925
 1015MOL0     H36977   4.426  11.226   8.642 -0.7892  0.3435  0.0945
 1015MOL0     H36978   4.327  11.072   8.633  1.7452  0.7438 -2.1159
 1015MOL0     H36979   4.392  11.265   8.860 -0.0133 -0.5362  0.2392
 1015MOL0     H36980   4.311  11.113   8.899 -3.2251  1.4176  1.4330
 1015MOL0     H36981   4.130  11.265   8.876 -1.2324 -2.1598 -0.4252
 1015MOL0     H36982   4.129  11.186   8.718  0.5557 -1.6742 -0.3763
 1015MOL0     H36983   4.205  11.378   8.603 -3.2335  0.9942  0.5674
 1015MOL0     H36984   4.311  11.435   8.733  1.3920 -1.8769  0.1566
 1015MOL0     H36985   3.913  11.548   8.897  0.1594 -0.5192  0.0277
 1015MOL0     H36986   3.578  11.423   8.919 -1.5902  0.3461 -1.8211
 1015MOL0     H36987   3.712  11.513   8.999 -0.4726 -2.0850  0.9934
 1015MOL0     H36988   3.610  11.600   8.890 -1.7903 -0.2489  2.6060
 1015MOL0     H36989   3.315  11.398   8.486 -0.4830  0.3352 -0.4099
 1015MOL0     H36990   3.112  11.263   8.480  1.9313  0.9336 -1.8571
 1015MOL0     H36991   2.959  11.061   8.866 -1.2530 -1.6515 -1.1457
 1015MOL0     H36992   2.899  11.234   8.829 -2.7316  0.1853 -1.5439
 1015MOL0     H36993   2.735  11.150   8.684 -1.9625  0.7639  0.7966
 1015MOL0     H36994   2.784  10.982   8.712 -0.3777 -0.5617  1.5028
 1015MOL0     H36995   2.650  11.171   8.909 -1.9900 -0.1474  0.8666
 1015MOL0     H36996   2.717  11.032   8.971 -0.9578 -0.7080 -0.2820
 1015MOL0     H36997   2.499  11.049   8.751 -0.0792 -0.7799  0.0690
 1015MOL0     H36998   2.563  10.896   8.813 -0.0266 -0.5563  0.3906
 1015MOL0     H36999   2.433  11.119   8.979  0.8988  0.1171  1.6714
 1015MOL0     H37000   2.487  10.965   9.050  2.5070  1.1408 -0.8691
 1015MOL0     H37001   2.237  11.005   8.875 -0.7663 -3.0722 -0.5242
 1015MOL0     H37002   2.334  10.857   8.881  2.4588 -0.4948  1.0559
 1015MOL0     H37003   2.300  10.889   9.139  0.3884 -0.7372 -1.6981
 1015MOL0     H37004   2.169  10.834   9.028 -0.7426  0.5727 -0.1727
 1015MOL0     H37005   2.061  10.991   9.174 -4.0687  1.5596 -2.3825
 1015MOL0     H37006   2.092  11.068   9.018  1.2067 -0.7272  0.4888
 1015MOL0     H37007   3.159  11.181   8.909 -0.3334  0.4262  0.2743
 1015MOL0     H37008   3.351  11.304   8.903 -1.1919 -0.0831  0.9348
 1015MOL0     H37009   3.772  11.321   8.477  0.5562  4.0214 -2.6385
 1015MOL0     H37010   4.007  11.360   8.521  0.3682  0.1665 -0.0370
 1015MOL0     H37011   5.425  10.330   8.730  0.5658  3.1673  0.8662
 1015MOL0     H37012   5.671  10.358   8.697 -1.2669  2.7729  1.1741
 1015MOL0     H37013   6.045  10.157   8.265  1.2759  0.7475 -1.3384
 1015MOL0     H37014   6.272  10.114   8.331  0.2254  0.1564 -1.1170
 1015MOL0     H37015   6.453  10.083   8.478  0.8862 -0.2479  0.7728
 1015MOL0     H37016   6.483  10.200   8.341 -0.8374  0.5161  0.2105
 1015MOL0     H37017   6.633  10.138   8.604 -1.2436 -1.7520 -1.0016
 1015MOL0     H37018   6.670  10.279   8.511 -1.3657  0.4933  1.7809
 1015MOL0     H37019   6.718  10.148   8.303 -1.6935 -0.2834 -0.5614
 1015MOL0     H37020   6.679   9.999   8.396 -0.8512  0.4065 -0.0470
 1015MOL0     H37021   6.892  10.112   8.547 -2.1160  1.9789  0.9656
 1015MOL0     H37022   6.930  10.183   8.390  0.4548  0.3700  0.8796
 1015MOL0     H37023   7.074   9.814   8.299  0.1063 -0.9638  3.2006
 1015MOL0     H37024   6.250  10.440   8.618  0.5146  0.5166 -0.2377
 1015MOL0     H37025   6.019  10.469   8.580  1.9498  2.5631 -1.2468
 1016MOL0     O37026   6.826   1.363   6.081  0.4074 -0.3989 -0.0969
 1016MOL0     C37027   6.898   1.398   6.172  0.1100 -0.4507 -0.5209
 1016MOL0     O37028   6.878   1.385   6.302  0.1434  0.0895  0.6661
 1016MOL0     C37029   6.789   1.294   6.342 -0.4603  0.8729 -0.8974
 1016MOL0     C37030   6.804   1.159   6.310  0.6049 -0.0889  0.3777
 1016MOL0     C37031   6.705   1.063   6.333  0.1423  1.2678  0.9695
 1016MOL0     C37032   6.585   1.099   6.399 -0.1919  0.1272 -0.3137
 1016MOL0     O37033   6.482   1.014   6.435 -0.1347  0.8630 -0.1060
 1016MOL0     C37034   6.430   0.950   6.319  0.7098 -0.5433 -0.7200
 1016MOL0     C37035   6.305   0.869   6.369 -0.5707 -0.2159  0.6418
 1016MOL0     C37036   6.240   0.797   6.253  0.5008 -0.2053  0.5336
 1016MOL0     C37037   6.100   0.752   6.305  0.1057  0.6842 -0.5471
 1016MOL0     C37038   6.012   0.691   6.200  0.1134  0.1778 -0.2592
 1016MOL0     C37039   5.915   0.590   6.277  0.3059  0.0947 -0.8934
 1016MOL0     C37040   5.816   0.508   6.196  1.3523 -0.2313  0.3658
 1016MOL0     C37041   5.688   0.582   6.171  0.3625  0.7463 -0.1307
 1016MOL0     N37042   5.598   0.505   6.090  0.9429 -0.1204  0.1589
 1016MOL0     C37043   5.600   0.490   5.950 -0.0679 -0.1001 -1.4668
 1016MOL0     C37044   5.501   0.404   5.927 -0.8484 -0.0310  0.4520
 1016MOL0     C37045   5.466   0.360   5.787 -0.1844  0.3561  0.5188
 1016MOL0     C37046   5.324   0.403   5.747 -0.2851  0.0269 -0.0040
 1016MOL0     C37047   5.300   0.329   5.608  0.4373 -0.2952 -0.2828
 1016MOL0     C37048   5.163   0.358   5.549  0.2921 -0.3956 -0.0074
 1016MOL0     O37049   5.136   0.498   5.540 -0.2663 -0.1754 -0.8664
 1016MOL0     C37050   5.008   0.540   5.514  0.6476 -0.9746 -0.1119
 1016MOL0     C37051   4.910   0.464   5.444  1.0587 -0.0238  0.1369
 1016MOL0     C37052   4.770   0.493   5.460 -0.3569 -0.6018  0.3897
 1016MOL0     C37053   4.669   0.406   5.390  0.4212  0.0187 -0.2161
 1016MOL0     C37054   4.740   0.607   5.536 -0.0780  0.0254 -0.5565
 1016MOL0     C37055   4.601   0.640   5.564 -0.5423  0.4038  0.4534
 1016MOL0     O37056   4.560   0.744   5.497  0.2293  0.2112  0.3595
 1016MOL0     C37057   4.425   0.773   5.491  0.1101  0.4589 -0.3877
 1016MOL0     C37058   4.315   0.682   5.466 -0.4371 -0.2896  0.4927
 1016MOL0     C37059   4.184   0.726   5.477  0.4322 -0.0608 -0.0870
 1016MOL0     C37060   4.161   0.869   5.485 -0.2653 -0.8751  0.0692
 1016MOL0     O37061   4.037   0.922   5.477 -0.6760 -0.0863 -0.7050
 1016MOL0     C37062   3.916   0.838   5.486  0.4429  0.1836 -0.6346
 1016MOL0     C37063   3.898   0.781   5.344 -1.7768  1.0737 -0.1623
 1016MOL0     C37064   3.792   0.673   5.333 -0.0477  0.1003 -0.3267
 1016MOL0     C37065   3.857   0.531   5.391 -0.0735 -0.0028  0.1277
 1016MOL0     C37066   3.746   0.424   5.360 -0.3509 -0.7857  0.7364
 1016MOL0     C37067   3.609   0.449   5.430 -0.9036 -0.9610 -0.3034
 1016MOL0     C37068   3.511   0.337   5.405  0.0920 -0.3959 -0.7829
 1016MOL0     C37069   3.420   0.370   5.289 -0.1423  0.0867  1.0802
 1016MOL0    Cl37070   3.487   0.395   5.114  0.3094  0.0154 -0.3792
 1016MOL0     C37071   4.268   0.958   5.503 -0.8012  0.1068 -0.8352
 1016MOL0     C37072   4.401   0.904   5.511  0.0848  0.3938 -0.3344
 1016MOL0     O37073   4.543   0.584   5.655  0.0514  0.9692 -0.3014
 1016MOL0     C37074   4.832   0.689   5.597  0.5195  0.7350 -0.4482
 1016MOL0     C37075   4.960   0.657   5.586 -0.4043 -0.5281  0.6513
 1016MOL0     N37076   5.445   0.354   6.045  0.6464  0.1764 -0.3359
 1016MOL0     N37077   5.511   0.414   6.148  0.1697  0.1384  0.2232
 1016MOL0     C37078   6.588   1.232   6.456 -0.1738 -0.2564  0.2303
 1016MOL0     C37079   6.681   1.326   6.417  0.2955  0.4277  0.4006
 1016MOL0     C37080   7.032   1.455   6.118 -0.6877  0.5099 -0.5590
 1016MOL0     C37081   7.129   1.493   6.206  0.5485 -1.0082  1.0216
 1016MOL0     C37082   7.253   1.541   6.162  0.1197  0.4119 -0.0295
 1016MOL0     C37083   7.280   1.560   6.021  0.7318  0.1927 -0.1331
 1016MOL0     O37084   7.396   1.624   5.980  0.6868  0.0634  0.3131
 1016MOL0     C37085   7.397   1.651   5.841 -0.7113 -0.7989  0.7852
 1016MOL0     C37086   7.532   1.709   5.799 -0.7150  0.3652  0.0236
 1016MOL0     C37087   7.651   1.618   5.834 -0.4977  0.3889 -0.4726
 1016MOL0     C37088   7.782   1.638   5.752 -0.1869 -0.2066 -0.4417
 1016MOL0     C37089   7.840   1.776   5.753 -1.0472 -0.3167  0.2497
 1016MOL0     C37090   7.896   1.879   5.773 -0.0270  0.1240 -0.0627
 1016MOL0     C37091   7.185   1.518   5.937 -0.1046 -0.1573  0.1342
 1016MOL0     C37092   7.062   1.469   5.981  0.0199  0.1685 -0.4500
 1016MOL0     H37093   6.894   1.132   6.255  1.0156  2.2400 -0.2013
 1016MOL0     H37094   6.729   0.962   6.302 -0.2885  2.1781 -2.7906
 1016MOL0     H37095   6.400   1.021   6.243  0.8716 -1.1887 -1.3978
 1016MOL0     H37096   6.498   0.876   6.275  0.6237 -1.4596  0.6028
 1016MOL0     H37097   6.333   0.794   6.444 -1.5530 -1.9818 -0.6781
 1016MOL0     H37098   6.238   0.942   6.414 -1.1231 -0.0269 -0.4458
 1016MOL0     H37099   6.212   0.869   6.175  0.2392 -1.8326 -0.9384
 1016MOL0     H37100   6.294   0.708   6.222 -1.2964 -0.7399 -1.2707
 1016MOL0     H37101   6.120   0.677   6.382 -2.0494  1.1682  0.5462
 1016MOL0     H37102   6.048   0.832   6.358 -0.1556 -0.9801  1.8807
 1016MOL0     H37103   5.962   0.770   6.144 -4.1494 -1.0407  1.3826
 1016MOL0     H37104   6.069   0.624   6.134  0.3513 -1.9435  1.9419
 1016MOL0     H37105   5.975   0.524   6.340 -2.0562  0.5267  2.0130
 1016MOL0     H37106   5.860   0.651   6.349  1.8917  0.3561  0.1448
 1016MOL0     H37107   5.863   0.463   6.107  0.8989  1.0020 -0.5291
 1016MOL0     H37108   5.785   0.425   6.259 -1.8562 -0.8293 -1.7463
 1016MOL0     H37109   5.712   0.675   6.117  0.2171 -0.2960 -2.0733
 1016MOL0     H37110   5.642   0.626   6.260  1.6532  0.7858  0.5544
 1016MOL0     H37111   5.648   0.552   5.876 -0.7185  0.7255 -1.2213
 1016MOL0     H37112   5.547   0.399   5.723  0.3397  0.8048  1.4303
 1016MOL0     H37113   5.484   0.252   5.781 -1.3386  0.2065 -0.6721
 1016MOL0     H37114   5.323   0.512   5.741  3.0060  0.0680 -2.8377
 1016MOL0     H37115   5.246   0.368   5.816  0.3518  0.6683  1.0755
 1016MOL0     H37116   5.297   0.223   5.635  1.4927  0.0018  1.1176
 1016MOL0     H37117   5.382   0.337   5.537  2.4882 -3.4779  1.5129
 1016MOL0     H37118   5.089   0.308   5.613 -0.2675 -0.5798 -0.7840
 1016MOL0     H37119   5.162   0.308   5.452  1.2981  3.0194 -1.9630
 1016MOL0     H37120   4.932   0.379   5.380 -1.7855  0.6539 -1.9116
 1016MOL0     H37121   4.572   0.448   5.416 -1.3100 -4.1341  0.9666
 1016MOL0     H37122   4.671   0.397   5.281 -1.1778 -1.8000 -0.1583
 1016MOL0     H37123   4.684   0.304   5.427 -0.3596 -1.4150 -3.5296
 1016MOL0     H37124   4.345   0.581   5.441  0.7733  0.0132  0.6238
 1016MOL0     H37125   4.098   0.662   5.462 -0.3441  1.4833 -2.9758
 1016MOL0     H37126   3.922   0.760   5.563  0.7174  0.8484  0.0292
 1016MOL0     H37127   3.830   0.904   5.504  2.1947  2.8150 -1.3424
 1016MOL0     H37128   3.881   0.872   5.286 -1.9316  2.7683  2.3513
 1016MOL0     H37129   3.977   0.733   5.286 -1.2068  1.7574  0.0394
 1016MOL0     H37130   3.756   0.671   5.230  1.3101  1.7293 -0.8786
 1016MOL0     H37131   3.704   0.696   5.394  1.0113 -2.4251  2.4141
 1016MOL0     H37132   3.947   0.503   5.335 -0.1885 -3.1271  1.3114
 1016MOL0     H37133   3.882   0.550   5.495 -0.5608  1.8776 -0.0513
 1016MOL0     H37134   3.786   0.330   5.400  1.7608 -0.7233 -1.0196
 1016MOL0     H37135   3.732   0.418   5.252 -4.2844  0.6365  1.0083
 1016MOL0     H37136   3.629   0.446   5.537  0.3690 -0.6138 -0.5148
 1016MOL0     H37137   3.571   0.549   5.407  0.0450 -0.7337 -0.9556
 1016MOL0     H37138   3.452   0.320   5.496 -1.5068  1.1018 -1.4855
 1016MOL0     H37139   3.567   0.244   5.392 -3.9295 -3.2335  0.5641
 1016MOL0     H37140   3.358   0.457   5.313  2.4828  1.6925  2.5447
 1016MOL0     H37141   3.358   0.280   5.285  1.1662 -0.8475  1.2080
 1016MOL0     H37142   4.248   1.062   5.525 -0.1048 -0.3371  2.5918
 1016MOL0     H37143   4.483   0.970   5.536 -1.9410  2.2307  1.9470
 1016MOL0     H37144   4.804   0.773   5.659 -2.7567  0.6752 -1.6501
 1016MOL0     H37145   5.031   0.729   5.626 -3.8241  5.7247 -2.8557
 1016MOL0     H37146   6.500   1.259   6.514 -0.9455 -2.2676  0.0865
 1016MOL0     H37147   6.652   1.419   6.466 -3.8698 -1.1099  1.2761
 1016MOL0     H37148   7.106   1.485   6.312  0.1305 -2.2171  0.8514
 1016MOL0     H37149   7.336   1.565   6.228  2.7229  0.8353 -3.2082
 1016MOL0     H37150   7.385   1.555   5.790  0.1155 -1.3267  1.5591
 1016MOL0     H37151   7.316   1.721   5.818 -0.3575 -0.8503 -0.7316
 1016MOL0     H37152   7.545   1.808   5.841 -1.9544  0.2043  0.8137
 1016MOL0     H37153   7.528   1.734   5.692 -1.0770  2.1886  0.4461
 1016MOL0     H37154   7.610   1.517   5.832  0.8030 -0.2101  1.1077
 1016MOL0     H37155   7.669   1.632   5.941 -0.3919 -1.8308 -0.1432
 1016MOL0     H37156   7.775   1.608   5.647  0.5263 -0.6451 -0.3649
 1016MOL0     H37157   7.857   1.563   5.778 -0.5199 -2.2978 -4.6846
 1016MOL0     H37158   7.936   1.975   5.797  1.1815 -0.1626 -0.8326
 1016MOL0     H37159   7.192   1.513   5.829  0.1935  1.5704  0.0424
 1016MOL0     H37160   6.989   1.438   5.907  0.0691  0.7919 -0.7716
 1017MOL0     O37161   4.831   9.327   7.774  0.1165  0.0370 -0.2620
 1017MOL0     C37162   4.886   9.243   7.835  0.1275  0.4714 -0.0161
 1017MOL0     O37163   4.840   9.178   7.949  0.1416 -0.6198 -0.0827
 1017MOL0     C37164   4.714   9.201   8.002 -0.3867 -0.1040  0.4365
 1017MOL0     C37165   4.683   9.292   8.108 -0.1007  0.4457 -0.0338
 1017MOL0     C37166   4.554   9.327   8.140  0.3223  0.3224  0.2317
 1017MOL0     C37167   4.452   9.252   8.092  0.0294  1.3787 -1.8111
 1017MOL0     O37168   4.327   9.276   8.142  0.0977 -0.1189  0.0550
 1017MOL0     C37169   4.212   9.201   8.102 -0.3305 -0.4406 -0.2444
 1017MOL0     C37170   4.081   9.262   8.159 -0.1564  0.1971 -0.1015
 1017MOL0     C37171   3.961   9.202   8.097  0.2643  0.8756  0.9161
 1017MOL0     C37172   3.827   9.246   8.155 -0.0391 -0.2902 -0.3540
 1017MOL0     C37173   3.704   9.151   8.109 -0.1612  0.4555 -0.1992
 1017MOL0     C37174   3.573   9.170   8.196  0.2544  0.0694 -0.5965
 1017MOL0     C37175   3.445   9.122   8.121  0.1264 -0.4841  0.7189
 1017MOL0     C37176   3.332   9.082   8.216  0.1178  0.3717  0.4103
 1017MOL0     N37177   3.204   9.058   8.138 -0.6379 -0.0455  0.0082
 1017MOL0     C37178   3.175   8.948   8.071  0.6020  0.0995 -0.7057
 1017MOL0     C37179   3.058   8.967   7.999  0.4179  1.0845 -0.6503
 1017MOL0     C37180   2.985   8.888   7.891 -0.6567 -0.5570 -0.4213
 1017MOL0     C37181   2.926   8.757   7.954  0.5357  0.0720 -0.2516
 1017MOL0     C37182   2.805   8.772   8.044  0.0358  0.3342  0.4188
 1017MOL0     C37183   2.687   8.830   7.964 -1.2246  0.9592  0.3757
 1017MOL0     O37184   2.660   8.769   7.839  0.4845  0.1612  0.4181
 1017MOL0     C37185   2.528   8.757   7.799  0.4548  0.9915  0.1434
 1017MOL0     C37186   2.496   8.664   7.698  0.2225  0.1565  0.1210
 1017MOL0     C37187   2.368   8.637   7.645  1.1771 -0.2722  0.1542
 1017MOL0     C37188   2.355   8.534   7.538  0.0395 -0.4874 -0.8621
 1017MOL0     C37189   2.266   8.714   7.711  0.3289  0.6054  0.7776
 1017MOL0     C37190   2.126   8.708   7.675  1.0685  0.5800 -1.0746
 1017MOL0     O37191   2.033   8.784   7.742  0.1571 -0.7951  0.2649
 1017MOL0     C37192   1.894   8.778   7.714 -0.5541  0.6065 -0.2258
 1017MOL0     C37193   1.837   8.744   7.585  0.6272  0.5340 -0.0387
 1017MOL0     C37194   1.696   8.745   7.561  0.1088  0.7588 -0.1862
 1017MOL0     C37195   1.615   8.796   7.664  0.4820 -0.0269 -0.5587
 1017MOL0     O37196   1.478   8.816   7.635  0.1459  0.1470 -0.1179
 1017MOL0     C37197   1.389   8.862   7.743  0.4675  0.1847  0.7824
 1017MOL0     C37198   1.256   8.910   7.691 -0.3616  0.2604  0.5315
 1017MOL0     C37199   1.154   8.803   7.642 -0.3383 -0.5709 -0.6621
 1017MOL0     C37200   1.032   8.872   7.578  0.5662  0.5824  0.3076
 1017MOL0     C37201   0.938   8.936   7.673 -0.5224 -0.3415 -0.5955
 1017MOL0     C37202   0.868   8.851   7.772  0.5256  1.2755  0.0665
 1017MOL0     C37203   0.738   8.910   7.833  0.0690 -0.4516  0.2697
 1017MOL0     C37204   0.655   8.800   7.910 -1.4077  0.0005 -0.7642
 1017MOL0    Cl37205   0.748   8.733   8.053  0.2849 -0.2184  0.3090
 1017MOL0     C37206   1.679   8.831   7.791 -0.5453 -0.2497 -0.0678
 1017MOL0     C37207   1.815   8.824   7.812 -0.1515 -0.0185 -0.3826
 1017MOL0     O37208   2.104   8.624   7.586  0.4901  0.1899 -0.0116
 1017MOL0     C37209   2.294   8.806   7.817 -0.0340  1.4003  0.1878
 1017MOL0     C37210   2.420   8.825   7.853 -1.3327  0.2936 -0.5909
 1017MOL0     N37211   3.023   9.097   8.033 -0.2495  0.3835 -0.0794
 1017MOL0     N37212   3.105   9.145   8.118  0.7410 -0.1182  0.0343
 1017MOL0     C37213   4.474   9.144   8.006 -0.2222  0.1927  0.2053
 1017MOL0     C37214   4.607   9.124   7.952 -0.1666 -0.0421 -0.0044
 1017MOL0     C37215   5.019   9.210   7.787  0.0090  0.1887  0.2187
 1017MOL0     C37216   5.111   9.138   7.868 -0.1286 -0.3890  0.6584
 1017MOL0     C37217   5.251   9.117   7.838  0.3793 -0.7028  0.6376
 1017MOL0     C37218   5.289   9.165   7.712  0.4260  0.3322  0.1472
 1017MOL0     O37219   5.423   9.172   7.684  0.1221 -0.6478 -0.3009
 1017MOL0     C37220   5.471   9.169   7.553  1.2024 -0.4900 -0.2279
 1017MOL0     C37221   5.594   9.077   7.545  0.3794 -0.9877  0.5166
 1017MOL0     C37222   5.703   9.110   7.654 -0.3484 -0.1018  0.4776
 1017MOL0     C37223   5.819   9.008   7.661  0.6009  0.8515  1.0153
 1017MOL0     C37224   5.927   9.035   7.738 -0.1136 -0.0222  0.3181
 1017MOL0     C37225   6.028   9.053   7.806 -0.4419 -0.1082 -0.4845
 1017MOL0     C37226   5.199   9.225   7.626  0.4662 -0.2965  0.4154
 1017MOL0     C37227   5.062   9.246   7.661 -0.5772 -1.1375  0.1826
 1017MOL0     H37228   4.758   9.344   8.166 -1.1930 -0.3738  2.2615
 1017MOL0     H37229   4.533   9.383   8.230  1.5984 -1.9982  2.1182
 1017MOL0     H37230   4.212   9.196   7.993  1.0194 -1.9076 -0.2036
 1017MOL0     H37231   4.218   9.097   8.134  0.2139 -0.2956  0.1444
 1017MOL0     H37232   4.070   9.245   8.267  1.4989 -1.2363 -0.1042
 1017MOL0     H37233   4.079   9.369   8.138 -2.8209  0.1690 -0.2976
 1017MOL0     H37234   3.960   9.231   7.991  1.1635  1.0516  0.9495
 1017MOL0     H37235   3.958   9.094   8.112 -0.2703  0.2833 -2.5622
 1017MOL0     H37236   3.836   9.266   8.262 -0.1452  0.7599 -0.5263
 1017MOL0     H37237   3.797   9.342   8.111 -2.6933 -0.9109 -0.0217
 1017MOL0     H37238   3.680   9.171   8.004 -2.1829  0.9498  0.3222
 1017MOL0     H37239   3.741   9.049   8.122  1.5833  0.5820 -3.1460
 1017MOL0     H37240   3.566   9.122   8.294 -1.5244  2.5423  0.5999
 1017MOL0     H37241   3.557   9.277   8.212  0.1184  0.1634 -1.3080
 1017MOL0     H37242   3.416   9.213   8.068 -0.3745 -0.1820  1.4838
 1017MOL0     H37243   3.474   9.049   8.046  0.8137 -0.1766  0.6813
 1017MOL0     H37244   3.323   9.152   8.300  3.2718  1.0418  0.3142
 1017MOL0     H37245   3.363   8.993   8.271 -0.2117  0.3230  0.5172
 1017MOL0     H37246   3.229   8.854   8.072  0.2843 -0.0869 -0.8497
 1017MOL0     H37247   2.908   8.945   7.840 -3.5680 -1.0299  3.0522
 1017MOL0     H37248   3.054   8.851   7.815 -2.4377  2.0621 -3.5614
 1017MOL0     H37249   3.001   8.704   8.014 -0.3377 -0.9815 -0.0575
 1017MOL0     H37250   2.907   8.684   7.875 -1.6849  0.6062 -0.2943
 1017MOL0     H37251   2.849   8.840   8.117 -0.8295  1.6290 -0.2209
 1017MOL0     H37252   2.778   8.678   8.093 -0.9439 -0.6848 -1.9081
 1017MOL0     H37253   2.691   8.939   7.954 -0.5834  0.8621 -0.4859
 1017MOL0     H37254   2.603   8.816   8.033 -1.5798  0.3459 -0.1685
 1017MOL0     H37255   2.586   8.622   7.654 -0.4410 -0.4626 -0.6592
 1017MOL0     H37256   2.312   8.574   7.447 -1.4403 -0.5860 -0.2295
 1017MOL0     H37257   2.452   8.486   7.518  0.9282  0.8056  0.1536
 1017MOL0     H37258   2.279   8.458   7.561 -0.3302 -1.0174 -3.5542
 1017MOL0     H37259   1.906   8.714   7.506 -0.7261 -2.9502 -0.0665
 1017MOL0     H37260   1.645   8.713   7.470  0.6433  4.6190 -2.0838
 1017MOL0     H37261   1.385   8.789   7.824  0.7820 -0.8783 -0.1364
 1017MOL0     H37262   1.439   8.954   7.772  1.3430 -0.2081  0.5613
 1017MOL0     H37263   1.207   8.960   7.775  0.9524  1.0101  0.8656
 1017MOL0     H37264   1.271   8.981   7.609 -0.2689  0.5179  0.7712
 1017MOL0     H37265   1.123   8.754   7.735  0.6716  0.1551  0.0842
 1017MOL0     H37266   1.194   8.730   7.571  1.4547 -1.1918  0.9278
 1017MOL0     H37267   1.058   8.951   7.506  1.8554  1.7246  1.9365
 1017MOL0     H37268   0.984   8.792   7.522  0.0829  0.7456  0.4886
 1017MOL0     H37269   0.859   8.989   7.619 -0.6474  2.4914  2.0799
 1017MOL0     H37270   0.990   9.016   7.728 -1.4800  1.3463 -2.0467
 1017MOL0     H37271   0.841   8.755   7.726  0.5282  1.0801  0.4635
 1017MOL0     H37272   0.933   8.825   7.856 -3.5911 -2.5500  2.5600
 1017MOL0     H37273   0.674   8.941   7.750  1.7208 -0.9232 -1.2389
 1017MOL0     H37274   0.764   8.995   7.898  0.6658  0.1963 -0.7836
 1017MOL0     H37275   0.627   8.726   7.835 -1.1914  0.0541 -0.8984
 1017MOL0     H37276   0.566   8.847   7.951  0.2475  0.5064  2.6394
 1017MOL0     H37277   1.615   8.876   7.866 -2.1181 -2.6623  0.1208
 1017MOL0     H37278   1.856   8.856   7.908  1.5637 -0.4399 -0.9447
 1017MOL0     H37279   2.216   8.858   7.872 -0.3733  0.4243  0.6416
 1017MOL0     H37280   2.423   8.897   7.935 -2.9200  2.4434 -2.2783
 1017MOL0     H37281   4.396   9.078   7.969 -0.2582  1.0652 -1.3186
 1017MOL0     H37282   4.618   9.065   7.862 -0.3392  2.4576 -1.7646
 1017MOL0     H37283   5.082   9.096   7.964  0.3335 -0.7174  0.6604
 1017MOL0     H37284   5.318   9.068   7.908  0.5819 -1.4720 -0.0688
 1017MOL0     H37285   5.395   9.127   7.487 -2.3629 -1.0061  3.7540
 1017MOL0     H37286   5.493   9.271   7.522 -1.1842  0.0541 -0.2713
 1017MOL0     H37287   5.642   9.076   7.446  0.9957  1.1370  0.7288
 1017MOL0     H37288   5.549   8.978   7.553  0.6216 -1.1165  0.3190
 1017MOL0     H37289   5.663   9.128   7.754 -0.3723  1.6088  0.1963
 1017MOL0     H37290   5.747   9.204   7.620 -0.6675 -0.5300 -1.1708
 1017MOL0     H37291   5.856   9.005   7.558 -4.7926  2.0171 -1.2990
 1017MOL0     H37292   5.786   8.910   7.697  1.9845  0.7824  2.1945
 1017MOL0     H37293   6.107   9.086   7.870 -0.0474  2.6993 -2.2281
 1017MOL0     H37294   5.229   9.258   7.527 -1.6011 -0.6746 -0.3942
 1017MOL0     H37295   4.999   9.290   7.585 -0.2472 -1.5097 -0.3153
 1018MOL0     O37296   8.273   1.195   6.235  0.2370  0.2819 -0.5682
 1018MOL0     C37297   8.378   1.195   6.307 -0.5152  0.1245  0.4133
 1018MOL0     O37298   8.383   1.162   6.437 -0.3351 -0.2414  0.3911
 1018MOL0     C37299   8.276   1.131   6.522 -0.7306 -0.4401  0.1933
 1018MOL0     C37300   8.140   1.153   6.500  0.4761  0.7818  0.3788
 1018MOL0     C37301   8.041   1.097   6.573 -0.0397 -0.2920 -0.3999
 1018MOL0     C37302   8.062   1.022   6.692  0.4166  0.5969 -0.5904
 1018MOL0     O37303   7.968   0.968   6.777 -0.4774 -0.2479  0.1269
 1018MOL0     C37304   7.835   0.970   6.739 -0.1966 -0.0709  0.6595
 1018MOL0     C37305   7.779   0.883   6.845 -0.5498 -0.3752 -0.4182
 1018MOL0     C37306   7.628   0.886   6.870  0.8369 -1.0424  1.1409
 1018MOL0     C37307   7.551   0.801   6.764 -0.1280 -0.5450  0.1975
 1018MOL0     C37308   7.398   0.809   6.790  0.4467  0.1341  0.3117
 1018MOL0     C37309   7.312   0.752   6.678  0.0762 -0.3325  0.1747
 1018MOL0     C37310   7.162   0.728   6.712 -0.4791 -0.1622 -0.2993
 1018MOL0     C37311   7.102   0.868   6.717  0.3562 -0.0622 -0.2617
 1018MOL0     N37312   6.964   0.868   6.758  0.5459 -0.1301  0.1448
 1018MOL0     C37313   6.858   0.942   6.704 -0.3346  0.2199 -0.6879
 1018MOL0     C37314   6.745   0.883   6.758  0.8423  0.0003  0.8777
 1018MOL0     C37315   6.601   0.917   6.733 -0.1551 -0.0629 -0.4320
 1018MOL0     C37316   6.571   1.056   6.791  0.1139 -0.1728  0.6741
 1018MOL0     C37317   6.533   1.066   6.935  0.4479 -0.3320 -0.4337
 1018MOL0     C37318   6.378   1.059   6.952  0.4019  0.1394 -0.3876
 1018MOL0     O37319   6.320   1.184   6.898  0.4144  0.2810 -0.3350
 1018MOL0     C37320   6.182   1.188   6.894  0.4474  0.0339 -0.0766
 1018MOL0     C37321   6.093   1.136   6.992 -0.4305  0.2917  0.0308
 1018MOL0     C37322   5.959   1.140   6.970  0.4095 -0.1215 -1.1951
 1018MOL0     C37323   5.871   1.093   7.088  0.2964 -1.2906 -0.4576
 1018MOL0     C37324   5.901   1.192   6.857 -0.7506 -0.2613  0.7127
 1018MOL0     C37325   5.757   1.198   6.824  0.5401  0.0091  0.9033
 1018MOL0     O37326   5.662   1.221   6.921 -0.2465 -0.5011  0.3457
 1018MOL0     C37327   5.535   1.232   6.863  0.1433 -0.2240 -0.4305
 1018MOL0     C37328   5.441   1.133   6.893 -0.2230  0.3288 -0.1354
 1018MOL0     C37329   5.312   1.132   6.841  0.6766  0.0882 -0.4894
 1018MOL0     C37330   5.272   1.234   6.762  0.1584 -0.4897  0.1924
 1018MOL0     O37331   5.145   1.258   6.711  0.4031 -0.2685  0.0773
 1018MOL0     C37332   5.043   1.164   6.748 -0.6289  0.2526  1.1898
 1018MOL0     C37333   4.903   1.210   6.686  0.5560 -0.2539 -0.0979
 1018MOL0     C37334   4.787   1.110   6.703 -0.1236  0.3294  0.5053
 1018MOL0     C37335   4.651   1.166   6.667 -0.1098 -0.0542  0.0882
 1018MOL0     C37336   4.530   1.063   6.655 -1.0407 -0.0332 -0.5968
 1018MOL0     C37337   4.536   0.973   6.526  0.1940 -0.2651 -0.5849
 1018MOL0     C37338   4.481   1.036   6.402  0.0270 -0.0385 -0.0466
 1018MOL0     C37339   4.501   0.955   6.279 -0.3301  0.0648  0.3105
 1018MOL0    Cl37340   4.358   0.877   6.237 -0.4449  0.3545  0.4443
 1018MOL0     C37341   5.358   1.336   6.732 -0.6898 -0.1830 -0.0266
 1018MOL0     C37342   5.494   1.328   6.774 -0.1552  1.0188 -0.0661
 1018MOL0     O37343   5.737   1.161   6.706 -0.2378 -0.0411 -0.6588
 1018MOL0     C37344   5.993   1.252   6.763  0.1874  0.1150  0.7189
 1018MOL0     C37345   6.132   1.241   6.775 -0.1764 -0.4441  0.8012
 1018MOL0     N37346   6.782   0.790   6.846 -0.1403 -0.9291 -0.8060
 1018MOL0     N37347   6.913   0.779   6.850  0.1476 -0.1912  0.6357
 1018MOL0     C37348   8.198   1.005   6.720  0.8521 -0.2441 -0.2645
 1018MOL0     C37349   8.305   1.058   6.640  0.6540  0.6786  0.3133
 1018MOL0     C37350   8.512   1.222   6.246  0.1231 -1.0032  0.1866
 1018MOL0     C37351   8.627   1.263   6.316  0.1511 -0.6982 -0.9744
 1018MOL0     C37352   8.750   1.273   6.240 -0.3381  0.4486 -0.1914
 1018MOL0     C37353   8.751   1.242   6.103  0.1631 -0.6238 -0.1740
 1018MOL0     O37354   8.879   1.271   6.053 -0.0509 -0.1354  0.6895
 1018MOL0     C37355   8.917   1.245   5.919 -0.3679 -0.3954 -0.0947
 1018MOL0     C37356   9.048   1.312   5.889  0.3545  0.4508  0.2336
 1018MOL0     C37357   9.160   1.218   5.941  0.3755 -1.0868 -0.5524
 1018MOL0     C37358   9.298   1.293   5.952 -0.2733  0.2674  0.5016
 1018MOL0     C37359   9.284   1.410   6.045  0.0225 -0.3813  0.1125
 1018MOL0     C37360   9.273   1.502   6.121 -0.0054 -0.3923 -0.3688
 1018MOL0     C37361   8.636   1.206   6.032 -0.4366  1.2058  0.0067
 1018MOL0     C37362   8.517   1.195   6.105 -0.1218 -0.3719  0.2067
 1018MOL0     H37363   8.118   1.222   6.419  2.2055  0.7869 -0.1224
 1018MOL0     H37364   7.940   1.126   6.547  0.3431  0.7838 -0.7069
 1018MOL0     H37365   7.795   1.069   6.760  0.8152  0.0542  2.1290
 1018MOL0     H37366   7.819   0.931   6.638  2.0704 -1.8893  0.8938
 1018MOL0     H37367   7.786   0.779   6.811 -0.6815 -0.9953  1.3366
 1018MOL0     H37368   7.827   0.898   6.942 -2.2141 -0.6131  0.4839
 1018MOL0     H37369   7.601   0.840   6.965 -0.2262 -1.6449  0.5596
 1018MOL0     H37370   7.599   0.992   6.864 -2.0566 -1.7734  0.8285
 1018MOL0     H37371   7.572   0.835   6.662  1.1318  0.5323  0.7893
 1018MOL0     H37372   7.586   0.698   6.770  0.0228 -0.4395  1.4052
 1018MOL0     H37373   7.375   0.749   6.879  0.1653 -0.9596 -0.4787
 1018MOL0     H37374   7.373   0.913   6.815  1.4353  0.6028 -0.5621
 1018MOL0     H37375   7.321   0.819   6.592  1.4868 -0.7793 -0.0649
 1018MOL0     H37376   7.363   0.657   6.659  0.0306 -0.5354  1.0291
 1018MOL0     H37377   7.116   0.673   6.630 -0.0383  0.4551 -0.9647
 1018MOL0     H37378   7.150   0.666   6.802  0.5757  1.3949  0.9732
 1018MOL0     H37379   7.108   0.918   6.620 -1.6274 -0.7466 -0.7947
 1018MOL0     H37380   7.160   0.926   6.789 -3.6018  2.2712  1.3743
 1018MOL0     H37381   6.855   1.031   6.641 -0.5030 -1.4473 -3.1818
 1018MOL0     H37382   6.576   0.913   6.626  2.2988 -0.4505 -1.0474
 1018MOL0     H37383   6.539   0.849   6.791 -2.3297  0.5391 -1.9374
 1018MOL0     H37384   6.484   1.103   6.745  2.0177  2.4853 -0.4567
 1018MOL0     H37385   6.650   1.125   6.762  1.4758 -1.3707  1.3958
 1018MOL0     H37386   6.566   1.165   6.968  1.3445 -0.1656 -1.7604
 1018MOL0     H37387   6.573   0.991   7.003  0.5053 -1.1966 -1.3920
 1018MOL0     H37388   6.345   1.069   7.056 -3.5412  2.7240 -1.6373
 1018MOL0     H37389   6.337   0.968   6.907 -1.0637 -0.7109  2.4695
 1018MOL0     H37390   6.136   1.103   7.086 -0.3515 -0.4482 -0.2570
 1018MOL0     H37391   5.798   1.171   7.112  1.4731  0.1860 -1.5092
 1018MOL0     H37392   5.819   1.007   7.044 -0.3241  0.2215 -2.8795
 1018MOL0     H37393   5.934   1.073   7.175 -0.2974  0.6838  0.4810
 1018MOL0     H37394   5.471   1.056   6.963  0.5933  0.8772  0.1399
 1018MOL0     H37395   5.242   1.059   6.880  0.6588  0.9621  1.1686
 1018MOL0     H37396   5.067   1.062   6.717 -2.5555 -0.8189  2.9818
 1018MOL0     H37397   5.029   1.164   6.857  1.1180 -1.2300  1.4632
 1018MOL0     H37398   4.876   1.306   6.732 -2.7152 -0.5464 -1.1413
 1018MOL0     H37399   4.910   1.232   6.579  0.3511 -1.8654 -0.4625
 1018MOL0     H37400   4.784   1.065   6.803 -0.3839  0.6889  0.6632
 1018MOL0     H37401   4.814   1.024   6.642 -1.9031 -0.5169  0.8544
 1018MOL0     H37402   4.638   1.230   6.755 -0.4310 -0.3691  0.2758
 1018MOL0     H37403   4.661   1.226   6.576  1.7104  1.4208  1.1935
 1018MOL0     H37404   4.431   1.110   6.654 -1.2507 -0.4341  0.4392
 1018MOL0     H37405   4.529   0.999   6.743 -1.6573  0.5293 -0.1817
 1018MOL0     H37406   4.639   0.939   6.513  1.5633  4.0751 -3.2248
 1018MOL0     H37407   4.474   0.886   6.546 -0.2525  0.0148 -0.7348
 1018MOL0     H37408   4.529   1.131   6.375  0.3478  0.5901  2.5415
 1018MOL0     H37409   4.376   1.063   6.415 -1.0466 -4.2721  1.5471
 1018MOL0     H37410   4.573   0.874   6.294 -0.9604 -0.4691  0.5223
 1018MOL0     H37411   4.531   1.025   6.201  0.7635  0.3451  0.9661
 1018MOL0     H37412   5.330   1.430   6.686  0.4347  1.4109  2.3130
 1018MOL0     H37413   5.563   1.408   6.751  2.8326 -1.1523  0.6448
 1018MOL0     H37414   5.948   1.297   6.675 -3.0216 -2.3421  0.8915
 1018MOL0     H37415   6.202   1.275   6.699 -0.1399 -1.1158  0.5259
 1018MOL0     H37416   8.227   0.939   6.801  0.5089 -2.1197 -1.6012
 1018MOL0     H37417   8.406   1.044   6.675  0.1781 -0.9547  1.1701
 1018MOL0     H37418   8.628   1.282   6.423  3.4131 -0.8038 -0.8929
 1018MOL0     H37419   8.843   1.312   6.281 -0.6385 -0.6950  1.6594
 1018MOL0     H37420   8.909   1.139   5.894 -2.0095  0.2109 -2.3505
 1018MOL0     H37421   8.846   1.302   5.859  0.1239 -0.6755 -0.9559
 1018MOL0     H37422   9.046   1.400   5.953 -2.1475  0.8727 -0.3288
 1018MOL0     H37423   9.065   1.335   5.784  0.1059 -0.0074  0.0895
 1018MOL0     H37424   9.172   1.133   5.873 -0.9859 -1.0675 -0.8384
 1018MOL0     H37425   9.136   1.172   6.038 -0.2764 -1.7366 -1.0040
 1018MOL0     H37426   9.333   1.334   5.857 -0.5565  1.5527  0.9240
 1018MOL0     H37427   9.373   1.220   5.984 -0.0716 -1.1494 -2.8539
 1018MOL0     H37428   9.263   1.589   6.182 -0.7013 -0.1432 -0.8217
 1018MOL0     H37429   8.635   1.194   5.924 -0.4135  2.1054 -0.0961
 1018MOL0     H37430   8.423   1.176   6.053 -0.6156  1.2281  0.4427
 1019MOL0     O37431   4.320   3.175   6.867 -0.0360 -0.3283  0.3606
 1019MOL0     C37432   4.291   3.232   6.973 -0.0832 -0.6013 -0.0912
 1019MOL0     O37433   4.213   3.183   7.079  0.2740 -0.4712 -0.0051
 1019MOL0     C37434   4.121   3.084   7.049 -0.0608  0.1479  0.7839
 1019MOL0     C37435   3.981   3.114   7.026 -0.5596 -0.3942 -1.1766
 1019MOL0     C37436   3.892   3.008   7.008  0.7438 -0.5964  0.4028
 1019MOL0     C37437   3.929   2.877   6.989  0.8120  0.2405  0.1427
 1019MOL0     O37438   3.840   2.769   6.955  0.0164 -0.5668  0.7667
 1019MOL0     C37439   3.738   2.768   7.052  0.2483 -0.2093  0.0453
 1019MOL0     C37440   3.635   2.682   6.982 -0.0619 -0.3718 -0.3675
 1019MOL0     C37441   3.518   2.653   7.075 -0.0195  0.0702 -0.3652
 1019MOL0     C37442   3.401   2.755   7.057  0.7469  0.3152 -0.2428
 1019MOL0     C37443   3.337   2.707   6.929 -0.0900 -0.8770 -0.8330
 1019MOL0     C37444   3.220   2.799   6.899  0.1658 -0.2027  0.6228
 1019MOL0     C37445   3.162   2.753   6.755 -0.0059 -0.8143  0.3490
 1019MOL0     C37446   3.039   2.852   6.721 -0.5941 -0.4889  0.1303
 1019MOL0     N37447   2.907   2.819   6.780 -0.5080 -0.4379  0.5228
 1019MOL0     C37448   2.851   2.875   6.894  0.1267  0.1523  0.5707
 1019MOL0     C37449   2.749   2.791   6.923 -0.0134 -0.3654  0.9573
 1019MOL0     C37450   2.637   2.781   7.021  0.6089  0.6957  0.9433
 1019MOL0     C37451   2.490   2.733   6.978  0.4524  0.3306 -0.4153
 1019MOL0     C37452   2.439   2.808   6.856  0.2871  0.1319 -0.4075
 1019MOL0     C37453   2.285   2.802   6.857  1.0812  0.0128  0.3369
 1019MOL0     O37454   2.217   2.906   6.935 -0.2419 -0.4837 -0.0766
 1019MOL0     C37455   2.105   2.955   6.877 -0.4921  0.0341 -0.8046
 1019MOL0     C37456   2.112   3.040   6.770  0.4168 -0.9160  0.2344
 1019MOL0     C37457   1.991   3.100   6.717 -0.1618 -0.5975 -0.7176
 1019MOL0     C37458   1.995   3.192   6.590 -0.3909 -0.0428  0.0030
 1019MOL0     C37459   1.862   3.074   6.773 -0.2695  0.1845  0.4001
 1019MOL0     C37460   1.733   3.138   6.729 -0.0242  0.4324  0.2639
 1019MOL0     O37461   1.624   3.080   6.786  0.3109 -0.3820 -0.2447
 1019MOL0     C37462   1.491   3.107   6.739 -0.1910  0.0038  0.2535
 1019MOL0     C37463   1.396   3.090   6.837 -0.2298  0.4112  0.0456
 1019MOL0     C37464   1.266   3.133   6.818 -0.2716  0.6266  0.0757
 1019MOL0     C37465   1.228   3.196   6.695  0.3463  0.0684 -0.0307
 1019MOL0     O37466   1.096   3.231   6.682  0.1170 -0.2025  0.1824
 1019MOL0     C37467   1.070   3.357   6.612 -0.0406  0.4137 -0.8031
 1019MOL0     C37468   0.935   3.353   6.538  0.0591 -0.6465 -0.4799
 1019MOL0     C37469   0.888   3.504   6.508  0.3667  0.2044  0.0603
 1019MOL0     C37470   0.732   3.505   6.471  0.7072 -0.2359  0.2536
 1019MOL0     C37471   0.667   3.644   6.475  0.2316  0.5475 -0.8251
 1019MOL0     C37472   0.699   3.710   6.336  0.6766  0.2418  0.4268
 1019MOL0     C37473   0.632   3.848   6.316  0.0286 -0.7464 -0.3010
 1019MOL0     C37474   0.629   3.944   6.438  0.2988 -0.0588 -0.0864
 1019MOL0    Cl37475   0.502   3.916   6.557  0.3397 -0.3382  0.0973
 1019MOL0     C37476   1.322   3.198   6.594 -0.6142  0.3911 -0.2988
 1019MOL0     C37477   1.454   3.159   6.617  0.2654  1.4518 -0.5062
 1019MOL0     O37478   1.718   3.236   6.653  0.1321  0.0922 -0.4722
 1019MOL0     C37479   1.857   2.986   6.881  0.5829  0.9216  0.4173
 1019MOL0     C37480   1.979   2.934   6.939  0.3838  0.3396 -0.9068
 1019MOL0     N37481   2.728   2.709   6.815  0.6553 -0.4806  0.5232
 1019MOL0     N37482   2.817   2.729   6.728 -0.6565 -0.4286  0.2519
 1019MOL0     C37483   4.064   2.848   6.987 -0.1384 -0.0231  0.6844
 1019MOL0     C37484   4.162   2.949   7.009  0.7493  0.2315 -0.9450
 1019MOL0     C37485   4.370   3.345   7.004  0.0679 -0.5442  0.2181
 1019MOL0     C37486   4.477   3.402   6.931 -0.3242  0.2636  0.4253
 1019MOL0     C37487   4.549   3.513   6.984 -0.5052  0.5164 -0.0759
 1019MOL0     C37488   4.514   3.573   7.106  0.3141  0.0080 -0.2092
 1019MOL0     O37489   4.571   3.678   7.176  0.3359  0.3886  0.0540
 1019MOL0     C37490   4.676   3.745   7.115  0.3946 -0.0499  0.2785
 1019MOL0     C37491   4.813   3.689   7.159  0.0624  0.8938 -0.1580
 1019MOL0     C37492   4.840   3.690   7.303  0.1634  0.1548 -0.3610
 1019MOL0     C37493   4.953   3.601   7.356  0.3912 -0.9590  0.6933
 1019MOL0     C37494   4.920   3.457   7.361  0.4878  0.2211 -0.1180
 1019MOL0     C37495   4.908   3.333   7.353 -0.0402 -0.1250  0.4223
 1019MOL0     C37496   4.401   3.525   7.172 -0.1239  0.1643  0.7030
 1019MOL0     C37497   4.332   3.417   7.122  0.5411 -0.2623 -0.1748
 1019MOL0     H37498   3.945   3.216   7.037  1.4574  0.1367  1.4851
 1019MOL0     H37499   3.788   3.040   7.010  0.1160 -2.5168  0.5145
 1019MOL0     H37500   3.773   2.723   7.145 -3.5723  1.4648  2.5731
 1019MOL0     H37501   3.703   2.864   7.093 -0.4129  0.1940 -1.3995
 1019MOL0     H37502   3.602   2.741   6.897  1.6684  0.4192 -0.5391
 1019MOL0     H37503   3.684   2.588   6.953  6.0193  1.2400  2.8372
 1019MOL0     H37504   3.482   2.551   7.062 -4.3457  0.6238  4.3099
 1019MOL0     H37505   3.557   2.660   7.177 -0.1603 -1.0251 -0.2231
 1019MOL0     H37506   3.334   2.752   7.143  1.6439  2.3133  0.5865
 1019MOL0     H37507   3.424   2.859   7.035  1.7430 -0.2316 -2.0341
 1019MOL0     H37508   3.412   2.700   6.850  3.1956  0.2040  1.9581
 1019MOL0     H37509   3.295   2.609   6.952 -2.9444  0.0152 -1.7940
 1019MOL0     H37510   3.144   2.784   6.976  0.1803 -0.5704  0.5672
 1019MOL0     H37511   3.250   2.903   6.884  0.5161  0.2908  3.9779
 1019MOL0     H37512   3.241   2.750   6.680  0.6861  0.0793  1.0213
 1019MOL0     H37513   3.116   2.654   6.751  0.8693 -1.2033 -0.5287
 1019MOL0     H37514   3.026   2.843   6.612  0.1114  0.3288 -0.0327
 1019MOL0     H37515   3.070   2.954   6.741  0.5875 -0.5903 -1.0199
 1019MOL0     H37516   2.901   2.944   6.961 -0.7444 -1.2574  2.7853
 1019MOL0     H37517   2.673   2.696   7.079  0.4744 -2.0672 -2.6257
 1019MOL0     H37518   2.630   2.877   7.072  1.4149  0.2843  1.8599
 1019MOL0     H37519   2.417   2.750   7.057 -2.3302  2.9184 -3.2561
 1019MOL0     H37520   2.496   2.625   6.960  0.0841  0.3911 -0.9123
 1019MOL0     H37521   2.478   2.777   6.759  0.8615  2.1239 -0.8678
 1019MOL0     H37522   2.474   2.911   6.867  0.7254 -0.0148 -0.4005
 1019MOL0     H37523   2.253   2.704   6.893  1.5458 -0.4319 -0.4496
 1019MOL0     H37524   2.263   2.805   6.750  2.6823  0.9050 -0.0045
 1019MOL0     H37525   2.211   3.071   6.741  1.0093 -0.4252  2.5372
 1019MOL0     H37526   1.973   3.299   6.597  2.4747  0.5322  2.2800
 1019MOL0     H37527   2.095   3.200   6.548  0.2210  2.2167  1.6772
 1019MOL0     H37528   1.934   3.156   6.507  0.8159  0.1753 -1.0172
 1019MOL0     H37529   1.420   3.025   6.921  1.9652  1.2247  0.1002
 1019MOL0     H37530   1.192   3.113   6.894  0.1131  1.5593  0.7112
 1019MOL0     H37531   1.070   3.433   6.690  2.9454  0.1433 -0.4257
 1019MOL0     H37532   1.148   3.382   6.539 -0.6467  1.6115 -1.0630
 1019MOL0     H37533   0.936   3.288   6.451 -0.8014 -1.0006 -0.2332
 1019MOL0     H37534   0.865   3.302   6.605  0.1906  1.5823  1.5249
 1019MOL0     H37535   0.953   3.542   6.429  0.8805  3.7608  2.0088
 1019MOL0     H37536   0.904   3.572   6.591 -0.6295 -0.5716  0.9125
 1019MOL0     H37537   0.702   3.465   6.374 -3.5438 -1.1074  1.6993
 1019MOL0     H37538   0.681   3.456   6.555 -0.0712  1.6037  0.9228
 1019MOL0     H37539   0.719   3.706   6.548 -0.9133  0.9272 -0.3136
 1019MOL0     H37540   0.560   3.632   6.493  0.3071 -1.0260 -1.2630
 1019MOL0     H37541   0.805   3.717   6.311  0.4191 -1.8121 -1.4489
 1019MOL0     H37542   0.649   3.651   6.259  1.8402  0.0122 -0.1737
 1019MOL0     H37543   0.533   3.827   6.275  0.1517  0.3002 -1.1753
 1019MOL0     H37544   0.693   3.893   6.237 -1.9727  0.7332 -1.0898
 1019MOL0     H37545   0.607   4.040   6.391  0.4436 -1.3314 -3.0214
 1019MOL0     H37546   0.728   3.947   6.484  0.4825 -1.1158 -0.3717
 1019MOL0     H37547   1.290   3.231   6.495 -2.1849  1.8557  0.6472
 1019MOL0     H37548   1.525   3.154   6.534 -0.3376 -0.9954 -0.9615
 1019MOL0     H37549   1.762   2.951   6.922  2.1584 -3.2576  0.9824
 1019MOL0     H37550   1.974   2.863   7.021 -0.4429 -1.2808 -2.2848
 1019MOL0     H37551   4.090   2.745   6.964  0.3850  0.7351 -2.6410
 1019MOL0     H37552   4.269   2.934   7.015  0.9753  2.1921  1.0903
 1019MOL0     H37553   4.513   3.360   6.838 -2.4940 -1.1939  0.1523
 1019MOL0     H37554   4.638   3.544   6.928  0.1020 -0.8451  0.0923
 1019MOL0     H37555   4.687   3.739   7.006  0.6938  0.9444  0.2401
 1019MOL0     H37556   4.662   3.853   7.125  0.6270  0.2159 -1.7196
 1019MOL0     H37557   4.888   3.754   7.114 -1.9322  3.7398  0.3610
 1019MOL0     H37558   4.817   3.586   7.122 -1.5634  0.6659  0.2317
 1019MOL0     H37559   4.751   3.675   7.364 -1.1446  1.7362 -1.7562
 1019MOL0     H37560   4.880   3.791   7.321  1.0469  0.4006 -3.2354
 1019MOL0     H37561   4.982   3.631   7.457 -1.6839 -2.7944  1.8949
 1019MOL0     H37562   5.046   3.612   7.299 -0.1153 -2.2193 -0.4104
 1019MOL0     H37563   4.900   3.227   7.343  0.7494 -0.3545  1.8899
 1019MOL0     H37564   4.359   3.571   7.260 -1.8633 -1.4799  0.8133
 1019MOL0     H37565   4.244   3.394   7.182  1.7513  1.2679  2.3256
 1020MOL0     O37566  11.139   9.601   1.263 -0.0490  0.4713  0.1212
 1020MOL0     C37567  11.227   9.645   1.338  0.3191  0.7684  0.4837
 1020MOL0     O37568  11.216   9.656   1.476 -0.6611  0.1324  0.2456
 1020MOL0     C37569  11.138   9.571   1.547 -1.2948  0.6942 -0.4844
 1020MOL0     C37570  11.139   9.596   1.685  0.2870 -0.4422  0.2733
 1020MOL0     C37571  11.066   9.516   1.780 -0.3590 -1.3794 -0.0727
 1020MOL0     C37572  10.997   9.409   1.734  0.2030  0.4220 -0.2736
 1020MOL0     O37573  10.901   9.349   1.821 -0.1046  0.1568  0.1922
 1020MOL0     C37574  10.800   9.433   1.870  0.4164  0.2165  0.3355
 1020MOL0     C37575  10.700   9.359   1.962  0.0668  0.2890 -0.1871
 1020MOL0     C37576  10.572   9.323   1.879  0.1464 -0.2133  0.4224
 1020MOL0     C37577  10.475   9.240   1.959  1.3763 -0.6180 -0.7002
 1020MOL0     C37578  10.372   9.326   2.038  0.0254 -0.2996 -0.7618
 1020MOL0     C37579  10.319   9.235   2.153  0.1896 -0.4684  0.2928
 1020MOL0     C37580  10.202   9.319   2.220 -0.6433  0.4981  0.8414
 1020MOL0     C37581  10.223   9.339   2.367 -0.5121 -0.3116  0.0996
 1020MOL0     N37582  10.112   9.429   2.411  0.1038  0.5368 -0.1529
 1020MOL0     C37583  10.129   9.562   2.437  0.7005  0.0181  0.1035
 1020MOL0     C37584  10.009   9.609   2.478  0.3143  0.0432 -0.0583
 1020MOL0     C37585   9.963   9.751   2.517  1.0638 -0.5387  0.4395
 1020MOL0     C37586   9.885   9.817   2.406  0.5950 -0.1924  0.1898
 1020MOL0     C37587   9.766   9.902   2.454  0.4179  0.3625  0.0474
 1020MOL0     C37588   9.642   9.820   2.466  0.1346  0.3774  0.3805
 1020MOL0     O37589   9.533   9.895   2.523  0.3205  0.2169  0.0348
 1020MOL0     C37590   9.417   9.825   2.507  0.1862 -0.2714 -0.2110
 1020MOL0     C37591   9.355   9.810   2.380  0.8083  0.0149  0.5152
 1020MOL0     C37592   9.231   9.728   2.366 -0.9475 -0.2547 -0.8269
 1020MOL0     C37593   9.181   9.713   2.225  0.1190  0.2416 -0.3805
 1020MOL0     C37594   9.180   9.671   2.487 -0.9535 -0.3275 -0.5400
 1020MOL0     C37595   9.047   9.605   2.495  0.1291  0.2786 -0.4514
 1020MOL0     O37596   9.034   9.515   2.592  0.1794 -0.4954  0.0348
 1020MOL0     C37597   8.974   9.553   2.708 -0.6854  0.1246 -0.3651
 1020MOL0     C37598   9.017   9.480   2.821  0.1426  0.3390  0.4982
 1020MOL0     C37599   8.963   9.506   2.951  0.7018  0.0830 -0.3098
 1020MOL0     C37600   8.869   9.609   2.971 -0.4460  0.2467  1.3115
 1020MOL0     O37601   8.807   9.639   3.094 -0.3940 -0.1054  0.9888
 1020MOL0     C37602   8.768   9.524   3.175 -0.1331  0.5806  0.6746
 1020MOL0     C37603   8.661   9.580   3.274 -0.2595 -0.7757 -0.5789
 1020MOL0     C37604   8.609   9.482   3.382  0.1868  1.1870 -0.2069
 1020MOL0     C37605   8.704   9.466   3.495  0.5305 -0.9725 -0.0252
 1020MOL0     C37606   8.645   9.377   3.608 -0.7074 -0.4025 -0.6810
 1020MOL0     C37607   8.743   9.356   3.721  0.0286 -0.0227 -0.3315
 1020MOL0     C37608   8.691   9.236   3.812  0.2277  0.6967  0.0614
 1020MOL0     C37609   8.778   9.204   3.936  0.2987  0.3164 -0.1282
 1020MOL0    Cl37610   8.742   9.317   4.067 -0.0998  0.0629  0.4145
 1020MOL0     C37611   8.831   9.689   2.856  0.4297 -0.0126 -0.5856
 1020MOL0     C37612   8.878   9.657   2.729  0.5450 -0.3597  0.2508
 1020MOL0     O37613   8.950   9.649   2.430  0.0931  0.2983 -0.1390
 1020MOL0     C37614   9.249   9.694   2.608 -0.1596  0.6253  0.0208
 1020MOL0     C37615   9.363   9.773   2.618  0.7726  0.0519 -0.6544
 1020MOL0     N37616   9.927   9.495   2.491  0.6037  0.5265  0.3765
 1020MOL0     N37617   9.991   9.382   2.450  0.4450 -0.6647  0.2575
 1020MOL0     C37618  11.002   9.373   1.600 -0.7940 -0.2457  0.8886
 1020MOL0     C37619  11.067   9.458   1.504 -0.0784  1.2259  0.0730
 1020MOL0     C37620  11.348   9.706   1.271  0.3661 -0.6751 -0.0420
 1020MOL0     C37621  11.368   9.700   1.130 -0.2462  0.2555  0.1379
 1020MOL0     C37622  11.484   9.753   1.071  0.9810  0.0659  0.2586
 1020MOL0     C37623  11.574   9.816   1.159 -1.6475  0.3305 -0.0145
 1020MOL0     O37624  11.689   9.859   1.088  0.3088  0.4656 -0.1342
 1020MOL0     C37625  11.770   9.958   1.158  0.7285  0.1858  0.2301
 1020MOL0     C37626  11.895  10.000   1.080  0.1723  0.3252  0.4463
 1020MOL0     C37627  11.973   9.875   1.018  0.5510  0.7396  0.0504
 1020MOL0     C37628  12.072   9.909   0.908 -0.2344 -0.1814 -0.2932
 1020MOL0     C37629  12.165  10.009   0.956  0.1265  0.3299  0.8399
 1020MOL0     C37630  12.234  10.102   0.969  0.9009  0.2602 -0.2316
 1020MOL0     C37631  11.551   9.839   1.295  0.2313  0.4365 -0.2231
 1020MOL0     C37632  11.435   9.783   1.353  0.0313  0.5004  1.8254
 1020MOL0     H37633  11.190   9.682   1.727 -1.1823  0.5286  0.1121
 1020MOL0     H37634  11.069   9.548   1.884  0.2087  0.0537 -0.4917
 1020MOL0     H37635  10.848   9.502   1.941  2.7264  0.3454 -1.2462
 1020MOL0     H37636  10.750   9.497   1.798  2.0939  2.0166  0.6642
 1020MOL0     H37637  10.742   9.269   2.008 -1.6439  0.1968  1.3230
 1020MOL0     H37638  10.664   9.426   2.040  0.0772 -1.3265  1.2637
 1020MOL0     H37639  10.525   9.414   1.839 -0.1253 -1.1073 -1.3807
 1020MOL0     H37640  10.591   9.264   1.789 -0.0632 -3.1193  2.1628
 1020MOL0     H37641  10.418   9.182   1.885  0.1184  0.9961 -1.0464
 1020MOL0     H37642  10.537   9.171   2.017  2.0759  0.7992  0.2917
 1020MOL0     H37643  10.419   9.420   2.071  2.1386 -1.0853 -1.3490
 1020MOL0     H37644  10.290   9.353   1.972 -0.5917  0.3009  0.2210
 1020MOL0     H37645  10.282   9.140   2.114 -2.4299  0.8043 -0.5284
 1020MOL0     H37646  10.404   9.217   2.219 -0.3869  1.8167  1.7643
 1020MOL0     H37647  10.183   9.417   2.175 -0.0398  0.0992 -0.3183
 1020MOL0     H37648  10.116   9.255   2.199  1.1263 -1.1737 -1.9473
 1020MOL0     H37649  10.315   9.396   2.383 -0.7381 -0.5046  2.3644
 1020MOL0     H37650  10.238   9.240   2.411  0.2509 -1.2024 -2.0246
 1020MOL0     H37651  10.218   9.624   2.433  0.7711 -0.1309 -0.6216
 1020MOL0     H37652   9.897   9.731   2.602  1.9085 -4.9425  0.2939
 1020MOL0     H37653  10.044   9.815   2.553  0.0118  0.5458  0.9669
 1020MOL0     H37654   9.852   9.745   2.330  0.8126 -0.1856  0.0865
 1020MOL0     H37655   9.959   9.881   2.357  0.5615 -0.9585 -0.9103
 1020MOL0     H37656   9.742   9.972   2.374  0.0300  1.5375  1.1530
 1020MOL0     H37657   9.787   9.954   2.548  1.6923  2.0261 -1.0974
 1020MOL0     H37658   9.673   9.731   2.522 -0.9471 -0.6121 -0.5047
 1020MOL0     H37659   9.613   9.785   2.366 -0.6943  2.2021 -0.0601
 1020MOL0     H37660   9.407   9.860   2.299  1.2794 -1.5282 -0.1621
 1020MOL0     H37661   9.121   9.804   2.213 -1.4060 -0.2512  2.5698
 1020MOL0     H37662   9.269   9.713   2.161  2.2824  2.5715  2.3409
 1020MOL0     H37663   9.119   9.624   2.212  0.2761  0.4079 -2.6983
 1020MOL0     H37664   9.093   9.405   2.803 -0.7429 -0.6229  0.6789
 1020MOL0     H37665   8.991   9.451   3.041  2.3349 -0.3433 -1.0288
 1020MOL0     H37666   8.725   9.440   3.119 -1.8017  2.2868 -0.6979
 1020MOL0     H37667   8.858   9.484   3.225  0.2707  2.6621  1.7465
 1020MOL0     H37668   8.719   9.657   3.325  1.2706 -2.3172  0.0927
 1020MOL0     H37669   8.578   9.636   3.230 -1.6309 -1.3923  1.0930
 1020MOL0     H37670   8.578   9.383   3.348  0.3979  0.7822  0.7405
 1020MOL0     H37671   8.512   9.521   3.412  0.1523 -0.1603  1.5869
 1020MOL0     H37672   8.794   9.414   3.462  0.5291 -1.4135  0.6520
 1020MOL0     H37673   8.729   9.563   3.539 -1.4979 -0.3724 -0.0800
 1020MOL0     H37674   8.632   9.273   3.576  1.4381 -1.1873  0.7646
 1020MOL0     H37675   8.554   9.422   3.649 -0.0741 -1.2245  1.8091
 1020MOL0     H37676   8.841   9.334   3.678 -0.7242  1.8905 -3.3392
 1020MOL0     H37677   8.740   9.445   3.785 -2.3611 -1.7724  2.2351
 1020MOL0     H37678   8.698   9.143   3.754 -2.2144 -0.3270  1.2900
 1020MOL0     H37679   8.586   9.243   3.840  0.1760 -0.3416  0.1893
 1020MOL0     H37680   8.882   9.211   3.902 -0.1112  1.6941 -1.2168
 1020MOL0     H37681   8.743   9.103   3.959 -1.8842  0.6063 -1.8904
 1020MOL0     H37682   8.774   9.780   2.873  0.1790 -0.5569  1.9833
 1020MOL0     H37683   8.835   9.703   2.640  3.3485 -1.7375 -2.0024
 1020MOL0     H37684   9.201   9.661   2.699 -0.6483 -2.0183 -1.1113
 1020MOL0     H37685   9.408   9.780   2.716 -2.1125  1.4003  0.6803
 1020MOL0     H37686  10.943   9.285   1.574  1.7625 -1.5382 -1.0296
 1020MOL0     H37687  11.070   9.419   1.403 -1.5789 -1.0088  0.8060
 1020MOL0     H37688  11.294   9.653   1.066 -0.5486 -0.1664  0.7914
 1020MOL0     H37689  11.494   9.731   0.965  1.5795  0.4887  0.2154
 1020MOL0     H37690  11.713  10.047   1.183 -1.1441 -0.9810  0.3301
 1020MOL0     H37691  11.810   9.905   1.246 -1.8006  0.0388  1.3638
 1020MOL0     H37692  11.961  10.053   1.150  1.3422  0.6407 -0.8595
 1020MOL0     H37693  11.865  10.077   1.009 -0.9704  2.2599  2.8791
 1020MOL0     H37694  11.902   9.808   0.968  1.1179 -0.3369  0.6402
 1020MOL0     H37695  12.026   9.817   1.095  1.6210  0.8116 -0.6151
 1020MOL0     H37696  12.029   9.960   0.822  2.1989  2.2504 -0.2136
 1020MOL0     H37697  12.124   9.821   0.869 -1.8921 -1.0888 -0.5645
 1020MOL0     H37698  12.291  10.192   0.965 -2.0020  2.2063 -0.4280
 1020MOL0     H37699  11.622   9.890   1.360  2.3336 -0.6734 -1.5359
 1020MOL0     H37700  11.423   9.782   1.461  1.0537  2.4301  2.0061
 1021MOL0     O37701   2.930  10.935   8.400  0.5802  0.3618  0.5610
 1021MOL0     C37702   2.997  10.830   8.383 -0.2413  0.1956 -0.2339
 1021MOL0     O37703   2.944  10.701   8.375 -0.5393 -0.4739 -0.0321
 1021MOL0     C37704   2.811  10.683   8.347  0.0932 -0.7045 -0.0814
 1021MOL0     C37705   2.738  10.770   8.265 -0.3739  0.1624  0.5638
 1021MOL0     C37706   2.602  10.752   8.234 -0.4587 -0.0069 -0.1221
 1021MOL0     C37707   2.543  10.635   8.277  0.2213 -0.6357 -0.8428
 1021MOL0     O37708   2.405  10.631   8.260  0.1012  0.3583  0.2021
 1021MOL0     C37709   2.338  10.509   8.314 -0.1595  0.2182  0.0995
 1021MOL0     C37710   2.213  10.495   8.218 -0.1716 -0.1620  0.5688
 1021MOL0     C37711   2.097  10.431   8.278  0.6292 -0.8886  0.3893
 1021MOL0     C37712   1.976  10.428   8.179  0.3717 -0.0392 -0.1488
 1021MOL0     C37713   1.844  10.365   8.244 -0.0661 -0.9517  0.7102
 1021MOL0     C37714   1.732  10.367   8.147 -0.3039  0.0289 -0.8687
 1021MOL0     C37715   1.613  10.281   8.200 -0.0730 -0.6864 -0.4049
 1021MOL0     C37716   1.501  10.253   8.098  0.6370  0.0627 -0.2068
 1021MOL0     N37717   1.428  10.128   8.133 -1.1001  0.5603 -0.4450
 1021MOL0     C37718   1.290  10.129   8.130 -0.0448  0.1746 -0.1607
 1021MOL0     C37719   1.253  10.004   8.082 -0.1070  0.3500  0.3839
 1021MOL0     C37720   1.111   9.953   8.057  1.0376  0.2153  0.7023
 1021MOL0     C37721   1.046   9.892   8.178 -0.1403  0.3754 -0.6798
 1021MOL0     C37722   1.025  10.006   8.280 -0.2289 -0.2609  1.1909
 1021MOL0     C37723   0.896   9.990   8.373 -1.0124 -0.3869  0.4523
 1021MOL0     O37724   0.790  10.059   8.308  0.2710 -0.0703  0.2599
 1021MOL0     C37725   0.661  10.064   8.362  0.5070 -0.6550  0.1337
 1021MOL0     C37726   0.614   9.989   8.471  0.2141 -0.1289 -0.2176
 1021MOL0     C37727   0.475   9.984   8.497 -1.4249  0.3774 -0.1706
 1021MOL0     C37728   0.442   9.894   8.609  0.1037 -0.2574  0.1893
 1021MOL0     C37729   0.375  10.049   8.415 -0.1994 -0.1001  0.0373
 1021MOL0     C37730   0.230  10.055   8.445 -0.2834  0.4309  0.0372
 1021MOL0     O37731   0.161  10.149   8.362 -0.1793 -0.2123 -0.1545
 1021MOL0     C37732   0.021  10.159   8.376  0.4749 -0.7071  0.8900
 1021MOL0     C37733  -0.062  10.108   8.271  0.2730  0.4825 -0.3850
 1021MOL0     C37734  -0.200  10.118   8.284  0.3151 -0.7316  0.1142
 1021MOL0     C37735  -0.261  10.182   8.394 -0.3268 -0.5347 -0.7713
 1021MOL0     O37736  -0.391  10.216   8.391 -1.1790  0.5587  0.5002
 1021MOL0     C37737  -0.482  10.108   8.354 -1.2702  0.4452 -0.7190
 1021MOL0     C37738  -0.597  10.108   8.450 -0.3103 -0.7045  0.1821
 1021MOL0     C37739  -0.705  10.015   8.402 -0.1530  0.3931  0.0507
 1021MOL0     C37740  -0.832  10.027   8.492 -0.4798  0.7837 -0.3957
 1021MOL0     C37741  -0.931   9.916   8.456 -1.1266 -0.0889  0.5058
 1021MOL0     C37742  -1.055   9.920   8.531 -0.7838 -0.4643  0.0002
 1021MOL0     C37743  -1.130   9.789   8.542  0.3111 -0.3214 -0.2143
 1021MOL0     C37744  -1.063   9.683   8.632  0.2663  0.2505  0.2290
 1021MOL0    Cl37745  -1.175   9.557   8.657  0.0242 -0.3918 -0.1712
 1021MOL0     C37746  -0.177  10.225   8.499  0.5239 -0.1909  0.5984
 1021MOL0     C37747  -0.040  10.222   8.488  0.2914 -0.1608  0.7646
 1021MOL0     O37748   0.179   9.986   8.534  0.1971  0.3956 -0.1143
 1021MOL0     C37749   0.430  10.113   8.298  0.5832 -0.4134  0.1468
 1021MOL0     C37750   0.566  10.121   8.273  0.0315 -0.9287 -0.4477
 1021MOL0     N37751   1.370   9.944   8.041 -0.3672 -0.3956 -1.1486
 1021MOL0     N37752   1.471  10.010   8.084 -0.7323 -0.5251  0.7109
 1021MOL0     C37753   2.620  10.539   8.345  0.8610  0.1739  0.7807
 1021MOL0     C37754   2.751  10.562   8.375  0.0587 -1.1745 -0.4494
 1021MOL0     C37755   3.144  10.853   8.387  0.0753 -0.0252  0.2512
 1021MOL0     C37756   3.231  10.746   8.424  1.0832  0.7428  0.6154
 1021MOL0     C37757   3.364  10.775   8.425 -0.5497  0.0027 -0.0756
 1021MOL0     C37758   3.420  10.906   8.425  0.3001 -0.1427 -0.1000
 1021MOL0     O37759   3.548  10.931   8.462 -0.1118 -0.2832  0.0740
 1021MOL0     C37760   3.648  10.825   8.455 -0.0472  0.9789 -0.0378
 1021MOL0     C37761   3.789  10.892   8.445 -0.2367 -0.2168  0.0689
 1021MOL0     C37762   3.832  10.905   8.593 -0.5249  0.2014  0.2571
 1021MOL0     C37763   3.980  10.948   8.601  0.0408  0.7396 -0.5143
 1021MOL0     C37764   4.034  10.921   8.739  1.1567  0.0691  1.0214
 1021MOL0     C37765   4.077  10.896   8.851  0.3235 -0.0966  0.3101
 1021MOL0     C37766   3.335  11.010   8.397 -0.0869  0.1944  0.1141
 1021MOL0     C37767   3.197  10.983   8.378  0.4132 -0.3319 -1.0636
 1021MOL0     H37768   2.774  10.863   8.223 -5.0370  2.4162  0.8286
 1021MOL0     H37769   2.546  10.826   8.178  0.5368 -0.3908 -1.6858
 1021MOL0     H37770   2.396  10.416   8.315  1.9929  1.5162  0.8565
 1021MOL0     H37771   2.294  10.524   8.413 -2.4673  0.2170 -0.8579
 1021MOL0     H37772   2.182  10.586   8.166  0.9734 -1.1456 -2.0404
 1021MOL0     H37773   2.237  10.441   8.126 -2.2657 -1.4618  0.7087
 1021MOL0     H37774   2.123  10.327   8.300  4.2344 -0.8583 -2.6701
 1021MOL0     H37775   2.074  10.481   8.372  0.9746  0.6774 -0.3278
 1021MOL0     H37776   1.941  10.527   8.147 -2.1787 -0.1780  1.8263
 1021MOL0     H37777   1.997  10.367   8.091 -4.1077 -0.3685 -1.2744
 1021MOL0     H37778   1.881  10.270   8.285  1.2167 -0.2635  1.2345
 1021MOL0     H37779   1.808  10.424   8.329  0.9459 -0.9333  1.1443
 1021MOL0     H37780   1.706  10.471   8.126  2.0172  1.2716  1.6827
 1021MOL0     H37781   1.760  10.319   8.053 -2.0064 -0.5130 -1.1361
 1021MOL0     H37782   1.657  10.187   8.234 -0.2200  0.3838  3.1004
 1021MOL0     H37783   1.565  10.332   8.284  1.6411  0.7324 -0.2331
 1021MOL0     H37784   1.537  10.256   7.995  2.0896 -0.3466  0.2577
 1021MOL0     H37785   1.428  10.333   8.111 -0.1777 -0.9813  2.3433
 1021MOL0     H37786   1.219  10.204   8.164  0.6454  0.0392  1.6477
 1021MOL0     H37787   1.049  10.035   8.018  0.7471 -0.1209  0.4566
 1021MOL0     H37788   1.106   9.875   7.980  1.8865  2.5441 -1.8942
 1021MOL0     H37789   1.116   9.827   8.232 -2.5502 -0.9547  1.0216
 1021MOL0     H37790   0.952   9.842   8.155 -0.6010  0.2486  1.3063
 1021MOL0     H37791   1.013  10.100   8.224 -3.7489 -2.6055 -2.6285
 1021MOL0     H37792   1.115  10.015   8.340  0.3759 -0.3234  0.3116
 1021MOL0     H37793   0.920  10.058   8.456  0.6795 -0.7424  0.2938
 1021MOL0     H37794   0.870   9.887   8.398 -0.6107 -0.7333 -0.5346
 1021MOL0     H37795   0.680   9.933   8.535  0.0233 -1.3826 -1.0767
 1021MOL0     H37796   0.417   9.958   8.694 -0.0922  0.6614 -0.5366
 1021MOL0     H37797   0.361   9.827   8.582 -0.3946  0.4651 -0.1483
 1021MOL0     H37798   0.531   9.835   8.632  0.6793  0.9372  1.1473
 1021MOL0     H37799  -0.010  10.047   8.198  1.2170 -0.5705  1.1023
 1021MOL0     H37800  -0.263  10.079   8.204  2.9761 -0.7594 -2.1374
 1021MOL0     H37801  -0.527  10.122   8.255 -1.5540  0.1794 -0.6297
 1021MOL0     H37802  -0.436  10.009   8.354  1.5038  1.6230  1.2525
 1021MOL0     H37803  -0.557  10.067   8.543 -1.5655 -0.7449  0.7234
 1021MOL0     H37804  -0.634  10.210   8.464 -0.0475  0.0795 -3.7253
 1021MOL0     H37805  -0.674   9.910   8.401 -2.3858 -0.3440 -2.7050
 1021MOL0     H37806  -0.729  10.053   8.303  1.1252 -0.5997 -0.6860
 1021MOL0     H37807  -0.811  10.021   8.599 -2.6344  3.0962  0.2658
 1021MOL0     H37808  -0.871  10.129   8.493  0.9919  1.4511  3.3757
 1021MOL0     H37809  -0.872   9.831   8.491  0.1565  0.9253  0.9133
 1021MOL0     H37810  -0.951   9.917   8.348  2.1303 -1.1240 -0.2103
 1021MOL0     H37811  -1.027   9.967   8.626  0.8851  1.1677 -1.2324
 1021MOL0     H37812  -1.116  10.000   8.485 -1.5432 -0.1338  1.5168
 1021MOL0     H37813  -1.132   9.753   8.439 -1.7157  0.0056 -0.3158
 1021MOL0     H37814  -1.234   9.811   8.569  0.7131  1.1249  0.2574
 1021MOL0     H37815  -1.046   9.732   8.728  3.2325 -1.7364  0.8611
 1021MOL0     H37816  -0.966   9.652   8.592  0.7011  0.4497  1.1062
 1021MOL0     H37817  -0.211  10.276   8.589 -1.7892  1.6665 -1.1959
 1021MOL0     H37818   0.023  10.259   8.569  0.1701  2.1271 -0.1039
 1021MOL0     H37819   0.359  10.158   8.229  0.1259 -2.4927 -0.8178
 1021MOL0     H37820   0.598  10.157   8.176 -1.6077 -0.1525 -0.7200
 1021MOL0     H37821   2.583  10.442   8.375  2.6952 -1.1100 -0.8489
 1021MOL0     H37822   2.795  10.481   8.432  0.5299  1.4700  3.3433
 1021MOL0     H37823   3.197  10.644   8.443  0.7475  1.1733  2.5168
 1021MOL0     H37824   3.436  10.696   8.447  0.5549  1.6464  2.6970
 1021MOL0     H37825   3.643  10.756   8.540  2.7644  0.9100  0.1562
 1021MOL0     H37826   3.633  10.766   8.365  1.7334 -0.3558  0.4924
 1021MOL0     H37827   3.778  10.988   8.395  2.9232  1.4264  2.1578
 1021MOL0     H37828   3.862  10.825   8.399  2.0019  0.4003  2.4854
 1021MOL0     H37829   3.819  10.807   8.640  0.3302 -0.4805 -0.9008
 1021MOL0     H37830   3.783  10.983   8.651  0.0454  0.3059  0.6087
 1021MOL0     H37831   3.999  11.046   8.555  1.0276  0.5158 -0.6017
 1021MOL0     H37832   4.029  10.877   8.534 -3.1001 -2.5391  0.3869
 1021MOL0     H37833   4.123  10.867   8.943  2.6165  0.8072 -0.4927
 1021MOL0     H37834   3.382  11.107   8.399  1.1579 -0.3846  0.3472
 1021MOL0     H37835   3.144  11.076   8.362 -2.2821 -1.4385  0.7550
 1022MOL0     O37836   7.027   2.524   8.767 -0.1379  0.4354 -0.4044
 1022MOL0     C37837   7.090   2.521   8.658 -0.5857 -0.2849  0.2551
 1022MOL0     O37838   7.041   2.580   8.544 -0.2471 -0.2455  0.0758
 1022MOL0     C37839   6.915   2.623   8.546  0.2234 -0.6937 -0.5491
 1022MOL0     C37840   6.807   2.541   8.525 -0.2922  1.1280  0.3303
 1022MOL0     C37841   6.681   2.589   8.559 -0.2069  0.3427  0.3296
 1022MOL0     C37842   6.657   2.725   8.596 -0.9634  0.6171 -0.4800
 1022MOL0     O37843   6.529   2.763   8.629 -0.1465 -0.5450  0.0496
 1022MOL0     C37844   6.496   2.903   8.653 -0.3594 -0.3114 -0.5079
 1022MOL0     C37845   6.351   2.915   8.686  0.4568  0.3655 -0.5943
 1022MOL0     C37846   6.310   3.064   8.665 -0.2121  0.6627  0.0731
 1022MOL0     C37847   6.158   3.077   8.659 -0.7147  0.3866 -0.3120
 1022MOL0     C37848   6.105   3.218   8.682 -0.4104  0.6424 -0.0437
 1022MOL0     C37849   5.954   3.222   8.693  0.5007 -0.5569 -0.4377
 1022MOL0     C37850   5.898   3.370   8.687  0.7377  0.0053  0.3369
 1022MOL0     C37851   5.737   3.371   8.705 -0.1903  0.2671 -0.2378
 1022MOL0     N37852   5.705   3.510   8.733 -0.4557 -0.3383 -0.0702
 1022MOL0     C37853   5.691   3.610   8.639  0.0767  0.1186 -0.2445
 1022MOL0     C37854   5.655   3.726   8.711 -0.5144 -0.2969 -0.2368
 1022MOL0     C37855   5.602   3.849   8.639 -0.1709  0.0402 -0.6045
 1022MOL0     C37856   5.476   3.913   8.719  0.1434  0.2326 -0.3851
 1022MOL0     C37857   5.514   3.974   8.848  0.3530 -0.1805 -0.0270
 1022MOL0     C37858   5.391   4.021   8.920 -0.0412 -0.2750 -0.4174
 1022MOL0     O37859   5.440   4.129   9.009 -0.1265  0.3863  0.2680
 1022MOL0     C37860   5.366   4.175   9.109 -0.3342 -0.6667 -0.9398
 1022MOL0     C37861   5.238   4.129   9.144  0.3298  0.1251  0.0204
 1022MOL0     C37862   5.162   4.201   9.237 -0.2022 -0.0389 -0.4451
 1022MOL0     C37863   5.019   4.149   9.253  0.0947  0.0699 -0.2053
 1022MOL0     C37864   5.214   4.324   9.303 -0.3099  0.1078 -0.4080
 1022MOL0     C37865   5.131   4.408   9.391 -0.0530  0.3256  0.8688
 1022MOL0     O37866   4.995   4.399   9.392 -0.9693 -0.2890  0.0824
 1022MOL0     C37867   4.911   4.440   9.493 -0.4934  0.2933  0.2759
 1022MOL0     C37868   4.937   4.471   9.625 -0.8547 -0.1437 -0.1801
 1022MOL0     C37869   4.828   4.503   9.715 -0.1647 -0.0661 -0.7767
 1022MOL0     C37870   4.699   4.497   9.678 -0.7568 -0.3217 -0.3562
 1022MOL0     O37871   4.605   4.534   9.774 -0.0037  0.0307  0.5617
 1022MOL0     C37872   4.478   4.472   9.759  1.1261 -0.7764 -0.1379
 1022MOL0     C37873   4.412   4.480   9.892  0.3985 -0.3083 -0.1902
 1022MOL0     C37874   4.276   4.417   9.905  0.3419 -0.0706  0.2753
 1022MOL0     C37875   4.230   4.446  10.046 -0.0618  0.7523 -0.3474
 1022MOL0     C37876   4.123   4.346  10.092 -0.3762  0.7388  0.2261
 1022MOL0     C37877   4.036   4.417  10.199 -0.0857  0.1179  0.4945
 1022MOL0     C37878   4.105   4.444  10.335  0.4282  0.0021 -0.1146
 1022MOL0     C37879   4.019   4.487  10.444 -0.5932  0.2375  0.7373
 1022MOL0    Cl37880   4.116   4.536  10.583 -0.5314 -0.0683  0.6391
 1022MOL0     C37881   4.680   4.452   9.550  0.4634  0.4468  0.1786
 1022MOL0     C37882   4.780   4.422   9.460  0.3245 -0.0858  0.1146
 1022MOL0     O37883   5.195   4.480   9.468 -0.4599 -0.0887  0.9750
 1022MOL0     C37884   5.344   4.366   9.257  0.4201  0.7430  0.6698
 1022MOL0     C37885   5.421   4.285   9.168  0.9707  0.3213  0.0652
 1022MOL0     N37886   5.658   3.687   8.843  0.7646 -0.1738  0.5991
 1022MOL0     N37887   5.681   3.561   8.857 -0.3257  0.2958 -0.2031
 1022MOL0     C37888   6.771   2.807   8.600 -0.2743 -0.8715  0.1935
 1022MOL0     C37889   6.897   2.763   8.565  0.1329 -0.2604  0.6949
 1022MOL0     C37890   7.213   2.429   8.659  1.0312  0.6446 -0.1122
 1022MOL0     C37891   7.305   2.420   8.557  0.1714  0.0580  0.3561
 1022MOL0     C37892   7.417   2.339   8.555 -0.5353  0.0043  0.2916
 1022MOL0     C37893   7.438   2.260   8.668  0.0798 -0.2814  0.1883
 1022MOL0     O37894   7.554   2.192   8.682  0.3029  0.0668  0.5648
 1022MOL0     C37895   7.672   2.223   8.600 -1.1052  0.2503  0.0485
 1022MOL0     C37896   7.749   2.339   8.668 -0.5552  0.3061  0.1194
 1022MOL0     C37897   7.820   2.312   8.810 -0.1748  0.4359  0.0590
 1022MOL0     C37898   7.917   2.197   8.800 -0.3461 -0.7066 -0.4521
 1022MOL0     C37899   8.035   2.233   8.731 -0.1456  0.6217 -0.6464
 1022MOL0     C37900   8.140   2.280   8.678 -1.3454  0.0523 -0.1513
 1022MOL0     C37901   7.345   2.249   8.763 -0.5006  0.2370  0.4128
 1022MOL0     C37902   7.233   2.337   8.769  0.0918 -0.3188  0.5137
 1022MOL0     H37903   6.823   2.435   8.508  0.2451  0.6517  3.2972
 1022MOL0     H37904   6.596   2.521   8.562 -0.2028  0.2498 -1.0536
 1022MOL0     H37905   6.552   2.924   8.745  0.4697  2.8919 -1.6004
 1022MOL0     H37906   6.529   2.967   8.570  2.1530 -3.1861 -1.9055
 1022MOL0     H37907   6.282   2.853   8.629 -0.5092 -0.1097  1.0154
 1022MOL0     H37908   6.349   2.891   8.793  5.3370  1.1051 -0.0903
 1022MOL0     H37909   6.342   3.124   8.750  0.0787  0.2715  0.2431
 1022MOL0     H37910   6.350   3.115   8.576 -2.3787  3.0086  0.3294
 1022MOL0     H37911   6.128   3.031   8.564  2.3149 -1.5355 -0.4834
 1022MOL0     H37912   6.119   3.008   8.735  1.0253  0.3498  0.6149
 1022MOL0     H37913   6.141   3.257   8.778  1.2865  0.6662 -0.6508
 1022MOL0     H37914   6.140   3.280   8.599  2.3667 -2.3085 -1.2996
 1022MOL0     H37915   5.915   3.177   8.601  1.9952  0.5187 -1.6614
 1022MOL0     H37916   5.929   3.167   8.784 -1.1268 -0.6330 -0.8967
 1022MOL0     H37917   5.950   3.433   8.759 -1.0850  2.9352 -0.7253
 1022MOL0     H37918   5.927   3.413   8.590 -1.4343  0.6143 -0.0941
 1022MOL0     H37919   5.714   3.300   8.785 -0.0252 -0.6395 -0.9795
 1022MOL0     H37920   5.680   3.340   8.617  0.7855  1.0012 -1.1497
 1022MOL0     H37921   5.694   3.593   8.532  1.9570  1.0042 -0.3727
 1022MOL0     H37922   5.685   3.920   8.630  0.3162  0.0109  2.5571
 1022MOL0     H37923   5.566   3.819   8.540  0.2141 -0.8477 -0.4826
 1022MOL0     H37924   5.399   3.838   8.741 -3.3374  3.8643  1.0031
 1022MOL0     H37925   5.433   3.991   8.655  4.0090  1.5868 -1.6421
 1022MOL0     H37926   5.575   4.062   8.824  0.0086 -0.1849 -0.9890
 1022MOL0     H37927   5.563   3.903   8.914 -0.3236 -2.5279 -1.8836
 1022MOL0     H37928   5.353   3.926   8.957  0.5236 -0.3032  0.0944
 1022MOL0     H37929   5.311   4.062   8.857 -0.9568 -0.9279  0.2871
 1022MOL0     H37930   5.198   4.049   9.083  1.6047  0.0164 -0.7301
 1022MOL0     H37931   4.949   4.217   9.203 -3.5323 -2.7559  0.5887
 1022MOL0     H37932   5.007   4.052   9.205 -0.9789 -1.4402  2.9002
 1022MOL0     H37933   4.998   4.136   9.359  1.1605  1.1916  0.1694
 1022MOL0     H37934   5.033   4.501   9.667 -0.7750  0.1309 -0.5527
 1022MOL0     H37935   4.850   4.528   9.818 -3.4915 -2.5689  0.7779
 1022MOL0     H37936   4.417   4.527   9.687  2.2190 -1.6266 -1.7825
 1022MOL0     H37937   4.491   4.373   9.713 -2.0859 -1.6038  0.5237
 1022MOL0     H37938   4.473   4.444   9.975 -1.5793 -0.3140  1.3293
 1022MOL0     H37939   4.405   4.587   9.914 -0.9314 -0.4011 -0.1180
 1022MOL0     H37940   4.282   4.309   9.888 -5.0422 -0.7609  1.0428
 1022MOL0     H37941   4.203   4.453   9.833 -0.2426 -0.9835  0.3915
 1022MOL0     H37942   4.311   4.423  10.116 -0.0066  1.6318 -0.1080
 1022MOL0     H37943   4.205   4.552  10.061  0.5487  0.7625  0.7189
 1022MOL0     H37944   4.173   4.252  10.115 -1.7811 -0.4203 -1.1867
 1022MOL0     H37945   4.056   4.325  10.008 -0.1530  0.3491  0.1473
 1022MOL0     H37946   4.002   4.509  10.150  1.3201  0.2087 -0.3541
 1022MOL0     H37947   3.962   4.341  10.222  1.6933 -1.5796  0.8743
 1022MOL0     H37948   4.176   4.523  10.309  0.2435 -0.5320 -2.5009
 1022MOL0     H37949   4.161   4.353  10.360  1.2509  0.6974  0.6333
 1022MOL0     H37950   3.957   4.403  10.476 -0.2783 -1.6840 -3.0422
 1022MOL0     H37951   3.968   4.577  10.410  1.3754  1.2037  0.2178
 1022MOL0     H37952   4.575   4.449   9.521  0.0025  0.3698  1.7548
 1022MOL0     H37953   4.754   4.390   9.360 -1.8229 -1.5715  1.0832
 1022MOL0     H37954   5.392   4.457   9.291  0.6765  1.1929 -0.8233
 1022MOL0     H37955   5.522   4.305   9.133  1.4546 -2.1187 -0.0490
 1022MOL0     H37956   6.754   2.912   8.622  0.7040 -0.0411 -2.5744
 1022MOL0     H37957   6.983   2.828   8.575 -1.0419  1.6278 -0.6908
 1022MOL0     H37958   7.281   2.486   8.474 -0.6780 -2.0576 -1.1526
 1022MOL0     H37959   7.473   2.334   8.462  1.5650 -1.3124  1.5394
 1022MOL0     H37960   7.726   2.128   8.591 -1.3969  0.1020 -0.1681
 1022MOL0     H37961   7.655   2.259   8.498  1.0354  2.6654  0.4709
 1022MOL0     H37962   7.684   2.424   8.691 -1.9400 -0.8723  0.7102
 1022MOL0     H37963   7.830   2.368   8.600 -2.8234  1.3599 -2.3040
 1022MOL0     H37964   7.736   2.271   8.868 -1.4809 -3.3250 -3.9653
 1022MOL0     H37965   7.850   2.405   8.861 -0.8455 -0.1828  1.6577
 1022MOL0     H37966   7.871   2.101   8.776  1.4160 -1.3407 -1.4566
 1022MOL0     H37967   7.956   2.175   8.900 -2.4361 -0.5720  0.4498
 1022MOL0     H37968   8.233   2.308   8.635 -2.7180  1.5485 -2.3572
 1022MOL0     H37969   7.370   2.168   8.831  1.9707  1.0233  0.5429
 1022MOL0     H37970   7.170   2.329   8.857 -0.0174  0.3258  0.4968
 1023MOL0     O37971   2.501   4.897   6.166  0.4546  0.2054 -0.1188
 1023MOL0     C37972   2.546   4.938   6.274  0.1229  0.0960  0.5473
 1023MOL0     O37973   2.474   4.930   6.393 -0.2719  0.2935 -0.3918
 1023MOL0     C37974   2.347   4.872   6.402 -0.1437  0.5497  0.2825
 1023MOL0     C37975   2.323   4.733   6.408 -0.2987 -0.0950  0.5491
 1023MOL0     C37976   2.193   4.680   6.388 -0.4520 -0.6409  0.6323
 1023MOL0     C37977   2.081   4.769   6.396 -0.4679 -0.5438 -0.1152
 1023MOL0     O37978   1.959   4.720   6.369 -0.2356  0.3091 -0.7996
 1023MOL0     C37979   1.919   4.604   6.445 -0.2827  0.1748 -0.5342
 1023MOL0     C37980   1.783   4.556   6.408 -0.7302 -0.0272 -0.5735
 1023MOL0     C37981   1.779   4.465   6.281  0.1230 -0.0211  0.9881
 1023MOL0     C37982   1.813   4.547   6.157 -0.1857  0.0286  0.9530
 1023MOL0     C37983   1.748   4.487   6.033 -0.0913 -0.1308  0.6079
 1023MOL0     C37984   1.775   4.567   5.907 -0.8088 -0.2240  0.3401
 1023MOL0     C37985   1.642   4.578   5.822  0.3537 -0.4710 -0.4509
 1023MOL0     C37986   1.651   4.691   5.711 -0.5035 -1.1785 -0.4552
 1023MOL0     N37987   1.582   4.638   5.596 -0.9016  0.0514  0.6691
 1023MOL0     C37988   1.445   4.647   5.572  0.0662  0.3878  0.4523
 1023MOL0     C37989   1.420   4.603   5.448 -0.5480 -0.1847 -0.2494
 1023MOL0     C37990   1.288   4.572   5.388  0.5099  0.7290 -0.8962
 1023MOL0     C37991   1.284   4.614   5.241 -0.8009 -0.0081 -0.3535
 1023MOL0     C37992   1.313   4.760   5.207  1.4778  0.7705 -0.6438
 1023MOL0     C37993   1.196   4.849   5.247 -1.6273  0.2219  0.3321
 1023MOL0     O37994   1.074   4.794   5.210  0.1019  0.1178  0.2685
 1023MOL0     C37995   0.962   4.869   5.226 -0.0030  0.4494 -0.7899
 1023MOL0     C37996   0.856   4.836   5.140 -0.2537 -0.0785 -0.7425
 1023MOL0     C37997   0.732   4.898   5.155  0.1376  0.2803 -0.2674
 1023MOL0     C37998   0.617   4.844   5.079 -0.2902 -0.1995  0.9766
 1023MOL0     C37999   0.708   4.995   5.256 -0.9923 -0.6516 -0.6634
 1023MOL0     C38000   0.581   5.074   5.292  0.2409 -0.3567  0.8463
 1023MOL0     O38001   0.465   5.007   5.271 -0.3822  0.0759  0.5071
 1023MOL0     C38002   0.343   5.067   5.277  1.5683  0.1588 -0.4122
 1023MOL0     C38003   0.245   5.015   5.370 -0.5650  0.2691 -0.1529
 1023MOL0     C38004   0.126   5.083   5.393 -0.2045  1.1357  0.5653
 1023MOL0     C38005   0.098   5.205   5.330 -0.1681 -0.3203  0.6931
 1023MOL0     O38006  -0.010   5.284   5.361  0.3132 -0.0702 -0.2439
 1023MOL0     C38007  -0.129   5.219   5.416  0.5829 -0.2292  0.7250
 1023MOL0     C38008  -0.252   5.306   5.404  0.4020 -0.2385  0.2115
 1023MOL0     C38009  -0.376   5.219   5.423  0.1625 -0.0302  0.2457
 1023MOL0     C38010  -0.493   5.324   5.444 -1.2128 -0.8322  0.2457
 1023MOL0     C38011  -0.618   5.242   5.439  0.0337  0.0357 -0.7154
 1023MOL0     C38012  -0.754   5.307   5.462 -0.1702 -0.1946 -0.4188
 1023MOL0     C38013  -0.788   5.428   5.368  0.4761  0.3535  0.1904
 1023MOL0     C38014  -0.878   5.526   5.442  0.4324  0.2986 -0.6123
 1023MOL0    Cl38015  -1.032   5.434   5.475 -0.1006 -0.2216 -0.0715
 1023MOL0     C38016   0.187   5.251   5.226  0.1044  0.0039  0.1222
 1023MOL0     C38017   0.303   5.179   5.199  0.0820  0.0266 -0.8640
 1023MOL0     O38018   0.591   5.198   5.307  0.2484 -0.2603 -0.4782
 1023MOL0     C38019   0.822   5.031   5.336  0.2574  0.4472  0.3961
 1023MOL0     C38020   0.947   4.971   5.318  0.4681  0.6277  0.6822
 1023MOL0     N38021   1.550   4.585   5.391  0.1015 -0.1493 -0.0183
 1023MOL0     N38022   1.642   4.610   5.479 -0.4909 -0.4267  0.0150
 1023MOL0     C38023   2.105   4.907   6.401 -0.0973 -1.0263  0.4205
 1023MOL0     C38024   2.230   4.965   6.400 -0.4892 -0.5742  0.6363
 1023MOL0     C38025   2.683   4.997   6.281  0.3185 -0.3250 -0.8257
 1023MOL0     C38026   2.755   5.025   6.167  0.4681 -0.4384  0.1594
 1023MOL0     C38027   2.897   5.048   6.179 -0.8508 -0.1637 -0.5565
 1023MOL0     C38028   2.968   5.027   6.298  0.1899 -0.2570  0.4467
 1023MOL0     O38029   3.102   5.019   6.307 -0.3219  0.1922  0.3482
 1023MOL0     C38030   3.190   5.053   6.196 -0.0025  0.1998  0.1126
 1023MOL0     C38031   3.341   5.042   6.234 -0.4149  0.5044  0.2966
 1023MOL0     C38032   3.385   5.166   6.312  0.8882 -0.9288 -0.4756
 1023MOL0     C38033   3.488   5.249   6.233  0.3820  0.6333 -0.3576
 1023MOL0     C38034   3.618   5.192   6.229 -0.2283  0.2235  0.2650
 1023MOL0     C38035   3.724   5.138   6.226 -0.3031  0.5251  0.1613
 1023MOL0     C38036   2.892   5.015   6.416  0.6654  0.1244 -0.5107
 1023MOL0     C38037   2.748   4.997   6.405 -1.1864  0.8434  0.2337
 1023MOL0     H38038   2.398   4.655   6.416  0.1393  0.4579  2.4078
 1023MOL0     H38039   2.175   4.574   6.376 -1.6197 -0.8440  3.4442
 1023MOL0     H38040   1.997   4.528   6.430  0.4860  0.9874 -0.7360
 1023MOL0     H38041   1.914   4.642   6.548  1.0969  0.6463 -0.6146
 1023MOL0     H38042   1.747   4.511   6.501  1.0080 -0.1446  0.0827
 1023MOL0     H38043   1.716   4.640   6.389 -0.5327  0.5134  1.0057
 1023MOL0     H38044   1.857   4.389   6.292  1.3430  1.0640  0.0176
 1023MOL0     H38045   1.676   4.430   6.295  0.1168 -0.6070 -0.3976
 1023MOL0     H38046   1.765   4.644   6.170 -1.3840 -0.5625  1.1299
 1023MOL0     H38047   1.922   4.554   6.151 -0.2680  0.3583 -0.3236
 1023MOL0     H38048   1.781   4.385   6.012  0.6664 -0.3365  2.5874
 1023MOL0     H38049   1.641   4.482   6.055 -0.8669  0.9694 -2.4695
 1023MOL0     H38050   1.806   4.666   5.940 -2.6369 -0.6773  3.8414
 1023MOL0     H38051   1.853   4.515   5.851  0.4165  0.6672  1.1636
 1023MOL0     H38052   1.624   4.479   5.780  1.5099 -1.2371  0.8228
 1023MOL0     H38053   1.564   4.603   5.895 -1.0624 -3.2949 -0.8442
 1023MOL0     H38054   1.752   4.720   5.682 -1.1580  1.5122 -0.3499
 1023MOL0     H38055   1.606   4.782   5.753  0.5167 -1.1617  0.6271
 1023MOL0     H38056   1.367   4.679   5.641  0.2885  2.0237 -0.0061
 1023MOL0     H38057   1.270   4.465   5.377 -0.8274  0.8435  0.0658
 1023MOL0     H38058   1.217   4.611   5.461  2.3562  0.3712  1.2007
 1023MOL0     H38059   1.186   4.578   5.210 -2.8167  3.7147  1.0500
 1023MOL0     H38060   1.369   4.563   5.194  2.5135  1.8359  3.0176
 1023MOL0     H38061   1.322   4.772   5.099  1.0306  1.1813 -0.6390
 1023MOL0     H38062   1.408   4.795   5.249  1.3599  0.7031 -0.3182
 1023MOL0     H38063   1.204   4.945   5.195 -4.2866  0.2540 -0.1457
 1023MOL0     H38064   1.197   4.867   5.355  0.7610  1.2426  0.2101
 1023MOL0     H38065   0.879   4.767   5.060  0.6254 -1.3956  0.6028
 1023MOL0     H38066   0.554   4.777   5.140 -1.1953  0.5777  0.9204
 1023MOL0     H38067   0.554   4.921   5.033  1.8406 -1.0388 -4.0487
 1023MOL0     H38068   0.659   4.781   4.999 -0.2108  3.5586 -2.2694
 1023MOL0     H38069   0.261   4.929   5.435 -1.3179  1.3468  1.5314
 1023MOL0     H38070   0.055   5.050   5.468 -2.5844  0.9557 -1.6276
 1023MOL0     H38071  -0.149   5.121   5.370 -0.9727 -0.7261  2.3930
 1023MOL0     H38072  -0.116   5.200   5.523 -1.3403 -0.0746  1.0121
 1023MOL0     H38073  -0.244   5.376   5.488 -0.3946 -0.4312  0.4548
 1023MOL0     H38074  -0.263   5.361   5.310  0.1197 -0.2395  0.2428
 1023MOL0     H38075  -0.371   5.165   5.518 -0.7917  0.2861  0.4892
 1023MOL0     H38076  -0.390   5.160   5.333 -1.2269  0.9434 -0.2040
 1023MOL0     H38077  -0.472   5.378   5.536  0.9391 -1.1819  0.0292
 1023MOL0     H38078  -0.489   5.397   5.362  0.1206  0.4270  1.3648
 1023MOL0     H38079  -0.609   5.160   5.510 -0.4273 -0.8096 -1.6014
 1023MOL0     H38080  -0.616   5.184   5.346  0.4466 -3.4882  1.3142
 1023MOL0     H38081  -0.830   5.228   5.459 -0.4372  0.0625 -0.4435
 1023MOL0     H38082  -0.758   5.353   5.561 -1.4982 -0.7696 -0.1798
 1023MOL0     H38083  -0.833   5.384   5.279  0.0948  0.4014  0.3586
 1023MOL0     H38084  -0.696   5.478   5.336  0.8217  1.1145  2.1940
 1023MOL0     H38085  -0.903   5.609   5.374 -2.7268  1.3532  1.5858
 1023MOL0     H38086  -0.833   5.559   5.536 -1.8080 -0.9755  1.0107
 1023MOL0     H38087   0.164   5.339   5.169  0.6309 -0.3067 -0.5792
 1023MOL0     H38088   0.373   5.204   5.120  1.6792  0.9716  0.7975
 1023MOL0     H38089   0.809   5.108   5.412 -2.1666 -0.9606  1.5329
 1023MOL0     H38090   1.027   5.010   5.381  0.1748  0.7634  0.9781
 1023MOL0     H38091   2.021   4.976   6.405  1.9604  1.6365  0.3866
 1023MOL0     H38092   2.238   5.073   6.394  0.7561 -0.6743 -0.0287
 1023MOL0     H38093   2.702   5.041   6.074  1.0466 -0.4429 -0.1715
 1023MOL0     H38094   2.948   5.085   6.090  1.8691  0.1968  1.0469
 1023MOL0     H38095   3.171   4.987   6.111 -1.5322  0.1597  0.4521
 1023MOL0     H38096   3.157   5.155   6.170 -0.6506  0.5652  2.1486
 1023MOL0     H38097   3.403   5.008   6.151  0.1158 -0.6124  1.1296
 1023MOL0     H38098   3.354   4.960   6.305 -0.1919  0.2302 -0.0596
 1023MOL0     H38099   3.423   5.141   6.411 -1.3560  1.7362  1.1722
 1023MOL0     H38100   3.295   5.226   6.325  2.0658  0.7996 -0.0483
 1023MOL0     H38101   3.494   5.346   6.283 -2.9190  0.0757  1.4260
 1023MOL0     H38102   3.439   5.274   6.138 -0.6098 -0.2425 -0.1018
 1023MOL0     H38103   3.812   5.078   6.239 -1.7085 -2.5127 -2.7826
 1023MOL0     H38104   2.935   5.019   6.515 -2.0473  0.1211  0.7582
 1023MOL0     H38105   2.713   4.965   6.503 -1.5030 -1.7987 -0.6638
 1024MOL0     O38106   0.686   7.587   1.639  0.3464  0.4066  0.3630
 1024MOL0     C38107   0.690   7.463   1.652  0.5372  0.1496  0.7348
 1024MOL0     O38108   0.582   7.375   1.662 -0.0427 -0.3012 -0.3195
 1024MOL0     C38109   0.463   7.439   1.688 -0.4219 -0.2094  0.9807
 1024MOL0     C38110   0.357   7.404   1.604  0.0395 -0.6056 -0.2868
 1024MOL0     C38111   0.233   7.450   1.631 -0.3822 -0.0272 -0.4221
 1024MOL0     C38112   0.204   7.531   1.737  0.3811 -0.7408 -0.6882
 1024MOL0     O38113   0.069   7.563   1.746 -0.1617  0.1545  0.1593
 1024MOL0     C38114   0.011   7.576   1.874  0.5050 -0.3990  0.1621
 1024MOL0     C38115  -0.135   7.588   1.851  0.3495 -0.6413  0.7106
 1024MOL0     C38116  -0.216   7.459   1.829  0.2963  1.0665  0.2124
 1024MOL0     C38117  -0.354   7.496   1.771 -0.3387  0.0090 -0.0129
 1024MOL0     C38118  -0.452   7.564   1.871 -0.1951 -0.9087 -0.5821
 1024MOL0     C38119  -0.593   7.561   1.814 -0.1183  1.4301  0.2544
 1024MOL0     C38120  -0.688   7.621   1.919  0.4938  0.4047 -0.0255
 1024MOL0     C38121  -0.829   7.633   1.867  0.1122 -0.5914  0.1267
 1024MOL0     N38122  -0.898   7.497   1.852 -0.1688 -0.1279  0.2141
 1024MOL0     C38123  -0.953   7.428   1.954 -0.1324  1.2202 -0.3881
 1024MOL0     C38124  -1.003   7.316   1.896 -0.5025  0.6706 -0.5875
 1024MOL0     C38125  -1.053   7.190   1.967  0.1404  0.0451  0.0202
 1024MOL0     C38126  -1.173   7.229   2.052 -0.1835  0.3327 -0.5026
 1024MOL0     C38127  -1.297   7.282   1.987 -0.4392 -0.4162 -0.5156
 1024MOL0     C38128  -1.398   7.181   1.922  0.5120  0.0848  0.1008
 1024MOL0     O38129  -1.533   7.226   1.924  0.3311  0.6186 -1.0259
 1024MOL0     C38130  -1.624   7.147   1.867 -0.0780 -0.8074  0.6090
 1024MOL0     C38131  -1.748   7.134   1.928  0.1694 -0.0423 -0.7139
 1024MOL0     C38132  -1.855   7.084   1.855 -0.2655  0.1808  0.4401
 1024MOL0     C38133  -1.986   7.094   1.933 -0.4124  0.4306  0.0533
 1024MOL0     C38134  -1.843   7.020   1.729  0.7946 -0.1313 -0.8697
 1024MOL0     C38135  -1.960   6.964   1.649 -0.3769  0.4958  0.9862
 1024MOL0     O38136  -2.089   6.969   1.686  0.3778  0.5289 -0.5627
 1024MOL0     C38137  -2.187   6.911   1.610 -0.1305 -0.0622 -0.3880
 1024MOL0     C38138  -2.312   6.889   1.674 -0.7753  0.2126 -0.4891
 1024MOL0     C38139  -2.424   6.830   1.607 -0.0046 -0.0129  0.1767
 1024MOL0     C38140  -2.413   6.797   1.472 -0.4066  0.4463  0.5989
 1024MOL0     O38141  -2.520   6.726   1.413 -0.8181  0.0091  0.8465
 1024MOL0     C38142  -2.614   6.810   1.353  0.2912  0.0782 -0.0093
 1024MOL0     C38143  -2.737   6.721   1.347  0.1729  0.8485  0.0166
 1024MOL0     C38144  -2.852   6.807   1.364  1.1206  0.5398  0.5865
 1024MOL0     C38145  -2.963   6.749   1.283 -0.1851 -0.3141  0.0388
 1024MOL0     C38146  -3.088   6.832   1.302  0.2042  0.0220  0.5905
 1024MOL0     C38147  -3.205   6.748   1.246  0.1786 -0.5572 -0.8957
 1024MOL0     C38148  -3.192   6.716   1.097  0.9095 -0.1096 -0.1022
 1024MOL0     C38149  -3.144   6.833   1.013 -0.1208  0.2274 -0.5106
 1024MOL0    Cl38150  -3.287   6.951   1.016 -0.1713  0.5871 -0.0989
 1024MOL0     C38151  -2.301   6.836   1.399  0.0240  0.2514 -0.0175
 1024MOL0     C38152  -2.187   6.884   1.465 -0.2208  0.2805  0.4475
 1024MOL0     O38153  -1.921   6.912   1.544  0.3954  0.0875 -0.5177
 1024MOL0     C38154  -1.713   7.021   1.671 -0.0520 -1.4404 -0.1281
 1024MOL0     C38155  -1.607   7.083   1.742  0.3998 -0.3178 -0.3576
 1024MOL0     N38156  -0.989   7.325   1.760  0.4336 -0.3373 -0.0125
 1024MOL0     N38157  -0.931   7.437   1.738  0.8029  0.4551  0.1377
 1024MOL0     C38158   0.310   7.554   1.830  0.0258 -0.2838 -0.3778
 1024MOL0     C38159   0.444   7.515   1.804 -0.3954 -0.5522  1.0725
 1024MOL0     C38160   0.818   7.394   1.670  0.1900  0.5130 -0.4422
 1024MOL0     C38161   0.937   7.466   1.656 -0.0810 -0.0078  0.4254
 1024MOL0     C38162   1.059   7.410   1.688  0.5340 -0.2426 -0.3066
 1024MOL0     C38163   1.077   7.279   1.727  0.9908  1.2424  0.2099
 1024MOL0     O38164   1.190   7.206   1.753  0.1133  0.1048  0.6033
 1024MOL0     C38165   1.317   7.270   1.749 -0.1998  0.9258 -0.3374
 1024MOL0     C38166   1.421   7.212   1.844 -0.3341 -0.4408 -0.6545
 1024MOL0     C38167   1.358   7.225   1.988  0.1552  0.9879 -0.4281
 1024MOL0     C38168   1.460   7.172   2.087 -1.3715  0.0183 -0.4871
 1024MOL0     C38169   1.402   7.151   2.222  0.2773 -0.7441 -0.6435
 1024MOL0     C38170   1.349   7.129   2.330  0.7926 -0.4700  0.3070
 1024MOL0     C38171   0.958   7.201   1.725 -0.5306 -0.4558 -0.1669
 1024MOL0     C38172   0.832   7.249   1.692 -0.1816  0.4677 -0.4569
 1024MOL0     H38173   0.374   7.338   1.519 -1.7541 -0.8929 -0.4513
 1024MOL0     H38174   0.154   7.417   1.564 -4.6541  4.3557  1.7888
 1024MOL0     H38175   0.031   7.502   1.953 -2.9195 -1.0910  0.5587
 1024MOL0     H38176   0.060   7.664   1.916  0.3338 -0.0183 -0.4293
 1024MOL0     H38177  -0.179   7.652   1.928  0.2386  1.4100 -0.9544
 1024MOL0     H38178  -0.136   7.651   1.761 -0.5133  0.6247  1.5615
 1024MOL0     H38179  -0.166   7.389   1.762 -1.7111  0.0890 -0.3638
 1024MOL0     H38180  -0.231   7.408   1.925  1.3147  1.1134  0.4102
 1024MOL0     H38181  -0.347   7.557   1.680  2.0469  2.1240  1.4429
 1024MOL0     H38182  -0.394   7.396   1.752  2.3186 -0.9892 -0.8153
 1024MOL0     H38183  -0.446   7.523   1.973  1.2989  3.8665  1.5524
 1024MOL0     H38184  -0.422   7.669   1.883 -2.2062 -0.2926 -0.5577
 1024MOL0     H38185  -0.597   7.605   1.714  1.5002 -2.6898 -1.8407
 1024MOL0     H38186  -0.601   7.454   1.794 -0.5352  0.3571  4.9070
 1024MOL0     H38187  -0.683   7.555   2.007  1.8921  2.1464  1.2790
 1024MOL0     H38188  -0.650   7.715   1.961 -1.8258  1.4446 -0.0941
 1024MOL0     H38189  -0.833   7.694   1.776  2.5759 -0.0770  0.2969
 1024MOL0     H38190  -0.885   7.702   1.931  0.9956  1.8048 -1.5268
 1024MOL0     H38191  -0.936   7.446   2.060  3.6283  0.7843 -0.7843
 1024MOL0     H38192  -1.075   7.106   1.901  2.9852 -2.1585  1.6136
 1024MOL0     H38193  -0.982   7.143   2.036 -0.2217  2.0413  1.8457
 1024MOL0     H38194  -1.137   7.311   2.115 -2.5625  2.4331 -1.6801
 1024MOL0     H38195  -1.213   7.150   2.116  2.4339  0.3590  1.3497
 1024MOL0     H38196  -1.263   7.352   1.909 -1.1159 -0.9177 -1.2710
 1024MOL0     H38197  -1.351   7.340   2.062 -0.9330 -0.7349 -0.6264
 1024MOL0     H38198  -1.398   7.085   1.975  1.5749  0.4070  0.7240
 1024MOL0     H38199  -1.364   7.159   1.821  1.2113 -3.2625  0.9420
 1024MOL0     H38200  -1.770   7.187   2.021  3.0621  2.4539 -1.3150
 1024MOL0     H38201  -2.023   6.993   1.954  0.4544 -0.3248 -1.8306
 1024MOL0     H38202  -1.977   7.148   2.028 -0.9143  4.2479 -1.8407
 1024MOL0     H38203  -2.060   7.144   1.869 -0.5317 -2.8055 -2.6398
 1024MOL0     H38204  -2.334   6.915   1.777 -4.5310  3.0125 -1.7533
 1024MOL0     H38205  -2.515   6.811   1.662 -1.9084  1.1210 -2.3930
 1024MOL0     H38206  -2.642   6.894   1.416  0.4762 -0.0710  0.2794
 1024MOL0     H38207  -2.582   6.847   1.255  2.3397 -0.6598  0.3140
 1024MOL0     H38208  -2.732   6.661   1.256  0.8122 -0.6866  1.0287
 1024MOL0     H38209  -2.739   6.645   1.425 -0.7656 -1.8452 -2.4568
 1024MOL0     H38210  -2.833   6.907   1.322  0.5274  0.3853 -0.0596
 1024MOL0     H38211  -2.873   6.819   1.470 -0.8189  2.1090  0.0881
 1024MOL0     H38212  -2.931   6.743   1.178  2.4647 -0.0969  0.7697
 1024MOL0     H38213  -2.981   6.646   1.316  2.7779 -1.5411 -1.7663
 1024MOL0     H38214  -3.079   6.928   1.250 -0.6559  0.1973  0.7509
 1024MOL0     H38215  -3.109   6.845   1.409 -1.3984  0.9522  0.1850
 1024MOL0     H38216  -3.224   6.656   1.303 -2.7027  0.1150 -0.5956
 1024MOL0     H38217  -3.302   6.797   1.257 -0.2892 -1.6901  0.3305
 1024MOL0     H38218  -3.284   6.688   1.045  0.2644 -1.8988  1.8771
 1024MOL0     H38219  -3.121   6.633   1.081  1.8660  0.6979 -0.1788
 1024MOL0     H38220  -3.119   6.805   0.910  1.6447 -2.2066  0.4822
 1024MOL0     H38221  -3.044   6.870   1.039  0.1715 -1.7372  1.4677
 1024MOL0     H38222  -2.289   6.809   1.294 -1.1501  0.9800 -0.3573
 1024MOL0     H38223  -2.102   6.907   1.403 -0.8771 -0.8089 -0.9172
 1024MOL0     H38224  -1.695   6.992   1.568 -2.1328  1.7215 -1.5609
 1024MOL0     H38225  -1.516   7.103   1.686  0.9424  2.2379  1.2878
 1024MOL0     H38226   0.285   7.621   1.912 -4.1659  0.6886 -2.1522
 1024MOL0     H38227   0.531   7.532   1.866 -0.5250 -2.9753  2.0023
 1024MOL0     H38228   0.932   7.571   1.629 -2.3230 -0.9538 -3.5729
 1024MOL0     H38229   1.147   7.473   1.680  0.7158 -0.4869 -0.2207
 1024MOL0     H38230   1.367   7.262   1.652 -0.7126 -0.4073 -0.5095
 1024MOL0     H38231   1.310   7.374   1.783  0.8123  0.4044  1.6136
 1024MOL0     H38232   1.516   7.266   1.835  0.0012 -0.4328  2.2368
 1024MOL0     H38233   1.445   7.113   1.806  3.2853  0.1534 -0.3315
 1024MOL0     H38234   1.273   7.157   2.003  1.7489 -1.0780 -0.3356
 1024MOL0     H38235   1.314   7.323   2.009  0.3033  0.9668 -0.0064
 1024MOL0     H38236   1.554   7.227   2.094 -0.5009 -1.5631  0.6791
 1024MOL0     H38237   1.483   7.068   2.063  2.2218  0.2622  1.2209
 1024MOL0     H38238   1.285   7.101   2.411 -0.3899  0.4322 -0.2775
 1024MOL0     H38239   0.968   7.099   1.760 -0.1984 -0.3965 -0.0931
 1024MOL0     H38240   0.747   7.181   1.694  0.4121 -0.2514  0.7700
  11.31881  11.31881  11.31881
